<event>
12    1  0.4967442E-008  0.1512160E+04  0.7818608E-02  0.8876406E-01
         -1   -1    0    0    0  501 -0.00000000000E+00  0.00000000000E+00  0.61216779278E+03  0.61216779278E+03  0.00000000000E+00 0.  1.
          1   -1    0    0  501    0  0.00000000000E+00 -0.00000000000E+00 -0.93382455267E+03  0.93382455267E+03  0.00000000000E+00 0. -1.
         23    2    1    2    0    0 -0.27892432714E+03 -0.18937578837E+03 -0.44610615677E+03  0.56631600686E+03  0.89672442952E+02 0.  0.
        254    2    1    2    0    0  0.27892432714E+03  0.18937578837E+03  0.12444939689E+03  0.97967633858E+03  0.91138142756E+03 0.  0.
         23    2    4    4    0    0  0.48866332009E+03 -0.15542968668E+03  0.20223344602E+03  0.55883500193E+03  0.91912810828E+02 0.  0.
         23    2    4    4    0    0 -0.20973899295E+03  0.34480547505E+03 -0.77784049135E+02  0.42084133665E+03  0.90420194340E+02 0.  0.
         13    1    3    3    0    0 -0.13157494832E+02 -0.43492972512E+02 -0.65564082519E+02  0.79770967430E+02  0.00000000000E+00 0.  1.
        -13    1    3    3    0    0 -0.26576683231E+03 -0.14588281586E+03 -0.38054207425E+03  0.48654503943E+03  0.00000000000E+00 0. -1.
          2    1    5    5  502    0  0.45023237820E+03 -0.11457363584E+03  0.18611010309E+03  0.50047305909E+03  0.00000000000E+00 0. -1.
          3    1    6    6  503    0 -0.21841536860E+03  0.33853779514E+03 -0.76130664010E+02  0.41001096324E+03  0.00000000000E+00 0. -1.
         -2    1    5    5    0  502  0.38430941894E+02 -0.40856050836E+02  0.16123342928E+02  0.58361942839E+02  0.00000000000E+00 0.  1.
         -3    1    6    6    0  503  0.86763756440E+01  0.62676799135E+01 -0.16533851252E+01  0.10830373409E+02  0.00000000000E+00 0.  1.
<mgrwt>
<rscale>  0 0.15121605E+04</rscale>
<asrwt>0</asrwt>
<pdfrwt beam="1">  1        1 0.14366532E+00 0.15121605E+04</pdfrwt>
<pdfrwt beam="2">  1       -1 0.94179660E-01 0.15121605E+04</pdfrwt>
<totfact> 0.18025548E+01</totfact>
</mgrwt>
</event>
<event>
12    1  0.4967442E-008  0.1511212E+04  0.7818608E-02  0.8877031E-01
         -2   -1    0    0    0  501 -0.00000000000E+00  0.00000000000E+00  0.39766069280E+03  0.39766069280E+03  0.00000000000E+00 0.  1.
          2   -1    0    0  501    0  0.00000000000E+00 -0.00000000000E+00 -0.14357467782E+04  0.14357467782E+04  0.00000000000E+00 0. -1.
         23    2    1    2    0    0  0.39915860612E+03  0.20554580523E+03 -0.12673825385E+03  0.47540399373E+03  0.91486072056E+02 0.  0.
        254    2    1    2    0    0 -0.39915860612E+03 -0.20554580523E+03 -0.91134783156E+03  0.13580034773E+04  0.90113367671E+03 0.  0.
         23    2    4    4    0    0 -0.22964804695E+03 -0.45083455248E+03 -0.15106934331E+03  0.53617551507E+03  0.93124740479E+02 0.  0.
         23    2    4    4    0    0 -0.16951055917E+03  0.24528874725E+03 -0.76027848825E+03  0.82182796220E+03  0.92072908927E+02 0.  0.
         13    1    3    3    0    0  0.24787388413E+03  0.12175900758E+03 -0.12328228896E+03  0.30243220915E+03  0.00000000000E+00 0. -1.
        -13    1    3    3    0    0  0.15128472199E+03  0.83786797648E+02 -0.34559648902E+01  0.17297178458E+03  0.00000000000E+00 0.  1.
          4    1    6    6  502    0 -0.10366933872E+03  0.82834283859E+02 -0.39442993957E+03  0.41615361059E+03  0.00000000000E+00 0. -1.
          4    1    5    5  503    0 -0.20532630453E+03 -0.44350641421E+03 -0.13940009425E+03  0.50822162198E+03  0.00000000000E+00 0. -1.
         -4    1    5    5    0  503 -0.24321742423E+02 -0.73281382790E+01 -0.11669249061E+02  0.27953893088E+02  0.00000000000E+00 0.  1.
         -4    1    6    6    0  502 -0.65841220445E+02  0.16245446339E+03 -0.36584854868E+03  0.40567435162E+03  0.00000000000E+00 0.  1.
<mgrwt>
<rscale>  0 0.15112115E+04</rscale>
<asrwt>0</asrwt>
<pdfrwt beam="1">  1        2 0.22088412E+00 0.15112115E+04</pdfrwt>
<pdfrwt beam="2">  1       -2 0.61178569E-01 0.15112115E+04</pdfrwt>
<totfact> 0.33119172E+01</totfact>
</mgrwt>
</event>
<event>
12    1  0.4967442E-008  0.1494293E+04  0.7818608E-02  0.8888257E-01
          2   -1    0    0  501    0  0.00000000000E+00  0.00000000000E+00  0.39507796305E+04  0.39507796305E+04  0.00000000000E+00 0. -1.
         -2   -1    0    0    0  501 -0.00000000000E+00 -0.00000000000E+00 -0.14129566205E+03  0.14129566205E+03  0.00000000000E+00 0.  1.
         23    2    1    2    0    0  0.60627565111E+01  0.25286923347E+03  0.22880385143E+04  0.23038321525E+04  0.92426931136E+02 0.  0.
        254    2    1    2    0    0 -0.60627565111E+01 -0.25286923347E+03  0.15214454541E+04  0.17882431400E+04  0.90500698991E+03 0.  0.
         23    2    4    4    0    0  0.43029470064E+03 -0.17835705813E+03  0.62988690546E+03  0.78858563616E+03  0.90249777351E+02 0.  0.
         23    2    4    4    0    0 -0.43635745715E+03 -0.74512175337E+02  0.89155854862E+03  0.99965750384E+03  0.92079230502E+02 0.  0.
         11    1    3    3    0    0  0.27160798200E+02  0.17573081436E+02  0.33474343914E+03  0.33630297679E+03  0.00000000000E+00 0.  1.
        -11    1    3    3    0    0 -0.21098041689E+02  0.23529615204E+03  0.19532950752E+04  0.19675291757E+04  0.00000000000E+00 0. -1.
          1    1    5    5  502    0  0.30699204761E+03 -0.83738445199E+02  0.44466602942E+03  0.54679440580E+03  0.00000000000E+00 0. -1.
          3    1    6    6  503    0 -0.28272879674E+03 -0.32712478014E+01  0.56532616530E+03  0.63209172336E+03  0.00000000000E+00 0. -1.
         -1    1    5    5    0  502  0.12330265303E+03 -0.94618612935E+02  0.18522087604E+03  0.24179123036E+03  0.00000000000E+00 0.  1.
         -3    1    6    6    0  503 -0.15362866041E+03 -0.71240927536E+02  0.32623238332E+03  0.36756578048E+03  0.00000000000E+00 0.  1.
<mgrwt>
<rscale>  0 0.14942932E+04</rscale>
<asrwt>0</asrwt>
<pdfrwt beam="1">  1        2 0.60781217E+00 0.14942932E+04</pdfrwt>
<pdfrwt beam="2">  1       -2 0.21737797E-01 0.14942932E+04</pdfrwt>
<totfact> 0.68365740E+00</totfact>
</mgrwt>
</event>
<event>
12    1  0.4967442E-008  0.1609951E+04  0.7818608E-02  0.8814458E-01
          1   -1    0    0  501    0  0.00000000000E+00  0.00000000000E+00  0.14420292905E+04  0.14420292905E+04  0.00000000000E+00 0. -1.
         -1   -1    0    0    0  501 -0.00000000000E+00 -0.00000000000E+00 -0.44935684047E+03  0.44935684047E+03  0.00000000000E+00 0.  1.
         23    2    1    2    0    0  0.28296764784E+03 -0.47121628424E+03  0.28238710498E+03  0.62514698888E+03  0.94608690931E+02 0.  0.
        254    2    1    2    0    0 -0.28296764784E+03  0.47121628424E+03  0.71028534509E+03  0.12662391421E+04  0.89260339308E+03 0.  0.
         23    2    4    4    0    0 -0.54795147479E+03  0.47552672860E+03  0.65184673614E+03  0.98026640909E+03  0.98191532392E+02 0.  0.
         23    2    4    4    0    0  0.26498382695E+03 -0.43104443652E+01  0.58438608953E+02  0.28597273303E+03  0.90168312314E+02 0.  0.
         13    1    3    3    0    0  0.22108273873E+03 -0.28383354712E+03  0.16818157909E+03  0.39714494001E+03  0.00000000000E+00 0.  1.
        -13    1    3    3    0    0  0.61884909111E+02 -0.18738273711E+03  0.11420552590E+03  0.22800204887E+03  0.00000000000E+00 0. -1.
          2    1    5    5  502    0 -0.22808698780E+03  0.24318625697E+03  0.25161440640E+03  0.41769969965E+03  0.00000000000E+00 0.  1.
          1    1    6    6  503    0  0.16039485982E+03 -0.14217777597E+02 -0.87609232115E+01  0.16126192989E+03  0.00000000000E+00 0. -1.
         -2    1    5    5    0  502 -0.31986448699E+03  0.23234047163E+03  0.40023232974E+03  0.56256670944E+03  0.00000000000E+00 0. -1.
         -1    1    6    6    0  503  0.10458896713E+03  0.99073332321E+01  0.67199532164E+02  0.12471080314E+03  0.00000000000E+00 0.  1.
<mgrwt>
<rscale>  0 0.16099512E+04</rscale>
<asrwt>0</asrwt>
<pdfrwt beam="1">  1        1 0.22185066E+00 0.16099512E+04</pdfrwt>
<pdfrwt beam="2">  1       -1 0.69131822E-01 0.16099512E+04</pdfrwt>
<totfact> 0.14568983E+01</totfact>
</mgrwt>
</event>
<event>
12    1  0.4967442E-008  0.1420478E+04  0.7818608E-02  0.8939128E-01
          2   -1    0    0  501    0  0.00000000000E+00  0.00000000000E+00  0.35180419874E+04  0.35180419874E+04  0.00000000000E+00 0. -1.
         -2   -1    0    0    0  501 -0.00000000000E+00 -0.00000000000E+00 -0.14338640427E+03  0.14338640427E+03  0.00000000000E+00 0.  1.
         23    2    1    2    0    0 -0.12973302133E+03  0.19843675935E+03  0.12599498626E+03  0.28361908193E+03  0.91417956607E+02 0.  0.
        254    2    1    2    0    0  0.12973302133E+03 -0.19843675935E+03  0.32486605968E+04  0.33778093097E+04  0.89419922559E+03 0.  0.
         23    2    4    4    0    0  0.44097304907E+03  0.28188200912E+02  0.10362932009E+04  0.11303218630E+04  0.92044071616E+02 0.  0.
         23    2    4    4    0    0 -0.31124002774E+03 -0.22662496026E+03  0.22123673959E+04  0.22474874467E+04  0.91657519723E+02 0.  0.
         11    1    3    3    0    0 -0.10730991022E+03  0.20406188235E+03  0.11905633423E+03  0.25948232961E+03  0.00000000000E+00 0.  1.
        -11    1    3    3    0    0 -0.22423111107E+02 -0.56251230069E+01  0.69386520392E+01  0.24136752323E+02  0.00000000000E+00 0. -1.
          2    1    5    5  502    0  0.31912141019E+03  0.51393403270E+02  0.81280547104E+03  0.87471852049E+03  0.00000000000E+00 0. -1.
          3    1    6    6  503    0 -0.19243323738E+03 -0.18262239163E+03  0.13448167274E+04  0.13707346640E+04  0.00000000000E+00 0. -1.
         -2    1    5    5    0  502  0.12185163889E+03 -0.23205202358E+02  0.22348772986E+03  0.25560334253E+03  0.00000000000E+00 0.  1.
         -3    1    6    6    0  503 -0.11880679036E+03 -0.44002568627E+02  0.86755066853E+03  0.87675278269E+03  0.00000000000E+00 0.  1.
<mgrwt>
<rscale>  0 0.14204779E+04</rscale>
<asrwt>0</asrwt>
<pdfrwt beam="1">  1        2 0.54123716E+00 0.14204779E+04</pdfrwt>
<pdfrwt beam="2">  1       -2 0.22059449E-01 0.14204779E+04</pdfrwt>
<totfact> 0.14024087E+01</totfact>
</mgrwt>
</event>
<event>
12    1  0.4967442E-008  0.1729558E+04  0.7818608E-02  0.8744684E-01
          1   -1    0    0  501    0  0.00000000000E+00  0.00000000000E+00  0.35933004033E+04  0.35933004033E+04  0.00000000000E+00 0. -1.
         -1   -1    0    0    0  501 -0.00000000000E+00 -0.00000000000E+00 -0.20812138947E+03  0.20812138947E+03  0.00000000000E+00 0.  1.
         23    2    1    2    0    0 -0.18212673115E+03  0.31133767198E+03  0.10526777403E+03  0.38578167003E+03  0.87435121597E+02 0.  0.
        254    2    1    2    0    0  0.18212673115E+03 -0.31133767198E+03  0.32799112398E+04  0.34156401227E+04  0.88242756923E+03 0.  0.
         23    2    4    4    0    0 -0.63338165088E+02 -0.40965567172E+03  0.29622903981E+04  0.29925159877E+04  0.90321877191E+02 0.  0.
         23    2    4    4    0    0  0.24546489624E+03  0.98317999739E+02  0.31762084164E+03  0.42312413497E+03  0.90728111384E+02 0.  0.
         13    1    3    3    0    0 -0.12508496621E+03  0.12818058766E+03  0.57291074074E+02  0.18803930173E+03  0.00000000000E+00 0. -1.
        -13    1    3    3    0    0 -0.57041764939E+02  0.18315708432E+03  0.47976699953E+02  0.19774236830E+03  0.00000000000E+00 0.  1.
          1    1    5    5  502    0 -0.68973982431E+02 -0.39955391732E+03  0.27308367536E+04  0.27607734637E+04  0.00000000000E+00 0. -1.
          3    1    6    6  503    0  0.24987116034E+03  0.91995138871E+02  0.31875395482E+03  0.41533454715E+03  0.00000000000E+00 0. -1.
         -1    1    5    5    0  502  0.56358173435E+01 -0.10101754402E+02  0.23145364452E+03  0.23174252402E+03  0.00000000000E+00 0.  1.
         -3    1    6    6    0  503 -0.44062641022E+01  0.63228608681E+01 -0.11331131826E+01  0.77895878184E+01  0.00000000000E+00 0.  1.
<mgrwt>
<rscale>  0 0.17295579E+04</rscale>
<asrwt>0</asrwt>
<pdfrwt beam="1">  1        1 0.55281540E+00 0.17295579E+04</pdfrwt>
<pdfrwt beam="2">  1       -1 0.32018678E-01 0.17295579E+04</pdfrwt>
<totfact> 0.18339200E+00</totfact>
</mgrwt>
</event>
<event>
12    1  0.4967442E-008  0.2345038E+04  0.7818608E-02  0.8460372E-01
         -2   -1    0    0    0  501 -0.00000000000E+00  0.00000000000E+00  0.51843526694E+03  0.51843526694E+03  0.00000000000E+00 0.  1.
          2   -1    0    0  501    0  0.00000000000E+00 -0.00000000000E+00 -0.26518281042E+04  0.26518281042E+04  0.00000000000E+00 0. -1.
         23    2    1    2    0    0  0.10683318393E+03  0.25357613863E+03 -0.22125196032E+04  0.22315237655E+04  0.93494032783E+02 0.  0.
        254    2    1    2    0    0 -0.10683318393E+03 -0.25357613863E+03  0.79126765949E+02  0.93873960563E+03  0.89401164132E+03 0.  0.
         23    2    4    4    0    0  0.27705386423E+03  0.86262174768E+02 -0.18341777121E+03  0.35603966792E+03  0.94457185329E+02 0.  0.
         23    2    4    4    0    0 -0.38388704816E+03 -0.33983831340E+03  0.26254453716E+03  0.58269993771E+03  0.88035438390E+02 0.  0.
         11    1    3    3    0    0  0.28632719219E+02  0.54042714339E+01 -0.16727454922E+03  0.16979344386E+03  0.00000000000E+00 0.  1.
        -11    1    3    3    0    0  0.78200464709E+02  0.24817186720E+03 -0.20452450540E+04  0.20617303217E+04  0.00000000000E+00 0. -1.
          1    1    5    5  502    0  0.94608760119E+02  0.64506594990E+02 -0.10807300497E+03  0.15745377954E+03  0.00000000000E+00 0.  1.
          3    1    6    6  503    0 -0.26143438416E+03 -0.17501126536E+03  0.14982427997E+03  0.34845974673E+03  0.00000000000E+00 0. -1.
         -1    1    5    5    0  502  0.18244510411E+03  0.21755579778E+02 -0.75344766237E+02  0.19858588838E+03  0.00000000000E+00 0. -1.
         -3    1    6    6    0  503 -0.12245266399E+03 -0.16482704805E+03  0.11272025719E+03  0.23424019097E+03  0.00000000000E+00 0.  1.
<mgrwt>
<rscale>  0 0.23450383E+04</rscale>
<asrwt>0</asrwt>
<pdfrwt beam="1">  1        2 0.40797355E+00 0.23450383E+04</pdfrwt>
<pdfrwt beam="2">  1       -2 0.79759273E-01 0.23450383E+04</pdfrwt>
<totfact> 0.35658581E+00</totfact>
</mgrwt>
</event>
<event>
12    1  0.4967442E-008  0.2725147E+04  0.7818608E-02  0.8326892E-01
          2   -1    0    0  501    0  0.00000000000E+00  0.00000000000E+00  0.18615013225E+04  0.18615013225E+04  0.00000000000E+00 0. -1.
         -2   -1    0    0    0  501 -0.00000000000E+00 -0.00000000000E+00 -0.99737041258E+03  0.99737041258E+03  0.00000000000E+00 0.  1.
         23    2    1    2    0    0  0.82112740099E+03 -0.79539409913E+03 -0.36264174960E+02  0.11474866279E+04  0.92241472508E+02 0.  0.
        254    2    1    2    0    0 -0.82112740099E+03  0.79539409913E+03  0.90039508488E+03  0.17113851072E+04  0.90068068403E+03 0.  0.
         23    2    4    4    0    0 -0.89838122363E+03  0.41170582713E+03  0.84902751976E+03  0.13059833597E+04  0.90301137988E+02 0.  0.
         23    2    4    4    0    0  0.77253822635E+02  0.38368827200E+03  0.51367565124E+02  0.40540174744E+03  0.92342335371E+02 0.  0.
         13    1    3    3    0    0  0.80202283018E+03 -0.79254988525E+03 -0.36964374172E+02  0.11281588123E+04  0.00000000000E+00 0. -1.
        -13    1    3    3    0    0  0.19104570809E+02 -0.28442138804E+01  0.70019921200E+00  0.19327815638E+02  0.00000000000E+00 0.  1.
          2    1    5    5  502    0 -0.81052785488E+03  0.36606938672E+03  0.72592219459E+03  0.11480092474E+04  0.00000000000E+00 0. -1.
          4    1    6    6  503    0  0.82779246697E+02  0.38230348907E+03  0.59303844128E+02  0.39563279360E+03  0.00000000000E+00 0. -1.
         -2    1    5    5    0  502 -0.87853368749E+02  0.45636440410E+02  0.12310532516E+03  0.15797411236E+03  0.00000000000E+00 0.  1.
         -4    1    6    6    0  503 -0.55254240617E+01  0.13847829254E+01 -0.79362790036E+01  0.97689538454E+01  0.00000000000E+00 0.  1.
<mgrwt>
<rscale>  0 0.27251469E+04</rscale>
<asrwt>0</asrwt>
<pdfrwt beam="1">  1        2 0.28638482E+00 0.27251469E+04</pdfrwt>
<pdfrwt beam="2">  1       -2 0.15344160E+00 0.27251469E+04</pdfrwt>
<totfact> 0.19699294E+00</totfact>
</mgrwt>
</event>
<event>
12    1  0.4967442E-008  0.2323626E+04  0.7818608E-02  0.8468664E-01
         -1   -1    0    0    0  501 -0.00000000000E+00  0.00000000000E+00  0.68308597568E+03  0.68308597568E+03  0.00000000000E+00 0.  1.
          1   -1    0    0  501    0  0.00000000000E+00 -0.00000000000E+00 -0.19760461933E+04  0.19760461933E+04  0.00000000000E+00 0. -1.
         23    2    1    2    0    0 -0.37477497416E+02  0.30333480817E+03  0.52126309714E+03  0.61113961320E+03  0.91432170049E+02 0.  0.
        254    2    1    2    0    0  0.37477497416E+02 -0.30333480817E+03 -0.18142233147E+04  0.20479925557E+04  0.89969478382E+03 0.  0.
         23    2    4    4    0    0  0.32728151786E+03  0.16876053616E+03 -0.87879453297E+03  0.95708295456E+03  0.90192240374E+02 0.  0.
         23    2    4    4    0    0 -0.28980402044E+03 -0.47209534433E+03 -0.93542878176E+03  0.10909096012E+04  0.90533793846E+02 0.  0.
         11    1    3    3    0    0  0.18414377270E+02  0.81522550476E+02  0.89043787435E+02  0.12212211760E+03  0.00000000000E+00 0. -1.
        -11    1    3    3    0    0 -0.55891874685E+02  0.22181225769E+03  0.43221930971E+03  0.48901749560E+03  0.00000000000E+00 0.  1.
          1    1    5    5  502    0  0.23604761098E+03  0.16462797899E+03 -0.66809226906E+03  0.72743943122E+03  0.00000000000E+00 0. -1.
          3    1    6    6  503    0 -0.13762261885E+02 -0.73446359844E+02 -0.98147593407E+02  0.12335606073E+03  0.00000000000E+00 0. -1.
         -1    1    5    5    0  502  0.91233906881E+02  0.41325571761E+01 -0.21070226391E+03  0.22964352333E+03  0.00000000000E+00 0.  1.
         -3    1    6    6    0  503 -0.27604175856E+03 -0.39864898449E+03 -0.83728118835E+03  0.96755354046E+03  0.00000000000E+00 0.  1.
<mgrwt>
<rscale>  0 0.23236260E+04</rscale>
<asrwt>0</asrwt>
<pdfrwt beam="1">  1        1 0.30400711E+00 0.23236260E+04</pdfrwt>
<pdfrwt beam="2">  1       -1 0.10509015E+00 0.23236260E+04</pdfrwt>
<totfact> 0.23706594E+00</totfact>
</mgrwt>
</event>
<event>
12    1  0.4967442E-008  0.2462868E+04  0.7818608E-02  0.8416335E-01
         -2   -1    0    0    0  501 -0.00000000000E+00  0.00000000000E+00  0.47564220256E+03  0.47564220256E+03  0.00000000000E+00 0.  1.
          2   -1    0    0  501    0  0.00000000000E+00 -0.00000000000E+00 -0.31881727350E+04  0.31881727350E+04  0.00000000000E+00 0. -1.
         23    2    1    2    0    0 -0.65638185872E+03  0.83223211635E+02 -0.24138139302E+04  0.25044745090E+04  0.90175544556E+02 0.  0.
        254    2    1    2    0    0  0.65638185872E+03 -0.83223211635E+02 -0.29871660219E+03  0.11593404286E+04  0.90392221651E+03 0.  0.
         23    2    4    4    0    0  0.46261173585E+03  0.37620469543E+03 -0.23995430842E+03  0.64905615081E+03  0.90311825176E+02 0.  0.
         23    2    4    4    0    0  0.19377012287E+03 -0.45942790707E+03 -0.58762293771E+02  0.51028427777E+03  0.91193062556E+02 0.  0.
         11    1    3    3    0    0 -0.57015612064E+03  0.80194648382E+02 -0.19729418676E+04  0.20552393526E+04  0.00000000000E+00 0. -1.
        -11    1    3    3    0    0 -0.86225738072E+02  0.30285632530E+01 -0.44087206263E+03  0.44923515636E+03  0.00000000000E+00 0.  1.
          4    1    5    5  502    0  0.72515254350E+01  0.27535952126E+02 -0.20044644103E+02  0.34822421481E+02  0.00000000000E+00 0. -1.
          1    1    6    6  503    0  0.15499135802E+02 -0.96224388063E+01 -0.16499112726E+02  0.24597464503E+02  0.00000000000E+00 0. -1.
         -4    1    5    5    0  502  0.45536021041E+03  0.34866874331E+03 -0.21990966432E+03  0.61423372933E+03  0.00000000000E+00 0.  1.
         -1    1    6    6    0  503  0.17827098707E+03 -0.44980546826E+03 -0.42263181045E+02  0.48568681327E+03  0.00000000000E+00 0.  1.
<mgrwt>
<rscale>  0 0.24628678E+04</rscale>
<asrwt>0</asrwt>
<pdfrwt beam="1">  1        2 0.49048813E+00 0.24628678E+04</pdfrwt>
<pdfrwt beam="2">  1       -2 0.73175721E-01 0.24628678E+04</pdfrwt>
<totfact> 0.19925510E+00</totfact>
</mgrwt>
</event>
<event>
12    1  0.4967442E-008  0.1569309E+04  0.7818608E-02  0.8839628E-01
          1   -1    0    0  501    0  0.00000000000E+00  0.00000000000E+00  0.77583078361E+03  0.77583078361E+03  0.00000000000E+00 0. -1.
         -1   -1    0    0    0  501 -0.00000000000E+00 -0.00000000000E+00 -0.79357822392E+03  0.79357822392E+03  0.00000000000E+00 0.  1.
         23    2    1    2    0    0 -0.71408522963E+02  0.12080417338E+03 -0.51075490082E+03  0.53720399099E+03  0.89580878325E+02 0.  0.
        254    2    1    2    0    0  0.71408522963E+02 -0.12080417338E+03  0.49300746051E+03  0.10322050165E+04  0.89593415752E+03 0.  0.
         23    2    4    4    0    0 -0.11121961553E+03 -0.47488976404E+03  0.24042560488E+03  0.55168866724E+03  0.93090403409E+02 0.  0.
         23    2    4    4    0    0  0.18262813850E+03  0.35408559066E+03  0.25258185563E+03  0.48051634931E+03  0.91480739391E+02 0.  0.
         11    1    3    3    0    0 -0.20618104399E+02  0.43892699058E+02 -0.60122221158E+02  0.77242195311E+02  0.00000000000E+00 0. -1.
        -11    1    3    3    0    0 -0.50790418565E+02  0.76911474321E+02 -0.45063267966E+03  0.45996179568E+03  0.00000000000E+00 0.  1.
          4    1    5    5  502    0 -0.97862980194E+02 -0.25850380349E+03  0.16624826027E+03  0.32255210952E+03  0.00000000000E+00 0. -1.
          3    1    6    6  503    0  0.15418188858E+03  0.29001295046E+03  0.16273067826E+03  0.36655264267E+03  0.00000000000E+00 0. -1.
         -4    1    5    5    0  502 -0.13356635340E+02 -0.21638596055E+03  0.74177344612E+02  0.22913655772E+03  0.00000000000E+00 0.  1.
         -3    1    6    6    0  503  0.28446249913E+02  0.64072640198E+02  0.89851177377E+02  0.11396370664E+03  0.00000000000E+00 0.  1.
<mgrwt>
<rscale>  0 0.15693087E+04</rscale>
<asrwt>0</asrwt>
<pdfrwt beam="1">  1        1 0.11935858E+00 0.15693087E+04</pdfrwt>
<pdfrwt beam="2">  1       -1 0.12208896E+00 0.15693087E+04</pdfrwt>
<totfact> 0.13256503E+01</totfact>
</mgrwt>
</event>
<event>
12    1  0.4967442E-008  0.2305345E+04  0.7818608E-02  0.8475817E-01
         -2   -1    0    0    0  501 -0.00000000000E+00  0.00000000000E+00  0.55232962044E+03  0.55232962044E+03  0.00000000000E+00 0.  1.
          2   -1    0    0  501    0  0.00000000000E+00 -0.00000000000E+00 -0.24055458121E+04  0.24055458121E+04  0.00000000000E+00 0. -1.
         23    2    1    2    0    0  0.27533900801E+03  0.31524028027E+03  0.34529361475E+03  0.54972802563E+03  0.88233883155E+02 0.  0.
        254    2    1    2    0    0 -0.27533900801E+03 -0.31524028027E+03 -0.21985098064E+04  0.24081474069E+04  0.88912347895E+03 0.  0.
         23    2    4    4    0    0 -0.18365906112E+03  0.28323386218E+03 -0.56686722985E+03  0.66546529399E+03  0.86911045410E+02 0.  0.
         23    2    4    4    0    0 -0.91679946899E+02 -0.59847414245E+03 -0.16316425766E+04  0.17426821129E+04  0.90038531439E+02 0.  0.
         11    1    3    3    0    0  0.47942380838E+02  0.22289867595E+02  0.70706045437E+02  0.88287343029E+02  0.00000000000E+00 0. -1.
        -11    1    3    3    0    0  0.22739662718E+03  0.29295041268E+03  0.27458756932E+03  0.46144068260E+03  0.00000000000E+00 0.  1.
          1    1    5    5  502    0 -0.19988160341E+02  0.58016618202E+02 -0.53258407757E+02  0.81252154053E+02  0.00000000000E+00 0. -1.
          3    1    6    6  503    0 -0.19747505170E+02 -0.15489206684E+03 -0.31727068330E+03  0.35361306934E+03  0.00000000000E+00 0. -1.
         -1    1    5    5    0  502 -0.16367090077E+03  0.22521724398E+03 -0.51360882209E+03  0.58421313994E+03  0.00000000000E+00 0.  1.
         -3    1    6    6    0  503 -0.71932441729E+02 -0.44358207561E+03 -0.13143718933E+04  0.13890690436E+04  0.00000000000E+00 0.  1.
<mgrwt>
<rscale>  0 0.23053453E+04</rscale>
<asrwt>0</asrwt>
<pdfrwt beam="1">  1        2 0.37008398E+00 0.23053453E+04</pdfrwt>
<pdfrwt beam="2">  1       -2 0.84973787E-01 0.23053453E+04</pdfrwt>
<totfact> 0.43118376E+00</totfact>
</mgrwt>
</event>
<event>
12    1  0.4967442E-008  0.1188091E+04  0.7818608E-02  0.9123345E-01
         -2   -1    0    0    0  501 -0.00000000000E+00  0.00000000000E+00  0.15661048174E+03  0.15661048174E+03  0.00000000000E+00 0.  1.
          2   -1    0    0  501    0  0.00000000000E+00 -0.00000000000E+00 -0.22532960314E+04  0.22532960314E+04  0.00000000000E+00 0. -1.
         23    2    1    2    0    0  0.10233685763E+03  0.18335633652E+03 -0.20906140136E+03  0.31179154180E+03  0.97030497397E+02 0.  0.
        254    2    1    2    0    0 -0.10233685763E+03 -0.18335633652E+03 -0.18876241482E+04  0.20981149713E+04  0.89155433327E+03 0.  0.
         23    2    4    4    0    0  0.28286072754E+03 -0.32253820518E+03 -0.13288777349E+04  0.13994730462E+04  0.92561805013E+02 0.  0.
         23    2    4    4    0    0 -0.38519758517E+03  0.13918186867E+03 -0.55874641334E+03  0.69864192509E+03  0.90300680429E+02 0.  0.
         13    1    3    3    0    0  0.10771023774E+03  0.19176499038E+03 -0.20601137368E+03  0.30135691951E+03  0.00000000000E+00 0.  1.
        -13    1    3    3    0    0 -0.53733801089E+01 -0.84086538576E+01 -0.30500276804E+01  0.10434622290E+02  0.00000000000E+00 0. -1.
          2    1    5    5  502    0  0.14886715410E+03 -0.12176515563E+03 -0.48463171334E+03  0.52139819742E+03  0.00000000000E+00 0.  1.
          3    1    6    6  503    0 -0.16819687135E+03  0.56491219291E+02 -0.31798787154E+03  0.36413971472E+03  0.00000000000E+00 0.  1.
         -2    1    5    5    0  502  0.13399357345E+03 -0.20077304955E+03 -0.84424602156E+03  0.87807484879E+03  0.00000000000E+00 0. -1.
         -3    1    6    6    0  503 -0.21700071383E+03  0.82690649374E+02 -0.24075854180E+03  0.33450221037E+03  0.00000000000E+00 0. -1.
<mgrwt>
<rscale>  0 0.11880905E+04</rscale>
<asrwt>0</asrwt>
<pdfrwt beam="1">  1        2 0.34666092E+00 0.11880905E+04</pdfrwt>
<pdfrwt beam="2">  1       -2 0.24093921E-01 0.11880905E+04</pdfrwt>
<totfact> 0.73248803E+01</totfact>
</mgrwt>
</event>
<event>
12    1  0.4967442E-008  0.2741797E+04  0.7818608E-02  0.8321569E-01
          2   -1    0    0  501    0  0.00000000000E+00  0.00000000000E+00  0.20351360200E+04  0.20351360200E+04  0.00000000000E+00 0. -1.
         -2   -1    0    0    0  501 -0.00000000000E+00 -0.00000000000E+00 -0.92345822713E+03  0.92345822713E+03  0.00000000000E+00 0.  1.
         23    2    1    2    0    0  0.10195824904E+04  0.34542923660E+03 -0.13336810296E+03  0.10883217862E+04  0.88246513284E+02 0.  0.
        254    2    1    2    0    0 -0.10195824904E+04 -0.34542923660E+03  0.12450458959E+04  0.18702724610E+04  0.88820604773E+03 0.  0.
         23    2    4    4    0    0 -0.82894771331E+03 -0.12591465499E+03  0.13101435155E+04  0.15582690454E+04  0.93367954795E+02 0.  0.
         23    2    4    4    0    0 -0.19063477712E+03 -0.21951458160E+03 -0.65097619617E+02  0.31200341557E+03  0.92629160981E+02 0.  0.
         13    1    3    3    0    0  0.63352701870E+03  0.24526299598E+03 -0.11541198302E+03  0.68907934699E+03  0.00000000000E+00 0.  1.
        -13    1    3    3    0    0  0.38605547173E+03  0.10016624061E+03 -0.17956119948E+02  0.39924243920E+03  0.00000000000E+00 0. -1.
          4    1    5    5  502    0 -0.75641104621E+03 -0.13070845085E+03  0.12317141011E+04  0.14513311120E+04  0.00000000000E+00 0.  1.
          1    1    6    6  503    0 -0.40192795460E+02 -0.11409337941E+02  0.12734183030E+02  0.43678292281E+02  0.00000000000E+00 0. -1.
         -4    1    5    5    0  502 -0.72536667095E+02  0.47937958535E+01  0.78429414421E+02  0.10693793339E+03  0.00000000000E+00 0. -1.
         -1    1    6    6    0  503 -0.15044198166E+03 -0.20810524366E+03 -0.77831802647E+02  0.26832512329E+03  0.00000000000E+00 0.  1.
<mgrwt>
<rscale>  0 0.27417973E+04</rscale>
<asrwt>0</asrwt>
<pdfrwt beam="1">  1        2 0.31309785E+00 0.27417973E+04</pdfrwt>
<pdfrwt beam="2">  1       -2 0.14207050E+00 0.27417973E+04</pdfrwt>
<totfact> 0.19303514E+00</totfact>
</mgrwt>
</event>
<event>
12    1  0.4967442E-008  0.2179271E+04  0.7818608E-02  0.8527106E-01
         -2   -1    0    0    0  501 -0.00000000000E+00  0.00000000000E+00  0.32641738379E+03  0.32641738379E+03  0.00000000000E+00 0.  1.
          2   -1    0    0  501    0  0.00000000000E+00 -0.00000000000E+00 -0.36373860393E+04  0.36373860393E+04  0.00000000000E+00 0. -1.
         23    2    1    2    0    0  0.90577486588E+03 -0.91122958384E+02 -0.15433012880E+04  0.17940749625E+04  0.90524053184E+02 0.  0.
        254    2    1    2    0    0 -0.90577486588E+03  0.91122958384E+02 -0.17676673675E+04  0.21697284606E+04  0.86852873839E+03 0.  0.
         23    2    4    4    0    0 -0.28866322399E+03  0.22348904210E+03 -0.10754555091E+03  0.39143129691E+03  0.91534724858E+02 0.  0.
         23    2    4    4    0    0 -0.61711164188E+03 -0.13236608372E+03 -0.16601218166E+04  0.17782971637E+04  0.89380074957E+02 0.  0.
         13    1    3    3    0    0  0.22642019230E+03 -0.22164254626E+02 -0.31248279232E+03  0.38652665259E+03  0.00000000000E+00 0.  1.
        -13    1    3    3    0    0  0.67935467358E+03 -0.68958703758E+02 -0.12308184957E+04  0.14075483099E+04  0.00000000000E+00 0. -1.
          4    1    5    5  502    0 -0.26925555569E+03  0.21007282067E+03 -0.12327150705E+03  0.36307713879E+03  0.00000000000E+00 0.  1.
          1    1    6    6  503    0 -0.21298811936E+03 -0.21983528511E+02 -0.46646640335E+03  0.51326223314E+03  0.00000000000E+00 0. -1.
         -4    1    5    5    0  502 -0.19407668303E+02  0.13416221430E+02  0.15725956146E+02  0.28354158127E+02  0.00000000000E+00 0. -1.
         -1    1    6    6    0  503 -0.40412352252E+03 -0.11038255521E+03 -0.11936554132E+04  0.12650349305E+04  0.00000000000E+00 0.  1.
<mgrwt>
<rscale>  0 0.21792715E+04</rscale>
<asrwt>0</asrwt>
<pdfrwt beam="1">  1        2 0.55959784E+00 0.21792715E+04</pdfrwt>
<pdfrwt beam="2">  1       -2 0.50218060E-01 0.21792715E+04</pdfrwt>
<totfact> 0.22382061E+00</totfact>
</mgrwt>
</event>
<event>
12    1  0.4967442E-008  0.2508620E+04  0.7818608E-02  0.8399921E-01
         -2   -1    0    0    0  501 -0.00000000000E+00  0.00000000000E+00  0.63098418707E+03  0.63098418707E+03  0.00000000000E+00 0. -1.
          2   -1    0    0  501    0  0.00000000000E+00 -0.00000000000E+00 -0.24933957014E+04  0.24933957014E+04  0.00000000000E+00 0.  1.
         23    2    1    2    0    0  0.53500080354E+03 -0.17296582372E+03  0.35313064125E+03  0.66981100414E+03  0.88331735581E+02 0.  0.
        254    2    1    2    0    0 -0.53500080354E+03  0.17296582372E+03 -0.22155421556E+04  0.24545688844E+04  0.89450451586E+03 0.  0.
         23    2    4    4    0    0 -0.41476329248E+03 -0.25412458137E+03 -0.16884706182E+04  0.17595362551E+04  0.91798217733E+02 0.  0.
         23    2    4    4    0    0 -0.12023751106E+03  0.42709040509E+03 -0.52707153738E+03  0.69503262927E+03  0.91666117211E+02 0.  0.
         11    1    3    3    0    0  0.52073428528E+03 -0.15103963092E+03  0.32890472845E+03  0.63415730412E+03  0.00000000000E+00 0. -1.
        -11    1    3    3    0    0  0.14266518262E+02 -0.21926192799E+02  0.24225912796E+02  0.35653700015E+02  0.00000000000E+00 0.  1.
          1    1    5    5  502    0 -0.85770189771E+02 -0.93624483861E+02 -0.36925438214E+03  0.39047518252E+03  0.00000000000E+00 0. -1.
          3    1    6    6  503    0 -0.56977755408E+02  0.98095094854E+02 -0.17903539125E+03  0.21194995534E+03  0.00000000000E+00 0. -1.
         -1    1    5    5    0  502 -0.32899310271E+03 -0.16050009751E+03 -0.13192162361E+04  0.13690610726E+04  0.00000000000E+00 0.  1.
         -3    1    6    6    0  503 -0.63259755656E+02  0.32899531023E+03 -0.34803614613E+03  0.48308267393E+03  0.00000000000E+00 0.  1.
<mgrwt>
<rscale>  0 0.25086197E+04</rscale>
<asrwt>0</asrwt>
<pdfrwt beam="1">  1        2 0.38359934E+00 0.25086197E+04</pdfrwt>
<pdfrwt beam="2">  1       -2 0.97074489E-01 0.25086197E+04</pdfrwt>
<totfact> 0.27726050E+00</totfact>
</mgrwt>
</event>
<event>
12    1  0.4967442E-008  0.3378917E+04  0.7818608E-02  0.8143100E-01
         -2   -1    0    0    0  501 -0.00000000000E+00  0.00000000000E+00  0.13308025659E+04  0.13308025659E+04  0.00000000000E+00 0.  1.
          2   -1    0    0  501    0  0.00000000000E+00 -0.00000000000E+00 -0.21447738866E+04  0.21447738866E+04  0.00000000000E+00 0. -1.
         23    2    1    2    0    0  0.93662577970E+03  0.93593764946E+02 -0.16743605650E+04  0.19229824947E+04  0.91382324199E+02 0.  0.
        254    2    1    2    0    0 -0.93662577970E+03 -0.93593764946E+02  0.86038924436E+03  0.15525939579E+04  0.88557930313E+03 0.  0.
         23    2    4    4    0    0 -0.65600458888E+03  0.12868430735E+03  0.95609248341E+03  0.11701505817E+04  0.90762742485E+02 0.  0.
         23    2    4    4    0    0 -0.28062119082E+03 -0.22227807229E+03 -0.95703239048E+02  0.38244337617E+03  0.94594037069E+02 0.  0.
         13    1    3    3    0    0  0.71994709644E+03  0.60649583729E+02 -0.12055849240E+04  0.14055024734E+04  0.00000000000E+00 0. -1.
        -13    1    3    3    0    0  0.21667868326E+03  0.32944181216E+02 -0.46877564103E+03  0.51748002134E+03  0.00000000000E+00 0.  1.
          1    1    5    5  502    0 -0.41990049563E+03  0.10445282957E+03  0.55025170230E+03  0.70000268265E+03  0.00000000000E+00 0. -1.
          3    1    6    6  503    0 -0.23193572219E+03 -0.22234073336E+03 -0.88228486467E+02  0.33318740487E+03  0.00000000000E+00 0. -1.
         -1    1    5    5    0  502 -0.23610409325E+03  0.24231477776E+02  0.40584078111E+03  0.47014789905E+03  0.00000000000E+00 0.  1.
         -3    1    6    6    0  503 -0.48685468631E+02  0.62661068475E-01 -0.74747525809E+01  0.49255971297E+02  0.00000000000E+00 0.  1.
<mgrwt>
<rscale>  0 0.33789173E+04</rscale>
<asrwt>0</asrwt>
<pdfrwt beam="1">  1        2 0.32996521E+00 0.33789173E+04</pdfrwt>
<pdfrwt beam="2">  1       -2 0.20473886E+00 0.33789173E+04</pdfrwt>
<totfact> 0.57002442E-01</totfact>
</mgrwt>
</event>
<event>
12    1  0.4967442E-008  0.2472982E+04  0.7818608E-02  0.8412675E-01
         -1   -1    0    0    0  501 -0.00000000000E+00  0.00000000000E+00  0.50868694632E+03  0.50868694632E+03  0.00000000000E+00 0.  1.
          1   -1    0    0  501    0  0.00000000000E+00 -0.00000000000E+00 -0.30056009990E+04  0.30056009990E+04  0.00000000000E+00 0. -1.
         23    2    1    2    0    0 -0.73037830224E+03 -0.77902864819E+03 -0.11454262539E+04  0.15686421387E+04  0.91097514302E+02 0.  0.
        254    2    1    2    0    0  0.73037830224E+03  0.77902864819E+03 -0.13514877988E+04  0.19456458067E+04  0.90480950230E+03 0.  0.
         23    2    4    4    0    0  0.41045642521E+03  0.93162775569E+02 -0.10346956322E+04  0.11208728543E+04  0.92774590242E+02 0.  0.
         23    2    4    4    0    0  0.31992187704E+03  0.68586587263E+03 -0.31679216666E+03  0.82477295232E+03  0.84446097509E+02 0.  0.
         11    1    3    3    0    0 -0.23293435618E+03 -0.28507349727E+03 -0.44692876850E+03  0.57902559291E+03  0.00000000000E+00 0. -1.
        -11    1    3    3    0    0 -0.49744394607E+03 -0.49395515092E+03 -0.69849748536E+03  0.98961654577E+03  0.00000000000E+00 0.  1.
          2    1    5    5  502    0  0.41301724052E+03  0.84108108485E+02 -0.10084186176E+04  0.10929618124E+04  0.00000000000E+00 0. -1.
          4    1    6    6  503    0  0.34282505080E+02  0.14539401922E+03 -0.47240524744E+02  0.15667283797E+03  0.00000000000E+00 0.  1.
         -2    1    5    5    0  502 -0.25608153120E+01  0.90546670841E+01 -0.26277014536E+02  0.27911041972E+02  0.00000000000E+00 0.  1.
         -4    1    6    6    0  503  0.28563937196E+03  0.54047185340E+03 -0.26955164192E+03  0.66810011435E+03  0.00000000000E+00 0. -1.
<mgrwt>
<rscale>  0 0.24729820E+04</rscale>
<asrwt>0</asrwt>
<pdfrwt beam="1">  1        1 0.46240015E+00 0.24729820E+04</pdfrwt>
<pdfrwt beam="2">  1       -1 0.78259531E-01 0.24729820E+04</pdfrwt>
<totfact> 0.86195039E-01</totfact>
</mgrwt>
</event>
<event>
12    1  0.4967442E-008  0.1900627E+04  0.7818608E-02  0.8654544E-01
          1   -1    0    0  501    0  0.00000000000E+00  0.00000000000E+00  0.93926069760E+03  0.93926069760E+03  0.00000000000E+00 0. -1.
         -1   -1    0    0    0  501 -0.00000000000E+00 -0.00000000000E+00 -0.96149623329E+03  0.96149623329E+03  0.00000000000E+00 0.  1.
         23    2    1    2    0    0  0.78361637883E+01  0.23530972553E+03 -0.70956264046E+03  0.75322578350E+03  0.91857867412E+02 0.  0.
        254    2    1    2    0    0 -0.78361637883E+01 -0.23530972553E+03  0.68732710477E+03  0.11475311474E+04  0.88824383639E+03 0.  0.
         23    2    4    4    0    0  0.23788300556E+03 -0.43897314209E+03  0.17539940733E+03  0.53709284367E+03  0.91749805555E+02 0.  0.
         23    2    4    4    0    0 -0.24571916935E+03  0.20366341656E+03  0.51192769744E+03  0.61043830372E+03  0.93318046526E+02 0.  0.
         13    1    3    3    0    0 -0.91960014565E+01  0.42287898095E+02 -0.51714820623E+02  0.67433340717E+02  0.00000000000E+00 0. -1.
        -13    1    3    3    0    0  0.17032165245E+02  0.19302182743E+03 -0.65784781984E+03  0.68579244279E+03  0.00000000000E+00 0.  1.
          3    1    5    5  502    0  0.15927591644E+03 -0.27450599706E+03  0.64919833848E+02  0.32393972404E+03  0.00000000000E+00 0. -1.
          3    1    6    6  503    0 -0.22857369992E+03  0.14773158985E+03  0.39486067403E+03  0.47956804609E+03  0.00000000000E+00 0. -1.
         -3    1    5    5    0  502  0.78607089120E+02 -0.16446714503E+03  0.11047957348E+03  0.21315311963E+03  0.00000000000E+00 0.  1.
         -3    1    6    6    0  503 -0.17145469428E+02  0.55931826709E+02  0.11706702341E+03  0.13087025763E+03  0.00000000000E+00 0.  1.
<mgrwt>
<rscale>  0 0.19006269E+04</rscale>
<asrwt>0</asrwt>
<pdfrwt beam="1">  1        1 0.14450165E+00 0.19006269E+04</pdfrwt>
<pdfrwt beam="2">  1       -1 0.14792250E+00 0.19006269E+04</pdfrwt>
<totfact> 0.57304378E+00</totfact>
</mgrwt>
</event>
<event>
12    1  0.4967442E-008  0.3772062E+04  0.7818608E-02  0.8052177E-01
         -1   -1    0    0    0  501 -0.00000000000E+00  0.00000000000E+00  0.19422510947E+04  0.19422510947E+04  0.00000000000E+00 0.  1.
          1   -1    0    0  501    0  0.00000000000E+00 -0.00000000000E+00 -0.18314381583E+04  0.18314381583E+04  0.00000000000E+00 0. -1.
         23    2    1    2    0    0 -0.20853518096E+03 -0.19801559730E+03 -0.17025103649E+04  0.17290742239E+04  0.91972989612E+02 0.  0.
        254    2    1    2    0    0  0.20853518096E+03  0.19801559730E+03  0.18133233013E+04  0.20446150290E+04  0.89978448725E+03 0.  0.
         23    2    4    4    0    0 -0.12171468026E+03 -0.22565271434E+03  0.19105364641E+03  0.33330189570E+03  0.94101259240E+02 0.  0.
         23    2    4    4    0    0  0.33024986122E+03  0.42366831164E+03  0.16222696549E+04  0.17113131333E+04  0.90961519709E+02 0.  0.
         11    1    3    3    0    0 -0.18954596930E+03 -0.17237417227E+03 -0.16277503423E+04  0.16477899462E+04  0.00000000000E+00 0. -1.
        -11    1    3    3    0    0 -0.18989211663E+02 -0.25641425032E+02 -0.74760022550E+02  0.81284277748E+02  0.00000000000E+00 0.  1.
          2    1    5    5  502    0 -0.10318030524E+03 -0.21159923892E+03  0.13214621715E+03  0.26996858337E+03  0.00000000000E+00 0. -1.
          3    1    6    6  503    0  0.29359169969E+03  0.41264831030E+03  0.15168737773E+04  0.15991812812E+04  0.00000000000E+00 0. -1.
         -2    1    5    5    0  502 -0.18534375024E+02 -0.14053475423E+02  0.58907429256E+02  0.63333312329E+02  0.00000000000E+00 0.  1.
         -3    1    6    6    0  503  0.36658161529E+02  0.11020001339E+02  0.10539587760E+03  0.11213185208E+03  0.00000000000E+00 0.  1.
<mgrwt>
<rscale>  0 0.37720619E+04</rscale>
<asrwt>0</asrwt>
<pdfrwt beam="1">  1        1 0.28175971E+00 0.37720619E+04</pdfrwt>
<pdfrwt beam="2">  1       -1 0.29880786E+00 0.37720619E+04</pdfrwt>
<totfact> 0.10397805E-01</totfact>
</mgrwt>
</event>
<event>
12    1  0.4967442E-008  0.1161641E+04  0.7818608E-02  0.9147111E-01
         -2   -1    0    0    0  501 -0.00000000000E+00  0.00000000000E+00  0.11606151008E+03  0.11606151008E+03  0.00000000000E+00 0. -1.
          2   -1    0    0  501    0  0.00000000000E+00 -0.00000000000E+00 -0.29066697590E+04  0.29066697590E+04  0.00000000000E+00 0.  1.
         23    2    1    2    0    0  0.87159222464E+02 -0.20158958541E+03 -0.64306525144E+03  0.68607578375E+03  0.94509112947E+02 0.  0.
        254    2    1    2    0    0 -0.87159222464E+02  0.20158958541E+03 -0.21475429974E+04  0.23366554853E+04  0.89430578667E+03 0.  0.
         23    2    4    4    0    0 -0.37449135434E+03  0.39729190866E+02 -0.18276009215E+04  0.18682393240E+04  0.91492405667E+02 0.  0.
         23    2    4    4    0    0  0.28733213187E+03  0.16186039455E+03 -0.31994207594E+03  0.46841616131E+03  0.91061665323E+02 0.  0.
         13    1    3    3    0    0  0.55722993077E+02 -0.57299209929E+02 -0.13402858476E+03  0.15605099470E+03  0.00000000000E+00 0. -1.
        -13    1    3    3    0    0  0.31436229387E+02 -0.14429037548E+03 -0.50903666668E+03  0.53002478904E+03  0.00000000000E+00 0.  1.
          2    1    5    5  502    0 -0.29122759232E+03  0.53956027777E+02 -0.15510356860E+04  0.15790618933E+04  0.00000000000E+00 0. -1.
          1    1    6    6  503    0  0.25675039728E+03  0.10476900022E+03 -0.26268001234E+03  0.38196609639E+03  0.00000000000E+00 0. -1.
         -2    1    5    5    0  502 -0.83263762022E+02 -0.14226836911E+02 -0.27656523549E+03  0.28917743072E+03  0.00000000000E+00 0.  1.
         -1    1    6    6    0  503  0.30581734599E+02  0.57091394329E+02 -0.57262063599E+02  0.86450064923E+02  0.00000000000E+00 0.  1.
<mgrwt>
<rscale>  0 0.11616410E+04</rscale>
<asrwt>0</asrwt>
<pdfrwt beam="1">  1        2 0.44717994E+00 0.11616410E+04</pdfrwt>
<pdfrwt beam="2">  1       -2 0.17855618E-01 0.11616410E+04</pdfrwt>
<totfact> 0.52019033E+01</totfact>
</mgrwt>
</event>
<event>
12    1  0.4967442E-008  0.2418798E+04  0.7818608E-02  0.8432499E-01
         -1   -1    0    0    0  501 -0.00000000000E+00  0.00000000000E+00  0.15105856352E+04  0.15105856352E+04  0.00000000000E+00 0.  1.
          1   -1    0    0  501    0  0.00000000000E+00 -0.00000000000E+00 -0.96826448463E+03  0.96826448463E+03  0.00000000000E+00 0. -1.
         23    2    1    2    0    0  0.31336117791E+03 -0.50499459849E+03 -0.64097150969E+03  0.87910995123E+03  0.93675278431E+02 0.  0.
        254    2    1    2    0    0 -0.31336117791E+03  0.50499459849E+03  0.11832926602E+04  0.15997401686E+04  0.89764821331E+03 0.  0.
         23    2    4    4    0    0 -0.48540860066E+03  0.10470691742E+03  0.99600946390E+03  0.11167533743E+04  0.92294087822E+02 0.  0.
         23    2    4    4    0    0  0.17204742275E+03  0.40028768108E+03  0.18728319632E+03  0.48298679428E+03  0.91491554401E+02 0.  0.
         13    1    3    3    0    0  0.79447710007E+02 -0.16917018365E+03 -0.14802640537E+03  0.23841624598E+03  0.00000000000E+00 0.  1.
        -13    1    3    3    0    0  0.23391346790E+03 -0.33582441485E+03 -0.49294510432E+03  0.64069370525E+03  0.00000000000E+00 0. -1.
          4    1    5    5  502    0 -0.31693442024E+03  0.37663930209E+02  0.70492973400E+03  0.77381646936E+03  0.00000000000E+00 0. -1.
          4    1    6    6  503    0  0.17559629551E+03  0.40264239015E+03  0.18924505636E+03  0.47829765283E+03  0.00000000000E+00 0. -1.
         -4    1    5    5    0  502 -0.16847418042E+03  0.67042987208E+02  0.29107972990E+03  0.34293690493E+03  0.00000000000E+00 0.  1.
         -4    1    6    6    0  503 -0.35488727576E+01 -0.23547090761E+01 -0.19618600456E+01  0.46891414482E+01  0.00000000000E+00 0.  1.
<mgrwt>
<rscale>  0 0.24187984E+04</rscale>
<asrwt>0</asrwt>
<pdfrwt beam="1">  1        1 0.14896377E+00 0.24187984E+04</pdfrwt>
<pdfrwt beam="2">  1       -1 0.23239779E+00 0.24187984E+04</pdfrwt>
<totfact> 0.13048566E+00</totfact>
</mgrwt>
</event>
<event>
12    1  0.4967442E-008  0.1958356E+04  0.7818608E-02  0.8626342E-01
          2   -1    0    0  501    0  0.00000000000E+00  0.00000000000E+00  0.14077392141E+04  0.14077392141E+04  0.00000000000E+00 0. -1.
         -2   -1    0    0    0  501 -0.00000000000E+00 -0.00000000000E+00 -0.68108451424E+03  0.68108451424E+03  0.00000000000E+00 0.  1.
         23    2    1    2    0    0 -0.35740145758E+03 -0.12238071451E+03  0.10040266816E+04  0.10765209231E+04  0.90082624633E+02 0.  0.
        254    2    1    2    0    0  0.35740145758E+03  0.12238071451E+03 -0.27737198172E+03  0.10123028053E+04  0.89727861460E+03 0.  0.
         23    2    4    4    0    0  0.30405153122E+03  0.46120031923E+03 -0.33244902466E+03  0.65116256812E+03  0.91308641586E+02 0.  0.
         23    2    4    4    0    0  0.53349926356E+02 -0.33881960472E+03  0.55077042943E+02  0.36114023718E+03  0.98710947061E+02 0.  0.
         13    1    3    3    0    0 -0.18743460900E+03 -0.51464850486E+02  0.39459903403E+03  0.43987357405E+03  0.00000000000E+00 0. -1.
        -13    1    3    3    0    0 -0.16996684858E+03 -0.70915864025E+02  0.60942764759E+03  0.63664734904E+03  0.00000000000E+00 0.  1.
          1    1    5    5  502    0 -0.14545265571E+01  0.32790653823E+02 -0.11283972517E+02  0.34708365871E+02  0.00000000000E+00 0. -1.
          3    1    6    6  503    0  0.79640540856E+02 -0.20507160388E+03  0.23683453172E+02  0.22126428637E+03  0.00000000000E+00 0. -1.
         -1    1    5    5    0  502  0.30550605778E+03  0.42840966540E+03 -0.32116505215E+03  0.61645420225E+03  0.00000000000E+00 0.  1.
         -3    1    6    6    0  503 -0.26290614501E+02 -0.13374800083E+03  0.31393589770E+02  0.13987595081E+03  0.00000000000E+00 0.  1.
<mgrwt>
<rscale>  0 0.19583558E+04</rscale>
<asrwt>0</asrwt>
<pdfrwt beam="1">  1        2 0.21657526E+00 0.19583558E+04</pdfrwt>
<pdfrwt beam="2">  1       -2 0.10478223E+00 0.19583558E+04</pdfrwt>
<totfact> 0.98656603E+00</totfact>
</mgrwt>
</event>
<event>
12    1  0.4967442E-008  0.2921753E+04  0.7818608E-02  0.8266435E-01
          1   -1    0    0  501    0  0.00000000000E+00  0.00000000000E+00  0.25117756285E+04  0.25117756285E+04  0.00000000000E+00 0. -1.
         -1   -1    0    0    0  501 -0.00000000000E+00 -0.00000000000E+00 -0.84966198183E+03  0.84966198183E+03  0.00000000000E+00 0.  1.
         23    2    1    2    0    0  0.12002490054E+04 -0.32544642990E+03  0.36596818902E+03  0.12998907845E+04  0.96282306678E+02 0.  0.
        254    2    1    2    0    0 -0.12002490054E+04  0.32544642990E+03  0.12961454577E+04  0.20615468259E+04  0.10116665528E+04 0.  0.
         23    2    4    4    0    0 -0.34088110704E+03 -0.16693061531E+03  0.91753002218E+03  0.99724140532E+03  0.92538205229E+02 0.  0.
         23    2    4    4    0    0 -0.85936789836E+03  0.49237704521E+03  0.37861543552E+03  0.10643054205E+04  0.91913224271E+02 0.  0.
         13    1    3    3    0    0  0.92716056572E+03 -0.23823837536E+03  0.24092630074E+03  0.98713206842E+03  0.00000000000E+00 0. -1.
        -13    1    3    3    0    0  0.27308843968E+03 -0.87208054539E+02  0.12504188828E+03  0.31275871609E+03  0.00000000000E+00 0.  1.
          2    1    6    6  502    0 -0.28484655448E+03  0.18584450851E+03  0.17201154586E+03  0.38113476993E+03  0.00000000000E+00 0. -1.
          2    1    5    5  503    0 -0.34654490326E+02 -0.30928745384E+02  0.20013206630E+03  0.20545161219E+03  0.00000000000E+00 0.  1.
         -2    1    5    5    0  503 -0.30622661671E+03 -0.13600186993E+03  0.71739795587E+03  0.79178979312E+03  0.00000000000E+00 0. -1.
         -2    1    6    6    0  502 -0.57452134389E+03  0.30653253671E+03  0.20660388967E+03  0.68317065062E+03  0.00000000000E+00 0.  1.
<mgrwt>
<rscale>  0 0.29217531E+04</rscale>
<asrwt>0</asrwt>
<pdfrwt beam="1">  1        1 0.38642702E+00 0.29217531E+04</pdfrwt>
<pdfrwt beam="2">  1       -1 0.13071723E+00 0.29217531E+04</pdfrwt>
<totfact> 0.56942085E-01</totfact>
</mgrwt>
</event>
<event>
12    1  0.4967442E-008  0.2689429E+04  0.7818608E-02  0.8338443E-01
         -1   -1    0    0    0  501 -0.00000000000E+00  0.00000000000E+00  0.10528637491E+04  0.10528637491E+04  0.00000000000E+00 0.  1.
          1   -1    0    0  501    0  0.00000000000E+00 -0.00000000000E+00 -0.17174653470E+04  0.17174653470E+04  0.00000000000E+00 0. -1.
         23    2    1    2    0    0  0.48563738762E+03  0.56686779161E+03 -0.12546149353E+04  0.14627235657E+04  0.91207610896E+02 0.  0.
        254    2    1    2    0    0 -0.48563738762E+03 -0.56686779161E+03  0.59001333741E+03  0.13076055305E+04  0.89695803670E+03 0.  0.
         23    2    4    4    0    0  0.22134805788E+03  0.22427478752E+02  0.15273436581E+03  0.28449989911E+03  0.90080250669E+02 0.  0.
         23    2    4    4    0    0 -0.70698544550E+03 -0.58929527036E+03  0.43727897160E+03  0.10231056314E+04  0.91841701402E+02 0.  0.
         13    1    3    3    0    0  0.13145503368E+02  0.23840079175E+02 -0.20692309990E+02  0.34195399202E+02  0.00000000000E+00 0.  1.
        -13    1    3    3    0    0  0.47249188425E+03  0.54302771243E+03 -0.12339226253E+04  0.14285281665E+04  0.00000000000E+00 0. -1.
          1    1    6    6  502    0 -0.57941711780E+03 -0.49070828286E+03  0.39751209601E+03  0.85704998790E+03  0.00000000000E+00 0. -1.
          1    1    5    5  503    0  0.21121923576E+03  0.31483371901E+02  0.16200702210E+03  0.26805044949E+03  0.00000000000E+00 0. -1.
         -1    1    5    5    0  503  0.10128822120E+02 -0.90558931481E+01 -0.92726562833E+01  0.16449449620E+02  0.00000000000E+00 0.  1.
         -1    1    6    6    0  502 -0.12756832770E+03 -0.98586987495E+02  0.39766875581E+02  0.16605564347E+03  0.00000000000E+00 0.  1.
<mgrwt>
<rscale>  0 0.26894289E+04</rscale>
<asrwt>0</asrwt>
<pdfrwt beam="1">  1        1 0.26422544E+00 0.26894289E+04</pdfrwt>
<pdfrwt beam="2">  1       -1 0.16197904E+00 0.26894289E+04</pdfrwt>
<totfact> 0.11441902E+00</totfact>
</mgrwt>
</event>
<event>
12    1  0.4967442E-008  0.1637022E+04  0.7818608E-02  0.8798121E-01
          1   -1    0    0  501    0  0.00000000000E+00  0.00000000000E+00  0.99158121539E+03  0.99158121539E+03  0.00000000000E+00 0. -1.
         -1   -1    0    0    0  501 -0.00000000000E+00 -0.00000000000E+00 -0.67564840145E+03  0.67564840145E+03  0.00000000000E+00 0.  1.
         23    2    1    2    0    0 -0.22847143196E+03  0.22794838663E+02 -0.40863203578E+03  0.47719137789E+03  0.89513521717E+02 0.  0.
        254    2    1    2    0    0  0.22847143196E+03 -0.22794838663E+02  0.72456484973E+03  0.11900382390E+04  0.91568443736E+03 0.  0.
         23    2    4    4    0    0  0.29716670489E+03 -0.12723905431E+03 -0.10075000903E+03  0.35092741183E+03  0.92204428410E+02 0.  0.
         23    2    4    4    0    0 -0.68695272921E+02  0.10444421565E+03  0.82531485876E+03  0.83911082713E+03  0.85643034811E+02 0.  0.
         11    1    3    3    0    0 -0.34093577321E+02 -0.20669442205E+02 -0.12044220851E+03  0.12686971052E+03  0.00000000000E+00 0. -1.
        -11    1    3    3    0    0 -0.19437785464E+03  0.43464280868E+02 -0.28818982727E+03  0.35032166737E+03  0.00000000000E+00 0.  1.
          3    1    6    6  502    0 -0.75378930936E+02  0.10785058546E+03  0.81839378399E+03  0.82890416677E+03  0.00000000000E+00 0. -1.
          3    1    5    5  503    0  0.29171993599E+03 -0.10098545253E+03 -0.98418573352E+02  0.32401357728E+03  0.00000000000E+00 0. -1.
         -3    1    5    5    0  503  0.54467688921E+01 -0.26253601786E+02 -0.23314356810E+01  0.26913834554E+02  0.00000000000E+00 0.  1.
         -3    1    6    6    0  502  0.66836580149E+01 -0.34063698067E+01  0.69210747640E+01  0.10206660355E+02  0.00000000000E+00 0.  1.
<mgrwt>
<rscale>  0 0.16370220E+04</rscale>
<asrwt>0</asrwt>
<pdfrwt beam="1">  1        1 0.15255096E+00 0.16370220E+04</pdfrwt>
<pdfrwt beam="2">  1       -1 0.10394591E+00 0.16370220E+04</pdfrwt>
<totfact> 0.12812258E+01</totfact>
</mgrwt>
</event>
<event>
12    1  0.4967442E-008  0.2182581E+04  0.7818608E-02  0.8525713E-01
         -1   -1    0    0    0  501 -0.00000000000E+00  0.00000000000E+00  0.92081550210E+03  0.92081550210E+03  0.00000000000E+00 0.  1.
          1   -1    0    0  501    0  0.00000000000E+00 -0.00000000000E+00 -0.12933265464E+04  0.12933265464E+04  0.00000000000E+00 0. -1.
         23    2    1    2    0    0 -0.22258493066E+03 -0.68844339643E+03  0.38929590861E+03  0.82659325997E+03  0.90591122688E+02 0.  0.
        254    2    1    2    0    0  0.22258493066E+03  0.68844339643E+03 -0.76180695293E+03  0.13875487886E+04  0.90633517291E+03 0.  0.
         23    2    4    4    0    0 -0.17969855610E+03  0.24665350559E+03  0.10105119783E+03  0.33408168304E+03  0.90937910003E+02 0.  0.
         23    2    4    4    0    0  0.40228348676E+03  0.44178989084E+03 -0.86285815076E+03  0.10534671055E+04  0.90875974310E+02 0.  0.
         11    1    3    3    0    0 -0.48689654616E+02 -0.25694680172E+03  0.10799927495E+03  0.28294201662E+03  0.00000000000E+00 0. -1.
        -11    1    3    3    0    0 -0.17389527604E+03 -0.43149659472E+03  0.28129663366E+03  0.54365124335E+03  0.00000000000E+00 0.  1.
          1    1    5    5  502    0 -0.16282549090E+03  0.21485131333E+03  0.54163547189E+02  0.27496712016E+03  0.00000000000E+00 0. -1.
          3    1    6    6  503    0  0.34754580064E+03  0.32750554678E+03 -0.67347670139E+03  0.82560210394E+03  0.00000000000E+00 0. -1.
         -1    1    5    5    0  502 -0.16873065202E+02  0.31802192266E+02  0.46887650641E+02  0.59114562883E+02  0.00000000000E+00 0.  1.
         -3    1    6    6    0  503  0.54737686124E+02  0.11428434406E+03 -0.18938144937E+03  0.22786500158E+03  0.00000000000E+00 0.  1.
<mgrwt>
<rscale>  0 0.21825812E+04</rscale>
<asrwt>0</asrwt>
<pdfrwt beam="1">  1        1 0.19897331E+00 0.21825812E+04</pdfrwt>
<pdfrwt beam="2">  1       -1 0.14166392E+00 0.21825812E+04</pdfrwt>
<totfact> 0.33937294E+00</totfact>
</mgrwt>
</event>
<event>
12    1  0.4967442E-008  0.1906062E+04  0.7818608E-02  0.8651845E-01
          2   -1    0    0  501    0  0.00000000000E+00  0.00000000000E+00  0.41250139770E+04  0.41250139770E+04  0.00000000000E+00 0. -1.
         -2   -1    0    0    0  501 -0.00000000000E+00 -0.00000000000E+00 -0.22018547839E+03  0.22018547839E+03  0.00000000000E+00 0.  1.
         23    2    1    2    0    0  0.26070232211E+03 -0.18818606856E+03  0.30900345187E+04  0.31081385417E+04  0.93979625083E+02 0.  0.
        254    2    1    2    0    0 -0.26070232211E+03  0.18818606856E+03  0.81479397983E+03  0.12370609137E+04  0.87352777716E+03 0.  0.
         23    2    4    4    0    0 -0.23061343152E+03  0.72485140894E+02  0.98048087118E+03  0.10141728623E+04  0.93633356827E+02 0.  0.
         23    2    4    4    0    0 -0.30088890593E+02  0.11570092767E+03 -0.16568689136E+03  0.22288805135E+03  0.89078007754E+02 0.  0.
         11    1    3    3    0    0  0.18428400352E+03 -0.14779724940E+03  0.25839536890E+04  0.25947295211E+04  0.00000000000E+00 0. -1.
        -11    1    3    3    0    0  0.76418318595E+02 -0.40388819158E+02  0.50608082977E+03  0.51340902055E+03  0.00000000000E+00 0.  1.
          2    1    5    5  502    0 -0.12745221650E+03 -0.71759533581E-01  0.38729226503E+03  0.40772462667E+03  0.00000000000E+00 0. -1.
          1    1    6    6  503    0 -0.13318822428E+02  0.11979186552E+03 -0.16656946415E+03  0.20560366841E+03  0.00000000000E+00 0. -1.
         -2    1    5    5    0  502 -0.10316121502E+03  0.72556900427E+02  0.59318860615E+03  0.60644823567E+03  0.00000000000E+00 0.  1.
         -1    1    6    6    0  503 -0.16770068165E+02 -0.40909378552E+01  0.88257279306E+00  0.17284382937E+02  0.00000000000E+00 0.  1.
<mgrwt>
<rscale>  0 0.19060621E+04</rscale>
<asrwt>0</asrwt>
<pdfrwt beam="1">  1        2 0.63461748E+00 0.19060621E+04</pdfrwt>
<pdfrwt beam="2">  1       -2 0.33874692E-01 0.19060621E+04</pdfrwt>
<totfact> 0.20868945E+00</totfact>
</mgrwt>
</event>
<event>
12    1  0.4967442E-008  0.2136060E+04  0.7818608E-02  0.8545523E-01
         -1   -1    0    0    0  501 -0.00000000000E+00  0.00000000000E+00  0.26859823831E+04  0.26859823831E+04  0.00000000000E+00 0.  1.
          1   -1    0    0  501    0  0.00000000000E+00 -0.00000000000E+00 -0.42468191662E+03  0.42468191662E+03  0.00000000000E+00 0. -1.
         23    2    1    2    0    0 -0.53010106173E+03 -0.69642261400E+03  0.89382426279E+03  0.12543357654E+04  0.91786746007E+02 0.  0.
        254    2    1    2    0    0  0.53010106173E+03  0.69642261400E+03  0.13674762037E+04  0.18563285343E+04  0.89997381442E+03 0.  0.
         23    2    4    4    0    0 -0.19277224252E+03  0.42820834637E+03  0.50367708055E+03  0.69467329567E+03  0.91415867643E+02 0.  0.
         23    2    4    4    0    0  0.72287330426E+03  0.26821426763E+03  0.86379912311E+03  0.11616552386E+04  0.93857663085E+02 0.  0.
         13    1    3    3    0    0 -0.31320307574E+03 -0.45073271064E+03  0.61224903792E+03  0.82225605958E+03  0.00000000000E+00 0. -1.
        -13    1    3    3    0    0 -0.21689798599E+03 -0.24568990336E+03  0.28157522487E+03  0.43207970584E+03  0.00000000000E+00 0.  1.
          2    1    5    5  502    0 -0.16344929433E+03  0.30900700228E+03  0.41834492533E+03  0.54517288618E+03  0.00000000000E+00 0. -1.
          3    1    6    6  503    0  0.43992800704E+03  0.14621396352E+03  0.45329740301E+03  0.64837775261E+03  0.00000000000E+00 0. -1.
         -2    1    5    5    0  502 -0.29322948192E+02  0.11920134409E+03  0.85332155223E+02  0.14950040949E+03  0.00000000000E+00 0.  1.
         -3    1    6    6    0  503  0.28294529722E+03  0.12200030411E+03  0.41050172010E+03  0.51327748599E+03  0.00000000000E+00 0.  1.
<mgrwt>
<rscale>  0 0.21360601E+04</rscale>
<asrwt>0</asrwt>
<pdfrwt beam="1">  1        1 0.65335681E-01 0.21360601E+04</pdfrwt>
<pdfrwt beam="2">  1       -1 0.41322805E+00 0.21360601E+04</pdfrwt>
<totfact> 0.29499593E-01</totfact>
</mgrwt>
</event>
<event>
12    1  0.4967442E-008  0.2445590E+04  0.7818608E-02  0.8422630E-01
         -1   -1    0    0    0  501 -0.00000000000E+00  0.00000000000E+00  0.10321985440E+04  0.10321985440E+04  0.00000000000E+00 0.  1.
          1   -1    0    0  501    0  0.00000000000E+00 -0.00000000000E+00 -0.14485849080E+04  0.14485849080E+04  0.00000000000E+00 0. -1.
         23    2    1    2    0    0  0.49536056688E+03  0.67490232209E+03 -0.83349353126E+03  0.11849534101E+04  0.92346531514E+02 0.  0.
        254    2    1    2    0    0 -0.49536056688E+03 -0.67490232209E+03  0.41710716725E+03  0.12958300420E+04  0.89683993729E+03 0.  0.
         23    2    4    4    0    0  0.23960024570E+03 -0.30349576912E+03  0.13976871335E+03  0.42207846662E+03  0.95378085203E+02 0.  0.
         23    2    4    4    0    0 -0.73496081258E+03 -0.37140655297E+03  0.27733845390E+03  0.87375157535E+03  0.91733166298E+02 0.  0.
         11    1    3    3    0    0  0.21329695403E+03  0.21815906920E+03 -0.28602511441E+03  0.41820967964E+03  0.00000000000E+00 0.  1.
        -11    1    3    3    0    0  0.28206361285E+03  0.45674325289E+03 -0.54746841685E+03  0.76674373046E+03  0.00000000000E+00 0. -1.
          1    1    5    5  502    0  0.17854351106E+03 -0.23108785408E+03  0.59725289430E+02  0.29807128651E+03  0.00000000000E+00 0. -1.
          3    1    6    6  503    0 -0.52688698678E+03 -0.24782521771E+03  0.23585484314E+03  0.62821552226E+03  0.00000000000E+00 0. -1.
         -1    1    5    5    0  502  0.61056734645E+02 -0.72407915040E+02  0.80043423916E+02  0.12400718011E+03  0.00000000000E+00 0.  1.
         -3    1    6    6    0  503 -0.20807382580E+03 -0.12358133526E+03  0.41483610761E+02  0.24553605309E+03  0.00000000000E+00 0.  1.
<mgrwt>
<rscale>  0 0.24455897E+04</rscale>
<asrwt>0</asrwt>
<pdfrwt beam="1">  1        1 0.22285922E+00 0.24455897E+04</pdfrwt>
<pdfrwt beam="2">  1       -1 0.15879978E+00 0.24455897E+04</pdfrwt>
<totfact> 0.18924183E+00</totfact>
</mgrwt>
</event>
<event>
12    1  0.4967442E-008  0.1053123E+04  0.7818608E-02  0.9252126E-01
          1   -1    0    0  501    0  0.00000000000E+00  0.00000000000E+00  0.13576440739E+04  0.13576440739E+04  0.00000000000E+00 0. -1.
         -1   -1    0    0    0  501 -0.00000000000E+00 -0.00000000000E+00 -0.20422649643E+03  0.20422649643E+03  0.00000000000E+00 0.  1.
         23    2    1    2    0    0 -0.42601010141E+02  0.64314125104E+01  0.19657143447E+03  0.22815389641E+03  0.10750656941E+03 0.  0.
        254    2    1    2    0    0  0.42601010141E+02 -0.64314125104E+01  0.95684614302E+03  0.13337166739E+04  0.92811067003E+03 0.  0.
         23    2    4    4    0    0  0.20665377894E+03  0.17476402080E+03 -0.52200947987E+02  0.29036800768E+03  0.91325755375E+02 0.  0.
         23    2    4    4    0    0 -0.16405276880E+03 -0.18119543331E+03  0.10090470910E+04  0.10433486663E+04  0.10322456843E+03 0.  0.
         13    1    3    3    0    0  0.17978752689E+02  0.41299394331E+02  0.91043324406E+02  0.10157638721E+03  0.00000000000E+00 0. -1.
        -13    1    3    3    0    0 -0.60579762829E+02 -0.34867981821E+02  0.10552811006E+03  0.12657750919E+03  0.00000000000E+00 0.  1.
          2    1    5    5  502    0  0.36963560455E+02 -0.10616147359E+01  0.98286142053E+01  0.38262690504E+02  0.00000000000E+00 0.  1.
          3    1    6    6  503    0 -0.50801871565E+02 -0.11172527337E+03  0.62590164076E+03  0.63782147249E+03  0.00000000000E+00 0. -1.
         -2    1    5    5    0  502  0.16969021849E+03  0.17582563554E+03 -0.62029562192E+02  0.25210531718E+03  0.00000000000E+00 0. -1.
         -3    1    6    6    0  503 -0.11325089724E+03 -0.69470159941E+02  0.38314545024E+03  0.40552719377E+03  0.00000000000E+00 0.  1.
<mgrwt>
<rscale>  0 0.10531228E+04</rscale>
<asrwt>0</asrwt>
<pdfrwt beam="1">  1        1 0.20886831E+00 0.10531228E+04</pdfrwt>
<pdfrwt beam="2">  1       -1 0.31419462E-01 0.10531228E+04</pdfrwt>
<totfact> 0.77309288E+01</totfact>
</mgrwt>
</event>
<event>
12    1  0.4967442E-008  0.1765199E+04  0.7818608E-02  0.8725028E-01
         -2   -1    0    0    0  501 -0.00000000000E+00  0.00000000000E+00  0.24220468082E+03  0.24220468082E+03  0.00000000000E+00 0.  1.
          2   -1    0    0  501    0  0.00000000000E+00 -0.00000000000E+00 -0.32162144075E+04  0.32162144075E+04  0.00000000000E+00 0. -1.
         23    2    1    2    0    0  0.14008496690E+03  0.84685118021E+02 -0.23086474876E+04  0.23161755478E+04  0.89557685467E+02 0.  0.
        254    2    1    2    0    0 -0.14008496690E+03 -0.84685118021E+02 -0.66536223907E+03  0.11422435405E+04  0.91390263679E+03 0.  0.
         23    2    4    4    0    0 -0.47608613314E+03 -0.19304459119E+03 -0.55359156368E+03  0.76079098768E+03  0.91733784375E+02 0.  0.
         23    2    4    4    0    0  0.33600116624E+03  0.10835947317E+03 -0.11177067539E+03  0.38145255285E+03  0.91513971910E+02 0.  0.
         13    1    3    3    0    0  0.18518968375E+02 -0.17794840506E+02 -0.45363423631E+03  0.45436068150E+03  0.00000000000E+00 0.  1.
        -13    1    3    3    0    0  0.12156599853E+03  0.10247995853E+03 -0.18550132512E+04  0.18618148663E+04  0.00000000000E+00 0. -1.
          4    1    5    5  502    0 -0.12582562846E+03 -0.57694633079E+02 -0.21183666702E+03  0.25305243124E+03  0.00000000000E+00 0. -1.
          3    1    6    6  503    0  0.11015505406E+03  0.80089900530E+02 -0.28888280918E+02  0.13922306159E+03  0.00000000000E+00 0. -1.
         -4    1    5    5    0  502 -0.35026050468E+03 -0.13534995811E+03 -0.34175489666E+03  0.50773855644E+03  0.00000000000E+00 0.  1.
         -3    1    6    6    0  503  0.22584611218E+03  0.28269572636E+02 -0.82882394473E+02  0.24222949126E+03  0.00000000000E+00 0.  1.
<mgrwt>
<rscale>  0 0.17651993E+04</rscale>
<asrwt>0</asrwt>
<pdfrwt beam="1">  1        2 0.49480221E+00 0.17651993E+04</pdfrwt>
<pdfrwt beam="2">  1       -2 0.37262259E-01 0.17651993E+04</pdfrwt>
<totfact> 0.81833977E+00</totfact>
</mgrwt>
</event>
<event>
12    1  0.4967442E-008  0.1615630E+04  0.7818608E-02  0.8811003E-01
          1   -1    0    0  501    0  0.00000000000E+00  0.00000000000E+00  0.47653369819E+03  0.47653369819E+03  0.00000000000E+00 0. -1.
         -1   -1    0    0    0  501 -0.00000000000E+00 -0.00000000000E+00 -0.13693990945E+04  0.13693990945E+04  0.00000000000E+00 0.  1.
         23    2    1    2    0    0  0.25380484322E+03  0.13933216108E+03  0.27007738144E+03  0.40651321347E+03  0.92091537108E+02 0.  0.
        254    2    1    2    0    0 -0.25380484322E+03 -0.13933216108E+03 -0.11629427777E+04  0.14394195792E+04  0.79728443554E+03 0.  0.
         23    2    4    4    0    0 -0.40883463142E+03  0.18494800079E+03 -0.79173857675E+03  0.91457709130E+03  0.90828206899E+02 0.  0.
         23    2    4    4    0    0  0.15502978820E+03 -0.32428016187E+03 -0.37120420096E+03  0.52484248789E+03  0.92060956289E+02 0.  0.
         13    1    3    3    0    0  0.63581865719E+02  0.43919694447E+02  0.23435133539E+02  0.80751462479E+02  0.00000000000E+00 0.  1.
        -13    1    3    3    0    0  0.19022297750E+03  0.95412466635E+02  0.24664224790E+03  0.32576175099E+03  0.00000000000E+00 0. -1.
          1    1    6    6  502    0  0.11779025510E+03 -0.29196440920E+03 -0.28077140588E+03  0.42184160866E+03  0.00000000000E+00 0. -1.
          1    1    5    5  503    0 -0.95529167603E+02  0.68584409847E+02 -0.27606405875E+03  0.30006833834E+03  0.00000000000E+00 0. -1.
         -1    1    5    5    0  503 -0.31330546381E+03  0.11636359094E+03 -0.51567451800E+03  0.61450875296E+03  0.00000000000E+00 0.  1.
         -1    1    6    6    0  502  0.37239533101E+02 -0.32315752664E+02 -0.90432795077E+02  0.10300087923E+03  0.00000000000E+00 0.  1.
<mgrwt>
<rscale>  0 0.16156297E+04</rscale>
<asrwt>0</asrwt>
<pdfrwt beam="1">  1        1 0.73312878E-01 0.16156297E+04</pdfrwt>
<pdfrwt beam="2">  1       -1 0.21067678E+00 0.16156297E+04</pdfrwt>
<totfact> 0.57718306E+00</totfact>
</mgrwt>
</event>
<event>
12    1  0.4967442E-008  0.1665375E+04  0.7818608E-02  0.8781362E-01
          2   -1    0    0  501    0  0.00000000000E+00  0.00000000000E+00  0.19441470595E+04  0.19441470595E+04  0.00000000000E+00 0. -1.
         -2   -1    0    0    0  501 -0.00000000000E+00 -0.00000000000E+00 -0.35664409936E+03  0.35664409936E+03  0.00000000000E+00 0.  1.
         23    2    1    2    0    0  0.35546137561E+03 -0.35129698307E+03  0.84587526111E+03  0.98679299948E+03  0.92158052345E+02 0.  0.
        254    2    1    2    0    0 -0.35546137561E+03  0.35129698307E+03  0.74162769905E+03  0.13139981594E+04  0.96271343559E+03 0.  0.
         23    2    4    4    0    0  0.12742511668E+03  0.44039458735E+03  0.65863666213E+03  0.80773613289E+03  0.91928530622E+02 0.  0.
         23    2    4    4    0    0 -0.48288649229E+03 -0.89097604277E+02  0.82991036921E+02  0.50626202652E+03  0.91082269188E+02 0.  0.
         11    1    3    3    0    0  0.20442867146E+03 -0.16694194397E+03  0.36892700963E+03  0.45361639389E+03  0.00000000000E+00 0. -1.
        -11    1    3    3    0    0  0.15103270415E+03 -0.18435503910E+03  0.47694825148E+03  0.53317660559E+03  0.00000000000E+00 0.  1.
          2    1    5    5  502    0  0.88095169448E+02  0.15530890729E+03  0.28122418670E+03  0.33311958626E+03  0.00000000000E+00 0. -1.
          1    1    6    6  503    0 -0.43530683626E+03 -0.69705999921E+02  0.46617362317E+02  0.44331044043E+03  0.00000000000E+00 0.  1.
         -2    1    5    5    0  502  0.39329947235E+02  0.28508568006E+03  0.37741247543E+03  0.47461654663E+03  0.00000000000E+00 0.  1.
         -1    1    6    6    0  503 -0.47579656028E+02 -0.19391604355E+02  0.36373674604E+02  0.62951586091E+02  0.00000000000E+00 0. -1.
<mgrwt>
<rscale>  0 0.16653751E+04</rscale>
<asrwt>0</asrwt>
<pdfrwt beam="1">  1        2 0.29909954E+00 0.16653751E+04</pdfrwt>
<pdfrwt beam="2">  1       -2 0.54868324E-01 0.16653751E+04</pdfrwt>
<totfact> 0.21395875E+01</totfact>
</mgrwt>
</event>
<event>
12    1  0.4967442E-008  0.1652666E+04  0.7818608E-02  0.8788831E-01
         -2   -1    0    0    0  501 -0.00000000000E+00  0.00000000000E+00  0.31606323895E+03  0.31606323895E+03  0.00000000000E+00 0.  1.
          2   -1    0    0  501    0  0.00000000000E+00 -0.00000000000E+00 -0.21604094223E+04  0.21604094223E+04  0.00000000000E+00 0. -1.
         23    2    1    2    0    0  0.11536141253E+03  0.50032216582E+03 -0.10539102175E+04  0.11759170408E+04  0.91780255034E+02 0.  0.
        254    2    1    2    0    0 -0.11536141253E+03 -0.50032216582E+03 -0.79043596591E+03  0.13005556205E+04  0.89611683428E+03 0.  0.
         23    2    4    4    0    0  0.17561622325E+03 -0.56311635705E+02  0.12303518611E+03  0.24006779244E+03  0.92102278832E+02 0.  0.
         23    2    4    4    0    0 -0.29097763577E+03 -0.44401053012E+03 -0.91347115202E+03  0.10604878281E+04  0.91605417415E+02 0.  0.
         13    1    3    3    0    0  0.38425105331E+02  0.81274336315E+02 -0.12510263876E+03  0.15405413557E+03  0.00000000000E+00 0. -1.
        -13    1    3    3    0    0  0.76936307197E+02  0.41904782951E+03 -0.92880757872E+03  0.10218629052E+04  0.00000000000E+00 0.  1.
          2    1    5    5  502    0  0.92711378148E+00  0.16519952414E+02  0.13782774213E+02  0.21534466158E+02  0.00000000000E+00 0.  1.
          1    1    6    6  503    0 -0.13380050923E+03 -0.24424713975E+03 -0.55612947870E+03  0.62196401714E+03  0.00000000000E+00 0. -1.
         -2    1    5    5    0  502  0.17468910946E+03 -0.72831588118E+02  0.10925241190E+03  0.21853332629E+03  0.00000000000E+00 0. -1.
         -1    1    6    6    0  503 -0.15717712655E+03 -0.19976339037E+03 -0.35734167332E+03  0.43852381091E+03  0.00000000000E+00 0.  1.
<mgrwt>
<rscale>  0 0.16526657E+04</rscale>
<asrwt>0</asrwt>
<pdfrwt beam="1">  1        2 0.33237067E+00 0.16526657E+04</pdfrwt>
<pdfrwt beam="2">  1       -2 0.48625115E-01 0.16526657E+04</pdfrwt>
<totfact> 0.20803566E+01</totfact>
</mgrwt>
</event>
<event>
12    1  0.4967442E-008  0.1240722E+04  0.7818608E-02  0.9077941E-01
         -2   -1    0    0    0  501 -0.00000000000E+00  0.00000000000E+00  0.58504809964E+03  0.58504809964E+03  0.00000000000E+00 0.  1.
          2   -1    0    0  501    0  0.00000000000E+00 -0.00000000000E+00 -0.65780488965E+03  0.65780488965E+03  0.00000000000E+00 0. -1.
         23    2    1    2    0    0 -0.50676527131E+02  0.20767143914E+03 -0.20103952722E+03  0.30651698569E+03  0.88545095693E+02 0.  0.
        254    2    1    2    0    0  0.50676527131E+02 -0.20767143914E+03  0.12828273720E+03  0.93633600360E+03  0.90253704297E+03 0.  0.
         23    2    4    4    0    0 -0.15061906910E+03 -0.25056202783E+03  0.44845199484E+03  0.54339034611E+03  0.93254720027E+02 0.  0.
         23    2    4    4    0    0  0.20129559623E+03  0.42890588684E+02 -0.32016925764E+03  0.39294565749E+03  0.97664817321E+02 0.  0.
         11    1    3    3    0    0  0.25293329773E+02  0.51707785258E+02 -0.57347971328E+02  0.81254153142E+02  0.00000000000E+00 0.  1.
        -11    1    3    3    0    0 -0.75969856904E+02  0.15596365389E+03 -0.14369155589E+03  0.22526283255E+03  0.00000000000E+00 0. -1.
          4    1    6    6  502    0  0.37816584346E+02  0.10728664378E+02 -0.14891220211E+03  0.15401312355E+03  0.00000000000E+00 0. -1.
          4    1    5    5  503    0 -0.28757136391E+02 -0.13166858328E+03  0.22793494334E+03  0.26479789861E+03  0.00000000000E+00 0. -1.
         -4    1    5    5    0  503 -0.12186193271E+03 -0.11889344455E+03  0.22051705150E+03  0.27859244750E+03  0.00000000000E+00 0.  1.
         -4    1    6    6    0  502  0.16347901189E+03  0.32161924307E+02 -0.17125705553E+03  0.23893253393E+03  0.00000000000E+00 0.  1.
<mgrwt>
<rscale>  0 0.12407216E+04</rscale>
<asrwt>0</asrwt>
<pdfrwt beam="1">  1        2 0.10120075E+00 0.12407216E+04</pdfrwt>
<pdfrwt beam="2">  1       -2 0.90007400E-01 0.12407216E+04</pdfrwt>
<totfact> 0.46084169E+01</totfact>
</mgrwt>
</event>
<event>
12    1  0.4967442E-008  0.1064018E+04  0.7818608E-02  0.9240990E-01
          1   -1    0    0  501    0  0.00000000000E+00  0.00000000000E+00  0.24283486776E+03  0.24283486776E+03  0.00000000000E+00 0. -1.
         -1   -1    0    0    0  501 -0.00000000000E+00 -0.00000000000E+00 -0.11655390014E+04  0.11655390014E+04  0.00000000000E+00 0.  1.
         23    2    1    2    0    0 -0.87353546699E+02  0.93306363589E+02 -0.10272625260E+03  0.18726419036E+03  0.90434918091E+02 0.  0.
        254    2    1    2    0    0  0.87353546699E+02 -0.93306363589E+02 -0.81997788105E+03  0.12211096788E+04  0.89577251724E+03 0.  0.
         23    2    4    4    0    0  0.23370578662E+03  0.28980159465E+03 -0.67644271849E+03  0.77708103078E+03  0.87617452871E+02 0.  0.
         23    2    4    4    0    0 -0.14635223992E+03 -0.38310795824E+03 -0.14353516256E+03  0.44402864802E+03  0.91479022579E+02 0.  0.
         11    1    3    3    0    0 -0.22841652270E+02  0.27750258143E+02 -0.86764758835E+02  0.93914542437E+02  0.00000000000E+00 0. -1.
        -11    1    3    3    0    0 -0.64511894428E+02  0.65556105445E+02 -0.15961493767E+02  0.93349647922E+02  0.00000000000E+00 0.  1.
          3    1    6    6  502    0 -0.98454909387E+02 -0.33092049595E+03 -0.94758203621E+02  0.35802354808E+03  0.00000000000E+00 0. -1.
          3    1    5    5  503    0  0.15063940251E+03  0.20768288233E+03 -0.38045557112E+03  0.45887999607E+03  0.00000000000E+00 0. -1.
         -3    1    5    5    0  503  0.83066384113E+02  0.82118712315E+02 -0.29598714737E+03  0.31820103471E+03  0.00000000000E+00 0.  1.
         -3    1    6    6    0  502 -0.47897330536E+02 -0.52187462285E+02 -0.48776958938E+02  0.86005099939E+02  0.00000000000E+00 0.  1.
<mgrwt>
<rscale>  0 0.10640179E+04</rscale>
<asrwt>0</asrwt>
<pdfrwt beam="1">  1        1 0.37359211E-01 0.10640179E+04</pdfrwt>
<pdfrwt beam="2">  1       -1 0.17931369E+00 0.10640179E+04</pdfrwt>
<totfact> 0.24294287E+01</totfact>
</mgrwt>
</event>
<event>
12    1  0.4967442E-008  0.1764426E+04  0.7818608E-02  0.8725449E-01
         -2   -1    0    0    0  501 -0.00000000000E+00  0.00000000000E+00  0.32082527714E+03  0.32082527714E+03  0.00000000000E+00 0.  1.
          2   -1    0    0  501    0  0.00000000000E+00 -0.00000000000E+00 -0.24259300370E+04  0.24259300370E+04  0.00000000000E+00 0. -1.
         23    2    1    2    0    0 -0.83883803073E+02 -0.63526644139E+03 -0.66140614239E+03  0.92530906583E+03  0.90215509399E+02 0.  0.
        254    2    1    2    0    0  0.83883803073E+02  0.63526644139E+03 -0.14436986174E+04  0.18214462483E+04  0.90708367496E+03 0.  0.
         23    2    4    4    0    0 -0.37304308208E+03  0.14971801248E+03 -0.74575773006E+03  0.85213010495E+03  0.91621501136E+02 0.  0.
         23    2    4    4    0    0  0.45692688515E+03  0.48554842891E+03 -0.69794088738E+03  0.96931614332E+03  0.88954191761E+02 0.  0.
         13    1    3    3    0    0 -0.35933807104E+02 -0.38689267454E+03 -0.45869725684E+03  0.60114919407E+03  0.00000000000E+00 0. -1.
        -13    1    3    3    0    0 -0.47949995970E+02 -0.24837376685E+03 -0.20270888555E+03  0.32415987175E+03  0.00000000000E+00 0.  1.
          3    1    5    5  502    0 -0.24614933263E+03  0.71748664194E+02 -0.39322768414E+03  0.46943090689E+03  0.00000000000E+00 0. -1.
          3    1    6    6  503    0  0.11669921556E+03  0.11821488550E+03 -0.23220558598E+03  0.28550464134E+03  0.00000000000E+00 0. -1.
         -3    1    5    5    0  502 -0.12689374945E+03  0.77969348286E+02 -0.35253004592E+03  0.38269919807E+03  0.00000000000E+00 0.  1.
         -3    1    6    6    0  503  0.34022766960E+03  0.36733354341E+03 -0.46573530140E+03  0.68381150198E+03  0.00000000000E+00 0.  1.
<mgrwt>
<rscale>  0 0.17644259E+04</rscale>
<asrwt>0</asrwt>
<pdfrwt beam="1">  1        2 0.37322001E+00 0.17644259E+04</pdfrwt>
<pdfrwt beam="2">  1       -2 0.49357734E-01 0.17644259E+04</pdfrwt>
<totfact> 0.14145616E+01</totfact>
</mgrwt>
</event>
<event>
12    1  0.4967442E-008  0.1410641E+04  0.7818608E-02  0.8946152E-01
          1   -1    0    0  501    0  0.00000000000E+00  0.00000000000E+00  0.16688183843E+04  0.16688183843E+04  0.00000000000E+00 0. -1.
         -1   -1    0    0    0  501 -0.00000000000E+00 -0.00000000000E+00 -0.29810138446E+03  0.29810138446E+03  0.00000000000E+00 0.  1.
         23    2    1    2    0    0  0.11098520651E+02 -0.98912476280E+02  0.97016769638E+03  0.97995889925E+03  0.95850039161E+02 0.  0.
        254    2    1    2    0    0 -0.11098520651E+02  0.98912476280E+02  0.40054930344E+03  0.98696086948E+03  0.89651835356E+03 0.  0.
         23    2    4    4    0    0 -0.18536221673E+02  0.46670128179E+03  0.62113380388E+02  0.47973413658E+03  0.90183656147E+02 0.  0.
         23    2    4    4    0    0  0.74377010214E+01 -0.36778880551E+03  0.33843592305E+03  0.50722673290E+03  0.86117127793E+02 0.  0.
         11    1    3    3    0    0  0.84790755219E+01 -0.10821820382E+03  0.95926612481E+03  0.96538830145E+03  0.00000000000E+00 0. -1.
        -11    1    3    3    0    0  0.26194451292E+01  0.93057275381E+01  0.10901571561E+02  0.14570597801E+02  0.00000000000E+00 0.  1.
          1    1    5    5  502    0  0.12913108035E+02  0.21007689308E+03 -0.11884998957E+02  0.21080868712E+03  0.00000000000E+00 0.  1.
          3    1    6    6  503    0 -0.11068572284E+02 -0.20769158086E+03  0.13613601421E+03  0.24857860008E+03  0.00000000000E+00 0. -1.
         -1    1    5    5    0  502 -0.31449329707E+02  0.25662438871E+03  0.73998379345E+02  0.26892544946E+03  0.00000000000E+00 0. -1.
         -3    1    6    6    0  503  0.18506273306E+02 -0.16009722465E+03  0.20229990885E+03  0.25864813282E+03  0.00000000000E+00 0.  1.
<mgrwt>
<rscale>  0 0.14106411E+04</rscale>
<asrwt>0</asrwt>
<pdfrwt beam="1">  1        1 0.25674129E+00 0.14106411E+04</pdfrwt>
<pdfrwt beam="2">  1       -1 0.45861752E-01 0.14106411E+04</pdfrwt>
<totfact> 0.23051717E+01</totfact>
</mgrwt>
</event>
<event>
12    1  0.4967442E-008  0.1097745E+04  0.7818608E-02  0.9207392E-01
         -2   -1    0    0    0  501 -0.00000000000E+00  0.00000000000E+00  0.28871821314E+03  0.28871821314E+03  0.00000000000E+00 0.  1.
          2   -1    0    0  501    0  0.00000000000E+00 -0.00000000000E+00 -0.10434439920E+04  0.10434439920E+04  0.00000000000E+00 0. -1.
         23    2    1    2    0    0  0.94045955972E+02  0.12285911101E+03 -0.10043573552E+03  0.20591838930E+03  0.91520724919E+02 0.  0.
        254    2    1    2    0    0 -0.94045955972E+02 -0.12285911101E+03 -0.65429004336E+03  0.11262438159E+04  0.90354339626E+03 0.  0.
         23    2    4    4    0    0  0.30967341289E+03  0.20045955418E+03 -0.18690555674E+03  0.42328471084E+03  0.90302844806E+02 0.  0.
         23    2    4    4    0    0 -0.40371936886E+03 -0.32331866519E+03 -0.46738448662E+03  0.70295910502E+03  0.90437585882E+02 0.  0.
         11    1    3    3    0    0 -0.11507744583E+02 -0.44959230365E+01  0.92048118703E-01  0.12355160145E+02  0.00000000000E+00 0. -1.
        -11    1    3    3    0    0  0.10555370055E+03  0.12735503405E+03 -0.10052778364E+03  0.19356322915E+03  0.00000000000E+00 0.  1.
          2    1    5    5  502    0  0.11447420443E+03  0.68492482646E+02 -0.11719135948E+03  0.17756513846E+03  0.00000000000E+00 0. -1.
          4    1    6    6  503    0 -0.34224579580E+03 -0.24536016079E+03 -0.33863619977E+03  0.54037789466E+03  0.00000000000E+00 0. -1.
         -2    1    5    5    0  502  0.19519920846E+03  0.13196707153E+03 -0.69714197255E+02  0.24571957238E+03  0.00000000000E+00 0.  1.
         -4    1    6    6    0  503 -0.61473573059E+02 -0.77958504394E+02 -0.12874828685E+03  0.16258121035E+03  0.00000000000E+00 0.  1.
<mgrwt>
<rscale>  0 0.10977455E+04</rscale>
<asrwt>0</asrwt>
<pdfrwt beam="1">  1        2 0.16052984E+00 0.10977455E+04</pdfrwt>
<pdfrwt beam="2">  1       -2 0.44418187E-01 0.10977455E+04</pdfrwt>
<totfact> 0.11273984E+02</totfact>
</mgrwt>
</event>
<event>
12    1  0.4967442E-008  0.1973888E+04  0.7818608E-02  0.8618927E-01
          2   -1    0    0  501    0  0.00000000000E+00  0.00000000000E+00  0.18018613489E+04  0.18018613489E+04  0.00000000000E+00 0.  1.
         -2   -1    0    0    0  501 -0.00000000000E+00 -0.00000000000E+00 -0.54058432884E+03  0.54058432884E+03  0.00000000000E+00 0. -1.
         23    2    1    2    0    0  0.39460180946E+03  0.20430287718E+02 -0.28790744138E+03  0.50288062398E+03  0.11777199365E+03 0.  0.
        254    2    1    2    0    0 -0.39460180946E+03 -0.20430287718E+02  0.15491844615E+04  0.18395650538E+04  0.90988961241E+03 0.  0.
         23    2    4    4    0    0  0.20815252591E+03 -0.98380987103E+02  0.94822613387E+03  0.98003700021E+03  0.91287612394E+02 0.  0.
         23    2    4    4    0    0 -0.60275433536E+03  0.77950699385E+02  0.60095832762E+03  0.85952805358E+03  0.90821049486E+02 0.  0.
         11    1    3    3    0    0  0.67135410134E+02  0.47878466554E+02 -0.73865818603E+02  0.11070532964E+03  0.00000000000E+00 0.  1.
        -11    1    3    3    0    0  0.32746639932E+03 -0.27448178836E+02 -0.21404162278E+03  0.39217529434E+03  0.00000000000E+00 0. -1.
          4    1    5    5  502    0  0.11190528906E+03 -0.77945186387E+01  0.35664266052E+03  0.37386833985E+03  0.00000000000E+00 0. -1.
          3    1    6    6  503    0 -0.11537520150E+03  0.29421132338E+02  0.16731582768E+03  0.20535731382E+03  0.00000000000E+00 0. -1.
         -4    1    5    5    0  502  0.96247236848E+02 -0.90586468464E+02  0.59158347335E+03  0.60616866036E+03  0.00000000000E+00 0.  1.
         -3    1    6    6    0  503 -0.48737913386E+03  0.48529567046E+02  0.43364249994E+03  0.65417073976E+03  0.00000000000E+00 0.  1.
<mgrwt>
<rscale>  0 0.19738875E+04</rscale>
<asrwt>0</asrwt>
<pdfrwt beam="1">  1        2 0.27720944E+00 0.19738875E+04</pdfrwt>
<pdfrwt beam="2">  1       -2 0.83166821E-01 0.19738875E+04</pdfrwt>
<totfact> 0.10146917E+01</totfact>
</mgrwt>
</event>
<event>
12    1  0.4967442E-008  0.1056646E+04  0.7818608E-02  0.9248509E-01
          1   -1    0    0  501    0  0.00000000000E+00  0.00000000000E+00  0.11829751995E+04  0.11829751995E+04  0.00000000000E+00 0. -1.
         -1   -1    0    0    0  501 -0.00000000000E+00 -0.00000000000E+00 -0.23595191208E+03  0.23595191208E+03  0.00000000000E+00 0.  1.
         23    2    1    2    0    0 -0.85944236037E+02 -0.10538958419E+02  0.32150789247E+03  0.34517524148E+03  0.91000775037E+02 0.  0.
        254    2    1    2    0    0  0.85944236037E+02  0.10538958419E+02  0.62551539497E+03  0.10737518701E+04  0.86843312228E+03 0.  0.
         23    2    4    4    0    0 -0.16140240698E+02  0.21721739041E+03  0.75709137822E+03  0.79292015401E+03  0.89950617479E+02 0.  0.
         23    2    4    4    0    0  0.10208447674E+03 -0.20667843200E+03 -0.13157598325E+03  0.28083171610E+03  0.91744202862E+02 0.  0.
         11    1    3    3    0    0 -0.18373010686E+02  0.21119614090E+02  0.20444233189E+03  0.20634987930E+03  0.00000000000E+00 0. -1.
        -11    1    3    3    0    0 -0.67571225351E+02 -0.31658572509E+02  0.11706556058E+03  0.13882536217E+03  0.00000000000E+00 0.  1.
          2    1    5    5  502    0 -0.16685095682E+02  0.36577137516E+01  0.11458373243E+03  0.11584991595E+03  0.00000000000E+00 0. -1.
          2    1    6    6  503    0  0.11138691703E+02  0.38723013032E+01 -0.25585542933E+02  0.28172418735E+02  0.00000000000E+00 0. -1.
         -2    1    5    5    0  502  0.54485498379E+00  0.21355967666E+03  0.64250764579E+03  0.67707023806E+03  0.00000000000E+00 0.  1.
         -2    1    6    6    0  503  0.90945785032E+02 -0.21055073330E+03 -0.10599044032E+03  0.25265929737E+03  0.00000000000E+00 0.  1.
<mgrwt>
<rscale>  0 0.10566461E+04</rscale>
<asrwt>0</asrwt>
<pdfrwt beam="1">  1        1 0.18199618E+00 0.10566461E+04</pdfrwt>
<pdfrwt beam="2">  1       -1 0.36300295E-01 0.10566461E+04</pdfrwt>
<totfact> 0.79782390E+01</totfact>
</mgrwt>
</event>
<event>
12    1  0.4967442E-008  0.1683727E+04  0.7818608E-02  0.8770700E-01
         -1   -1    0    0    0  501 -0.00000000000E+00  0.00000000000E+00  0.12693156949E+04  0.12693156949E+04  0.00000000000E+00 0.  1.
          1   -1    0    0  501    0  0.00000000000E+00 -0.00000000000E+00 -0.55835952401E+03  0.55835952401E+03  0.00000000000E+00 0. -1.
         23    2    1    2    0    0 -0.35706452631E+03 -0.42425449380E+03  0.50912120768E+03  0.75844908701E+03  0.92486009876E+02 0.  0.
        254    2    1    2    0    0  0.35706452631E+03  0.42425449380E+03  0.20183496319E+03  0.10692261319E+04  0.89163906222E+03 0.  0.
         23    2    4    4    0    0 -0.18245662390E+03  0.44103792269E+03  0.19292263584E+01  0.48641317289E+03  0.93750647943E+02 0.  0.
         23    2    4    4    0    0  0.53952115021E+03 -0.16783428890E+02  0.19990573683E+03  0.58281295899E+03  0.91344876944E+02 0.  0.
         13    1    3    3    0    0 -0.49018269162E+02 -0.11753768572E+03  0.12201023970E+03  0.17636438662E+03  0.00000000000E+00 0. -1.
        -13    1    3    3    0    0 -0.30804625715E+03 -0.30671680808E+03  0.38711096798E+03  0.58208470040E+03  0.00000000000E+00 0.  1.
          2    1    5    5  502    0 -0.12869283769E+02  0.10745742353E+03  0.26405295959E+02  0.11139998200E+03  0.00000000000E+00 0.  1.
          1    1    6    6  503    0  0.33978594576E+03  0.27754115350E+02  0.10126370483E+03  0.35563902735E+03  0.00000000000E+00 0. -1.
         -2    1    5    5    0  502 -0.16958734013E+03  0.33358049917E+03 -0.24476069601E+02  0.37501319089E+03  0.00000000000E+00 0. -1.
         -1    1    6    6    0  503  0.19973520445E+03 -0.44537544240E+02  0.98642031999E+02  0.22717393164E+03  0.00000000000E+00 0.  1.
<mgrwt>
<rscale>  0 0.16837274E+04</rscale>
<asrwt>0</asrwt>
<pdfrwt beam="1">  1        1 0.85901466E-01 0.16837274E+04</pdfrwt>
<pdfrwt beam="2">  1       -1 0.19527934E+00 0.16837274E+04</pdfrwt>
<totfact> 0.58708543E+00</totfact>
</mgrwt>
</event>
<event>
12    1  0.4967442E-008  0.3005343E+04  0.7818608E-02  0.8242207E-01
          1   -1    0    0  501    0  0.00000000000E+00  0.00000000000E+00  0.11720196510E+04  0.11720196510E+04  0.00000000000E+00 0. -1.
         -1   -1    0    0    0  501 -0.00000000000E+00 -0.00000000000E+00 -0.19266075677E+04  0.19266075677E+04  0.00000000000E+00 0.  1.
         23    2    1    2    0    0 -0.96888443226E+03  0.29694342399E+02  0.64950971198E+03  0.11704356413E+04  0.91858191333E+02 0.  0.
        254    2    1    2    0    0  0.96888443226E+03 -0.29694342399E+02 -0.14040976287E+04  0.19281915774E+04  0.89822815090E+03 0.  0.
         23    2    4    4    0    0  0.77714744297E+03 -0.11616532652E+03 -0.14882425733E+04  0.16854022744E+04  0.90897405417E+02 0.  0.
         23    2    4    4    0    0  0.19173698928E+03  0.86470984124E+02  0.84144944594E+02  0.24278930299E+03  0.87326798811E+02 0.  0.
         13    1    3    3    0    0 -0.66478668266E+03  0.59463644303E+02  0.46581859227E+03  0.81391904962E+03  0.00000000000E+00 0. -1.
        -13    1    3    3    0    0 -0.30409774960E+03 -0.29769301904E+02  0.18369111971E+03  0.35651659163E+03  0.00000000000E+00 0.  1.
          3    1    5    5  502    0  0.58449922094E+03 -0.59832617323E+02 -0.10454928337E+04  0.11992808456E+04  0.00000000000E+00 0. -1.
          3    1    6    6  503    0  0.41608157590E+02  0.16069106137E+02  0.60697032464E+02  0.75323201605E+02  0.00000000000E+00 0. -1.
         -3    1    5    5    0  502  0.19264822203E+03 -0.56332709199E+02 -0.44274973962E+03  0.48612142877E+03  0.00000000000E+00 0.  1.
         -3    1    6    6    0  503  0.15012883169E+03  0.70401877987E+02  0.23447912130E+02  0.16746610138E+03  0.00000000000E+00 0.  1.
<mgrwt>
<rscale>  0 0.30053432E+04</rscale>
<asrwt>0</asrwt>
<pdfrwt beam="1">  1        1 0.18031072E+00 0.30053432E+04</pdfrwt>
<pdfrwt beam="2">  1       -1 0.29640116E+00 0.30053432E+04</pdfrwt>
<totfact> 0.33208961E-01</totfact>
</mgrwt>
</event>
<event>
12    1  0.4967442E-008  0.1387999E+04  0.7818608E-02  0.8962551E-01
         -2   -1    0    0    0  501 -0.00000000000E+00  0.00000000000E+00  0.14753535969E+03  0.14753535969E+03  0.00000000000E+00 0.  1.
          2   -1    0    0  501    0  0.00000000000E+00 -0.00000000000E+00 -0.32645430562E+04  0.32645430562E+04  0.00000000000E+00 0. -1.
         23    2    1    2    0    0 -0.22411027119E+03 -0.30637419877E+03 -0.63354711541E+03  0.74414921486E+03  0.91024959226E+02 0.  0.
        254    2    1    2    0    0  0.22411027119E+03  0.30637419877E+03 -0.24834605811E+04  0.26679292011E+04  0.89787482452E+03 0.  0.
         23    2    4    4    0    0  0.56435872914E+03  0.17078992650E+03 -0.14906774253E+04  0.16055450274E+04  0.89362602865E+02 0.  0.
         23    2    4    4    0    0 -0.34024845794E+03  0.13558427226E+03 -0.99278315588E+03  0.10623841736E+04  0.94284833203E+02 0.  0.
         11    1    3    3    0    0 -0.38381962615E+02 -0.85051610128E+01 -0.65606173144E+02  0.76483218896E+02  0.00000000000E+00 0. -1.
        -11    1    3    3    0    0 -0.18572830858E+03 -0.29786903775E+03 -0.56794094227E+03  0.66766599596E+03  0.00000000000E+00 0.  1.
          3    1    5    5  502    0  0.25637279535E+03  0.81796062574E+02 -0.56236920282E+03  0.62343943277E+03  0.00000000000E+00 0. -1.
          3    1    6    6  503    0 -0.29386269985E+02  0.43513176959E+02 -0.17397639052E+03  0.18172708629E+03  0.00000000000E+00 0. -1.
         -3    1    5    5    0  502  0.30798593379E+03  0.88993863928E+02 -0.92830822243E+03  0.98210559466E+03  0.00000000000E+00 0.  1.
         -3    1    6    6    0  503 -0.31086218796E+03  0.92071095306E+02 -0.81880676535E+03  0.88065708734E+03  0.00000000000E+00 0.  1.
<mgrwt>
<rscale>  0 0.13879993E+04</rscale>
<asrwt>0</asrwt>
<pdfrwt beam="1">  1        2 0.50223737E+00 0.13879993E+04</pdfrwt>
<pdfrwt beam="2">  1       -2 0.22697749E-01 0.13879993E+04</pdfrwt>
<totfact> 0.19826313E+01</totfact>
</mgrwt>
</event>
<event>
12    1  0.4967442E-008  0.2088199E+04  0.7818608E-02  0.8566460E-01
         -1   -1    0    0    0  501 -0.00000000000E+00  0.00000000000E+00  0.47781390014E+03  0.47781390014E+03  0.00000000000E+00 0.  1.
          1   -1    0    0  501    0  0.00000000000E+00 -0.00000000000E+00 -0.22815245306E+04  0.22815245306E+04  0.00000000000E+00 0. -1.
         23    2    1    2    0    0  0.58204609640E+03  0.54124411761E+03 -0.35857713224E+03  0.87636887254E+03  0.87874841709E+02 0.  0.
        254    2    1    2    0    0 -0.58204609640E+03 -0.54124411761E+03 -0.14451334982E+04  0.18829695582E+04  0.90853765815E+03 0.  0.
         23    2    4    4    0    0 -0.15043805161E+03 -0.69046637522E+03 -0.66500154223E+03  0.97441797812E+03  0.88813975419E+02 0.  0.
         23    2    4    4    0    0 -0.43160804479E+03  0.14922225761E+03 -0.78013195600E+03  0.90855158010E+03  0.91144492042E+02 0.  0.
         11    1    3    3    0    0  0.20574501229E+02  0.31412617893E+02 -0.19691444412E+00  0.37551317407E+02  0.00000000000E+00 0. -1.
        -11    1    3    3    0    0  0.56147159517E+03  0.50983149972E+03 -0.35838021780E+03  0.83881755513E+03  0.00000000000E+00 0.  1.
          4    1    5    5  502    0 -0.35109181234E+02 -0.83223383305E+02 -0.12117797826E+03  0.15113864016E+03  0.00000000000E+00 0. -1.
          4    1    6    6  503    0 -0.47928198794E+02 -0.11299890751E+02 -0.96705866842E+02  0.10852107838E+03  0.00000000000E+00 0. -1.
         -4    1    5    5    0  502 -0.11532887038E+03 -0.60724299192E+03 -0.54382356397E+03  0.82327933796E+03  0.00000000000E+00 0.  1.
         -4    1    6    6    0  503 -0.38367984599E+03  0.16052214836E+03 -0.68342608916E+03  0.80003050172E+03  0.00000000000E+00 0.  1.
<mgrwt>
<rscale>  0 0.20881994E+04</rscale>
<asrwt>0</asrwt>
<pdfrwt beam="1">  1        1 0.35100377E+00 0.20881994E+04</pdfrwt>
<pdfrwt beam="2">  1       -1 0.73509831E-01 0.20881994E+04</pdfrwt>
<totfact> 0.32891549E+00</totfact>
</mgrwt>
</event>
<event>
12    1  0.4967442E-008  0.1568746E+04  0.7818608E-02  0.8839982E-01
         -1   -1    0    0    0  501 -0.00000000000E+00  0.00000000000E+00  0.65949385272E+03  0.65949385272E+03  0.00000000000E+00 0.  1.
          1   -1    0    0  501    0  0.00000000000E+00 -0.00000000000E+00 -0.93289869652E+03  0.93289869652E+03  0.00000000000E+00 0. -1.
         23    2    1    2    0    0  0.25019550930E+03  0.45043933349E+03 -0.70495580852E+02  0.52920504606E+03  0.97953906677E+02 0.  0.
        254    2    1    2    0    0 -0.25019550930E+03 -0.45043933349E+03 -0.20290926294E+03  0.10631875032E+04  0.90758036112E+03 0.  0.
         23    2    4    4    0    0 -0.39038596181E+03  0.52468205143E+02 -0.32462036059E+03  0.51849584842E+03  0.91134266802E+02 0.  0.
         23    2    4    4    0    0  0.14019045251E+03 -0.50290753863E+03  0.12171109765E+03  0.54469165476E+03  0.96467881131E+02 0.  0.
         11    1    3    3    0    0  0.26296749624E+02  0.13565171327E+03 -0.16586095066E+02  0.13916897968E+03  0.00000000000E+00 0.  1.
        -11    1    3    3    0    0  0.22389875968E+03  0.31478762021E+03 -0.53909485786E+02  0.39003606639E+03  0.00000000000E+00 0. -1.
          4    1    5    5  502    0 -0.66521337595E+02  0.13479657796E+02 -0.16657673130E+02  0.69887535397E+02  0.00000000000E+00 0. -1.
          3    1    6    6  503    0 -0.53408488988E+01 -0.29613251855E+02  0.27255596538E+02  0.40599715455E+02  0.00000000000E+00 0. -1.
         -4    1    5    5    0  502 -0.32386462421E+03  0.38988547347E+02 -0.30796268746E+03  0.44860831302E+03  0.00000000000E+00 0.  1.
         -3    1    6    6    0  503  0.14553130140E+03 -0.47329428678E+03  0.94455501111E+02  0.50409193931E+03  0.00000000000E+00 0.  1.
<mgrwt>
<rscale>  0 0.15687459E+04</rscale>
<asrwt>0</asrwt>
<pdfrwt beam="1">  1        1 0.14352288E+00 0.15687459E+04</pdfrwt>
<pdfrwt beam="2">  1       -1 0.10146059E+00 0.15687459E+04</pdfrwt>
<totfact> 0.15175662E+01</totfact>
</mgrwt>
</event>
<event>
12    1  0.4967442E-008  0.3076213E+04  0.7818608E-02  0.8222297E-01
         -2   -1    0    0    0  501 -0.00000000000E+00  0.00000000000E+00  0.13714016123E+04  0.13714016123E+04  0.00000000000E+00 0.  1.
          2   -1    0    0  501    0  0.00000000000E+00 -0.00000000000E+00 -0.17250752134E+04  0.17250752134E+04  0.00000000000E+00 0. -1.
         23    2    1    2    0    0  0.28510782792E+02 -0.12022095275E+04  0.56919082629E+03  0.13335866655E+04  0.91403418882E+02 0.  0.
        254    2    1    2    0    0 -0.28510782792E+02  0.12022095275E+04 -0.92286442738E+03  0.17628901602E+04  0.89999019595E+03 0.  0.
         23    2    4    4    0    0 -0.26691005928E+03  0.20537836987E+03  0.43018784965E+02  0.35167058341E+03  0.91653307756E+02 0.  0.
         23    2    4    4    0    0  0.23839927649E+03  0.99683115762E+03 -0.96588321235E+03  0.14112195768E+04  0.90020787135E+02 0.  0.
         13    1    3    3    0    0  0.98478517893E+01 -0.24831990440E+03  0.77821442514E+02  0.26041492281E+03  0.00000000000E+00 0. -1.
        -13    1    3    3    0    0  0.18662931003E+02 -0.95388962309E+03  0.49136938377E+03  0.10731717427E+04  0.00000000000E+00 0.  1.
          4    1    5    5  502    0 -0.19742904264E+03  0.10494812888E+03  0.50844519026E+02  0.22929784506E+03  0.00000000000E+00 0. -1.
          1    1    6    6  503    0  0.10625032468E+03  0.44105122842E+03 -0.48927403835E+03  0.66723639154E+03  0.00000000000E+00 0. -1.
         -4    1    5    5    0  502 -0.69481016637E+02  0.10043024099E+03 -0.78257340609E+01  0.12237273835E+03  0.00000000000E+00 0.  1.
         -1    1    6    6    0  503  0.13214895181E+03  0.55577992919E+03 -0.47660917399E+03  0.74398318522E+03  0.00000000000E+00 0.  1.
<mgrwt>
<rscale>  0 0.30762126E+04</rscale>
<asrwt>0</asrwt>
<pdfrwt beam="1">  1        2 0.26539619E+00 0.30762126E+04</pdfrwt>
<pdfrwt beam="2">  1       -2 0.21098486E+00 0.30762126E+04</pdfrwt>
<totfact> 0.91177033E-01</totfact>
</mgrwt>
</event>
<event>
12    1  0.4967442E-008  0.2074568E+04  0.7818608E-02  0.8572530E-01
          1   -1    0    0  501    0  0.00000000000E+00  0.00000000000E+00  0.12752721669E+04  0.12752721669E+04  0.00000000000E+00 0. -1.
         -1   -1    0    0    0  501 -0.00000000000E+00 -0.00000000000E+00 -0.84370880689E+03  0.84370880689E+03  0.00000000000E+00 0.  1.
         23    2    1    2    0    0  0.70924659059E+03  0.46695921940E+03  0.14377858646E+03  0.86610595579E+03  0.91572953838E+02 0.  0.
        254    2    1    2    0    0 -0.70924659059E+03 -0.46695921940E+03  0.28778477357E+03  0.12528750180E+04  0.87509662097E+03 0.  0.
         23    2    4    4    0    0 -0.70323704839E+03 -0.63552442100E+03  0.39779382642E+03  0.10321220149E+04  0.92748528243E+02 0.  0.
         23    2    4    4    0    0 -0.60095422084E+01  0.16856520160E+03 -0.11000905285E+03  0.22075300307E+03  0.90440891556E+02 0.  0.
         13    1    3    3    0    0  0.48814480902E+03  0.29910480917E+03  0.57326090854E+02  0.57535669122E+03  0.00000000000E+00 0. -1.
        -13    1    3    3    0    0  0.22110178157E+03  0.16785441022E+03  0.86452495607E+02  0.29074926456E+03  0.00000000000E+00 0.  1.
          2    1    5    5  502    0 -0.24055494811E+03 -0.17336330016E+03  0.94151855380E+02  0.31110462673E+03  0.00000000000E+00 0. -1.
          3    1    6    6  503    0  0.24454386979E+02  0.28219381961E+02 -0.56023268177E+02  0.67327239197E+02  0.00000000000E+00 0. -1.
         -2    1    5    5    0  502 -0.46268210028E+03 -0.46216112084E+03  0.30364197104E+03  0.72101738822E+03  0.00000000000E+00 0.  1.
         -3    1    6    6    0  503 -0.30463929187E+02  0.14034581964E+03 -0.53985784677E+02  0.15342576387E+03  0.00000000000E+00 0.  1.
<mgrwt>
<rscale>  0 0.20745683E+04</rscale>
<asrwt>0</asrwt>
<pdfrwt beam="1">  1        1 0.19619572E+00 0.20745683E+04</pdfrwt>
<pdfrwt beam="2">  1       -1 0.12980135E+00 0.20745683E+04</pdfrwt>
<totfact> 0.44219774E+00</totfact>
</mgrwt>
</event>
<event>
12    1  0.4967442E-008  0.1470791E+04  0.7818608E-02  0.8904113E-01
          1   -1    0    0  501    0  0.00000000000E+00  0.00000000000E+00  0.11872857044E+04  0.11872857044E+04  0.00000000000E+00 0. -1.
         -1   -1    0    0    0  501 -0.00000000000E+00 -0.00000000000E+00 -0.45549803212E+03  0.45549803212E+03  0.00000000000E+00 0.  1.
         23    2    1    2    0    0  0.26133075713E+03 -0.24118464217E+03  0.46950100868E+02  0.37118637317E+03  0.95452686791E+02 0.  0.
        254    2    1    2    0    0 -0.26133075713E+03  0.24118464217E+03  0.68483757144E+03  0.12715973634E+04  0.10106896453E+04 0.  0.
         23    2    4    4    0    0 -0.14994721724E+03  0.63112807580E+03  0.41029827377E+03  0.77345169572E+03  0.95268232590E+02 0.  0.
         23    2    4    4    0    0 -0.11138353988E+03 -0.38994343363E+03  0.27453929767E+03  0.49814566766E+03  0.91187202283E+02 0.  0.
         13    1    3    3    0    0  0.22785634594E+03 -0.24099573824E+03  0.56361587659E+02  0.33641356809E+03  0.00000000000E+00 0. -1.
        -13    1    3    3    0    0  0.33474411188E+02 -0.18890392893E+00 -0.94114867912E+01  0.34772805074E+02  0.00000000000E+00 0.  1.
          4    1    5    5  502    0 -0.15289873590E+03  0.46576640243E+03  0.30281001405E+03  0.57620332321E+03  0.00000000000E+00 0. -1.
          1    1    6    6  503    0 -0.14534833661E+02 -0.10059702183E+03  0.11620928458E+03  0.15438788817E+03  0.00000000000E+00 0. -1.
         -4    1    5    5    0  502  0.29515186519E+01  0.16536167337E+03  0.10748825972E+03  0.19724837251E+03  0.00000000000E+00 0.  1.
         -1    1    6    6    0  503 -0.96848706221E+02 -0.28934641180E+03  0.15833001309E+03  0.34375777950E+03  0.00000000000E+00 0.  1.
<mgrwt>
<rscale>  0 0.14707907E+04</rscale>
<asrwt>0</asrwt>
<pdfrwt beam="1">  1        1 0.18265934E+00 0.14707907E+04</pdfrwt>
<pdfrwt beam="2">  1       -1 0.70076621E-01 0.14707907E+04</pdfrwt>
<totfact> 0.21793506E+01</totfact>
</mgrwt>
</event>
<event>
12    1  0.4967442E-008  0.1264687E+04  0.7818608E-02  0.9058047E-01
          2   -1    0    0  501    0  0.00000000000E+00  0.00000000000E+00  0.21052861322E+04  0.21052861322E+04  0.00000000000E+00 0.  1.
         -2   -1    0    0    0  501 -0.00000000000E+00 -0.00000000000E+00 -0.18993060841E+03  0.18993060841E+03  0.00000000000E+00 0. -1.
         23    2    1    2    0    0  0.10963659957E+03  0.78295131268E+02 -0.10815403106E+02  0.16276868993E+03  0.90699293992E+02 0.  0.
        254    2    1    2    0    0 -0.10963659957E+03 -0.78295131268E+02  0.19261709269E+04  0.21324480507E+04  0.90501377763E+03 0.  0.
         23    2    4    4    0    0 -0.44926229685E+02  0.38993027062E+02 -0.70830948365E+02  0.12898017921E+03  0.89889048887E+02 0.  0.
         23    2    4    4    0    0 -0.64710369887E+02 -0.11728815833E+03  0.19970018752E+04  0.20034678714E+04  0.89011674462E+02 0.  0.
         13    1    3    3    0    0  0.11169679212E+03  0.73850124693E+02  0.16591816854E+02  0.13492702721E+03  0.00000000000E+00 0. -1.
        -13    1    3    3    0    0 -0.20601925450E+01  0.44450065748E+01 -0.27407219959E+02  0.27841662714E+02  0.00000000000E+00 0.  1.
          2    1    5    5  502    0 -0.47957800637E+02  0.36046484916E+02 -0.90655796315E+02  0.10870958156E+03  0.00000000000E+00 0. -1.
          1    1    6    6  503    0 -0.85906643394E+02 -0.86867597958E+02  0.14026006981E+04  0.14079114494E+04  0.00000000000E+00 0. -1.
         -2    1    5    5    0  502  0.30315709521E+01  0.29465421465E+01  0.19824847949E+02  0.20270597655E+02  0.00000000000E+00 0.  1.
         -1    1    6    6    0  503  0.21196273507E+02 -0.30420560372E+02  0.59440117710E+03  0.59555642204E+03  0.00000000000E+00 0.  1.
<mgrwt>
<rscale>  0 0.12646870E+04</rscale>
<asrwt>0</asrwt>
<pdfrwt beam="1">  1        2 0.32389016E+00 0.12646870E+04</pdfrwt>
<pdfrwt beam="2">  1       -2 0.29220095E-01 0.12646870E+04</pdfrwt>
<totfact> 0.61861983E+01</totfact>
</mgrwt>
</event>
<event>
12    1  0.4967442E-008  0.1876035E+04  0.7818608E-02  0.8666878E-01
          1   -1    0    0  501    0  0.00000000000E+00  0.00000000000E+00  0.16252322141E+04  0.16252322141E+04  0.00000000000E+00 0. -1.
         -1   -1    0    0    0  501 -0.00000000000E+00 -0.00000000000E+00 -0.54138532211E+03  0.54138532211E+03  0.00000000000E+00 0.  1.
         23    2    1    2    0    0 -0.66180185550E+03  0.15443534062E+03  0.70082406470E+03  0.98048405298E+03  0.91447460959E+02 0.  0.
        254    2    1    2    0    0  0.66180185550E+03 -0.15443534062E+03  0.38302282724E+03  0.11861334832E+04  0.89351786964E+03 0.  0.
         23    2    4    4    0    0  0.55234772400E+03  0.22122402155E+03 -0.39203695741E+02  0.60321868183E+03  0.91146982575E+02 0.  0.
         23    2    4    4    0    0  0.10945413150E+03 -0.37565936217E+03  0.42222652298E+03  0.58291480135E+03  0.91729306319E+02 0.  0.
         11    1    3    3    0    0 -0.58660668130E+02  0.49871792927E+01  0.29952356424E+02  0.66053687240E+02  0.00000000000E+00 0.  1.
        -11    1    3    3    0    0 -0.60314118737E+03  0.14944816132E+03  0.67087170828E+03  0.91443036574E+03  0.00000000000E+00 0. -1.
          4    1    6    6  502    0 -0.26375290327E+01 -0.34773490849E+01 -0.41036583455E+01  0.59907034540E+01  0.00000000000E+00 0. -1.
          4    1    5    5  503    0  0.10642468285E+03  0.83366118498E+02 -0.10088762659E+02  0.13556513551E+03  0.00000000000E+00 0. -1.
         -4    1    5    5    0  503  0.44592304114E+03  0.13785790306E+03 -0.29114933082E+02  0.46765354632E+03  0.00000000000E+00 0.  1.
         -4    1    6    6    0  502  0.11209166053E+03 -0.37218201308E+03  0.42633018133E+03  0.57692409790E+03  0.00000000000E+00 0.  1.
<mgrwt>
<rscale>  0 0.18760350E+04</rscale>
<asrwt>0</asrwt>
<pdfrwt beam="1">  1        1 0.25003572E+00 0.18760350E+04</pdfrwt>
<pdfrwt beam="2">  1       -1 0.83290050E-01 0.18760350E+04</pdfrwt>
<totfact> 0.71912928E+00</totfact>
</mgrwt>
</event>
<event>
12    1  0.4967442E-008  0.1881488E+04  0.7818608E-02  0.8664126E-01
          1   -1    0    0  501    0  0.00000000000E+00  0.00000000000E+00  0.40397368257E+03  0.40397368257E+03  0.00000000000E+00 0. -1.
         -1   -1    0    0    0  501 -0.00000000000E+00 -0.00000000000E+00 -0.21907347209E+04  0.21907347209E+04  0.00000000000E+00 0.  1.
         23    2    1    2    0    0 -0.24432586660E+03  0.51049288172E+03 -0.71185992613E+02  0.57770411060E+03  0.91523125397E+02 0.  0.
        254    2    1    2    0    0  0.24432586660E+03 -0.51049288172E+03 -0.17155750457E+04  0.20170042929E+04  0.89711229429E+03 0.  0.
         23    2    4    4    0    0 -0.41787495336E+02  0.46495944275E+02  0.64929750025E+02  0.12734813762E+03  0.89964482522E+02 0.  0.
         23    2    4    4    0    0  0.28611336193E+03 -0.55698882600E+03 -0.17805047957E+04  0.18896561552E+04  0.92226076743E+02 0.  0.
         11    1    3    3    0    0 -0.50915443043E+01  0.39656674500E+01  0.97642052148E+01  0.11704274655E+02  0.00000000000E+00 0.  1.
        -11    1    3    3    0    0 -0.23923432229E+03  0.50652721427E+03 -0.80950197828E+02  0.56599983595E+03  0.00000000000E+00 0. -1.
          1    1    5    5  502    0 -0.11299432449E+02 -0.12208881344E+00 -0.21636097834E+02  0.24409277106E+02  0.00000000000E+00 0. -1.
          1    1    6    6  503    0  0.16917847152E+03 -0.22939772358E+03 -0.81507281681E+03  0.86347458996E+03  0.00000000000E+00 0. -1.
         -1    1    5    5    0  502 -0.30488062887E+02  0.46618033089E+02  0.86565847859E+02  0.10293886051E+03  0.00000000000E+00 0.  1.
         -1    1    6    6    0  503  0.11693489041E+03 -0.32759110242E+03 -0.96543197894E+03  0.10261815653E+04  0.00000000000E+00 0.  1.
<mgrwt>
<rscale>  0 0.18814879E+04</rscale>
<asrwt>0</asrwt>
<pdfrwt beam="1">  1        1 0.62149797E-01 0.18814879E+04</pdfrwt>
<pdfrwt beam="2">  1       -1 0.33703611E+00 0.18814879E+04</pdfrwt>
<totfact> 0.10519752E+00</totfact>
</mgrwt>
</event>
<event>
12    1  0.4967442E-008  0.2596573E+04  0.7818608E-02  0.8369366E-01
         -2   -1    0    0    0  501 -0.00000000000E+00  0.00000000000E+00  0.79236984659E+03  0.79236984659E+03  0.00000000000E+00 0.  1.
          2   -1    0    0  501    0  0.00000000000E+00 -0.00000000000E+00 -0.21272240215E+04  0.21272240215E+04  0.00000000000E+00 0. -1.
         23    2    1    2    0    0  0.26868846099E+03 -0.10478284995E+04 -0.10011048875E+04  0.14765984405E+04  0.89408641918E+02 0.  0.
        254    2    1    2    0    0 -0.26868846099E+03  0.10478284995E+04 -0.33374928734E+03  0.14429954276E+04  0.89482353779E+03 0.  0.
         23    2    4    4    0    0  0.15992657125E+03  0.36647311641E+02 -0.28241730047E+03  0.33956502288E+03  0.92872705995E+02 0.  0.
         23    2    4    4    0    0 -0.42861503223E+03  0.10111811878E+04 -0.51331986878E+02  0.11034304047E+04  0.93410088361E+02 0.  0.
         13    1    3    3    0    0  0.25871262939E+03 -0.97963923069E+03 -0.90644845681E+03  0.13595124316E+04  0.00000000000E+00 0.  1.
        -13    1    3    3    0    0  0.99758315936E+01 -0.68189268791E+02 -0.94656430738E+02  0.11708600888E+03  0.00000000000E+00 0. -1.
          4    1    5    5  502    0  0.16785213165E+03  0.19291314779E+02 -0.26063841618E+03  0.31061049067E+03  0.00000000000E+00 0. -1.
          1    1    6    6  503    0 -0.22451300287E+02  0.51309517152E+02  0.18083106949E+02  0.58853429738E+02  0.00000000000E+00 0.  1.
         -4    1    5    5    0  502 -0.79255604016E+01  0.17355996862E+02 -0.21778884289E+02  0.28954532212E+02  0.00000000000E+00 0.  1.
         -1    1    6    6    0  503 -0.40616373195E+03  0.95987167069E+03 -0.69415093827E+02  0.10445769750E+04  0.00000000000E+00 0. -1.
<mgrwt>
<rscale>  0 0.25965733E+04</rscale>
<asrwt>0</asrwt>
<pdfrwt beam="1">  1        2 0.32726523E+00 0.25965733E+04</pdfrwt>
<pdfrwt beam="2">  1       -2 0.12190305E+00 0.25965733E+04</pdfrwt>
<totfact> 0.25628686E+00</totfact>
</mgrwt>
</event>
<event>
12    1  0.4967442E-008  0.1903452E+04  0.7818608E-02  0.8653140E-01
          4   -1    0    0  501    0  0.00000000000E+00  0.00000000000E+00  0.15458732400E+04  0.15458732400E+04  0.00000000000E+00 0. -1.
         -4   -1    0    0    0  501 -0.00000000000E+00 -0.00000000000E+00 -0.58593592653E+03  0.58593592653E+03  0.00000000000E+00 0.  1.
         23    2    1    2    0    0  0.65300597618E+03 -0.32478467213E+03  0.23852247285E+03  0.77298702861E+03  0.93349280468E+02 0.  0.
        254    2    1    2    0    0 -0.65300597618E+03  0.32478467213E+03  0.72141484065E+03  0.13588221379E+04  0.89109839081E+03 0.  0.
         23    2    4    4    0    0 -0.39109324891E+02 -0.15424784138E+02  0.63816670576E+03  0.64617868771E+03  0.92318410139E+02 0.  0.
         23    2    4    4    0    0 -0.61389665129E+03  0.34020945627E+03  0.83248134886E+02  0.71264345024E+03  0.91207799059E+02 0.  0.
         13    1    3    3    0    0  0.64741839605E+02 -0.35948122950E+01  0.26041603917E+02  0.69875557997E+02  0.00000000000E+00 0.  1.
        -13    1    3    3    0    0  0.58826413657E+03 -0.32118985984E+03  0.21248086893E+03  0.70311147061E+03  0.00000000000E+00 0. -1.
          4    1    5    5  502    0 -0.57455406683E+02 -0.38865191443E+02  0.50390395338E+03  0.50865589655E+03  0.00000000000E+00 0. -1.
          3    1    6    6  503    0 -0.34068739807E+03  0.21091881713E+03  0.62862202137E+01  0.40074202075E+03  0.00000000000E+00 0. -1.
         -4    1    5    5    0  502  0.18346081792E+02  0.23440407305E+02  0.13426275238E+03  0.13752279116E+03  0.00000000000E+00 0.  1.
         -3    1    6    6    0  503 -0.27320925321E+03  0.12929063914E+03  0.76961914672E+02  0.31190142949E+03  0.00000000000E+00 0.  1.
<mgrwt>
<rscale>  0 0.19034523E+04</rscale>
<asrwt>0</asrwt>
<pdfrwt beam="1">  1        4 0.23782665E+00 0.19034523E+04</pdfrwt>
<pdfrwt beam="2">  1       -4 0.90143989E-01 0.19034523E+04</pdfrwt>
<totfact> 0.14864541E-01</totfact>
</mgrwt>
</event>
<event>
12    1  0.4967442E-008  0.1863472E+04  0.7818608E-02  0.8673255E-01
         -1   -1    0    0    0  501 -0.00000000000E+00  0.00000000000E+00  0.15290334827E+04  0.15290334827E+04  0.00000000000E+00 0.  1.
          1   -1    0    0  501    0  0.00000000000E+00 -0.00000000000E+00 -0.56776523535E+03  0.56776523535E+03  0.00000000000E+00 0. -1.
         23    2    1    2    0    0 -0.10145447517E+03 -0.20520051211E+03  0.11363477253E+04  0.11626705744E+04  0.90091347588E+02 0.  0.
        254    2    1    2    0    0  0.10145447517E+03  0.20520051211E+03 -0.17507947804E+03  0.93412814363E+03  0.88856193053E+03 0.  0.
         23    2    4    4    0    0 -0.78405050033E+02  0.21557504045E+03 -0.49644858868E+03  0.55448780796E+03  0.91518184161E+02 0.  0.
         23    2    4    4    0    0  0.17985952520E+03 -0.10374528331E+02  0.32136911065E+03  0.37964033568E+03  0.91605674229E+02 0.  0.
         13    1    3    3    0    0 -0.56580423636E+02 -0.52784580222E+02  0.54017268001E+03  0.54568679705E+03  0.00000000000E+00 0. -1.
        -13    1    3    3    0    0 -0.44874051532E+02 -0.15241593189E+03  0.59617504534E+03  0.61698377732E+03  0.00000000000E+00 0.  1.
          4    1    5    5  502    0 -0.34357736370E+02  0.19335416352E+03 -0.41769185046E+03  0.46155472973E+03  0.00000000000E+00 0. -1.
          1    1    6    6  503    0  0.17310289961E+03 -0.20887629755E+02  0.32298170801E+03  0.36703963089E+03  0.00000000000E+00 0. -1.
         -4    1    5    5    0  502 -0.44047313663E+02  0.22220876926E+02 -0.78756738228E+02  0.92933078226E+02  0.00000000000E+00 0.  1.
         -1    1    6    6    0  503  0.67566255872E+01  0.10513101424E+02 -0.16125973668E+01  0.12600704788E+02  0.00000000000E+00 0.  1.
<mgrwt>
<rscale>  0 0.18634721E+04</rscale>
<asrwt>0</asrwt>
<pdfrwt beam="1">  1        1 0.87348498E-01 0.18634721E+04</pdfrwt>
<pdfrwt beam="2">  1       -1 0.23523592E+00 0.18634721E+04</pdfrwt>
<totfact> 0.30324687E+00</totfact>
</mgrwt>
</event>
<event>
12    1  0.4967442E-008  0.1653709E+04  0.7818608E-02  0.8788215E-01
          1   -1    0    0  501    0  0.00000000000E+00  0.00000000000E+00  0.12272054140E+04  0.12272054140E+04  0.00000000000E+00 0. -1.
         -1   -1    0    0    0  501 -0.00000000000E+00 -0.00000000000E+00 -0.55710983352E+03  0.55710983352E+03  0.00000000000E+00 0.  1.
         23    2    1    2    0    0 -0.11592609491E+03  0.50755450167E+03 -0.33919672967E+02  0.52956076876E+03  0.90739362725E+02 0.  0.
        254    2    1    2    0    0  0.11592609491E+03 -0.50755450167E+03  0.70401525342E+03  0.12547544787E+04  0.89873293765E+03 0.  0.
         23    2    4    4    0    0  0.31616140077E+02 -0.39981090292E+03 -0.10871117281E+03  0.42554283564E+03  0.91761906384E+02 0.  0.
         23    2    4    4    0    0  0.84309954834E+02 -0.10774359875E+03  0.81272642623E+03  0.82921164310E+03  0.91383005019E+02 0.  0.
         11    1    3    3    0    0 -0.49725375942E+02  0.31183620382E+03  0.18782035581E+02  0.31633399420E+03  0.00000000000E+00 0.  1.
        -11    1    3    3    0    0 -0.66200718970E+02  0.19571829785E+03 -0.52701708548E+02  0.21322677456E+03  0.00000000000E+00 0. -1.
          2    1    5    5  502    0  0.33357766488E+02 -0.18866226576E+03 -0.95246528457E+02  0.21395815546E+03  0.00000000000E+00 0. -1.
          1    1    6    6  503    0  0.68725908731E+02 -0.87592112280E+02  0.77915428362E+03  0.78706862874E+03  0.00000000000E+00 0. -1.
         -2    1    5    5    0  502 -0.17416264112E+01 -0.21114863716E+03 -0.13464644352E+02  0.21158468017E+03  0.00000000000E+00 0.  1.
         -1    1    6    6    0  503  0.15584046103E+02 -0.20151486472E+02  0.33572142609E+02  0.42143014360E+02  0.00000000000E+00 0.  1.
<mgrwt>
<rscale>  0 0.16537088E+04</rscale>
<asrwt>0</asrwt>
<pdfrwt beam="1">  1        1 0.18880083E+00 0.16537088E+04</pdfrwt>
<pdfrwt beam="2">  1       -1 0.85709205E-01 0.16537088E+04</pdfrwt>
<totfact> 0.13113111E+01</totfact>
</mgrwt>
</event>
<event>
12    1  0.4967442E-008  0.1869285E+04  0.7818608E-02  0.8670298E-01
         -1   -1    0    0    0  501 -0.00000000000E+00  0.00000000000E+00  0.36100233950E+03  0.36100233950E+03  0.00000000000E+00 0.  1.
          1   -1    0    0  501    0  0.00000000000E+00 -0.00000000000E+00 -0.24198079582E+04  0.24198079582E+04  0.00000000000E+00 0. -1.
         23    2    1    2    0    0  0.53409875245E+03 -0.30648525937E+03 -0.13318059648E+04  0.14691342396E+04  0.73848457160E+02 0.  0.
        254    2    1    2    0    0 -0.53409875245E+03  0.30648525937E+03 -0.72699965392E+03  0.13116760581E+04  0.90153807072E+03 0.  0.
         23    2    4    4    0    0 -0.33462747484E+03  0.15791532498E+03  0.13909265412E+03  0.40607612659E+03  0.92942226019E+02 0.  0.
         23    2    4    4    0    0 -0.19947127762E+03  0.14856993439E+03 -0.86609230804E+03  0.90559993149E+03  0.90186106876E+02 0.  0.
         13    1    3    3    0    0  0.22044255142E+03 -0.14892428748E+03 -0.64850201264E+03  0.70094808814E+03  0.00000000000E+00 0.  1.
        -13    1    3    3    0    0  0.31365620103E+03 -0.15756097189E+03 -0.68330395214E+03  0.76818615148E+03  0.00000000000E+00 0. -1.
          2    1    5    5  502    0 -0.21815842224E+03  0.10232622236E+03  0.42048349021E+02  0.24460543050E+03  0.00000000000E+00 0.  1.
          2    1    6    6  503    0 -0.15056527441E+03  0.57516831144E+02 -0.52068350232E+03  0.54505907690E+03  0.00000000000E+00 0. -1.
         -2    1    5    5    0  502 -0.11646905260E+03  0.55589102614E+02  0.97044305095E+02  0.16147069609E+03  0.00000000000E+00 0. -1.
         -2    1    6    6    0  503 -0.48906003203E+02  0.91053103248E+02 -0.34540880572E+03  0.36054085459E+03  0.00000000000E+00 0.  1.
<mgrwt>
<rscale>  0 0.18692847E+04</rscale>
<asrwt>0</asrwt>
<pdfrwt beam="1">  1        1 0.37227817E+00 0.18692847E+04</pdfrwt>
<pdfrwt beam="2">  1       -1 0.55538818E-01 0.18692847E+04</pdfrwt>
<totfact> 0.47373970E+00</totfact>
</mgrwt>
</event>
<event>
12    1  0.4967442E-008  0.1856124E+04  0.7818608E-02  0.8677010E-01
         -2   -1    0    0    0  501 -0.00000000000E+00  0.00000000000E+00  0.48080397830E+03  0.48080397830E+03  0.00000000000E+00 0. -1.
          2   -1    0    0  501    0  0.00000000000E+00 -0.00000000000E+00 -0.17913729247E+04  0.17913729247E+04  0.00000000000E+00 0.  1.
         23    2    1    2    0    0 -0.68908477560E+03  0.16026866676E+02 -0.75469191799E+03  0.10261075200E+04  0.90785808766E+02 0.  0.
        254    2    1    2    0    0  0.68908477560E+03 -0.16026866676E+02 -0.55587702845E+03  0.12460693831E+04  0.87669547062E+03 0.  0.
         23    2    4    4    0    0  0.60887446096E+03  0.35485626918E+03 -0.25826417843E+03  0.75596759921E+03  0.90197251685E+02 0.  0.
         23    2    4    4    0    0  0.80210314644E+02 -0.37088313586E+03 -0.29761285002E+03  0.49010178384E+03  0.87397682985E+02 0.  0.
         11    1    3    3    0    0 -0.31265620009E+03 -0.20743531579E+02 -0.28996899765E+03  0.42692647277E+03  0.00000000000E+00 0. -1.
        -11    1    3    3    0    0 -0.37642857551E+03  0.36770398255E+02 -0.46472292035E+03  0.59918104722E+03  0.00000000000E+00 0.  1.
          4    1    5    5  502    0  0.54513723463E+03  0.32054816133E+03 -0.25951067206E+03  0.68357261299E+03  0.00000000000E+00 0. -1.
          1    1    6    6  503    0  0.40327624303E+02 -0.30276419715E+03 -0.20234994676E+03  0.36638501240E+03  0.00000000000E+00 0. -1.
         -4    1    5    5    0  502  0.63737226328E+02  0.34308107856E+02  0.12464936236E+01  0.72394986228E+02  0.00000000000E+00 0.  1.
         -1    1    6    6    0  503  0.39882690340E+02 -0.68118938713E+02 -0.95262903255E+02  0.12371677144E+03  0.00000000000E+00 0.  1.
<mgrwt>
<rscale>  0 0.18561242E+04</rscale>
<asrwt>0</asrwt>
<pdfrwt beam="1">  1        2 0.27559583E+00 0.18561242E+04</pdfrwt>
<pdfrwt beam="2">  1       -2 0.73969844E-01 0.18561242E+04</pdfrwt>
<totfact> 0.13499496E+01</totfact>
</mgrwt>
</event>
<event>
12    1  0.4967442E-008  0.1937166E+04  0.7818608E-02  0.8636575E-01
         -1   -1    0    0    0  501 -0.00000000000E+00  0.00000000000E+00  0.12798258509E+04  0.12798258509E+04  0.00000000000E+00 0.  1.
          1   -1    0    0  501    0  0.00000000000E+00 -0.00000000000E+00 -0.73303175832E+03  0.73303175832E+03  0.00000000000E+00 0. -1.
         23    2    1    2    0    0 -0.70805029461E+03  0.95696047539E+02  0.47674997083E+03  0.86364768038E+03  0.90021263702E+02 0.  0.
        254    2    1    2    0    0  0.70805029461E+03 -0.95696047539E+02  0.70044121708E+02  0.11492099288E+04  0.89737635820E+03 0.  0.
         23    2    4    4    0    0  0.33283269830E+03  0.25297992578E+03 -0.28910894597E+03  0.51652575249E+03  0.91860886321E+02 0.  0.
         23    2    4    4    0    0  0.37521759631E+03 -0.34867597332E+03  0.35915306768E+03  0.63268417632E+03  0.94525985814E+02 0.  0.
         11    1    3    3    0    0 -0.14025779392E+03  0.11872148544E+02  0.13835002092E+03  0.19736748708E+03  0.00000000000E+00 0. -1.
        -11    1    3    3    0    0 -0.56779250069E+03  0.83823898995E+02  0.33839994991E+03  0.66628019330E+03  0.00000000000E+00 0.  1.
          4    1    5    5  502    0  0.31429410349E+03  0.20156341112E+03 -0.25301591393E+03  0.45102732167E+03  0.00000000000E+00 0. -1.
          1    1    6    6  503    0  0.28437765964E+03 -0.31340095894E+03  0.28460661969E+03  0.50999190419E+03  0.00000000000E+00 0. -1.
         -4    1    5    5    0  502  0.18538594808E+02  0.51416514661E+02 -0.36093032039E+02  0.65498430814E+02  0.00000000000E+00 0.  1.
         -1    1    6    6    0  503  0.90839936669E+02 -0.35275014381E+02  0.74546447982E+02  0.12269227213E+03  0.00000000000E+00 0.  1.
<mgrwt>
<rscale>  0 0.19371660E+04</rscale>
<asrwt>0</asrwt>
<pdfrwt beam="1">  1        1 0.11277412E+00 0.19371660E+04</pdfrwt>
<pdfrwt beam="2">  1       -1 0.19689628E+00 0.19371660E+04</pdfrwt>
<totfact> 0.37429288E+00</totfact>
</mgrwt>
</event>
<event>
12    1  0.4967442E-008  0.2463436E+04  0.7818608E-02  0.8416129E-01
          2   -1    0    0  501    0  0.00000000000E+00  0.00000000000E+00  0.10748079055E+04  0.10748079055E+04  0.00000000000E+00 0.  1.
         -2   -1    0    0    0  501 -0.00000000000E+00 -0.00000000000E+00 -0.14115349211E+04  0.14115349211E+04  0.00000000000E+00 0. -1.
         23    2    1    2    0    0  0.54750161440E+03 -0.45844460011E+03  0.64437804412E+03  0.96577575658E+03  0.87007350886E+02 0.  0.
        254    2    1    2    0    0 -0.54750161440E+03  0.45844460011E+03 -0.98110505969E+03  0.15205670700E+04  0.91631195945E+03 0.  0.
         23    2    4    4    0    0  0.18977299265E+03  0.23994939792E+03 -0.54643224019E+03  0.63261027484E+03  0.89543645246E+02 0.  0.
         23    2    4    4    0    0 -0.73727460705E+03  0.21849520218E+03 -0.43467281949E+03  0.88795679515E+03  0.90624557705E+02 0.  0.
         11    1    3    3    0    0  0.25702995721E+03 -0.26567868269E+03  0.35825964494E+03  0.51478105495E+03  0.00000000000E+00 0.  1.
        -11    1    3    3    0    0  0.29047165719E+03 -0.19276591742E+03  0.28611839918E+03  0.45099470163E+03  0.00000000000E+00 0. -1.
          4    1    5    5  502    0  0.15421677727E+03  0.23640059897E+03 -0.47006476411E+03  0.54829639799E+03  0.00000000000E+00 0. -1.
          1    1    6    6  503    0 -0.41102618244E+03  0.10046305280E+03 -0.19252589302E+03  0.46486725751E+03  0.00000000000E+00 0. -1.
         -4    1    5    5    0  502  0.35556215386E+02  0.35487989478E+01 -0.76367476080E+02  0.84313876850E+02  0.00000000000E+00 0.  1.
         -1    1    6    6    0  503 -0.32624842461E+03  0.11803214938E+03 -0.24214692648E+03  0.42308953763E+03  0.00000000000E+00 0.  1.
<mgrwt>
<rscale>  0 0.24634357E+04</rscale>
<asrwt>0</asrwt>
<pdfrwt beam="1">  1        2 0.16535506E+00 0.24634357E+04</pdfrwt>
<pdfrwt beam="2">  1       -2 0.21715922E+00 0.24634357E+04</pdfrwt>
<totfact> 0.20813112E+00</totfact>
</mgrwt>
</event>
<event>
12    1  0.4967442E-008  0.2402872E+04  0.7818608E-02  0.8438429E-01
         -2   -1    0    0    0  501 -0.00000000000E+00  0.00000000000E+00  0.70175290670E+03  0.70175290670E+03  0.00000000000E+00 0.  1.
          2   -1    0    0  501    0  0.00000000000E+00 -0.00000000000E+00 -0.20569177879E+04  0.20569177879E+04  0.00000000000E+00 0. -1.
         23    2    1    2    0    0 -0.36496742603E+03 -0.76131600297E+03 -0.11938854445E+04  0.14651175484E+04  0.91671683689E+02 0.  0.
        254    2    1    2    0    0  0.36496742603E+03  0.76131600297E+03 -0.16127943671E+03  0.12935531462E+04  0.96667750926E+03 0.  0.
         23    2    4    4    0    0  0.64350078118E+03  0.47873245494E+03  0.92474401058E+02  0.81260311924E+03  0.92164503794E+02 0.  0.
         23    2    4    4    0    0 -0.27853335515E+03  0.28258354803E+03 -0.25375383777E+03  0.48095002696E+03  0.97404449127E+02 0.  0.
         13    1    3    3    0    0 -0.10359183699E+03 -0.17570457156E+03 -0.23028527582E+03  0.30762749133E+03  0.00000000000E+00 0.  1.
        -13    1    3    3    0    0 -0.26137558904E+03 -0.58561143141E+03 -0.96360016869E+03  0.11574900571E+04  0.00000000000E+00 0. -1.
          4    1    5    5  502    0  0.54428145737E+03  0.38302047235E+03  0.46038705479E+02  0.66713308228E+03  0.00000000000E+00 0. -1.
          3    1    6    6  503    0 -0.25523573843E+03  0.23735891787E+03 -0.18260137793E+03  0.39348164034E+03  0.00000000000E+00 0. -1.
         -4    1    5    5    0  502  0.99219323809E+02  0.95711982592E+02  0.46435695579E+02  0.14547003696E+03  0.00000000000E+00 0.  1.
         -3    1    6    6    0  503 -0.23297616718E+02  0.45224630156E+02 -0.71152459834E+02  0.87468386620E+02  0.00000000000E+00 0.  1.
<mgrwt>
<rscale>  0 0.24028716E+04</rscale>
<asrwt>0</asrwt>
<pdfrwt beam="1">  1        2 0.31644889E+00 0.24028716E+04</pdfrwt>
<pdfrwt beam="2">  1       -2 0.10796199E+00 0.24028716E+04</pdfrwt>
<totfact> 0.38380274E+00</totfact>
</mgrwt>
</event>
<event>
12    1  0.4967442E-008  0.1273097E+04  0.7818608E-02  0.9051176E-01
          1   -1    0    0  501    0  0.00000000000E+00  0.00000000000E+00  0.82322532679E+03  0.82322532679E+03  0.00000000000E+00 0. -1.
         -1   -1    0    0    0  501 -0.00000000000E+00 -0.00000000000E+00 -0.49220303597E+03  0.49220303597E+03  0.00000000000E+00 0.  1.
         23    2    1    2    0    0  0.27061812829E+03  0.90590487319E+02 -0.31373115448E+02  0.30123836179E+03  0.91211131411E+02 0.  0.
        254    2    1    2    0    0 -0.27061812829E+03 -0.90590487319E+02  0.36239540626E+03  0.10141900010E+04  0.90322207670E+03 0.  0.
         23    2    4    4    0    0 -0.69175063623E+02  0.39496669172E+03  0.17978413200E+03  0.45012509806E+03  0.97500732289E+02 0.  0.
         23    2    4    4    0    0 -0.20144306466E+03 -0.48555717904E+03  0.18261127427E+03  0.56406490290E+03  0.92072008686E+02 0.  0.
         13    1    3    3    0    0  0.97884315160E+02  0.12283252290E+02 -0.50129947982E+02  0.11065816339E+03  0.00000000000E+00 0. -1.
        -13    1    3    3    0    0  0.17273381313E+03  0.78307235030E+02  0.18756832534E+02  0.19058019840E+03  0.00000000000E+00 0.  1.
          4    1    5    5  502    0 -0.43241425492E+01  0.27889127823E+03  0.13452089438E+03  0.30966903995E+03  0.00000000000E+00 0. -1.
          3    1    6    6  503    0 -0.18472924886E+03 -0.39461363454E+03  0.11847335319E+03  0.45153156187E+03  0.00000000000E+00 0. -1.
         -4    1    5    5    0  502 -0.64850921074E+02  0.11607541349E+03  0.45263237616E+02  0.14045605811E+03  0.00000000000E+00 0.  1.
         -3    1    6    6    0  503 -0.16713815801E+02 -0.90943544500E+02  0.64137921072E+02  0.11253334103E+03  0.00000000000E+00 0.  1.
<mgrwt>
<rscale>  0 0.12730970E+04</rscale>
<asrwt>0</asrwt>
<pdfrwt beam="1">  1        1 0.12665005E+00 0.12730970E+04</pdfrwt>
<pdfrwt beam="2">  1       -1 0.75723544E-01 0.12730970E+04</pdfrwt>
<totfact> 0.36426366E+01</totfact>
</mgrwt>
</event>
<event>
12    1  0.4967442E-008  0.1208954E+04  0.7818608E-02  0.9105055E-01
         -2   -1    0    0    0  501 -0.00000000000E+00  0.00000000000E+00  0.24340021506E+03  0.24340021506E+03  0.00000000000E+00 0.  1.
          2   -1    0    0  501    0  0.00000000000E+00 -0.00000000000E+00 -0.15011989270E+04  0.15011989270E+04  0.00000000000E+00 0. -1.
         23    2    1    2    0    0 -0.33843903841E+02  0.16997719234E+03 -0.57933231901E+03  0.61147094919E+03  0.90736597408E+02 0.  0.
        254    2    1    2    0    0  0.33843903841E+02 -0.16997719234E+03 -0.67846639296E+03  0.11331281929E+04  0.89085644154E+03 0.  0.
         23    2    4    4    0    0  0.38783489006E+03  0.69081223602E+02 -0.11575951794E+03  0.42079271756E+03  0.92076749294E+02 0.  0.
         23    2    4    4    0    0 -0.35399098622E+03 -0.23905841594E+03 -0.56270687502E+03  0.71233547534E+03  0.91237369931E+02 0.  0.
         11    1    3    3    0    0 -0.46969096689E+02  0.97018611721E+02 -0.22525444588E+03  0.24971638403E+03  0.00000000000E+00 0.  1.
        -11    1    3    3    0    0  0.13125192848E+02  0.72958580615E+02 -0.35407787313E+03  0.36175456516E+03  0.00000000000E+00 0. -1.
          2    1    5    5  502    0  0.31396947355E+03  0.25867114365E+02 -0.66245014842E+02  0.32192287883E+03  0.00000000000E+00 0.  1.
          1    1    6    6  503    0 -0.72490562638E+01  0.40239501554E+01 -0.33761618904E+02  0.34764750863E+02  0.00000000000E+00 0. -1.
         -2    1    5    5    0  502  0.73865416510E+02  0.43214109237E+02 -0.49514503099E+02  0.98869838730E+02  0.00000000000E+00 0. -1.
         -1    1    6    6    0  503 -0.34674192995E+03 -0.24308236609E+03 -0.52894525612E+03  0.67757072447E+03  0.00000000000E+00 0.  1.
<mgrwt>
<rscale>  0 0.12089535E+04</rscale>
<asrwt>0</asrwt>
<pdfrwt beam="1">  1        2 0.23095368E+00 0.12089535E+04</pdfrwt>
<pdfrwt beam="2">  1       -2 0.37446188E-01 0.12089535E+04</pdfrwt>
<totfact> 0.84018364E+01</totfact>
</mgrwt>
</event>
<event>
12    1  0.4967442E-008  0.1228522E+04  0.7818608E-02  0.9088251E-01
         -2   -1    0    0    0  501 -0.00000000000E+00  0.00000000000E+00  0.50065546816E+03  0.50065546816E+03  0.00000000000E+00 0.  1.
          2   -1    0    0  501    0  0.00000000000E+00 -0.00000000000E+00 -0.75364531901E+03  0.75364531901E+03  0.00000000000E+00 0. -1.
         23    2    1    2    0    0  0.26606171663E+03  0.39116947504E+02 -0.12551442313E+03  0.31009226905E+03  0.89913137386E+02 0.  0.
        254    2    1    2    0    0 -0.26606171663E+03 -0.39116947504E+02 -0.12747542772E+03  0.94420851812E+03  0.89608078229E+03 0.  0.
         23    2    4    4    0    0  0.27837194774E+03 -0.47752623766E+02  0.14310424928E+03  0.32907139769E+03  0.89654359917E+02 0.  0.
         23    2    4    4    0    0 -0.54443366436E+03  0.86356762613E+01 -0.27057967700E+03  0.61513712043E+03  0.93261597317E+02 0.  0.
         13    1    3    3    0    0  0.20888115500E+03  0.22453006554E+02 -0.13508817795E+03  0.24976847327E+03  0.00000000000E+00 0. -1.
        -13    1    3    3    0    0  0.57180561625E+02  0.16663940950E+02  0.95737548217E+01  0.60323795779E+02  0.00000000000E+00 0.  1.
          4    1    6    6  502    0 -0.29497753598E+03 -0.33446189660E+02 -0.17560098878E+03  0.34491462943E+03  0.00000000000E+00 0. -1.
          4    1    5    5  503    0  0.32165456604E+01 -0.17862096225E+02  0.15941701584E+01  0.18219276221E+02  0.00000000000E+00 0. -1.
         -4    1    5    5    0  503  0.27515540208E+03 -0.29890527541E+02  0.14151007912E+03  0.31085212147E+03  0.00000000000E+00 0.  1.
         -4    1    6    6    0  502 -0.24945612838E+03  0.42081865922E+02 -0.94978688217E+02  0.27022249100E+03  0.00000000000E+00 0.  1.
<mgrwt>
<rscale>  0 0.12285221E+04</rscale>
<asrwt>0</asrwt>
<pdfrwt beam="1">  1        2 0.11594543E+00 0.12285221E+04</pdfrwt>
<pdfrwt beam="2">  1       -2 0.77023919E-01 0.12285221E+04</pdfrwt>
<totfact> 0.55259431E+01</totfact>
</mgrwt>
</event>
<event>
12    1  0.4967442E-008  0.1055377E+04  0.7818608E-02  0.9249810E-01
          2   -1    0    0  501    0  0.00000000000E+00  0.00000000000E+00  0.26353548692E+03  0.26353548692E+03  0.00000000000E+00 0. -1.
         -2   -1    0    0    0  501 -0.00000000000E+00 -0.00000000000E+00 -0.10566142463E+04  0.10566142463E+04  0.00000000000E+00 0.  1.
         23    2    1    2    0    0 -0.60151615459E+02 -0.28347321038E+01 -0.22167559458E+03  0.24878101253E+03  0.95528374922E+02 0.  0.
        254    2    1    2    0    0  0.60151615459E+02  0.28347321038E+01 -0.57140316476E+03  0.10713687206E+04  0.90426937708E+03 0.  0.
         23    2    4    4    0    0  0.99076415531E+02 -0.27325641996E+03 -0.68957839204E+03  0.75403229593E+03  0.92526414418E+02 0.  0.
         23    2    4    4    0    0 -0.38924800072E+02  0.27609115207E+03  0.11817522728E+03  0.31733642471E+03  0.94844914432E+02 0.  0.
         11    1    3    3    0    0 -0.76874020090E+02 -0.24112919537E+02 -0.12774271734E+03  0.15102731438E+03  0.00000000000E+00 0.  1.
        -11    1    3    3    0    0  0.16722404631E+02  0.21278187433E+02 -0.93932877235E+02  0.97753698154E+02  0.00000000000E+00 0. -1.
          4    1    5    5  502    0  0.10695814630E+03 -0.22499829019E+03 -0.50528569104E+03  0.56336303147E+03  0.00000000000E+00 0. -1.
          1    1    6    6  503    0 -0.70087671117E+02  0.16916176745E+03  0.71385854983E+02  0.19652970641E+03  0.00000000000E+00 0. -1.
         -4    1    5    5    0  502 -0.78817307687E+01 -0.48258129769E+02 -0.18429270100E+03  0.19066926446E+03  0.00000000000E+00 0.  1.
         -1    1    6    6    0  503  0.31162871045E+02  0.10692938462E+03  0.46789372301E+02  0.12080671830E+03  0.00000000000E+00 0.  1.
<mgrwt>
<rscale>  0 0.10553774E+04</rscale>
<asrwt>0</asrwt>
<pdfrwt beam="1">  1        2 0.40543922E-01 0.10553774E+04</pdfrwt>
<pdfrwt beam="2">  1       -2 0.16255603E+00 0.10553774E+04</pdfrwt>
<totfact> 0.30433916E+01</totfact>
</mgrwt>
</event>
<event>
12    1  0.4967442E-008  0.2149278E+04  0.7818608E-02  0.8539842E-01
         -2   -1    0    0    0  501 -0.00000000000E+00  0.00000000000E+00  0.57154104418E+03  0.57154104418E+03  0.00000000000E+00 0.  1.
          2   -1    0    0  501    0  0.00000000000E+00 -0.00000000000E+00 -0.20205871311E+04  0.20205871311E+04  0.00000000000E+00 0. -1.
         23    2    1    2    0    0  0.56434874323E+03  0.27426814591E+03 -0.13464833686E+04  0.14882897642E+04  0.90974944178E+02 0.  0.
        254    2    1    2    0    0 -0.56434874323E+03 -0.27426814591E+03 -0.10256271825E+03  0.11038384110E+04  0.90234561373E+03 0.  0.
         23    2    4    4    0    0  0.18165734632E+03 -0.26207258828E+03  0.52599266383E+02  0.33620612297E+03  0.92663052490E+02 0.  0.
         23    2    4    4    0    0 -0.74600608955E+03 -0.12195557629E+02 -0.15516198463E+03  0.76763228804E+03  0.92251129522E+02 0.  0.
         11    1    3    3    0    0  0.55691727462E+03  0.27239656279E+03 -0.12894894313E+04  0.14307829086E+04  0.00000000000E+00 0. -1.
        -11    1    3    3    0    0  0.74314686126E+01  0.18715831280E+01 -0.56993937319E+02  0.57506855594E+02  0.00000000000E+00 0.  1.
          1    1    6    6  502    0 -0.13182599775E+03  0.32846770768E+02 -0.23209998201E+02  0.13782491810E+03  0.00000000000E+00 0. -1.
          1    1    5    5  503    0  0.37231477359E-01 -0.44531213563E+02 -0.10774433142E+02  0.45816141011E+02  0.00000000000E+00 0. -1.
         -1    1    5    5    0  503  0.18162011484E+03 -0.21754137472E+03  0.63373699525E+02  0.29038998196E+03  0.00000000000E+00 0.  1.
         -1    1    6    6    0  502 -0.61418009180E+03 -0.45042328397E+02 -0.13195198643E+03  0.62980736994E+03  0.00000000000E+00 0.  1.
<mgrwt>
<rscale>  0 0.21492775E+04</rscale>
<asrwt>0</asrwt>
<pdfrwt beam="1">  1        2 0.31085956E+00 0.21492775E+04</pdfrwt>
<pdfrwt beam="2">  1       -2 0.87929392E-01 0.21492775E+04</pdfrwt>
<totfact> 0.66588970E+00</totfact>
</mgrwt>
</event>
<event>
12    1  0.4967442E-008  0.2046701E+04  0.7818608E-02  0.8585092E-01
          2   -1    0    0  501    0  0.00000000000E+00  0.00000000000E+00  0.20539621127E+04  0.20539621127E+04  0.00000000000E+00 0.  1.
         -2   -1    0    0    0  501 -0.00000000000E+00 -0.00000000000E+00 -0.50986644880E+03  0.50986644880E+03  0.00000000000E+00 0. -1.
         23    2    1    2    0    0 -0.78508169813E+03 -0.11368903784E+03  0.89303273464E+03  0.11979541860E+04  0.91149857044E+02 0.  0.
        254    2    1    2    0    0  0.78508169813E+03  0.11368903784E+03  0.65106292927E+03  0.13658743756E+04  0.90136086106E+03 0.  0.
         23    2    4    4    0    0  0.66739485720E+03 -0.62264059068E+02  0.14895996956E+01  0.67659224745E+03  0.92098544675E+02 0.  0.
         23    2    4    4    0    0  0.11768684093E+03  0.17595309691E+03  0.64957332958E+03  0.68928212810E+03  0.91403811656E+02 0.  0.
         11    1    3    3    0    0 -0.16132890535E+03 -0.43091989884E+02  0.14259790902E+03  0.21958619936E+03  0.00000000000E+00 0.  1.
        -11    1    3    3    0    0 -0.62375279278E+03 -0.70597047957E+02  0.75043482562E+03  0.97836798659E+03  0.00000000000E+00 0. -1.
          2    1    5    5  502    0  0.60086468889E+02  0.20647534423E+02  0.37581836952E+01  0.63646118232E+02  0.00000000000E+00 0. -1.
          2    1    6    6  503    0 -0.85483556411E+01  0.40752685308E+02  0.76523766815E+02  0.87119128964E+02  0.00000000000E+00 0. -1.
         -2    1    5    5    0  502  0.60730838831E+03 -0.82911593491E+02 -0.22685839996E+01  0.61294612922E+03  0.00000000000E+00 0.  1.
         -2    1    6    6    0  503  0.12623519657E+03  0.13520041160E+03  0.57304956276E+03  0.60216299914E+03  0.00000000000E+00 0.  1.
<mgrwt>
<rscale>  0 0.20467011E+04</rscale>
<asrwt>0</asrwt>
<pdfrwt beam="1">  1        2 0.31599417E+00 0.20467011E+04</pdfrwt>
<pdfrwt beam="2">  1       -2 0.78440993E-01 0.20467011E+04</pdfrwt>
<totfact> 0.83358807E+00</totfact>
</mgrwt>
</event>
<event>
12    1  0.4967442E-008  0.1391386E+04  0.7818608E-02  0.8960077E-01
          2   -1    0    0  501    0  0.00000000000E+00  0.00000000000E+00  0.25275457754E+04  0.25275457754E+04  0.00000000000E+00 0. -1.
         -2   -1    0    0    0  501 -0.00000000000E+00 -0.00000000000E+00 -0.19148565161E+03  0.19148565161E+03  0.00000000000E+00 0.  1.
         23    2    1    2    0    0 -0.30392557935E+03 -0.36572872840E+02  0.11828067664E+04  0.12253810844E+04  0.93907521792E+02 0.  0.
        254    2    1    2    0    0  0.30392557935E+03  0.36572872840E+02  0.11532533574E+04  0.14936503426E+04  0.89849301987E+03 0.  0.
         23    2    4    4    0    0  0.54641415983E+03  0.17804466622E+03  0.10099652276E+04  0.11654735177E+04  0.89612623711E+02 0.  0.
         23    2    4    4    0    0 -0.24248858049E+03 -0.14147179338E+03  0.14328812983E+03  0.32817682489E+03  0.91397813173E+02 0.  0.
         11    1    3    3    0    0 -0.21460207672E+03 -0.59105507985E+02  0.72514547844E+03  0.75854035971E+03  0.00000000000E+00 0. -1.
        -11    1    3    3    0    0 -0.89323502626E+02  0.22532635145E+02  0.45766128795E+03  0.46684072472E+03  0.00000000000E+00 0.  1.
          1    1    5    5  502    0  0.13635636134E+03  0.45030545301E+02  0.18031820409E+03  0.23051130561E+03  0.00000000000E+00 0.  1.
          3    1    6    6  503    0 -0.14009723706E+02 -0.45136424447E+02  0.24503242804E+02  0.53235120720E+02  0.00000000000E+00 0. -1.
         -1    1    5    5    0  502  0.41005779849E+03  0.13301412092E+03  0.82964702347E+03  0.93496221208E+03  0.00000000000E+00 0. -1.
         -3    1    6    6    0  503 -0.22847885678E+03 -0.96335368933E+02  0.11878488703E+03  0.27494170417E+03  0.00000000000E+00 0.  1.
<mgrwt>
<rscale>  0 0.13913860E+04</rscale>
<asrwt>0</asrwt>
<pdfrwt beam="1">  1        2 0.38885317E+00 0.13913860E+04</pdfrwt>
<pdfrwt beam="2">  1       -2 0.29459333E-01 0.13913860E+04</pdfrwt>
<totfact> 0.34803011E+01</totfact>
</mgrwt>
</event>
<event>
12    1  0.4967442E-008  0.1154572E+04  0.7818608E-02  0.9153576E-01
          1   -1    0    0  501    0  0.00000000000E+00  0.00000000000E+00  0.86644327996E+03  0.86644327996E+03  0.00000000000E+00 0. -1.
         -1   -1    0    0    0  501 -0.00000000000E+00 -0.00000000000E+00 -0.38462876930E+03  0.38462876930E+03  0.00000000000E+00 0.  1.
         23    2    1    2    0    0  0.91995748153E+02  0.18138385562E+03  0.11565027327E+03  0.25097563524E+03  0.90832059436E+02 0.  0.
        254    2    1    2    0    0 -0.91995748153E+02 -0.18138385562E+03  0.36616423738E+03  0.10000964140E+04  0.90815927448E+03 0.  0.
         23    2    4    4    0    0  0.20261937317E+03 -0.25431772014E+03  0.54228461832E+03  0.63795108250E+03  0.84716369364E+02 0.  0.
         23    2    4    4    0    0 -0.29461512132E+03  0.72933864522E+02 -0.17612038094E+03  0.36214533151E+03  0.89517787330E+02 0.  0.
         13    1    3    3    0    0  0.35293630610E+02  0.10387064723E+03  0.13109538110E+02  0.11048353591E+03  0.00000000000E+00 0.  1.
        -13    1    3    3    0    0  0.56702117544E+02  0.77513208392E+02  0.10254073516E+03  0.14049209934E+03  0.00000000000E+00 0. -1.
          3    1    6    6  502    0 -0.19737385005E+03  0.87198270281E+02 -0.14107293644E+03  0.25780137397E+03  0.00000000000E+00 0. -1.
          3    1    5    5  503    0  0.16287569604E+03 -0.24635335335E+03  0.48301675604E+03  0.56614808459E+03  0.00000000000E+00 0. -1.
         -3    1    5    5    0  503  0.39743677128E+02 -0.79643667878E+01  0.59267862278E+02  0.71802997910E+02  0.00000000000E+00 0.  1.
         -3    1    6    6    0  502 -0.97241271269E+02 -0.14264405759E+02 -0.35047444495E+02  0.10434395754E+03  0.00000000000E+00 0.  1.
<mgrwt>
<rscale>  0 0.11545718E+04</rscale>
<asrwt>0</asrwt>
<pdfrwt beam="1">  1        1 0.13329897E+00 0.11545718E+04</pdfrwt>
<pdfrwt beam="2">  1       -1 0.59173657E-01 0.11545718E+04</pdfrwt>
<totfact> 0.55762298E+01</totfact>
</mgrwt>
</event>
<event>
12    1  0.4967442E-008  0.1432817E+04  0.7818608E-02  0.8930401E-01
         -2   -1    0    0    0  501 -0.00000000000E+00  0.00000000000E+00  0.14590099698E+03  0.14590099698E+03  0.00000000000E+00 0. -1.
          2   -1    0    0  501    0  0.00000000000E+00 -0.00000000000E+00 -0.35177355008E+04  0.35177355008E+04  0.00000000000E+00 0.  1.
         23    2    1    2    0    0 -0.33447788645E+03 -0.26590818601E+03 -0.10078593245E+04  0.10984770900E+04  0.91043283732E+02 0.  0.
        254    2    1    2    0    0  0.33447788645E+03  0.26590818601E+03 -0.23639751794E+04  0.25651594077E+04  0.89948958783E+03 0.  0.
         23    2    4    4    0    0  0.58532133984E+01 -0.79402528299E+01 -0.19823477163E+04  0.19844415638E+04  0.90601016430E+02 0.  0.
         23    2    4    4    0    0  0.32862467306E+03  0.27384843884E+03 -0.38162746305E+03  0.58071784391E+03  0.92771496110E+02 0.  0.
         11    1    3    3    0    0 -0.24301475312E+03 -0.24027175644E+03 -0.80069677958E+03  0.87057568310E+03  0.00000000000E+00 0. -1.
        -11    1    3    3    0    0 -0.91463133338E+02 -0.25636429570E+02 -0.20716254490E+03  0.22790140695E+03  0.00000000000E+00 0.  1.
          2    1    5    5  502    0  0.74407849422E+01 -0.45066527160E+02 -0.14872514297E+04  0.14879526781E+04  0.00000000000E+00 0. -1.
          3    1    6    6  503    0  0.31880678480E+03  0.26557232141E+03 -0.33779677111E+03  0.53504493504E+03  0.00000000000E+00 0. -1.
         -2    1    5    5    0  502 -0.15875715438E+01  0.37126274330E+02 -0.49509628657E+03  0.49648888568E+03  0.00000000000E+00 0.  1.
         -3    1    6    6    0  503  0.98178882551E+01  0.82761174267E+01 -0.43830691939E+02  0.45672908877E+02  0.00000000000E+00 0.  1.
<mgrwt>
<rscale>  0 0.14328170E+04</rscale>
<asrwt>0</asrwt>
<pdfrwt beam="1">  1        2 0.54119002E+00 0.14328170E+04</pdfrwt>
<pdfrwt beam="2">  1       -2 0.22446309E-01 0.14328170E+04</pdfrwt>
<totfact> 0.13584585E+01</totfact>
</mgrwt>
</event>
<event>
12    1  0.5033847E-008  0.1948550E+04  0.7818608E-02  0.8631060E-01
         -2   -1    0    0    0  501 -0.00000000000E+00  0.00000000000E+00  0.52768419492E+03  0.52768419492E+03  0.00000000000E+00 0.  1.
          2   -1    0    0  501    0  0.00000000000E+00 -0.00000000000E+00 -0.17988261020E+04  0.17988261020E+04  0.00000000000E+00 0. -1.
         23    2    1    2    0    0  0.12333102150E+03  0.21810640891E+03  0.35897250225E+03  0.44717974340E+03  0.91255241278E+02 0.  0.
        254    2    1    2    0    0 -0.12333102150E+03 -0.21810640891E+03 -0.16301144094E+04  0.18793305536E+04  0.90101575759E+03 0.  0.
         23    2    4    4    0    0 -0.24712773148E+03  0.26690157763E+03 -0.10056222267E+04  0.10733664778E+04  0.92363224082E+02 0.  0.
         23    2    4    4    0    0  0.12379670998E+03 -0.48500798654E+03 -0.62449218271E+03  0.80596407573E+03  0.95022274658E+02 0.  0.
         13    1    3    3    0    0  0.63958187761E+02  0.46441363689E+02  0.68519924957E+02  0.10460607133E+03  0.00000000000E+00 0. -1.
        -13    1    3    3    0    0  0.59372833738E+02  0.17166504522E+03  0.29045257729E+03  0.34257367207E+03  0.00000000000E+00 0.  1.
          1    1    5    5  502    0 -0.27211679353E+02  0.77883641549E+02 -0.17236016438E+03  0.19108731873E+03  0.00000000000E+00 0. -1.
          3    1    6    6  503    0  0.29867454310E+01 -0.77010768195E+02 -0.14990187603E+03  0.16855311182E+03  0.00000000000E+00 0. -1.
         -1    1    5    5    0  502 -0.21991605213E+03  0.18901793608E+03 -0.83326206229E+03  0.88227915910E+03  0.00000000000E+00 0.  1.
         -3    1    6    6    0  503  0.12080996455E+03 -0.40799721835E+03 -0.47459030668E+03  0.63741096391E+03  0.00000000000E+00 0.  1.
<mgrwt>
<rscale>  0 0.19485503E+04</rscale>
<asrwt>0</asrwt>
<pdfrwt beam="1">  1        2 0.27674248E+00 0.19485503E+04</pdfrwt>
<pdfrwt beam="2">  1       -2 0.81182184E-01 0.19485503E+04</pdfrwt>
<totfact> 0.10780850E+01</totfact>
</mgrwt>
</event>
<event>
12    1  0.4967442E-008  0.2697059E+04  0.7818608E-02  0.8335960E-01
          1   -1    0    0  501    0  0.00000000000E+00  0.00000000000E+00  0.36034562954E+04  0.36034562954E+04  0.00000000000E+00 0. -1.
         -1   -1    0    0    0  501 -0.00000000000E+00 -0.00000000000E+00 -0.50466334848E+03  0.50466334848E+03  0.00000000000E+00 0.  1.
         23    2    1    2    0    0 -0.31344130311E+03  0.10972766875E+04  0.19387275799E+04  0.22515409467E+04  0.92251971052E+02 0.  0.
        254    2    1    2    0    0  0.31344130311E+03 -0.10972766875E+04  0.11600653671E+04  0.18565786972E+04  0.89379596310E+03 0.  0.
         23    2    4    4    0    0 -0.16575349861E+03 -0.53716847945E+03  0.12558459356E+03  0.58290777025E+03  0.89363196349E+02 0.  0.
         23    2    4    4    0    0  0.47919480172E+03 -0.56010820808E+03  0.10344807735E+04  0.12736709270E+04  0.93478856994E+02 0.  0.
         13    1    3    3    0    0 -0.88605959023E+02  0.28092732826E+03  0.58117661696E+03  0.65156537649E+03  0.00000000000E+00 0.  1.
        -13    1    3    3    0    0 -0.22483534409E+03  0.81634935926E+03  0.13575509629E+04  0.15999755702E+04  0.00000000000E+00 0. -1.
          4    1    5    5  502    0 -0.49746215389E+02 -0.22780057837E+03  0.11823691626E+02  0.23346860418E+03  0.00000000000E+00 0. -1.
          3    1    6    6  503    0  0.50871987482E+02 -0.52248899397E+02  0.15650717892E+03  0.17266268749E+03  0.00000000000E+00 0. -1.
         -4    1    5    5    0  502 -0.11600728323E+03 -0.30936790108E+03  0.11376090193E+03  0.34943916607E+03  0.00000000000E+00 0.  1.
         -3    1    6    6    0  503  0.42832281424E+03 -0.50785930868E+03  0.87797359461E+03  0.11010082395E+04  0.00000000000E+00 0.  1.
<mgrwt>
<rscale>  0 0.26970594E+04</rscale>
<asrwt>0</asrwt>
<pdfrwt beam="1">  1        1 0.55437788E+00 0.26970594E+04</pdfrwt>
<pdfrwt beam="2">  1       -1 0.77640517E-01 0.26970594E+04</pdfrwt>
<totfact> 0.30012897E-01</totfact>
</mgrwt>
</event>
<event>
12    1  0.4967442E-008  0.3105272E+04  0.7818608E-02  0.8214292E-01
          2   -1    0    0  501    0  0.00000000000E+00  0.00000000000E+00  0.12545753011E+04  0.12545753011E+04  0.00000000000E+00 0. -1.
         -2   -1    0    0    0  501 -0.00000000000E+00 -0.00000000000E+00 -0.19215101871E+04  0.19215101871E+04  0.00000000000E+00 0.  1.
         23    2    1    2    0    0  0.95856482719E+03 -0.69055977325E+03 -0.11075222869E+04  0.16219179254E+04  0.91064880851E+02 0.  0.
        254    2    1    2    0    0 -0.95856482719E+03  0.69055977325E+03  0.44058740085E+03  0.15541675628E+04  0.90862546028E+03 0.  0.
         23    2    4    4    0    0 -0.52090869695E+03 -0.13863763647E+03  0.12867516620E+03  0.56223806333E+03  0.94805467400E+02 0.  0.
         23    2    4    4    0    0 -0.43765613023E+03  0.82919740972E+03  0.31191223464E+03  0.99192949946E+03  0.86739017470E+02 0.  0.
         13    1    3    3    0    0  0.58731773541E+02 -0.61114158994E+02 -0.56476563955E+02  0.10185265794E+03  0.00000000000E+00 0. -1.
        -13    1    3    3    0    0  0.89983305364E+03 -0.62944561426E+03 -0.10510457229E+04  0.15200652675E+04  0.00000000000E+00 0.  1.
          1    1    5    5  502    0 -0.44592245958E+03 -0.91883124170E+02  0.83108592173E+02  0.46281355486E+03  0.00000000000E+00 0. -1.
          3    1    6    6  503    0 -0.35997456569E+03  0.69111189469E+03  0.22429123655E+03  0.81087847284E+03  0.00000000000E+00 0. -1.
         -1    1    5    5    0  502 -0.74986237369E+02 -0.46754512299E+02  0.45566574031E+02  0.99424508468E+02  0.00000000000E+00 0.  1.
         -3    1    6    6    0  503 -0.77681564543E+02  0.13808551503E+03  0.87620998089E+02  0.18105102661E+03  0.00000000000E+00 0.  1.
<mgrwt>
<rscale>  0 0.31052724E+04</rscale>
<asrwt>0</asrwt>
<pdfrwt beam="1">  1        2 0.19301158E+00 0.31052724E+04</pdfrwt>
<pdfrwt beam="2">  1       -2 0.29561695E+00 0.31052724E+04</pdfrwt>
<totfact> 0.50429815E-01</totfact>
</mgrwt>
</event>
<event>
12    1  0.4967442E-008  0.1554302E+04  0.7818608E-02  0.8849124E-01
         -2   -1    0    0    0  501 -0.00000000000E+00  0.00000000000E+00  0.46237405860E+03  0.46237405860E+03  0.00000000000E+00 0.  1.
          2   -1    0    0  501    0  0.00000000000E+00 -0.00000000000E+00 -0.13062234694E+04  0.13062234694E+04  0.00000000000E+00 0. -1.
         23    2    1    2    0    0 -0.33262916353E+03  0.79918466108E+02 -0.71276111522E+03  0.79596369315E+03  0.92199087830E+02 0.  0.
        254    2    1    2    0    0  0.33262916353E+03 -0.79918466108E+02 -0.13108829556E+03  0.97263383481E+03  0.90100128398E+03 0.  0.
         23    2    4    4    0    0  0.31227210166E+03 -0.38908944946E+03 -0.31758701104E+03  0.59880004043E+03  0.93784399950E+02 0.  0.
         23    2    4    4    0    0  0.20357061870E+02  0.30917098336E+03  0.18649871549E+03  0.37383379438E+03  0.94703896585E+02 0.  0.
         11    1    3    3    0    0 -0.27860407736E+03  0.95772181860E+02 -0.55312540944E+03  0.62668992437E+03  0.00000000000E+00 0. -1.
        -11    1    3    3    0    0 -0.54025086172E+02 -0.15853715752E+02 -0.15963570578E+03  0.16927376878E+03  0.00000000000E+00 0.  1.
          2    1    5    5  502    0  0.26089322827E+03 -0.36652918660E+03 -0.29670154885E+03  0.53892553315E+03  0.00000000000E+00 0. -1.
          4    1    6    6  503    0  0.14621666083E+02  0.30995829466E+03  0.19276469747E+03  0.36530284168E+03  0.00000000000E+00 0. -1.
         -2    1    5    5    0  502  0.51378873388E+02 -0.22560262867E+02 -0.20885462188E+02  0.59874507281E+02  0.00000000000E+00 0.  1.
         -4    1    6    6    0  503  0.57353957868E+01 -0.78731130559E+00 -0.62659819793E+01  0.85309527069E+01  0.00000000000E+00 0.  1.
<mgrwt>
<rscale>  0 0.15543022E+04</rscale>
<asrwt>0</asrwt>
<pdfrwt beam="1">  1        2 0.20095746E+00 0.15543022E+04</pdfrwt>
<pdfrwt beam="2">  1       -2 0.71134471E-01 0.15543022E+04</pdfrwt>
<totfact> 0.28310715E+01</totfact>
</mgrwt>
</event>
<event>
12    1  0.4967442E-008  0.1582804E+04  0.7818608E-02  0.8831182E-01
          2   -1    0    0  501    0  0.00000000000E+00  0.00000000000E+00  0.21105015894E+04  0.21105015894E+04  0.00000000000E+00 0. -1.
         -2   -1    0    0    0  501 -0.00000000000E+00 -0.00000000000E+00 -0.29676220824E+03  0.29676220824E+03  0.00000000000E+00 0.  1.
         23    2    1    2    0    0 -0.37071074788E+03 -0.38180765727E+03  0.59073555558E+03  0.80022776114E+03  0.90512028657E+02 0.  0.
        254    2    1    2    0    0  0.37071074788E+03  0.38180765727E+03  0.12230038256E+04  0.16070360365E+04  0.89645017677E+03 0.  0.
         23    2    4    4    0    0  0.29762961327E+03  0.48787558523E+03  0.13054631256E+04  0.14287072012E+04  0.10180531018E+03 0.  0.
         23    2    4    4    0    0  0.73081134616E+02 -0.10606792795E+03 -0.82459300030E+02  0.17832883525E+03  0.91708122562E+02 0.  0.
         13    1    3    3    0    0 -0.12030296013E+02 -0.43933104433E+02  0.68056129114E+02  0.81893115689E+02  0.00000000000E+00 0.  1.
        -13    1    3    3    0    0 -0.35868045187E+03 -0.33787455284E+03  0.52267942646E+03  0.71833464545E+03  0.00000000000E+00 0. -1.
          2    1    5    5  502    0  0.17668354056E+03  0.35027472024E+03  0.79875617951E+03  0.88989936929E+03  0.00000000000E+00 0. -1.
          3    1    6    6  503    0  0.58866028620E+02 -0.10982218837E+03 -0.36150287001E+02  0.12974191934E+03  0.00000000000E+00 0. -1.
         -2    1    5    5    0  502  0.12094607270E+03  0.13760086498E+03  0.50670694609E+03  0.53880783194E+03  0.00000000000E+00 0.  1.
         -3    1    6    6    0  503  0.14215105996E+02  0.37542604201E+01 -0.46309013030E+02  0.48586915909E+02  0.00000000000E+00 0.  1.
<mgrwt>
<rscale>  0 0.15828040E+04</rscale>
<asrwt>0</asrwt>
<pdfrwt beam="1">  1        2 0.32469254E+00 0.15828040E+04</pdfrwt>
<pdfrwt beam="2">  1       -2 0.45655726E-01 0.15828040E+04</pdfrwt>
<totfact> 0.25335130E+01</totfact>
</mgrwt>
</event>
<event>
12    1  0.4967442E-008  0.1994425E+04  0.7818608E-02  0.8609231E-01
          1   -1    0    0  501    0  0.00000000000E+00  0.00000000000E+00  0.13285626253E+04  0.13285626253E+04  0.00000000000E+00 0. -1.
         -1   -1    0    0    0  501 -0.00000000000E+00 -0.00000000000E+00 -0.74850309327E+03  0.74850309327E+03  0.00000000000E+00 0.  1.
         23    2    1    2    0    0  0.52525938384E+03  0.59593897030E+03  0.25461090748E+03  0.83943638246E+03  0.93733928498E+02 0.  0.
        254    2    1    2    0    0 -0.52525938384E+03 -0.59593897030E+03  0.32544862455E+03  0.12376293361E+04  0.89149811541E+03 0.  0.
         23    2    4    4    0    0 -0.65763277267E+03 -0.61209812015E+03  0.37179266269E+02  0.90385184347E+03  0.91765378702E+02 0.  0.
         23    2    4    4    0    0  0.13237338883E+03  0.16159149853E+02  0.28826935828E+03  0.33377749265E+03  0.10258830088E+03 0.  0.
         11    1    3    3    0    0  0.27798152859E+03  0.36583950362E+03  0.18032903309E+03  0.49358974141E+03  0.00000000000E+00 0.  1.
        -11    1    3    3    0    0  0.24727785525E+03  0.23009946667E+03  0.74281874393E+02  0.34584664105E+03  0.00000000000E+00 0. -1.
          3    1    5    5  502    0 -0.55960418594E+03 -0.52675145451E+03 -0.51472366230E+00  0.76852079002E+03  0.00000000000E+00 0. -1.
          3    1    6    6  503    0  0.14445210806E+03  0.55044950669E+01  0.21720897633E+03  0.26091464195E+03  0.00000000000E+00 0. -1.
         -3    1    5    5    0  502 -0.98028586732E+02 -0.85346665638E+02  0.37693989932E+02  0.13533105345E+03  0.00000000000E+00 0.  1.
         -3    1    6    6    0  503 -0.12078719232E+02  0.10654654786E+02  0.71060381959E+02  0.72862850693E+02  0.00000000000E+00 0.  1.
<mgrwt>
<rscale>  0 0.19944255E+04</rscale>
<asrwt>0</asrwt>
<pdfrwt beam="1">  1        1 0.20439425E+00 0.19944255E+04</pdfrwt>
<pdfrwt beam="2">  1       -1 0.11515432E+00 0.19944255E+04</pdfrwt>
<totfact> 0.54808202E+00</totfact>
</mgrwt>
</event>
<event>
12    1  0.4967442E-008  0.1763431E+04  0.7818608E-02  0.8725992E-01
          2   -1    0    0  501    0  0.00000000000E+00  0.00000000000E+00  0.51528888952E+03  0.51528888952E+03  0.00000000000E+00 0. -1.
         -2   -1    0    0    0  501 -0.00000000000E+00 -0.00000000000E+00 -0.15087105641E+04  0.15087105641E+04  0.00000000000E+00 0.  1.
         23    2    1    2    0    0  0.11200179897E+03  0.16510388886E+03 -0.10683773950E+04  0.10906348238E+04  0.90831512559E+02 0.  0.
        254    2    1    2    0    0 -0.11200179897E+03 -0.16510388886E+03  0.74955720395E+02  0.93336462983E+03  0.90870648457E+03 0.  0.
         23    2    4    4    0    0 -0.20055297777E+03 -0.33153262114E+03  0.38761391435E+03  0.55707210595E+03  0.99746723551E+02 0.  0.
         23    2    4    4    0    0  0.88551178797E+02  0.16642873228E+03 -0.31265819395E+03  0.37629252388E+03  0.91110279814E+02 0.  0.
         11    1    3    3    0    0  0.15566241372E+02 -0.10529154582E+02 -0.85114693208E+02  0.87164683023E+02  0.00000000000E+00 0. -1.
        -11    1    3    3    0    0  0.96435557601E+02  0.17563304344E+03 -0.98326270182E+03  0.10034701408E+04  0.00000000000E+00 0.  1.
          1    1    5    5  502    0 -0.16687861124E+02  0.36809831510E+01  0.23865831377E+02  0.29353232414E+02  0.00000000000E+00 0. -1.
          3    1    6    6  503    0  0.22878778650E+02 -0.41392695891E+01 -0.60873947255E+02  0.65162945910E+02  0.00000000000E+00 0. -1.
         -1    1    5    5    0  502 -0.18386511665E+03 -0.33521360429E+03  0.36374808297E+03  0.52771887353E+03  0.00000000000E+00 0.  1.
         -3    1    6    6    0  503  0.65672400147E+02  0.17056800187E+03 -0.25178424670E+03  0.31112957797E+03  0.00000000000E+00 0.  1.
<mgrwt>
<rscale>  0 0.17634305E+04</rscale>
<asrwt>0</asrwt>
<pdfrwt beam="1">  1        2 0.79275214E-01 0.17634305E+04</pdfrwt>
<pdfrwt beam="2">  1       -2 0.23210932E+00 0.17634305E+04</pdfrwt>
<totfact> 0.46663509E+00</totfact>
</mgrwt>
</event>
<event>
12    1  0.4967442E-008  0.1509159E+04  0.7818608E-02  0.8878385E-01
         -2   -1    0    0    0  501 -0.00000000000E+00  0.00000000000E+00  0.24551115817E+03  0.24551115817E+03  0.00000000000E+00 0. -1.
          2   -1    0    0  501    0  0.00000000000E+00 -0.00000000000E+00 -0.23192039813E+04  0.23192039813E+04  0.00000000000E+00 0.  1.
         23    2    1    2    0    0  0.11174117498E+03  0.11943864939E+03  0.95160982875E+02  0.21571871714E+03  0.10357254032E+03 0.  0.
        254    2    1    2    0    0 -0.11174117498E+03 -0.11943864939E+03 -0.21688538060E+04  0.23489964224E+04  0.88718976504E+03 0.  0.
         23    2    4    4    0    0  0.35317431808E+03 -0.21046751202E+03 -0.10846489478E+04  0.11628087355E+04  0.81437969042E+02 0.  0.
         23    2    4    4    0    0 -0.46491549306E+03  0.91028862630E+02 -0.10842048583E+04  0.11861876869E+04  0.84311235094E+02 0.  0.
         11    1    3    3    0    0  0.10663757668E+03  0.10208095152E+03  0.11627395797E+03  0.18791414722E+03  0.00000000000E+00 0. -1.
        -11    1    3    3    0    0  0.51035982954E+01  0.17357697869E+02 -0.21112975094E+02  0.27804569916E+02  0.00000000000E+00 0.  1.
          3    1    6    6  502    0 -0.28625823141E+03  0.78799188381E+02 -0.75777105719E+03  0.81386120577E+03  0.00000000000E+00 0. -1.
          3    1    5    5  503    0  0.32520678097E+03 -0.21231415892E+03 -0.97185195103E+03  0.10465815626E+04  0.00000000000E+00 0. -1.
         -3    1    5    5    0  503  0.27967537115E+02  0.18466468976E+01 -0.11279699673E+03  0.11622717285E+03  0.00000000000E+00 0.  1.
         -3    1    6    6    0  502 -0.17865726165E+03  0.12229674249E+02 -0.32643380108E+03  0.37232648114E+03  0.00000000000E+00 0.  1.
<mgrwt>
<rscale>  0 0.15091593E+04</rscale>
<asrwt>0</asrwt>
<pdfrwt beam="1">  1        2 0.35680061E+00 0.15091593E+04</pdfrwt>
<pdfrwt beam="2">  1       -2 0.37770948E-01 0.15091593E+04</pdfrwt>
<totfact> 0.28279709E+01</totfact>
</mgrwt>
</event>
<event>
12    1  0.4967442E-008  0.1386924E+04  0.7818608E-02  0.8963338E-01
          1   -1    0    0  501    0  0.00000000000E+00  0.00000000000E+00  0.60553273271E+03  0.60553273271E+03  0.00000000000E+00 0. -1.
         -1   -1    0    0    0  501 -0.00000000000E+00 -0.00000000000E+00 -0.79415993591E+03  0.79415993591E+03  0.00000000000E+00 0.  1.
         23    2    1    2    0    0  0.12253840252E+02 -0.37729871526E+03 -0.15060420379E+03  0.41692375997E+03  0.92947933202E+02 0.  0.
        254    2    1    2    0    0 -0.12253840252E+02  0.37729871526E+03 -0.38022999407E+02  0.98276890866E+03  0.90657845894E+03 0.  0.
         23    2    4    4    0    0 -0.27907337682E+03  0.47295327044E+03  0.20980055691E+03  0.59543644171E+03  0.94665393720E+02 0.  0.
         23    2    4    4    0    0  0.26681953656E+03 -0.95654555181E+02 -0.24782355632E+03  0.38733246695E+03  0.90925606242E+02 0.  0.
         11    1    3    3    0    0  0.45359631373E+02 -0.20339954836E+03 -0.54092646237E+02  0.21530185045E+03  0.00000000000E+00 0. -1.
        -11    1    3    3    0    0 -0.33105791121E+02 -0.17389916691E+03 -0.96511557556E+02  0.20162190952E+03  0.00000000000E+00 0.  1.
          1    1    5    5  502    0 -0.14179244722E+03  0.17886758781E+03  0.49934059754E+02  0.23364957175E+03  0.00000000000E+00 0. -1.
          3    1    6    6  503    0  0.25540941948E+03 -0.96162909993E+02 -0.20049069185E+03  0.33864109960E+03  0.00000000000E+00 0. -1.
         -1    1    5    5    0  502 -0.13728092960E+03  0.29408568263E+03  0.15986649716E+03  0.36178686996E+03  0.00000000000E+00 0.  1.
         -3    1    6    6    0  503  0.11410117086E+02  0.50835481145E+00 -0.47332864465E+02  0.48691367355E+02  0.00000000000E+00 0.  1.
<mgrwt>
<rscale>  0 0.13869244E+04</rscale>
<asrwt>0</asrwt>
<pdfrwt beam="1">  1        1 0.93158882E-01 0.13869244E+04</pdfrwt>
<pdfrwt beam="2">  1       -1 0.12217845E+00 0.13869244E+04</pdfrwt>
<totfact> 0.19542884E+01</totfact>
</mgrwt>
</event>
<event>
12    1  0.4967442E-008  0.1751699E+04  0.7818608E-02  0.8732416E-01
         -2   -1    0    0    0  501 -0.00000000000E+00  0.00000000000E+00  0.30191502650E+03  0.30191502650E+03  0.00000000000E+00 0.  1.
          2   -1    0    0  501    0  0.00000000000E+00 -0.00000000000E+00 -0.25408214819E+04  0.25408214819E+04  0.00000000000E+00 0. -1.
         23    2    1    2    0    0  0.60773182277E+03 -0.72000655494E+02 -0.11321021590E+04  0.12903291396E+04  0.93658568141E+02 0.  0.
        254    2    1    2    0    0 -0.60773182277E+03  0.72000655494E+02 -0.11068042964E+04  0.15524073687E+04  0.90023931553E+03 0.  0.
         23    2    4    4    0    0  0.30330379202E+02  0.24397871571E+02 -0.85260439410E+03  0.85833136287E+03  0.91012568329E+02 0.  0.
         23    2    4    4    0    0 -0.63806220198E+03  0.47602783922E+02 -0.25419990229E+03  0.69407600588E+03  0.87946079999E+02 0.  0.
         11    1    3    3    0    0  0.60917001285E+03 -0.66192675826E+02 -0.11160747132E+04  0.12732212456E+04  0.00000000000E+00 0. -1.
        -11    1    3    3    0    0 -0.14381900738E+01 -0.58079796677E+01 -0.16027445781E+02  0.17107893990E+02  0.00000000000E+00 0.  1.
          2    1    5    5  502    0 -0.15916558816E+02  0.33309036237E+02 -0.16334245609E+03  0.16746219484E+03  0.00000000000E+00 0. -1.
          2    1    6    6  503    0 -0.29964027433E+03  0.59777358037E+02 -0.95728358162E+02  0.32018985788E+03  0.00000000000E+00 0. -1.
         -2    1    5    5    0  502  0.46246938018E+02 -0.89111646661E+01 -0.68926193801E+03  0.69086916802E+03  0.00000000000E+00 0.  1.
         -2    1    6    6    0  503 -0.33842192765E+03 -0.12174574114E+02 -0.15847154413E+03  0.37388614800E+03  0.00000000000E+00 0.  1.
<mgrwt>
<rscale>  0 0.17516988E+04</rscale>
<asrwt>0</asrwt>
<pdfrwt beam="1">  1        2 0.39089561E+00 0.17516988E+04</pdfrwt>
<pdfrwt beam="2">  1       -2 0.46448466E-01 0.17516988E+04</pdfrwt>
<totfact> 0.13747642E+01</totfact>
</mgrwt>
</event>
<event>
12    1  0.4967442E-008  0.1274582E+04  0.7818608E-02  0.9049968E-01
         -3   -1    0    0    0  501 -0.00000000000E+00  0.00000000000E+00  0.24479309397E+03  0.24479309397E+03  0.00000000000E+00 0.  1.
          3   -1    0    0  501    0  0.00000000000E+00 -0.00000000000E+00 -0.16591159893E+04  0.16591159893E+04  0.00000000000E+00 0. -1.
         23    2    1    2    0    0  0.17570479501E+03  0.97667712019E+02 -0.13382446449E+02  0.22151414071E+03  0.92077509206E+02 0.  0.
        254    2    1    2    0    0 -0.17570479501E+03 -0.97667712019E+02 -0.14009404489E+04  0.16823949425E+04  0.90961939537E+03 0.  0.
         23    2    4    4    0    0 -0.33948150486E+02 -0.28294248719E+03 -0.14005326572E+04  0.14323097597E+04  0.93864775059E+02 0.  0.
         23    2    4    4    0    0 -0.14175664453E+03  0.18527477517E+03 -0.40779171276E+00  0.25008518284E+03  0.90115169632E+02 0.  0.
         11    1    3    3    0    0  0.18370679764E+03  0.10366871654E+03 -0.14568867181E+02  0.21144181748E+03  0.00000000000E+00 0.  1.
        -11    1    3    3    0    0 -0.80020026260E+01 -0.60010045168E+01  0.11864207317E+01  0.10072323237E+02  0.00000000000E+00 0. -1.
          1    1    5    5  502    0 -0.36927645203E+02 -0.25230112563E+03 -0.13436441183E+04  0.13676253236E+04  0.00000000000E+00 0. -1.
          3    1    6    6  503    0 -0.99863258152E+02  0.18199179449E+03 -0.60987491647E+01  0.20767974945E+03  0.00000000000E+00 0. -1.
         -1    1    5    5    0  502  0.29794947170E+01 -0.30641361555E+02 -0.56888538844E+02  0.64684436139E+02  0.00000000000E+00 0.  1.
         -3    1    6    6    0  503 -0.41893386375E+02  0.32829806844E+01  0.56909574519E+01  0.42405433388E+02  0.00000000000E+00 0.  1.
<mgrwt>
<rscale>  0 0.12745825E+04</rscale>
<asrwt>0</asrwt>
<pdfrwt beam="1">  1        3 0.25524861E+00 0.12745825E+04</pdfrwt>
<pdfrwt beam="2">  1       -3 0.37660477E-01 0.12745825E+04</pdfrwt>
<totfact> 0.12470450E+00</totfact>
</mgrwt>
</event>
<event>
12    1  0.4967442E-008  0.1964243E+04  0.7818608E-02  0.8623523E-01
          2   -1    0    0  501    0  0.00000000000E+00  0.00000000000E+00  0.45344490095E+04  0.45344490095E+04  0.00000000000E+00 0.  1.
         -2   -1    0    0    0  501 -0.00000000000E+00 -0.00000000000E+00 -0.21271875958E+03  0.21271875958E+03  0.00000000000E+00 0. -1.
         23    2    1    2    0    0 -0.13152738641E+01 -0.66427462869E+03  0.76638266309E+03  0.10193522549E+04  0.10234315327E+03 0.  0.
        254    2    1    2    0    0  0.13152738641E+01  0.66427462869E+03  0.35553475868E+04  0.37278155141E+04  0.90269016405E+03 0.  0.
         23    2    4    4    0    0  0.29909925865E+03  0.39805997689E+02  0.19768116487E+04  0.20018319097E+04  0.92205295072E+02 0.  0.
         23    2    4    4    0    0 -0.29778398479E+03  0.62446863100E+03  0.15785359381E+04  0.17259836044E+04  0.92775654686E+02 0.  0.
         13    1    3    3    0    0  0.16718500568E+01 -0.33109541247E+01 -0.31918242316E+01  0.48933875540E+01  0.00000000000E+00 0.  1.
        -13    1    3    3    0    0 -0.29871239210E+01 -0.66096367456E+03  0.76957448732E+03  0.10144588673E+04  0.00000000000E+00 0. -1.
          2    1    5    5  502    0  0.29881087113E+02  0.32952977207E+02  0.21468766997E+03  0.21924774505E+03  0.00000000000E+00 0.  1.
          3    1    6    6  503    0 -0.28228316220E+03  0.56473919136E+03  0.13694402357E+04  0.15079723794E+04  0.00000000000E+00 0. -1.
         -2    1    5    5    0  502  0.26921817154E+03  0.68530204824E+01  0.17621239787E+04  0.17825841647E+04  0.00000000000E+00 0. -1.
         -3    1    6    6    0  503 -0.15500822587E+02  0.59729439635E+02  0.20909570237E+03  0.21801122496E+03  0.00000000000E+00 0.  1.
<mgrwt>
<rscale>  0 0.19642427E+04</rscale>
<asrwt>0</asrwt>
<pdfrwt beam="1">  1        2 0.69760747E+00 0.19642427E+04</pdfrwt>
<pdfrwt beam="2">  1       -2 0.32725966E-01 0.19642427E+04</pdfrwt>
<totfact> 0.94016612E-01</totfact>
</mgrwt>
</event>
<event>
12    1  0.4967442E-008  0.1481901E+04  0.7818608E-02  0.8896578E-01
          1   -1    0    0  501    0  0.00000000000E+00  0.00000000000E+00  0.27617358230E+03  0.27617358230E+03  0.00000000000E+00 0. -1.
         -1   -1    0    0    0  501 -0.00000000000E+00 -0.00000000000E+00 -0.19879090176E+04  0.19879090176E+04  0.00000000000E+00 0.  1.
         23    2    1    2    0    0 -0.12132113056E+03 -0.34952325612E+03 -0.96615949422E+03  0.10366729624E+04  0.65888841500E+02 0.  0.
        254    2    1    2    0    0  0.12132113056E+03  0.34952325612E+03 -0.74557594111E+03  0.12274096375E+04  0.90208958037E+03 0.  0.
         23    2    4    4    0    0  0.47279290460E+03  0.16307851429E+02 -0.35330513374E+03  0.59723041706E+03  0.89780715508E+02 0.  0.
         23    2    4    4    0    0 -0.35147177404E+03  0.33321540469E+03 -0.39227080737E+03  0.63017922045E+03  0.93190931454E+02 0.  0.
         11    1    3    3    0    0 -0.47597634513E+02 -0.20891107502E+03 -0.61602059514E+03  0.65221985994E+03  0.00000000000E+00 0.  1.
        -11    1    3    3    0    0 -0.73723496043E+02 -0.14061218110E+03 -0.35013889908E+03  0.38445310246E+03  0.00000000000E+00 0. -1.
          2    1    5    5  502    0  0.28010563235E+03  0.53002634871E+02 -0.19904316437E+03  0.34768754056E+03  0.00000000000E+00 0.  1.
          4    1    6    6  503    0 -0.18866013144E+03  0.22528427292E+03 -0.19565473928E+03  0.35302468161E+03  0.00000000000E+00 0. -1.
         -2    1    5    5    0  502  0.19268727225E+03 -0.36694783442E+02 -0.15426196937E+03  0.24954287650E+03  0.00000000000E+00 0. -1.
         -4    1    6    6    0  503 -0.16281164260E+03  0.10793113176E+03 -0.19661606809E+03  0.27715453884E+03  0.00000000000E+00 0.  1.
<mgrwt>
<rscale>  0 0.14819014E+04</rscale>
<asrwt>0</asrwt>
<pdfrwt beam="1">  1        1 0.42488245E-01 0.14819014E+04</pdfrwt>
<pdfrwt beam="2">  1       -1 0.30583215E+00 0.14819014E+04</pdfrwt>
<totfact> 0.28727642E+00</totfact>
</mgrwt>
</event>
<event>
12    1  0.4967442E-008  0.1874096E+04  0.7818608E-02  0.8667859E-01
          1   -1    0    0  501    0  0.00000000000E+00  0.00000000000E+00  0.44235833586E+03  0.44235833586E+03  0.00000000000E+00 0. -1.
         -1   -1    0    0    0  501 -0.00000000000E+00 -0.00000000000E+00 -0.19849498099E+04  0.19849498099E+04  0.00000000000E+00 0.  1.
         23    2    1    2    0    0 -0.41628711425E+03  0.10682535502E+03  0.14327006812E+03  0.46217798937E+03  0.91518104623E+02 0.  0.
        254    2    1    2    0    0  0.41628711425E+03 -0.10682535502E+03 -0.16858615421E+04  0.19651301563E+04  0.91372904857E+03 0.  0.
         23    2    4    4    0    0  0.51620745207E+03  0.88711182902E+02 -0.42152480729E+03  0.67848907424E+03  0.91238441273E+02 0.  0.
         23    2    4    4    0    0 -0.99920337816E+02 -0.19553653792E+03 -0.12643367348E+04  0.12866410821E+04  0.93162672399E+02 0.  0.
         11    1    3    3    0    0 -0.21039174906E+03  0.22210881736E+02  0.34264432634E+02  0.21431766769E+03  0.00000000000E+00 0. -1.
        -11    1    3    3    0    0 -0.20589536519E+03  0.84614473284E+02  0.10900563549E+03  0.24786032168E+03  0.00000000000E+00 0.  1.
          2    1    5    5  502    0  0.17707180751E+03 -0.20913513788E+01 -0.17894265597E+03  0.25175240394E+03  0.00000000000E+00 0. -1.
          3    1    6    6  503    0  0.97231736582E+01 -0.39391501535E+02 -0.12445524812E+03  0.13090202170E+03  0.00000000000E+00 0. -1.
         -2    1    5    5    0  502  0.33913564455E+03  0.90802534281E+02 -0.24258215132E+03  0.42673667030E+03  0.00000000000E+00 0.  1.
         -3    1    6    6    0  503 -0.10964351147E+03 -0.15614503639E+03 -0.11398814867E+04  0.11557390604E+04  0.00000000000E+00 0.  1.
<mgrwt>
<rscale>  0 0.18740961E+04</rscale>
<asrwt>0</asrwt>
<pdfrwt beam="1">  1        1 0.68055129E-01 0.18740961E+04</pdfrwt>
<pdfrwt beam="2">  1       -1 0.30537689E+00 0.18740961E+04</pdfrwt>
<totfact> 0.14991287E+00</totfact>
</mgrwt>
</event>
<event>
12    1  0.4967442E-008  0.1807326E+04  0.7818608E-02  0.8702413E-01
          2   -1    0    0  501    0  0.00000000000E+00  0.00000000000E+00  0.39335972870E+03  0.39335972870E+03  0.00000000000E+00 0. -1.
         -2   -1    0    0    0  501 -0.00000000000E+00 -0.00000000000E+00 -0.20759794281E+04  0.20759794281E+04  0.00000000000E+00 0.  1.
         23    2    1    2    0    0 -0.20181933257E+03 -0.25380338509E+02  0.24685669172E+03  0.33269912104E+03  0.91516524806E+02 0.  0.
        254    2    1    2    0    0  0.20181933257E+03  0.25380338509E+02 -0.19294763911E+04  0.21366400357E+04  0.89497278949E+03 0.  0.
         23    2    4    4    0    0 -0.18285577065E+01  0.16419581185E+03 -0.18542557543E+04  0.18637266562E+04  0.90824216538E+02 0.  0.
         23    2    4    4    0    0  0.20364789027E+03 -0.13881547334E+03 -0.75220636785E+02  0.27291337955E+03  0.89896438695E+02 0.  0.
         11    1    3    3    0    0 -0.19312158545E+03 -0.18445142434E+02  0.25389968790E+03  0.31953281766E+03  0.00000000000E+00 0. -1.
        -11    1    3    3    0    0 -0.86977471194E+01 -0.69351960746E+01 -0.70429961788E+01  0.13166303381E+02  0.00000000000E+00 0.  1.
          4    1    5    5  502    0 -0.29377700591E+02  0.94928991201E+02 -0.13876910907E+04  0.13912444522E+04  0.00000000000E+00 0. -1.
          1    1    6    6  503    0  0.16358340453E+03 -0.61671139938E+02 -0.58818727830E+02  0.18445189748E+03  0.00000000000E+00 0. -1.
         -4    1    5    5    0  502  0.27549142885E+02  0.69266820647E+02 -0.46656466364E+03  0.47248220398E+03  0.00000000000E+00 0.  1.
         -1    1    6    6    0  503  0.40064485740E+02 -0.77144333402E+02 -0.16401908955E+02  0.88461482076E+02  0.00000000000E+00 0.  1.
<mgrwt>
<rscale>  0 0.18073259E+04</rscale>
<asrwt>0</asrwt>
<pdfrwt beam="1">  1        2 0.60516881E-01 0.18073259E+04</pdfrwt>
<pdfrwt beam="2">  1       -2 0.31938145E+00 0.18073259E+04</pdfrwt>
<totfact> 0.18515334E+00</totfact>
</mgrwt>
</event>
<event>
12    1  0.4967442E-008  0.2148888E+04  0.7818608E-02  0.8540008E-01
         -1   -1    0    0    0  501 -0.00000000000E+00  0.00000000000E+00  0.52702187045E+03  0.52702187045E+03  0.00000000000E+00 0.  1.
          1   -1    0    0  501    0  0.00000000000E+00 -0.00000000000E+00 -0.21904787721E+04  0.21904787721E+04  0.00000000000E+00 0. -1.
         23    2    1    2    0    0  0.51185436258E+03  0.53563058339E+02  0.21804532889E+03  0.56577061718E+03  0.87685438377E+02 0.  0.
        254    2    1    2    0    0 -0.51185436258E+03 -0.53563058339E+02 -0.18815022305E+04  0.21517300253E+04  0.90831028224E+03 0.  0.
         23    2    4    4    0    0  0.69013842761E+02  0.30405503435E+03 -0.37795045588E+03  0.49810348210E+03  0.89711523064E+02 0.  0.
         23    2    4    4    0    0 -0.58086820534E+03 -0.35761809269E+03 -0.15035517746E+04  0.16536265433E+04  0.92272603341E+02 0.  0.
         13    1    3    3    0    0  0.68225975827E+02  0.88577378811E+01 -0.14132726618E+01  0.68813084784E+02  0.00000000000E+00 0. -1.
        -13    1    3    3    0    0  0.44362838675E+03  0.44705320458E+02  0.21945860155E+03  0.49695753240E+03  0.00000000000E+00 0.  1.
          1    1    5    5  502    0  0.77109848503E+02  0.28161038722E+03 -0.30892549147E+03  0.42507093315E+03  0.00000000000E+00 0. -1.
          3    1    6    6  503    0 -0.55565126212E+03 -0.36140083915E+03 -0.14478251553E+04  0.15923431075E+04  0.00000000000E+00 0. -1.
         -1    1    5    5    0  502 -0.80960057421E+01  0.22444647124E+02 -0.69024964417E+02  0.73032548951E+02  0.00000000000E+00 0.  1.
         -3    1    6    6    0  503 -0.25216943218E+02  0.37827464647E+01 -0.55726619309E+02  0.61283435736E+02  0.00000000000E+00 0.  1.
<mgrwt>
<rscale>  0 0.21488883E+04</rscale>
<asrwt>0</asrwt>
<pdfrwt beam="1">  1        1 0.33699672E+00 0.21488883E+04</pdfrwt>
<pdfrwt beam="2">  1       -1 0.81080290E-01 0.21488883E+04</pdfrwt>
<totfact> 0.30694002E+00</totfact>
</mgrwt>
</event>
<event>
12    1  0.4967442E-008  0.1160045E+04  0.7818608E-02  0.9148567E-01
          2   -1    0    0  501    0  0.00000000000E+00  0.00000000000E+00  0.15194939600E+04  0.15194939600E+04  0.00000000000E+00 0.  1.
         -2   -1    0    0    0  501 -0.00000000000E+00 -0.00000000000E+00 -0.22140655700E+03  0.22140655700E+03  0.00000000000E+00 0. -1.
         23    2    1    2    0    0 -0.17956378429E+03 -0.10180831889E+03  0.15360085715E+03  0.27267626678E+03  0.90283092146E+02 0.  0.
        254    2    1    2    0    0  0.17956378429E+03  0.10180831889E+03  0.11444865459E+04  0.14682242502E+04  0.89622815670E+03 0.  0.
         23    2    4    4    0    0  0.33259818702E+03 -0.11837691436E+03  0.89694368894E+02  0.37618374856E+03  0.93991941191E+02 0.  0.
         23    2    4    4    0    0 -0.15303440273E+03  0.22018523324E+03  0.10547921770E+04  0.10920405017E+04  0.89804539500E+02 0.  0.
         13    1    3    3    0    0 -0.16508071161E+03 -0.11717967627E+03  0.14816107888E+03  0.25086734178E+03  0.00000000000E+00 0. -1.
        -13    1    3    3    0    0 -0.14483072683E+02  0.15371357386E+02  0.54397782640E+01  0.21808925003E+02  0.00000000000E+00 0.  1.
          1    1    5    5  502    0  0.32670202043E+03 -0.10226867424E+03  0.99401616610E+02  0.35647408499E+03  0.00000000000E+00 0. -1.
          3    1    6    6  503    0 -0.14693428647E+03  0.14960094927E+03  0.72447350903E+03  0.75420951588E+03  0.00000000000E+00 0. -1.
         -1    1    5    5    0  502  0.58961665956E+01 -0.16108240114E+02 -0.97072477162E+01  0.19709663577E+02  0.00000000000E+00 0.  1.
         -3    1    6    6    0  503 -0.61001162636E+01  0.70584283971E+02  0.33031866796E+03  0.33783098580E+03  0.00000000000E+00 0.  1.
<mgrwt>
<rscale>  0 0.11600447E+04</rscale>
<asrwt>0</asrwt>
<pdfrwt beam="1">  1        2 0.23376829E+00 0.11600447E+04</pdfrwt>
<pdfrwt beam="2">  1       -2 0.34062548E-01 0.11600447E+04</pdfrwt>
<totfact> 0.98726680E+01</totfact>
</mgrwt>
</event>
<event>
12    1  0.4967442E-008  0.3182539E+04  0.7818608E-02  0.8193444E-01
          2   -1    0    0  501    0  0.00000000000E+00  0.00000000000E+00  0.24821221177E+04  0.24821221177E+04  0.00000000000E+00 0. -1.
         -2   -1    0    0    0  501 -0.00000000000E+00 -0.00000000000E+00 -0.10201507449E+04  0.10201507449E+04  0.00000000000E+00 0.  1.
         23    2    1    2    0    0 -0.10054061346E+03  0.45432542500E+03  0.22070548715E+04  0.22577662365E+04  0.99484502174E+02 0.  0.
        254    2    1    2    0    0  0.10054061346E+03 -0.45432542500E+03 -0.74508349871E+03  0.12445066261E+04  0.88154824916E+03 0.  0.
         23    2    4    4    0    0  0.25662980924E+03 -0.88398950227E+01  0.84864363236E+02  0.28554086592E+03  0.91622176498E+02 0.  0.
         23    2    4    4    0    0 -0.15608919578E+03 -0.44548552998E+03 -0.82994786194E+03  0.95896576018E+03  0.89334658439E+02 0.  0.
         11    1    3    3    0    0 -0.11026022972E+03  0.40980337079E+03  0.20782857122E+04  0.21211712855E+04  0.00000000000E+00 0. -1.
        -11    1    3    3    0    0  0.97196162568E+01  0.44522054212E+02  0.12876915934E+03  0.13659495104E+03  0.00000000000E+00 0.  1.
          4    1    5    5  502    0  0.25566645192E+03  0.33959463332E+01  0.91525036951E+02  0.27157632348E+03  0.00000000000E+00 0. -1.
          1    1    6    6  503    0 -0.15687029316E+03 -0.44917191331E+03 -0.81655941212E+03  0.94505712531E+03  0.00000000000E+00 0. -1.
         -4    1    5    5    0  502  0.96335732193E+00 -0.12235841356E+02 -0.66606737154E+01  0.13964542433E+02  0.00000000000E+00 0.  1.
         -1    1    6    6    0  503  0.78109737746E+00  0.36863833361E+01 -0.13388449824E+02  0.13908634869E+02  0.00000000000E+00 0.  1.
<mgrwt>
<rscale>  0 0.31825391E+04</rscale>
<asrwt>0</asrwt>
<pdfrwt beam="1">  1        2 0.38186494E+00 0.31825391E+04</pdfrwt>
<pdfrwt beam="2">  1       -2 0.15694627E+00 0.31825391E+04</pdfrwt>
<totfact> 0.79784207E-01</totfact>
</mgrwt>
</event>
<event>
12    1  0.4967442E-008  0.1599940E+04  0.7818608E-02  0.8820585E-01
          2   -1    0    0  501    0  0.00000000000E+00  0.00000000000E+00  0.55035026895E+03  0.55035026895E+03  0.00000000000E+00 0.  1.
         -2   -1    0    0    0  501 -0.00000000000E+00 -0.00000000000E+00 -0.11628085905E+04  0.11628085905E+04  0.00000000000E+00 0. -1.
         23    2    1    2    0    0 -0.24026776300E+03 -0.16933940471E+03 -0.70103888740E+03  0.76615861400E+03  0.95598474042E+02 0.  0.
        254    2    1    2    0    0  0.24026776300E+03  0.16933940471E+03  0.88580565849E+02  0.94700024545E+03  0.89585630338E+03 0.  0.
         23    2    4    4    0    0  0.52309652800E+03  0.16254339535E+03  0.25013307358E+03  0.60940718639E+03  0.93596107509E+02 0.  0.
         23    2    4    4    0    0 -0.28282876500E+03  0.67960093598E+01 -0.16155250773E+03  0.33759305906E+03  0.88496128244E+02 0.  0.
         11    1    3    3    0    0 -0.18503513383E+03 -0.74810919936E+02 -0.45804083676E+03  0.49963595010E+03  0.00000000000E+00 0. -1.
        -11    1    3    3    0    0 -0.55232629170E+02 -0.94528484774E+02 -0.24299805064E+03  0.26652266390E+03  0.00000000000E+00 0.  1.
          3    1    5    5  502    0  0.42902460139E+03  0.94211875476E+02  0.19124431966E+03  0.47907449930E+03  0.00000000000E+00 0. -1.
          3    1    6    6  503    0 -0.26002258069E+03  0.29151975295E+02 -0.12803897639E+03  0.29129977619E+03  0.00000000000E+00 0. -1.
         -3    1    5    5    0  502  0.94071926618E+02  0.68331519874E+02  0.58888753917E+02  0.13033268709E+03  0.00000000000E+00 0.  1.
         -3    1    6    6    0  503 -0.22806184310E+02 -0.22355965936E+02 -0.33513531342E+02  0.46293282868E+02  0.00000000000E+00 0.  1.
<mgrwt>
<rscale>  0 0.15999400E+04</rscale>
<asrwt>0</asrwt>
<pdfrwt beam="1">  1        2 0.84669273E-01 0.15999400E+04</pdfrwt>
<pdfrwt beam="2">  1       -2 0.17889363E+00 0.15999400E+04</pdfrwt>
<totfact> 0.97257712E+00</totfact>
</mgrwt>
</event>
<event>
12    1  0.4967442E-008  0.1412343E+04  0.7818608E-02  0.8944932E-01
          1   -1    0    0  501    0  0.00000000000E+00  0.00000000000E+00  0.68379388207E+03  0.68379388207E+03  0.00000000000E+00 0. -1.
         -1   -1    0    0    0  501 -0.00000000000E+00 -0.00000000000E+00 -0.72928182276E+03  0.72928182276E+03  0.00000000000E+00 0.  1.
         23    2    1    2    0    0  0.24983824272E+03 -0.28804796919E+03  0.14667967121E+03  0.41722789866E+03  0.84696005786E+02 0.  0.
        254    2    1    2    0    0 -0.24983824272E+03  0.28804796919E+03 -0.19216761191E+03  0.99584780616E+03  0.89966309355E+03 0.  0.
         23    2    4    4    0    0 -0.13444011776E+03 -0.31504564728E+03 -0.10075329895E+03  0.36833469505E+03  0.90505884865E+02 0.  0.
         23    2    4    4    0    0 -0.11539812496E+03  0.60309361646E+03 -0.91414312957E+02  0.62751311112E+03  0.91528632381E+02 0.  0.
         13    1    3    3    0    0  0.77401831961E+02 -0.37404858988E+02  0.40206652797E+02  0.94903856592E+02  0.00000000000E+00 0.  1.
        -13    1    3    3    0    0  0.17243641076E+03 -0.25064311020E+03  0.10647301842E+03  0.32232404207E+03  0.00000000000E+00 0. -1.
          4    1    5    5  502    0  0.19950118768E+01 -0.36149139141E+02  0.11807052551E+02  0.38080793360E+02  0.00000000000E+00 0. -1.
          1    1    6    6  503    0 -0.63921942689E+02  0.15223377541E+03 -0.46351223520E+02  0.17149219531E+03  0.00000000000E+00 0. -1.
         -4    1    5    5    0  502 -0.13643512964E+03 -0.27889650814E+03 -0.11256035150E+03  0.33025390169E+03  0.00000000000E+00 0.  1.
         -1    1    6    6    0  503 -0.51476182267E+02  0.45085984106E+03 -0.45063089437E+02  0.45602091580E+03  0.00000000000E+00 0.  1.
<mgrwt>
<rscale>  0 0.14123434E+04</rscale>
<asrwt>0</asrwt>
<pdfrwt beam="1">  1        1 0.10519906E+00 0.14123434E+04</pdfrwt>
<pdfrwt beam="2">  1       -1 0.11219720E+00 0.14123434E+04</pdfrwt>
<totfact> 0.20031666E+01</totfact>
</mgrwt>
</event>
<event>
12    1  0.4967442E-008  0.2102082E+04  0.7818608E-02  0.8560327E-01
          2   -1    0    0  501    0  0.00000000000E+00  0.00000000000E+00  0.20989052498E+04  0.20989052498E+04  0.00000000000E+00 0. -1.
         -2   -1    0    0    0  501 -0.00000000000E+00 -0.00000000000E+00 -0.52631592411E+03  0.52631592411E+03  0.00000000000E+00 0.  1.
         23    2    1    2    0    0 -0.64071907998E+03 -0.37173062361E+03  0.11636808709E+04  0.13825160503E+04  0.92156735895E+02 0.  0.
        254    2    1    2    0    0  0.64071907998E+03  0.37173062361E+03  0.40890845482E+03  0.12427051237E+04  0.91016773398E+03 0.  0.
         23    2    4    4    0    0  0.40085763905E+01 -0.25248582737E+03  0.15712552494E+03  0.31142163668E+03  0.92357151832E+02 0.  0.
         23    2    4    4    0    0  0.63671050359E+03  0.62421645098E+03  0.25178292988E+03  0.93128348699E+03  0.94062991158E+02 0.  0.
         13    1    3    3    0    0 -0.59962275271E+03 -0.32301992305E+03  0.10876803861E+04  0.12833307986E+04  0.00000000000E+00 0. -1.
        -13    1    3    3    0    0 -0.41096327277E+02 -0.48710700559E+02  0.76000484778E+02  0.99185251681E+02  0.00000000000E+00 0.  1.
          3    1    5    5  502    0  0.28536995822E+02 -0.18129268192E+03  0.70391613802E+02  0.19656137958E+03  0.00000000000E+00 0. -1.
          3    1    6    6  503    0  0.40478053406E+03  0.45803330002E+03  0.17437256345E+03  0.63564736731E+03  0.00000000000E+00 0. -1.
         -3    1    5    5    0  502 -0.24528419431E+02 -0.71193145449E+02  0.86733911140E+02  0.11486025710E+03  0.00000000000E+00 0.  1.
         -3    1    6    6    0  503  0.23192996953E+03  0.16618315095E+03  0.77410366429E+02  0.29563611968E+03  0.00000000000E+00 0.  1.
<mgrwt>
<rscale>  0 0.21020821E+04</rscale>
<asrwt>0</asrwt>
<pdfrwt beam="1">  1        2 0.32290849E+00 0.21020821E+04</pdfrwt>
<pdfrwt beam="2">  1       -2 0.80971682E-01 0.21020821E+04</pdfrwt>
<totfact> 0.72924233E+00</totfact>
</mgrwt>
</event>
<event>
12    1  0.4967442E-008  0.1391715E+04  0.7818608E-02  0.8959837E-01
         -1   -1    0    0    0  501 -0.00000000000E+00  0.00000000000E+00  0.17168909082E+03  0.17168909082E+03  0.00000000000E+00 0.  1.
          1   -1    0    0  501    0  0.00000000000E+00 -0.00000000000E+00 -0.28203184901E+04  0.28203184901E+04  0.00000000000E+00 0. -1.
         23    2    1    2    0    0 -0.63664287261E+02  0.26575647942E+03 -0.15806103210E+03  0.32922735870E+03  0.93422245878E+02 0.  0.
        254    2    1    2    0    0  0.63664287261E+02 -0.26575647942E+03 -0.24905683672E+04  0.26627802222E+04  0.90154759854E+03 0.  0.
         23    2    4    4    0    0  0.28313451116E+03  0.23864683611E+03 -0.92098810474E+03  0.99705683730E+03  0.93732512677E+02 0.  0.
         23    2    4    4    0    0 -0.21947022390E+03 -0.50440331553E+03 -0.15695802625E+04  0.16657233849E+04  0.91990819905E+02 0.  0.
         13    1    3    3    0    0 -0.16079084106E+02  0.10281044292E+03 -0.11296130848E+03  0.15358639696E+03  0.00000000000E+00 0. -1.
        -13    1    3    3    0    0 -0.47585203155E+02  0.16294603650E+03 -0.45099723619E+02  0.17564096174E+03  0.00000000000E+00 0.  1.
          2    1    5    5  502    0  0.23929780672E+03  0.15383132227E+03 -0.73165060643E+03  0.78500963427E+03  0.00000000000E+00 0. -1.
          4    1    6    6  503    0 -0.22472223859E+03 -0.48313829699E+03 -0.14654943049E+04  0.15593576421E+04  0.00000000000E+00 0. -1.
         -2    1    5    5    0  502  0.43836704445E+02  0.84815513840E+02 -0.18933749831E+03  0.21204720302E+03  0.00000000000E+00 0.  1.
         -4    1    6    6    0  503  0.52520146898E+01 -0.21265018538E+02 -0.10408595759E+03  0.10636574279E+03  0.00000000000E+00 0.  1.
<mgrwt>
<rscale>  0 0.13917154E+04</rscale>
<asrwt>0</asrwt>
<pdfrwt beam="1">  1        1 0.43389511E+00 0.13917154E+04</pdfrwt>
<pdfrwt beam="2">  1       -1 0.26413709E-01 0.13917154E+04</pdfrwt>
<totfact> 0.10081744E+01</totfact>
</mgrwt>
</event>
<event>
12    1  0.4967442E-008  0.1310302E+04  0.7818608E-02  0.9021435E-01
          1   -1    0    0  501    0  0.00000000000E+00  0.00000000000E+00  0.10069069097E+04  0.10069069097E+04  0.00000000000E+00 0. -1.
         -1   -1    0    0    0  501 -0.00000000000E+00 -0.00000000000E+00 -0.42627854681E+03  0.42627854681E+03  0.00000000000E+00 0.  1.
         23    2    1    2    0    0  0.50683896425E+02  0.55727763303E+02 -0.20595661994E+03  0.23782503849E+03  0.92022707407E+02 0.  0.
        254    2    1    2    0    0 -0.50683896425E+02 -0.55727763303E+02  0.78658498286E+03  0.11953604180E+04  0.89693709524E+03 0.  0.
         23    2    4    4    0    0 -0.39371170152E+02  0.16053060854E+03 -0.14285372206E+03  0.23673875815E+03  0.91202458217E+02 0.  0.
         23    2    4    4    0    0 -0.11312726272E+02 -0.21625837185E+03  0.92943870492E+03  0.95862165989E+03  0.90573282208E+02 0.  0.
         11    1    3    3    0    0 -0.93837938997E+01  0.21254886872E+02 -0.14090623640E+03  0.14280893970E+03  0.00000000000E+00 0.  1.
        -11    1    3    3    0    0  0.60067690324E+02  0.34472876431E+02 -0.65050383542E+02  0.95016098790E+02  0.00000000000E+00 0. -1.
          2    1    5    5  502    0 -0.17435522430E+01 -0.11593994870E+02 -0.15047450564E+02  0.19075808239E+02  0.00000000000E+00 0. -1.
          4    1    6    6  503    0  0.33386425174E+02 -0.13953046545E+03  0.63918624055E+03  0.65508965362E+03  0.00000000000E+00 0.  1.
         -2    1    5    5    0  502 -0.37627617909E+02  0.17212460341E+03 -0.12780627150E+03  0.21766294991E+03  0.00000000000E+00 0.  1.
         -4    1    6    6    0  503 -0.44699151446E+02 -0.76727906397E+02  0.29025246437E+03  0.30353200627E+03  0.00000000000E+00 0. -1.
<mgrwt>
<rscale>  0 0.13103020E+04</rscale>
<asrwt>0</asrwt>
<pdfrwt beam="1">  1        1 0.15490875E+00 0.13103020E+04</pdfrwt>
<pdfrwt beam="2">  1       -1 0.65581315E-01 0.13103020E+04</pdfrwt>
<totfact> 0.34582855E+01</totfact>
</mgrwt>
</event>
<event>
12    1  0.4967442E-008  0.1260561E+04  0.7818608E-02  0.9061439E-01
          2   -1    0    0  501    0  0.00000000000E+00  0.00000000000E+00  0.90339560102E+03  0.90339560102E+03  0.00000000000E+00 0. -1.
         -2   -1    0    0    0  501 -0.00000000000E+00 -0.00000000000E+00 -0.43973347362E+03  0.43973347362E+03  0.00000000000E+00 0.  1.
         23    2    1    2    0    0 -0.19055503978E+02 -0.10169952664E+03  0.41283024995E+03  0.43581467591E+03  0.93806772188E+02 0.  0.
        254    2    1    2    0    0  0.19055503978E+02  0.10169952664E+03  0.50831877448E+02  0.90731439874E+03  0.89996090606E+03 0.  0.
         23    2    4    4    0    0  0.43365479446E+03  0.37230263687E+00  0.13327465191E+03  0.46344127911E+03  0.94652347982E+02 0.  0.
         23    2    4    4    0    0 -0.41459929048E+03  0.10132722400E+03 -0.82442774465E+02  0.44387311962E+03  0.89815128309E+02 0.  0.
         11    1    3    3    0    0  0.26047440903E+02 -0.88862117387E+02  0.28395974437E+03  0.29867721959E+03  0.00000000000E+00 0. -1.
        -11    1    3    3    0    0 -0.45102944882E+02 -0.12837409250E+02  0.12887050559E+03  0.13713745631E+03  0.00000000000E+00 0.  1.
          2    1    5    5  502    0  0.27866183538E+03 -0.68007357143E+01  0.37890383211E+02  0.28130828222E+03  0.00000000000E+00 0. -1.
          2    1    6    6  503    0 -0.98955029100E+02  0.14847869939E+02  0.17703950846E+02  0.10161686327E+03  0.00000000000E+00 0. -1.
         -2    1    5    5    0  502  0.15499295908E+03  0.71730383511E+01  0.95384268702E+02  0.18213299689E+03  0.00000000000E+00 0.  1.
         -2    1    6    6    0  503 -0.31564426138E+03  0.86479354061E+02 -0.10014672531E+03  0.34225625635E+03  0.00000000000E+00 0.  1.
<mgrwt>
<rscale>  0 0.12605606E+04</rscale>
<asrwt>0</asrwt>
<pdfrwt beam="1">  1        2 0.13898394E+00 0.12605606E+04</pdfrwt>
<pdfrwt beam="2">  1       -2 0.67651304E-01 0.12605606E+04</pdfrwt>
<totfact> 0.57417480E+01</totfact>
</mgrwt>
</event>
<event>
12    1  0.4967442E-008  0.1631794E+04  0.7818608E-02  0.8801250E-01
         -1   -1    0    0    0  501 -0.00000000000E+00  0.00000000000E+00  0.16162382522E+03  0.16162382522E+03  0.00000000000E+00 0.  1.
          1   -1    0    0  501    0  0.00000000000E+00 -0.00000000000E+00 -0.41187494151E+04  0.41187494151E+04  0.00000000000E+00 0. -1.
         23    2    1    2    0    0  0.41230307622E+03 -0.12145895822E+03 -0.23578757451E+04  0.23985003395E+04  0.92085524625E+02 0.  0.
        254    2    1    2    0    0 -0.41230307622E+03  0.12145895822E+03 -0.15992498448E+04  0.18818729008E+04  0.89392362300E+03 0.  0.
         23    2    4    4    0    0  0.17317692521E+03 -0.21351215596E+03 -0.31206301009E+03  0.42580246039E+03  0.91360411795E+02 0.  0.
         23    2    4    4    0    0 -0.58548000143E+03  0.33497111417E+03 -0.12871868347E+04  0.14560704404E+04  0.91097205138E+02 0.  0.
         13    1    3    3    0    0  0.39803312379E+03 -0.97282364516E+02 -0.22515695200E+04  0.22885496564E+04  0.00000000000E+00 0. -1.
        -13    1    3    3    0    0  0.14269952428E+02 -0.24176593702E+02 -0.10630622507E+03  0.10995068310E+03  0.00000000000E+00 0.  1.
          2    1    5    5  502    0  0.64835049882E+02 -0.19920027182E+02 -0.75423638785E+02  0.10143528214E+03  0.00000000000E+00 0. -1.
          4    1    6    6  503    0 -0.27809077648E+03  0.12359486856E+03 -0.50785756290E+03  0.59205529783E+03  0.00000000000E+00 0. -1.
         -2    1    5    5    0  502  0.10834187533E+03 -0.19359212877E+03 -0.23663937130E+03  0.32436717825E+03  0.00000000000E+00 0.  1.
         -4    1    6    6    0  503 -0.30738922496E+03  0.21137624562E+03 -0.77932927177E+03  0.86401514261E+03  0.00000000000E+00 0.  1.
<mgrwt>
<rscale>  0 0.16317941E+04</rscale>
<asrwt>0</asrwt>
<pdfrwt beam="1">  1        1 0.63365373E+00 0.16317941E+04</pdfrwt>
<pdfrwt beam="2">  1       -1 0.24865205E-01 0.16317941E+04</pdfrwt>
<totfact> 0.10343334E+00</totfact>
</mgrwt>
</event>
<event>
12    1  0.4967442E-008  0.1090081E+04  0.7818608E-02  0.9214914E-01
         -2   -1    0    0    0  501 -0.00000000000E+00  0.00000000000E+00  0.25742691958E+03  0.25742691958E+03  0.00000000000E+00 0.  1.
          2   -1    0    0  501    0  0.00000000000E+00 -0.00000000000E+00 -0.11539936570E+04  0.11539936570E+04  0.00000000000E+00 0. -1.
         23    2    1    2    0    0  0.47497735500E+02 -0.92021272119E+02 -0.27536295469E+03  0.31172757892E+03  0.10307947053E+03 0.  0.
        254    2    1    2    0    0 -0.47497735500E+02  0.92021272119E+02 -0.62120378275E+03  0.10996929977E+04  0.90150241266E+03 0.  0.
         23    2    4    4    0    0  0.35012222122E+03  0.25425611359E+03 -0.44256946450E+03  0.62569143930E+03  0.91598609257E+02 0.  0.
         23    2    4    4    0    0 -0.39761995672E+03 -0.16223484147E+03 -0.17863431826E+03  0.47400155838E+03  0.91353620175E+02 0.  0.
         11    1    3    3    0    0  0.83003045797E+01 -0.63669834634E+01 -0.17029648043E+03  0.17061748088E+03  0.00000000000E+00 0.  1.
        -11    1    3    3    0    0  0.39197430920E+02 -0.85654288655E+02 -0.10506647426E+03  0.14111009804E+03  0.00000000000E+00 0. -1.
          1    1    5    5  502    0  0.96824962982E+02  0.67591847357E+02 -0.67111177110E+02  0.13582209459E+03  0.00000000000E+00 0. -1.
          3    1    6    6  503    0 -0.15533158632E+03 -0.10458605105E+03 -0.10300236071E+03  0.21371857686E+03  0.00000000000E+00 0. -1.
         -1    1    5    5    0  502  0.25329725824E+03  0.18666426624E+03 -0.37545828739E+03  0.48986934471E+03  0.00000000000E+00 0.  1.
         -3    1    6    6    0  503 -0.24228837039E+03 -0.57648790424E+02 -0.75631957551E+02  0.26028298152E+03  0.00000000000E+00 0.  1.
<mgrwt>
<rscale>  0 0.10900808E+04</rscale>
<asrwt>0</asrwt>
<pdfrwt beam="1">  1        2 0.17753748E+00 0.10900808E+04</pdfrwt>
<pdfrwt beam="2">  1       -2 0.39604142E-01 0.10900808E+04</pdfrwt>
<totfact> 0.12085590E+02</totfact>
</mgrwt>
</event>
<event>
12    1  0.4967442E-008  0.1625369E+04  0.7818608E-02  0.8805113E-01
         -1   -1    0    0    0  501 -0.00000000000E+00  0.00000000000E+00  0.49517798650E+03  0.49517798650E+03  0.00000000000E+00 0.  1.
          1   -1    0    0  501    0  0.00000000000E+00 -0.00000000000E+00 -0.13337749615E+04  0.13337749615E+04  0.00000000000E+00 0. -1.
         23    2    1    2    0    0 -0.17881658253E+03 -0.47345658257E+03 -0.31493073809E+03  0.60291584750E+03  0.90496649670E+02 0.  0.
        254    2    1    2    0    0  0.17881658253E+03  0.47345658257E+03 -0.52366623695E+03  0.12260371005E+04  0.98630833842E+03 0.  0.
         23    2    4    4    0    0 -0.63170956583E+02  0.16156947094E+03  0.27194376987E+03  0.33314453111E+03  0.83286259026E+02 0.  0.
         23    2    4    4    0    0  0.24198753912E+03  0.31188711163E+03 -0.79561000683E+03  0.89289256944E+03  0.91816763724E+02 0.  0.
         11    1    3    3    0    0 -0.10549978942E+03 -0.19435046064E+03 -0.97916581452E+02  0.24184698477E+03  0.00000000000E+00 0.  1.
        -11    1    3    3    0    0 -0.73316793119E+02 -0.27910612193E+03 -0.21701415664E+03  0.36106886273E+03  0.00000000000E+00 0. -1.
          4    1    5    5  502    0 -0.51533159372E+02  0.14867000553E+03  0.27367605004E+03  0.31568499715E+03  0.00000000000E+00 0.  1.
          3    1    6    6  503    0  0.10837563222E+03  0.10276504693E+03 -0.21825879686E+03  0.26446707723E+03  0.00000000000E+00 0. -1.
         -4    1    5    5    0  502 -0.11637797210E+02  0.12899465409E+02 -0.17322801647E+01  0.17459533966E+02  0.00000000000E+00 0. -1.
         -3    1    6    6    0  503  0.13361190690E+03  0.20912206470E+03 -0.57735120996E+03  0.62842549221E+03  0.00000000000E+00 0.  1.
<mgrwt>
<rscale>  0 0.16253689E+04</rscale>
<asrwt>0</asrwt>
<pdfrwt beam="1">  1        1 0.20519614E+00 0.16253689E+04</pdfrwt>
<pdfrwt beam="2">  1       -1 0.76181230E-01 0.16253689E+04</pdfrwt>
<totfact> 0.14177502E+01</totfact>
</mgrwt>
</event>
<event>
12    1  0.4967442E-008  0.1809297E+04  0.7818608E-02  0.8701371E-01
          2   -1    0    0  501    0  0.00000000000E+00  0.00000000000E+00  0.10533448965E+04  0.10533448965E+04  0.00000000000E+00 0. -1.
         -2   -1    0    0    0  501 -0.00000000000E+00 -0.00000000000E+00 -0.77694318989E+03  0.77694318989E+03  0.00000000000E+00 0.  1.
         23    2    1    2    0    0  0.52470545294E+03  0.25128650345E+03 -0.24337447264E+03  0.63739855502E+03  0.92655625030E+02 0.  0.
        254    2    1    2    0    0 -0.52470545294E+03 -0.25128650345E+03  0.51977617921E+03  0.11928895313E+04  0.90241755209E+03 0.  0.
         23    2    4    4    0    0 -0.42714400933E+03 -0.31744380700E+03  0.74620024073E+03  0.92153566282E+03  0.95867634185E+02 0.  0.
         23    2    4    4    0    0 -0.97561443610E+02  0.66157303552E+02 -0.22642406152E+03  0.27135386851E+03  0.92032832318E+02 0.  0.
         13    1    3    3    0    0  0.11550086734E+03  0.16187074528E+02 -0.37441121462E+02  0.12249207858E+03  0.00000000000E+00 0. -1.
        -13    1    3    3    0    0  0.40920458560E+03  0.23509942892E+03 -0.20593335118E+03  0.51490647644E+03  0.00000000000E+00 0.  1.
          4    1    5    5  502    0 -0.18344148916E+03 -0.14069537958E+03  0.24487223606E+03  0.33676160971E+03  0.00000000000E+00 0. -1.
          3    1    6    6  503    0 -0.10339775427E+03  0.28811744380E+02 -0.19326722361E+03  0.22107336321E+03  0.00000000000E+00 0. -1.
         -4    1    5    5    0  502 -0.24370252017E+03 -0.17674842742E+03  0.50132800467E+03  0.58477405312E+03  0.00000000000E+00 0.  1.
         -3    1    6    6    0  503  0.58363106569E+01  0.37345559172E+02 -0.33156837912E+02  0.50280505291E+02  0.00000000000E+00 0.  1.
<mgrwt>
<rscale>  0 0.18092973E+04</rscale>
<asrwt>0</asrwt>
<pdfrwt beam="1">  1        2 0.16205306E+00 0.18092973E+04</pdfrwt>
<pdfrwt beam="2">  1       -2 0.11952972E+00 0.18092973E+04</pdfrwt>
<totfact> 0.11784937E+01</totfact>
</mgrwt>
</event>
<event>
12    1  0.4967442E-008  0.2027654E+04  0.7818608E-02  0.8593800E-01
          2   -1    0    0  501    0  0.00000000000E+00  0.00000000000E+00  0.21262820006E+04  0.21262820006E+04  0.00000000000E+00 0. -1.
         -2   -1    0    0    0  501 -0.00000000000E+00 -0.00000000000E+00 -0.48340016031E+03  0.48340016031E+03  0.00000000000E+00 0.  1.
         23    2    1    2    0    0  0.36657476389E+03  0.26192492937E+03 -0.21045022831E+03  0.50534270652E+03  0.90001257185E+02 0.  0.
        254    2    1    2    0    0 -0.36657476389E+03 -0.26192492937E+03  0.18533320686E+04  0.21043394544E+04  0.88905739782E+03 0.  0.
         23    2    4    4    0    0 -0.40384974000E+03 -0.40641342067E+03  0.58248657246E+03  0.82192840621E+03  0.89494228014E+02 0.  0.
         23    2    4    4    0    0  0.37274976109E+02  0.14448849130E+03  0.12708454961E+04  0.12824110481E+04  0.85226013962E+02 0.  0.
         11    1    3    3    0    0  0.30646584400E+02  0.16451836200E+02 -0.46675869766E+02  0.58210934266E+02  0.00000000000E+00 0. -1.
        -11    1    3    3    0    0  0.33592817949E+03  0.24547309317E+03 -0.16377435854E+03  0.44713177225E+03  0.00000000000E+00 0.  1.
          3    1    6    6  502    0  0.25164146746E+02  0.10485443721E+02  0.43049666182E+03  0.43135896264E+03  0.00000000000E+00 0. -1.
          3    1    5    5  503    0 -0.29322042477E+02 -0.14722100548E+02  0.63969176813E+02  0.71892823020E+02  0.00000000000E+00 0. -1.
         -3    1    5    5    0  503 -0.37452769752E+03 -0.39169132012E+03  0.51851739565E+03  0.75003558319E+03  0.00000000000E+00 0.  1.
         -3    1    6    6    0  502  0.12110829363E+02  0.13400304758E+03  0.84034883430E+03  0.85105208551E+03  0.00000000000E+00 0.  1.
<mgrwt>
<rscale>  0 0.20276539E+04</rscale>
<asrwt>0</asrwt>
<pdfrwt beam="1">  1        2 0.32712030E+00 0.20276539E+04</pdfrwt>
<pdfrwt beam="2">  1       -2 0.74369257E-01 0.20276539E+04</pdfrwt>
<totfact> 0.85664241E+00</totfact>
</mgrwt>
</event>
<event>
12    1  0.4967442E-008  0.1593067E+04  0.7818608E-02  0.8824818E-01
         -2   -1    0    0    0  501 -0.00000000000E+00  0.00000000000E+00  0.60965545300E+03  0.60965545300E+03  0.00000000000E+00 0.  1.
          2   -1    0    0  501    0  0.00000000000E+00 -0.00000000000E+00 -0.10406957773E+04  0.10406957773E+04  0.00000000000E+00 0. -1.
         23    2    1    2    0    0 -0.14927000244E+03  0.88016688862E+02  0.37880809090E+03  0.42693410664E+03  0.93534435035E+02 0.  0.
        254    2    1    2    0    0  0.14927000244E+03 -0.88016688862E+02 -0.80984841522E+03  0.12234171237E+04  0.90048127785E+03 0.  0.
         23    2    4    4    0    0 -0.16950760566E+03  0.30635884575E+03 -0.51533107174E+03  0.62966447148E+03  0.91228627091E+02 0.  0.
         23    2    4    4    0    0  0.31877760810E+03 -0.39437553461E+03 -0.29451734349E+03  0.59375265221E+03  0.93008175290E+02 0.  0.
         11    1    3    3    0    0 -0.15533731879E+03  0.72811744721E+02  0.37110821449E+03  0.40884292784E+03  0.00000000000E+00 0.  1.
        -11    1    3    3    0    0  0.60673163451E+01  0.15204944141E+02  0.76998764056E+01  0.18091178807E+02  0.00000000000E+00 0. -1.
          2    1    5    5  502    0 -0.10058692114E+03  0.24366496731E+03 -0.33117741855E+03  0.42328338918E+03  0.00000000000E+00 0. -1.
          1    1    6    6  503    0  0.82268809349E+02 -0.82225865307E+02 -0.11276258032E+03  0.16200200442E+03  0.00000000000E+00 0. -1.
         -2    1    5    5    0  502 -0.68920684522E+02  0.62693878434E+02 -0.18415365318E+03  0.20638108229E+03  0.00000000000E+00 0.  1.
         -1    1    6    6    0  503  0.23650879875E+03 -0.31214966930E+03 -0.18175476317E+03  0.43175064779E+03  0.00000000000E+00 0.  1.
<mgrwt>
<rscale>  0 0.15930673E+04</rscale>
<asrwt>0</asrwt>
<pdfrwt beam="1">  1        2 0.16010704E+00 0.15930673E+04</pdfrwt>
<pdfrwt beam="2">  1       -2 0.93793147E-01 0.15930673E+04</pdfrwt>
<totfact> 0.21864492E+01</totfact>
</mgrwt>
</event>
<event>
12    1  0.4967442E-008  0.1603676E+04  0.7818608E-02  0.8818293E-01
         -1   -1    0    0    0  501 -0.00000000000E+00  0.00000000000E+00  0.18113482542E+03  0.18113482542E+03  0.00000000000E+00 0.  1.
          1   -1    0    0  501    0  0.00000000000E+00 -0.00000000000E+00 -0.35495322662E+04  0.35495322662E+04  0.00000000000E+00 0. -1.
         23    2    1    2    0    0 -0.52044392374E+03 -0.97855373880E+02 -0.14913309108E+04  0.15850953534E+04  0.89564735308E+02 0.  0.
        254    2    1    2    0    0  0.52044392374E+03  0.97855373880E+02 -0.18770665299E+04  0.21455717382E+04  0.89423809692E+03 0.  0.
         23    2    4    4    0    0  0.48943907701E+03 -0.26797811201E+03 -0.15337301872E+04  0.16345474193E+04  0.89744637815E+02 0.  0.
         23    2    4    4    0    0  0.31004846726E+02  0.36583348589E+03 -0.34333634269E+03  0.51102431891E+03  0.92035701679E+02 0.  0.
         11    1    3    3    0    0 -0.36940483817E+03 -0.40905829534E+02 -0.94651412973E+03  0.10168688308E+04  0.00000000000E+00 0. -1.
        -11    1    3    3    0    0 -0.15103908557E+03 -0.56949544346E+02 -0.54481678111E+03  0.56822652257E+03  0.00000000000E+00 0.  1.
          2    1    6    6  502    0  0.13999365965E+02  0.27432963859E+03 -0.19865731096E+03  0.33899477880E+03  0.00000000000E+00 0. -1.
          2    1    5    5  503    0  0.46069122503E+03 -0.23016330314E+03 -0.14428605381E+04  0.15320111238E+04  0.00000000000E+00 0. -1.
         -2    1    5    5    0  503  0.28747851983E+02 -0.37814808873E+02 -0.90869649084E+02  0.10253629547E+03  0.00000000000E+00 0.  1.
         -2    1    6    6    0  502  0.17005480761E+02  0.91503847301E+02 -0.14467903173E+03  0.17202954011E+03  0.00000000000E+00 0.  1.
<mgrwt>
<rscale>  0 0.16036757E+04</rscale>
<asrwt>0</asrwt>
<pdfrwt beam="1">  1        1 0.54608191E+00 0.16036757E+04</pdfrwt>
<pdfrwt beam="2">  1       -1 0.27866895E-01 0.16036757E+04</pdfrwt>
<totfact> 0.25683398E+00</totfact>
</mgrwt>
</event>
<event>
12    1  0.4967442E-008  0.1772182E+04  0.7818608E-02  0.8721234E-01
          1   -1    0    0  501    0  0.00000000000E+00  0.00000000000E+00  0.19893082817E+04  0.19893082817E+04  0.00000000000E+00 0. -1.
         -1   -1    0    0    0  501 -0.00000000000E+00 -0.00000000000E+00 -0.39468852764E+03  0.39468852764E+03  0.00000000000E+00 0.  1.
         23    2    1    2    0    0 -0.57928809346E+03  0.14713301564E+03  0.10299964920E+04  0.11946831255E+04  0.95667012435E+02 0.  0.
        254    2    1    2    0    0  0.57928809346E+03 -0.14713301564E+03  0.56462326204E+03  0.11893136838E+04  0.85932810440E+03 0.  0.
         23    2    4    4    0    0  0.54373713155E+03 -0.17112344738E+02 -0.48821835013E+02  0.55404027668E+03  0.92920159504E+02 0.  0.
         23    2    4    4    0    0  0.35550961917E+02 -0.13002067090E+03  0.61344509705E+03  0.63527340716E+03  0.95331888669E+02 0.  0.
         11    1    3    3    0    0 -0.24114471728E+03  0.30426874273E+02  0.48968090971E+03  0.54668451842E+03  0.00000000000E+00 0.  1.
        -11    1    3    3    0    0 -0.33814337618E+03  0.11670614136E+03  0.54031558231E+03  0.64799860708E+03  0.00000000000E+00 0. -1.
          2    1    5    5  502    0  0.16876940936E+03 -0.50037249570E+01  0.27843201511E+02  0.17112391612E+03  0.00000000000E+00 0. -1.
          4    1    6    6  503    0 -0.82032041526E+01 -0.18385201513E+02  0.15454102891E+02  0.25379863853E+02  0.00000000000E+00 0. -1.
         -2    1    5    5    0  502  0.37496772219E+03 -0.12108619781E+02 -0.76665036523E+02  0.38291636056E+03  0.00000000000E+00 0.  1.
         -4    1    6    6    0  503  0.43754166070E+02 -0.11163546939E+03  0.59799099416E+03  0.60989354331E+03  0.00000000000E+00 0.  1.
<mgrwt>
<rscale>  0 0.17721819E+04</rscale>
<asrwt>0</asrwt>
<pdfrwt beam="1">  1        1 0.30604742E+00 0.17721819E+04</pdfrwt>
<pdfrwt beam="2">  1       -1 0.60721313E-01 0.17721819E+04</pdfrwt>
<totfact> 0.78843294E+00</totfact>
</mgrwt>
</event>
<event>
12    1  0.4967442E-008  0.1322905E+04  0.7818608E-02  0.9011596E-01
         -2   -1    0    0    0  501 -0.00000000000E+00  0.00000000000E+00  0.22642689345E+03  0.22642689345E+03  0.00000000000E+00 0.  1.
          2   -1    0    0  501    0  0.00000000000E+00 -0.00000000000E+00 -0.19322773276E+04  0.19322773276E+04  0.00000000000E+00 0. -1.
         23    2    1    2    0    0  0.29156416074E+03 -0.63321734511E+02 -0.17407630183E+03  0.35682936637E+03  0.89472543026E+02 0.  0.
        254    2    1    2    0    0 -0.29156416074E+03  0.63321734511E+02 -0.15317741323E+04  0.18018748547E+04  0.90077838430E+03 0.  0.
         23    2    4    4    0    0 -0.22419250277E+03 -0.19284464361E+03 -0.14863490495E+04  0.15182151934E+04  0.91063393153E+02 0.  0.
         23    2    4    4    0    0 -0.67371657971E+02  0.25616637812E+03 -0.45425082769E+02  0.28365966127E+03  0.90770103603E+02 0.  0.
         13    1    3    3    0    0  0.11705969169E+03 -0.19938968438E+02 -0.12055740521E+03  0.16921767589E+03  0.00000000000E+00 0.  1.
        -13    1    3    3    0    0  0.17450446905E+03 -0.43382766074E+02 -0.53518896618E+02  0.18761169048E+03  0.00000000000E+00 0. -1.
          3    1    5    5  502    0 -0.87902364130E+02 -0.91839295365E+02 -0.85812711812E+03  0.86749261244E+03  0.00000000000E+00 0. -1.
          3    1    6    6  503    0 -0.28533318555E+02  0.72487195247E+02  0.26980460838E+02  0.82440821257E+02  0.00000000000E+00 0. -1.
         -3    1    5    5    0  502 -0.13629013864E+03 -0.10100534825E+03 -0.62822193141E+03  0.65072258096E+03  0.00000000000E+00 0.  1.
         -3    1    6    6    0  503 -0.38838339416E+02  0.18367918288E+03 -0.72405543607E+02  0.20121884001E+03  0.00000000000E+00 0.  1.
<mgrwt>
<rscale>  0 0.13229052E+04</rscale>
<asrwt>0</asrwt>
<pdfrwt beam="1">  1        2 0.29727343E+00 0.13229052E+04</pdfrwt>
<pdfrwt beam="2">  1       -2 0.34834908E-01 0.13229052E+04</pdfrwt>
<totfact> 0.55152422E+01</totfact>
</mgrwt>
</event>
<event>
12    1  0.4967442E-008  0.2401878E+04  0.7818608E-02  0.8438801E-01
         -2   -1    0    0    0  501 -0.00000000000E+00  0.00000000000E+00  0.95826455222E+03  0.95826455222E+03  0.00000000000E+00 0. -1.
          2   -1    0    0  501    0  0.00000000000E+00 -0.00000000000E+00 -0.15050698116E+04  0.15050698116E+04  0.00000000000E+00 0.  1.
         23    2    1    2    0    0  0.35402578565E+03 -0.30671099902E+03 -0.11771482791E+04  0.12701002529E+04  0.89837006048E+02 0.  0.
        254    2    1    2    0    0 -0.35402578565E+03  0.30671099902E+03  0.63034301968E+03  0.11932341109E+04  0.89837042872E+03 0.  0.
         23    2    4    4    0    0  0.33356004584E+02 -0.10883725846E+03  0.59925927904E+03  0.61677010737E+03  0.91299014017E+02 0.  0.
         23    2    4    4    0    0 -0.38738179024E+03  0.41554825748E+03  0.31083740643E+02  0.57646400356E+03  0.92733719678E+02 0.  0.
         11    1    3    3    0    0  0.34900505669E+02 -0.67512458171E+02 -0.23606215655E+03  0.24799459482E+03  0.00000000000E+00 0. -1.
        -11    1    3    3    0    0  0.31912527998E+03 -0.23919854085E+03 -0.94108612253E+03  0.10221056581E+04  0.00000000000E+00 0.  1.
          3    1    5    5  502    0  0.58085075228E+02 -0.80653138434E+02  0.32210703749E+03  0.33709308552E+03  0.00000000000E+00 0. -1.
          3    1    6    6  503    0 -0.33835663913E+03  0.30905393386E+03  0.19787775374E+02  0.45868410190E+03  0.00000000000E+00 0. -1.
         -3    1    5    5    0  502 -0.24729070644E+02 -0.28184120024E+02  0.27715224155E+03  0.27967702185E+03  0.00000000000E+00 0.  1.
         -3    1    6    6    0  503 -0.49025151102E+02  0.10649432362E+03  0.11295965269E+02  0.11777990166E+03  0.00000000000E+00 0.  1.
<mgrwt>
<rscale>  0 0.24018785E+04</rscale>
<asrwt>0</asrwt>
<pdfrwt beam="1">  1        2 0.23154920E+00 0.24018785E+04</pdfrwt>
<pdfrwt beam="2">  1       -2 0.14742532E+00 0.24018785E+04</pdfrwt>
<totfact> 0.35569477E+00</totfact>
</mgrwt>
</event>
<event>
12    1  0.4967442E-008  0.4041127E+04  0.7818608E-02  0.7996301E-01
         -2   -1    0    0    0  501 -0.00000000000E+00  0.00000000000E+00  0.16138537199E+04  0.16138537199E+04  0.00000000000E+00 0.  1.
          2   -1    0    0  501    0  0.00000000000E+00 -0.00000000000E+00 -0.25297689934E+04  0.25297689934E+04  0.00000000000E+00 0. -1.
         23    2    1    2    0    0  0.35189842703E+03 -0.18863058232E+04 -0.42500821099E+03  0.19673720277E+04  0.89098566748E+02 0.  0.
        254    2    1    2    0    0 -0.35189842703E+03  0.18863058232E+04 -0.49090706241E+03  0.21762506856E+04  0.90171788321E+03 0.  0.
         23    2    4    4    0    0 -0.62970015348E+03  0.10216184749E+04 -0.21411358042E+03  0.12225228823E+04  0.92146518065E+02 0.  0.
         23    2    4    4    0    0  0.27780172645E+03  0.86468734829E+03 -0.27679348199E+03  0.95372780329E+03  0.90133687242E+02 0.  0.
         11    1    3    3    0    0  0.64773678428E+00 -0.11869105623E+03 -0.29606816414E+02  0.12232967739E+03  0.00000000000E+00 0.  1.
        -11    1    3    3    0    0  0.35125069024E+03 -0.17676147670E+04 -0.39540139458E+03  0.18450423504E+04  0.00000000000E+00 0. -1.
          2    1    5    5  502    0 -0.19484179068E+02  0.11955023467E+02 -0.11218432037E+02  0.25463877109E+02  0.00000000000E+00 0. -1.
          1    1    6    6  503    0  0.11239965385E+03  0.46428939486E+03 -0.11555455236E+03  0.49147856407E+03  0.00000000000E+00 0. -1.
         -2    1    5    5    0  502 -0.61021597441E+03  0.10096634514E+04 -0.20289514838E+03  0.11970590052E+04  0.00000000000E+00 0.  1.
         -1    1    6    6    0  503  0.16540207260E+03  0.40039795343E+03 -0.16123892963E+03  0.46224923922E+03  0.00000000000E+00 0.  1.
<mgrwt>
<rscale>  0 0.40411271E+04</rscale>
<asrwt>0</asrwt>
<pdfrwt beam="1">  1        2 0.38919523E+00 0.40411271E+04</pdfrwt>
<pdfrwt beam="2">  1       -2 0.24828519E+00 0.40411271E+04</pdfrwt>
<totfact> 0.17318039E-01</totfact>
</mgrwt>
</event>
<event>
12    1  0.6577251E-008  0.2783875E+04  0.7818608E-02  0.8308292E-01
          2   -1    0    0  501    0  0.00000000000E+00  0.00000000000E+00  0.11009146174E+04  0.11009146174E+04  0.00000000000E+00 0. -1.
         -2   -1    0    0    0  501 -0.00000000000E+00 -0.00000000000E+00 -0.17598917247E+04  0.17598917247E+04  0.00000000000E+00 0.  1.
         23    2    1    2    0    0 -0.67312730450E+03 -0.10346173591E+04 -0.46283195968E+03  0.13215207963E+04  0.93114684151E+02 0.  0.
        254    2    1    2    0    0  0.67312730450E+03  0.10346173591E+04 -0.19614514760E+03  0.15392855458E+04  0.89855084700E+03 0.  0.
         23    2    4    4    0    0  0.20997136797E+03  0.10107907057E+04 -0.23714654454E+03  0.10631820812E+04  0.91278848522E+02 0.  0.
         23    2    4    4    0    0  0.46315593652E+03  0.23826653437E+02  0.41001396939E+02  0.47610346455E+03  0.99560350832E+02 0.  0.
         13    1    3    3    0    0  0.50351840652E+00 -0.47035259882E+01  0.30609075857E+01  0.56343449269E+01  0.00000000000E+00 0. -1.
        -13    1    3    3    0    0 -0.67363082290E+03 -0.10299138331E+04 -0.46589286727E+03  0.13158864514E+04  0.00000000000E+00 0.  1.
          2    1    5    5  502    0  0.19234973520E+03  0.94043684862E+03 -0.19571529881E+03  0.97965522765E+03  0.00000000000E+00 0. -1.
          1    1    6    6  503    0  0.45263552808E+03  0.65488021080E+01  0.31565227926E+02  0.45378207513E+03  0.00000000000E+00 0. -1.
         -2    1    5    5    0  502  0.17621632774E+02  0.70353857036E+02 -0.41431245724E+02  0.83526853548E+02  0.00000000000E+00 0.  1.
         -1    1    6    6    0  503  0.10520408440E+02  0.17277851329E+02  0.94361690128E+01  0.22321389426E+02  0.00000000000E+00 0.  1.
<mgrwt>
<rscale>  0 0.27838754E+04</rscale>
<asrwt>0</asrwt>
<pdfrwt beam="1">  1        2 0.16937148E+00 0.27838754E+04</pdfrwt>
<pdfrwt beam="2">  1       -2 0.27075257E+00 0.27838754E+04</pdfrwt>
<totfact> 0.90911836E-01</totfact>
</mgrwt>
</event>
<event>
12    1  0.4967442E-008  0.1335359E+04  0.7818608E-02  0.9001986E-01
          2   -1    0    0  501    0  0.00000000000E+00  0.00000000000E+00  0.15064183151E+04  0.15064183151E+04  0.00000000000E+00 0. -1.
         -2   -1    0    0    0  501 -0.00000000000E+00 -0.00000000000E+00 -0.29593115375E+03  0.29593115375E+03  0.00000000000E+00 0.  1.
         23    2    1    2    0    0 -0.17681334585E+03  0.14078898828E+03 -0.47985780354E+02  0.24997488846E+03  0.95395551534E+02 0.  0.
        254    2    1    2    0    0  0.17681334585E+03 -0.14078898828E+03  0.12584729417E+04  0.15523745804E+04  0.88035685626E+03 0.  0.
         23    2    4    4    0    0 -0.32651941042E+03 -0.13577691936E+02  0.27515352591E+03  0.43690577620E+03  0.91530953000E+02 0.  0.
         23    2    4    4    0    0  0.50333275627E+03 -0.12721129634E+03  0.98331941584E+03  0.11154688042E+04  0.88470346449E+02 0.  0.
         13    1    3    3    0    0 -0.61681348382E+02 -0.19425377134E+01 -0.16859969202E+02  0.63973594182E+02  0.00000000000E+00 0. -1.
        -13    1    3    3    0    0 -0.11513199747E+03  0.14273152599E+03 -0.31125811151E+02  0.18600129428E+03  0.00000000000E+00 0.  1.
          4    1    5    5  502    0 -0.15287793105E+03  0.30372546275E+02  0.16323212197E+03  0.22569643111E+03  0.00000000000E+00 0. -1.
          4    1    6    6  503    0  0.24742529192E+03 -0.17445281425E+02  0.47652189926E+03  0.53721200042E+03  0.00000000000E+00 0.  1.
         -4    1    5    5    0  502 -0.17364147937E+03 -0.43950238211E+02  0.11192140393E+03  0.21120934509E+03  0.00000000000E+00 0.  1.
         -4    1    6    6    0  503  0.25590746434E+03 -0.10976601492E+03  0.50679751658E+03  0.57825680381E+03  0.00000000000E+00 0. -1.
<mgrwt>
<rscale>  0 0.13353593E+04</rscale>
<asrwt>0</asrwt>
<pdfrwt beam="1">  1        2 0.23175666E+00 0.13353593E+04</pdfrwt>
<pdfrwt beam="2">  1       -2 0.45527871E-01 0.13353593E+04</pdfrwt>
<totfact> 0.56293220E+01</totfact>
</mgrwt>
</event>
<event>
12    1  0.4967442E-008  0.2403198E+04  0.7818608E-02  0.8438307E-01
         -1   -1    0    0    0  501 -0.00000000000E+00  0.00000000000E+00  0.13243265122E+04  0.13243265122E+04  0.00000000000E+00 0.  1.
          1   -1    0    0  501    0  0.00000000000E+00 -0.00000000000E+00 -0.10902446799E+04  0.10902446799E+04  0.00000000000E+00 0. -1.
         23    2    1    2    0    0 -0.85454587824E+03  0.79184290248E+01 -0.47850466765E+03  0.98351649224E+03  0.89591372438E+02 0.  0.
        254    2    1    2    0    0  0.85454587824E+03 -0.79184290248E+01  0.71258649991E+03  0.14310546999E+04  0.89990370302E+03 0.  0.
         23    2    4    4    0    0  0.42144279002E+03  0.32695773482E+03  0.17658547446E+02  0.54162584078E+03  0.92365261218E+02 0.  0.
         23    2    4    4    0    0  0.43310308822E+03 -0.33487616384E+03  0.69492795246E+03  0.88942885912E+03  0.91861342165E+02 0.  0.
         11    1    3    3    0    0 -0.84095251879E+03 -0.97216154860E+00 -0.47790737869E+03  0.96726291491E+03  0.00000000000E+00 0. -1.
        -11    1    3    3    0    0 -0.13593359448E+02  0.88905905735E+01 -0.59728895548E+00  0.16253577327E+02  0.00000000000E+00 0.  1.
          4    1    5    5  502    0  0.21495017548E+03  0.11093048976E+03  0.20667334841E+02  0.24276797611E+03  0.00000000000E+00 0. -1.
          1    1    6    6  503    0  0.24369758609E+03 -0.23035204143E+03  0.46985216652E+03  0.57724486558E+03  0.00000000000E+00 0. -1.
         -4    1    5    5    0  502  0.20649261454E+03  0.21602724506E+03 -0.30087873945E+01  0.29885786466E+03  0.00000000000E+00 0.  1.
         -1    1    6    6    0  503  0.18940550213E+03 -0.10452412242E+03  0.22507578594E+03  0.31218399353E+03  0.00000000000E+00 0.  1.
<mgrwt>
<rscale>  0 0.24031978E+04</rscale>
<asrwt>0</asrwt>
<pdfrwt beam="1">  1        1 0.16772995E+00 0.24031978E+04</pdfrwt>
<pdfrwt beam="2">  1       -1 0.20374254E+00 0.24031978E+04</pdfrwt>
<totfact> 0.16386415E+00</totfact>
</mgrwt>
</event>
<event>
12    1  0.4967442E-008  0.1781137E+04  0.7818608E-02  0.8716395E-01
          2   -1    0    0  501    0  0.00000000000E+00  0.00000000000E+00  0.19315458268E+04  0.19315458268E+04  0.00000000000E+00 0. -1.
         -2   -1    0    0    0  501 -0.00000000000E+00 -0.00000000000E+00 -0.41061011778E+03  0.41061011778E+03  0.00000000000E+00 0.  1.
         23    2    1    2    0    0  0.64236509125E+03 -0.56802279125E+02  0.48544954412E+03  0.81207799707E+03  0.89162795289E+02 0.  0.
        254    2    1    2    0    0 -0.64236509125E+03  0.56802279125E+02  0.10354861649E+04  0.15300779475E+04  0.92360571588E+03 0.  0.
         23    2    4    4    0    0 -0.55536842925E+02 -0.35411124406E+03  0.53820597312E+03  0.65326116629E+03  0.92765121634E+02 0.  0.
         23    2    4    4    0    0 -0.58682824833E+03  0.41091352319E+03  0.49728019183E+03  0.87681678126E+03  0.91119493764E+02 0.  0.
         13    1    3    3    0    0  0.49943960964E+03 -0.44340554618E+02  0.32847109179E+03  0.59941577107E+03  0.00000000000E+00 0.  1.
        -13    1    3    3    0    0  0.14292548161E+03 -0.12461724507E+02  0.15697845234E+03  0.21266222600E+03  0.00000000000E+00 0. -1.
          3    1    6    6  502    0 -0.39439127368E+03  0.26722532294E+03  0.38085414782E+03  0.60992108661E+03  0.00000000000E+00 0. -1.
          3    1    5    5  503    0 -0.60084533528E+02 -0.35509114944E+03  0.53928892870E+03  0.64848471393E+03  0.00000000000E+00 0. -1.
         -3    1    5    5    0  503  0.45476906023E+01  0.97990538192E+00 -0.10829555819E+01  0.47764523618E+01  0.00000000000E+00 0.  1.
         -3    1    6    6    0  502 -0.19243697465E+03  0.14368820024E+03  0.11642604400E+03  0.26689569465E+03  0.00000000000E+00 0.  1.
<mgrwt>
<rscale>  0 0.17811370E+04</rscale>
<asrwt>0</asrwt>
<pdfrwt beam="1">  1        2 0.29716089E+00 0.17811370E+04</pdfrwt>
<pdfrwt beam="2">  1       -2 0.63170788E-01 0.17811370E+04</pdfrwt>
<totfact> 0.16004526E+01</totfact>
</mgrwt>
</event>
<event>
12    1  0.4967442E-008  0.1082243E+04  0.7818608E-02  0.9222674E-01
          1   -1    0    0  501    0  0.00000000000E+00  0.00000000000E+00  0.33054528156E+03  0.33054528156E+03  0.00000000000E+00 0. -1.
         -1   -1    0    0    0  501 -0.00000000000E+00 -0.00000000000E+00 -0.88584715985E+03  0.88584715985E+03  0.00000000000E+00 0.  1.
         23    2    1    2    0    0 -0.29612180132E+01  0.14431882714E+03 -0.83004964232E+02  0.18891048232E+03  0.89222494736E+02 0.  0.
        254    2    1    2    0    0  0.29612180132E+01 -0.14431882714E+03 -0.47229691406E+03  0.10274819591E+04  0.90100949414E+03 0.  0.
         23    2    4    4    0    0 -0.17154810138E+03 -0.19330026985E+03 -0.68266851223E+03  0.73577781723E+03  0.92406457188E+02 0.  0.
         23    2    4    4    0    0  0.17450931939E+03  0.48981442714E+02  0.21037159817E+03  0.29170414185E+03  0.89344349386E+02 0.  0.
         13    1    3    3    0    0 -0.16918967064E+02  0.89935093188E+02 -0.35009712656E+01  0.91579633288E+02  0.00000000000E+00 0. -1.
        -13    1    3    3    0    0  0.13957749051E+02  0.54383733948E+02 -0.79503992966E+02  0.97330849037E+02  0.00000000000E+00 0.  1.
          2    1    5    5  502    0 -0.10405695912E+03 -0.15087188322E+03 -0.56220758499E+03  0.59132693538E+03  0.00000000000E+00 0.  1.
          3    1    6    6  503    0  0.13987763282E+01  0.23410634563E+02  0.95059242939E+01  0.25305670956E+02  0.00000000000E+00 0. -1.
         -2    1    5    5    0  502 -0.67491142264E+02 -0.42428386634E+02 -0.12046092724E+03  0.14445088185E+03  0.00000000000E+00 0. -1.
         -3    1    6    6    0  503  0.17311054307E+03  0.25570808151E+02  0.20086567388E+03  0.26639847089E+03  0.00000000000E+00 0.  1.
<mgrwt>
<rscale>  0 0.10822432E+04</rscale>
<asrwt>0</asrwt>
<pdfrwt beam="1">  1        1 0.50853120E-01 0.10822432E+04</pdfrwt>
<pdfrwt beam="2">  1       -1 0.13628418E+00 0.10822432E+04</pdfrwt>
<totfact> 0.34637857E+01</totfact>
</mgrwt>
</event>
<event>
12    1  0.4967442E-008  0.1649090E+04  0.7818608E-02  0.8790945E-01
          2   -1    0    0  501    0  0.00000000000E+00  0.00000000000E+00  0.16569330626E+04  0.16569330626E+04  0.00000000000E+00 0. -1.
         -2   -1    0    0    0  501 -0.00000000000E+00 -0.00000000000E+00 -0.41032105045E+03  0.41032105045E+03  0.00000000000E+00 0.  1.
         23    2    1    2    0    0  0.20643595592E+03 -0.47072609621E+03  0.33889354456E+03  0.62246692027E+03  0.91746230110E+02 0.  0.
        254    2    1    2    0    0 -0.20643595592E+03  0.47072609621E+03  0.90771846762E+03  0.14447871928E+04  0.99962910849E+03 0.  0.
         23    2    4    4    0    0 -0.47722971736E+03  0.53714038594E+03  0.89543970626E+03  0.11517282489E+04  0.91638935331E+02 0.  0.
         23    2    4    4    0    0  0.27079376145E+03 -0.66414289736E+02  0.12278761364E+02  0.29305894391E+03  0.89401663872E+02 0.  0.
         13    1    3    3    0    0  0.15656081077E+03 -0.40466626324E+03  0.24899072507E+03  0.50026238440E+03  0.00000000000E+00 0. -1.
        -13    1    3    3    0    0  0.49875145152E+02 -0.66059832968E+02  0.89902819490E+02  0.12220453587E+03  0.00000000000E+00 0.  1.
          1    1    5    5  502    0 -0.22105255690E+03  0.23073717971E+03  0.32888143631E+03  0.45854866499E+03  0.00000000000E+00 0. -1.
          3    1    6    6  503    0  0.16949384552E+03 -0.20818704217E+02  0.46200277243E+02  0.17690689000E+03  0.00000000000E+00 0. -1.
         -1    1    5    5    0  502 -0.25617716046E+03  0.30640320623E+03  0.56655826994E+03  0.69317958393E+03  0.00000000000E+00 0.  1.
         -3    1    6    6    0  503  0.10129991593E+03 -0.45595585519E+02 -0.33921515879E+02  0.11615205390E+03  0.00000000000E+00 0.  1.
<mgrwt>
<rscale>  0 0.16490901E+04</rscale>
<asrwt>0</asrwt>
<pdfrwt beam="1">  1        2 0.25491277E+00 0.16490901E+04</pdfrwt>
<pdfrwt beam="2">  1       -2 0.63126316E-01 0.16490901E+04</pdfrwt>
<totfact> 0.23013069E+01</totfact>
</mgrwt>
</event>
<event>
12    1  0.4967442E-008  0.2250773E+04  0.7818608E-02  0.8497588E-01
         -1   -1    0    0    0  501 -0.00000000000E+00  0.00000000000E+00  0.11910106986E+04  0.11910106986E+04  0.00000000000E+00 0.  1.
          1   -1    0    0  501    0  0.00000000000E+00 -0.00000000000E+00 -0.10633777629E+04  0.10633777629E+04  0.00000000000E+00 0. -1.
         23    2    1    2    0    0  0.64305996164E+03 -0.38796529501E+03  0.62275211437E+03  0.98185387262E+03  0.11033425048E+03 0.  0.
        254    2    1    2    0    0 -0.64305996164E+03  0.38796529501E+03 -0.49511917866E+03  0.12725345888E+04  0.90008782590E+03 0.  0.
         23    2    4    4    0    0  0.15777463839E+03  0.29527912914E+03 -0.62359257218E+02  0.35317932543E+03  0.93618151690E+02 0.  0.
         23    2    4    4    0    0 -0.80083460003E+03  0.92686165867E+02 -0.43275992144E+03  0.91935526342E+03  0.89477197172E+02 0.  0.
         13    1    3    3    0    0  0.63342016957E+03 -0.37389778907E+03  0.62425312456E+03  0.96473448752E+03  0.00000000000E+00 0. -1.
        -13    1    3    3    0    0  0.96397920711E+01 -0.14067505940E+02 -0.15010101915E+01  0.17119385098E+02  0.00000000000E+00 0.  1.
          2    1    5    5  502    0  0.75903323989E+02  0.22888594235E+03 -0.30519398806E+02  0.24306691034E+03  0.00000000000E+00 0. -1.
          1    1    6    6  503    0 -0.20807850446E+03 -0.46986105402E+00 -0.14690716088E+03  0.25471277688E+03  0.00000000000E+00 0. -1.
         -2    1    5    5    0  502  0.81871314401E+02  0.66393186794E+02 -0.31839858412E+02  0.11011241510E+03  0.00000000000E+00 0.  1.
         -1    1    6    6    0  503 -0.59275609557E+03  0.93156026921E+02 -0.28585276056E+03  0.66464248653E+03  0.00000000000E+00 0.  1.
<mgrwt>
<rscale>  0 0.22507726E+04</rscale>
<asrwt>0</asrwt>
<pdfrwt beam="1">  1        1 0.16359658E+00 0.22507726E+04</pdfrwt>
<pdfrwt beam="2">  1       -1 0.18323242E+00 0.22507726E+04</pdfrwt>
<totfact> 0.24208927E+00</totfact>
</mgrwt>
</event>
<event>
12    1  0.4967442E-008  0.1818324E+04  0.7818608E-02  0.8696615E-01
          1   -1    0    0  501    0  0.00000000000E+00  0.00000000000E+00  0.67921012435E+03  0.67921012435E+03  0.00000000000E+00 0. -1.
         -1   -1    0    0    0  501 -0.00000000000E+00 -0.00000000000E+00 -0.12169656628E+04  0.12169656628E+04  0.00000000000E+00 0.  1.
         23    2    1    2    0    0 -0.56259427353E+03 -0.11906405317E+01 -0.55141808016E+03  0.79264703253E+03  0.87827585715E+02 0.  0.
        254    2    1    2    0    0  0.56259427353E+03  0.11906405317E+01  0.13662541674E+02  0.11035287547E+04  0.94924986861E+03 0.  0.
         23    2    4    4    0    0  0.55724877998E+03  0.33976863966E+03  0.22340700470E+03  0.69605675984E+03  0.92819135358E+02 0.  0.
         23    2    4    4    0    0  0.53454935528E+01 -0.33857799913E+03 -0.20974446303E+03  0.40747199481E+03  0.85889760657E+02 0.  0.
         13    1    3    3    0    0 -0.11018714513E+03  0.24050237299E+02 -0.76674536389E+02  0.13637670401E+03  0.00000000000E+00 0. -1.
        -13    1    3    3    0    0 -0.45240712841E+03 -0.25240877831E+02 -0.47474354377E+03  0.65627032852E+03  0.00000000000E+00 0.  1.
          2    1    5    5  502    0  0.50021973059E+03  0.28926155037E+03  0.22438433217E+03  0.61987123818E+03  0.00000000000E+00 0. -1.
          4    1    6    6  503    0  0.42217351737E+02 -0.24117034033E+03 -0.13868231766E+03  0.28138625246E+03  0.00000000000E+00 0. -1.
         -2    1    5    5    0  502  0.57029049389E+02  0.50507089289E+02 -0.97732746794E+00  0.76185521667E+02  0.00000000000E+00 0.  1.
         -4    1    6    6    0  503 -0.36871858184E+02 -0.97407658798E+02 -0.71062145367E+02  0.12608574234E+03  0.00000000000E+00 0.  1.
<mgrwt>
<rscale>  0 0.18183238E+04</rscale>
<asrwt>0</asrwt>
<pdfrwt beam="1">  1        1 0.10449387E+00 0.18183238E+04</pdfrwt>
<pdfrwt beam="2">  1       -1 0.18722548E+00 0.18183238E+04</pdfrwt>
<totfact> 0.49654550E+00</totfact>
</mgrwt>
</event>
<event>
12    1  0.4967442E-008  0.1573809E+04  0.7818608E-02  0.8836802E-01
         -2   -1    0    0    0  501 -0.00000000000E+00  0.00000000000E+00  0.66080794403E+03  0.66080794403E+03  0.00000000000E+00 0.  1.
          2   -1    0    0  501    0  0.00000000000E+00 -0.00000000000E+00 -0.93706249062E+03  0.93706249062E+03  0.00000000000E+00 0. -1.
         23    2    1    2    0    0 -0.19371578953E+03  0.25210726634E+03 -0.50529479126E+03  0.60548194659E+03  0.10100336984E+03 0.  0.
        254    2    1    2    0    0  0.19371578953E+03 -0.25210726634E+03  0.22904024467E+03  0.99238848807E+03  0.91175193814E+03 0.  0.
         23    2    4    4    0    0  0.31721166548E+03 -0.35225563865E+03  0.48016102058E+03  0.68097906490E+03  0.92035892331E+02 0.  0.
         23    2    4    4    0    0 -0.12349587596E+03  0.10014837231E+03 -0.25112077590E+03  0.31140942316E+03  0.92915321068E+02 0.  0.
         13    1    3    3    0    0 -0.15628617858E+03  0.19999755321E+03 -0.46487019909E+03  0.52964959445E+03  0.00000000000E+00 0. -1.
        -13    1    3    3    0    0 -0.37429610944E+02  0.52109713135E+02 -0.40424592173E+02  0.75832352138E+02  0.00000000000E+00 0.  1.
          4    1    5    5  502    0  0.27176587851E+03 -0.32439228849E+03  0.45703682215E+03  0.62287214287E+03  0.00000000000E+00 0.  1.
          1    1    6    6  503    0 -0.57789169562E+02 -0.58633029915E+01 -0.62921673243E+02  0.85633541351E+02  0.00000000000E+00 0. -1.
         -4    1    5    5    0  502  0.45445786978E+02 -0.27863350157E+02  0.23124198421E+02  0.58106922037E+02  0.00000000000E+00 0. -1.
         -1    1    6    6    0  503 -0.65706706395E+02  0.10601167530E+03 -0.18819910266E+03  0.22577588181E+03  0.00000000000E+00 0.  1.
<mgrwt>
<rscale>  0 0.15738085E+04</rscale>
<asrwt>0</asrwt>
<pdfrwt beam="1">  1        2 0.14416346E+00 0.15738085E+04</pdfrwt>
<pdfrwt beam="2">  1       -2 0.10166276E+00 0.15738085E+04</pdfrwt>
<totfact> 0.21134526E+01</totfact>
</mgrwt>
</event>
<event>
12    1  0.4967442E-008  0.1253665E+04  0.7818608E-02  0.9067138E-01
          1   -1    0    0  501    0  0.00000000000E+00  0.00000000000E+00  0.19917290254E+04  0.19917290254E+04  0.00000000000E+00 0. -1.
         -1   -1    0    0    0  501 -0.00000000000E+00 -0.00000000000E+00 -0.19727529483E+03  0.19727529483E+03  0.00000000000E+00 0.  1.
         23    2    1    2    0    0 -0.12568576539E+03  0.14162398897E+03  0.43203586973E+02  0.21378921671E+03  0.89358902093E+02 0.  0.
        254    2    1    2    0    0  0.12568576539E+03 -0.14162398897E+03  0.17512501436E+04  0.19752151035E+04  0.89372443957E+03 0.  0.
         23    2    4    4    0    0  0.47516565413E+03 -0.30627842969E+02  0.65106472680E+03  0.81202777763E+03  0.93719632566E+02 0.  0.
         23    2    4    4    0    0 -0.34947988875E+03 -0.11099614600E+03  0.11001854168E+04  0.11631873259E+04  0.90224535045E+02 0.  0.
         11    1    3    3    0    0 -0.56279205076E+02  0.20608638945E+02  0.43882266911E+02  0.74281345387E+02  0.00000000000E+00 0. -1.
        -11    1    3    3    0    0 -0.69406560309E+02  0.12101535002E+03 -0.67867993772E+00  0.13950787133E+03  0.00000000000E+00 0.  1.
          2    1    5    5  502    0  0.20603866147E+03 -0.59793214599E+02  0.29336861360E+03  0.36344504671E+03  0.00000000000E+00 0. -1.
          1    1    6    6  503    0 -0.23335036760E+03 -0.31557388638E+02  0.63842102420E+03  0.68046283292E+03  0.00000000000E+00 0. -1.
         -2    1    5    5    0  502  0.26912699266E+03  0.29165371630E+02  0.35769611319E+03  0.44858273091E+03  0.00000000000E+00 0.  1.
         -1    1    6    6    0  503 -0.11612952115E+03 -0.79438757362E+02  0.46176439262E+03  0.48272449300E+03  0.00000000000E+00 0.  1.
<mgrwt>
<rscale>  0 0.12536649E+04</rscale>
<asrwt>0</asrwt>
<pdfrwt beam="1">  1        1 0.30641984E+00 0.12536649E+04</pdfrwt>
<pdfrwt beam="2">  1       -1 0.30350047E-01 0.12536649E+04</pdfrwt>
<totfact> 0.29798999E+01</totfact>
</mgrwt>
</event>
<event>
12    1  0.4967442E-008  0.1325765E+04  0.7818608E-02  0.9009379E-01
          2   -1    0    0  501    0  0.00000000000E+00  0.00000000000E+00  0.17730148696E+04  0.17730148696E+04  0.00000000000E+00 0. -1.
         -2   -1    0    0    0  501 -0.00000000000E+00 -0.00000000000E+00 -0.24783405654E+03  0.24783405654E+03  0.00000000000E+00 0.  1.
         23    2    1    2    0    0 -0.24239604293E+03 -0.19384162162E+03  0.65452472199E+03  0.73010352887E+03  0.91203811752E+02 0.  0.
        254    2    1    2    0    0  0.24239604293E+03  0.19384162162E+03  0.87065609110E+03  0.12907453973E+04  0.90091688616E+03 0.  0.
         23    2    4    4    0    0 -0.31337558051E+03  0.23841420531E+01  0.15658121402E+03  0.36145683158E+03  0.89013627724E+02 0.  0.
         23    2    4    4    0    0  0.55577162344E+03  0.19145747956E+03  0.71407487709E+03  0.92928856572E+03  0.90201132909E+02 0.  0.
         11    1    3    3    0    0 -0.22900603621E+03 -0.19377038660E+03  0.56610725110E+03  0.64067788091E+03  0.00000000000E+00 0. -1.
        -11    1    3    3    0    0 -0.13390006717E+02 -0.71235017779E-01  0.88417470891E+02  0.89425647960E+02  0.00000000000E+00 0.  1.
          4    1    5    5  502    0 -0.30469194125E+03 -0.13949269835E+02  0.13652322516E+03  0.33417114208E+03  0.00000000000E+00 0. -1.
          3    1    6    6  503    0  0.54136309079E+03  0.19895491451E+03  0.70431727190E+03  0.91034052616E+03  0.00000000000E+00 0. -1.
         -4    1    5    5    0  502 -0.86836392647E+01  0.16333411888E+02  0.20057988856E+02  0.27285689504E+02  0.00000000000E+00 0.  1.
         -3    1    6    6    0  503  0.14408532654E+02 -0.74974349441E+01  0.97576051887E+01  0.18948039556E+02  0.00000000000E+00 0.  1.
<mgrwt>
<rscale>  0 0.13257654E+04</rscale>
<asrwt>0</asrwt>
<pdfrwt beam="1">  1        2 0.27277151E+00 0.13257654E+04</pdfrwt>
<pdfrwt beam="2">  1       -2 0.38128318E-01 0.13257654E+04</pdfrwt>
<totfact> 0.56754361E+01</totfact>
</mgrwt>
</event>
<event>
12    1  0.4967442E-008  0.2742851E+04  0.7818608E-02  0.8321234E-01
          2   -1    0    0  501    0  0.00000000000E+00  0.00000000000E+00  0.36795090953E+04  0.36795090953E+04  0.00000000000E+00 0. -1.
         -2   -1    0    0    0  501 -0.00000000000E+00 -0.00000000000E+00 -0.51115725311E+03  0.51115725311E+03  0.00000000000E+00 0.  1.
         23    2    1    2    0    0  0.76141445549E+03 -0.54076272009E+03  0.21100282493E+03  0.96101663910E+03  0.82791883912E+02 0.  0.
        254    2    1    2    0    0 -0.76141445549E+03  0.54076272009E+03  0.29573490173E+04  0.32296497093E+04  0.90141430125E+03 0.  0.
         23    2    4    4    0    0 -0.64610419830E+03  0.63501844203E+03  0.29088638696E+04  0.30480196543E+04  0.90751003163E+02 0.  0.
         23    2    4    4    0    0 -0.11531025719E+03 -0.94255721941E+02  0.48485147713E+02  0.18163005502E+03  0.91967770485E+02 0.  0.
         11    1    3    3    0    0  0.13525713459E+03 -0.64470510129E+02  0.50281716970E+02  0.15804806293E+03  0.00000000000E+00 0. -1.
        -11    1    3    3    0    0  0.62615732090E+03 -0.47629220996E+03  0.16072110796E+03  0.80296857618E+03  0.00000000000E+00 0.  1.
          1    1    6    6  502    0 -0.26747674702E+02 -0.77011747410E+01 -0.25186413673E+02  0.37538002451E+02  0.00000000000E+00 0. -1.
          1    1    5    5  503    0 -0.17836827554E+03  0.22903334629E+03  0.86938723581E+03  0.91657279101E+03  0.00000000000E+00 0. -1.
         -1    1    5    5    0  503 -0.46773592276E+03  0.40598509573E+03  0.20394766338E+04  0.21314468633E+04  0.00000000000E+00 0.  1.
         -1    1    6    6    0  502 -0.88562582486E+02 -0.86554547200E+02  0.73671561386E+02  0.14409205257E+03  0.00000000000E+00 0.  1.
<mgrwt>
<rscale>  0 0.27428509E+04</rscale>
<asrwt>0</asrwt>
<pdfrwt beam="1">  1        2 0.56607831E+00 0.27428509E+04</pdfrwt>
<pdfrwt beam="2">  1       -2 0.78639580E-01 0.27428509E+04</pdfrwt>
<totfact> 0.75929571E-01</totfact>
</mgrwt>
</event>
<event>
12    1  0.4967442E-008  0.1800987E+04  0.7818608E-02  0.8705775E-01
         -1   -1    0    0    0  501 -0.00000000000E+00  0.00000000000E+00  0.15238396778E+04  0.15238396778E+04  0.00000000000E+00 0.  1.
          1   -1    0    0  501    0  0.00000000000E+00 -0.00000000000E+00 -0.53213493075E+03  0.53213493075E+03  0.00000000000E+00 0. -1.
         23    2    1    2    0    0  0.43716276458E+03 -0.46482063482E+03  0.91647305546E+02  0.65070601883E+03  0.88597906519E+02 0.  0.
        254    2    1    2    0    0 -0.43716276458E+03  0.46482063482E+03  0.90005744149E+03  0.14052685897E+04  0.87034872663E+03 0.  0.
         23    2    4    4    0    0 -0.32930248046E+03  0.58495140072E+03  0.23817642202E+03  0.71791142650E+03  0.89780529308E+02 0.  0.
         23    2    4    4    0    0 -0.10786028412E+03 -0.12013076590E+03  0.66188101947E+03  0.68735716321E+03  0.91149021259E+02 0.  0.
         13    1    3    3    0    0  0.18471281834E+03 -0.25744385913E+03  0.59859981214E+02  0.32245834338E+03  0.00000000000E+00 0.  1.
        -13    1    3    3    0    0  0.25244994624E+03 -0.20737677569E+03  0.31787324332E+02  0.32824767545E+03  0.00000000000E+00 0. -1.
          2    1    5    5  502    0 -0.27865801752E+03  0.43534836305E+03  0.20766403995E+03  0.55704832953E+03  0.00000000000E+00 0. -1.
          3    1    6    6  503    0 -0.64441354217E+02 -0.12264471411E+03  0.55349330070E+03  0.57056923152E+03  0.00000000000E+00 0. -1.
         -2    1    5    5    0  502 -0.50644462944E+02  0.14960303767E+03  0.30512382064E+02  0.16086309697E+03  0.00000000000E+00 0.  1.
         -3    1    6    6    0  503 -0.43418929903E+02  0.25139482095E+01  0.10838771877E+03  0.11678793169E+03  0.00000000000E+00 0.  1.
<mgrwt>
<rscale>  0 0.18009868E+04</rscale>
<asrwt>0</asrwt>
<pdfrwt beam="1">  1        1 0.81866913E-01 0.18009868E+04</pdfrwt>
<pdfrwt beam="2">  1       -1 0.23443687E+00 0.18009868E+04</pdfrwt>
<totfact> 0.33823546E+00</totfact>
</mgrwt>
</event>
<event>
12    1  0.4967442E-008  0.1249017E+04  0.7818608E-02  0.9071002E-01
         -1   -1    0    0    0  501 -0.00000000000E+00  0.00000000000E+00  0.96162430108E+03  0.96162430108E+03  0.00000000000E+00 0.  1.
          1   -1    0    0  501    0  0.00000000000E+00 -0.00000000000E+00 -0.40557517285E+03  0.40557517285E+03  0.00000000000E+00 0. -1.
         23    2    1    2    0    0 -0.16700236431E+03 -0.40990448230E+02  0.38395238364E+03  0.43051103467E+03  0.91380039085E+02 0.  0.
        254    2    1    2    0    0  0.16700236431E+03  0.40990448230E+02  0.17209674458E+03  0.93668843926E+03  0.90454294327E+03 0.  0.
         23    2    4    4    0    0  0.42030557275E+03  0.18477242029E+03  0.34900349980E+03  0.58369655405E+03  0.90003347417E+02 0.  0.
         23    2    4    4    0    0 -0.25330320844E+03 -0.14378197206E+03 -0.17690675522E+03  0.35299188521E+03  0.92040752327E+02 0.  0.
         13    1    3    3    0    0  0.43451831528E+00  0.99637043447E+01  0.73081153338E+02  0.73758519397E+02  0.00000000000E+00 0. -1.
        -13    1    3    3    0    0 -0.16743688263E+03 -0.50954152575E+02  0.31087123030E+03  0.35675251528E+03  0.00000000000E+00 0.  1.
          4    1    5    5  502    0  0.29543883023E+03  0.16765568913E+03  0.22904389549E+03  0.40969944907E+03  0.00000000000E+00 0. -1.
          3    1    6    6  503    0 -0.50376341437E+02  0.70582444964E+01 -0.16163436362E+02  0.53374631305E+02  0.00000000000E+00 0. -1.
         -4    1    5    5    0  502  0.12486674252E+03  0.17116731152E+02  0.11995960431E+03  0.17399710498E+03  0.00000000000E+00 0.  1.
         -3    1    6    6    0  503 -0.20292686700E+03 -0.15084021655E+03 -0.16074331886E+03  0.29961725391E+03  0.00000000000E+00 0.  1.
<mgrwt>
<rscale>  0 0.12490171E+04</rscale>
<asrwt>0</asrwt>
<pdfrwt beam="1">  1        1 0.62396180E-01 0.12490171E+04</pdfrwt>
<pdfrwt beam="2">  1       -1 0.14794220E+00 0.12490171E+04</pdfrwt>
<totfact> 0.21035884E+01</totfact>
</mgrwt>
</event>
<event>
12    1  0.4967442E-008  0.2521369E+04  0.7818608E-02  0.8395412E-01
          2   -1    0    0  501    0  0.00000000000E+00  0.00000000000E+00  0.14512462039E+04  0.14512462039E+04  0.00000000000E+00 0. -1.
         -2   -1    0    0    0  501 -0.00000000000E+00 -0.00000000000E+00 -0.10951454442E+04  0.10951454442E+04  0.00000000000E+00 0.  1.
         23    2    1    2    0    0  0.19312934915E+03  0.71720327601E+03  0.98306686942E+03  0.12355702650E+04  0.92379247609E+02 0.  0.
        254    2    1    2    0    0 -0.19312934915E+03 -0.71720327601E+03 -0.62696610969E+03  0.13108213831E+04  0.87948093270E+03 0.  0.
         23    2    4    4    0    0 -0.35979103440E+03 -0.79317462501E+03 -0.30208535551E+03  0.92648006948E+03  0.92380641643E+02 0.  0.
         23    2    4    4    0    0  0.16666168525E+03  0.75971348992E+02 -0.32488075418E+03  0.38434131359E+03  0.92859989748E+02 0.  0.
         11    1    3    3    0    0  0.17821774043E+03  0.60416978030E+03  0.87756838382E+03  0.10802356015E+04  0.00000000000E+00 0. -1.
        -11    1    3    3    0    0  0.14911608716E+02  0.11303349572E+03  0.10549848560E+03  0.15533466353E+03  0.00000000000E+00 0.  1.
          2    1    5    5  502    0 -0.66333691779E+02 -0.81362636897E+02 -0.22521791465E+02  0.10736511742E+03  0.00000000000E+00 0.  1.
          3    1    6    6  503    0  0.17400176932E+03  0.57873232106E+02 -0.30834444417E+03  0.35875092052E+03  0.00000000000E+00 0. -1.
         -2    1    5    5    0  502 -0.29345734262E+03 -0.71181198811E+03 -0.27956356404E+03  0.81911495206E+03  0.00000000000E+00 0. -1.
         -3    1    6    6    0  503 -0.73400840653E+01  0.18098116886E+02 -0.16536310006E+02  0.25590393071E+02  0.00000000000E+00 0.  1.
<mgrwt>
<rscale>  0 0.25213692E+04</rscale>
<asrwt>0</asrwt>
<pdfrwt beam="1">  1        2 0.22326865E+00 0.25213692E+04</pdfrwt>
<pdfrwt beam="2">  1       -2 0.16848391E+00 0.25213692E+04</pdfrwt>
<totfact> 0.26321761E+00</totfact>
</mgrwt>
</event>
<event>
12    1  0.4967442E-008  0.2364357E+04  0.7818608E-02  0.8452970E-01
         -2   -1    0    0    0  501 -0.00000000000E+00  0.00000000000E+00  0.48012551297E+03  0.48012551297E+03  0.00000000000E+00 0.  1.
          2   -1    0    0  501    0  0.00000000000E+00 -0.00000000000E+00 -0.29107928743E+04  0.29107928743E+04  0.00000000000E+00 0. -1.
         23    2    1    2    0    0  0.54183559913E+03  0.39345436359E+03 -0.21209991802E+04  0.22261615096E+04  0.93623670696E+02 0.  0.
        254    2    1    2    0    0 -0.54183559913E+03 -0.39345436359E+03 -0.30966818112E+03  0.11647568777E+04  0.90131684160E+03 0.  0.
         23    2    4    4    0    0 -0.53846862242E+03 -0.64312199122E+03 -0.31019244442E+03  0.89888904719E+03  0.90707296601E+02 0.  0.
         23    2    4    4    0    0 -0.33669767067E+01  0.24966762764E+03  0.52426330648E+00  0.26586783047E+03  0.91324518085E+02 0.  0.
         13    1    3    3    0    0  0.45279239807E+03  0.30718628526E+03 -0.18246680738E+04  0.19049404056E+04  0.00000000000E+00 0. -1.
        -13    1    3    3    0    0  0.89043201062E+02  0.86268078324E+02 -0.29633110643E+03  0.32122110396E+03  0.00000000000E+00 0.  1.
          2    1    5    5  502    0 -0.62779969420E+02 -0.42807783503E+02 -0.45178133482E+02  0.88401892704E+02  0.00000000000E+00 0. -1.
          4    1    6    6  503    0  0.30209477577E+01  0.99337468548E+02  0.44812661933E+02  0.10901941778E+03  0.00000000000E+00 0. -1.
         -2    1    5    5    0  502 -0.47568865300E+03 -0.60031420772E+03 -0.26501431094E+03  0.81048715449E+03  0.00000000000E+00 0.  1.
         -4    1    6    6    0  503 -0.63879244645E+01  0.15033015909E+03 -0.44288398627E+02  0.15684841269E+03  0.00000000000E+00 0.  1.
<mgrwt>
<rscale>  0 0.23643569E+04</rscale>
<asrwt>0</asrwt>
<pdfrwt beam="1">  1        2 0.44781431E+00 0.23643569E+04</pdfrwt>
<pdfrwt beam="2">  1       -2 0.73865460E-01 0.23643569E+04</pdfrwt>
<totfact> 0.29483033E+00</totfact>
</mgrwt>
</event>
<event>
12    1  0.4967442E-008  0.1594064E+04  0.7818608E-02  0.8824203E-01
         -1   -1    0    0    0  501 -0.00000000000E+00  0.00000000000E+00  0.81513185713E+03  0.81513185713E+03  0.00000000000E+00 0.  1.
          1   -1    0    0  501    0  0.00000000000E+00 -0.00000000000E+00 -0.77933442588E+03  0.77933442588E+03  0.00000000000E+00 0. -1.
         23    2    1    2    0    0 -0.22064571407E+03  0.16845250289E+03  0.48279607872E+03  0.56482007777E+03  0.94174783054E+02 0.  0.
        254    2    1    2    0    0  0.22064571407E+03 -0.16845250289E+03 -0.44699864747E+03  0.10296462052E+04  0.88504391996E+03 0.  0.
         23    2    4    4    0    0 -0.32959797994E+02 -0.87131094290E+01  0.24867277518E+03  0.26656745940E+03  0.89765220093E+02 0.  0.
         23    2    4    4    0    0  0.25360551207E+03 -0.15973939346E+03 -0.69567142265E+03  0.76307874584E+03  0.92184675989E+02 0.  0.
         13    1    3    3    0    0 -0.18763175323E+03  0.12584571637E+03  0.30850534000E+03  0.38238509902E+03  0.00000000000E+00 0.  1.
        -13    1    3    3    0    0 -0.33013960842E+02  0.42606786524E+02  0.17429073872E+03  0.18243497875E+03  0.00000000000E+00 0. -1.
          1    1    5    5  502    0 -0.15824561073E+02  0.27275672591E+02  0.27527292394E+02  0.41858462406E+02  0.00000000000E+00 0. -1.
          1    1    6    6  503    0  0.59848416649E+01  0.11182736533E+02 -0.29401707099E+02  0.32020810521E+02  0.00000000000E+00 0. -1.
         -1    1    5    5    0  502 -0.17135236921E+02 -0.35988782020E+02  0.22114548278E+03  0.22470899700E+03  0.00000000000E+00 0.  1.
         -1    1    6    6    0  503  0.24762067040E+03 -0.17092212999E+03 -0.66626971555E+03  0.73105793532E+03  0.00000000000E+00 0.  1.
<mgrwt>
<rscale>  0 0.15940644E+04</rscale>
<asrwt>0</asrwt>
<pdfrwt beam="1">  1        1 0.11989760E+00 0.15940644E+04</pdfrwt>
<pdfrwt beam="2">  1       -1 0.12540490E+00 0.15940644E+04</pdfrwt>
<totfact> 0.12289538E+01</totfact>
</mgrwt>
</event>
<event>
12    1  0.4967442E-008  0.1284637E+04  0.7818608E-02  0.9041838E-01
          2   -1    0    0  501    0  0.00000000000E+00  0.00000000000E+00  0.33154228207E+03  0.33154228207E+03  0.00000000000E+00 0. -1.
         -2   -1    0    0    0  501 -0.00000000000E+00 -0.00000000000E+00 -0.12444058548E+04  0.12444058548E+04  0.00000000000E+00 0.  1.
         23    2    1    2    0    0  0.69767265651E+01  0.22658416501E+03 -0.60815453989E+03  0.65539186520E+03  0.91090581458E+02 0.  0.
        254    2    1    2    0    0 -0.69767265651E+01 -0.22658416501E+03 -0.30470903284E+03  0.92055627167E+03  0.83856257731E+03 0.  0.
         23    2    4    4    0    0 -0.15960509634E+01 -0.48313347969E+03 -0.39855599007E+03  0.63270820336E+03  0.89734535174E+02 0.  0.
         23    2    4    4    0    0 -0.53806756018E+01  0.25654931468E+03  0.93846957226E+02  0.28784806831E+03  0.90569070406E+02 0.  0.
         11    1    3    3    0    0 -0.38043018659E+02  0.83436993056E+02 -0.18636016110E+03  0.20769957324E+03  0.00000000000E+00 0. -1.
        -11    1    3    3    0    0  0.45019745224E+02  0.14314717195E+03 -0.42179437879E+03  0.44769229195E+03  0.00000000000E+00 0.  1.
          2    1    5    5  502    0  0.55506501180E+01 -0.41524067596E+03 -0.37763786675E+03  0.56130739092E+03  0.00000000000E+00 0. -1.
          3    1    6    6  503    0  0.38337809238E+02  0.17328647479E+03  0.70375722725E+02  0.19092074877E+03  0.00000000000E+00 0. -1.
         -2    1    5    5    0  502 -0.71467010814E+01 -0.67892803731E+02 -0.20918123311E+02  0.71400812444E+02  0.00000000000E+00 0.  1.
         -3    1    6    6    0  503 -0.43718484840E+02  0.83262839898E+02  0.23471234501E+02  0.96927319542E+02  0.00000000000E+00 0.  1.
<mgrwt>
<rscale>  0 0.12846372E+04</rscale>
<asrwt>0</asrwt>
<pdfrwt beam="1">  1        2 0.51006504E-01 0.12846372E+04</pdfrwt>
<pdfrwt beam="2">  1       -2 0.19144706E+00 0.12846372E+04</pdfrwt>
<totfact> 0.14588628E+01</totfact>
</mgrwt>
</event>
<event>
12    1  0.4967442E-008  0.2200686E+04  0.7818608E-02  0.8518143E-01
         -2   -1    0    0    0  501 -0.00000000000E+00  0.00000000000E+00  0.22696481529E+04  0.22696481529E+04  0.00000000000E+00 0.  1.
          2   -1    0    0  501    0  0.00000000000E+00 -0.00000000000E+00 -0.53345459123E+03  0.53345459123E+03  0.00000000000E+00 0. -1.
         23    2    1    2    0    0 -0.14703590429E+03  0.48740289086E+03 -0.22741401546E+03  0.56512404287E+03  0.92015836908E+02 0.  0.
        254    2    1    2    0    0  0.14703590429E+03 -0.48740289086E+03  0.19636075772E+04  0.22379787013E+04  0.94531096214E+03 0.  0.
         23    2    4    4    0    0 -0.27617099428E+03  0.11296353213E+03  0.39238357067E+03  0.50118871207E+03  0.90521162689E+02 0.  0.
         23    2    4    4    0    0  0.42320689857E+03 -0.60036642298E+03  0.15712240065E+04  0.17367899892E+04  0.90281045855E+02 0.  0.
         11    1    3    3    0    0 -0.88539140655E+02  0.15705004581E+03 -0.10066029612E+03  0.20648581436E+03  0.00000000000E+00 0.  1.
        -11    1    3    3    0    0 -0.58496763631E+02  0.33035284504E+03 -0.12675371935E+03  0.35863822851E+03  0.00000000000E+00 0. -1.
          3    1    6    6  502    0  0.45797793333E+02 -0.12183550663E+03  0.25393850094E+03  0.28535257281E+03  0.00000000000E+00 0. -1.
          3    1    5    5  503    0 -0.13720023288E+03  0.65486312332E+02  0.27070279975E+03  0.31047120124E+03  0.00000000000E+00 0. -1.
         -3    1    5    5    0  503 -0.13897076140E+03  0.47477219797E+02  0.12168077092E+03  0.19071751082E+03  0.00000000000E+00 0.  1.
         -3    1    6    6    0  502  0.37740910523E+03 -0.47853091636E+03  0.13172855056E+04  0.14514374164E+04  0.00000000000E+00 0.  1.
<mgrwt>
<rscale>  0 0.22006856E+04</rscale>
<asrwt>0</asrwt>
<pdfrwt beam="1">  1        2 0.82069938E-01 0.22006856E+04</pdfrwt>
<pdfrwt beam="2">  1       -2 0.34917663E+00 0.22006856E+04</pdfrwt>
<totfact> 0.82256151E-01</totfact>
</mgrwt>
</event>
<event>
12    1  0.4967442E-008  0.1993155E+04  0.7818608E-02  0.8609828E-01
         -1   -1    0    0    0  501 -0.00000000000E+00  0.00000000000E+00  0.24664352291E+03  0.24664352291E+03  0.00000000000E+00 0.  1.
          1   -1    0    0  501    0  0.00000000000E+00 -0.00000000000E+00 -0.40267276838E+04  0.40267276838E+04  0.00000000000E+00 0. -1.
         23    2    1    2    0    0  0.10553313794E+03  0.77933401279E+03 -0.15567144893E+04  0.17465895052E+04  0.93360334209E+02 0.  0.
        254    2    1    2    0    0 -0.10553313794E+03 -0.77933401279E+03 -0.22233696716E+04  0.25267817015E+04  0.90705805962E+03 0.  0.
         23    2    4    4    0    0 -0.71427877235E+02 -0.45792058358E+03 -0.21251320684E+04  0.21769341333E+04  0.89792594459E+02 0.  0.
         23    2    4    4    0    0 -0.34105260702E+02 -0.32141342921E+03 -0.98237603215E+02  0.34984756818E+03  0.90955664975E+02 0.  0.
         11    1    3    3    0    0  0.30219960776E+02  0.56863059125E+02 -0.15497404132E+03  0.16782016269E+03  0.00000000000E+00 0. -1.
        -11    1    3    3    0    0  0.75313177161E+02  0.72247095366E+03 -0.14017404480E+04  0.15787693426E+04  0.00000000000E+00 0.  1.
          2    1    5    5  502    0 -0.70423191618E+02 -0.25724959177E+03 -0.13612474212E+04  0.13871306067E+04  0.00000000000E+00 0. -1.
          1    1    6    6  503    0  0.11346875004E+02 -0.72401099023E+02 -0.58179541951E+02  0.93570988099E+02  0.00000000000E+00 0. -1.
         -2    1    5    5    0  502 -0.10046856169E+01 -0.20067099181E+03 -0.76388464722E+03  0.78980352658E+03  0.00000000000E+00 0.  1.
         -1    1    6    6    0  503 -0.45452135706E+02 -0.24901233019E+03 -0.40058061263E+02  0.25627658008E+03  0.00000000000E+00 0.  1.
<mgrwt>
<rscale>  0 0.19931546E+04</rscale>
<asrwt>0</asrwt>
<pdfrwt beam="1">  1        1 0.61949651E+00 0.19931546E+04</pdfrwt>
<pdfrwt beam="2">  1       -1 0.37945161E-01 0.19931546E+04</pdfrwt>
<totfact> 0.57055245E-01</totfact>
</mgrwt>
</event>
<event>
12    1  0.4967442E-008  0.1744688E+04  0.7818608E-02  0.8736280E-01
          1   -1    0    0  501    0  0.00000000000E+00  0.00000000000E+00  0.35267930310E+03  0.35267930310E+03  0.00000000000E+00 0. -1.
         -1   -1    0    0    0  501 -0.00000000000E+00 -0.00000000000E+00 -0.21577213166E+04  0.21577213166E+04  0.00000000000E+00 0.  1.
         23    2    1    2    0    0  0.13745066005E+03  0.57095020790E+03 -0.31780091591E+03  0.67369579084E+03  0.89396714672E+02 0.  0.
        254    2    1    2    0    0 -0.13745066005E+03 -0.57095020790E+03 -0.14872410976E+04  0.18367048288E+04  0.90372657485E+03 0.  0.
         23    2    4    4    0    0 -0.10164594940E+03  0.18621421299E+03 -0.96291186900E+02  0.24980363256E+03  0.90123415485E+02 0.  0.
         23    2    4    4    0    0 -0.35804710657E+02 -0.75716442089E+03 -0.13909499107E+04  0.15869011963E+04  0.94518861400E+02 0.  0.
         13    1    3    3    0    0  0.10426755614E+01  0.32884063004E+01 -0.16219087421E+02  0.16581905352E+02  0.00000000000E+00 0.  1.
        -13    1    3    3    0    0  0.13640798449E+03  0.56766180160E+03 -0.30158182849E+03  0.65711388549E+03  0.00000000000E+00 0. -1.
          2    1    5    5  502    0  0.10681523425E+02  0.11990654278E+01 -0.15309628804E+02  0.18706080153E+02  0.00000000000E+00 0.  1.
          4    1    6    6  503    0 -0.40756445031E+02 -0.61925230055E+03 -0.10595656921E+04  0.12279307617E+04  0.00000000000E+00 0. -1.
         -2    1    5    5    0  502 -0.11232747282E+03  0.18501514756E+03 -0.80981558097E+02  0.23109755241E+03  0.00000000000E+00 0. -1.
         -4    1    6    6    0  503  0.49517343739E+01 -0.13791212033E+03 -0.33138421852E+03  0.35897043456E+03  0.00000000000E+00 0.  1.
<mgrwt>
<rscale>  0 0.17446875E+04</rscale>
<asrwt>0</asrwt>
<pdfrwt beam="1">  1        1 0.54258355E-01 0.17446875E+04</pdfrwt>
<pdfrwt beam="2">  1       -1 0.33195712E+00 0.17446875E+04</pdfrwt>
<totfact> 0.13770243E+00</totfact>
</mgrwt>
</event>
<event>
12    1  0.4967442E-008  0.1693012E+04  0.7818608E-02  0.8765360E-01
         -1   -1    0    0    0  501 -0.00000000000E+00  0.00000000000E+00  0.15218699345E+04  0.15218699345E+04  0.00000000000E+00 0.  1.
          1   -1    0    0  501    0  0.00000000000E+00 -0.00000000000E+00 -0.47084994838E+03  0.47084994838E+03  0.00000000000E+00 0. -1.
         23    2    1    2    0    0 -0.31461410353E+03  0.10512147388E+03 -0.20870256104E+03  0.40297380094E+03  0.93800676160E+02 0.  0.
        254    2    1    2    0    0  0.31461410353E+03 -0.10512147388E+03  0.12597225472E+04  0.15897460820E+04  0.91124044622E+03 0.  0.
         23    2    4    4    0    0  0.43998563985E+03  0.70649811376E+02  0.12759834959E+04  0.13546632783E+04  0.91651277333E+02 0.  0.
         23    2    4    4    0    0 -0.12537153632E+03 -0.17577128526E+03 -0.16260948686E+02  0.23508280370E+03  0.91574774364E+02 0.  0.
         11    1    3    3    0    0 -0.12887335051E+02  0.29003593267E+02 -0.32246705093E+02  0.45245351325E+02  0.00000000000E+00 0.  1.
        -11    1    3    3    0    0 -0.30172676848E+03  0.76117880613E+02 -0.17645585594E+03  0.35772844961E+03  0.00000000000E+00 0. -1.
          4    1    5    5  502    0  0.19839913137E+03  0.60928072155E+02  0.48470744179E+03  0.52727198810E+03  0.00000000000E+00 0. -1.
          1    1    6    6  503    0  0.70393355794E+01 -0.34912876354E+02  0.16073491112E+02  0.39074522355E+02  0.00000000000E+00 0. -1.
         -4    1    5    5    0  502  0.24158650848E+03  0.97217392218E+01  0.79127605407E+03  0.82739129016E+03  0.00000000000E+00 0.  1.
         -1    1    6    6    0  503 -0.13241087190E+03 -0.14085840890E+03 -0.32334439798E+02  0.19600828134E+03  0.00000000000E+00 0.  1.
<mgrwt>
<rscale>  0 0.16930120E+04</rscale>
<asrwt>0</asrwt>
<pdfrwt beam="1">  1        1 0.72438454E-01 0.16930120E+04</pdfrwt>
<pdfrwt beam="2">  1       -1 0.23413383E+00 0.16930120E+04</pdfrwt>
<totfact> 0.40623493E+00</totfact>
</mgrwt>
</event>
<event>
12    1  0.4967442E-008  0.1999565E+04  0.7818608E-02  0.8606824E-01
          2   -1    0    0  501    0  0.00000000000E+00  0.00000000000E+00  0.10971829246E+04  0.10971829246E+04  0.00000000000E+00 0. -1.
         -2   -1    0    0    0  501 -0.00000000000E+00 -0.00000000000E+00 -0.91102874077E+03  0.91102874077E+03  0.00000000000E+00 0.  1.
         23    2    1    2    0    0  0.17738519681E+03  0.23617545031E+03 -0.66107144430E+03  0.73016250290E+03  0.94220352380E+02 0.  0.
        254    2    1    2    0    0 -0.17738519681E+03 -0.23617545031E+03  0.84722562817E+03  0.12780491625E+04  0.91015056194E+03 0.  0.
         23    2    4    4    0    0 -0.37644437309E+03 -0.29537121990E+03  0.91837912621E+03  0.10394488824E+04  0.89884570968E+02 0.  0.
         23    2    4    4    0    0  0.19905917628E+03  0.59195769590E+02 -0.71153498044E+02  0.23860028011E+03  0.93480364703E+02 0.  0.
         11    1    3    3    0    0  0.17725824665E+02  0.87970986206E+02 -0.15330391315E+03  0.17763780302E+03  0.00000000000E+00 0. -1.
        -11    1    3    3    0    0  0.15965937214E+03  0.14820446410E+03 -0.50776753115E+03  0.55252469988E+03  0.00000000000E+00 0.  1.
          4    1    5    5  502    0 -0.33294878094E+03 -0.28359222224E+03  0.86730100590E+03  0.97133437810E+03  0.00000000000E+00 0. -1.
          1    1    6    6  503    0  0.90464176198E+02  0.13818935295E+02  0.15010943530E+02  0.92736500762E+02  0.00000000000E+00 0. -1.
         -4    1    5    5    0  502 -0.43495592148E+02 -0.11778997662E+02  0.51078120311E+02  0.68114504305E+02  0.00000000000E+00 0.  1.
         -1    1    6    6    0  503  0.10859500008E+03  0.45376834295E+02 -0.86164441574E+02  0.14586377935E+03  0.00000000000E+00 0.  1.
<mgrwt>
<rscale>  0 0.19995651E+04</rscale>
<asrwt>0</asrwt>
<pdfrwt beam="1">  1        2 0.16879737E+00 0.19995651E+04</pdfrwt>
<pdfrwt beam="2">  1       -2 0.14015827E+00 0.19995651E+04</pdfrwt>
<totfact> 0.72779679E+00</totfact>
</mgrwt>
</event>
<event>
12    1  0.4967442E-008  0.1557507E+04  0.7818608E-02  0.8847087E-01
         -2   -1    0    0    0  501 -0.00000000000E+00  0.00000000000E+00  0.34024309029E+03  0.34024309029E+03  0.00000000000E+00 0.  1.
          2   -1    0    0  501    0  0.00000000000E+00 -0.00000000000E+00 -0.17824215820E+04  0.17824215820E+04  0.00000000000E+00 0. -1.
         23    2    1    2    0    0 -0.25288291648E+03 -0.27903163480E+03 -0.66361474193E+01  0.38716016818E+03  0.89669028711E+02 0.  0.
        254    2    1    2    0    0  0.25288291648E+03  0.27903163480E+03 -0.14355423443E+04  0.17355045041E+04  0.89965862353E+03 0.  0.
         23    2    4    4    0    0  0.34477590769E+02  0.58109878582E+03 -0.89908944629E+03  0.10757338902E+04  0.99885269047E+02 0.  0.
         23    2    4    4    0    0  0.21840532571E+03 -0.30206715103E+03 -0.53645289800E+03  0.65977061391E+03  0.92574840935E+02 0.  0.
         13    1    3    3    0    0 -0.18145211328E+02 -0.21596449529E+02  0.24528323846E+02  0.37380395893E+02  0.00000000000E+00 0. -1.
        -13    1    3    3    0    0 -0.23473770515E+03 -0.25743518527E+03 -0.31164471266E+02  0.34977977229E+03  0.00000000000E+00 0.  1.
          3    1    5    5  502    0  0.62377854950E+02  0.51443830472E+03 -0.79703375892E+03  0.95068426884E+03  0.00000000000E+00 0. -1.
          3    1    6    6  503    0  0.42459445511E+02 -0.10434592788E+03 -0.22048837174E+03  0.24760048314E+03  0.00000000000E+00 0. -1.
         -3    1    5    5    0  502 -0.27900264182E+02  0.66660481097E+02 -0.10205568736E+03  0.12504962137E+03  0.00000000000E+00 0.  1.
         -3    1    6    6    0  503  0.17594588020E+03 -0.19772122315E+03 -0.31596452626E+03  0.41217013077E+03  0.00000000000E+00 0.  1.
<mgrwt>
<rscale>  0 0.15575065E+04</rscale>
<asrwt>0</asrwt>
<pdfrwt beam="1">  1        2 0.27421871E+00 0.15575065E+04</pdfrwt>
<pdfrwt beam="2">  1       -2 0.52345091E-01 0.15575065E+04</pdfrwt>
<totfact> 0.29241403E+01</totfact>
</mgrwt>
</event>
<event>
12    1  0.4967442E-008  0.1416566E+04  0.7818608E-02  0.8941914E-01
         -2   -1    0    0    0  501 -0.00000000000E+00  0.00000000000E+00  0.93482066174E+03  0.93482066174E+03  0.00000000000E+00 0.  1.
          2   -1    0    0  501    0  0.00000000000E+00 -0.00000000000E+00 -0.53664309107E+03  0.53664309107E+03  0.00000000000E+00 0. -1.
         23    2    1    2    0    0  0.17474050173E+03  0.77232961549E+02 -0.24426930231E+03  0.32304223841E+03  0.90496532819E+02 0.  0.
        254    2    1    2    0    0 -0.17474050173E+03 -0.77232961549E+02  0.64244687298E+03  0.11484215144E+04  0.93254212604E+03 0.  0.
         23    2    4    4    0    0 -0.16674814607E+03 -0.43620244214E+03  0.92221083666E+02  0.48504851815E+03  0.93219214431E+02 0.  0.
         23    2    4    4    0    0 -0.79923556561E+01  0.35896948059E+03  0.55022578931E+03  0.66337299625E+03  0.91609754849E+02 0.  0.
         11    1    3    3    0    0  0.18254969220E+03  0.65785071344E+02 -0.20920962173E+03  0.28534318208E+03  0.00000000000E+00 0. -1.
        -11    1    3    3    0    0 -0.78091904735E+01  0.11447890206E+02 -0.35059680572E+02  0.37699056325E+02  0.00000000000E+00 0.  1.
          2    1    5    5  502    0 -0.29219801189E+02 -0.21396056137E+02  0.22159134407E+02  0.42457216553E+02  0.00000000000E+00 0. -1.
          4    1    6    6  503    0  0.27955660585E+02  0.25341921048E+03  0.33506717890E+03  0.42103780065E+03  0.00000000000E+00 0. -1.
         -2    1    5    5    0  502 -0.13752834488E+03 -0.41480638600E+03  0.70061949259E+02  0.44259130160E+03  0.00000000000E+00 0.  1.
         -4    1    6    6    0  503 -0.35948016241E+02  0.10555027011E+03  0.21515861041E+03  0.24233519560E+03  0.00000000000E+00 0.  1.
<mgrwt>
<rscale>  0 0.14165663E+04</rscale>
<asrwt>0</asrwt>
<pdfrwt beam="1">  1        2 0.82560476E-01 0.14165663E+04</pdfrwt>
<pdfrwt beam="2">  1       -2 0.14381856E+00 0.14165663E+04</pdfrwt>
<totfact> 0.18432837E+01</totfact>
</mgrwt>
</event>
<event>
12    1  0.4967442E-008  0.1520000E+04  0.7818608E-02  0.8871261E-01
          1   -1    0    0  501    0  0.00000000000E+00  0.00000000000E+00  0.24384826513E+04  0.24384826513E+04  0.00000000000E+00 0. -1.
         -1   -1    0    0    0  501 -0.00000000000E+00 -0.00000000000E+00 -0.23686852741E+03  0.23686852741E+03  0.00000000000E+00 0.  1.
         23    2    1    2    0    0  0.48567919594E+03  0.87111196460E+01  0.64276653804E+03  0.81086271900E+03  0.91593458563E+02 0.  0.
        254    2    1    2    0    0 -0.48567919594E+03 -0.87111196460E+01  0.15588475858E+04  0.18644884597E+04  0.90019512081E+03 0.  0.
         23    2    4    4    0    0 -0.31200720111E+03  0.32079608312E+03  0.29522300168E+03  0.54399979048E+03  0.92306721462E+02 0.  0.
         23    2    4    4    0    0 -0.17367199483E+03 -0.32950720276E+03  0.12636245842E+04  0.13204886692E+04  0.90588506029E+02 0.  0.
         13    1    3    3    0    0  0.18644648268E+02  0.83641730087E+01  0.63873204119E+02  0.67062422441E+02  0.00000000000E+00 0. -1.
        -13    1    3    3    0    0  0.46703454767E+03  0.34694663725E+00  0.57889333393E+03  0.74380029656E+03  0.00000000000E+00 0.  1.
          4    1    5    5  502    0 -0.13989827950E+02 -0.53941769302E+01  0.77285206026E+01  0.16868386453E+02  0.00000000000E+00 0. -1.
          3    1    6    6  503    0  0.10732167561E+02 -0.25471270930E+02  0.83469938167E+02  0.87927217862E+02  0.00000000000E+00 0. -1.
         -4    1    5    5    0  502 -0.29801737316E+03  0.32619026005E+03  0.28749448108E+03  0.52713140402E+03  0.00000000000E+00 0.  1.
         -3    1    6    6    0  503 -0.18440416239E+03 -0.30403593183E+03  0.11801546460E+04  0.12325614514E+04  0.00000000000E+00 0.  1.
<mgrwt>
<rscale>  0 0.15199997E+04</rscale>
<asrwt>0</asrwt>
<pdfrwt beam="1">  1        1 0.37515116E+00 0.15199997E+04</pdfrwt>
<pdfrwt beam="2">  1       -1 0.36441314E-01 0.15199997E+04</pdfrwt>
<totfact> 0.10437439E+01</totfact>
</mgrwt>
</event>
<event>
12    1  0.4967442E-008  0.1717372E+04  0.7818608E-02  0.8751518E-01
          2   -1    0    0  501    0  0.00000000000E+00  0.00000000000E+00  0.34541588045E+04  0.34541588045E+04  0.00000000000E+00 0. -1.
         -2   -1    0    0    0  501 -0.00000000000E+00 -0.00000000000E+00 -0.21346486531E+03  0.21346486531E+03  0.00000000000E+00 0.  1.
         23    2    1    2    0    0  0.61025277983E+03  0.27349775873E+02  0.10970130753E+04  0.12588639546E+04  0.90245793621E+02 0.  0.
        254    2    1    2    0    0 -0.61025277983E+03 -0.27349775873E+02  0.21436808638E+04  0.24087597152E+04  0.91301656825E+03 0.  0.
         23    2    4    4    0    0 -0.48732458706E+03 -0.31803553310E+03  0.19283578856E+04  0.20163857529E+04  0.92819804193E+02 0.  0.
         23    2    4    4    0    0 -0.12292819277E+03  0.29068575723E+03  0.21532297819E+03  0.39237396223E+03  0.89352063577E+02 0.  0.
         13    1    3    3    0    0  0.37218076315E+02  0.21006250801E+02  0.10254198775E+03  0.11109143545E+03  0.00000000000E+00 0.  1.
        -13    1    3    3    0    0  0.57303470351E+03  0.63435250719E+01  0.99447108757E+03  0.11477725192E+04  0.00000000000E+00 0. -1.
          2    1    5    5  502    0 -0.14784210209E+03 -0.13899541435E+03  0.75874394645E+03  0.78541033138E+03  0.00000000000E+00 0. -1.
          4    1    6    6  503    0  0.12554759049E+02  0.43675433889E+02  0.40062408778E+02  0.60581862775E+02  0.00000000000E+00 0. -1.
         -2    1    5    5    0  502 -0.33948248497E+03 -0.17904011875E+03  0.11696139392E+04  0.12309754215E+04  0.00000000000E+00 0.  1.
         -4    1    6    6    0  503 -0.13548295182E+03  0.24701032334E+03  0.17526056942E+03  0.33179209945E+03  0.00000000000E+00 0.  1.
<mgrwt>
<rscale>  0 0.17173719E+04</rscale>
<asrwt>0</asrwt>
<pdfrwt beam="1">  1        2 0.53140901E+00 0.17173719E+04</pdfrwt>
<pdfrwt beam="2">  1       -2 0.32840751E-01 0.17173719E+04</pdfrwt>
<totfact> 0.72573914E+00</totfact>
</mgrwt>
</event>
<event>
12    1  0.4967442E-008  0.1283675E+04  0.7818608E-02  0.9042612E-01
          1   -1    0    0  501    0  0.00000000000E+00  0.00000000000E+00  0.11045013070E+04  0.11045013070E+04  0.00000000000E+00 0. -1.
         -1   -1    0    0    0  501 -0.00000000000E+00 -0.00000000000E+00 -0.37297880872E+03  0.37297880872E+03  0.00000000000E+00 0.  1.
         23    2    1    2    0    0  0.26115507961E+03  0.17113961546E+03  0.25313821183E+03  0.41216048199E+03  0.91140359014E+02 0.  0.
        254    2    1    2    0    0 -0.26115507961E+03 -0.17113961546E+03  0.47838428648E+03  0.10653196338E+04  0.89920167534E+03 0.  0.
         23    2    4    4    0    0 -0.27651126788E+01  0.26257517619E+03  0.47753539700E+03  0.55240124795E+03  0.90297919956E+02 0.  0.
         23    2    4    4    0    0 -0.25838996694E+03 -0.43371479164E+03  0.84888947428E+00  0.51291838581E+03  0.90612661281E+02 0.  0.
         13    1    3    3    0    0  0.14374980619E+02 -0.38873784399E+01 -0.36467079864E+01  0.15331348867E+02  0.00000000000E+00 0.  1.
        -13    1    3    3    0    0  0.24678009899E+03  0.17502699390E+03  0.25678491982E+03  0.39682913313E+03  0.00000000000E+00 0. -1.
          1    1    5    5  502    0 -0.31262900712E+02  0.15453279294E+03  0.21105415993E+03  0.26344185597E+03  0.00000000000E+00 0. -1.
          3    1    6    6  503    0 -0.22100168468E+03 -0.41390024206E+03 -0.97068407895E+01  0.46930733828E+03  0.00000000000E+00 0. -1.
         -1    1    5    5    0  502  0.28497788033E+02  0.10804238325E+03  0.26648123707E+03  0.28895939198E+03  0.00000000000E+00 0.  1.
         -3    1    6    6    0  503 -0.37388282251E+02 -0.19814549589E+02  0.10555730264E+02  0.43611047528E+02  0.00000000000E+00 0.  1.
<mgrwt>
<rscale>  0 0.12836753E+04</rscale>
<asrwt>0</asrwt>
<pdfrwt beam="1">  1        1 0.16992328E+00 0.12836753E+04</pdfrwt>
<pdfrwt beam="2">  1       -1 0.57381356E-01 0.12836753E+04</pdfrwt>
<totfact> 0.38059833E+01</totfact>
</mgrwt>
</event>
<event>
12    1  0.4967442E-008  0.1324961E+04  0.7818608E-02  0.9010001E-01
         -1   -1    0    0    0  501 -0.00000000000E+00  0.00000000000E+00  0.45398895045E+03  0.45398895045E+03  0.00000000000E+00 0.  1.
          1   -1    0    0  501    0  0.00000000000E+00 -0.00000000000E+00 -0.96672098193E+03  0.96672098193E+03  0.00000000000E+00 0. -1.
         23    2    1    2    0    0  0.12792832925E+03 -0.22059078844E+03 -0.40688490239E+03  0.48863763805E+03  0.90473555000E+02 0.  0.
        254    2    1    2    0    0 -0.12792832925E+03  0.22059078844E+03 -0.10584712908E+03  0.93207229433E+03  0.89024108743E+03 0.  0.
         23    2    4    4    0    0 -0.38251302786E+03  0.19778908710E+03 -0.35334171230E+03  0.56480363146E+03  0.93359718305E+02 0.  0.
         23    2    4    4    0    0  0.25458469862E+03  0.22801701349E+02  0.24749458322E+03  0.36726866287E+03  0.91101128689E+02 0.  0.
         13    1    3    3    0    0  0.11377523147E+03 -0.12844844378E+03 -0.21311352178E+03  0.27360771037E+03  0.00000000000E+00 0. -1.
        -13    1    3    3    0    0  0.14153097781E+02 -0.92142344661E+02 -0.19377138061E+03  0.21502992768E+03  0.00000000000E+00 0.  1.
          2    1    5    5  502    0 -0.33507457478E+03  0.18204406432E+03 -0.34478556605E+03  0.51409347260E+03  0.00000000000E+00 0. -1.
          4    1    6    6  503    0  0.10816733530E+03  0.37387426225E+02  0.15783725336E+03  0.19496304936E+03  0.00000000000E+00 0. -1.
         -2    1    5    5    0  502 -0.47438453079E+02  0.15745022776E+02 -0.85561462568E+01  0.50710158859E+02  0.00000000000E+00 0.  1.
         -4    1    6    6    0  503  0.14641736331E+03 -0.14585724876E+02  0.89657329857E+02  0.17230561351E+03  0.00000000000E+00 0.  1.
<mgrwt>
<rscale>  0 0.13249613E+04</rscale>
<asrwt>0</asrwt>
<pdfrwt beam="1">  1        1 0.14872630E+00 0.13249613E+04</pdfrwt>
<pdfrwt beam="2">  1       -1 0.69844454E-01 0.13249613E+04</pdfrwt>
<totfact> 0.32678306E+01</totfact>
</mgrwt>
</event>
<event>
12    1  0.4967442E-008  0.1944835E+04  0.7818608E-02  0.8632855E-01
         -2   -1    0    0    0  501 -0.00000000000E+00  0.00000000000E+00  0.39318647167E+03  0.39318647167E+03  0.00000000000E+00 0.  1.
          2   -1    0    0  501    0  0.00000000000E+00 -0.00000000000E+00 -0.24049552335E+04  0.24049552335E+04  0.00000000000E+00 0. -1.
         23    2    1    2    0    0  0.14455179022E+03 -0.27979966607E+03 -0.17840493641E+04  0.18138953527E+04  0.90560166772E+02 0.  0.
        254    2    1    2    0    0 -0.14455179022E+03  0.27979966607E+03 -0.22771939772E+03  0.98424635246E+03  0.90426859121E+03 0.  0.
         23    2    4    4    0    0  0.36472743491E+03  0.45567763873E+02 -0.28654017149E+02  0.38232080967E+03  0.10122067935E+03 0.  0.
         23    2    4    4    0    0 -0.50927922513E+03  0.23423190219E+03 -0.19906538057E+03  0.60192554279E+03  0.91964233105E+02 0.  0.
         13    1    3    3    0    0 -0.79599515731E+01 -0.49372471274E+02 -0.33817964874E+03  0.34185739215E+03  0.00000000000E+00 0.  1.
        -13    1    3    3    0    0  0.15251174180E+03 -0.23042719479E+03 -0.14458697154E+04  0.14720379606E+04  0.00000000000E+00 0. -1.
          4    1    5    5  502    0  0.17552398560E+03  0.99264865169E+01 -0.62996893342E+02  0.18675067128E+03  0.00000000000E+00 0. -1.
          4    1    6    6  503    0 -0.49098133135E+03  0.21610248827E+03 -0.20697585797E+03  0.57497996396E+03  0.00000000000E+00 0. -1.
         -4    1    5    5    0  502  0.18920344931E+03  0.35641277356E+02  0.34342876193E+02  0.19557013838E+03  0.00000000000E+00 0.  1.
         -4    1    6    6    0  503 -0.18297893777E+02  0.18129413919E+02  0.79104774024E+01  0.26945578830E+02  0.00000000000E+00 0.  1.
<mgrwt>
<rscale>  0 0.19448351E+04</rscale>
<asrwt>0</asrwt>
<pdfrwt beam="1">  1        2 0.36999312E+00 0.19448351E+04</pdfrwt>
<pdfrwt beam="2">  1       -2 0.60490226E-01 0.19448351E+04</pdfrwt>
<totfact> 0.93869472E+00</totfact>
</mgrwt>
</event>
<event>
12    1  0.4967442E-008  0.2309659E+04  0.7818608E-02  0.8474123E-01
          2   -1    0    0  501    0  0.00000000000E+00  0.00000000000E+00  0.29142759114E+04  0.29142759114E+04  0.00000000000E+00 0. -1.
         -2   -1    0    0    0  501 -0.00000000000E+00 -0.00000000000E+00 -0.45761988792E+03  0.45761988792E+03  0.00000000000E+00 0.  1.
         23    2    1    2    0    0  0.42861913109E+03 -0.48532777553E+03  0.21140192771E+04  0.22127754797E+04  0.89668334959E+02 0.  0.
        254    2    1    2    0    0 -0.42861913109E+03  0.48532777553E+03  0.34263674645E+03  0.11591203197E+04  0.89827755526E+03 0.  0.
         23    2    4    4    0    0 -0.54056896347E+03 -0.28472268492E+02  0.29117605858E+03  0.62204777237E+03  0.95574367300E+02 0.  0.
         23    2    4    4    0    0  0.11194983237E+03  0.51380004402E+03  0.51460687866E+02  0.53707254732E+03  0.96309233679E+02 0.  0.
         11    1    3    3    0    0  0.48659850861E+02 -0.38168756382E+02  0.29650434551E+03  0.30288522901E+03  0.00000000000E+00 0.  1.
        -11    1    3    3    0    0  0.37995928023E+03 -0.44715901914E+03  0.18175149316E+04  0.19098902507E+04  0.00000000000E+00 0. -1.
          2    1    5    5  502    0 -0.66941528653E+02  0.12695584771E+02  0.70064002502E+02  0.97730806697E+02  0.00000000000E+00 0. -1.
          3    1    6    6  503    0  0.76804636541E+01  0.56014482555E+01 -0.11002904417E+02  0.14540620692E+02  0.00000000000E+00 0. -1.
         -2    1    5    5    0  502 -0.47362743481E+03 -0.41167853263E+02  0.22111205608E+03  0.52431696568E+03  0.00000000000E+00 0.  1.
         -3    1    6    6    0  503  0.10426936872E+03  0.50819859576E+03  0.62463592283E+02  0.52253192663E+03  0.00000000000E+00 0.  1.
<mgrwt>
<rscale>  0 0.23096585E+04</rscale>
<asrwt>0</asrwt>
<pdfrwt beam="1">  1        2 0.44835013E+00 0.23096585E+04</pdfrwt>
<pdfrwt beam="2">  1       -2 0.70403062E-01 0.23096585E+04</pdfrwt>
<totfact> 0.32758276E+00</totfact>
</mgrwt>
</event>
<event>
12    1  0.4967442E-008  0.1527038E+04  0.7818608E-02  0.8866669E-01
          2   -1    0    0  501    0  0.00000000000E+00  0.00000000000E+00  0.57861997742E+03  0.57861997742E+03  0.00000000000E+00 0.  1.
         -2   -1    0    0    0  501 -0.00000000000E+00 -0.00000000000E+00 -0.10075030805E+04  0.10075030805E+04  0.00000000000E+00 0. -1.
         23    2    1    2    0    0  0.21095598418E+03 -0.11581424601E+03  0.30186892113E+03  0.39662719898E+03  0.90955607800E+02 0.  0.
        254    2    1    2    0    0 -0.21095598418E+03  0.11581424601E+03 -0.73075202418E+03  0.11894958589E+04  0.90718603973E+03 0.  0.
         23    2    4    4    0    0 -0.52068010682E+02  0.31268516468E+03 -0.83749446832E+03  0.90024149028E+03  0.92491439683E+02 0.  0.
         23    2    4    4    0    0 -0.15888797350E+03 -0.19687091867E+03  0.10674244414E+03  0.28925436863E+03  0.90942804284E+02 0.  0.
         11    1    3    3    0    0  0.45655932281E+02 -0.29019742161E+02  0.18289947427E+02  0.57106319829E+02  0.00000000000E+00 0. -1.
        -11    1    3    3    0    0  0.16530005190E+03 -0.86794503852E+02  0.28357897370E+03  0.33952087916E+03  0.00000000000E+00 0.  1.
          1    1    6    6  502    0 -0.50535651245E+02 -0.13474479321E+03  0.59274137289E+02  0.15563879560E+03  0.00000000000E+00 0. -1.
          1    1    5    5  503    0 -0.58512869894E+02  0.25395742701E+03 -0.57689967551E+03  0.63303346380E+03  0.00000000000E+00 0. -1.
         -1    1    5    5    0  503  0.64448592119E+01  0.58727737670E+02 -0.26059479280E+03  0.26720802649E+03  0.00000000000E+00 0.  1.
         -1    1    6    6    0  502 -0.10835232225E+03 -0.62126125465E+02  0.47468306848E+02  0.13361557303E+03  0.00000000000E+00 0.  1.
<mgrwt>
<rscale>  0 0.15270382E+04</rscale>
<asrwt>0</asrwt>
<pdfrwt beam="1">  1        2 0.89018460E-01 0.15270382E+04</pdfrwt>
<pdfrwt beam="2">  1       -2 0.15500047E+00 0.15270382E+04</pdfrwt>
<totfact> 0.13704587E+01</totfact>
</mgrwt>
</event>
<event>
12    1  0.4967442E-008  0.1912904E+04  0.7818608E-02  0.8648460E-01
          2   -1    0    0  501    0  0.00000000000E+00  0.00000000000E+00  0.18517602803E+04  0.18517602803E+04  0.00000000000E+00 0. -1.
         -2   -1    0    0    0  501 -0.00000000000E+00 -0.00000000000E+00 -0.49401661860E+03  0.49401661860E+03  0.00000000000E+00 0.  1.
         23    2    1    2    0    0 -0.34695813242E+03 -0.22291829721E+03  0.12799729027E+04  0.13477872022E+04  0.90150972525E+02 0.  0.
        254    2    1    2    0    0  0.34695813242E+03  0.22291829721E+03  0.77770758996E+02  0.99798969672E+03  0.90546266125E+03 0.  0.
         23    2    4    4    0    0 -0.98680472470E+02  0.81044980829E+02  0.39601608236E+03  0.42522134644E+03  0.87626088671E+02 0.  0.
         23    2    4    4    0    0  0.44563860489E+03  0.14187331638E+03 -0.31824532337E+03  0.57276835027E+03  0.89786932011E+02 0.  0.
         11    1    3    3    0    0 -0.77028660652E+02 -0.84791842810E+02  0.27046447201E+03  0.29372453385E+03  0.00000000000E+00 0. -1.
        -11    1    3    3    0    0 -0.26992947177E+03 -0.13812645440E+03  0.10095084307E+04  0.10540626683E+04  0.00000000000E+00 0.  1.
          1    1    5    5  502    0 -0.10255056262E+03  0.83456834249E+02  0.39861618033E+03  0.41997204705E+03  0.00000000000E+00 0. -1.
          3    1    6    6  503    0  0.35729053834E+03  0.10306693236E+03 -0.29189848386E+03  0.47274099273E+03  0.00000000000E+00 0. -1.
         -1    1    5    5    0  502  0.38700901543E+01 -0.24118534197E+01 -0.26000979681E+01  0.52492993975E+01  0.00000000000E+00 0.  1.
         -3    1    6    6    0  503  0.88348066555E+02  0.38806384013E+02 -0.26346839508E+02  0.10002735754E+03  0.00000000000E+00 0.  1.
<mgrwt>
<rscale>  0 0.19129039E+04</rscale>
<asrwt>0</asrwt>
<pdfrwt beam="1">  1        2 0.28488619E+00 0.19129039E+04</pdfrwt>
<pdfrwt beam="2">  1       -2 0.76002558E-01 0.19129039E+04</pdfrwt>
<totfact> 0.11713855E+01</totfact>
</mgrwt>
</event>
<event>
12    1  0.4967442E-008  0.1390844E+04  0.7818608E-02  0.8960473E-01
         -2   -1    0    0    0  501 -0.00000000000E+00  0.00000000000E+00  0.42254771758E+03  0.42254771758E+03  0.00000000000E+00 0.  1.
          2   -1    0    0  501    0  0.00000000000E+00 -0.00000000000E+00 -0.11445135256E+04  0.11445135256E+04  0.00000000000E+00 0. -1.
         23    2    1    2    0    0 -0.35998296984E+02  0.26102711745E+03  0.12781807010E+03  0.30714482336E+03  0.92571324099E+02 0.  0.
        254    2    1    2    0    0  0.35998296984E+02 -0.26102711745E+03 -0.84978387810E+03  0.12599164198E+04  0.89209064111E+03 0.  0.
         23    2    4    4    0    0  0.24145762624E+03  0.25725732129E+03 -0.31661709599E+03  0.48276129666E+03  0.91263187844E+02 0.  0.
         23    2    4    4    0    0 -0.20545932926E+03 -0.51828443874E+03 -0.53316678212E+03  0.77715512313E+03  0.94185839879E+02 0.  0.
         13    1    3    3    0    0 -0.47922541226E+02  0.24840356164E+03  0.13679150588E+03  0.28759835791E+03  0.00000000000E+00 0.  1.
        -13    1    3    3    0    0  0.11924244241E+02  0.12623555814E+02 -0.89734357802E+01  0.19546465456E+02  0.00000000000E+00 0. -1.
          1    1    6    6  502    0 -0.35086806503E+02 -0.31585228324E+02 -0.67387377495E+02  0.82278607696E+02  0.00000000000E+00 0. -1.
          1    1    5    5  503    0  0.15404601307E+03  0.97984539839E+02 -0.15104411966E+03  0.23695035403E+03  0.00000000000E+00 0. -1.
         -1    1    5    5    0  503  0.87411613172E+02  0.15927278145E+03 -0.16557297632E+03  0.24581094263E+03  0.00000000000E+00 0.  1.
         -1    1    6    6    0  502 -0.17037252275E+03 -0.48669921042E+03 -0.46577940462E+03  0.69487651543E+03  0.00000000000E+00 0.  1.
<mgrwt>
<rscale>  0 0.13908437E+04</rscale>
<asrwt>0</asrwt>
<pdfrwt beam="1">  1        2 0.17607900E+00 0.13908437E+04</pdfrwt>
<pdfrwt beam="2">  1       -2 0.65007342E-01 0.13908437E+04</pdfrwt>
<totfact> 0.43494479E+01</totfact>
</mgrwt>
</event>
<event>
12    1  0.4967442E-008  0.1409410E+04  0.7818608E-02  0.8947035E-01
          1   -1    0    0  501    0  0.00000000000E+00  0.00000000000E+00  0.10200364886E+04  0.10200364886E+04  0.00000000000E+00 0. -1.
         -1   -1    0    0    0  501 -0.00000000000E+00 -0.00000000000E+00 -0.48685404079E+03  0.48685404079E+03  0.00000000000E+00 0.  1.
         23    2    1    2    0    0 -0.19359237035E+02  0.24219850819E+03  0.55453623928E+03  0.61127594111E+03  0.84338236157E+02 0.  0.
        254    2    1    2    0    0  0.19359237035E+02 -0.24219850819E+03 -0.21353791464E+02  0.89561458828E+03  0.86176250145E+03 0.  0.
         23    2    4    4    0    0  0.10137359436E+03 -0.19893807912E+03 -0.41638073100E+03  0.48142468293E+03  0.92432933663E+02 0.  0.
         23    2    4    4    0    0 -0.82014357322E+02 -0.43260429065E+02  0.39502693953E+03  0.41418990535E+03  0.83121448545E+02 0.  0.
         11    1    3    3    0    0  0.26719190382E+02  0.15810056772E+03  0.37197196837E+03  0.40505906965E+03  0.00000000000E+00 0. -1.
        -11    1    3    3    0    0 -0.46078427417E+02  0.84097940471E+02  0.18256427091E+03  0.20621687147E+03  0.00000000000E+00 0.  1.
          2    1    5    5  502    0 -0.67281225332E+01 -0.25956589088E+02 -0.11093441239E+03  0.11412911987E+03  0.00000000000E+00 0. -1.
          3    1    6    6  503    0  0.11975067586E+02  0.80474151352E+01  0.84390386620E+02  0.85614838013E+02  0.00000000000E+00 0. -1.
         -2    1    5    5    0  502  0.10810171689E+03 -0.17298149004E+03 -0.30544631861E+03  0.36729556306E+03  0.00000000000E+00 0.  1.
         -3    1    6    6    0  503 -0.93989424908E+02 -0.51307844200E+02  0.31063655291E+03  0.32857506734E+03  0.00000000000E+00 0.  1.
<mgrwt>
<rscale>  0 0.14094096E+04</rscale>
<asrwt>0</asrwt>
<pdfrwt beam="1">  1        1 0.15692869E+00 0.14094096E+04</pdfrwt>
<pdfrwt beam="2">  1       -1 0.74900622E-01 0.14094096E+04</pdfrwt>
<totfact> 0.25503042E+01</totfact>
</mgrwt>
</event>
<event>
12    1  0.4967442E-008  0.1975572E+04  0.7818608E-02  0.8618128E-01
          1   -1    0    0  501    0  0.00000000000E+00  0.00000000000E+00  0.85326122394E+03  0.85326122394E+03  0.00000000000E+00 0. -1.
         -1   -1    0    0    0  501 -0.00000000000E+00 -0.00000000000E+00 -0.11435193134E+04  0.11435193134E+04  0.00000000000E+00 0.  1.
         23    2    1    2    0    0 -0.46754228328E+03  0.55920609600E+03 -0.28404569232E+03  0.78763374957E+03  0.91529905946E+02 0.  0.
        254    2    1    2    0    0  0.46754228328E+03 -0.55920609600E+03 -0.62123971550E+01  0.12091467878E+04  0.96472281826E+03 0.  0.
         23    2    4    4    0    0  0.33815343857E+03 -0.97369968222E+02 -0.42977674707E+03  0.56272550404E+03  0.90129250739E+02 0.  0.
         23    2    4    4    0    0  0.12938884471E+03 -0.46183612777E+03  0.42356434992E+03  0.64642128375E+03  0.91758571845E+02 0.  0.
         11    1    3    3    0    0 -0.22327762184E+03  0.27973803947E+03 -0.18775719333E+03  0.40417697954E+03  0.00000000000E+00 0. -1.
        -11    1    3    3    0    0 -0.24426466144E+03  0.27946805653E+03 -0.96288498996E+02  0.38345677003E+03  0.00000000000E+00 0.  1.
          2    1    5    5  502    0  0.34370770378E+03 -0.98322081597E+02 -0.42115333301E+03  0.55242406471E+03  0.00000000000E+00 0. -1.
          1    1    6    6  503    0  0.69383024571E+02 -0.36517724436E+03  0.29346044845E+03  0.47358996896E+03  0.00000000000E+00 0. -1.
         -2    1    5    5    0  502 -0.55542652154E+01  0.95211337435E+00 -0.86234140661E+01  0.10301439323E+02  0.00000000000E+00 0.  1.
         -1    1    6    6    0  503  0.60005820136E+02 -0.96658883416E+02  0.13010390147E+03  0.17283131479E+03  0.00000000000E+00 0.  1.
<mgrwt>
<rscale>  0 0.19755715E+04</rscale>
<asrwt>0</asrwt>
<pdfrwt beam="1">  1        1 0.13127096E+00 0.19755715E+04</pdfrwt>
<pdfrwt beam="2">  1       -1 0.17592605E+00 0.19755715E+04</pdfrwt>
<totfact> 0.41199999E+00</totfact>
</mgrwt>
</event>
<event>
12    1  0.4967442E-008  0.1997207E+04  0.7818608E-02  0.8607928E-01
         -1   -1    0    0    0  501 -0.00000000000E+00  0.00000000000E+00  0.27096097603E+04  0.27096097603E+04  0.00000000000E+00 0.  1.
          1   -1    0    0  501    0  0.00000000000E+00 -0.00000000000E+00 -0.36802682508E+03  0.36802682508E+03  0.00000000000E+00 0. -1.
         23    2    1    2    0    0  0.48532621111E+03  0.61083982337E+03  0.10805237261E+04  0.13357592995E+04  0.89747215876E+02 0.  0.
        254    2    1    2    0    0 -0.48532621111E+03 -0.61083982337E+03  0.12610592092E+04  0.17418772858E+04  0.91389240551E+03 0.  0.
         23    2    4    4    0    0 -0.25202423844E+02 -0.48856002900E+03  0.13333101610E+03  0.51440134996E+03  0.86634432396E+02 0.  0.
         23    2    4    4    0    0 -0.46012378726E+03 -0.12227979436E+03  0.11277281931E+04  0.12274759359E+04  0.90884806107E+02 0.  0.
         11    1    3    3    0    0  0.28810831018E+02  0.78241215766E+02  0.10113426369E+03  0.13107208368E+03  0.00000000000E+00 0. -1.
        -11    1    3    3    0    0  0.45651538009E+03  0.53259860760E+03  0.97938946236E+03  0.12046872159E+04  0.00000000000E+00 0.  1.
          2    1    5    5  502    0  0.58783886471E+01 -0.34231078499E+03  0.12564414682E+03  0.36468847062E+03  0.00000000000E+00 0. -1.
          3    1    6    6  503    0 -0.29311101830E+03 -0.42192328235E+02  0.62200938884E+03  0.68890488561E+03  0.00000000000E+00 0. -1.
         -2    1    5    5    0  502 -0.31080812491E+02 -0.14624924401E+03  0.76868692739E+01  0.14971287934E+03  0.00000000000E+00 0.  1.
         -3    1    6    6    0  503 -0.16701276896E+03 -0.80087466129E+02  0.50571880421E+03  0.53857105024E+03  0.00000000000E+00 0.  1.
<mgrwt>
<rscale>  0 0.19972071E+04</rscale>
<asrwt>0</asrwt>
<pdfrwt beam="1">  1        1 0.56619513E-01 0.19972071E+04</pdfrwt>
<pdfrwt beam="2">  1       -1 0.41686303E+00 0.19972071E+04</pdfrwt>
<totfact> 0.34135769E-01</totfact>
</mgrwt>
</event>
<event>
12    1  0.4967442E-008  0.1440224E+04  0.7818608E-02  0.8925206E-01
          2   -1    0    0  501    0  0.00000000000E+00  0.00000000000E+00  0.80505157026E+03  0.80505157026E+03  0.00000000000E+00 0. -1.
         -2   -1    0    0    0  501 -0.00000000000E+00 -0.00000000000E+00 -0.64413413543E+03  0.64413413543E+03  0.00000000000E+00 0.  1.
         23    2    1    2    0    0  0.22148478991E+02 -0.19729082788E+02  0.47280498428E+03  0.48271872266E+03  0.92698544854E+02 0.  0.
        254    2    1    2    0    0 -0.22148478991E+02  0.19729082788E+02 -0.31188754945E+03  0.96646698303E+03  0.91427829130E+03 0.  0.
         23    2    4    4    0    0  0.37854010756E+03 -0.20819963321E+03 -0.19095709335E+03  0.48112748652E+03  0.91538770390E+02 0.  0.
         23    2    4    4    0    0 -0.40068858655E+03  0.22792871600E+03 -0.12093045610E+03  0.48533949651E+03  0.91800918767E+02 0.  0.
         13    1    3    3    0    0 -0.73074758620E+01 -0.32906758684E+02  0.41619192145E+03  0.41755475024E+03  0.00000000000E+00 0. -1.
        -13    1    3    3    0    0  0.29455954853E+02  0.13177675896E+02  0.56613062834E+02  0.65163972422E+02  0.00000000000E+00 0.  1.
          2    1    5    5  502    0  0.31048255483E+03 -0.20757642651E+03 -0.15842816364E+03  0.40569307700E+03  0.00000000000E+00 0. -1.
          3    1    6    6  503    0 -0.37036063090E+03  0.22794218582E+03 -0.12962097631E+03  0.45379095902E+03  0.00000000000E+00 0. -1.
         -2    1    5    5    0  502  0.68057552737E+02 -0.62320669477E+00 -0.32528929707E+02  0.75434409516E+02  0.00000000000E+00 0.  1.
         -3    1    6    6    0  503 -0.30327955658E+02 -0.13469822998E-01  0.86905202057E+01  0.31548537482E+02  0.00000000000E+00 0.  1.
<mgrwt>
<rscale>  0 0.14402239E+04</rscale>
<asrwt>0</asrwt>
<pdfrwt beam="1">  1        2 0.12385409E+00 0.14402239E+04</pdfrwt>
<pdfrwt beam="2">  1       -2 0.99097560E-01 0.14402239E+04</pdfrwt>
<totfact> 0.27981966E+01</totfact>
</mgrwt>
</event>
<event>
12    1  0.4967442E-008  0.1499654E+04  0.7818608E-02  0.8884683E-01
          2   -1    0    0  501    0  0.00000000000E+00  0.00000000000E+00  0.14419445591E+04  0.14419445591E+04  0.00000000000E+00 0. -1.
         -2   -1    0    0    0  501 -0.00000000000E+00 -0.00000000000E+00 -0.38991840860E+03  0.38991840860E+03  0.00000000000E+00 0.  1.
         23    2    1    2    0    0  0.19790563439E+03  0.26311735443E+03 -0.78232167606E+02  0.35039964498E+03  0.90896957217E+02 0.  0.
        254    2    1    2    0    0 -0.19790563439E+03 -0.26311735443E+03  0.11302583182E+04  0.14814633228E+04  0.89936217877E+03 0.  0.
         23    2    4    4    0    0  0.27604441238E+03 -0.19162294715E+03  0.13593016490E+03  0.37373752316E+03  0.91010191769E+02 0.  0.
         23    2    4    4    0    0 -0.47395004678E+03 -0.71494407281E+02  0.99432815326E+03  0.11077257996E+04  0.92886347934E+02 0.  0.
         13    1    3    3    0    0  0.97932421135E+02  0.19898508452E+03 -0.38101042818E+02  0.22502780369E+03  0.00000000000E+00 0.  1.
        -13    1    3    3    0    0  0.99973213257E+02  0.64132269912E+02 -0.40131124789E+02  0.12537184130E+03  0.00000000000E+00 0. -1.
          4    1    5    5  502    0  0.20123300313E+02  0.98734693554E+01  0.84153163039E+01  0.23942643152E+02  0.00000000000E+00 0. -1.
          1    1    6    6  503    0 -0.14961584448E+03 -0.17358609389E+02  0.41636821412E+03  0.44277388357E+03  0.00000000000E+00 0. -1.
         -4    1    5    5    0  502  0.25592111207E+03 -0.20149641650E+03  0.12751484859E+03  0.34979488001E+03  0.00000000000E+00 0.  1.
         -1    1    6    6    0  503 -0.32433420229E+03 -0.54135797893E+02  0.57795993914E+03  0.66495191604E+03  0.00000000000E+00 0.  1.
<mgrwt>
<rscale>  0 0.14996543E+04</rscale>
<asrwt>0</asrwt>
<pdfrwt beam="1">  1        2 0.22183762E+00 0.14996543E+04</pdfrwt>
<pdfrwt beam="2">  1       -2 0.59987448E-01 0.14996543E+04</pdfrwt>
<totfact> 0.34279407E+01</totfact>
</mgrwt>
</event>
<event>
12    1  0.4967442E-008  0.2066932E+04  0.7818608E-02  0.8575952E-01
         -1   -1    0    0    0  501 -0.00000000000E+00  0.00000000000E+00  0.42389723366E+03  0.42389723366E+03  0.00000000000E+00 0.  1.
          1   -1    0    0  501    0  0.00000000000E+00 -0.00000000000E+00 -0.25196008319E+04  0.25196008319E+04  0.00000000000E+00 0. -1.
         23    2    1    2    0    0  0.28372255944E+03  0.24998788250E+03  0.21536360678E+03  0.44330341256E+03  0.84522188413E+02 0.  0.
        254    2    1    2    0    0 -0.28372255944E+03 -0.24998788250E+03 -0.23110672050E+04  0.25001946530E+04  0.87575638429E+03 0.  0.
         23    2    4    4    0    0 -0.19202117946E+03 -0.40387309390E+00 -0.21800017169E+04  0.21903544818E+04  0.91503954925E+02 0.  0.
         23    2    4    4    0    0 -0.91701379986E+02 -0.24958400940E+03 -0.13106548817E+03  0.30984017125E+03  0.90119080602E+02 0.  0.
         11    1    3    3    0    0  0.91563050074E+02  0.13628194075E+03  0.89758147412E+02  0.18711783597E+03  0.00000000000E+00 0. -1.
        -11    1    3    3    0    0  0.19215950937E+03  0.11370594175E+03  0.12560545937E+03  0.25618557659E+03  0.00000000000E+00 0.  1.
          2    1    5    5  502    0 -0.46332521754E+02  0.20565801343E+02 -0.27196473942E+03  0.27664864765E+03  0.00000000000E+00 0. -1.
          3    1    6    6  503    0 -0.16927645966E+02 -0.15972107388E+03 -0.98781290397E+02  0.18856062678E+03  0.00000000000E+00 0. -1.
         -2    1    5    5    0  502 -0.14568865770E+03 -0.20969674437E+02 -0.19080369774E+04  0.19137058341E+04  0.00000000000E+00 0.  1.
         -3    1    6    6    0  503 -0.74773734020E+02 -0.89862935521E+02 -0.32284197768E+02  0.12127954446E+03  0.00000000000E+00 0.  1.
<mgrwt>
<rscale>  0 0.20669319E+04</rscale>
<asrwt>0</asrwt>
<pdfrwt beam="1">  1        1 0.38763089E+00 0.20669319E+04</pdfrwt>
<pdfrwt beam="2">  1       -1 0.65214960E-01 0.20669319E+04</pdfrwt>
<totfact> 0.28875122E+00</totfact>
</mgrwt>
</event>
<event>
12    1  0.4967442E-008  0.1973346E+04  0.7818608E-02  0.8619185E-01
          2   -1    0    0  501    0  0.00000000000E+00  0.00000000000E+00  0.98320840265E+03  0.98320840265E+03  0.00000000000E+00 0. -1.
         -2   -1    0    0    0  501 -0.00000000000E+00 -0.00000000000E+00 -0.99014963146E+03  0.99014963146E+03  0.00000000000E+00 0.  1.
         23    2    1    2    0    0  0.14745641762E+03  0.39152787714E+03  0.66497755350E+03  0.79134260181E+03  0.94818210908E+02 0.  0.
        254    2    1    2    0    0 -0.14745641762E+03 -0.39152787714E+03 -0.67191878231E+03  0.11820154323E+04  0.87786568362E+03 0.  0.
         23    2    4    4    0    0  0.22736156476E+03  0.14642025627E+03 -0.33327303450E+03  0.43882706864E+03  0.91466431370E+02 0.  0.
         23    2    4    4    0    0 -0.37481798238E+03 -0.53794813341E+03 -0.33864574782E+03  0.74318836366E+03  0.88154904625E+02 0.  0.
         13    1    3    3    0    0  0.27476938885E+02  0.76196775575E+02  0.68600160559E+02  0.10614571497E+03  0.00000000000E+00 0.  1.
        -13    1    3    3    0    0  0.11997947873E+03  0.31533110156E+03  0.59637739294E+03  0.68519688684E+03  0.00000000000E+00 0. -1.
          2    1    5    5  502    0  0.62635418788E+02  0.87783951849E+02 -0.15764357190E+03  0.19099925039E+03  0.00000000000E+00 0. -1.
          3    1    6    6  503    0 -0.28391758491E+02 -0.32217233446E+02 -0.49138436422E+02  0.65258164356E+02  0.00000000000E+00 0.  1.
         -2    1    5    5    0  502  0.16472614597E+03  0.58636304422E+02 -0.17562946260E+03  0.24782781825E+03  0.00000000000E+00 0.  1.
         -3    1    6    6    0  503 -0.34642622389E+03 -0.50573089997E+03 -0.28950731140E+03  0.67793019930E+03  0.00000000000E+00 0. -1.
<mgrwt>
<rscale>  0 0.19733458E+04</rscale>
<asrwt>0</asrwt>
<pdfrwt beam="1">  1        2 0.15126283E+00 0.19733458E+04</pdfrwt>
<pdfrwt beam="2">  1       -2 0.15233071E+00 0.19733458E+04</pdfrwt>
<totfact> 0.69139162E+00</totfact>
</mgrwt>
</event>
<event>
12    1  0.4967442E-008  0.1495284E+04  0.7818608E-02  0.8887595E-01
          1   -1    0    0  501    0  0.00000000000E+00  0.00000000000E+00  0.11139633841E+04  0.11139633841E+04  0.00000000000E+00 0. -1.
         -1   -1    0    0    0  501 -0.00000000000E+00 -0.00000000000E+00 -0.50178354081E+03  0.50178354081E+03  0.00000000000E+00 0.  1.
         23    2    1    2    0    0  0.37646328507E+03  0.26711964130E+03  0.29779051785E+03  0.55720686780E+03  0.93395895134E+02 0.  0.
        254    2    1    2    0    0 -0.37646328507E+03 -0.26711964130E+03  0.31438932544E+03  0.10585400571E+04  0.89921571202E+03 0.  0.
         23    2    4    4    0    0 -0.48670820832E+03  0.16501307101E+03  0.30138981265E+03  0.60248248958E+03  0.89638928146E+02 0.  0.
         23    2    4    4    0    0  0.11024492324E+03 -0.43213271231E+03  0.12999512783E+02  0.45605756751E+03  0.94482238536E+02 0.  0.
         11    1    3    3    0    0  0.15553602055E+03  0.64401044150E+02  0.13656834148E+03  0.21677144662E+03  0.00000000000E+00 0. -1.
        -11    1    3    3    0    0  0.22092726452E+03  0.20271859715E+03  0.16122217637E+03  0.34043542118E+03  0.00000000000E+00 0.  1.
          2    1    5    5  502    0 -0.31056056862E+03  0.96095043994E+02  0.23835066365E+03  0.40310440723E+03  0.00000000000E+00 0. -1.
          4    1    6    6  503    0  0.12526110868E+03 -0.35338688928E+03  0.54161249240E+00  0.37493056985E+03  0.00000000000E+00 0. -1.
         -2    1    5    5    0  502 -0.17614763969E+03  0.68918027011E+02  0.63039148999E+02  0.19937808235E+03  0.00000000000E+00 0.  1.
         -4    1    6    6    0  503 -0.15016185434E+02 -0.78745823026E+02  0.12457900290E+02  0.81126997656E+02  0.00000000000E+00 0.  1.
<mgrwt>
<rscale>  0 0.14952839E+04</rscale>
<asrwt>0</asrwt>
<pdfrwt beam="1">  1        1 0.17137898E+00 0.14952839E+04</pdfrwt>
<pdfrwt beam="2">  1       -1 0.77197468E-01 0.14952839E+04</pdfrwt>
<totfact> 0.20153155E+01</totfact>
</mgrwt>
</event>
<event>
12    1  0.4967442E-008  0.1420634E+04  0.7818608E-02  0.8939017E-01
          1   -1    0    0  501    0  0.00000000000E+00  0.00000000000E+00  0.12877340352E+04  0.12877340352E+04  0.00000000000E+00 0. -1.
         -1   -1    0    0    0  501 -0.00000000000E+00 -0.00000000000E+00 -0.39181220167E+03  0.39181220167E+03  0.00000000000E+00 0.  1.
         23    2    1    2    0    0 -0.55957701379E+02 -0.37233271176E+03  0.48806871510E+03  0.62282045365E+03  0.89058038535E+02 0.  0.
        254    2    1    2    0    0  0.55957701379E+02  0.37233271176E+03  0.40785311838E+03  0.10567257832E+04  0.89920092420E+03 0.  0.
         23    2    4    4    0    0 -0.38728786776E+03  0.22389498367E+03  0.44362829076E+02  0.45871343562E+03  0.91263898575E+02 0.  0.
         23    2    4    4    0    0  0.44324556914E+03  0.14843772809E+03  0.36349028930E+03  0.59801234756E+03  0.83625257767E+02 0.  0.
         11    1    3    3    0    0 -0.48094138213E+02 -0.37162184756E+03  0.48753966243E+03  0.61490711994E+03  0.00000000000E+00 0.  1.
        -11    1    3    3    0    0 -0.78635631655E+01 -0.71086420555E+00  0.52905266923E+00  0.79133337035E+01  0.00000000000E+00 0. -1.
          2    1    5    5  502    0 -0.26121182447E+03  0.10415417810E+03  0.94707350586E+01  0.28137058283E+03  0.00000000000E+00 0. -1.
          4    1    6    6  503    0  0.30128919745E+03  0.94254349392E+02  0.19467784837E+03  0.37088883446E+03  0.00000000000E+00 0. -1.
         -2    1    5    5    0  502 -0.12607604330E+03  0.11974080557E+03  0.34892094018E+02  0.17734285279E+03  0.00000000000E+00 0.  1.
         -4    1    6    6    0  503  0.14195637169E+03  0.54183378700E+02  0.16881244094E+03  0.22712351310E+03  0.00000000000E+00 0.  1.
<mgrwt>
<rscale>  0 0.14206335E+04</rscale>
<asrwt>0</asrwt>
<pdfrwt beam="1">  1        1 0.19811293E+00 0.14206335E+04</pdfrwt>
<pdfrwt beam="2">  1       -1 0.60278801E-01 0.14206335E+04</pdfrwt>
<totfact> 0.25075913E+01</totfact>
</mgrwt>
</event>
<event>
12    1  0.4967442E-008  0.1244519E+04  0.7818608E-02  0.9074757E-01
          1   -1    0    0  501    0  0.00000000000E+00  0.00000000000E+00  0.20839632284E+04  0.20839632284E+04  0.00000000000E+00 0. -1.
         -1   -1    0    0    0  501 -0.00000000000E+00 -0.00000000000E+00 -0.18580324682E+03  0.18580324682E+03  0.00000000000E+00 0.  1.
         23    2    1    2    0    0 -0.11763620337E+03  0.64292349478E+02  0.11101183350E+04  0.11219893231E+04  0.92333856437E+02 0.  0.
        254    2    1    2    0    0  0.11763620337E+03 -0.64292349478E+02  0.78804164660E+03  0.11477771521E+04  0.82365707154E+03 0.  0.
         23    2    4    4    0    0 -0.24441176575E+02 -0.26534208184E+03 -0.35350985826E+02  0.28316805470E+03  0.89054272771E+02 0.  0.
         23    2    4    4    0    0  0.14207737994E+03  0.20104973236E+03  0.82339263242E+03  0.86460909737E+03  0.94691537895E+02 0.  0.
         13    1    3    3    0    0 -0.97740743508E+02  0.86375332003E+02  0.97169548499E+03  0.98041117215E+03  0.00000000000E+00 0. -1.
        -13    1    3    3    0    0 -0.19895459859E+02 -0.22082982524E+02  0.13842284997E+03  0.14157815098E+03  0.00000000000E+00 0.  1.
          4    1    6    6  502    0  0.22559215027E+02 -0.30762407266E+01  0.13003412570E+03  0.13201233006E+03  0.00000000000E+00 0. -1.
          4    1    5    5  503    0 -0.12364244177E+02 -0.99382609953E+01 -0.22010252648E+02  0.27131066830E+02  0.00000000000E+00 0. -1.
         -4    1    5    5    0  503 -0.12076932398E+02 -0.25540382084E+03 -0.13340733177E+02  0.25603698787E+03  0.00000000000E+00 0.  1.
         -4    1    6    6    0  502  0.11951816491E+03  0.20412597309E+03  0.69335850672E+03  0.73259676731E+03  0.00000000000E+00 0.  1.
<mgrwt>
<rscale>  0 0.12445194E+04</rscale>
<asrwt>0</asrwt>
<pdfrwt beam="1">  1        1 0.32060971E+00 0.12445194E+04</pdfrwt>
<pdfrwt beam="2">  1       -1 0.28585116E-01 0.12445194E+04</pdfrwt>
<totfact> 0.28690761E+01</totfact>
</mgrwt>
</event>
<event>
12    1  0.4967442E-008  0.1355785E+04  0.7818608E-02  0.8986460E-01
          2   -1    0    0  501    0  0.00000000000E+00  0.00000000000E+00  0.14420229943E+04  0.14420229943E+04  0.00000000000E+00 0. -1.
         -2   -1    0    0    0  501 -0.00000000000E+00 -0.00000000000E+00 -0.31867607660E+03  0.31867607660E+03  0.00000000000E+00 0.  1.
         23    2    1    2    0    0  0.65421223692E+02  0.96089110820E+02  0.77668096772E+03  0.78960072736E+03  0.81993471068E+02 0.  0.
        254    2    1    2    0    0 -0.65421223692E+02 -0.96089110820E+02  0.34666595001E+03  0.97109834358E+03  0.89963418025E+03 0.  0.
         23    2    4    4    0    0 -0.22597809631E+01  0.29231791235E+03 -0.14179433821E+03  0.33726021381E+03  0.90465181065E+02 0.  0.
         23    2    4    4    0    0 -0.63161442729E+02 -0.38840702317E+03  0.48846028822E+03  0.63383812976E+03  0.91147891253E+02 0.  0.
         11    1    3    3    0    0  0.21061957129E+01  0.74745032230E+02  0.37196336768E+03  0.37940480070E+03  0.00000000000E+00 0. -1.
        -11    1    3    3    0    0  0.63315027979E+02  0.21344078590E+02  0.40471760004E+03  0.41019592665E+03  0.00000000000E+00 0.  1.
          2    1    5    5  502    0 -0.24000909267E+02  0.27737204183E+03 -0.12054836288E+03  0.30338622419E+03  0.00000000000E+00 0. -1.
          3    1    6    6  503    0 -0.17469132114E+02 -0.23162494841E+03  0.22194909605E+03  0.32127354161E+03  0.00000000000E+00 0. -1.
         -2    1    5    5    0  502  0.21741128304E+02  0.14945870514E+02 -0.21245975324E+02  0.33873989620E+02  0.00000000000E+00 0.  1.
         -3    1    6    6    0  503 -0.45692310615E+02 -0.15678207476E+03  0.26651119217E+03  0.31256458815E+03  0.00000000000E+00 0.  1.
<mgrwt>
<rscale>  0 0.13557850E+04</rscale>
<asrwt>0</asrwt>
<pdfrwt beam="1">  1        2 0.22184969E+00 0.13557850E+04</pdfrwt>
<pdfrwt beam="2">  1       -2 0.49027090E-01 0.13557850E+04</pdfrwt>
<totfact> 0.52646252E+01</totfact>
</mgrwt>
</event>
<event>
12    1  0.4967442E-008  0.2028812E+04  0.7818608E-02  0.8593267E-01
         -2   -1    0    0    0  501 -0.00000000000E+00  0.00000000000E+00  0.63659193637E+03  0.63659193637E+03  0.00000000000E+00 0. -1.
          2   -1    0    0  501    0  0.00000000000E+00 -0.00000000000E+00 -0.16164515411E+04  0.16164515411E+04  0.00000000000E+00 0.  1.
         23    2    1    2    0    0  0.76469616562E+03  0.60095245325E+01 -0.69639285235E+03  0.10382417673E+04  0.90479956063E+02 0.  0.
        254    2    1    2    0    0 -0.76469616562E+03 -0.60095245325E+01 -0.28346675235E+03  0.12148017102E+04  0.90032963697E+03 0.  0.
         23    2    4    4    0    0  0.18124561461E+03  0.93401580916E+02 -0.79267150012E+02  0.23758689486E+03  0.92684537045E+02 0.  0.
         23    2    4    4    0    0 -0.94594178023E+03 -0.99411105448E+02 -0.20419960234E+03  0.97721481529E+03  0.92535929005E+02 0.  0.
         13    1    3    3    0    0  0.65901084283E+03  0.13716229388E+01 -0.63875476044E+03  0.91777165804E+03  0.00000000000E+00 0. -1.
        -13    1    3    3    0    0  0.10568532280E+03  0.46379015937E+01 -0.57638091915E+02  0.12047010926E+03  0.00000000000E+00 0.  1.
          2    1    5    5  502    0  0.47096947328E+02  0.58711517827E+01  0.17339830646E+02  0.50529818897E+02  0.00000000000E+00 0.  1.
          2    1    6    6  503    0 -0.58041820720E+03 -0.89257709020E+02 -0.89764863842E+02  0.59406225655E+03  0.00000000000E+00 0. -1.
         -2    1    5    5    0  502  0.13414866728E+03  0.87530429133E+02 -0.96606980658E+02  0.18705707597E+03  0.00000000000E+00 0. -1.
         -2    1    6    6    0  503 -0.36552357303E+03 -0.10153396428E+02 -0.11443473850E+03  0.38315255874E+03  0.00000000000E+00 0.  1.
<mgrwt>
<rscale>  0 0.20288125E+04</rscale>
<asrwt>0</asrwt>
<pdfrwt beam="1">  1        2 0.24868485E+00 0.20288125E+04</pdfrwt>
<pdfrwt beam="2">  1       -2 0.97937222E-01 0.20288125E+04</pdfrwt>
<totfact> 0.87816069E+00</totfact>
</mgrwt>
</event>
<event>
12    1  0.4967442E-008  0.2241369E+04  0.7818608E-02  0.8501404E-01
         -2   -1    0    0    0  501 -0.00000000000E+00  0.00000000000E+00  0.47341235409E+03  0.47341235409E+03  0.00000000000E+00 0.  1.
          2   -1    0    0  501    0  0.00000000000E+00 -0.00000000000E+00 -0.26529374795E+04  0.26529374795E+04  0.00000000000E+00 0. -1.
         23    2    1    2    0    0  0.42301174184E+03  0.51681045678E+03 -0.18621281544E+04  0.19799416071E+04  0.81335861949E+02 0.  0.
        254    2    1    2    0    0 -0.42301174184E+03 -0.51681045678E+03 -0.31739697109E+03  0.11464082265E+04  0.87605878943E+03 0.  0.
         23    2    4    4    0    0 -0.45037814676E+03 -0.25282628850E+03  0.19782831649E+03  0.55995593035E+03  0.87481391724E+02 0.  0.
         23    2    4    4    0    0  0.27366404914E+02 -0.26398416828E+03 -0.51522528758E+03  0.58645229614E+03  0.89624982360E+02 0.  0.
         11    1    3    3    0    0  0.85232542690E+02  0.12835957884E+03 -0.34452846997E+03  0.37741308196E+03  0.00000000000E+00 0.  1.
        -11    1    3    3    0    0  0.33777919915E+03  0.38845087794E+03 -0.15175996844E+04  0.16025285252E+04  0.00000000000E+00 0. -1.
          2    1    5    5  502    0 -0.24444571287E+03 -0.98484001265E+02  0.70378516401E+02  0.27277452340E+03  0.00000000000E+00 0. -1.
          3    1    6    6  503    0 -0.22121074877E+02 -0.28096102683E+02 -0.40369899437E+02  0.53930155945E+02  0.00000000000E+00 0. -1.
         -2    1    5    5    0  502 -0.20593243389E+03 -0.15434228724E+03  0.12744980009E+03  0.28718140695E+03  0.00000000000E+00 0.  1.
         -3    1    6    6    0  503  0.49487479791E+02 -0.23588806559E+03 -0.47485538814E+03  0.53252214019E+03  0.00000000000E+00 0.  1.
<mgrwt>
<rscale>  0 0.22413687E+04</rscale>
<asrwt>0</asrwt>
<pdfrwt beam="1">  1        2 0.40814423E+00 0.22413687E+04</pdfrwt>
<pdfrwt beam="2">  1       -2 0.72832669E-01 0.22413687E+04</pdfrwt>
<totfact> 0.43968095E+00</totfact>
</mgrwt>
</event>
<event>
12    1  0.4967442E-008  0.1234603E+04  0.7818608E-02  0.9083096E-01
          2   -1    0    0  501    0  0.00000000000E+00  0.00000000000E+00  0.12117171695E+04  0.12117171695E+04  0.00000000000E+00 0. -1.
         -2   -1    0    0    0  501 -0.00000000000E+00 -0.00000000000E+00 -0.31448027353E+03  0.31448027353E+03  0.00000000000E+00 0.  1.
         23    2    1    2    0    0 -0.45717701452E+01  0.20821995484E+03  0.31084099056E+02  0.22709718594E+03  0.85032111414E+02 0.  0.
        254    2    1    2    0    0  0.45717701452E+01 -0.20821995484E+03  0.86615279689E+03  0.12991002571E+04  0.94554976584E+03 0.  0.
         23    2    4    4    0    0  0.44155851018E+03 -0.25790854052E+03  0.47864798731E+03  0.70638411121E+03  0.91563549637E+02 0.  0.
         23    2    4    4    0    0 -0.43698674004E+03  0.49688585675E+02  0.38750480958E+03  0.59271614587E+03  0.87898154723E+02 0.  0.
         13    1    3    3    0    0 -0.36540949462E+02  0.42496981929E+02  0.11158584594E+02  0.57146727560E+02  0.00000000000E+00 0. -1.
        -13    1    3    3    0    0  0.31969179317E+02  0.16572297291E+03  0.19925514462E+02  0.16995045838E+03  0.00000000000E+00 0.  1.
          1    1    5    5  502    0  0.30700128063E+03 -0.22423197919E+03  0.33520118897E+03  0.50684278024E+03  0.00000000000E+00 0. -1.
          3    1    6    6  503    0 -0.39730784573E+03  0.21369301005E+02  0.32698064956E+03  0.51500147232E+03  0.00000000000E+00 0. -1.
         -1    1    5    5    0  502  0.13455722956E+03 -0.33676561330E+02  0.14344679834E+03  0.19954133096E+03  0.00000000000E+00 0.  1.
         -3    1    6    6    0  503 -0.39678894305E+02  0.28319284670E+02  0.60524160024E+02  0.77714673545E+02  0.00000000000E+00 0.  1.
<mgrwt>
<rscale>  0 0.12346030E+04</rscale>
<asrwt>0</asrwt>
<pdfrwt beam="1">  1        2 0.18641802E+00 0.12346030E+04</pdfrwt>
<pdfrwt beam="2">  1       -2 0.48381581E-01 0.12346030E+04</pdfrwt>
<totfact> 0.74226931E+01</totfact>
</mgrwt>
</event>
<event>
12    1  0.4967442E-008  0.1651759E+04  0.7818608E-02  0.8789366E-01
         -1   -1    0    0    0  501 -0.00000000000E+00  0.00000000000E+00  0.44028977357E+03  0.44028977357E+03  0.00000000000E+00 0.  1.
          1   -1    0    0  501    0  0.00000000000E+00 -0.00000000000E+00 -0.15491551292E+04  0.15491551292E+04  0.00000000000E+00 0. -1.
         23    2    1    2    0    0 -0.40868915258E+03  0.25690977187E+02 -0.79510042893E+03  0.89887518170E+03  0.90028053667E+02 0.  0.
        254    2    1    2    0    0  0.40868915258E+03 -0.25690977187E+02 -0.31376492667E+03  0.10905697210E+04  0.96083663413E+03 0.  0.
         23    2    4    4    0    0  0.21448690749E+03 -0.46161855400E+03 -0.72457385740E+01  0.51651252474E+03  0.87386295293E+02 0.  0.
         23    2    4    4    0    0  0.19420224509E+03  0.43592757681E+03 -0.30651918810E+03  0.57405719630E+03  0.88545399228E+02 0.  0.
         13    1    3    3    0    0 -0.37837537556E+02  0.29671061757E+02 -0.10290046026E+03  0.11358061400E+03  0.00000000000E+00 0.  1.
        -13    1    3    3    0    0 -0.37085161502E+03 -0.39800845694E+01 -0.69219996867E+03  0.78529456771E+03  0.00000000000E+00 0. -1.
          1    1    6    6  502    0  0.77882089938E+02  0.23555573318E+03 -0.20178848590E+03  0.31979793059E+03  0.00000000000E+00 0. -1.
          1    1    5    5  503    0 -0.82117995566E+01 -0.11278828922E+02  0.15756430760E+01  0.14040238064E+02  0.00000000000E+00 0. -1.
         -1    1    5    5    0  503  0.22269870704E+03 -0.45033972508E+03 -0.88213816500E+01  0.50247228668E+03  0.00000000000E+00 0.  1.
         -1    1    6    6    0  502  0.11632015515E+03  0.20037184363E+03 -0.10473070219E+03  0.25425926570E+03  0.00000000000E+00 0.  1.
<mgrwt>
<rscale>  0 0.16517593E+04</rscale>
<asrwt>0</asrwt>
<pdfrwt beam="1">  1        1 0.23833156E+00 0.16517593E+04</pdfrwt>
<pdfrwt beam="2">  1       -1 0.67736889E-01 0.16517593E+04</pdfrwt>
<totfact> 0.12753928E+01</totfact>
</mgrwt>
</event>
<event>
12    1  0.4967442E-008  0.1919382E+04  0.7818608E-02  0.8645268E-01
         -1   -1    0    0    0  501 -0.00000000000E+00  0.00000000000E+00  0.17091918008E+04  0.17091918008E+04  0.00000000000E+00 0.  1.
          1   -1    0    0  501    0  0.00000000000E+00 -0.00000000000E+00 -0.53885518083E+03  0.53885518083E+03  0.00000000000E+00 0. -1.
         23    2    1    2    0    0 -0.27504158912E+03  0.26612539153E+03 -0.28665692834E+03  0.48640718639E+03  0.89158043051E+02 0.  0.
        254    2    1    2    0    0  0.27504158912E+03 -0.26612539153E+03  0.14569935483E+04  0.17616397952E+04  0.91327650172E+03 0.  0.
         23    2    4    4    0    0  0.43413226752E+03  0.19793361839E+03  0.62523971398E+03  0.79159226068E+03  0.89694282129E+02 0.  0.
         23    2    4    4    0    0 -0.15909067839E+03 -0.46405900992E+03  0.83175383429E+03  0.97004753452E+03  0.92288513636E+02 0.  0.
         13    1    3    3    0    0 -0.47341711245E+02  0.87723199218E+02 -0.10526011131E+03  0.14496995667E+03  0.00000000000E+00 0.  1.
        -13    1    3    3    0    0 -0.22769987788E+03  0.17840219231E+03 -0.18139681703E+03  0.34143722972E+03  0.00000000000E+00 0. -1.
          2    1    5    5  502    0 -0.44631000317E+01  0.25490830574E+01  0.91942939413E+01  0.10533381575E+02  0.00000000000E+00 0. -1.
          1    1    6    6  503    0 -0.33101187321E+02 -0.29155326254E+02  0.50358266529E+02  0.66945325893E+02  0.00000000000E+00 0. -1.
         -2    1    5    5    0  502  0.43859536755E+03  0.19538453533E+03  0.61604542004E+03  0.78105887911E+03  0.00000000000E+00 0.  1.
         -1    1    6    6    0  503 -0.12598949107E+03 -0.43490368366E+03  0.78139556776E+03  0.90310220863E+03  0.00000000000E+00 0.  1.
<mgrwt>
<rscale>  0 0.19193820E+04</rscale>
<asrwt>0</asrwt>
<pdfrwt beam="1">  1        1 0.82900797E-01 0.19193820E+04</pdfrwt>
<pdfrwt beam="2">  1       -1 0.26295258E+00 0.19193820E+04</pdfrwt>
<totfact> 0.21415118E+00</totfact>
</mgrwt>
</event>
<event>
12    1  0.4967442E-008  0.1664831E+04  0.7818608E-02  0.8781681E-01
         -2   -1    0    0    0  501 -0.00000000000E+00  0.00000000000E+00  0.46736041125E+03  0.46736041125E+03  0.00000000000E+00 0.  1.
          2   -1    0    0  501    0  0.00000000000E+00 -0.00000000000E+00 -0.14826146938E+04  0.14826146938E+04  0.00000000000E+00 0. -1.
         23    2    1    2    0    0  0.31735335577E+03  0.34685488684E+03 -0.77310794886E+03  0.90943924783E+03  0.91446049473E+02 0.  0.
        254    2    1    2    0    0 -0.31735335577E+03 -0.34685488684E+03 -0.24214633365E+03  0.10405358572E+04  0.89613534594E+03 0.  0.
         23    2    4    4    0    0 -0.13734610540E+02 -0.48961934370E+03  0.14639174324E+03  0.51906567226E+03  0.89904885168E+02 0.  0.
         23    2    4    4    0    0 -0.30361874523E+03  0.14276445686E+03 -0.38853807689E+03  0.52147018492E+03  0.91669427677E+02 0.  0.
         11    1    3    3    0    0  0.29496803597E+03  0.28537393677E+03 -0.69897681113E+03  0.81056338958E+03  0.00000000000E+00 0. -1.
        -11    1    3    3    0    0  0.22385319802E+02  0.61480950065E+02 -0.74131137728E+02  0.98875858249E+02  0.00000000000E+00 0.  1.
          1    1    5    5  502    0  0.14487580446E+02 -0.13181982711E+03  0.77512722599E+02  0.15360526999E+03  0.00000000000E+00 0. -1.
          3    1    6    6  503    0 -0.17790896434E+03  0.33483019280E+02 -0.21127762950E+03  0.27822823167E+03  0.00000000000E+00 0. -1.
         -1    1    5    5    0  502 -0.28222190985E+02 -0.35779951659E+03  0.68879020643E+02  0.36546040226E+03  0.00000000000E+00 0.  1.
         -3    1    6    6    0  503 -0.12570978089E+03  0.10928143758E+03 -0.17726044739E+03  0.24324195325E+03  0.00000000000E+00 0.  1.
<mgrwt>
<rscale>  0 0.16648308E+04</rscale>
<asrwt>0</asrwt>
<pdfrwt beam="1">  1        2 0.22809456E+00 0.16648308E+04</pdfrwt>
<pdfrwt beam="2">  1       -2 0.71901604E-01 0.16648308E+04</pdfrwt>
<totfact> 0.21715148E+01</totfact>
</mgrwt>
</event>
<event>
12    1  0.4967442E-008  0.1053204E+04  0.7818608E-02  0.9252042E-01
          2   -1    0    0  501    0  0.00000000000E+00  0.00000000000E+00  0.68865384965E+03  0.68865384965E+03  0.00000000000E+00 0. -1.
         -2   -1    0    0    0  501 -0.00000000000E+00 -0.00000000000E+00 -0.40268361358E+03  0.40268361358E+03  0.00000000000E+00 0.  1.
         23    2    1    2    0    0  0.13629150192E+03  0.43394629297E+02  0.99971161591E+02  0.19703482221E+03  0.91487817044E+02 0.  0.
        254    2    1    2    0    0 -0.13629150192E+03 -0.43394629297E+02  0.18599907448E+03  0.89430264101E+03  0.86297340091E+03 0.  0.
         23    2    4    4    0    0  0.27129904940E+03  0.17742463722E+03  0.24778916486E+03  0.41830604339E+03  0.92183510563E+02 0.  0.
         23    2    4    4    0    0 -0.40759055132E+03 -0.22081926651E+03 -0.61790090384E+02  0.47599659762E+03  0.88676601694E+02 0.  0.
         11    1    3    3    0    0  0.14698184982E+03  0.42196720320E+02  0.76006562391E+02  0.17076658019E+03  0.00000000000E+00 0. -1.
        -11    1    3    3    0    0 -0.10690347904E+02  0.11979089767E+01  0.23964599200E+02  0.26268242024E+02  0.00000000000E+00 0.  1.
          1    1    5    5  502    0  0.25926295873E+03  0.17876538878E+03  0.25410038731E+03  0.40464966678E+03  0.00000000000E+00 0. -1.
          3    1    6    6  503    0 -0.28724869800E+03 -0.16216595166E+03 -0.83760372973E+02  0.34033132454E+03  0.00000000000E+00 0. -1.
         -1    1    5    5    0  502  0.12036090676E+02 -0.13407515630E+01 -0.63112224475E+01  0.13656376616E+02  0.00000000000E+00 0.  1.
         -3    1    6    6    0  503 -0.12034185332E+03 -0.58653314847E+02  0.21970282589E+02  0.13566527308E+03  0.00000000000E+00 0.  1.
<mgrwt>
<rscale>  0 0.10532039E+04</rscale>
<asrwt>0</asrwt>
<pdfrwt beam="1">  1        2 0.10594675E+00 0.10532039E+04</pdfrwt>
<pdfrwt beam="2">  1       -2 0.61951325E-01 0.10532039E+04</pdfrwt>
<totfact> 0.10081704E+02</totfact>
</mgrwt>
</event>
<event>
12    1  0.4967442E-008  0.1235641E+04  0.7818608E-02  0.9082220E-01
          1   -1    0    0  501    0  0.00000000000E+00  0.00000000000E+00  0.78832040586E+03  0.78832040586E+03  0.00000000000E+00 0.  1.
         -1   -1    0    0    0  501 -0.00000000000E+00 -0.00000000000E+00 -0.48419646552E+03  0.48419646552E+03  0.00000000000E+00 0. -1.
         23    2    1    2    0    0 -0.70386606278E+02  0.25002134500E+03  0.14351881752E+03  0.31055789202E+03  0.91562033686E+02 0.  0.
        254    2    1    2    0    0  0.70386606278E+02 -0.25002134500E+03  0.16060512282E+03  0.96195897935E+03  0.91219851194E+03 0.  0.
         23    2    4    4    0    0  0.43988706584E+03  0.28843168674E+02 -0.34821193007E+02  0.45151458239E+03  0.91215917202E+02 0.  0.
         23    2    4    4    0    0 -0.36950045957E+03 -0.27886451367E+03  0.19542631582E+03  0.51044439697E+03  0.89811084342E+02 0.  0.
         13    1    3    3    0    0 -0.77589834874E+02  0.16022532923E+03  0.12771683977E+03  0.21909799124E+03  0.00000000000E+00 0.  1.
        -13    1    3    3    0    0  0.72032285967E+01  0.89796015768E+02  0.15801977754E+02  0.91459900781E+02  0.00000000000E+00 0. -1.
          1    1    5    5  502    0  0.35421489004E+02 -0.15305032831E+02  0.15425822010E+02  0.41555768527E+02  0.00000000000E+00 0. -1.
          1    1    6    6  503    0 -0.33992216037E+03 -0.21911230720E+03  0.17548262013E+03  0.44085306877E+03  0.00000000000E+00 0. -1.
         -1    1    5    5    0  502  0.40446557684E+03  0.44148201504E+02 -0.50247015017E+02  0.40995881386E+03  0.00000000000E+00 0.  1.
         -1    1    6    6    0  503 -0.29578299198E+02 -0.59752206478E+02  0.19943695694E+02  0.69591328198E+02  0.00000000000E+00 0.  1.
<mgrwt>
<rscale>  0 0.12356407E+04</rscale>
<asrwt>0</asrwt>
<pdfrwt beam="1">  1        1 0.12128006E+00 0.12356407E+04</pdfrwt>
<pdfrwt beam="2">  1       -1 0.74491764E-01 0.12356407E+04</pdfrwt>
<totfact> 0.40542498E+01</totfact>
</mgrwt>
</event>
<event>
12    1  0.4967442E-008  0.2001280E+04  0.7818608E-02  0.8606022E-01
         -2   -1    0    0    0  501 -0.00000000000E+00  0.00000000000E+00  0.47809568599E+03  0.47809568599E+03  0.00000000000E+00 0.  1.
          2   -1    0    0  501    0  0.00000000000E+00 -0.00000000000E+00 -0.20943103599E+04  0.20943103599E+04  0.00000000000E+00 0. -1.
         23    2    1    2    0    0 -0.96815836427E+01 -0.76103478979E+02  0.36945680415E+03  0.39068041173E+03  0.10122935047E+03 0.  0.
        254    2    1    2    0    0  0.96815836427E+01  0.76103478979E+02 -0.19856714781E+04  0.21817256342E+04  0.90063869081E+03 0.  0.
         23    2    4    4    0    0 -0.13622989000E+03  0.19018261482E+03 -0.77181671325E+02  0.26205837343E+03  0.89384399030E+02 0.  0.
         23    2    4    4    0    0  0.14591147364E+03 -0.11407913584E+03 -0.19084898067E+04  0.19196672607E+04  0.92113202649E+02 0.  0.
         11    1    3    3    0    0  0.45138379902E+02 -0.42802367001E+02  0.20192856314E+03  0.21129283133E+03  0.00000000000E+00 0.  1.
        -11    1    3    3    0    0 -0.54819963545E+02 -0.33301111979E+02  0.16752824101E+03  0.17938758039E+03  0.00000000000E+00 0. -1.
          3    1    6    6  502    0  0.65979002834E+02 -0.10242769856E+03 -0.95030660059E+03  0.95808522448E+03  0.00000000000E+00 0. -1.
          3    1    5    5  503    0 -0.11699848818E+03  0.17512275601E+03 -0.95771216506E+02  0.23136281425E+03  0.00000000000E+00 0. -1.
         -3    1    5    5    0  503 -0.19231401822E+02  0.15059858811E+02  0.18589545182E+02  0.30695559182E+02  0.00000000000E+00 0.  1.
         -3    1    6    6    0  502  0.79932470807E+02 -0.11651437282E+02 -0.95818320616E+03  0.96158203626E+03  0.00000000000E+00 0.  1.
<mgrwt>
<rscale>  0 0.20012803E+04</rscale>
<asrwt>0</asrwt>
<pdfrwt beam="1">  1        2 0.32220159E+00 0.20012803E+04</pdfrwt>
<pdfrwt beam="2">  1       -2 0.73553184E-01 0.20012803E+04</pdfrwt>
<totfact> 0.91668240E+00</totfact>
</mgrwt>
</event>
<event>
12    1  0.4967442E-008  0.1062725E+04  0.7818608E-02  0.9242304E-01
          2   -1    0    0  501    0  0.00000000000E+00  0.00000000000E+00  0.23663481110E+04  0.23663481110E+04  0.00000000000E+00 0. -1.
         -2   -1    0    0    0  501 -0.00000000000E+00 -0.00000000000E+00 -0.11931726782E+03  0.11931726782E+03  0.00000000000E+00 0.  1.
         23    2    1    2    0    0  0.45172803336E+02 -0.84855053335E+02  0.53329186785E+03  0.54936682405E+03  0.90347821288E+02 0.  0.
        254    2    1    2    0    0 -0.45172803336E+02  0.84855053335E+02  0.17137389753E+04  0.19362985548E+04  0.89616396680E+03 0.  0.
         23    2    4    4    0    0 -0.11696729087E+03  0.45853804242E+03  0.11805192218E+04  0.12751186356E+04  0.91451726514E+02 0.  0.
         23    2    4    4    0    0  0.71794487537E+02 -0.37368298909E+03  0.53321975357E+03  0.66117991922E+03  0.89678064265E+02 0.  0.
         13    1    3    3    0    0  0.57303215344E+02 -0.81929542426E+02  0.30994450407E+03  0.32567115932E+03  0.00000000000E+00 0. -1.
        -13    1    3    3    0    0 -0.12130412009E+02 -0.29255109094E+01  0.22334736378E+03  0.22369566473E+03  0.00000000000E+00 0.  1.
          4    1    5    5  502    0 -0.29704769338E+02  0.11556285295E+03  0.41386908739E+03  0.43072586154E+03  0.00000000000E+00 0. -1.
          3    1    6    6  503    0  0.63599651641E+02 -0.27151506592E+03  0.31902033495E+03  0.42372080528E+03  0.00000000000E+00 0. -1.
         -4    1    5    5    0  502 -0.87262521535E+02  0.34297518947E+03  0.76665013439E+03  0.84439277402E+03  0.00000000000E+00 0.  1.
         -3    1    6    6    0  503  0.81948358962E+01 -0.10216792316E+03  0.21419941861E+03  0.23745911394E+03  0.00000000000E+00 0.  1.
<mgrwt>
<rscale>  0 0.10627252E+04</rscale>
<asrwt>0</asrwt>
<pdfrwt beam="1">  1        2 0.36405352E+00 0.10627252E+04</pdfrwt>
<pdfrwt beam="2">  1       -2 0.18356505E-01 0.10627252E+04</pdfrwt>
<totfact> 0.10347065E+02</totfact>
</mgrwt>
</event>
<event>
12    1  0.4967442E-008  0.2638979E+04  0.7818608E-02  0.8355080E-01
          2   -1    0    0  501    0  0.00000000000E+00  0.00000000000E+00  0.21644169315E+04  0.21644169315E+04  0.00000000000E+00 0.  1.
         -2   -1    0    0    0  501 -0.00000000000E+00 -0.00000000000E+00 -0.80439808126E+03  0.80439808126E+03  0.00000000000E+00 0. -1.
         23    2    1    2    0    0 -0.66665935659E+03 -0.94679087990E+03  0.43190834258E+03  0.12392129331E+04  0.90863685101E+02 0.  0.
        254    2    1    2    0    0  0.66665935659E+03  0.94679087990E+03  0.92811050764E+03  0.17296020796E+04  0.88841801616E+03 0.  0.
         23    2    4    4    0    0  0.17291333422E+03 -0.12982079777E+03  0.31717678530E+03  0.39384559401E+03  0.88095278544E+02 0.  0.
         23    2    4    4    0    0  0.49374602236E+03  0.10766116777E+04  0.61093372234E+03  0.13357564856E+04  0.90152851644E+02 0.  0.
         13    1    3    3    0    0 -0.57207715062E+02 -0.63880592687E+02  0.97197706289E+01  0.86301371517E+02  0.00000000000E+00 0. -1.
        -13    1    3    3    0    0 -0.60945164152E+03 -0.88291028721E+03  0.42218857195E+03  0.11529115616E+04  0.00000000000E+00 0.  1.
          1    1    5    5  502    0  0.13387114329E+02  0.12154763251E+02  0.13356597092E+02  0.22480030820E+02  0.00000000000E+00 0. -1.
          1    1    6    6  503    0  0.17476370710E+03  0.28599489188E+03  0.18207296925E+03  0.38142626762E+03  0.00000000000E+00 0. -1.
         -1    1    5    5    0  502  0.15952621989E+03 -0.14197556102E+03  0.30382018821E+03  0.37136556319E+03  0.00000000000E+00 0.  1.
         -1    1    6    6    0  503  0.31898231527E+03  0.79061678578E+03  0.42886075309E+03  0.95433021798E+03  0.00000000000E+00 0.  1.
<mgrwt>
<rscale>  0 0.26389792E+04</rscale>
<asrwt>0</asrwt>
<pdfrwt beam="1">  1        2 0.33298722E+00 0.26389792E+04</pdfrwt>
<pdfrwt beam="2">  1       -2 0.12375355E+00 0.26389792E+04</pdfrwt>
<totfact> 0.23440713E+00</totfact>
</mgrwt>
</event>
<event>
12    1  0.4967442E-008  0.4406665E+04  0.7818608E-02  0.7927184E-01
         -2   -1    0    0    0  501 -0.00000000000E+00  0.00000000000E+00  0.17753316248E+04  0.17753316248E+04  0.00000000000E+00 0.  1.
          2   -1    0    0  501    0  0.00000000000E+00 -0.00000000000E+00 -0.27345164791E+04  0.27345164791E+04  0.00000000000E+00 0. -1.
         23    2    1    2    0    0  0.24821436592E+03 -0.15436184449E+04  0.96572912466E+03  0.18399155229E+04  0.91039080922E+02 0.  0.
        254    2    1    2    0    0 -0.24821436592E+03  0.15436184449E+04 -0.19249139790E+04  0.26699325810E+04  0.98938257802E+03 0.  0.
         23    2    4    4    0    0  0.18243398231E+03  0.19471710359E+03 -0.83571497916E+03  0.88131013383E+03  0.84208771947E+02 0.  0.
         23    2    4    4    0    0 -0.43064834823E+03  0.13489013413E+04 -0.10891989999E+04  0.17886224472E+04  0.88447548634E+02 0.  0.
         13    1    3    3    0    0  0.23597524822E+03 -0.12804964823E+04  0.82252356049E+03  0.15400975835E+04  0.00000000000E+00 0.  1.
        -13    1    3    3    0    0  0.12239117701E+02 -0.26312196260E+03  0.14320556417E+03  0.29981793944E+03  0.00000000000E+00 0. -1.
          1    1    6    6  502    0 -0.40690913860E+03  0.12969367363E+04 -0.10232568159E+04  0.17013742846E+04  0.00000000000E+00 0. -1.
          1    1    5    5  503    0  0.64124391568E+02  0.11675587693E+03 -0.48754310225E+03  0.50541285000E+03  0.00000000000E+00 0. -1.
         -1    1    5    5    0  503  0.11830959074E+03  0.77961226653E+02 -0.34817187691E+03  0.37589728383E+03  0.00000000000E+00 0.  1.
         -1    1    6    6    0  502 -0.23739209630E+02  0.51964605009E+02 -0.65942183958E+02  0.87248162576E+02  0.00000000000E+00 0.  1.
<mgrwt>
<rscale>  0 0.44066648E+04</rscale>
<asrwt>0</asrwt>
<pdfrwt beam="1">  1        2 0.42069484E+00 0.44066648E+04</pdfrwt>
<pdfrwt beam="2">  1       -2 0.27312794E+00 0.44066648E+04</pdfrwt>
<totfact> 0.89653273E-02</totfact>
</mgrwt>
</event>
<event>
12    1  0.4967442E-008  0.1326078E+04  0.7818608E-02  0.9009137E-01
         -1   -1    0    0    0  501 -0.00000000000E+00  0.00000000000E+00  0.14538600619E+03  0.14538600619E+03  0.00000000000E+00 0.  1.
          1   -1    0    0  501    0  0.00000000000E+00 -0.00000000000E+00 -0.30238154415E+04  0.30238154415E+04  0.00000000000E+00 0. -1.
         23    2    1    2    0    0 -0.13890996983E+03  0.30258196094E+03 -0.80026840326E+03  0.87155347228E+03  0.91236587922E+02 0.  0.
        254    2    1    2    0    0  0.13890996983E+03 -0.30258196094E+03 -0.20781610320E+04  0.22976479754E+04  0.92172724871E+03 0.  0.
         23    2    4    4    0    0  0.23155515943E+02 -0.38128631380E+03 -0.20949296221E+04  0.21313672973E+04  0.89894403136E+02 0.  0.
         23    2    4    4    0    0  0.11575445389E+03  0.78704352856E+02  0.16768590015E+02  0.16628067809E+03  0.88173746327E+02 0.  0.
         11    1    3    3    0    0 -0.42207047072E+02  0.11629363194E+03 -0.19509094757E+03  0.23101108518E+03  0.00000000000E+00 0. -1.
        -11    1    3    3    0    0 -0.96702922759E+02  0.18628832900E+03 -0.60517745570E+03  0.64054238710E+03  0.00000000000E+00 0.  1.
          1    1    5    5  502    0 -0.19462210250E+02 -0.68038548260E+02 -0.54078663296E+03  0.54539729011E+03  0.00000000000E+00 0. -1.
          3    1    6    6  503    0  0.10118996214E+03  0.34518882999E+02 -0.17711137602E+02  0.10837271851E+03  0.00000000000E+00 0. -1.
         -1    1    5    5    0  502  0.42617726193E+02 -0.31324776554E+03 -0.15541429891E+04  0.15859700072E+04  0.00000000000E+00 0.  1.
         -3    1    6    6    0  503  0.14564491746E+02  0.44185469857E+02  0.34479727617E+02  0.57907959581E+02  0.00000000000E+00 0.  1.
<mgrwt>
<rscale>  0 0.13260776E+04</rscale>
<asrwt>0</asrwt>
<pdfrwt beam="1">  1        1 0.46520236E+00 0.13260776E+04</pdfrwt>
<pdfrwt beam="2">  1       -1 0.22367079E-01 0.13260776E+04</pdfrwt>
<totfact> 0.96316428E+00</totfact>
</mgrwt>
</event>
<event>
12    1  0.4967442E-008  0.1196368E+04  0.7818608E-02  0.9116042E-01
          1   -1    0    0  501    0  0.00000000000E+00  0.00000000000E+00  0.16905716926E+04  0.16905716926E+04  0.00000000000E+00 0. -1.
         -1   -1    0    0    0  501 -0.00000000000E+00 -0.00000000000E+00 -0.21165856514E+03  0.21165856514E+03  0.00000000000E+00 0.  1.
         23    2    1    2    0    0  0.20972213803E+03  0.11080092632E+03  0.20440876806E+03  0.33335135066E+03  0.11436764436E+03 0.  0.
        254    2    1    2    0    0 -0.20972213803E+03 -0.11080092632E+03  0.12745043594E+04  0.15688789071E+04  0.88360593168E+03 0.  0.
         23    2    4    4    0    0 -0.53358136055E+03 -0.15019526999E+03  0.64409630689E+03  0.85466322190E+03  0.91222162178E+02 0.  0.
         23    2    4    4    0    0  0.32385922252E+03  0.39394343672E+02  0.63040805252E+03  0.71421568518E+03  0.79076051688E+02 0.  0.
         11    1    3    3    0    0  0.17226006768E+03  0.65972960880E+02  0.20386174135E+03  0.27492830351E+03  0.00000000000E+00 0. -1.
        -11    1    3    3    0    0  0.37462070347E+02  0.44827965441E+02  0.54702670882E+00  0.58423047152E+02  0.00000000000E+00 0.  1.
          3    1    5    5  502    0 -0.28841473792E+03 -0.10941633419E+03  0.30088602737E+03  0.43091460489E+03  0.00000000000E+00 0. -1.
          3    1    6    6  503    0  0.14673203484E+03  0.57479526307E+02  0.28947536424E+03  0.32959091689E+03  0.00000000000E+00 0. -1.
         -3    1    5    5    0  502 -0.24516662263E+03 -0.40778935799E+02  0.34321027952E+03  0.42374861701E+03  0.00000000000E+00 0.  1.
         -3    1    6    6    0  503  0.17712718768E+03 -0.18085182636E+02  0.34093268828E+03  0.38462476829E+03  0.00000000000E+00 0.  1.
<mgrwt>
<rscale>  0 0.11963678E+04</rscale>
<asrwt>0</asrwt>
<pdfrwt beam="1">  1        1 0.26008794E+00 0.11963678E+04</pdfrwt>
<pdfrwt beam="2">  1       -1 0.32562857E-01 0.11963678E+04</pdfrwt>
<totfact> 0.42285604E+01</totfact>
</mgrwt>
</event>
<event>
12    1  0.4967442E-008  0.1609108E+04  0.7818608E-02  0.8814972E-01
          2   -1    0    0  501    0  0.00000000000E+00  0.00000000000E+00  0.12001069396E+04  0.12001069396E+04  0.00000000000E+00 0. -1.
         -2   -1    0    0    0  501 -0.00000000000E+00 -0.00000000000E+00 -0.53937478123E+03  0.53937478123E+03  0.00000000000E+00 0.  1.
         23    2    1    2    0    0  0.28066935811E+03  0.38883140200E+03  0.51416598835E+03  0.70837805656E+03  0.86415621657E+02 0.  0.
        254    2    1    2    0    0 -0.28066935811E+03 -0.38883140200E+03  0.14656617005E+03  0.10311036643E+04  0.90095947555E+03 0.  0.
         23    2    4    4    0    0 -0.30956923715E+03 -0.58082349717E+03 -0.13383507607E+03  0.67813401804E+03  0.93620891773E+02 0.  0.
         23    2    4    4    0    0  0.28899879047E+02  0.19199209517E+03  0.28040124611E+03  0.35296964627E+03  0.90920540843E+02 0.  0.
         11    1    3    3    0    0  0.21298328661E+02  0.22102250347E+01  0.17826299250E+02  0.27861816944E+02  0.00000000000E+00 0.  1.
        -11    1    3    3    0    0  0.25937102945E+03  0.38662117697E+03  0.49633968910E+03  0.68051623961E+03  0.00000000000E+00 0. -1.
          4    1    5    5  502    0 -0.23111641261E+03 -0.48610310020E+03 -0.81139230552E+02  0.54432949115E+03  0.00000000000E+00 0.  1.
          3    1    6    6  503    0  0.22809022912E+02  0.11077124228E+03  0.23232562812E+03  0.25839062894E+03  0.00000000000E+00 0. -1.
         -4    1    5    5    0  502 -0.78452824544E+02 -0.94720396977E+02 -0.52695845515E+02  0.13380452689E+03  0.00000000000E+00 0. -1.
         -3    1    6    6    0  503  0.60908561352E+01  0.81220852895E+02  0.48075617991E+02  0.94579017327E+02  0.00000000000E+00 0.  1.
<mgrwt>
<rscale>  0 0.16091083E+04</rscale>
<asrwt>0</asrwt>
<pdfrwt beam="1">  1        2 0.18463184E+00 0.16091083E+04</pdfrwt>
<pdfrwt beam="2">  1       -2 0.82980736E-01 0.16091083E+04</pdfrwt>
<totfact> 0.23097993E+01</totfact>
</mgrwt>
</event>
<event>
12    1  0.4967442E-008  0.1572679E+04  0.7818608E-02  0.8837510E-01
         -2   -1    0    0    0  501 -0.00000000000E+00  0.00000000000E+00  0.30210310823E+03  0.30210310823E+03  0.00000000000E+00 0.  1.
          2   -1    0    0  501    0  0.00000000000E+00 -0.00000000000E+00 -0.20467511335E+04  0.20467511335E+04  0.00000000000E+00 0. -1.
         23    2    1    2    0    0 -0.15923109123E+03  0.46111106420E+03 -0.31062645524E+03  0.58386213461E+03  0.80176328154E+02 0.  0.
        254    2    1    2    0    0  0.15923109123E+03 -0.46111106420E+03 -0.14340215701E+04  0.17649921072E+04  0.90598086125E+03 0.  0.
         23    2    4    4    0    0  0.42458702315E+03 -0.54208692318E+03 -0.75485999843E+03  0.10254333919E+04  0.86992249407E+02 0.  0.
         23    2    4    4    0    0 -0.26535593192E+03  0.80975858977E+02 -0.67916157164E+03  0.73955871527E+03  0.93358409322E+02 0.  0.
         13    1    3    3    0    0 -0.16711542531E+03  0.41252151684E+03 -0.27685934408E+03  0.52416854507E+03  0.00000000000E+00 0.  1.
        -13    1    3    3    0    0  0.78843340828E+01  0.48589547357E+02 -0.33767111164E+02  0.59693589544E+02  0.00000000000E+00 0. -1.
          4    1    5    5  502    0  0.39185298417E+03 -0.51213703430E+03 -0.67143936828E+03  0.93094786556E+03  0.00000000000E+00 0.  1.
          3    1    6    6  503    0 -0.20591276530E+01 -0.12436624400E+02 -0.41711264376E+02  0.43574524771E+02  0.00000000000E+00 0. -1.
         -4    1    5    5    0  502  0.32734038989E+02 -0.29949888876E+02 -0.83420630141E+02  0.94485526328E+02  0.00000000000E+00 0. -1.
         -3    1    6    6    0  503 -0.26329680427E+03  0.93412483378E+02 -0.63745030726E+03  0.69598419050E+03  0.00000000000E+00 0.  1.
<mgrwt>
<rscale>  0 0.15726791E+04</rscale>
<asrwt>0</asrwt>
<pdfrwt beam="1">  1        2 0.31488479E+00 0.15726791E+04</pdfrwt>
<pdfrwt beam="2">  1       -2 0.46477401E-01 0.15726791E+04</pdfrwt>
<totfact> 0.26547108E+01</totfact>
</mgrwt>
</event>
<event>
12    1  0.4967442E-008  0.1617891E+04  0.7818608E-02  0.8809631E-01
          1   -1    0    0  501    0  0.00000000000E+00  0.00000000000E+00  0.23659044780E+04  0.23659044780E+04  0.00000000000E+00 0. -1.
         -1   -1    0    0    0  501 -0.00000000000E+00 -0.00000000000E+00 -0.27659321170E+03  0.27659321170E+03  0.00000000000E+00 0.  1.
         23    2    1    2    0    0 -0.35770926868E+03 -0.38243653792E+03  0.10305974566E+04  0.11597234970E+04  0.92810805500E+02 0.  0.
        254    2    1    2    0    0  0.35770926868E+03  0.38243653792E+03  0.10587138097E+04  0.14827741926E+04  0.89639876679E+03 0.  0.
         23    2    4    4    0    0  0.25837321312E+02 -0.27294746201E+03  0.38881528010E+03  0.48453870873E+03  0.91828938940E+02 0.  0.
         23    2    4    4    0    0  0.33187194737E+03  0.65538399993E+03  0.66989852958E+03  0.99823548391E+03  0.89682019313E+02 0.  0.
         13    1    3    3    0    0 -0.93865710087E+02 -0.16309963152E+03  0.39002874973E+03  0.43305275308E+03  0.00000000000E+00 0. -1.
        -13    1    3    3    0    0 -0.26384355860E+03 -0.21933690640E+03  0.64056870685E+03  0.72667074396E+03  0.00000000000E+00 0.  1.
          2    1    5    5  502    0  0.45089806275E+02 -0.14306207527E+03  0.26253109404E+03  0.30236141181E+03  0.00000000000E+00 0. -1.
          3    1    6    6  503    0  0.25231952257E+03  0.54690389989E+03  0.50953608291E+03  0.78892080526E+03  0.00000000000E+00 0. -1.
         -2    1    5    5    0  502 -0.19252484963E+02 -0.12988538674E+03  0.12628418606E+03  0.18217729692E+03  0.00000000000E+00 0.  1.
         -3    1    6    6    0  503  0.79552424805E+02  0.10848010004E+03  0.16036244667E+03  0.20931467865E+03  0.00000000000E+00 0.  1.
<mgrwt>
<rscale>  0 0.16178914E+04</rscale>
<asrwt>0</asrwt>
<pdfrwt beam="1">  1        1 0.36398529E+00 0.16178914E+04</pdfrwt>
<pdfrwt beam="2">  1       -1 0.42552803E-01 0.16178914E+04</pdfrwt>
<totfact> 0.87442567E+00</totfact>
</mgrwt>
</event>
<event>
12    1  0.4967442E-008  0.2202623E+04  0.7818608E-02  0.8517337E-01
         -1   -1    0    0    0  501 -0.00000000000E+00  0.00000000000E+00  0.17214151667E+04  0.17214151667E+04  0.00000000000E+00 0.  1.
          1   -1    0    0  501    0  0.00000000000E+00 -0.00000000000E+00 -0.70458685780E+03  0.70458685780E+03  0.00000000000E+00 0. -1.
         23    2    1    2    0    0 -0.19418419855E+03 -0.32355083547E+03  0.13406233068E+04  0.13954159327E+04  0.86730205981E+02 0.  0.
        254    2    1    2    0    0  0.19418419855E+03  0.32355083547E+03 -0.32379499788E+03  0.10305860917E+04  0.90270252340E+03 0.  0.
         23    2    4    4    0    0  0.25918756177E+03  0.30078786773E+02  0.25260203329E+03  0.37416970690E+03  0.90068067283E+02 0.  0.
         23    2    4    4    0    0 -0.65003363228E+02  0.29347204870E+03 -0.57639703117E+03  0.65641638485E+03  0.91091449467E+02 0.  0.
         13    1    3    3    0    0 -0.20109254117E+03 -0.31001851115E+03  0.12481234725E+04  0.13016765689E+04  0.00000000000E+00 0.  1.
        -13    1    3    3    0    0  0.69083426264E+01 -0.13532324319E+02  0.92499834217E+02  0.93739363821E+02  0.00000000000E+00 0. -1.
          4    1    5    5  502    0  0.48871460111E+02 -0.12858052119E+02  0.95910056009E+02  0.10840889245E+03  0.00000000000E+00 0. -1.
          3    1    6    6  503    0 -0.36492431918E+02  0.24224854375E+03 -0.52116604384E+03  0.57587333658E+03  0.00000000000E+00 0. -1.
         -4    1    5    5    0  502  0.21031610166E+03  0.42936838892E+02  0.15669197728E+03  0.26576081445E+03  0.00000000000E+00 0.  1.
         -3    1    6    6    0  503 -0.28510931310E+02  0.51223504948E+02 -0.55230987330E+02  0.80543048271E+02  0.00000000000E+00 0.  1.
<mgrwt>
<rscale>  0 0.22026225E+04</rscale>
<asrwt>0</asrwt>
<pdfrwt beam="1">  1        1 0.10839798E+00 0.22026225E+04</pdfrwt>
<pdfrwt beam="2">  1       -1 0.26483310E+00 0.22026225E+04</pdfrwt>
<totfact> 0.13724405E+00</totfact>
</mgrwt>
</event>
<event>
12    1  0.4967442E-008  0.1972783E+04  0.7818608E-02  0.8619452E-01
         -1   -1    0    0    0  501 -0.00000000000E+00  0.00000000000E+00  0.79670672462E+03  0.79670672462E+03  0.00000000000E+00 0.  1.
          1   -1    0    0  501    0  0.00000000000E+00 -0.00000000000E+00 -0.12212375665E+04  0.12212375665E+04  0.00000000000E+00 0. -1.
         23    2    1    2    0    0 -0.34298848551E+02  0.37620456002E+03 -0.86407948369E+03  0.94727434320E+03  0.89381458672E+02 0.  0.
        254    2    1    2    0    0  0.34298848551E+02 -0.37620456002E+03  0.43954864181E+03  0.10706699479E+04  0.90023599510E+03 0.  0.
         23    2    4    4    0    0  0.31811953079E+03 -0.53277085571E+03  0.20131193291E+03  0.65864621143E+03  0.90793815506E+02 0.  0.
         23    2    4    4    0    0 -0.28382068224E+03  0.15656629569E+03  0.23823670890E+03  0.41202373650E+03  0.89104687606E+02 0.  0.
         13    1    3    3    0    0  0.37352203123E+00  0.15574880444E+03 -0.25742321864E+03  0.30087296837E+03  0.00000000000E+00 0. -1.
        -13    1    3    3    0    0 -0.34672370582E+02  0.22045575558E+03 -0.60665626505E+03  0.64640137483E+03  0.00000000000E+00 0.  1.
          1    1    6    6  502    0 -0.29048813724E+03  0.15326487369E+03  0.23528088084E+03  0.40401803459E+03  0.00000000000E+00 0. -1.
          1    1    5    5  503    0  0.15807403630E+03 -0.34327692512E+03  0.10182802862E+03  0.39140183403E+03  0.00000000000E+00 0. -1.
         -1    1    5    5    0  503  0.16004549449E+03 -0.18949393059E+03  0.99483904288E+02  0.26724437739E+03  0.00000000000E+00 0.  1.
         -1    1    6    6    0  502  0.66674550024E+01  0.33014219988E+01  0.29558280588E+01  0.80057019016E+01  0.00000000000E+00 0.  1.
<mgrwt>
<rscale>  0 0.19727830E+04</rscale>
<asrwt>0</asrwt>
<pdfrwt beam="1">  1        1 0.18788270E+00 0.19727830E+04</pdfrwt>
<pdfrwt beam="2">  1       -1 0.12257026E+00 0.19727830E+04</pdfrwt>
<totfact> 0.56337461E+00</totfact>
</mgrwt>
</event>
<event>
12    1  0.4967442E-008  0.2047233E+04  0.7818608E-02  0.8584851E-01
          1   -1    0    0  501    0  0.00000000000E+00  0.00000000000E+00  0.11821196734E+04  0.11821196734E+04  0.00000000000E+00 0. -1.
         -1   -1    0    0    0  501 -0.00000000000E+00 -0.00000000000E+00 -0.88636594153E+03  0.88636594153E+03  0.00000000000E+00 0.  1.
         23    2    1    2    0    0 -0.62106928419E+03 -0.20467938953E+03  0.62202178081E+03  0.90840171051E+03  0.10325630051E+03 0.  0.
        254    2    1    2    0    0  0.62106928419E+03  0.20467938953E+03 -0.32626804892E+03  0.11600839044E+04  0.90095677885E+03 0.  0.
         23    2    4    4    0    0  0.77243652499E+03 -0.73881447274E+02 -0.20655500072E+03  0.80809041167E+03  0.90711034190E+02 0.  0.
         23    2    4    4    0    0 -0.15136724079E+03  0.27856083680E+03 -0.11971304820E+03  0.35199349278E+03  0.95184156591E+02 0.  0.
         13    1    3    3    0    0 -0.81060812160E+02  0.35537919360E+01  0.54004588033E+02  0.97467842049E+02  0.00000000000E+00 0.  1.
        -13    1    3    3    0    0 -0.54000847203E+03 -0.20823318146E+03  0.56801719278E+03  0.81093386846E+03  0.00000000000E+00 0. -1.
          4    1    5    5  502    0  0.46643402246E+03 -0.24611812501E+02 -0.16501763204E+03  0.49537587497E+03  0.00000000000E+00 0. -1.
          3    1    6    6  503    0 -0.11115702498E+03  0.10890933866E+03 -0.42556889938E+02  0.16133262885E+03  0.00000000000E+00 0. -1.
         -4    1    5    5    0  502  0.30600250253E+03 -0.49269634773E+02 -0.41537368681E+02  0.31271453670E+03  0.00000000000E+00 0.  1.
         -3    1    6    6    0  503 -0.40210215813E+02  0.16965149814E+03 -0.77156158266E+02  0.19066086393E+03  0.00000000000E+00 0.  1.
<mgrwt>
<rscale>  0 0.20472329E+04</rscale>
<asrwt>0</asrwt>
<pdfrwt beam="1">  1        1 0.18186456E+00 0.20472329E+04</pdfrwt>
<pdfrwt beam="2">  1       -1 0.13636399E+00 0.20472329E+04</pdfrwt>
<totfact> 0.45678743E+00</totfact>
</mgrwt>
</event>
<event>
12    1  0.4967442E-008  0.2375638E+04  0.7818608E-02  0.8448681E-01
         -2   -1    0    0    0  501 -0.00000000000E+00  0.00000000000E+00  0.25757227602E+04  0.25757227602E+04  0.00000000000E+00 0.  1.
          2   -1    0    0  501    0  0.00000000000E+00 -0.00000000000E+00 -0.54777398233E+03  0.54777398233E+03  0.00000000000E+00 0. -1.
         23    2    1    2    0    0 -0.45420705273E+03 -0.34419907102E+03  0.19428477551E+04  0.20267431741E+04  0.90848482265E+02 0.  0.
        254    2    1    2    0    0  0.45420705273E+03  0.34419907102E+03  0.85101022684E+02  0.10967535684E+04  0.93319299105E+03 0.  0.
         23    2    4    4    0    0  0.25629218270E+03 -0.30052424530E+03  0.93025483116E+02  0.41611718046E+03  0.92191444505E+02 0.  0.
         23    2    4    4    0    0  0.19791487003E+03  0.64472331632E+03 -0.79244604319E+01  0.68063638796E+03  0.91458434072E+02 0.  0.
         13    1    3    3    0    0 -0.79578246049E+02 -0.29000724527E+02  0.36423921703E+03  0.37395714526E+03  0.00000000000E+00 0. -1.
        -13    1    3    3    0    0 -0.37462880668E+03 -0.31519834649E+03  0.15786085381E+04  0.16527860288E+04  0.00000000000E+00 0.  1.
          2    1    5    5  502    0  0.19470554038E+02  0.22600976971E+01  0.12872560854E+02  0.23450231110E+02  0.00000000000E+00 0. -1.
          3    1    6    6  503    0  0.37276742250E+02  0.14766893464E+03 -0.39421006557E+02  0.15732032777E+03  0.00000000000E+00 0. -1.
         -2    1    5    5    0  502  0.23682162866E+03 -0.30278434300E+03  0.80152922263E+02  0.39266694935E+03  0.00000000000E+00 0.  1.
         -3    1    6    6    0  503  0.16063812778E+03  0.49705438168E+03  0.31496546125E+02  0.52331606020E+03  0.00000000000E+00 0.  1.
<mgrwt>
<rscale>  0 0.23756379E+04</rscale>
<asrwt>0</asrwt>
<pdfrwt beam="1">  1        2 0.84272922E-01 0.23756379E+04</pdfrwt>
<pdfrwt beam="2">  1       -2 0.39626503E+00 0.23756379E+04</pdfrwt>
<totfact> 0.39166068E-01</totfact>
</mgrwt>
</event>
<event>
12    1  0.4967442E-008  0.1200230E+04  0.7818608E-02  0.9112655E-01
          1   -1    0    0  501    0  0.00000000000E+00  0.00000000000E+00  0.10250316004E+04  0.10250316004E+04  0.00000000000E+00 0. -1.
         -1   -1    0    0    0  501 -0.00000000000E+00 -0.00000000000E+00 -0.35134361910E+03  0.35134361910E+03  0.00000000000E+00 0.  1.
         23    2    1    2    0    0 -0.24577625454E+03  0.22571706110E+02  0.12392382345E+03  0.29083104598E+03  0.91159936810E+02 0.  0.
        254    2    1    2    0    0  0.24577625454E+03 -0.22571706110E+02  0.54976415784E+03  0.10855441735E+04  0.90291199691E+03 0.  0.
         23    2    4    4    0    0  0.14340253214E+03  0.36341686258E+03  0.19515239078E+01  0.40143468720E+03  0.92249105195E+02 0.  0.
         23    2    4    4    0    0  0.10237372239E+03 -0.38598856869E+03  0.54781263393E+03  0.68410948631E+03  0.91867040706E+02 0.  0.
         13    1    3    3    0    0 -0.13052819847E+03  0.37225551561E+02  0.24513953608E+02  0.13792855472E+03  0.00000000000E+00 0.  1.
        -13    1    3    3    0    0 -0.11524805606E+03 -0.14653845451E+02  0.99409869843E+02  0.15290249127E+03  0.00000000000E+00 0. -1.
          2    1    5    5  502    0  0.84657918371E+02  0.30972796045E+03 -0.82848704127E+01  0.32119621994E+03  0.00000000000E+00 0. -1.
          3    1    6    6  503    0  0.91686026124E+02 -0.17091596810E+03  0.27601264250E+03  0.33734488933E+03  0.00000000000E+00 0. -1.
         -2    1    5    5    0  502  0.58744613772E+02  0.53688902128E+02  0.10236394321E+02  0.80238467256E+02  0.00000000000E+00 0.  1.
         -3    1    6    6    0  503  0.10687696268E+02 -0.21507260058E+03  0.27179999143E+03  0.34676459698E+03  0.00000000000E+00 0.  1.
<mgrwt>
<rscale>  0 0.12002305E+04</rscale>
<asrwt>0</asrwt>
<pdfrwt beam="1">  1        1 0.15769717E+00 0.12002305E+04</pdfrwt>
<pdfrwt beam="2">  1       -1 0.54052865E-01 0.12002305E+04</pdfrwt>
<totfact> 0.49468195E+01</totfact>
</mgrwt>
</event>
<event>
12    1  0.4967442E-008  0.1784542E+04  0.7818608E-02  0.8714563E-01
         -2   -1    0    0    0  501 -0.00000000000E+00  0.00000000000E+00  0.61464950159E+03  0.61464950159E+03  0.00000000000E+00 0.  1.
          2   -1    0    0  501    0  0.00000000000E+00 -0.00000000000E+00 -0.12952877704E+04  0.12952877704E+04  0.00000000000E+00 0. -1.
         23    2    1    2    0    0 -0.57545491992E+03  0.17148188516E+03 -0.55121570570E+03  0.82004691755E+03  0.89909904729E+02 0.  0.
        254    2    1    2    0    0  0.57545491992E+03 -0.17148188516E+03 -0.12942256312E+03  0.10898903545E+04  0.90030904866E+03 0.  0.
         23    2    4    4    0    0 -0.43751261162E+02 -0.12521521665E+03  0.29258964835E+03  0.33366144615E+03  0.90156724613E+02 0.  0.
         23    2    4    4    0    0  0.61920618108E+03 -0.46266668517E+02 -0.42201221148E+03  0.75622890830E+03  0.90724615232E+02 0.  0.
         11    1    3    3    0    0 -0.49213360187E+03  0.14198383830E+03 -0.50895973823E+03  0.72207680171E+03  0.00000000000E+00 0. -1.
        -11    1    3    3    0    0 -0.83321318051E+02  0.29498046864E+02 -0.42255967471E+02  0.97970115839E+02  0.00000000000E+00 0.  1.
          3    1    6    6  502    0  0.44399192890E+03 -0.50483343098E+01 -0.33550411970E+03  0.55652253588E+03  0.00000000000E+00 0. -1.
          3    1    5    5  503    0 -0.23342239827E+02 -0.12521756007E+03  0.18791795131E+03  0.22701862024E+03  0.00000000000E+00 0. -1.
         -3    1    5    5    0  503 -0.20409021335E+02  0.23434245089E-02  0.10467169705E+03  0.10664282592E+03  0.00000000000E+00 0.  1.
         -3    1    6    6    0  502  0.17521425218E+03 -0.41218334207E+02 -0.86508091779E+02  0.19970637242E+03  0.00000000000E+00 0.  1.
<mgrwt>
<rscale>  0 0.17845425E+04</rscale>
<asrwt>0</asrwt>
<pdfrwt beam="1">  1        2 0.19927504E+00 0.17845425E+04</pdfrwt>
<pdfrwt beam="2">  1       -2 0.94561464E-01 0.17845425E+04</pdfrwt>
<totfact> 0.14817664E+01</totfact>
</mgrwt>
</event>
<event>
12    1  0.4967442E-008  0.1813599E+04  0.7818608E-02  0.8699101E-01
          1   -1    0    0  501    0  0.00000000000E+00  0.00000000000E+00  0.99325702939E+03  0.99325702939E+03  0.00000000000E+00 0. -1.
         -1   -1    0    0    0  501 -0.00000000000E+00 -0.00000000000E+00 -0.82786780128E+03  0.82786780128E+03  0.00000000000E+00 0.  1.
         23    2    1    2    0    0  0.29415099558E+03  0.11335658785E+03  0.66894240679E+03  0.74476418991E+03  0.88403793847E+02 0.  0.
        254    2    1    2    0    0 -0.29415099558E+03 -0.11335658785E+03 -0.50355317868E+03  0.10763606408E+04  0.89755885657E+03 0.  0.
         23    2    4    4    0    0 -0.24126607675E+03 -0.46657562947E+03 -0.46151790820E+03  0.70527289770E+03  0.92243931206E+02 0.  0.
         23    2    4    4    0    0 -0.52884918836E+02  0.35321904163E+03 -0.42035270487E+02  0.37108774305E+03  0.91534928155E+02 0.  0.
         13    1    3    3    0    0  0.13713392225E+03  0.37428622575E+02  0.20805068542E+03  0.25197559827E+03  0.00000000000E+00 0.  1.
        -13    1    3    3    0    0  0.15701707333E+03  0.75927965273E+02  0.46089172137E+03  0.49278859164E+03  0.00000000000E+00 0. -1.
          4    1    5    5  502    0 -0.31333082013E+02 -0.11970464660E+03 -0.14691459797E+03  0.19208035699E+03  0.00000000000E+00 0. -1.
          1    1    6    6  503    0 -0.36295495364E+02  0.11345458838E+03 -0.53270155064E+02  0.13048760872E+03  0.00000000000E+00 0. -1.
         -4    1    5    5    0  502 -0.20993299473E+03 -0.34687098287E+03 -0.31460331023E+03  0.51319254071E+03  0.00000000000E+00 0.  1.
         -1    1    6    6    0  503 -0.16589423472E+02  0.23976445324E+03  0.11234884577E+02  0.24060013433E+03  0.00000000000E+00 0.  1.
<mgrwt>
<rscale>  0 0.18135992E+04</rscale>
<asrwt>0</asrwt>
<pdfrwt beam="1">  1        1 0.15280877E+00 0.18135992E+04</pdfrwt>
<pdfrwt beam="2">  1       -1 0.12736428E+00 0.18135992E+04</pdfrwt>
<totfact> 0.77100681E+00</totfact>
</mgrwt>
</event>
<event>
12    1  0.4967442E-008  0.2357396E+04  0.7818608E-02  0.8455628E-01
         -2   -1    0    0    0  501 -0.00000000000E+00  0.00000000000E+00  0.80981989712E+03  0.80981989712E+03  0.00000000000E+00 0.  1.
          2   -1    0    0  501    0  0.00000000000E+00 -0.00000000000E+00 -0.17156025349E+04  0.17156025349E+04  0.00000000000E+00 0. -1.
         23    2    1    2    0    0 -0.38451347788E+03 -0.34851323705E+03  0.53384885517E+03  0.74994056282E+03  0.90023088845E+02 0.  0.
        254    2    1    2    0    0  0.38451347788E+03  0.34851323705E+03 -0.14396314930E+04  0.17754818692E+04  0.90026937154E+03 0.  0.
         23    2    4    4    0    0  0.59920590350E+02  0.16968155594E+03  0.73494741225E+02  0.21497240695E+03  0.91811498119E+02 0.  0.
         23    2    4    4    0    0  0.32459288753E+03  0.17883168111E+03 -0.15131262342E+04  0.15605094623E+04  0.91090441066E+02 0.  0.
         13    1    3    3    0    0 -0.37989214077E+03 -0.34041512028E+03  0.53645450046E+03  0.74025936252E+03  0.00000000000E+00 0.  1.
        -13    1    3    3    0    0 -0.46213371130E+01 -0.80981167657E+01 -0.26056452899E+01  0.96812002995E+01  0.00000000000E+00 0. -1.
          2    1    5    5  502    0  0.73744741659E+02  0.17274211399E+03  0.67304567013E+02  0.19951949681E+03  0.00000000000E+00 0. -1.
          1    1    6    6  503    0  0.26236145800E+03  0.12686564214E+03 -0.13051260496E+04  0.13372667763E+04  0.00000000000E+00 0. -1.
         -2    1    5    5    0  502 -0.13824151309E+02 -0.30605580443E+01  0.61901742117E+01  0.15452910138E+02  0.00000000000E+00 0.  1.
         -1    1    6    6    0  503  0.62231429538E+02  0.51966038967E+02 -0.20800018461E+03  0.22324268594E+03  0.00000000000E+00 0.  1.
<mgrwt>
<rscale>  0 0.23573961E+04</rscale>
<asrwt>0</asrwt>
<pdfrwt beam="1">  1        2 0.26393885E+00 0.23573961E+04</pdfrwt>
<pdfrwt beam="2">  1       -2 0.12458768E+00 0.23573961E+04</pdfrwt>
<totfact> 0.41943201E+00</totfact>
</mgrwt>
</event>
<event>
12    1  0.4967442E-008  0.1631128E+04  0.7818608E-02  0.8801650E-01
         -1   -1    0    0    0  501 -0.00000000000E+00  0.00000000000E+00  0.33828693500E+03  0.33828693500E+03  0.00000000000E+00 0.  1.
          1   -1    0    0  501    0  0.00000000000E+00 -0.00000000000E+00 -0.19662146326E+04  0.19662146326E+04  0.00000000000E+00 0. -1.
         23    2    1    2    0    0 -0.13054867208E+03  0.27630634000E+02  0.20126861794E+03  0.25786504467E+03  0.90437364946E+02 0.  0.
        254    2    1    2    0    0  0.13054867208E+03 -0.27630634000E+02 -0.18291963156E+04  0.20466365230E+04  0.90827060312E+03 0.  0.
         23    2    4    4    0    0  0.49944063888E+03 -0.25625686496E+02 -0.12945857331E+04  0.13905949149E+04  0.87774537589E+02 0.  0.
         23    2    4    4    0    0 -0.36889196680E+03 -0.20049475039E+01 -0.53461058248E+03  0.65604160806E+03  0.92178162375E+02 0.  0.
         11    1    3    3    0    0  0.46916564979E+01 -0.32740194891E+01 -0.61057145252E+01  0.83672333643E+01  0.00000000000E+00 0. -1.
        -11    1    3    3    0    0 -0.13524032858E+03  0.30904653489E+02  0.20737433247E+03  0.24949781131E+03  0.00000000000E+00 0.  1.
          2    1    5    5  502    0  0.45502479360E+02 -0.85886399540E+01 -0.20393037850E+03  0.20912159056E+03  0.00000000000E+00 0.  1.
          3    1    6    6  503    0 -0.30885442224E+03 -0.36370496604E+02 -0.44224847120E+03  0.54064551921E+03  0.00000000000E+00 0. -1.
         -2    1    5    5    0  502  0.45393815952E+03 -0.17037046542E+02 -0.10906553546E+04  0.11814733244E+04  0.00000000000E+00 0. -1.
         -3    1    6    6    0  503 -0.60037544562E+02  0.34365549100E+02 -0.92362111272E+02  0.11539608884E+03  0.00000000000E+00 0.  1.
<mgrwt>
<rscale>  0 0.16311281E+04</rscale>
<asrwt>0</asrwt>
<pdfrwt beam="1">  1        1 0.30249456E+00 0.16311281E+04</pdfrwt>
<pdfrwt beam="2">  1       -1 0.52044143E-01 0.16311281E+04</pdfrwt>
<totfact> 0.11181126E+01</totfact>
</mgrwt>
</event>
<event>
12    1  0.4967442E-008  0.3766594E+04  0.7818608E-02  0.8053362E-01
         -1   -1    0    0    0  501 -0.00000000000E+00  0.00000000000E+00  0.96454400681E+03  0.96454400681E+03  0.00000000000E+00 0.  1.
          1   -1    0    0  501    0  0.00000000000E+00 -0.00000000000E+00 -0.36771862461E+04  0.36771862461E+04  0.00000000000E+00 0. -1.
         23    2    1    2    0    0  0.59443292961E+03  0.52649290089E+03 -0.32226778250E+04  0.33202185718E+04  0.87485529476E+02 0.  0.
        254    2    1    2    0    0 -0.59443292961E+03 -0.52649290089E+03  0.51003558569E+03  0.13215116812E+04  0.92504677847E+03 0.  0.
         23    2    4    4    0    0 -0.37997702182E+03 -0.73270884906E+03  0.56708028142E+03  0.10054292721E+04  0.89795216721E+02 0.  0.
         23    2    4    4    0    0 -0.21445590779E+03  0.20621594817E+03 -0.57044695730E+02  0.31608240912E+03  0.90208859753E+02 0.  0.
         11    1    3    3    0    0  0.58474814255E+03  0.49619184331E+03 -0.31068021910E+04  0.32000557166E+04  0.00000000000E+00 0. -1.
        -11    1    3    3    0    0  0.96847870607E+01  0.30301057576E+02 -0.11587563404E+03  0.12016285513E+03  0.00000000000E+00 0.  1.
          2    1    5    5  502    0 -0.31218849812E+03 -0.53172522431E+03  0.39469796604E+03  0.73210645190E+03  0.00000000000E+00 0. -1.
          3    1    6    6  503    0 -0.10554158186E+03  0.47243058537E+02 -0.41101706864E+02  0.12272034220E+03  0.00000000000E+00 0. -1.
         -2    1    5    5    0  502 -0.67788523698E+02 -0.20098362475E+03  0.17238231539E+03  0.27332282016E+03  0.00000000000E+00 0.  1.
         -3    1    6    6    0  503 -0.10891432593E+03  0.15897288963E+03 -0.15942988867E+02  0.19336206693E+03  0.00000000000E+00 0.  1.
<mgrwt>
<rscale>  0 0.37665942E+04</rscale>
<asrwt>0</asrwt>
<pdfrwt beam="1">  1        1 0.56572097E+00 0.37665942E+04</pdfrwt>
<pdfrwt beam="2">  1       -1 0.14839138E+00 0.37665942E+04</pdfrwt>
<totfact> 0.51512446E-02</totfact>
</mgrwt>
</event>
<event>
12    1  0.4967442E-008  0.1793081E+04  0.7818608E-02  0.8709988E-01
         -2   -1    0    0    0  501 -0.00000000000E+00  0.00000000000E+00  0.37481797766E+03  0.37481797766E+03  0.00000000000E+00 0.  1.
          2   -1    0    0  501    0  0.00000000000E+00 -0.00000000000E+00 -0.21444673495E+04  0.21444673495E+04  0.00000000000E+00 0. -1.
         23    2    1    2    0    0 -0.62514706838E+03 -0.10934294647E+03 -0.10947924848E+04  0.12686308304E+04  0.89938100760E+02 0.  0.
        254    2    1    2    0    0  0.62514706838E+03  0.10934294647E+03 -0.67485688708E+03  0.12506544968E+04  0.84020242522E+03 0.  0.
         23    2    4    4    0    0  0.75046349058E+03  0.28458476161E+03 -0.59263498540E+03  0.10020137730E+04  0.92905532951E+02 0.  0.
         23    2    4    4    0    0 -0.12531642220E+03 -0.17524181514E+03 -0.82221901679E+02  0.24864072386E+03  0.92993919141E+02 0.  0.
         11    1    3    3    0    0 -0.33421177930E+03 -0.95739489815E+02 -0.54465443739E+03  0.64615170007E+03  0.00000000000E+00 0. -1.
        -11    1    3    3    0    0 -0.29093528908E+03 -0.13603456653E+02 -0.55013804739E+03  0.62247913030E+03  0.00000000000E+00 0.  1.
          1    1    6    6  502    0 -0.10242546865E+03 -0.18123999044E+03 -0.61203339480E+02  0.21699022910E+03  0.00000000000E+00 0. -1.
          1    1    5    5  503    0  0.68795468964E+03  0.28260412826E+03 -0.56304310006E+03  0.93282596492E+03  0.00000000000E+00 0. -1.
         -1    1    5    5    0  503  0.62508800942E+02  0.19806333496E+01 -0.29591885339E+02  0.69187808042E+02  0.00000000000E+00 0.  1.
         -1    1    6    6    0  502 -0.22890953552E+02  0.59981752956E+01 -0.21018562199E+02  0.31650494757E+02  0.00000000000E+00 0.  1.
<mgrwt>
<rscale>  0 0.17930811E+04</rscale>
<asrwt>0</asrwt>
<pdfrwt beam="1">  1        2 0.32991805E+00 0.17930811E+04</pdfrwt>
<pdfrwt beam="2">  1       -2 0.57664305E-01 0.17930811E+04</pdfrwt>
<totfact> 0.14762314E+01</totfact>
</mgrwt>
</event>
<event>
12    1  0.4967442E-008  0.1972073E+04  0.7818608E-02  0.8619790E-01
          2   -1    0    0  501    0  0.00000000000E+00  0.00000000000E+00  0.27058569207E+04  0.27058569207E+04  0.00000000000E+00 0. -1.
         -2   -1    0    0    0  501 -0.00000000000E+00 -0.00000000000E+00 -0.35931982298E+03  0.35931982298E+03  0.00000000000E+00 0.  1.
         23    2    1    2    0    0  0.10133129237E+03 -0.46321388405E+02 -0.26429365472E+03  0.30189874468E+03  0.94223215178E+02 0.  0.
        254    2    1    2    0    0 -0.10133129237E+03  0.46321388405E+02  0.26108307525E+04  0.27632779990E+04  0.89825073339E+03 0.  0.
         23    2    4    4    0    0 -0.12935404307E+03 -0.31408653579E+03  0.45145968230E+03  0.57228540361E+03  0.91169720926E+02 0.  0.
         23    2    4    4    0    0  0.28022750702E+02  0.36040792420E+03  0.21593710702E+04  0.21909925954E+04  0.82981854126E+02 0.  0.
         13    1    3    3    0    0 -0.48650986655E+01  0.20050372757E+02 -0.34608331829E+02  0.40291727001E+02  0.00000000000E+00 0. -1.
        -13    1    3    3    0    0  0.10619639104E+03 -0.66371761162E+02 -0.22968532289E+03  0.26160701768E+03  0.00000000000E+00 0.  1.
          2    1    5    5  502    0 -0.27652388051E+02 -0.12688842302E+03  0.11189373390E+03  0.17142209353E+03  0.00000000000E+00 0. -1.
          4    1    6    6  503    0  0.12874365906E+02  0.32803367805E+03  0.20445096927E+04  0.20706983669E+04  0.00000000000E+00 0. -1.
         -2    1    5    5    0  502 -0.10170165502E+03 -0.18719811277E+03  0.33956594839E+03  0.40086331008E+03  0.00000000000E+00 0.  1.
         -4    1    6    6    0  503  0.15148384797E+02  0.32374246151E+02  0.11486137752E+03  0.12029422855E+03  0.00000000000E+00 0.  1.
<mgrwt>
<rscale>  0 0.19720731E+04</rscale>
<asrwt>0</asrwt>
<pdfrwt beam="1">  1        2 0.41628567E+00 0.19720731E+04</pdfrwt>
<pdfrwt beam="2">  1       -2 0.55279975E-01 0.19720731E+04</pdfrwt>
<totfact> 0.75553597E+00</totfact>
</mgrwt>
</event>
<event>
12    1  0.4967442E-008  0.2039101E+04  0.7818608E-02  0.8588555E-01
          1   -1    0    0  501    0  0.00000000000E+00  0.00000000000E+00  0.16811093745E+04  0.16811093745E+04  0.00000000000E+00 0. -1.
         -1   -1    0    0    0  501 -0.00000000000E+00 -0.00000000000E+00 -0.61833200085E+03  0.61833200085E+03  0.00000000000E+00 0.  1.
         23    2    1    2    0    0  0.74238562005E+03  0.11777085090E+03  0.77522846419E+03  0.10840593022E+04  0.95911505316E+02 0.  0.
        254    2    1    2    0    0 -0.74238562005E+03 -0.11777085090E+03  0.28754890946E+03  0.12153820731E+04  0.91074849777E+03 0.  0.
         23    2    4    4    0    0 -0.75006517640E+03  0.20931675951E+03  0.23096582512E+02  0.78436600191E+03  0.91023613260E+02 0.  0.
         23    2    4    4    0    0  0.76795563475E+01 -0.32708761041E+03  0.26445232695E+03  0.43101607122E+03  0.93779208526E+02 0.  0.
         13    1    3    3    0    0  0.47968355583E+03  0.67504107165E+02  0.43312187958E+03  0.64980587931E+03  0.00000000000E+00 0. -1.
        -13    1    3    3    0    0  0.26270206423E+03  0.50266743735E+02  0.34210658460E+03  0.43425342290E+03  0.00000000000E+00 0.  1.
          1    1    5    5  502    0 -0.33367712989E+03  0.10179726278E+03  0.54867878564E+02  0.35314811881E+03  0.00000000000E+00 0. -1.
          1    1    6    6  503    0  0.36799854310E+02 -0.27047606332E+03  0.18758677114E+03  0.33121039659E+03  0.00000000000E+00 0. -1.
         -1    1    5    5    0  502 -0.41638804651E+03  0.10751949673E+03 -0.31771296051E+02  0.43121788310E+03  0.00000000000E+00 0.  1.
         -1    1    6    6    0  503 -0.29120297963E+02 -0.56611547094E+02  0.76865555815E+02  0.99805674631E+02  0.00000000000E+00 0.  1.
<mgrwt>
<rscale>  0 0.20391015E+04</rscale>
<asrwt>0</asrwt>
<pdfrwt beam="1">  1        1 0.25863221E+00 0.20391015E+04</pdfrwt>
<pdfrwt beam="2">  1       -1 0.95128001E-01 0.20391015E+04</pdfrwt>
<totfact> 0.48452386E+00</totfact>
</mgrwt>
</event>
<event>
12    1  0.4967442E-008  0.2695399E+04  0.7818608E-02  0.8336499E-01
         -1   -1    0    0    0  501 -0.00000000000E+00  0.00000000000E+00  0.66895360527E+03  0.66895360527E+03  0.00000000000E+00 0.  1.
          1   -1    0    0  501    0  0.00000000000E+00 -0.00000000000E+00 -0.27151271978E+04  0.27151271978E+04  0.00000000000E+00 0. -1.
         23    2    1    2    0    0  0.11115337079E+04 -0.19780856583E+02 -0.14516761652E+04  0.18307723667E+04  0.92007085854E+02 0.  0.
        254    2    1    2    0    0 -0.11115337079E+04  0.19780856583E+02 -0.59449742724E+03  0.15533084363E+04  0.90743674226E+03 0.  0.
         23    2    4    4    0    0 -0.67802312752E+03  0.30416959561E+03 -0.69018951769E+03  0.10181334988E+04  0.89441303356E+02 0.  0.
         23    2    4    4    0    0 -0.43351058040E+03 -0.28438873903E+03  0.95692090447E+02  0.53517493750E+03  0.91906797036E+02 0.  0.
         11    1    3    3    0    0  0.83349018574E+03 -0.54963713847E+01 -0.11495328683E+04  0.14199161648E+04  0.00000000000E+00 0. -1.
        -11    1    3    3    0    0  0.27804352218E+03 -0.14284485198E+02 -0.30214329697E+03  0.41085620191E+03  0.00000000000E+00 0.  1.
          1    1    5    5  502    0 -0.44693128413E+03  0.15509578680E+03 -0.45257366188E+03  0.65469473439E+03  0.00000000000E+00 0. -1.
          3    1    6    6  503    0 -0.34595171332E+03 -0.20302620354E+03  0.10689576159E+03  0.41512519933E+03  0.00000000000E+00 0. -1.
         -1    1    5    5    0  502 -0.23109184339E+03  0.14907380881E+03 -0.23761585581E+03  0.36343876443E+03  0.00000000000E+00 0.  1.
         -3    1    6    6    0  503 -0.87558867085E+02 -0.81362535495E+02 -0.11203671146E+02  0.12004973817E+03  0.00000000000E+00 0.  1.
<mgrwt>
<rscale>  0 0.26953991E+04</rscale>
<asrwt>0</asrwt>
<pdfrwt beam="1">  1        1 0.41771188E+00 0.26953991E+04</pdfrwt>
<pdfrwt beam="2">  1       -1 0.10291594E+00 0.26953991E+04</pdfrwt>
<totfact> 0.74567715E-01</totfact>
</mgrwt>
</event>
<event>
12    1  0.4967442E-008  0.1642090E+04  0.7818608E-02  0.8795100E-01
          1   -1    0    0  501    0  0.00000000000E+00  0.00000000000E+00  0.94507254991E+03  0.94507254991E+03  0.00000000000E+00 0. -1.
         -1   -1    0    0    0  501 -0.00000000000E+00 -0.00000000000E+00 -0.71329423384E+03  0.71329423384E+03  0.00000000000E+00 0.  1.
         23    2    1    2    0    0  0.30642788238E+03  0.12147405703E+03 -0.39036517754E+03  0.51871662291E+03  0.89598936496E+02 0.  0.
        254    2    1    2    0    0 -0.30642788238E+03 -0.12147405703E+03  0.62214349361E+03  0.11396501608E+04  0.89615063959E+03 0.  0.
         23    2    4    4    0    0 -0.14014666943E+03 -0.36020962166E+03 -0.51040239748E+02  0.40017683216E+03  0.90245944133E+02 0.  0.
         23    2    4    4    0    0 -0.16628121294E+03  0.23873556462E+03  0.67318373336E+03  0.73947332869E+03  0.94870192312E+02 0.  0.
         11    1    3    3    0    0  0.40663289635E+02  0.50730426941E+02 -0.95211891706E+02  0.11529260021E+03  0.00000000000E+00 0. -1.
        -11    1    3    3    0    0  0.26576459274E+03  0.70743630094E+02 -0.29515328583E+03  0.40342402270E+03  0.00000000000E+00 0.  1.
          2    1    6    6  502    0 -0.12418912190E+03  0.12105092731E+03  0.46942134080E+03  0.50043247316E+03  0.00000000000E+00 0. -1.
          2    1    5    5  503    0 -0.10918433654E+03 -0.15831595328E+03 -0.33020091093E+02  0.19512941046E+03  0.00000000000E+00 0. -1.
         -2    1    5    5    0  503 -0.30962332896E+02 -0.20189366837E+03 -0.18020148655E+02  0.20504742170E+03  0.00000000000E+00 0.  1.
         -2    1    6    6    0  502 -0.42092091039E+02  0.11768463731E+03  0.20376239256E+03  0.23904085552E+03  0.00000000000E+00 0.  1.
<mgrwt>
<rscale>  0 0.16420899E+04</rscale>
<asrwt>0</asrwt>
<pdfrwt beam="1">  1        1 0.14539578E+00 0.16420899E+04</pdfrwt>
<pdfrwt beam="2">  1       -1 0.10973757E+00 0.16420899E+04</pdfrwt>
<totfact> 0.12278355E+01</totfact>
</mgrwt>
</event>
<event>
12    1  0.4967442E-008  0.1734129E+04  0.7818608E-02  0.8742135E-01
         -2   -1    0    0    0  501 -0.00000000000E+00  0.00000000000E+00  0.41970053659E+03  0.41970053659E+03  0.00000000000E+00 0.  1.
          2   -1    0    0  501    0  0.00000000000E+00 -0.00000000000E+00 -0.17912783225E+04  0.17912783225E+04  0.00000000000E+00 0. -1.
         23    2    1    2    0    0  0.12382188538E+03 -0.58392907851E+03 -0.70198039599E+03  0.92605391253E+03  0.92164768314E+02 0.  0.
        254    2    1    2    0    0 -0.12382188538E+03  0.58392907851E+03 -0.66959738995E+03  0.12849249466E+04  0.91998175293E+03 0.  0.
         23    2    4    4    0    0  0.57786252675E+02  0.55054288202E+03  0.24965934371E+02  0.56137608363E+03  0.89906025685E+02 0.  0.
         23    2    4    4    0    0 -0.18160813805E+03  0.33386196491E+02 -0.69456332432E+03  0.72354886297E+03  0.83717332054E+02 0.  0.
         13    1    3    3    0    0 -0.22926329010E+01  0.28008947444E+01 -0.24497341914E+01  0.43706263392E+01  0.00000000000E+00 0.  1.
        -13    1    3    3    0    0  0.12611451828E+03 -0.58672997325E+03 -0.69953066180E+03  0.92168328619E+03  0.00000000000E+00 0. -1.
          4    1    5    5  502    0 -0.19592917539E+02  0.93061341396E+02  0.20938261336E+02  0.97379189091E+02  0.00000000000E+00 0. -1.
          3    1    6    6  503    0 -0.67859453112E+02  0.25973829122E+02 -0.14381941039E+03  0.16113214447E+03  0.00000000000E+00 0. -1.
         -4    1    5    5    0  502  0.77379170214E+02  0.45748154062E+03  0.40276730345E+01  0.46399689454E+03  0.00000000000E+00 0.  1.
         -3    1    6    6    0  503 -0.11374868494E+03  0.74123673692E+01 -0.55074391393E+03  0.56241671850E+03  0.00000000000E+00 0.  1.
<mgrwt>
<rscale>  0 0.17341286E+04</rscale>
<asrwt>0</asrwt>
<pdfrwt beam="1">  1        2 0.27558128E+00 0.17341286E+04</pdfrwt>
<pdfrwt beam="2">  1       -2 0.64569314E-01 0.17341286E+04</pdfrwt>
<totfact> 0.18336372E+01</totfact>
</mgrwt>
</event>
<event>
12    1  0.4967442E-008  0.3022569E+04  0.7818608E-02  0.8237315E-01
         -2   -1    0    0    0  501 -0.00000000000E+00  0.00000000000E+00  0.18489753260E+04  0.18489753260E+04  0.00000000000E+00 0. -1.
          2   -1    0    0  501    0  0.00000000000E+00 -0.00000000000E+00 -0.12352685981E+04  0.12352685981E+04  0.00000000000E+00 0.  1.
         23    2    1    2    0    0 -0.38134083592E+03  0.69540815796E+03 -0.86188710460E+03  0.11746407637E+04  0.88984287740E+02 0.  0.
        254    2    1    2    0    0  0.38134083592E+03 -0.69540815796E+03  0.14755938326E+04  0.19096031603E+04  0.91662082235E+03 0.  0.
         23    2    4    4    0    0  0.66718228728E+03 -0.56011598764E+03  0.11607575393E+04  0.14541094905E+04  0.90632340444E+02 0.  0.
         23    2    4    4    0    0 -0.28584145136E+03 -0.13529217031E+03  0.31483629324E+03  0.45549366985E+03  0.91341584580E+02 0.  0.
         11    1    3    3    0    0 -0.34042193344E+03  0.57514217969E+03 -0.75774863534E+03  0.10103754817E+04  0.00000000000E+00 0.  1.
        -11    1    3    3    0    0 -0.40918902478E+02  0.12026597827E+03 -0.10413846926E+03  0.16426528205E+03  0.00000000000E+00 0. -1.
          4    1    5    5  502    0  0.50938847246E+03 -0.37542088597E+03  0.84952706614E+03  0.10592986801E+04  0.00000000000E+00 0. -1.
          4    1    6    6  503    0 -0.19075776818E+03 -0.43583911555E+02  0.20822463802E+03  0.28573691282E+03  0.00000000000E+00 0.  1.
         -4    1    5    5    0  502  0.15779381482E+03 -0.18469510167E+03  0.31123047318E+03  0.39481081040E+03  0.00000000000E+00 0.  1.
         -4    1    6    6    0  503 -0.95083683175E+02 -0.91708258757E+02  0.10661165522E+03  0.16975675704E+03  0.00000000000E+00 0. -1.
<mgrwt>
<rscale>  0 0.30225692E+04</rscale>
<asrwt>0</asrwt>
<pdfrwt beam="1">  1        2 0.19004132E+00 0.30225692E+04</pdfrwt>
<pdfrwt beam="2">  1       -2 0.28445774E+00 0.30225692E+04</pdfrwt>
<totfact> 0.60990434E-01</totfact>
</mgrwt>
</event>
<event>
12    1  0.4967442E-008  0.1688206E+04  0.7818608E-02  0.8768119E-01
         -2   -1    0    0    0  501 -0.00000000000E+00  0.00000000000E+00  0.43941337563E+03  0.43941337563E+03  0.00000000000E+00 0.  1.
          2   -1    0    0  501    0  0.00000000000E+00 -0.00000000000E+00 -0.16215029028E+04  0.16215029028E+04  0.00000000000E+00 0. -1.
         23    2    1    2    0    0  0.45733542679E+03 -0.14636271728E+03  0.13054526713E+02  0.48890808851E+03  0.91010772644E+02 0.  0.
        254    2    1    2    0    0 -0.45733542679E+03  0.14636271728E+03 -0.11951440539E+04  0.15720081899E+04  0.90125618002E+03 0.  0.
         23    2    4    4    0    0 -0.51708684468E+03 -0.46410012937E+02 -0.12368547258E+04  0.13445438152E+04  0.91955227277E+02 0.  0.
         23    2    4    4    0    0  0.59751417889E+02  0.19277273022E+03  0.41710671962E+02  0.22746437475E+03  0.96274109536E+02 0.  0.
         13    1    3    3    0    0  0.34179898118E+03 -0.94209864418E+02  0.47084978208E+02  0.35765770963E+03  0.00000000000E+00 0.  1.
        -13    1    3    3    0    0  0.11553644561E+03 -0.52152852864E+02 -0.34030451495E+02  0.13125037888E+03  0.00000000000E+00 0. -1.
          3    1    6    6  502    0  0.55282356550E+02  0.12112452854E+03 -0.17656024383E+02  0.13430943957E+03  0.00000000000E+00 0. -1.
          3    1    5    5  503    0 -0.43667747820E+03 -0.54305816598E+02 -0.95818992158E+03  0.10544023272E+04  0.00000000000E+00 0. -1.
         -3    1    5    5    0  503 -0.80409366472E+02  0.78958036608E+01 -0.27866480426E+03  0.29014148801E+03  0.00000000000E+00 0.  1.
         -3    1    6    6    0  502  0.44690613394E+01  0.71648201676E+02  0.59366696345E+02  0.93154935176E+02  0.00000000000E+00 0.  1.
<mgrwt>
<rscale>  0 0.16882062E+04</rscale>
<asrwt>0</asrwt>
<pdfrwt beam="1">  1        2 0.24946199E+00 0.16882062E+04</pdfrwt>
<pdfrwt beam="2">  1       -2 0.67602058E-01 0.16882062E+04</pdfrwt>
<totfact> 0.20717798E+01</totfact>
</mgrwt>
</event>
<event>
12    1  0.4967442E-008  0.1733531E+04  0.7818608E-02  0.8742468E-01
         -2   -1    0    0    0  501 -0.00000000000E+00  0.00000000000E+00  0.46120675552E+03  0.46120675552E+03  0.00000000000E+00 0.  1.
          2   -1    0    0  501    0  0.00000000000E+00 -0.00000000000E+00 -0.16289484050E+04  0.16289484050E+04  0.00000000000E+00 0. -1.
         23    2    1    2    0    0 -0.50666096295E+03 -0.36538626069E+03 -0.36436650127E+03  0.72893239494E+03  0.91471516130E+02 0.  0.
        254    2    1    2    0    0  0.50666096295E+03  0.36538626069E+03 -0.80337514824E+03  0.13612227656E+04  0.90404830509E+03 0.  0.
         23    2    4    4    0    0  0.23166163693E+03 -0.39530858064E+02 -0.82334541390E+03  0.86091987225E+03  0.89752732956E+02 0.  0.
         23    2    4    4    0    0  0.27499932602E+03  0.40491711875E+03  0.19970265659E+02  0.50030289337E+03  0.10159562605E+03 0.  0.
         11    1    3    3    0    0 -0.11136315340E+02 -0.38742088843E+01 -0.25681753239E+02  0.28259148311E+02  0.00000000000E+00 0. -1.
        -11    1    3    3    0    0 -0.49552464761E+03 -0.36151205180E+03 -0.33868474803E+03  0.70067324663E+03  0.00000000000E+00 0.  1.
          1    1    6    6  502    0  0.48654859236E+02  0.14775418620E+03 -0.13186922889E+02  0.15611691069E+03  0.00000000000E+00 0. -1.
          1    1    5    5  503    0  0.85342847792E+02  0.10751380267E+02 -0.18389078510E+03  0.20301432140E+03  0.00000000000E+00 0. -1.
         -1    1    5    5    0  503  0.14631878914E+03 -0.50282238331E+02 -0.63945462880E+03  0.65790555085E+03  0.00000000000E+00 0.  1.
         -1    1    6    6    0  502  0.22634446678E+03  0.25716293255E+03  0.33157188548E+02  0.34418598268E+03  0.00000000000E+00 0.  1.
<mgrwt>
<rscale>  0 0.17335305E+04</rscale>
<asrwt>0</asrwt>
<pdfrwt beam="1">  1        2 0.25060745E+00 0.17335305E+04</pdfrwt>
<pdfrwt beam="2">  1       -2 0.70954885E-01 0.17335305E+04</pdfrwt>
<totfact> 0.18398453E+01</totfact>
</mgrwt>
</event>
<event>
12    1  0.4967442E-008  0.1290447E+04  0.7818608E-02  0.9037175E-01
          1   -1    0    0  501    0  0.00000000000E+00  0.00000000000E+00  0.71285115559E+03  0.71285115559E+03  0.00000000000E+00 0. -1.
         -1   -1    0    0    0  501 -0.00000000000E+00 -0.00000000000E+00 -0.58401192043E+03  0.58401192043E+03  0.00000000000E+00 0.  1.
         23    2    1    2    0    0 -0.95556482938E+02 -0.10528888592E+03 -0.25769817168E+03  0.30819302406E+03  0.91421012132E+02 0.  0.
        254    2    1    2    0    0  0.95556482938E+02  0.10528888592E+03  0.38653740684E+03  0.98867005196E+03  0.89879948477E+03 0.  0.
         23    2    4    4    0    0  0.44761435812E+03 -0.33398104427E+02  0.38759633902E+03  0.59926612141E+03  0.86109902289E+02 0.  0.
         23    2    4    4    0    0 -0.35205787518E+03  0.13868699035E+03 -0.10589321820E+01  0.38940393055E+03  0.91953635169E+02 0.  0.
         13    1    3    3    0    0 -0.47039302951E+02  0.58055754667E+01 -0.62976442331E+02  0.78818988939E+02  0.00000000000E+00 0. -1.
        -13    1    3    3    0    0 -0.48517179987E+02 -0.11109446139E+03 -0.19472172935E+03  0.22937403512E+03  0.00000000000E+00 0.  1.
          1    1    5    5  502    0  0.17035185698E+03  0.81610168036E+01  0.10035756679E+03  0.19788380071E+03  0.00000000000E+00 0. -1.
          3    1    6    6  503    0 -0.15524200662E+03  0.58852359504E+02  0.45131336907E+02  0.17204801193E+03  0.00000000000E+00 0. -1.
         -1    1    5    5    0  502  0.27726250114E+03 -0.41559121231E+02  0.28723877223E+03  0.40138232070E+03  0.00000000000E+00 0.  1.
         -3    1    6    6    0  503 -0.19681586856E+03  0.79834630848E+02 -0.46190269089E+02  0.21735591862E+03  0.00000000000E+00 0.  1.
<mgrwt>
<rscale>  0 0.12904473E+04</rscale>
<asrwt>0</asrwt>
<pdfrwt beam="1">  1        1 0.10966941E+00 0.12904473E+04</pdfrwt>
<pdfrwt beam="2">  1       -1 0.89847987E-01 0.12904473E+04</pdfrwt>
<totfact> 0.31603443E+01</totfact>
</mgrwt>
</event>
<event>
12    1  0.4967442E-008  0.1164375E+04  0.7818608E-02  0.9144623E-01
          1   -1    0    0  501    0  0.00000000000E+00  0.00000000000E+00  0.20449745571E+04  0.20449745571E+04  0.00000000000E+00 0. -1.
         -1   -1    0    0    0  501 -0.00000000000E+00 -0.00000000000E+00 -0.16574405215E+03  0.16574405215E+03  0.00000000000E+00 0.  1.
         23    2    1    2    0    0 -0.18190655994E+03  0.88835233351E+02  0.55417202265E+03  0.59725978261E+03  0.92902755629E+02 0.  0.
        254    2    1    2    0    0  0.18190655994E+03 -0.88835233351E+02  0.13250584823E+04  0.16134588266E+04  0.89804660708E+03 0.  0.
         23    2    4    4    0    0 -0.29313373288E+02  0.25739531294E+03  0.11125306428E+04  0.11459508064E+04  0.91472392332E+02 0.  0.
         23    2    4    4    0    0  0.21121993323E+03 -0.34623054629E+03  0.21252783952E+03  0.46750802025E+03  0.94372745276E+02 0.  0.
         13    1    3    3    0    0 -0.12154347457E+03  0.92920243394E+02  0.30991798024E+03  0.34562427912E+03  0.00000000000E+00 0.  1.
        -13    1    3    3    0    0 -0.60363085368E+02 -0.40850100430E+01  0.24425404241E+03  0.25163550349E+03  0.00000000000E+00 0. -1.
          3    1    6    6  502    0  0.17788728098E+03 -0.32357777346E+03  0.16292736540E+03  0.40359854634E+03  0.00000000000E+00 0. -1.
          3    1    5    5  503    0 -0.52844509751E+02  0.20568641306E+03  0.77034868096E+03  0.79908480963E+03  0.00000000000E+00 0. -1.
         -3    1    5    5    0  503  0.23531136463E+02  0.51708899875E+02  0.34218196180E+03  0.34686599673E+03  0.00000000000E+00 0.  1.
         -3    1    6    6    0  502  0.33332652246E+02 -0.22652772831E+02  0.49600474120E+02  0.63909473911E+02  0.00000000000E+00 0.  1.
<mgrwt>
<rscale>  0 0.11643751E+04</rscale>
<asrwt>0</asrwt>
<pdfrwt beam="1">  1        1 0.31461145E+00 0.11643751E+04</pdfrwt>
<pdfrwt beam="2">  1       -1 0.25499086E-01 0.11643751E+04</pdfrwt>
<totfact> 0.37408008E+01</totfact>
</mgrwt>
</event>
<event>
12    1  0.4967442E-008  0.1451650E+04  0.7818608E-02  0.8917257E-01
          1   -1    0    0  501    0  0.00000000000E+00  0.00000000000E+00  0.54544774814E+03  0.54544774814E+03  0.00000000000E+00 0. -1.
         -1   -1    0    0    0  501 -0.00000000000E+00 -0.00000000000E+00 -0.96585217344E+03  0.96585217344E+03  0.00000000000E+00 0.  1.
         23    2    1    2    0    0  0.83091339793E+02  0.29680605190E+03 -0.48168511661E+03  0.57940187223E+03  0.93209306347E+02 0.  0.
        254    2    1    2    0    0 -0.83091339793E+02 -0.29680605190E+03  0.61280691304E+02  0.93189804935E+03  0.87731445221E+03 0.  0.
         23    2    4    4    0    0 -0.33280884634E+03 -0.11090199020E+03  0.34618827443E+03  0.50040758871E+03  0.86605160685E+02 0.  0.
         23    2    4    4    0    0  0.24971750655E+03 -0.18590406170E+03 -0.28490758313E+03  0.43149046063E+03  0.89958509668E+02 0.  0.
         13    1    3    3    0    0  0.17332629228E+02  0.20498633383E+03 -0.26962191073E+03  0.33913978215E+03  0.00000000000E+00 0. -1.
        -13    1    3    3    0    0  0.65758710565E+02  0.91819718071E+02 -0.21206320588E+03  0.24026209008E+03  0.00000000000E+00 0.  1.
          2    1    5    5  502    0 -0.21997904911E+03 -0.29653498263E+02  0.20245880411E+03  0.30043248720E+03  0.00000000000E+00 0. -1.
          1    1    6    6  503    0  0.19182507064E+03 -0.18444348599E+03 -0.23625584220E+03  0.35585542039E+03  0.00000000000E+00 0. -1.
         -2    1    5    5    0  502 -0.11282979723E+03 -0.81248491938E+02  0.14372947032E+03  0.19997510151E+03  0.00000000000E+00 0.  1.
         -1    1    6    6    0  503  0.57892435906E+02 -0.14605757076E+01 -0.48651740931E+02  0.75635040240E+02  0.00000000000E+00 0.  1.
<mgrwt>
<rscale>  0 0.14516499E+04</rscale>
<asrwt>0</asrwt>
<pdfrwt beam="1">  1        1 0.83915038E-01 0.14516499E+04</pdfrwt>
<pdfrwt beam="2">  1       -1 0.14859264E+00 0.14516499E+04</pdfrwt>
<totfact> 0.13641697E+01</totfact>
</mgrwt>
</event>
<event>
12    1  0.4967442E-008  0.3262991E+04  0.7818608E-02  0.8172377E-01
         -2   -1    0    0    0  501 -0.00000000000E+00  0.00000000000E+00  0.64445806905E+03  0.64445806905E+03  0.00000000000E+00 0.  1.
          2   -1    0    0  501    0  0.00000000000E+00 -0.00000000000E+00 -0.41302563087E+04  0.41302563087E+04  0.00000000000E+00 0. -1.
         23    2    1    2    0    0 -0.96251816707E+03 -0.11011791519E+04 -0.21518083536E+04  0.26039794638E+04  0.10673851786E+03 0.  0.
        254    2    1    2    0    0  0.96251816707E+03  0.11011791519E+04 -0.13339898861E+04  0.21707349139E+04  0.89079981129E+03 0.  0.
         23    2    4    4    0    0  0.76649202421E+03  0.26053773285E+03 -0.84734333131E+03  0.11754353954E+04  0.90926971751E+02 0.  0.
         23    2    4    4    0    0  0.19602614286E+03  0.84064141902E+03 -0.48664655480E+03  0.99529951853E+03  0.93230993922E+02 0.  0.
         11    1    3    3    0    0 -0.73253369593E+03 -0.86970633303E+03 -0.17392944957E+04  0.20780134899E+04  0.00000000000E+00 0. -1.
        -11    1    3    3    0    0 -0.22998447114E+03 -0.23147281885E+03 -0.41251385785E+03  0.52596597395E+03  0.00000000000E+00 0.  1.
          2    1    5    5  502    0  0.29171989380E+03  0.91122644781E+02 -0.38374488403E+03  0.49057514089E+03  0.00000000000E+00 0. -1.
          3    1    6    6  503    0  0.15806554914E+03  0.60030757990E+03 -0.30493140232E+03  0.69161916430E+03  0.00000000000E+00 0. -1.
         -2    1    5    5    0  502  0.47477213041E+03  0.16941508807E+03 -0.46359844728E+03  0.68486025450E+03  0.00000000000E+00 0.  1.
         -3    1    6    6    0  503  0.37960593719E+02  0.24033383912E+03 -0.18171515248E+03  0.30368035423E+03  0.00000000000E+00 0.  1.
<mgrwt>
<rscale>  0 0.32629907E+04</rscale>
<asrwt>0</asrwt>
<pdfrwt beam="1">  1        2 0.63542401E+00 0.32629907E+04</pdfrwt>
<pdfrwt beam="2">  1       -2 0.99147401E-01 0.32629907E+04</pdfrwt>
<totfact> 0.18803279E-01</totfact>
</mgrwt>
</event>
<event>
12    1  0.4967442E-008  0.2117183E+04  0.7818608E-02  0.8553711E-01
         -2   -1    0    0    0  501 -0.00000000000E+00  0.00000000000E+00  0.20054029333E+04  0.20054029333E+04  0.00000000000E+00 0.  1.
          2   -1    0    0  501    0  0.00000000000E+00 -0.00000000000E+00 -0.55879864968E+03  0.55879864968E+03  0.00000000000E+00 0. -1.
         23    2    1    2    0    0 -0.82320320743E+03  0.13049627642E+02  0.87453972172E+03  0.12045221811E+04  0.90665023239E+02 0.  0.
        254    2    1    2    0    0  0.82320320743E+03 -0.13049627642E+02  0.57206456194E+03  0.13596794019E+04  0.91849681514E+03 0.  0.
         23    2    4    4    0    0  0.74693616184E+03 -0.32161914895E+03  0.16364599909E+03  0.83444817096E+03  0.90394856986E+02 0.  0.
         23    2    4    4    0    0  0.76267045597E+02  0.30856952131E+03  0.40841856286E+03  0.52523123094E+03  0.89612006713E+02 0.  0.
         13    1    3    3    0    0 -0.10012260648E+03  0.22554893153E+02  0.14170775555E+03  0.17496956169E+03  0.00000000000E+00 0. -1.
        -13    1    3    3    0    0 -0.72308060095E+03 -0.95052655113E+01  0.73283196616E+03  0.10295526194E+04  0.00000000000E+00 0.  1.
          1    1    5    5  502    0  0.23958061349E+02 -0.15087252607E+02  0.23433195917E+02  0.36752259328E+02  0.00000000000E+00 0. -1.
          3    1    6    6  503    0 -0.16618018109E+02  0.59463940765E+02  0.52932390139E+02  0.81326236252E+02  0.00000000000E+00 0. -1.
         -1    1    5    5    0  502  0.72297810049E+03 -0.30653189635E+03  0.14021280317E+03  0.79769591163E+03  0.00000000000E+00 0.  1.
         -3    1    6    6    0  503  0.92885063706E+02  0.24910558055E+03  0.35548617272E+03  0.44390499469E+03  0.00000000000E+00 0.  1.
<mgrwt>
<rscale>  0 0.21171835E+04</rscale>
<asrwt>0</asrwt>
<pdfrwt beam="1">  1        2 0.85969024E-01 0.21171835E+04</pdfrwt>
<pdfrwt beam="2">  1       -2 0.30852352E+00 0.21171835E+04</pdfrwt>
<totfact> 0.14021598E+00</totfact>
</mgrwt>
</event>
<event>
12    1  0.4967442E-008  0.2369980E+04  0.7818608E-02  0.8450829E-01
         -1   -1    0    0    0  501 -0.00000000000E+00  0.00000000000E+00  0.11893824051E+04  0.11893824051E+04  0.00000000000E+00 0.  1.
          1   -1    0    0  501    0  0.00000000000E+00 -0.00000000000E+00 -0.11806142692E+04  0.11806142692E+04  0.00000000000E+00 0. -1.
         23    2    1    2    0    0  0.43412951143E+03  0.77963638036E+03 -0.47795350667E+03  0.10163910005E+04  0.91158065936E+02 0.  0.
        254    2    1    2    0    0 -0.43412951143E+03 -0.77963638036E+03  0.48672164258E+03  0.13536056739E+04  0.89389543279E+03 0.  0.
         23    2    4    4    0    0  0.78698388336E+02 -0.25561431853E+02  0.41610604135E+03  0.43410937719E+03  0.91977663563E+02 0.  0.
         23    2    4    4    0    0 -0.51282789976E+03 -0.75407494851E+03  0.70615601225E+02  0.91949629670E+03  0.94156219985E+02 0.  0.
         13    1    3    3    0    0  0.33643675597E+03  0.58154472680E+03 -0.40140833258E+03  0.78263184800E+03  0.00000000000E+00 0. -1.
        -13    1    3    3    0    0  0.97692755459E+02  0.19809165356E+03 -0.76545174094E+02  0.23375915245E+03  0.00000000000E+00 0.  1.
          4    1    5    5  502    0  0.22849333486E+02 -0.54350037312E+02  0.16346639320E+03  0.17377364674E+03  0.00000000000E+00 0. -1.
          1    1    6    6  503    0 -0.28767277757E+03 -0.43655866191E+03 -0.56578316862E+01  0.52284902534E+03  0.00000000000E+00 0. -1.
         -4    1    5    5    0  502  0.55849054850E+02  0.28788605459E+02  0.25263964815E+03  0.26033573045E+03  0.00000000000E+00 0.  1.
         -1    1    6    6    0  503 -0.22515512219E+03 -0.31751628660E+03  0.76273432911E+02  0.39664727136E+03  0.00000000000E+00 0.  1.
<mgrwt>
<rscale>  0 0.23699805E+04</rscale>
<asrwt>0</asrwt>
<pdfrwt beam="1">  1        1 0.18163296E+00 0.23699805E+04</pdfrwt>
<pdfrwt beam="2">  1       -1 0.18298191E+00 0.23699805E+04</pdfrwt>
<totfact> 0.19655154E+00</totfact>
</mgrwt>
</event>
<event>
12    1  0.4967442E-008  0.1923343E+04  0.7818608E-02  0.8643324E-01
         -4   -1    0    0    0  501 -0.00000000000E+00  0.00000000000E+00  0.20316094848E+04  0.20316094848E+04  0.00000000000E+00 0.  1.
          4   -1    0    0  501    0  0.00000000000E+00 -0.00000000000E+00 -0.45521156310E+03  0.45521156310E+03  0.00000000000E+00 0. -1.
         23    2    1    2    0    0  0.74059204560E+03  0.12987403726E+03  0.56767599129E+03  0.94685577673E+03  0.94530351150E+02 0.  0.
        254    2    1    2    0    0 -0.74059204560E+03 -0.12987403726E+03  0.10087219304E+04  0.15399652711E+04  0.88804800542E+03 0.  0.
         23    2    4    4    0    0 -0.59246345618E+03 -0.48279157033E+03  0.68753264607E+03  0.10318958088E+04  0.89482811492E+02 0.  0.
         23    2    4    4    0    0 -0.14812858942E+03  0.35291753307E+03  0.32118928428E+03  0.50806946231E+03  0.92082343782E+02 0.  0.
         13    1    3    3    0    0  0.73961116918E+03  0.12821357467E+03  0.57091646970E+03  0.94308484119E+03  0.00000000000E+00 0.  1.
        -13    1    3    3    0    0  0.98087641353E+00  0.16604625898E+01 -0.32404784078E+01  0.37709355420E+01  0.00000000000E+00 0. -1.
          4    1    6    6  502    0  0.67734347674E+01  0.88807042987E+00 -0.23882173861E+00  0.68355777707E+01  0.00000000000E+00 0. -1.
          4    1    5    5  503    0 -0.19944532974E+03 -0.18927687841E+03  0.29839393710E+03  0.40576239100E+03  0.00000000000E+00 0. -1.
         -4    1    5    5    0  503 -0.39301812644E+03 -0.29351469193E+03  0.38913870897E+03  0.62613341782E+03  0.00000000000E+00 0.  1.
         -4    1    6    6    0  502 -0.15490202419E+03  0.35202946264E+03  0.32142810602E+03  0.50123388454E+03  0.00000000000E+00 0.  1.
<mgrwt>
<rscale>  0 0.19233431E+04</rscale>
<asrwt>0</asrwt>
<pdfrwt beam="1">  1        4 0.70032549E-01 0.19233431E+04</pdfrwt>
<pdfrwt beam="2">  1       -4 0.31255530E+00 0.19233431E+04</pdfrwt>
<totfact> 0.90363763E-02</totfact>
</mgrwt>
</event>
<event>
12    1  0.4967442E-008  0.2340243E+04  0.7818608E-02  0.8462221E-01
         -1   -1    0    0    0  501 -0.00000000000E+00  0.00000000000E+00  0.12458860231E+04  0.12458860231E+04  0.00000000000E+00 0.  1.
          1   -1    0    0  501    0  0.00000000000E+00 -0.00000000000E+00 -0.10989642430E+04  0.10989642430E+04  0.00000000000E+00 0. -1.
         23    2    1    2    0    0  0.38894567107E+03  0.85987822354E+03  0.37927172831E+03  0.10212361208E+04  0.91689018849E+02 0.  0.
        254    2    1    2    0    0 -0.38894567107E+03 -0.85987822354E+03 -0.23234994823E+03  0.13236141452E+04  0.89849797589E+03 0.  0.
         23    2    4    4    0    0 -0.35430822115E+03 -0.19366207590E+03  0.26114035518E+03  0.48972754691E+03  0.92733326723E+02 0.  0.
         23    2    4    4    0    0 -0.34637449923E+02 -0.66621614764E+03 -0.49349030340E+03  0.83388659833E+03  0.82404314255E+02 0.  0.
         13    1    3    3    0    0  0.25796835843E+02  0.10602882137E+03  0.21601573673E+02  0.11123945202E+03  0.00000000000E+00 0. -1.
        -13    1    3    3    0    0  0.36314883523E+03  0.75384940216E+03  0.35767015464E+03  0.90999666878E+03  0.00000000000E+00 0.  1.
          4    1    5    5  502    0 -0.29734513242E+03 -0.19370861841E+03  0.20541319669E+03  0.41003870304E+03  0.00000000000E+00 0. -1.
          4    1    6    6  503    0 -0.23756443434E+02 -0.63620221316E+03 -0.44867494998E+03  0.77886252662E+03  0.00000000000E+00 0. -1.
         -4    1    5    5    0  502 -0.56963088730E+02  0.46542509403E-01  0.55727158485E+02  0.79688843866E+02  0.00000000000E+00 0.  1.
         -4    1    6    6    0  503 -0.10881006489E+02 -0.30013934484E+02 -0.44815353421E+02  0.55024071711E+02  0.00000000000E+00 0.  1.
<mgrwt>
<rscale>  0 0.23402429E+04</rscale>
<asrwt>0</asrwt>
<pdfrwt beam="1">  1        1 0.16907142E+00 0.23402429E+04</pdfrwt>
<pdfrwt beam="2">  1       -1 0.19167477E+00 0.23402429E+04</pdfrwt>
<totfact> 0.19676967E+00</totfact>
</mgrwt>
</event>
<event>
12    1  0.4967442E-008  0.1318945E+04  0.7818608E-02  0.9014675E-01
         -2   -1    0    0    0  501 -0.00000000000E+00  0.00000000000E+00  0.44687259055E+03  0.44687259055E+03  0.00000000000E+00 0.  1.
          2   -1    0    0  501    0  0.00000000000E+00 -0.00000000000E+00 -0.97321631160E+03  0.97321631160E+03  0.00000000000E+00 0. -1.
         23    2    1    2    0    0  0.10469950990E+03 -0.20870532909E+03  0.13099016203E+03  0.28263943844E+03  0.90590992087E+02 0.  0.
        254    2    1    2    0    0 -0.10469950990E+03  0.20870532909E+03 -0.65733388308E+03  0.11374494637E+04  0.89843394130E+03 0.  0.
         23    2    4    4    0    0 -0.20551525002E+03 -0.94544927010E+02 -0.75364149633E+03  0.79201184395E+03  0.90177573427E+02 0.  0.
         23    2    4    4    0    0  0.10081574012E+03  0.30325025610E+03  0.96307613248E+02  0.34543761976E+03  0.89036293143E+02 0.  0.
         13    1    3    3    0    0 -0.89761587416E+01  0.33872814467E+01  0.74334186396E+01  0.12136754674E+02  0.00000000000E+00 0. -1.
        -13    1    3    3    0    0  0.11367566864E+03 -0.21209261054E+03  0.12355674339E+03  0.27050268376E+03  0.00000000000E+00 0.  1.
          1    1    5    5  502    0 -0.11279637835E+01 -0.15917028970E+02 -0.16188992648E+02  0.22731203147E+02  0.00000000000E+00 0. -1.
          3    1    6    6  503    0  0.91808712523E+02  0.25063673580E+03  0.43670821536E+02  0.27047135464E+03  0.00000000000E+00 0. -1.
         -1    1    5    5    0  502 -0.20438728624E+03 -0.78627898040E+02 -0.73745250368E+03  0.76928064080E+03  0.00000000000E+00 0.  1.
         -3    1    6    6    0  503  0.90070275966E+01  0.52613520302E+02  0.52636791712E+02  0.74966265122E+02  0.00000000000E+00 0.  1.
<mgrwt>
<rscale>  0 0.13189446E+04</rscale>
<asrwt>0</asrwt>
<pdfrwt beam="1">  1        2 0.14972558E+00 0.13189446E+04</pdfrwt>
<pdfrwt beam="2">  1       -2 0.68749630E-01 0.13189446E+04</pdfrwt>
<totfact> 0.49629410E+01</totfact>
</mgrwt>
</event>
<event>
12    1  0.4967442E-008  0.1330178E+04  0.7818608E-02  0.9005971E-01
          1   -1    0    0  501    0  0.00000000000E+00  0.00000000000E+00  0.10984693974E+04  0.10984693974E+04  0.00000000000E+00 0. -1.
         -1   -1    0    0    0  501 -0.00000000000E+00 -0.00000000000E+00 -0.40269038813E+03  0.40269038813E+03  0.00000000000E+00 0.  1.
         23    2    1    2    0    0  0.10819160457E+03 -0.89581018842E+02  0.55683987937E+03  0.58111444413E+03  0.88843478588E+02 0.  0.
        254    2    1    2    0    0 -0.10819160457E+03  0.89581018842E+02  0.13893912989E+03  0.92004534140E+03  0.89858175264E+03 0.  0.
         23    2    4    4    0    0 -0.89951391815E+02 -0.20984345638E+02  0.50727631192E+03  0.52427639458E+03  0.94894075812E+02 0.  0.
         23    2    4    4    0    0 -0.18240212754E+02  0.11056536448E+03 -0.36833718203E+03  0.39576894682E+03  0.91669921010E+02 0.  0.
         13    1    3    3    0    0  0.32304967141E+02  0.97019193568E+01  0.60316799428E+02  0.69107556999E+02  0.00000000000E+00 0.  1.
        -13    1    3    3    0    0  0.75886637428E+02 -0.99282938198E+02  0.49652307994E+03  0.51200688713E+03  0.00000000000E+00 0. -1.
          4    1    6    6  502    0 -0.32381159846E+02  0.11758301843E+03 -0.35408634507E+03  0.37450159612E+03  0.00000000000E+00 0. -1.
          4    1    5    5  503    0  0.17724476606E+02 -0.14382711302E+02  0.12514500920E+03  0.12720964108E+03  0.00000000000E+00 0. -1.
         -4    1    5    5    0  503 -0.10767586842E+03 -0.66016343360E+01  0.38213130272E+03  0.39706675350E+03  0.00000000000E+00 0.  1.
         -4    1    6    6    0  502  0.14140947091E+02 -0.70176539472E+01 -0.14250836962E+02  0.21267350697E+02  0.00000000000E+00 0.  1.
<mgrwt>
<rscale>  0 0.13301775E+04</rscale>
<asrwt>0</asrwt>
<pdfrwt beam="1">  1        1 0.16899529E+00 0.13301775E+04</pdfrwt>
<pdfrwt beam="2">  1       -1 0.61952368E-01 0.13301775E+04</pdfrwt>
<totfact> 0.32933499E+01</totfact>
</mgrwt>
</event>
<event>
12    1  0.4967442E-008  0.1688373E+04  0.7818608E-02  0.8768023E-01
          2   -1    0    0  501    0  0.00000000000E+00  0.00000000000E+00  0.54426370245E+03  0.54426370245E+03  0.00000000000E+00 0. -1.
         -2   -1    0    0    0  501 -0.00000000000E+00 -0.00000000000E+00 -0.13093855409E+04  0.13093855409E+04  0.00000000000E+00 0.  1.
         23    2    1    2    0    0 -0.25338227069E+03  0.39313430083E+02 -0.88491427770E+03  0.92574023186E+03  0.90407837668E+02 0.  0.
        254    2    1    2    0    0  0.25338227069E+03 -0.39313430083E+02  0.11979243922E+03  0.92790901152E+03  0.88369496110E+03 0.  0.
         23    2    4    4    0    0  0.84447885688E+02 -0.37873569031E+03 -0.17868640279E+03  0.43699826679E+03  0.92013510569E+02 0.  0.
         23    2    4    4    0    0  0.16893438500E+03  0.33942226022E+03  0.29847884201E+03  0.49091074472E+03  0.90318563894E+02 0.  0.
         11    1    3    3    0    0 -0.20272557094E+03  0.15771877685E+02 -0.78866099371E+03  0.81445231429E+03  0.00000000000E+00 0.  1.
        -11    1    3    3    0    0 -0.50656699750E+02  0.23541552397E+02 -0.96253283987E+02  0.11128791757E+03  0.00000000000E+00 0. -1.
          2    1    5    5  502    0 -0.10097309182E+02 -0.22156826359E+02 -0.31513357818E+02  0.39824268078E+02  0.00000000000E+00 0. -1.
          3    1    6    6  503    0  0.98657761997E+02  0.13680768965E+03  0.17674679756E+03  0.24431358619E+03  0.00000000000E+00 0. -1.
         -2    1    5    5    0  502  0.94545194870E+02 -0.35657886395E+03 -0.14717304498E+03  0.39717399871E+03  0.00000000000E+00 0.  1.
         -3    1    6    6    0  503  0.70276623007E+02  0.20261457057E+03  0.12173204445E+03  0.24659715853E+03  0.00000000000E+00 0.  1.
<mgrwt>
<rscale>  0 0.16883732E+04</rscale>
<asrwt>0</asrwt>
<pdfrwt beam="1">  1        2 0.83732878E-01 0.16883732E+04</pdfrwt>
<pdfrwt beam="2">  1       -2 0.20144393E+00 0.16883732E+04</pdfrwt>
<totfact> 0.69020004E+00</totfact>
</mgrwt>
</event>
<event>
12    1  0.4967442E-008  0.2147958E+04  0.7818608E-02  0.8540407E-01
          2   -1    0    0  501    0  0.00000000000E+00  0.00000000000E+00  0.37419843860E+04  0.37419843860E+04  0.00000000000E+00 0.  1.
         -2   -1    0    0    0  501 -0.00000000000E+00 -0.00000000000E+00 -0.30824038135E+03  0.30824038135E+03  0.00000000000E+00 0. -1.
         23    2    1    2    0    0 -0.46496895287E+03 -0.55292960859E+03  0.23937378534E+04  0.25020370134E+04  0.91000144514E+02 0.  0.
        254    2    1    2    0    0  0.46496895287E+03  0.55292960859E+03  0.10400061512E+04  0.15481877539E+04  0.89069930263E+03 0.  0.
         23    2    4    4    0    0  0.42449437150E+03  0.31736614283E+03  0.66606172903E+02  0.54171795270E+03  0.90028983959E+02 0.  0.
         23    2    4    4    0    0  0.40474581367E+02  0.23556346575E+03  0.97339997832E+03  0.10064698012E+04  0.91354282306E+02 0.  0.
         13    1    3    3    0    0 -0.48203695734E+01 -0.33623903805E+02  0.96456239319E+02  0.10226245144E+03  0.00000000000E+00 0. -1.
        -13    1    3    3    0    0 -0.46014858330E+03 -0.51930570478E+03  0.22972816141E+04  0.23997745620E+04  0.00000000000E+00 0.  1.
          4    1    5    5  502    0  0.19268999157E+03  0.18893892509E+03  0.62984485984E+01  0.26993892035E+03  0.00000000000E+00 0. -1.
          1    1    6    6  503    0  0.42229008977E+02  0.46551215766E+02  0.17330021773E+03  0.18434551894E+03  0.00000000000E+00 0. -1.
         -4    1    5    5    0  502  0.23180437993E+03  0.12842721774E+03  0.60307724305E+02  0.27177903235E+03  0.00000000000E+00 0.  1.
         -1    1    6    6    0  503 -0.17544276092E+01  0.18901224999E+03  0.80009976060E+03  0.82212428231E+03  0.00000000000E+00 0.  1.
<mgrwt>
<rscale>  0 0.21479578E+04</rscale>
<asrwt>0</asrwt>
<pdfrwt beam="1">  1        2 0.57568987E+00 0.21479578E+04</pdfrwt>
<pdfrwt beam="2">  1       -2 0.47421600E-01 0.21479578E+04</pdfrwt>
<totfact> 0.21135597E+00</totfact>
</mgrwt>
</event>
<event>
12    1  0.4967442E-008  0.2031631E+04  0.7818608E-02  0.8591973E-01
          2   -1    0    0  501    0  0.00000000000E+00  0.00000000000E+00  0.26396666228E+04  0.26396666228E+04  0.00000000000E+00 0. -1.
         -2   -1    0    0    0  501 -0.00000000000E+00 -0.00000000000E+00 -0.39091348654E+03  0.39091348654E+03  0.00000000000E+00 0.  1.
         23    2    1    2    0    0 -0.10930022654E+03 -0.79413948325E+03  0.68632355806E+03  0.10592548333E+04  0.91524407018E+02 0.  0.
        254    2    1    2    0    0  0.10930022654E+03  0.79413948325E+03  0.15624295782E+04  0.19713252761E+04  0.89573048340E+03 0.  0.
         23    2    4    4    0    0 -0.37953518380E+03  0.24931568720E+03  0.56055698169E+03  0.72716882424E+03  0.91351527626E+02 0.  0.
         23    2    4    4    0    0  0.48883541034E+03  0.54482379604E+03  0.10018725965E+04  0.12441564518E+04  0.91561727082E+02 0.  0.
         11    1    3    3    0    0 -0.66001046248E+02 -0.38201684886E+03  0.27441435684E+03  0.47496973604E+03  0.00000000000E+00 0. -1.
        -11    1    3    3    0    0 -0.43299180287E+02 -0.41212263439E+03  0.41190920122E+03  0.58428509722E+03  0.00000000000E+00 0.  1.
          4    1    5    5  502    0 -0.12516639969E+03  0.70789614108E+02  0.24630120006E+03  0.28520532643E+03  0.00000000000E+00 0.  1.
          3    1    6    6  503    0  0.12187988250E+03  0.15500499064E+03  0.33800961959E+03  0.39132052824E+03  0.00000000000E+00 0. -1.
         -4    1    5    5    0  502 -0.25436878411E+03  0.17852607310E+03  0.31425578163E+03  0.44196349781E+03  0.00000000000E+00 0. -1.
         -3    1    6    6    0  503  0.36695552784E+03  0.38981880540E+03  0.66386297690E+03  0.85283592359E+03  0.00000000000E+00 0.  1.
<mgrwt>
<rscale>  0 0.20316312E+04</rscale>
<asrwt>0</asrwt>
<pdfrwt beam="1">  1        2 0.40610255E+00 0.20316312E+04</pdfrwt>
<pdfrwt beam="2">  1       -2 0.60140538E-01 0.20316312E+04</pdfrwt>
<totfact> 0.68927122E+00</totfact>
</mgrwt>
</event>
<event>
12    1  0.4967442E-008  0.1242845E+04  0.7818608E-02  0.9076160E-01
          2   -1    0    0  501    0  0.00000000000E+00  0.00000000000E+00  0.23606738020E+04  0.23606738020E+04  0.00000000000E+00 0. -1.
         -2   -1    0    0    0  501 -0.00000000000E+00 -0.00000000000E+00 -0.16358284532E+03  0.16358284532E+03  0.00000000000E+00 0.  1.
         23    2    1    2    0    0 -0.31790293971E+01 -0.20557140982E+03  0.93959568588E+03  0.96608853201E+03  0.90649258087E+02 0.  0.
        254    2    1    2    0    0  0.31790293971E+01  0.20557140982E+03  0.12574952708E+04  0.15581681153E+04  0.89684101641E+03 0.  0.
         23    2    4    4    0    0  0.21197779807E+03 -0.29104788058E+03  0.45291639577E+03  0.58571364723E+03  0.91015159904E+02 0.  0.
         23    2    4    4    0    0 -0.20879876867E+03  0.49661929040E+03  0.80457887499E+03  0.97245446804E+03  0.89960440948E+02 0.  0.
         13    1    3    3    0    0 -0.45990489007E+02 -0.98347856032E+02  0.41822088541E+03  0.43208348135E+03  0.00000000000E+00 0.  1.
        -13    1    3    3    0    0  0.42811459609E+02 -0.10722355379E+03  0.52137480048E+03  0.53400505066E+03  0.00000000000E+00 0. -1.
          3    1    6    6  502    0 -0.12745159663E+03  0.39318729553E+03  0.58092352648E+03  0.71296023905E+03  0.00000000000E+00 0. -1.
          3    1    5    5  503    0  0.11780144042E+03 -0.19684525890E+03  0.22258881164E+03  0.31964200973E+03  0.00000000000E+00 0. -1.
         -3    1    5    5    0  503  0.94176357651E+02 -0.94202621676E+02  0.23032758414E+03  0.26607163751E+03  0.00000000000E+00 0.  1.
         -3    1    6    6    0  502 -0.81347172044E+02  0.10343199488E+03  0.22365534851E+03  0.25949422900E+03  0.00000000000E+00 0.  1.
<mgrwt>
<rscale>  0 0.12428447E+04</rscale>
<asrwt>0</asrwt>
<pdfrwt beam="1">  1        2 0.36318056E+00 0.12428447E+04</pdfrwt>
<pdfrwt beam="2">  1       -2 0.25166593E-01 0.12428447E+04</pdfrwt>
<totfact> 0.58632275E+01</totfact>
</mgrwt>
</event>
<event>
12    1  0.4967442E-008  0.1537941E+04  0.7818608E-02  0.8859607E-01
          1   -1    0    0  501    0  0.00000000000E+00  0.00000000000E+00  0.57163934776E+03  0.57163934776E+03  0.00000000000E+00 0. -1.
         -1   -1    0    0    0  501 -0.00000000000E+00 -0.00000000000E+00 -0.10344208905E+04  0.10344208905E+04  0.00000000000E+00 0.  1.
         23    2    1    2    0    0 -0.63142587818E+02 -0.23878037755E+03 -0.60030727036E+03  0.65562545946E+03  0.92048189224E+02 0.  0.
        254    2    1    2    0    0  0.63142587818E+02  0.23878037755E+03  0.13752572761E+03  0.95043477881E+03  0.90741935615E+03 0.  0.
         23    2    4    4    0    0  0.39410973384E+03  0.36946903608E+03 -0.25966368143E+02  0.54868160752E+03  0.92452167246E+02 0.  0.
         23    2    4    4    0    0 -0.33096714602E+03 -0.13068865853E+03  0.16349209576E+03  0.40175317129E+03  0.89761729351E+02 0.  0.
         13    1    3    3    0    0 -0.25209191739E+02 -0.25696177015E+02 -0.34603296848E+02  0.49931803633E+02  0.00000000000E+00 0. -1.
        -13    1    3    3    0    0 -0.37933396079E+02 -0.21308420054E+03 -0.56570397351E+03  0.60569365582E+03  0.00000000000E+00 0.  1.
          1    1    5    5  502    0  0.30030996899E+02  0.26518115677E+01 -0.94440714092E+01  0.31592457393E+02  0.00000000000E+00 0. -1.
          1    1    6    6  503    0 -0.13623333033E+03 -0.98319913211E+02  0.93724836512E+02  0.19238157554E+03  0.00000000000E+00 0. -1.
         -1    1    5    5    0  502  0.36407873694E+03  0.36681722451E+03 -0.16522296734E+02  0.51708915013E+03  0.00000000000E+00 0.  1.
         -1    1    6    6    0  503 -0.19473381569E+03 -0.32368745315E+02  0.69767259245E+02  0.20937159576E+03  0.00000000000E+00 0.  1.
<mgrwt>
<rscale>  0 0.15379411E+04</rscale>
<asrwt>0</asrwt>
<pdfrwt beam="1">  1        1 0.87944515E-01 0.15379411E+04</pdfrwt>
<pdfrwt beam="2">  1       -1 0.15914168E+00 0.15379411E+04</pdfrwt>
<totfact> 0.10505134E+01</totfact>
</mgrwt>
</event>
<event>
12    1  0.4967442E-008  0.2546588E+04  0.7818608E-02  0.8386574E-01
          2   -1    0    0  501    0  0.00000000000E+00  0.00000000000E+00  0.12887782013E+04  0.12887782013E+04  0.00000000000E+00 0. -1.
         -2   -1    0    0    0  501 -0.00000000000E+00 -0.00000000000E+00 -0.12579958417E+04  0.12579958417E+04  0.00000000000E+00 0.  1.
         23    2    1    2    0    0 -0.12969165265E+03 -0.92625191085E+03  0.54495207149E+03  0.10861358406E+04  0.89195162199E+02 0.  0.
        254    2    1    2    0    0  0.12969165265E+03  0.92625191085E+03 -0.51416971191E+03  0.14606382024E+04  0.99716144056E+03 0.  0.
         23    2    4    4    0    0  0.20698044539E+03  0.42688008015E+03  0.24667174424E+03  0.54245099309E+03  0.91316060414E+02 0.  0.
         23    2    4    4    0    0 -0.77288792742E+02  0.49937183069E+03 -0.76084145615E+03  0.91818720931E+03  0.94033223756E+02 0.  0.
         13    1    3    3    0    0 -0.13269279329E+03 -0.66162503201E+03  0.38476725966E+03  0.77678884163E+03  0.00000000000E+00 0. -1.
        -13    1    3    3    0    0  0.30011406426E+01 -0.26462687883E+03  0.16018481183E+03  0.30934699899E+03  0.00000000000E+00 0.  1.
          3    1    6    6  502    0 -0.83521589005E+02  0.30685302441E+03 -0.42183175840E+03  0.52827707391E+03  0.00000000000E+00 0. -1.
          3    1    5    5  503    0  0.11490188787E+03  0.15512243678E+03  0.69212086890E+02  0.20507493070E+03  0.00000000000E+00 0. -1.
         -3    1    5    5    0  503  0.92078557515E+02  0.27175764337E+03  0.17745965735E+03  0.33737606239E+03  0.00000000000E+00 0.  1.
         -3    1    6    6    0  502  0.62327962631E+01  0.19251880628E+03 -0.33900969775E+03  0.38991013540E+03  0.00000000000E+00 0.  1.
<mgrwt>
<rscale>  0 0.25465880E+04</rscale>
<asrwt>0</asrwt>
<pdfrwt beam="1">  1        2 0.19827357E+00 0.25465880E+04</pdfrwt>
<pdfrwt beam="2">  1       -2 0.19353782E+00 0.25465880E+04</pdfrwt>
<totfact> 0.21886544E+00</totfact>
</mgrwt>
</event>
<event>
12    1  0.4967442E-008  0.2162818E+04  0.7818608E-02  0.8534065E-01
         -1   -1    0    0    0  501 -0.00000000000E+00  0.00000000000E+00  0.66410327853E+03  0.66410327853E+03  0.00000000000E+00 0.  1.
          1   -1    0    0  501    0  0.00000000000E+00 -0.00000000000E+00 -0.17609391278E+04  0.17609391278E+04  0.00000000000E+00 0. -1.
         23    2    1    2    0    0 -0.74815721195E+03  0.37007949423E+03 -0.21533085103E+03  0.86666707441E+03  0.89701709066E+02 0.  0.
        254    2    1    2    0    0  0.74815721195E+03 -0.37007949423E+03 -0.88150499822E+03  0.15583753319E+04  0.97713078313E+03 0.  0.
         23    2    4    4    0    0 -0.55319998724E+02 -0.33100903195E+03 -0.61398076716E+03  0.70572877094E+03  0.91942559275E+02 0.  0.
         23    2    4    4    0    0  0.80347721068E+03 -0.39070462287E+02 -0.26752423107E+03  0.85264656096E+03  0.91295205852E+02 0.  0.
         11    1    3    3    0    0 -0.68854022760E+03  0.35941558208E+03 -0.18281725274E+03  0.79792816316E+03  0.00000000000E+00 0.  1.
        -11    1    3    3    0    0 -0.59616984355E+02  0.10663912151E+02 -0.32513598288E+02  0.68738911249E+02  0.00000000000E+00 0. -1.
          4    1    5    5  502    0 -0.15743451277E+02 -0.14416926801E+01 -0.23001618618E+02  0.27910736195E+02  0.00000000000E+00 0. -1.
          1    1    6    6  503    0  0.79033797019E+02  0.20856547539E+02 -0.39650178312E+02  0.90848628425E+02  0.00000000000E+00 0. -1.
         -4    1    5    5    0  502 -0.39576547447E+02 -0.32956733927E+03 -0.59097914854E+03  0.67781803475E+03  0.00000000000E+00 0.  1.
         -1    1    6    6    0  503  0.72444341366E+03 -0.59927009825E+02 -0.22787405276E+03  0.76179793254E+03  0.00000000000E+00 0.  1.
<mgrwt>
<rscale>  0 0.21628180E+04</rscale>
<asrwt>0</asrwt>
<pdfrwt beam="1">  1        1 0.27091371E+00 0.21628180E+04</pdfrwt>
<pdfrwt beam="2">  1       -1 0.10216974E+00 0.21628180E+04</pdfrwt>
<totfact> 0.35933129E+00</totfact>
</mgrwt>
</event>
<event>
12    1  0.4967442E-008  0.2218335E+04  0.7818608E-02  0.8510835E-01
          2   -1    0    0  501    0  0.00000000000E+00  0.00000000000E+00  0.20483279417E+04  0.20483279417E+04  0.00000000000E+00 0. -1.
         -2   -1    0    0    0  501 -0.00000000000E+00 -0.00000000000E+00 -0.60061330977E+03  0.60061330977E+03  0.00000000000E+00 0.  1.
         23    2    1    2    0    0  0.76741662893E+03 -0.43085323083E+03  0.16073855529E+03  0.89935964614E+03  0.91913552142E+02 0.  0.
        254    2    1    2    0    0 -0.76741662893E+03  0.43085323083E+03  0.12869760766E+04  0.17495816053E+04  0.79382969395E+03 0.  0.
         23    2    4    4    0    0 -0.88461431411E+03  0.24627824136E+03  0.11566902491E+04  0.14792396280E+04  0.83797899510E+02 0.  0.
         23    2    4    4    0    0  0.11719768518E+03  0.18457498947E+03  0.13028582756E+03  0.27034197729E+03  0.91143643062E+02 0.  0.
         13    1    3    3    0    0  0.75832569831E+03 -0.43551444298E+03  0.16076446221E+03  0.88914335574E+03  0.00000000000E+00 0.  1.
        -13    1    3    3    0    0  0.90909306230E+01  0.46612121453E+01 -0.25906913203E-01  0.10216290394E+02  0.00000000000E+00 0. -1.
          4    1    5    5  502    0 -0.44292355842E+03  0.15684760860E+03  0.63315597339E+03  0.78845985159E+03  0.00000000000E+00 0. -1.
          1    1    6    6  503    0  0.57327414228E+02  0.61461232482E+02  0.40818918168E+01  0.84146166645E+02  0.00000000000E+00 0. -1.
         -4    1    5    5    0  502 -0.44169075569E+03  0.89430632768E+02  0.52353427569E+03  0.69077977646E+03  0.00000000000E+00 0.  1.
         -1    1    6    6    0  503  0.59870270955E+02  0.12311375699E+03  0.12620393574E+03  0.18619581064E+03  0.00000000000E+00 0.  1.
<mgrwt>
<rscale>  0 0.22183354E+04</rscale>
<asrwt>0</asrwt>
<pdfrwt beam="1">  1        2 0.31512737E+00 0.22183354E+04</pdfrwt>
<pdfrwt beam="2">  1       -2 0.92402049E-01 0.22183354E+04</pdfrwt>
<totfact> 0.56975945E+00</totfact>
</mgrwt>
</event>
<event>
12    1  0.4967442E-008  0.1277879E+04  0.7818608E-02  0.9047294E-01
          2   -1    0    0  501    0  0.00000000000E+00  0.00000000000E+00  0.11264046591E+04  0.11264046591E+04  0.00000000000E+00 0. -1.
         -2   -1    0    0    0  501 -0.00000000000E+00 -0.00000000000E+00 -0.36243062171E+03  0.36243062171E+03  0.00000000000E+00 0.  1.
         23    2    1    2    0    0  0.25273850676E+03  0.16696768946E+03  0.10489778251E+03  0.33145611885E+03  0.84289096709E+02 0.  0.
        254    2    1    2    0    0 -0.25273850676E+03 -0.16696768946E+03  0.65907625489E+03  0.11573791620E+04  0.90188139614E+03 0.  0.
         23    2    4    4    0    0 -0.17108991350E+02 -0.37410582630E+03  0.72792783467E+03  0.82350986245E+03  0.89675382443E+02 0.  0.
         23    2    4    4    0    0 -0.23562951541E+03  0.20713813684E+03 -0.68851579771E+02  0.33386929953E+03  0.91108138326E+02 0.  0.
         11    1    3    3    0    0  0.21884516081E+03  0.11732405353E+03  0.10905310144E+03  0.27120235412E+03  0.00000000000E+00 0.  1.
        -11    1    3    3    0    0  0.33893345947E+02  0.49643635933E+02 -0.41553189362E+01  0.60253764726E+02  0.00000000000E+00 0. -1.
          2    1    5    5  502    0 -0.37436791980E+02 -0.77025549679E+02  0.13238745025E+03  0.15767335121E+03  0.00000000000E+00 0. -1.
          1    1    6    6  503    0 -0.49072576374E+02  0.38645857293E+02 -0.53118320097E+02  0.81994975260E+02  0.00000000000E+00 0. -1.
         -2    1    5    5    0  502  0.20327800630E+02 -0.29708027662E+03  0.59554038442E+03  0.66583651124E+03  0.00000000000E+00 0.  1.
         -1    1    6    6    0  503 -0.18655693903E+03  0.16849227954E+03 -0.15733259674E+02  0.25187432427E+03  0.00000000000E+00 0.  1.
<mgrwt>
<rscale>  0 0.12778788E+04</rscale>
<asrwt>0</asrwt>
<pdfrwt beam="1">  1        2 0.17329302E+00 0.12778788E+04</pdfrwt>
<pdfrwt beam="2">  1       -2 0.55758558E-01 0.12778788E+04</pdfrwt>
<totfact> 0.62242584E+01</totfact>
</mgrwt>
</event>
<event>
12    1  0.4967442E-008  0.2339239E+04  0.7818608E-02  0.8462609E-01
          2   -1    0    0  501    0  0.00000000000E+00  0.00000000000E+00  0.19237532840E+04  0.19237532840E+04  0.00000000000E+00 0. -1.
         -2   -1    0    0    0  501 -0.00000000000E+00 -0.00000000000E+00 -0.71111483114E+03  0.71111483114E+03  0.00000000000E+00 0.  1.
         23    2    1    2    0    0 -0.42337313024E+03  0.37829879009E+03 -0.40647587055E+03  0.70404566229E+03  0.90015994431E+02 0.  0.
        254    2    1    2    0    0  0.42337313024E+03 -0.37829879009E+03  0.16191143234E+04  0.19308224528E+04  0.88554467426E+03 0.  0.
         23    2    4    4    0    0  0.48449910509E+03  0.50739107256E+02  0.12822125961E+04  0.13743868985E+04  0.86927356379E+02 0.  0.
         23    2    4    4    0    0 -0.61125974852E+02 -0.42903789735E+03  0.33690172724E+03  0.55643555430E+03  0.91147408643E+02 0.  0.
         13    1    3    3    0    0 -0.27018608883E+02  0.28443788905E+02 -0.36654468175E+01  0.39401647854E+02  0.00000000000E+00 0. -1.
        -13    1    3    3    0    0 -0.39635452136E+03  0.34985500119E+03 -0.40281042373E+03  0.66464401443E+03  0.00000000000E+00 0.  1.
          2    1    5    5  502    0  0.19376862026E+03  0.11094187631E+02  0.62981237002E+03  0.65903943783E+03  0.00000000000E+00 0. -1.
          1    1    6    6  503    0  0.64580817746E+01 -0.25312311344E+03  0.17280356625E+03  0.30655193669E+03  0.00000000000E+00 0. -1.
         -2    1    5    5    0  502  0.29073048484E+03  0.39644919625E+02  0.65240022611E+03  0.71534746068E+03  0.00000000000E+00 0.  1.
         -1    1    6    6    0  503 -0.67584056627E+02 -0.17591478390E+03  0.16409816100E+03  0.24988361761E+03  0.00000000000E+00 0.  1.
<mgrwt>
<rscale>  0 0.23392388E+04</rscale>
<asrwt>0</asrwt>
<pdfrwt beam="1">  1        2 0.29596204E+00 0.23392388E+04</pdfrwt>
<pdfrwt beam="2">  1       -2 0.10940228E+00 0.23392388E+04</pdfrwt>
<totfact> 0.44318558E+00</totfact>
</mgrwt>
</event>
<event>
12    1  0.4967442E-008  0.1230076E+04  0.7818608E-02  0.9086931E-01
          3   -1    0    0  501    0  0.00000000000E+00  0.00000000000E+00  0.78741642889E+03  0.78741642889E+03  0.00000000000E+00 0. -1.
         -3   -1    0    0    0  501 -0.00000000000E+00 -0.00000000000E+00 -0.48039596967E+03  0.48039596967E+03  0.00000000000E+00 0.  1.
         23    2    1    2    0    0  0.21142693644E+03  0.18547151791E+03  0.23002186038E+02  0.29585341605E+03  0.88876936362E+02 0.  0.
        254    2    1    2    0    0 -0.21142693644E+03 -0.18547151791E+03  0.28401827318E+03  0.97195898251E+03  0.88596661944E+03 0.  0.
         23    2    4    4    0    0 -0.12034062394E+03 -0.35916946661E+01 -0.30589540543E+03  0.34155135409E+03  0.92685286746E+02 0.  0.
         23    2    4    4    0    0 -0.91086312496E+02 -0.18187982324E+03  0.58991367861E+03  0.63040762842E+03  0.89658481627E+02 0.  0.
         11    1    3    3    0    0  0.10067627750E+03  0.97713730249E+02 -0.32542753353E+02  0.14402332008E+03  0.00000000000E+00 0.  1.
        -11    1    3    3    0    0  0.11075065894E+03  0.87757787661E+02  0.55544939390E+02  0.15183009597E+03  0.00000000000E+00 0. -1.
          2    1    5    5  502    0 -0.98772129574E+01 -0.34135281239E+02 -0.96636942188E+02  0.10296346613E+03  0.00000000000E+00 0. -1.
          3    1    6    6  503    0 -0.76315525318E+01  0.10102059370E+02  0.26726806366E+02  0.29573879963E+02  0.00000000000E+00 0. -1.
         -2    1    5    5    0  502 -0.11046341098E+03  0.30543586573E+02 -0.20925846324E+03  0.23858788797E+03  0.00000000000E+00 0.  1.
         -3    1    6    6    0  503 -0.83454759964E+02 -0.19198188261E+03  0.56318687224E+03  0.60083374845E+03  0.00000000000E+00 0.  1.
<mgrwt>
<rscale>  0 0.12300759E+04</rscale>
<asrwt>0</asrwt>
<pdfrwt beam="1">  1        3 0.12114099E+00 0.12300759E+04</pdfrwt>
<pdfrwt beam="2">  1       -3 0.73907073E-01 0.12300759E+04</pdfrwt>
<totfact> 0.24762558E+00</totfact>
</mgrwt>
</event>
<event>
12    1  0.4967442E-008  0.3273686E+04  0.7818608E-02  0.8169623E-01
         -1   -1    0    0    0  501 -0.00000000000E+00  0.00000000000E+00  0.86438687735E+03  0.86438687735E+03  0.00000000000E+00 0.  1.
          1   -1    0    0  501    0  0.00000000000E+00 -0.00000000000E+00 -0.30996018185E+04  0.30996018185E+04  0.00000000000E+00 0. -1.
         23    2    1    2    0    0 -0.16220879993E+03 -0.14115527026E+03 -0.28430121440E+04  0.28524540672E+04  0.86831154528E+02 0.  0.
        254    2    1    2    0    0  0.16220879993E+03  0.14115527026E+03  0.60779720285E+03  0.11115346287E+04  0.90545860525E+03 0.  0.
         23    2    4    4    0    0  0.30378164579E+03  0.24280565443E+03  0.76276311949E+03  0.86105222429E+03  0.91463010891E+02 0.  0.
         23    2    4    4    0    0 -0.14157284585E+03 -0.10165038417E+03 -0.15496591663E+03  0.25048240438E+03  0.91385602253E+02 0.  0.
         13    1    3    3    0    0 -0.22818774227E+02 -0.12788893093E+02 -0.11815228873E+03  0.12101328677E+03  0.00000000000E+00 0.  1.
        -13    1    3    3    0    0 -0.13939002570E+03 -0.12836637716E+03 -0.27248598553E+04  0.27314407804E+04  0.00000000000E+00 0. -1.
          4    1    5    5  502    0  0.23144501179E+03  0.14296484545E+03  0.46430116837E+03  0.53812760147E+03  0.00000000000E+00 0. -1.
          1    1    6    6  503    0 -0.91267764561E+02 -0.18201795874E+02 -0.44417042093E+02  0.10312120950E+03  0.00000000000E+00 0. -1.
         -4    1    5    5    0  502  0.72336633998E+02  0.99840808984E+02  0.29846195112E+03  0.32292462282E+03  0.00000000000E+00 0.  1.
         -1    1    6    6    0  503 -0.50305081294E+02 -0.83448588300E+02 -0.11054887454E+03  0.14736119488E+03  0.00000000000E+00 0.  1.
<mgrwt>
<rscale>  0 0.32736861E+04</rscale>
<asrwt>0</asrwt>
<pdfrwt beam="1">  1        1 0.47686182E+00 0.32736861E+04</pdfrwt>
<pdfrwt beam="2">  1       -1 0.13298260E+00 0.32736861E+04</pdfrwt>
<totfact> 0.20082688E-01</totfact>
</mgrwt>
</event>
<event>
12    1  0.4967442E-008  0.4039259E+04  0.7818608E-02  0.7996673E-01
          1   -1    0    0  501    0  0.00000000000E+00  0.00000000000E+00  0.42082736209E+04  0.42082736209E+04  0.00000000000E+00 0. -1.
         -1   -1    0    0    0  501 -0.00000000000E+00 -0.00000000000E+00 -0.96925822340E+03  0.96925822340E+03  0.00000000000E+00 0.  1.
         23    2    1    2    0    0 -0.19834205329E+03  0.15980556172E+04  0.17749227866E+03  0.16226426685E+04  0.91347659256E+02 0.  0.
        254    2    1    2    0    0  0.19834205329E+03 -0.15980556172E+04  0.30615231188E+04  0.35548891758E+04  0.81926303419E+03 0.  0.
         23    2    4    4    0    0  0.13820791347E+03 -0.17997711532E+01  0.11285621816E+03  0.20010478705E+03  0.90557900273E+02 0.  0.
         23    2    4    4    0    0  0.60134139817E+02 -0.15962558461E+04  0.29486669007E+04  0.33547843887E+04  0.91065706642E+02 0.  0.
         11    1    3    3    0    0 -0.17579247328E+03  0.15100471935E+04  0.14950853273E+03  0.15275792358E+04  0.00000000000E+00 0.  1.
        -11    1    3    3    0    0 -0.22549580013E+02  0.88008423739E+02  0.27983745926E+02  0.95063432737E+02  0.00000000000E+00 0. -1.
          1    1    5    5  502    0  0.13258829610E+03  0.19820546463E+02  0.68745332775E+02  0.15065998508E+03  0.00000000000E+00 0. -1.
          3    1    6    6  503    0  0.52926444456E+02 -0.15338889841E+04  0.27927466975E+04  0.31866990351E+04  0.00000000000E+00 0. -1.
         -1    1    5    5    0  502  0.56196173722E+01 -0.21620317617E+02  0.44110885382E+02  0.49444801976E+02  0.00000000000E+00 0.  1.
         -3    1    6    6    0  503  0.72076953613E+01 -0.62366862008E+02  0.15592020315E+03  0.16808535362E+03  0.00000000000E+00 0.  1.
<mgrwt>
<rscale>  0 0.40392592E+04</rscale>
<asrwt>0</asrwt>
<pdfrwt beam="1">  1        1 0.64742670E+00 0.40392592E+04</pdfrwt>
<pdfrwt beam="2">  1       -1 0.14911665E+00 0.40392592E+04</pdfrwt>
<totfact> 0.17110100E-02</totfact>
</mgrwt>
</event>
<event>
12    1  0.4967442E-008  0.1639759E+04  0.7818608E-02  0.8796488E-01
         -2   -1    0    0    0  501 -0.00000000000E+00  0.00000000000E+00  0.44767750648E+03  0.44767750648E+03  0.00000000000E+00 0. -1.
          2   -1    0    0  501    0  0.00000000000E+00 -0.00000000000E+00 -0.15015327471E+04  0.15015327471E+04  0.00000000000E+00 0.  1.
         23    2    1    2    0    0 -0.32161283031E+02  0.56594249953E+03 -0.34332384333E+03  0.66880582965E+03  0.90026193295E+02 0.  0.
        254    2    1    2    0    0  0.32161283031E+02 -0.56594249953E+03 -0.71053139728E+03  0.12804044239E+04  0.90180672062E+03 0.  0.
         23    2    4    4    0    0  0.26227701152E+03 -0.48285047161E+03 -0.82499411276E+03  0.99536498538E+03  0.90566877663E+02 0.  0.
         23    2    4    4    0    0 -0.23011572849E+03 -0.83092027923E+02  0.11446271548E+03  0.28503943853E+03  0.91039742313E+02 0.  0.
         11    1    3    3    0    0  0.27305524089E+02  0.26718329503E+03 -0.17812047152E+03  0.32227225628E+03  0.00000000000E+00 0.  1.
        -11    1    3    3    0    0 -0.59466807120E+02  0.29875920449E+03 -0.16520337181E+03  0.34653357338E+03  0.00000000000E+00 0. -1.
          1    1    5    5  502    0  0.18035906634E+03 -0.38519897518E+03 -0.58054144296E+03  0.71967771279E+03  0.00000000000E+00 0. -1.
          3    1    6    6  503    0 -0.19825143309E+03 -0.43199703058E+02  0.62787636513E+02  0.21239616843E+03  0.00000000000E+00 0. -1.
         -1    1    5    5    0  502  0.81917945178E+02 -0.97651496429E+02 -0.24445266980E+03  0.27568727259E+03  0.00000000000E+00 0.  1.
         -3    1    6    6    0  503 -0.31864295403E+02 -0.39892324865E+02  0.51675078966E+02  0.72643270100E+02  0.00000000000E+00 0.  1.
<mgrwt>
<rscale>  0 0.16397591E+04</rscale>
<asrwt>0</asrwt>
<pdfrwt beam="1">  1        2 0.23100504E+00 0.16397591E+04</pdfrwt>
<pdfrwt beam="2">  1       -2 0.68873463E-01 0.16397591E+04</pdfrwt>
<totfact> 0.23323739E+01</totfact>
</mgrwt>
</event>
<event>
12    1  0.4967442E-008  0.2156220E+04  0.7818608E-02  0.8536875E-01
          2   -1    0    0  501    0  0.00000000000E+00  0.00000000000E+00  0.95047088892E+03  0.95047088892E+03  0.00000000000E+00 0. -1.
         -2   -1    0    0    0  501 -0.00000000000E+00 -0.00000000000E+00 -0.12228893046E+04  0.12228893046E+04  0.00000000000E+00 0.  1.
         23    2    1    2    0    0  0.79872375999E+03 -0.37514002286E+03 -0.22643729783E+03  0.91551528351E+03  0.90579815470E+02 0.  0.
        254    2    1    2    0    0 -0.79872375999E+03  0.37514002286E+03 -0.45981117870E+02  0.12578449100E+04  0.89519264573E+03 0.  0.
         23    2    4    4    0    0 -0.64119314840E+03  0.19211643141E+03  0.36868717272E+03  0.76985524813E+03  0.93324675035E+02 0.  0.
         23    2    4    4    0    0 -0.15753061159E+03  0.18302359145E+03 -0.41466829059E+03  0.48798966190E+03  0.88716347368E+02 0.  0.
         13    1    3    3    0    0  0.24673313496E+03 -0.10469104514E+03 -0.27458606085E+02  0.26942796787E+03  0.00000000000E+00 0. -1.
        -13    1    3    3    0    0  0.55199062503E+03 -0.27044897771E+03 -0.19897869174E+03  0.64608731564E+03  0.00000000000E+00 0.  1.
          1    1    5    5  502    0 -0.50235518239E+03  0.11156352770E+03  0.26566671878E+03  0.57912516389E+03  0.00000000000E+00 0. -1.
          3    1    6    6  503    0 -0.58602661543E+02  0.13469771271E+03 -0.22592465495E+03  0.26948041759E+03  0.00000000000E+00 0. -1.
         -1    1    5    5    0  502 -0.13883796601E+03  0.80552903715E+02  0.10302045394E+03  0.19073008423E+03  0.00000000000E+00 0.  1.
         -3    1    6    6    0  503 -0.98927950052E+02  0.48325878733E+02 -0.18874363564E+03  0.21850924431E+03  0.00000000000E+00 0.  1.
<mgrwt>
<rscale>  0 0.21562195E+04</rscale>
<asrwt>0</asrwt>
<pdfrwt beam="1">  1        2 0.14622629E+00 0.21562195E+04</pdfrwt>
<pdfrwt beam="2">  1       -2 0.18813681E+00 0.21562195E+04</pdfrwt>
<totfact> 0.39695093E+00</totfact>
</mgrwt>
</event>
<event>
12    1  0.4967442E-008  0.2063812E+04  0.7818608E-02  0.8577354E-01
         -1   -1    0    0    0  501 -0.00000000000E+00  0.00000000000E+00  0.83990559913E+03  0.83990559913E+03  0.00000000000E+00 0.  1.
          1   -1    0    0  501    0  0.00000000000E+00 -0.00000000000E+00 -0.12677969251E+04  0.12677969251E+04  0.00000000000E+00 0. -1.
         23    2    1    2    0    0  0.64265243377E+03  0.61054950460E+02  0.36671579560E+03  0.74804112346E+03  0.91406728586E+02 0.  0.
        254    2    1    2    0    0 -0.64265243377E+03 -0.61054950460E+02 -0.79460712155E+03  0.13596614008E+04  0.89473392104E+03 0.  0.
         23    2    4    4    0    0 -0.75316321061E+03  0.15530741239E+03 -0.36190351409E+03  0.85480450803E+03  0.91331151773E+02 0.  0.
         23    2    4    4    0    0  0.11051077684E+03 -0.21636236285E+03 -0.43270360746E+03  0.50485689272E+03  0.92858851826E+02 0.  0.
         13    1    3    3    0    0  0.20778934557E+03  0.24587780952E+02  0.71261448067E+02  0.22104109365E+03  0.00000000000E+00 0. -1.
        -13    1    3    3    0    0  0.43486308820E+03  0.36467169508E+02  0.29545434754E+03  0.52700002980E+03  0.00000000000E+00 0.  1.
          2    1    5    5  502    0 -0.40987814070E+02 -0.12023583294E+02 -0.16446801306E+02  0.45771877072E+02  0.00000000000E+00 0. -1.
          4    1    6    6  503    0  0.39037329949E+01 -0.85009013416E+02 -0.19824781416E+03  0.21574050920E+03  0.00000000000E+00 0. -1.
         -2    1    5    5    0  502 -0.71217539654E+03  0.16733099568E+03 -0.34545671279E+03  0.80903263096E+03  0.00000000000E+00 0.  1.
         -4    1    6    6    0  503  0.10660704384E+03 -0.13135334943E+03 -0.23445579331E+03  0.28911638352E+03  0.00000000000E+00 0.  1.
<mgrwt>
<rscale>  0 0.20638118E+04</rscale>
<asrwt>0</asrwt>
<pdfrwt beam="1">  1        1 0.19504568E+00 0.20638118E+04</pdfrwt>
<pdfrwt beam="2">  1       -1 0.12921625E+00 0.20638118E+04</pdfrwt>
<totfact> 0.45327240E+00</totfact>
</mgrwt>
</event>
<event>
12    1  0.4967442E-008  0.1922664E+04  0.7818608E-02  0.8643656E-01
          2   -1    0    0  501    0  0.00000000000E+00  0.00000000000E+00  0.10469477616E+04  0.10469477616E+04  0.00000000000E+00 0. -1.
         -2   -1    0    0    0  501 -0.00000000000E+00 -0.00000000000E+00 -0.88271787059E+03  0.88271787059E+03  0.00000000000E+00 0.  1.
         23    2    1    2    0    0  0.35526086308E+03 -0.56801984125E+03 -0.26745887538E+03  0.72665559324E+03  0.87391534358E+02 0.  0.
        254    2    1    2    0    0 -0.35526086308E+03  0.56801984125E+03  0.43168876635E+03  0.12030100389E+04  0.90112215701E+03 0.  0.
         23    2    4    4    0    0  0.25192077652E+03  0.25226934200E+03 -0.36199509143E+02  0.36892766929E+03  0.87711585029E+02 0.  0.
         23    2    4    4    0    0 -0.60718163960E+03  0.31575049925E+03  0.46788827550E+03  0.83408236963E+03  0.91684457425E+02 0.  0.
         13    1    3    3    0    0  0.43119337848E+02 -0.75489264751E+02 -0.46616125386E+01  0.87061110839E+02  0.00000000000E+00 0. -1.
        -13    1    3    3    0    0  0.31214152523E+03 -0.49253057650E+03 -0.26279726284E+03  0.63959448240E+03  0.00000000000E+00 0.  1.
          2    1    5    5  502    0  0.20220667500E+01  0.26032683178E+02 -0.17263803099E+02  0.31302208306E+02  0.00000000000E+00 0. -1.
          3    1    6    6  503    0 -0.46489481782E+03  0.28356461781E+03  0.36469959985E+03  0.65539444783E+03  0.00000000000E+00 0. -1.
         -2    1    5    5    0  502  0.24989870977E+03  0.22623665882E+03 -0.18935706044E+02  0.33762546098E+03  0.00000000000E+00 0.  1.
         -3    1    6    6    0  503 -0.14228682178E+03  0.32185881439E+02  0.10318867564E+03  0.17868792180E+03  0.00000000000E+00 0.  1.
<mgrwt>
<rscale>  0 0.19226643E+04</rscale>
<asrwt>0</asrwt>
<pdfrwt beam="1">  1        2 0.16106889E+00 0.19226643E+04</pdfrwt>
<pdfrwt beam="2">  1       -2 0.13580275E+00 0.19226643E+04</pdfrwt>
<totfact> 0.85412461E+00</totfact>
</mgrwt>
</event>
<event>
12    1  0.4967442E-008  0.1286536E+04  0.7818608E-02  0.9040311E-01
         -1   -1    0    0    0  501 -0.00000000000E+00  0.00000000000E+00  0.94168807591E+03  0.94168807591E+03  0.00000000000E+00 0.  1.
          1   -1    0    0  501    0  0.00000000000E+00 -0.00000000000E+00 -0.43941689960E+03  0.43941689960E+03  0.00000000000E+00 0. -1.
         23    2    1    2    0    0  0.23926608314E+02  0.14471265408E+03  0.44557726537E+03  0.47798777250E+03  0.91754980261E+02 0.  0.
        254    2    1    2    0    0 -0.23926608314E+02 -0.14471265408E+03  0.56693910941E+02  0.90311720302E+03  0.88932122881E+03 0.  0.
         23    2    4    4    0    0 -0.40741553344E+03 -0.25485873456E+03  0.74156293835E+02  0.49468795124E+03  0.90975940325E+02 0.  0.
         23    2    4    4    0    0  0.38348892512E+03  0.11014608048E+03 -0.17462382894E+02  0.40842925178E+03  0.85519612675E+02 0.  0.
         13    1    3    3    0    0  0.15039187442E+02  0.41664382307E+01  0.14743978606E+03  0.14826336999E+03  0.00000000000E+00 0. -1.
        -13    1    3    3    0    0  0.88874208717E+01  0.14054621585E+03  0.29813747931E+03  0.32972440251E+03  0.00000000000E+00 0.  1.
          1    1    6    6  502    0  0.21485736355E+03  0.10310009769E+03  0.36053082644E+01  0.23834075410E+03  0.00000000000E+00 0. -1.
          1    1    5    5  503    0 -0.35286144788E+03 -0.23484854203E+03  0.36483668322E+02  0.42543636086E+03  0.00000000000E+00 0. -1.
         -1    1    5    5    0  503 -0.54554085562E+02 -0.20010192532E+02  0.37672625513E+02  0.69251590376E+02  0.00000000000E+00 0.  1.
         -1    1    6    6    0  502  0.16863156158E+03  0.70459827914E+01 -0.21067691158E+02  0.17008849768E+03  0.00000000000E+00 0.  1.
<mgrwt>
<rscale>  0 0.12865359E+04</rscale>
<asrwt>0</asrwt>
<pdfrwt beam="1">  1        1 0.67602600E-01 0.12865359E+04</pdfrwt>
<pdfrwt beam="2">  1       -1 0.14487509E+00 0.12865359E+04</pdfrwt>
<totfact> 0.19919838E+01</totfact>
</mgrwt>
</event>
<event>
12    1  0.4967442E-008  0.2448270E+04  0.7818608E-02  0.8421650E-01
          2   -1    0    0  501    0  0.00000000000E+00  0.00000000000E+00  0.27469594783E+04  0.27469594783E+04  0.00000000000E+00 0. -1.
         -2   -1    0    0    0  501 -0.00000000000E+00 -0.00000000000E+00 -0.54551456195E+03  0.54551456195E+03  0.00000000000E+00 0.  1.
         23    2    1    2    0    0 -0.93856507131E+03 -0.89455689489E+02  0.15943595553E+04  0.18552945297E+04  0.10596549865E+03 0.  0.
        254    2    1    2    0    0  0.93856507131E+03  0.89455689489E+02  0.60708536112E+03  0.14371795106E+04  0.89890243996E+03 0.  0.
         23    2    4    4    0    0 -0.66123018247E+02  0.39997845416E+02 -0.13898512763E+03  0.18209022031E+03  0.88701191937E+02 0.  0.
         23    2    4    4    0    0  0.10046880896E+04  0.49457844073E+02  0.74607048875E+03  0.12550892903E+04  0.82363321970E+02 0.  0.
         13    1    3    3    0    0 -0.92707932717E+03 -0.91631531818E+02  0.15413282770E+04  0.18009900816E+04  0.00000000000E+00 0. -1.
        -13    1    3    3    0    0 -0.11485744136E+02  0.21758423289E+01  0.53031278209E+02  0.54304448038E+02  0.00000000000E+00 0.  1.
          1    1    5    5  502    0 -0.43618659745E+02  0.65941125449E+02 -0.11735433695E+03  0.14150215512E+03  0.00000000000E+00 0. -1.
          1    1    6    6  503    0  0.83855687692E+03  0.51716585667E+02  0.58558475943E+03  0.10240906950E+04  0.00000000000E+00 0. -1.
         -1    1    5    5    0  502 -0.22504358502E+02 -0.25943280033E+02 -0.21630790682E+02  0.40588065191E+02  0.00000000000E+00 0.  1.
         -1    1    6    6    0  503  0.16613121263E+03 -0.22587415938E+01  0.16048572932E+03  0.23099859532E+03  0.00000000000E+00 0.  1.
<mgrwt>
<rscale>  0 0.24482699E+04</rscale>
<asrwt>0</asrwt>
<pdfrwt beam="1">  1        2 0.42260914E+00 0.24482699E+04</pdfrwt>
<pdfrwt beam="2">  1       -2 0.83925319E-01 0.24482699E+04</pdfrwt>
<totfact> 0.27652412E+00</totfact>
</mgrwt>
</event>
<event>
12    1  0.4967442E-008  0.4015698E+04  0.7818608E-02  0.8001387E-01
          1   -1    0    0  501    0  0.00000000000E+00  0.00000000000E+00  0.18541665692E+04  0.18541665692E+04  0.00000000000E+00 0. -1.
         -1   -1    0    0    0  501 -0.00000000000E+00 -0.00000000000E+00 -0.21742689514E+04  0.21742689514E+04  0.00000000000E+00 0.  1.
         23    2    1    2    0    0  0.13748653603E+04 -0.57447105513E+03 -0.13438001596E+04  0.20086039895E+04  0.91757099781E+02 0.  0.
        254    2    1    2    0    0 -0.13748653603E+04  0.57447105513E+03  0.10236977774E+04  0.20198315312E+04  0.90082768756E+03 0.  0.
         23    2    4    4    0    0 -0.13487061134E+04  0.23439372118E+03  0.70501960201E+03  0.15423014062E+04  0.87706280971E+02 0.  0.
         23    2    4    4    0    0 -0.26159246915E+02  0.34007733396E+03  0.31867817541E+03  0.47753012491E+03  0.10070919246E+03 0.  0.
         13    1    3    3    0    0  0.25668317252E+03 -0.99358636699E+02 -0.20278904788E+03  0.34187978542E+03  0.00000000000E+00 0. -1.
        -13    1    3    3    0    0  0.11181821878E+04 -0.47511241843E+03 -0.11410111117E+04  0.16667242040E+04  0.00000000000E+00 0.  1.
          4    1    5    5  502    0 -0.49959423602E+03  0.74180349450E+02  0.21494114037E+03  0.54890510904E+03  0.00000000000E+00 0. -1.
          1    1    6    6  503    0 -0.17125268653E+02  0.25828113904E+03  0.17664286878E+03  0.31337696900E+03  0.00000000000E+00 0.  1.
         -4    1    5    5    0  502 -0.84911187735E+03  0.16021337173E+03  0.49007846163E+03  0.99339629720E+03  0.00000000000E+00 0.  1.
         -1    1    6    6    0  503 -0.90339782619E+01  0.81796194921E+02  0.14203530663E+03  0.16415315591E+03  0.00000000000E+00 0. -1.
<mgrwt>
<rscale>  0 0.40156976E+04</rscale>
<asrwt>0</asrwt>
<pdfrwt beam="1">  1        1 0.28525639E+00 0.40156976E+04</pdfrwt>
<pdfrwt beam="2">  1       -1 0.33450292E+00 0.40156976E+04</pdfrwt>
<totfact> 0.57522439E-02</totfact>
</mgrwt>
</event>
<event>
12    1  0.4967442E-008  0.2815220E+04  0.7818608E-02  0.8298559E-01
          2   -1    0    0  501    0  0.00000000000E+00  0.00000000000E+00  0.17662109558E+04  0.17662109558E+04  0.00000000000E+00 0. -1.
         -2   -1    0    0    0  501 -0.00000000000E+00 -0.00000000000E+00 -0.11218174880E+04  0.11218174880E+04  0.00000000000E+00 0.  1.
         23    2    1    2    0    0  0.95364591098E+03 -0.35639818228E+03 -0.48229829208E+03  0.11302159620E+04  0.91193696816E+02 0.  0.
        254    2    1    2    0    0 -0.95364591098E+03  0.35639818228E+03  0.11266917598E+04  0.17578124818E+04  0.88544351130E+03 0.  0.
         23    2    4    4    0    0 -0.75648199063E+03 -0.53223060052E+02  0.10326291107E+04  0.12844951271E+04  0.92234240621E+02 0.  0.
         23    2    4    4    0    0 -0.19716392035E+03  0.40962124233E+03  0.94062649148E+02  0.47331735468E+03  0.92294976165E+02 0.  0.
         11    1    3    3    0    0  0.83628515720E+03 -0.29602364084E+03 -0.44809036514E+03  0.99387516088E+03  0.00000000000E+00 0.  1.
        -11    1    3    3    0    0  0.11736075378E+03 -0.60374541439E+02 -0.34207926943E+02  0.13634080111E+03  0.00000000000E+00 0. -1.
          1    1    5    5  502    0 -0.45214674251E+02  0.17003277613E+02  0.81754000698E+02  0.94958911364E+02  0.00000000000E+00 0. -1.
          3    1    6    6  503    0 -0.68312942407E+02  0.15453503777E+03 -0.98048143191E+01  0.16924500106E+03  0.00000000000E+00 0. -1.
         -1    1    5    5    0  502 -0.71126731638E+03 -0.70226337664E+02  0.95087510997E+03  0.11895362158E+04  0.00000000000E+00 0.  1.
         -3    1    6    6    0  503 -0.12885097794E+03  0.25508620456E+03  0.10386746347E+03  0.30407235363E+03  0.00000000000E+00 0.  1.
<mgrwt>
<rscale>  0 0.28152203E+04</rscale>
<asrwt>0</asrwt>
<pdfrwt beam="1">  1        2 0.27172476E+00 0.28152203E+04</pdfrwt>
<pdfrwt beam="2">  1       -2 0.17258731E+00 0.28152203E+04</pdfrwt>
<totfact> 0.16001011E+00</totfact>
</mgrwt>
</event>
<event>
12    1  0.4967442E-008  0.1983337E+04  0.7818608E-02  0.8614451E-01
          3   -1    0    0  501    0  0.00000000000E+00  0.00000000000E+00  0.12251075330E+04  0.12251075330E+04  0.00000000000E+00 0. -1.
         -3   -1    0    0    0  501 -0.00000000000E+00 -0.00000000000E+00 -0.80271030929E+03  0.80271030929E+03  0.00000000000E+00 0.  1.
         23    2    1    2    0    0 -0.59003044897E+03 -0.48183275024E+03 -0.22648080561E+02  0.76756841059E+03  0.91376142730E+02 0.  0.
        254    2    1    2    0    0  0.59003044897E+03  0.48183275024E+03  0.44504530430E+03  0.12602494317E+04  0.89992476207E+03 0.  0.
         23    2    4    4    0    0  0.43374827079E+02 -0.23222065232E+03  0.20233711249E+03  0.32428444127E+03  0.91718508344E+02 0.  0.
         23    2    4    4    0    0  0.54665562189E+03  0.71405340256E+03  0.24270819182E+03  0.93596499047E+03  0.91752745709E+02 0.  0.
         11    1    3    3    0    0 -0.50856055545E+03 -0.39796265853E+03 -0.49310773025E+02  0.64764162041E+03  0.00000000000E+00 0. -1.
        -11    1    3    3    0    0 -0.81469893521E+02 -0.83870091716E+02  0.26662692464E+02  0.11992679018E+03  0.00000000000E+00 0.  1.
          1    1    5    5  502    0  0.43459339561E+02 -0.21068936200E+03  0.21076208455E+03  0.30116337384E+03  0.00000000000E+00 0. -1.
          3    1    6    6  503    0  0.40280127383E+03  0.52335267362E+03  0.21963672773E+03  0.69597929520E+03  0.00000000000E+00 0. -1.
         -1    1    5    5    0  502 -0.84512482237E-01 -0.21531290313E+02 -0.84249720637E+01  0.23121067432E+02  0.00000000000E+00 0.  1.
         -3    1    6    6    0  503  0.14385434806E+03  0.19070072895E+03  0.23071464090E+02  0.23998569527E+03  0.00000000000E+00 0.  1.
<mgrwt>
<rscale>  0 0.19833370E+04</rscale>
<asrwt>0</asrwt>
<pdfrwt beam="1">  1        3 0.18847808E+00 0.19833370E+04</pdfrwt>
<pdfrwt beam="2">  1       -3 0.12349389E+00 0.19833370E+04</pdfrwt>
<totfact> 0.22366862E-01</totfact>
</mgrwt>
</event>
<event>
12    1  0.4967442E-008  0.2012343E+04  0.7818608E-02  0.8600872E-01
         -1   -1    0    0    0  501 -0.00000000000E+00  0.00000000000E+00  0.82570195367E+03  0.82570195367E+03  0.00000000000E+00 0.  1.
          1   -1    0    0  501    0  0.00000000000E+00 -0.00000000000E+00 -0.12260852802E+04  0.12260852802E+04  0.00000000000E+00 0. -1.
         23    2    1    2    0    0 -0.34550998959E+03  0.63266872574E+03  0.18341154247E+03  0.74957818400E+03  0.92632556773E+02 0.  0.
        254    2    1    2    0    0  0.34550998959E+03 -0.63266872574E+03 -0.58379486897E+03  0.13022090498E+04  0.91393932565E+03 0.  0.
         23    2    4    4    0    0  0.38990036365E+03 -0.78786757251E+03 -0.65893680554E+03  0.11023666893E+04  0.90868028022E+02 0.  0.
         23    2    4    4    0    0 -0.44390374060E+02  0.15519884677E+03  0.75141936567E+02  0.19984236056E+03  0.90738476389E+02 0.  0.
         11    1    3    3    0    0 -0.26287640829E+03  0.52514333344E+03  0.17883782981E+03  0.61389127381E+03  0.00000000000E+00 0.  1.
        -11    1    3    3    0    0 -0.82633581303E+02  0.10752539230E+03  0.45737126658E+01  0.13568691019E+03  0.00000000000E+00 0. -1.
          4    1    5    5  502    0  0.15525750831E+03 -0.37074568006E+03 -0.25417396273E+03  0.47556456606E+03  0.00000000000E+00 0.  1.
          1    1    6    6  503    0 -0.32799343428E+02  0.13272098218E+03  0.96006127162E+02  0.16705637519E+03  0.00000000000E+00 0. -1.
         -4    1    5    5    0  502  0.23464285535E+03 -0.41712189245E+03 -0.40476284281E+03  0.62680212320E+03  0.00000000000E+00 0. -1.
         -1    1    6    6    0  503 -0.11591030631E+02  0.22477864588E+02 -0.20864190595E+02  0.32785985371E+02  0.00000000000E+00 0.  1.
<mgrwt>
<rscale>  0 0.20123429E+04</rscale>
<asrwt>0</asrwt>
<pdfrwt beam="1">  1        1 0.18862850E+00 0.20123429E+04</pdfrwt>
<pdfrwt beam="2">  1       -1 0.12703107E+00 0.20123429E+04</pdfrwt>
<totfact> 0.50947553E+00</totfact>
</mgrwt>
</event>
<event>
12    1  0.4967442E-008  0.2254666E+04  0.7818608E-02  0.8496013E-01
         -1   -1    0    0    0  501 -0.00000000000E+00  0.00000000000E+00  0.10962899733E+04  0.10962899733E+04  0.00000000000E+00 0.  1.
          1   -1    0    0  501    0  0.00000000000E+00 -0.00000000000E+00 -0.11592552545E+04  0.11592552545E+04  0.00000000000E+00 0. -1.
         23    2    1    2    0    0  0.64984719609E+03  0.63182782327E+03  0.24568250161E+03  0.94352722836E+03  0.91520284817E+02 0.  0.
        254    2    1    2    0    0 -0.64984719609E+03 -0.63182782327E+03 -0.30864778285E+03  0.13120179994E+04  0.89700613175E+03 0.  0.
         23    2    4    4    0    0 -0.13874470417E+03 -0.48194394636E+03 -0.52353813121E+03  0.73064158706E+03  0.90691198863E+02 0.  0.
         23    2    4    4    0    0 -0.51110249193E+03 -0.14988387691E+03  0.21489034836E+03  0.58137641234E+03  0.90165055308E+02 0.  0.
         13    1    3    3    0    0  0.56777992675E+03  0.58357444374E+03  0.23663104653E+03  0.84789588322E+03  0.00000000000E+00 0.  1.
        -13    1    3    3    0    0  0.82067269346E+02  0.48253379531E+02  0.90514550784E+01  0.95631345139E+02  0.00000000000E+00 0. -1.
          4    1    5    5  502    0 -0.28184008844E+02 -0.60542006899E+02 -0.32739267440E+02  0.74374273686E+02  0.00000000000E+00 0. -1.
          3    1    6    6  503    0 -0.26317297914E+03 -0.31429142286E+02  0.11651898701E+03  0.28952457973E+03  0.00000000000E+00 0. -1.
         -4    1    5    5    0  502 -0.11056069532E+03 -0.42140193946E+03 -0.49079886377E+03  0.65626731338E+03  0.00000000000E+00 0.  1.
         -3    1    6    6    0  503 -0.24792951279E+03 -0.11845473462E+03  0.98371361354E+02  0.29185183261E+03  0.00000000000E+00 0.  1.
<mgrwt>
<rscale>  0 0.22546662E+04</rscale>
<asrwt>0</asrwt>
<pdfrwt beam="1">  1        1 0.17834696E+00 0.22546662E+04</pdfrwt>
<pdfrwt beam="2">  1       -1 0.16866000E+00 0.22546662E+04</pdfrwt>
<totfact> 0.26155789E+00</totfact>
</mgrwt>
</event>
<event>
12    1  0.4967442E-008  0.3135583E+04  0.7818608E-02  0.8206040E-01
         -2   -1    0    0    0  501 -0.00000000000E+00  0.00000000000E+00  0.17424793085E+04  0.17424793085E+04  0.00000000000E+00 0.  1.
          2   -1    0    0  501    0  0.00000000000E+00 -0.00000000000E+00 -0.14106167447E+04  0.14106167447E+04  0.00000000000E+00 0. -1.
         23    2    1    2    0    0 -0.89523605729E+03  0.98419989354E+03 -0.39450370404E+03  0.13897288521E+04  0.74940518213E+02 0.  0.
        254    2    1    2    0    0  0.89523605729E+03 -0.98419989354E+03  0.72636626784E+03  0.17633672010E+04  0.90097663780E+03 0.  0.
         23    2    4    4    0    0  0.31488219345E+03 -0.86246422907E+03  0.70917830275E+03  0.11636102437E+04  0.89775229620E+02 0.  0.
         23    2    4    4    0    0  0.58035386384E+03 -0.12173566447E+03  0.17187965095E+02  0.59975695737E+03  0.88220193210E+02 0.  0.
         13    1    3    3    0    0 -0.76601757293E+03  0.87889589314E+03 -0.34586681023E+03  0.12160858372E+04  0.00000000000E+00 0. -1.
        -13    1    3    3    0    0 -0.12921848436E+03  0.10530400040E+03 -0.48636893811E+02  0.17364301495E+03  0.00000000000E+00 0.  1.
          4    1    5    5  502    0  0.30005598008E+03 -0.82969061960E+03  0.70064029183E+03  0.11266396647E+04  0.00000000000E+00 0. -1.
          3    1    6    6  503    0  0.48239007468E+03 -0.13090941705E+03  0.28887148066E+02  0.50067147606E+03  0.00000000000E+00 0. -1.
         -4    1    5    5    0  502  0.14826213364E+02 -0.32773609476E+02  0.85380109153E+01  0.36970578995E+02  0.00000000000E+00 0.  1.
         -3    1    6    6    0  503  0.97963789166E+02  0.91737525791E+01 -0.11699182970E+02  0.99085481310E+02  0.00000000000E+00 0.  1.
<mgrwt>
<rscale>  0 0.31355832E+04</rscale>
<asrwt>0</asrwt>
<pdfrwt beam="1">  1        2 0.21701796E+00 0.31355832E+04</pdfrwt>
<pdfrwt beam="2">  1       -2 0.26807374E+00 0.31355832E+04</pdfrwt>
<totfact> 0.60153814E-01</totfact>
</mgrwt>
</event>
<event>
12    1  0.4967442E-008  0.1250609E+04  0.7818608E-02  0.9069676E-01
          2   -1    0    0  501    0  0.00000000000E+00  0.00000000000E+00  0.10566018537E+04  0.10566018537E+04  0.00000000000E+00 0. -1.
         -2   -1    0    0    0  501 -0.00000000000E+00 -0.00000000000E+00 -0.37005971841E+03  0.37005971841E+03  0.00000000000E+00 0.  1.
         23    2    1    2    0    0  0.25474485549E+03 -0.60300340123E+02  0.30507442221E+03  0.41255801366E+03  0.92750413090E+02 0.  0.
        254    2    1    2    0    0 -0.25474485549E+03  0.60300340123E+02  0.38146771312E+03  0.10141035585E+04  0.90241749694E+03 0.  0.
         23    2    4    4    0    0 -0.51283353778E+03  0.26944130188E+02 -0.26661357782E+02  0.52137601864E+03  0.86011052757E+02 0.  0.
         23    2    4    4    0    0  0.25808868229E+03  0.33356209935E+02  0.40812907090E+03  0.49272753986E+03  0.92134061828E+02 0.  0.
         11    1    3    3    0    0 -0.33314529999E+01 -0.72147673621E+01 -0.17417596999E+01  0.81354270958E+01  0.00000000000E+00 0.  1.
        -11    1    3    3    0    0  0.25807630849E+03 -0.53085572761E+02  0.30681618191E+03  0.40442258656E+03  0.00000000000E+00 0. -1.
          3    1    6    6  502    0  0.23544192521E+02  0.36001539923E+01  0.34773507176E+01  0.24070356837E+02  0.00000000000E+00 0. -1.
          3    1    5    5  503    0 -0.83976750637E+02  0.34117790699E+02 -0.17763312385E+02  0.92366950564E+02  0.00000000000E+00 0. -1.
         -3    1    5    5    0  503 -0.42885678714E+03 -0.71736605110E+01 -0.88980453972E+01  0.42900906808E+03  0.00000000000E+00 0.  1.
         -3    1    6    6    0  502  0.23454448977E+03  0.29756055942E+02  0.40465172019E+03  0.46865718302E+03  0.00000000000E+00 0.  1.
<mgrwt>
<rscale>  0 0.12506091E+04</rscale>
<asrwt>0</asrwt>
<pdfrwt beam="1">  1        2 0.16255413E+00 0.12506091E+04</pdfrwt>
<pdfrwt beam="2">  1       -2 0.56932265E-01 0.12506091E+04</pdfrwt>
<totfact> 0.65958821E+01</totfact>
</mgrwt>
</event>
<event>
12    1  0.4967442E-008  0.1317440E+04  0.7818608E-02  0.9015848E-01
          1   -1    0    0  501    0  0.00000000000E+00  0.00000000000E+00  0.13653485989E+04  0.13653485989E+04  0.00000000000E+00 0. -1.
         -1   -1    0    0    0  501 -0.00000000000E+00 -0.00000000000E+00 -0.31780328470E+03  0.31780328470E+03  0.00000000000E+00 0.  1.
         23    2    1    2    0    0  0.29121011223E+02  0.34851967296E+03  0.53816252894E+03  0.64823022000E+03  0.90936872846E+02 0.  0.
        254    2    1    2    0    0 -0.29121011223E+02 -0.34851967296E+03  0.50938278523E+03  0.10349216636E+04  0.83022769895E+03 0.  0.
         23    2    4    4    0    0  0.27369347344E+03 -0.28205812218E+03 -0.29751714250E+02  0.40457070093E+03  0.91254511408E+02 0.  0.
         23    2    4    4    0    0 -0.30281448467E+03 -0.66461550774E+02  0.53913449948E+03  0.63035096264E+03  0.10277440205E+03 0.  0.
         13    1    3    3    0    0  0.22088378557E+02  0.15999940934E+03  0.32932708616E+03  0.36680244974E+03  0.00000000000E+00 0.  1.
        -13    1    3    3    0    0  0.70326326659E+01  0.18852026362E+03  0.20883544278E+03  0.28142777027E+03  0.00000000000E+00 0. -1.
          1    1    5    5  502    0  0.23163572806E+03 -0.18590825186E+03 -0.37336775896E+02  0.29935100376E+03  0.00000000000E+00 0. -1.
          3    1    6    6  503    0 -0.27473410527E+03 -0.79743604512E+02  0.42683608614E+03  0.51383549458E+03  0.00000000000E+00 0. -1.
         -1    1    5    5    0  502  0.42057745389E+02 -0.96149870325E+02  0.75850616457E+01  0.10521969716E+03  0.00000000000E+00 0.  1.
         -3    1    6    6    0  503 -0.28080379399E+02  0.13282053738E+02  0.11229841335E+03  0.11651546807E+03  0.00000000000E+00 0.  1.
<mgrwt>
<rscale>  0 0.13174404E+04</rscale>
<asrwt>0</asrwt>
<pdfrwt beam="1">  1        1 0.21005363E+00 0.13174404E+04</pdfrwt>
<pdfrwt beam="2">  1       -1 0.48892814E-01 0.13174404E+04</pdfrwt>
<totfact> 0.33397999E+01</totfact>
</mgrwt>
</event>
<event>
12    1  0.4967442E-008  0.1619600E+04  0.7818608E-02  0.8808597E-01
          1   -1    0    0  501    0  0.00000000000E+00  0.00000000000E+00  0.17844452197E+04  0.17844452197E+04  0.00000000000E+00 0. -1.
         -1   -1    0    0    0  501 -0.00000000000E+00 -0.00000000000E+00 -0.36749558732E+03  0.36749558732E+03  0.00000000000E+00 0.  1.
         23    2    1    2    0    0 -0.50794890953E+03  0.63725176831E+02  0.20393723211E+03  0.55846799464E+03  0.90681384780E+02 0.  0.
        254    2    1    2    0    0  0.50794890953E+03 -0.63725176831E+02  0.12130124002E+04  0.15934728123E+04  0.89759875652E+03 0.  0.
         23    2    4    4    0    0 -0.13453462409E+03  0.25152763282E+03  0.24292651582E+03  0.38437760110E+03  0.85832004468E+02 0.  0.
         23    2    4    4    0    0  0.64248353361E+03 -0.31525280965E+03  0.97008588442E+03  0.12090952112E+04  0.93140655727E+02 0.  0.
         11    1    3    3    0    0 -0.47199940626E+03  0.42035087655E+02  0.20537257825E+03  0.51645743678E+03  0.00000000000E+00 0.  1.
        -11    1    3    3    0    0 -0.35949503267E+02  0.21690089175E+02 -0.14353461404E+01  0.42010557865E+02  0.00000000000E+00 0. -1.
          2    1    6    6  502    0  0.34809997596E+03 -0.15801932824E+03  0.44198113530E+03  0.58437233449E+03  0.00000000000E+00 0.  1.
          2    1    5    5  503    0 -0.13548629574E+03  0.21740440956E+03  0.18097936656E+03  0.31364748484E+03  0.00000000000E+00 0. -1.
         -2    1    5    5    0  503  0.95167164992E+00  0.34123223258E+02  0.61947149257E+02  0.70730116256E+02  0.00000000000E+00 0.  1.
         -2    1    6    6    0  502  0.29438355765E+03 -0.15723348141E+03  0.52810474913E+03  0.62472287675E+03  0.00000000000E+00 0. -1.
<mgrwt>
<rscale>  0 0.16195996E+04</rscale>
<asrwt>0</asrwt>
<pdfrwt beam="1">  1        1 0.27453003E+00 0.16195996E+04</pdfrwt>
<pdfrwt beam="2">  1       -1 0.56537784E-01 0.16195996E+04</pdfrwt>
<totfact> 0.12663188E+01</totfact>
</mgrwt>
</event>
<event>
12    1  0.4967442E-008  0.2948707E+04  0.7818608E-02  0.8258531E-01
          2   -1    0    0  501    0  0.00000000000E+00  0.00000000000E+00  0.24815251020E+04  0.24815251020E+04  0.00000000000E+00 0.  1.
         -2   -1    0    0    0  501 -0.00000000000E+00 -0.00000000000E+00 -0.87596065545E+03  0.87596065545E+03  0.00000000000E+00 0. -1.
         23    2    1    2    0    0  0.94544886718E+03  0.92837004170E+03  0.54571710888E+03  0.14360121835E+04  0.92624690912E+02 0.  0.
        254    2    1    2    0    0 -0.94544886718E+03 -0.92837004170E+03  0.10598473377E+04  0.19214735740E+04  0.90168720830E+03 0.  0.
         23    2    4    4    0    0 -0.40482212672E+03  0.47506806408E+02  0.55215167558E+03  0.69231377033E+03  0.91044125643E+02 0.  0.
         23    2    4    4    0    0 -0.54062674047E+03 -0.97587684811E+03  0.50769566214E+03  0.12291598037E+04  0.92011099732E+02 0.  0.
         11    1    3    3    0    0  0.91638301783E+03  0.88818188205E+03  0.54126508491E+03  0.13862152730E+04  0.00000000000E+00 0.  1.
        -11    1    3    3    0    0  0.29065849357E+02  0.40188159644E+02  0.44520239722E+01  0.49796910465E+02  0.00000000000E+00 0. -1.
          4    1    6    6  502    0 -0.13642770842E+03 -0.20868894014E+03  0.15117243774E+03  0.29157623239E+03  0.00000000000E+00 0. -1.
          4    1    5    5  503    0 -0.10332173160E+02  0.19581642159E+02  0.27540135487E+02  0.35336292597E+02  0.00000000000E+00 0. -1.
         -4    1    5    5    0  503 -0.39448995356E+03  0.27925164250E+02  0.52461154009E+03  0.65697747773E+03  0.00000000000E+00 0.  1.
         -4    1    6    6    0  502 -0.40419903205E+03 -0.76718790797E+03  0.35652322440E+03  0.93758357130E+03  0.00000000000E+00 0.  1.
<mgrwt>
<rscale>  0 0.29487071E+04</rscale>
<asrwt>0</asrwt>
<pdfrwt beam="1">  1        2 0.38177309E+00 0.29487071E+04</pdfrwt>
<pdfrwt beam="2">  1       -2 0.13476318E+00 0.29487071E+04</pdfrwt>
<totfact> 0.12152282E+00</totfact>
</mgrwt>
</event>
<event>
12    1  0.4967442E-008  0.1974573E+04  0.7818608E-02  0.8618602E-01
          2   -1    0    0  501    0  0.00000000000E+00  0.00000000000E+00  0.22594473269E+04  0.22594473269E+04  0.00000000000E+00 0. -1.
         -2   -1    0    0    0  501 -0.00000000000E+00 -0.00000000000E+00 -0.43140386456E+03  0.43140386456E+03  0.00000000000E+00 0.  1.
         23    2    1    2    0    0 -0.28912126361E+03  0.68002742581E+03  0.10685998477E+04  0.13025921183E+04  0.93873251758E+02 0.  0.
        254    2    1    2    0    0  0.28912126361E+03 -0.68002742581E+03  0.75944361465E+03  0.13882590731E+04  0.89692822752E+03 0.  0.
         23    2    4    4    0    0  0.20729220979E+03 -0.34581622618E+03  0.91159098690E+03  0.10009380136E+04  0.91213250677E+02 0.  0.
         23    2    4    4    0    0  0.81829053822E+02 -0.33421119962E+03 -0.15214737225E+03  0.38732105954E+03  0.92063349251E+02 0.  0.
         13    1    3    3    0    0 -0.16088515712E+03  0.26657243599E+03  0.47365427291E+03  0.56682737025E+03  0.00000000000E+00 0.  1.
        -13    1    3    3    0    0 -0.12823610649E+03  0.41345498981E+03  0.59494557477E+03  0.73576474810E+03  0.00000000000E+00 0. -1.
          2    1    5    5  502    0  0.17526325204E+03 -0.30106572902E+03  0.84843635447E+03  0.91717066476E+03  0.00000000000E+00 0.  1.
          3    1    6    6  503    0  0.13670161065E+01 -0.28259342337E+02 -0.45300141025E+02  0.53409380630E+02  0.00000000000E+00 0. -1.
         -2    1    5    5    0  502  0.32028957752E+02 -0.44750497166E+02  0.63154632427E+02  0.83767348820E+02  0.00000000000E+00 0. -1.
         -3    1    6    6    0  503  0.80462037715E+02 -0.30595185729E+03 -0.10684723122E+03  0.33391167891E+03  0.00000000000E+00 0.  1.
<mgrwt>
<rscale>  0 0.19745727E+04</rscale>
<asrwt>0</asrwt>
<pdfrwt beam="1">  1        2 0.34760727E+00 0.19745727E+04</pdfrwt>
<pdfrwt beam="2">  1       -2 0.66369827E-01 0.19745727E+04</pdfrwt>
<totfact> 0.92888472E+00</totfact>
</mgrwt>
</event>
<event>
12    1  0.4967442E-008  0.1848313E+04  0.7818608E-02  0.8681021E-01
          2   -1    0    0  501    0  0.00000000000E+00  0.00000000000E+00  0.12820498919E+04  0.12820498919E+04  0.00000000000E+00 0. -1.
         -2   -1    0    0    0  501 -0.00000000000E+00 -0.00000000000E+00 -0.66617178221E+03  0.66617178221E+03  0.00000000000E+00 0.  1.
         23    2    1    2    0    0  0.88205270995E+02  0.64110031118E+03  0.51967675970E+03  0.83524096452E+03  0.93668326612E+02 0.  0.
        254    2    1    2    0    0 -0.88205270995E+02 -0.64110031118E+03  0.96201350014E+02  0.11129807096E+04  0.90037857670E+03 0.  0.
         23    2    4    4    0    0  0.30049491623E+03  0.25470670366E+02 -0.60416087753E+02  0.32043124794E+03  0.89889550386E+02 0.  0.
         23    2    4    4    0    0 -0.38870018723E+03 -0.66657098155E+03  0.15661743777E+03  0.79254946167E+03  0.90558922189E+02 0.  0.
         11    1    3    3    0    0  0.61483599180E+02  0.34898050245E+03  0.22678368417E+03  0.42071185325E+03  0.00000000000E+00 0.  1.
        -11    1    3    3    0    0  0.26721671815E+02  0.29211980873E+03  0.29289307552E+03  0.41452911126E+03  0.00000000000E+00 0. -1.
          2    1    5    5  502    0  0.25828788724E+03  0.24549351823E+02 -0.17207217791E+02  0.26002190621E+03  0.00000000000E+00 0. -1.
          4    1    6    6  503    0 -0.23271724564E+03 -0.37571536436E+03  0.13361977864E+03  0.46170726297E+03  0.00000000000E+00 0.  1.
         -2    1    5    5    0  502  0.42207028995E+02  0.92131854329E+00 -0.43208869962E+02  0.60409341726E+02  0.00000000000E+00 0.  1.
         -4    1    6    6    0  503 -0.15598294158E+03 -0.29085561719E+03  0.22997659128E+02  0.33084219870E+03  0.00000000000E+00 0. -1.
<mgrwt>
<rscale>  0 0.18483132E+04</rscale>
<asrwt>0</asrwt>
<pdfrwt beam="1">  1        2 0.19723844E+00 0.18483132E+04</pdfrwt>
<pdfrwt beam="2">  1       -2 0.10248797E+00 0.18483132E+04</pdfrwt>
<totfact> 0.12409519E+01</totfact>
</mgrwt>
</event>
<event>
12    1  0.4967442E-008  0.1160005E+04  0.7818608E-02  0.9148603E-01
         -2   -1    0    0    0  501 -0.00000000000E+00  0.00000000000E+00  0.39190484217E+03  0.39190484217E+03  0.00000000000E+00 0.  1.
          2   -1    0    0  501    0  0.00000000000E+00 -0.00000000000E+00 -0.85837929342E+03  0.85837929342E+03  0.00000000000E+00 0. -1.
         23    2    1    2    0    0  0.55075393834E+02  0.53307201369E+02  0.11082214480E+03  0.16400747052E+03  0.93498373704E+02 0.  0.
        254    2    1    2    0    0 -0.55075393834E+02 -0.53307201369E+02 -0.57729659605E+03  0.10862766651E+04  0.91697910366E+03 0.  0.
         23    2    4    4    0    0  0.10905085582E+03 -0.42761465290E+03 -0.12041906021E+03  0.46654367640E+03  0.91738058616E+02 0.  0.
         23    2    4    4    0    0 -0.16412624965E+03  0.37430745153E+03 -0.45687753584E+03  0.61973298867E+03  0.91040652425E+02 0.  0.
         13    1    3    3    0    0  0.18837878483E+02  0.50856263019E+02  0.78258037458E+01  0.54794784042E+02  0.00000000000E+00 0. -1.
        -13    1    3    3    0    0  0.36237515351E+02  0.24509383498E+01  0.10299634105E+03  0.10921268648E+03  0.00000000000E+00 0.  1.
          4    1    5    5  502    0 -0.12621274555E+02 -0.14487141734E+02 -0.11193802308E+02  0.22236795118E+02  0.00000000000E+00 0. -1.
          1    1    6    6  503    0 -0.75365205715E+00  0.95194065752E+02 -0.11014114400E+03  0.14558004585E+03  0.00000000000E+00 0. -1.
         -4    1    5    5    0  502  0.12167213037E+03 -0.41312751117E+03 -0.10922525790E+03  0.44430688128E+03  0.00000000000E+00 0.  1.
         -1    1    6    6    0  503 -0.16337259759E+03  0.27911338578E+03 -0.34673639184E+03  0.47415294283E+03  0.00000000000E+00 0.  1.
<mgrwt>
<rscale>  0 0.11600052E+04</rscale>
<asrwt>0</asrwt>
<pdfrwt beam="1">  1        2 0.13205835E+00 0.11600052E+04</pdfrwt>
<pdfrwt beam="2">  1       -2 0.60293053E-01 0.11600052E+04</pdfrwt>
<totfact> 0.79429468E+01</totfact>
</mgrwt>
</event>
<event>
12    1  0.4967442E-008  0.1605112E+04  0.7818608E-02  0.8817413E-01
          1   -1    0    0  501    0  0.00000000000E+00  0.00000000000E+00  0.18824878643E+04  0.18824878643E+04  0.00000000000E+00 0. -1.
         -1   -1    0    0    0  501 -0.00000000000E+00 -0.00000000000E+00 -0.34215170855E+03  0.34215170855E+03  0.00000000000E+00 0.  1.
         23    2    1    2    0    0  0.29532086079E+02  0.23027155318E+03 -0.15703474206E+03  0.29498407327E+03  0.91970435225E+02 0.  0.
        254    2    1    2    0    0 -0.29532086079E+02 -0.23027155318E+03  0.16973708979E+04  0.19296554996E+04  0.88803448697E+03 0.  0.
         23    2    4    4    0    0  0.60910177709E+02 -0.11128641664E+03 -0.57827678193E+02  0.16552746952E+03  0.89222119023E+02 0.  0.
         23    2    4    4    0    0 -0.90442263787E+02 -0.11898513654E+03  0.17551985760E+04  0.17641280301E+04  0.95333097418E+02 0.  0.
         11    1    3    3    0    0  0.37058854280E+02  0.59292834883E+02 -0.82962893994E+02  0.10849811394E+03  0.00000000000E+00 0. -1.
        -11    1    3    3    0    0 -0.75267682010E+01  0.17097871830E+03 -0.74071848071E+02  0.18648595933E+03  0.00000000000E+00 0.  1.
          1    1    5    5  502    0  0.71629460108E+02 -0.10885006738E+03 -0.70983228771E+02  0.14838374402E+03  0.00000000000E+00 0. -1.
          3    1    6    6  503    0 -0.65911325393E+02 -0.95700971525E+02  0.16388160937E+04  0.16429306643E+04  0.00000000000E+00 0. -1.
         -1    1    5    5    0  502 -0.10719282399E+02 -0.24363492623E+01  0.13155550578E+02  0.17143725496E+02  0.00000000000E+00 0.  1.
         -3    1    6    6    0  503 -0.24530938394E+02 -0.23284165012E+02  0.11638248233E+03  0.12119736578E+03  0.00000000000E+00 0.  1.
<mgrwt>
<rscale>  0 0.16051124E+04</rscale>
<asrwt>0</asrwt>
<pdfrwt beam="1">  1        1 0.28961351E+00 0.16051124E+04</pdfrwt>
<pdfrwt beam="2">  1       -1 0.52638725E-01 0.16051124E+04</pdfrwt>
<totfact> 0.12494260E+01</totfact>
</mgrwt>
</event>
<event>
12    1  0.4967442E-008  0.1195940E+04  0.7818608E-02  0.9116418E-01
         -2   -1    0    0    0  501 -0.00000000000E+00  0.00000000000E+00  0.15117227050E+03  0.15117227050E+03  0.00000000000E+00 0.  1.
          2   -1    0    0  501    0  0.00000000000E+00 -0.00000000000E+00 -0.23653008747E+04  0.23653008747E+04  0.00000000000E+00 0. -1.
         23    2    1    2    0    0  0.17119944110E+02 -0.23754157543E+03 -0.64948638287E+03  0.69771410800E+03  0.90847798123E+02 0.  0.
        254    2    1    2    0    0 -0.17119944110E+02  0.23754157543E+03 -0.15646422213E+04  0.18187590372E+04  0.89613618501E+03 0.  0.
         23    2    4    4    0    0  0.25567909992E+03  0.37941050836E+03 -0.41230227439E+03  0.62272312926E+03  0.92015184905E+02 0.  0.
         23    2    4    4    0    0 -0.27279904403E+03 -0.14186893293E+03 -0.11523399469E+04  0.11960359079E+04  0.89824424437E+02 0.  0.
         13    1    3    3    0    0  0.49109298441E+02 -0.13897721856E+03 -0.31998429949E+03  0.35230149360E+03  0.00000000000E+00 0.  1.
        -13    1    3    3    0    0 -0.31989354331E+02 -0.98564356874E+02 -0.32950208337E+03  0.34541261439E+03  0.00000000000E+00 0. -1.
          1    1    5    5  502    0  0.90096238099E+02  0.10670557610E+03 -0.75313237164E+02  0.15866787886E+03  0.00000000000E+00 0. -1.
          1    1    6    6  503    0 -0.12203316175E+03 -0.34005059275E+02 -0.60608388660E+03  0.61918181031E+03  0.00000000000E+00 0. -1.
         -1    1    5    5    0  502  0.16558286182E+03  0.27270493226E+03 -0.33698903723E+03  0.46405525040E+03  0.00000000000E+00 0.  1.
         -1    1    6    6    0  503 -0.15076588228E+03 -0.10786387366E+03 -0.54625606035E+03  0.57685409764E+03  0.00000000000E+00 0.  1.
<mgrwt>
<rscale>  0 0.11959396E+04</rscale>
<asrwt>0</asrwt>
<pdfrwt beam="1">  1        2 0.36389247E+00 0.11959396E+04</pdfrwt>
<pdfrwt beam="2">  1       -2 0.23257271E-01 0.11959396E+04</pdfrwt>
<totfact> 0.67463691E+01</totfact>
</mgrwt>
</event>
<event>
12    1  0.4967442E-008  0.1420224E+04  0.7818608E-02  0.8939308E-01
         -1   -1    0    0    0  501 -0.00000000000E+00  0.00000000000E+00  0.32054271710E+03  0.32054271710E+03  0.00000000000E+00 0.  1.
          1   -1    0    0  501    0  0.00000000000E+00 -0.00000000000E+00 -0.15731409380E+04  0.15731409380E+04  0.00000000000E+00 0. -1.
         23    2    1    2    0    0  0.13202318957E+03  0.35776574186E+03 -0.17717793769E+03  0.43021603418E+03  0.90925056072E+02 0.  0.
        254    2    1    2    0    0 -0.13202318957E+03 -0.35776574186E+03 -0.10754202832E+04  0.14634676209E+04  0.91639633528E+03 0.  0.
         23    2    4    4    0    0  0.38733546487E+02  0.29585684343E+02 -0.10222691888E+04  0.10273544544E+04  0.89706634562E+02 0.  0.
         23    2    4    4    0    0 -0.17075673606E+03 -0.38735142621E+03 -0.53151094343E+02  0.43611316646E+03  0.90391729885E+02 0.  0.
         11    1    3    3    0    0  0.46348588252E+01  0.94845997212E+02 -0.73961079863E+02  0.12036397483E+03  0.00000000000E+00 0. -1.
        -11    1    3    3    0    0  0.12738833075E+03  0.26291974465E+03 -0.10321685783E+03  0.30985205934E+03  0.00000000000E+00 0.  1.
          3    1    6    6  502    0 -0.15729251513E+03 -0.35002413668E+03 -0.74719946762E+02  0.39094872045E+03  0.00000000000E+00 0. -1.
          3    1    5    5  503    0  0.43359806019E+02  0.57523792232E+02 -0.64096826826E+03  0.64500339562E+03  0.00000000000E+00 0. -1.
         -3    1    5    5    0  503 -0.46262595324E+01 -0.27938107889E+02 -0.38130092057E+03  0.38235105881E+03  0.00000000000E+00 0.  1.
         -3    1    6    6    0  502 -0.13464220931E+02 -0.37327289529E+02  0.21568852419E+02  0.45164446011E+02  0.00000000000E+00 0.  1.
<mgrwt>
<rscale>  0 0.14202237E+04</rscale>
<asrwt>0</asrwt>
<pdfrwt beam="1">  1        1 0.24202168E+00 0.14202237E+04</pdfrwt>
<pdfrwt beam="2">  1       -1 0.49314265E-01 0.14202237E+04</pdfrwt>
<totfact> 0.23358431E+01</totfact>
</mgrwt>
</event>
<event>
12    1  0.4967442E-008  0.2148185E+04  0.7818608E-02  0.8540309E-01
          2   -1    0    0  501    0  0.00000000000E+00  0.00000000000E+00  0.14774759398E+04  0.14774759398E+04  0.00000000000E+00 0. -1.
         -2   -1    0    0    0  501 -0.00000000000E+00 -0.00000000000E+00 -0.78084188032E+03  0.78084188032E+03  0.00000000000E+00 0.  1.
         23    2    1    2    0    0  0.23612716641E+02  0.11652018619E+03 -0.63258432165E+03  0.65091385147E+03  0.96909255823E+02 0.  0.
        254    2    1    2    0    0 -0.23612716641E+02 -0.11652018619E+03  0.13292183811E+04  0.16074039687E+04  0.89598632777E+03 0.  0.
         23    2    4    4    0    0  0.39704984176E+03  0.58705223812E+02  0.82464565244E+03  0.92157081316E+03  0.90318499963E+02 0.  0.
         23    2    4    4    0    0 -0.42066255840E+03 -0.17522541000E+03  0.50457272870E+03  0.68583315550E+03  0.90069674623E+02 0.  0.
         11    1    3    3    0    0  0.41809073776E+02  0.98458781344E+02 -0.59995857590E+03  0.60941974293E+03  0.00000000000E+00 0.  1.
        -11    1    3    3    0    0 -0.18196357135E+02  0.18061404849E+02 -0.32625745740E+02  0.41494108536E+02  0.00000000000E+00 0. -1.
          4    1    5    5  502    0  0.35183114159E+03  0.66310776411E+02  0.77660485332E+03  0.85515926555E+03  0.00000000000E+00 0. -1.
          4    1    6    6  503    0 -0.33117024414E+03 -0.13082567639E+03  0.44345686099E+03  0.56872056035E+03  0.00000000000E+00 0. -1.
         -4    1    5    5    0  502  0.45218700172E+02 -0.76055525990E+01  0.48040799120E+02  0.66411547608E+02  0.00000000000E+00 0.  1.
         -4    1    6    6    0  503 -0.89492314263E+02 -0.44399733611E+02  0.61115867703E+02  0.11711259515E+03  0.00000000000E+00 0.  1.
<mgrwt>
<rscale>  0 0.21481854E+04</rscale>
<asrwt>0</asrwt>
<pdfrwt beam="1">  1        2 0.22730399E+00 0.21481854E+04</pdfrwt>
<pdfrwt beam="2">  1       -2 0.12012952E+00 0.21481854E+04</pdfrwt>
<totfact> 0.63555835E+00</totfact>
</mgrwt>
</event>
<event>
12    1  0.4967442E-008  0.2659747E+04  0.7818608E-02  0.8348185E-01
          1   -1    0    0  501    0  0.00000000000E+00  0.00000000000E+00  0.24167944062E+04  0.24167944062E+04  0.00000000000E+00 0. -1.
         -1   -1    0    0    0  501 -0.00000000000E+00 -0.00000000000E+00 -0.73178044521E+03  0.73178044521E+03  0.00000000000E+00 0.  1.
         23    2    1    2    0    0 -0.90080885480E+03  0.17658109934E+03 -0.12020340765E+03  0.93205332695E+03  0.10787524069E+03 0.  0.
        254    2    1    2    0    0  0.90080885480E+03 -0.17658109934E+03  0.18052173686E+04  0.22165215244E+04  0.90084429442E+03 0.  0.
         23    2    4    4    0    0  0.47786678840E+03  0.81942693913E+02  0.15970456617E+04  0.16716269730E+04  0.93330695527E+02 0.  0.
         23    2    4    4    0    0  0.42294206640E+03 -0.25852379325E+03  0.20817170693E+03  0.54489455146E+03  0.88657032636E+02 0.  0.
         13    1    3    3    0    0 -0.33550571052E+02  0.15642642465E+01  0.15454184107E+02  0.36971875081E+02  0.00000000000E+00 0. -1.
        -13    1    3    3    0    0 -0.86725828374E+03  0.17501683509E+03 -0.13565759175E+03  0.89508145187E+03  0.00000000000E+00 0.  1.
          2    1    5    5  502    0  0.47711492435E+03  0.87683760044E+02  0.15907514780E+04  0.16630746699E+04  0.00000000000E+00 0. -1.
          3    1    6    6  503    0  0.19678282174E+03 -0.17216859380E+03  0.10648383109E+03  0.28231951741E+03  0.00000000000E+00 0. -1.
         -2    1    5    5    0  502  0.75186404681E+00 -0.57410661313E+01  0.62941836320E+01  0.85523030502E+01  0.00000000000E+00 0.  1.
         -3    1    6    6    0  503  0.22615924466E+03 -0.86355199455E+02  0.10168787584E+03  0.26257503406E+03  0.00000000000E+00 0.  1.
<mgrwt>
<rscale>  0 0.26597465E+04</rscale>
<asrwt>0</asrwt>
<pdfrwt beam="1">  1        1 0.37181452E+00 0.26597465E+04</pdfrwt>
<pdfrwt beam="2">  1       -1 0.11258161E+00 0.26597465E+04</pdfrwt>
<totfact> 0.97850346E-01</totfact>
</mgrwt>
</event>
<event>
12    1  0.4967442E-008  0.1288010E+04  0.7818608E-02  0.9039128E-01
          1   -1    0    0  501    0  0.00000000000E+00  0.00000000000E+00  0.15432836468E+03  0.15432836468E+03  0.00000000000E+00 0. -1.
         -1   -1    0    0    0  501 -0.00000000000E+00 -0.00000000000E+00 -0.26874015996E+04  0.26874015996E+04  0.00000000000E+00 0.  1.
         23    2    1    2    0    0  0.18371265233E+03  0.18540429064E+03 -0.10600489585E+04  0.10954610381E+04  0.90586985602E+02 0.  0.
        254    2    1    2    0    0 -0.18371265233E+03 -0.18540429064E+03 -0.14730242765E+04  0.17462689262E+04  0.90084935148E+03 0.  0.
         23    2    4    4    0    0 -0.17025671514E+03  0.35063226151E+02 -0.14931610966E+04  0.15059499653E+04  0.90213407210E+02 0.  0.
         23    2    4    4    0    0 -0.13455937199E+02 -0.22046751679E+03  0.20136820090E+02  0.24031896094E+03  0.92524176611E+02 0.  0.
         11    1    3    3    0    0  0.15244078554E+03  0.18670608011E+03 -0.98669392653E+03  0.10157077622E+04  0.00000000000E+00 0. -1.
        -11    1    3    3    0    0  0.31271866790E+02 -0.13017894738E+01 -0.73355031937E+02  0.79753275913E+02  0.00000000000E+00 0.  1.
          1    1    5    5  502    0 -0.11701006250E+03  0.24375684297E+02 -0.12942837334E+04  0.12997907182E+04  0.00000000000E+00 0. -1.
          3    1    6    6  503    0  0.12282971406E+01 -0.21475549660E+03  0.10787045362E-01  0.21475900947E+03  0.00000000000E+00 0. -1.
         -1    1    5    5    0  502 -0.53246652631E+02  0.10687541855E+02 -0.19887736318E+03  0.20615924707E+03  0.00000000000E+00 0.  1.
         -3    1    6    6    0  503 -0.14684234340E+02 -0.57120201913E+01  0.20126033044E+02  0.25559951466E+02  0.00000000000E+00 0.  1.
<mgrwt>
<rscale>  0 0.12880098E+04</rscale>
<asrwt>0</asrwt>
<pdfrwt beam="1">  1        1 0.23742827E-01 0.12880098E+04</pdfrwt>
<pdfrwt beam="2">  1       -1 0.41344638E+00 0.12880098E+04</pdfrwt>
<totfact> 0.12044145E+00</totfact>
</mgrwt>
</event>
<event>
12    1  0.4967442E-008  0.2108583E+04  0.7818608E-02  0.8557472E-01
         -4   -1    0    0    0  501 -0.00000000000E+00  0.00000000000E+00  0.10720323580E+04  0.10720323580E+04  0.00000000000E+00 0.  1.
          4   -1    0    0  501    0  0.00000000000E+00 -0.00000000000E+00 -0.10368439193E+04  0.10368439193E+04  0.00000000000E+00 0. -1.
         23    2    1    2    0    0 -0.34543546691E+03  0.60545026747E+03  0.51705570463E+03  0.87259453654E+03  0.90437466412E+02 0.  0.
        254    2    1    2    0    0  0.34543546691E+03 -0.60545026747E+03 -0.48186726595E+03  0.12362817407E+04  0.90016709129E+03 0.  0.
         23    2    4    4    0    0 -0.17819410870E+03 -0.35167428689E+03 -0.50440362453E+03  0.64650949950E+03  0.90130860805E+02 0.  0.
         23    2    4    4    0    0  0.52362957562E+03 -0.25377598058E+03  0.22536358585E+02  0.58977224121E+03  0.93451742944E+02 0.  0.
         13    1    3    3    0    0 -0.14844122778E+03  0.21619082738E+03  0.24209272087E+03  0.35690637069E+03  0.00000000000E+00 0.  1.
        -13    1    3    3    0    0 -0.19699423914E+03  0.38925944009E+03  0.27496298376E+03  0.51568816585E+03  0.00000000000E+00 0. -1.
          4    1    5    5  502    0 -0.58781323865E+02 -0.43067812689E+02 -0.77534469247E+02  0.10640335731E+03  0.00000000000E+00 0. -1.
          1    1    6    6  503    0  0.45363695137E+02  0.48455265365E+01  0.25242884988E+01  0.45691530904E+02  0.00000000000E+00 0. -1.
         -4    1    5    5    0  502 -0.11941278484E+03 -0.30860647421E+03 -0.42686915528E+03  0.54010614220E+03  0.00000000000E+00 0.  1.
         -1    1    6    6    0  503  0.47826588048E+03 -0.25862150711E+03  0.20012070087E+02  0.54408071030E+03  0.00000000000E+00 0.  1.
<mgrwt>
<rscale>  0 0.21085827E+04</rscale>
<asrwt>0</asrwt>
<pdfrwt beam="1">  1        4 0.15951445E+00 0.21085827E+04</pdfrwt>
<pdfrwt beam="2">  1       -4 0.16492805E+00 0.21085827E+04</pdfrwt>
<totfact> 0.10691240E-01</totfact>
</mgrwt>
</event>
<event>
12    1  0.4967442E-008  0.1696125E+04  0.7818608E-02  0.8763577E-01
         -1   -1    0    0    0  501 -0.00000000000E+00  0.00000000000E+00  0.27423420242E+03  0.27423420242E+03  0.00000000000E+00 0.  1.
          1   -1    0    0  501    0  0.00000000000E+00 -0.00000000000E+00 -0.26226124410E+04  0.26226124410E+04  0.00000000000E+00 0. -1.
         23    2    1    2    0    0  0.46089591856E+03 -0.33307670028E+03 -0.11975842604E+04  0.13289020722E+04  0.91692533530E+02 0.  0.
        254    2    1    2    0    0 -0.46089591856E+03  0.33307670028E+03 -0.11507939782E+04  0.15679445712E+04  0.90042115824E+03 0.  0.
         23    2    4    4    0    0 -0.45469956850E+03  0.34062716030E+03 -0.12832052418E+04  0.14063369909E+04  0.91594101451E+02 0.  0.
         23    2    4    4    0    0 -0.61963500589E+01 -0.75504600248E+01  0.13241126364E+03  0.16160758032E+03  0.92135026323E+02 0.  0.
         11    1    3    3    0    0  0.43060773857E+03 -0.29314617173E+03 -0.10338894473E+04  0.11577068246E+04  0.00000000000E+00 0. -1.
        -11    1    3    3    0    0  0.30288179985E+02 -0.39930528550E+02 -0.16369481312E+03  0.17119524760E+03  0.00000000000E+00 0.  1.
          4    1    5    5  502    0 -0.20781459498E+03  0.10187186394E+03 -0.48579370474E+03  0.53810808033E+03  0.00000000000E+00 0. -1.
          3    1    6    6  503    0  0.35820311505E+02  0.46913294964E+01  0.10228434194E+03  0.10847667903E+03  0.00000000000E+00 0. -1.
         -4    1    5    5    0  502 -0.24688497352E+03  0.23875529636E+03 -0.79741153709E+03  0.86822891059E+03  0.00000000000E+00 0.  1.
         -3    1    6    6    0  503 -0.42016661564E+02 -0.12241789521E+02  0.30126921708E+02  0.53130901284E+02  0.00000000000E+00 0.  1.
<mgrwt>
<rscale>  0 0.16961250E+04</rscale>
<asrwt>0</asrwt>
<pdfrwt beam="1">  1        1 0.40347883E+00 0.16961250E+04</pdfrwt>
<pdfrwt beam="2">  1       -1 0.42189878E-01 0.16961250E+04</pdfrwt>
<totfact> 0.58592915E+00</totfact>
</mgrwt>
</event>
<event>
12    1  0.4967442E-008  0.2007685E+04  0.7818608E-02  0.8603036E-01
         -1   -1    0    0    0  501 -0.00000000000E+00  0.00000000000E+00  0.43289624791E+03  0.43289624791E+03  0.00000000000E+00 0.  1.
          1   -1    0    0  501    0  0.00000000000E+00 -0.00000000000E+00 -0.23278099998E+04  0.23278099998E+04  0.00000000000E+00 0. -1.
         23    2    1    2    0    0  0.30868918256E+03  0.71163436326E+03 -0.93507298050E+03  0.12189313905E+04  0.98588931521E+02 0.  0.
        254    2    1    2    0    0 -0.30868918256E+03 -0.71163436326E+03 -0.95984077139E+03  0.15417748572E+04  0.92415524970E+03 0.  0.
         23    2    4    4    0    0 -0.21456566671E+03 -0.30777131240E+03 -0.10404794665E+04  0.11099019852E+04  0.92321669334E+02 0.  0.
         23    2    4    4    0    0 -0.94123515844E+02 -0.40386305086E+03  0.80638695084E+02  0.43187287198E+03  0.89704951498E+02 0.  0.
         13    1    3    3    0    0  0.50956462792E+02  0.10021218577E+03 -0.19398504784E+03  0.22420803300E+03  0.00000000000E+00 0. -1.
        -13    1    3    3    0    0  0.25773271977E+03  0.61142217749E+03 -0.74108793266E+03  0.99472335747E+03  0.00000000000E+00 0.  1.
          2    1    5    5  502    0 -0.14780774967E+02 -0.72824412182E+02 -0.26863879269E+03  0.27872686856E+03  0.00000000000E+00 0. -1.
          3    1    6    6  503    0 -0.79193641235E+02 -0.16375436585E+03  0.54482258416E+02  0.18988270492E+03  0.00000000000E+00 0. -1.
         -2    1    5    5    0  502 -0.19978489175E+03 -0.23494690022E+03 -0.77184067378E+03  0.83117511668E+03  0.00000000000E+00 0.  1.
         -3    1    6    6    0  503 -0.14929874610E+02 -0.24010868501E+03  0.26156436668E+02  0.24199016706E+03  0.00000000000E+00 0.  1.
<mgrwt>
<rscale>  0 0.20076854E+04</rscale>
<asrwt>0</asrwt>
<pdfrwt beam="1">  1        1 0.35812461E+00 0.20076854E+04</pdfrwt>
<pdfrwt beam="2">  1       -1 0.66599424E-01 0.20076854E+04</pdfrwt>
<totfact> 0.37727113E+00</totfact>
</mgrwt>
</event>
<event>
12    1  0.4967442E-008  0.2104769E+04  0.7818608E-02  0.8559145E-01
         -2   -1    0    0    0  501 -0.00000000000E+00  0.00000000000E+00  0.85379753568E+03  0.85379753568E+03  0.00000000000E+00 0.  1.
          2   -1    0    0  501    0  0.00000000000E+00 -0.00000000000E+00 -0.12971618075E+04  0.12971618075E+04  0.00000000000E+00 0. -1.
         23    2    1    2    0    0  0.71313620457E+03  0.46267000068E+02  0.29962455166E+03  0.78021068354E+03  0.90829275019E+02 0.  0.
        254    2    1    2    0    0 -0.71313620457E+03 -0.46267000068E+02 -0.74298882350E+03  0.13707486597E+04  0.90344652004E+03 0.  0.
         23    2    4    4    0    0 -0.20716236377E+03 -0.28394734128E+03  0.79473730705E+02  0.37198429495E+03  0.92270820088E+02 0.  0.
         23    2    4    4    0    0 -0.50597384080E+03  0.23768034121E+03 -0.82246255420E+03  0.99876436471E+03  0.92650585450E+02 0.  0.
         13    1    3    3    0    0  0.69737688093E+03  0.37167708603E+02  0.27729313481E+03  0.75140364334E+03  0.00000000000E+00 0.  1.
        -13    1    3    3    0    0  0.15759323638E+02  0.90992914654E+01  0.22331416848E+02  0.28807040201E+02  0.00000000000E+00 0. -1.
          4    1    5    5  502    0 -0.69201932536E+02 -0.96389883166E+02 -0.17163596885E+02  0.11989372837E+03  0.00000000000E+00 0. -1.
          1    1    6    6  503    0 -0.25894371871E+03  0.15700701011E+03 -0.50087860485E+03  0.58530541385E+03  0.00000000000E+00 0. -1.
         -4    1    5    5    0  502 -0.13796043123E+03 -0.18755745811E+03  0.96637327589E+02  0.25209056659E+03  0.00000000000E+00 0.  1.
         -1    1    6    6    0  503 -0.24703012208E+03  0.80673331102E+02 -0.32158394935E+03  0.41345895086E+03  0.00000000000E+00 0.  1.
<mgrwt>
<rscale>  0 0.21047694E+04</rscale>
<asrwt>0</asrwt>
<pdfrwt beam="1">  1        2 0.19956335E+00 0.21047694E+04</pdfrwt>
<pdfrwt beam="2">  1       -2 0.13135347E+00 0.21047694E+04</pdfrwt>
<totfact> 0.64679539E+00</totfact>
</mgrwt>
</event>
<event>
12    1  0.4967442E-008  0.1333489E+04  0.7818608E-02  0.9003421E-01
         -2   -1    0    0    0  501 -0.00000000000E+00  0.00000000000E+00  0.23420766222E+03  0.23420766222E+03  0.00000000000E+00 0.  1.
          2   -1    0    0  501    0  0.00000000000E+00 -0.00000000000E+00 -0.18980951465E+04  0.18980951465E+04  0.00000000000E+00 0. -1.
         23    2    1    2    0    0 -0.13302588869E+03 -0.28770820527E+03 -0.20111396091E+03  0.38635573502E+03  0.91389442897E+02 0.  0.
        254    2    1    2    0    0  0.13302588869E+03  0.28770820527E+03 -0.14627735234E+04  0.17459470737E+04  0.89897325045E+03 0.  0.
         23    2    4    4    0    0  0.27362014071E+03 -0.38650282679E+02 -0.61984041780E+02  0.29803907007E+03  0.92862479518E+02 0.  0.
         23    2    4    4    0    0 -0.14059425202E+03  0.32635848794E+03 -0.14007894816E+04  0.14479080036E+04  0.89161700619E+02 0.  0.
         11    1    3    3    0    0 -0.66480971633E+02 -0.21000334654E+03 -0.97966774949E+02  0.24107802501E+03  0.00000000000E+00 0.  1.
        -11    1    3    3    0    0 -0.66544917056E+02 -0.77704858722E+02 -0.10314718596E+03  0.14527771001E+03  0.00000000000E+00 0. -1.
          4    1    5    5  502    0  0.22598069599E+03 -0.32995784712E+02 -0.86443834289E+02  0.24418954371E+03  0.00000000000E+00 0. -1.
          1    1    6    6  503    0 -0.12722867763E+03  0.30909215136E+03 -0.13698443486E+04  0.14100349761E+04  0.00000000000E+00 0. -1.
         -4    1    5    5    0  502  0.47639444718E+02 -0.56544979666E+01  0.24459792509E+02  0.53849526366E+02  0.00000000000E+00 0.  1.
         -1    1    6    6    0  503 -0.13365574383E+02  0.17266336587E+02 -0.30945133015E+02  0.37873027540E+02  0.00000000000E+00 0.  1.
<mgrwt>
<rscale>  0 0.13334893E+04</rscale>
<asrwt>0</asrwt>
<pdfrwt beam="1">  1        2 0.29201464E+00 0.13334893E+04</pdfrwt>
<pdfrwt beam="2">  1       -2 0.36031947E-01 0.13334893E+04</pdfrwt>
<totfact> 0.53950692E+01</totfact>
</mgrwt>
</event>
<event>
12    1  0.4967442E-008  0.2892590E+04  0.7818608E-02  0.8275085E-01
         -2   -1    0    0    0  501 -0.00000000000E+00  0.00000000000E+00  0.13852183476E+04  0.13852183476E+04  0.00000000000E+00 0.  1.
          2   -1    0    0  501    0  0.00000000000E+00 -0.00000000000E+00 -0.15100650476E+04  0.15100650476E+04  0.00000000000E+00 0. -1.
         23    2    1    2    0    0 -0.10596330985E+04 -0.46955801197E+03 -0.65426872255E+03  0.13340979320E+04  0.91884171539E+02 0.  0.
        254    2    1    2    0    0  0.10596330985E+04  0.46955801197E+03  0.52942202265E+03  0.15611854632E+04  0.90205617474E+03 0.  0.
         23    2    4    4    0    0 -0.12774541021E+03 -0.53762704690E+02  0.84155987949E+02  0.18626292868E+03  0.91664224460E+02 0.  0.
         23    2    4    4    0    0  0.11873785087E+04  0.52332071666E+03  0.44526603470E+03  0.13749225345E+04  0.91748781186E+02 0.  0.
         11    1    3    3    0    0 -0.86764079862E+03 -0.41930030563E+03 -0.52702089742E+03  0.10983461786E+04  0.00000000000E+00 0. -1.
        -11    1    3    3    0    0 -0.19199229984E+03 -0.50257706347E+02 -0.12724782513E+03  0.23575175343E+03  0.00000000000E+00 0.  1.
          4    1    5    5  502    0 -0.14743846713E+02 -0.48667240172E+02  0.40522335500E+02  0.65022618805E+02  0.00000000000E+00 0. -1.
          3    1    6    6  503    0  0.14519586754E+03  0.94915983857E+02  0.45810624401E+02  0.17941431729E+03  0.00000000000E+00 0. -1.
         -4    1    5    5    0  502 -0.11300156350E+03 -0.50954645185E+01  0.43633652449E+02  0.12124030987E+03  0.00000000000E+00 0.  1.
         -3    1    6    6    0  503  0.10421826411E+04  0.42840473281E+03  0.39945541030E+03  0.11955082172E+04  0.00000000000E+00 0.  1.
<mgrwt>
<rscale>  0 0.28925904E+04</rscale>
<asrwt>0</asrwt>
<pdfrwt beam="1">  1        2 0.23231770E+00 0.28925904E+04</pdfrwt>
<pdfrwt beam="2">  1       -2 0.21311052E+00 0.28925904E+04</pdfrwt>
<totfact> 0.11832816E+00</totfact>
</mgrwt>
</event>
<event>
12    1  0.4967442E-008  0.2073142E+04  0.7818608E-02  0.8573168E-01
         -1   -1    0    0    0  501 -0.00000000000E+00  0.00000000000E+00  0.65455935606E+03  0.65455935606E+03  0.00000000000E+00 0.  1.
          1   -1    0    0  501    0  0.00000000000E+00 -0.00000000000E+00 -0.16415309238E+04  0.16415309238E+04  0.00000000000E+00 0. -1.
         23    2    1    2    0    0  0.46871311830E+03 -0.50576585558E+03 -0.92088766317E+03  0.11540100384E+04  0.90631080135E+02 0.  0.
        254    2    1    2    0    0 -0.46871311830E+03  0.50576585558E+03 -0.66083904609E+02  0.11420802415E+04  0.90801382565E+03 0.  0.
         23    2    4    4    0    0 -0.19985104827E+02 -0.20311909765E+03  0.15347639447E+03  0.26987126957E+03  0.87285315111E+02 0.  0.
         23    2    4    4    0    0 -0.44872801347E+03  0.70888495322E+03 -0.21956029908E+03  0.87220897190E+03  0.93097039457E+02 0.  0.
         11    1    3    3    0    0  0.37589404560E+03 -0.45263120046E+03 -0.76976211136E+03  0.96886791940E+03  0.00000000000E+00 0. -1.
        -11    1    3    3    0    0  0.92819072695E+02 -0.53134655115E+02 -0.15112555181E+03  0.18514211903E+03  0.00000000000E+00 0.  1.
          1    1    5    5  502    0  0.13518020924E+02 -0.28325501479E+02  0.62621696716E+02  0.70046754553E+02  0.00000000000E+00 0. -1.
          1    1    6    6  503    0 -0.86529834204E+02  0.77720304219E+02 -0.25503447831E+02  0.11907259864E+03  0.00000000000E+00 0. -1.
         -1    1    5    5    0  502 -0.33503125751E+02 -0.17479359617E+03  0.90854697755E+02  0.19982451502E+03  0.00000000000E+00 0.  1.
         -1    1    6    6    0  503 -0.36219817926E+03  0.63116464900E+03 -0.19405685125E+03  0.75313637326E+03  0.00000000000E+00 0.  1.
<mgrwt>
<rscale>  0 0.20731420E+04</rscale>
<asrwt>0</asrwt>
<pdfrwt beam="1">  1        1 0.25254322E+00 0.20731420E+04</pdfrwt>
<pdfrwt beam="2">  1       -1 0.10070144E+00 0.20731420E+04</pdfrwt>
<totfact> 0.45178184E+00</totfact>
</mgrwt>
</event>
<event>
12    1  0.4967442E-008  0.1036796E+04  0.7818608E-02  0.9269084E-01
         -2   -1    0    0    0  501 -0.00000000000E+00  0.00000000000E+00  0.74975670259E+02  0.74975670259E+02  0.00000000000E+00 0.  1.
          2   -1    0    0  501    0  0.00000000000E+00 -0.00000000000E+00 -0.35843153543E+04  0.35843153543E+04  0.00000000000E+00 0. -1.
         23    2    1    2    0    0  0.80814319357E+02  0.25296098751E+02 -0.46587931962E+03  0.48228746351E+03  0.91579529279E+02 0.  0.
        254    2    1    2    0    0 -0.80814319357E+02 -0.25296098751E+02 -0.30434603644E+04  0.31770035611E+04  0.90748542154E+03 0.  0.
         23    2    4    4    0    0  0.33966347815E+03  0.20212672966E+03 -0.10666830004E+04  0.11411669419E+04  0.90680057223E+02 0.  0.
         23    2    4    4    0    0 -0.42047779751E+03 -0.22742282841E+03 -0.19767773641E+04  0.20358366192E+04  0.91974299494E+02 0.  0.
         11    1    3    3    0    0  0.64355117170E+02  0.26813752987E+02 -0.45919614721E+03  0.46445845892E+03  0.00000000000E+00 0. -1.
        -11    1    3    3    0    0  0.16459202187E+02 -0.15176542357E+01 -0.66831724123E+01  0.17829004585E+02  0.00000000000E+00 0.  1.
          4    1    5    5  502    0  0.26791642870E+03  0.11279781842E+03 -0.78308245219E+03  0.83529676615E+03  0.00000000000E+00 0.  1.
          3    1    6    6  503    0 -0.31878375061E+03 -0.21464878167E+03 -0.15590221107E+04  0.16056921002E+04  0.00000000000E+00 0. -1.
         -4    1    5    5    0  502  0.71747049449E+02  0.89328911239E+02 -0.28360054819E+03  0.30587017576E+03  0.00000000000E+00 0. -1.
         -3    1    6    6    0  503 -0.10169404690E+03 -0.12774046741E+02 -0.41775525340E+03  0.43014451896E+03  0.00000000000E+00 0.  1.
<mgrwt>
<rscale>  0 0.10367959E+04</rscale>
<asrwt>0</asrwt>
<pdfrwt beam="1">  1        2 0.55143310E+00 0.10367959E+04</pdfrwt>
<pdfrwt beam="2">  1       -2 0.11534719E-01 0.10367959E+04</pdfrwt>
<totfact> 0.39975380E+01</totfact>
</mgrwt>
</event>
<event>
12    1  0.4967442E-008  0.1940792E+04  0.7818608E-02  0.8634814E-01
          1   -1    0    0  501    0  0.00000000000E+00  0.00000000000E+00  0.27743005035E+04  0.27743005035E+04  0.00000000000E+00 0. -1.
         -1   -1    0    0    0  501 -0.00000000000E+00 -0.00000000000E+00 -0.33942540943E+03  0.33942540943E+03  0.00000000000E+00 0.  1.
         23    2    1    2    0    0  0.71051322620E+01  0.15537520965E+03 -0.23417780743E+03  0.29441451302E+03  0.87456968323E+02 0.  0.
        254    2    1    2    0    0 -0.71051322620E+01 -0.15537520965E+03  0.26690529015E+04  0.28193113999E+04  0.89469628363E+03 0.  0.
         23    2    4    4    0    0  0.20759460092E+03  0.25319431231E+03  0.17909943220E+04  0.18231100312E+04  0.94162869853E+02 0.  0.
         23    2    4    4    0    0 -0.21469973318E+03 -0.40856952196E+03  0.87805857951E+03  0.99620136878E+03  0.91680250881E+02 0.  0.
         11    1    3    3    0    0  0.18999856476E+02  0.14177216765E+03 -0.14595628331E+03  0.20436139240E+03  0.00000000000E+00 0.  1.
        -11    1    3    3    0    0 -0.11894724214E+02  0.13603041999E+02 -0.88221524121E+02  0.90053120623E+02  0.00000000000E+00 0. -1.
          2    1    5    5  502    0  0.15700065592E+03  0.19595900283E+03  0.15526567629E+04  0.15728293487E+04  0.00000000000E+00 0. -1.
          1    1    6    6  503    0 -0.20077395528E+03 -0.30214106337E+03  0.65857929161E+03  0.75188169723E+03  0.00000000000E+00 0. -1.
         -2    1    5    5    0  502  0.50593945000E+02  0.57235309480E+02  0.23833755914E+03  0.25028068248E+03  0.00000000000E+00 0.  1.
         -1    1    6    6    0  503 -0.13925777903E+02 -0.10642845859E+03  0.21947928790E+03  0.24431967155E+03  0.00000000000E+00 0.  1.
<mgrwt>
<rscale>  0 0.19407917E+04</rscale>
<asrwt>0</asrwt>
<pdfrwt beam="1">  1        1 0.42681545E+00 0.19407917E+04</pdfrwt>
<pdfrwt beam="2">  1       -1 0.52219296E-01 0.19407917E+04</pdfrwt>
<totfact> 0.29977626E+00</totfact>
</mgrwt>
</event>
<event>
12    1  0.4967442E-008  0.2099323E+04  0.7818608E-02  0.8561542E-01
         -2   -1    0    0    0  501 -0.00000000000E+00  0.00000000000E+00  0.13236478309E+04  0.13236478309E+04  0.00000000000E+00 0.  1.
          2   -1    0    0  501    0  0.00000000000E+00 -0.00000000000E+00 -0.83238852735E+03  0.83238852735E+03  0.00000000000E+00 0. -1.
         23    2    1    2    0    0  0.58667632471E+03 -0.55240976062E+03  0.50114868320E+03  0.95332483214E+03  0.91282962877E+02 0.  0.
        254    2    1    2    0    0 -0.58667632471E+03  0.55240976062E+03 -0.98893796239E+01  0.12027115261E+04  0.89278864333E+03 0.  0.
         23    2    4    4    0    0 -0.67304890794E+03  0.29757215675E+03  0.28380617566E+03  0.79403388044E+03  0.91650624589E+02 0.  0.
         23    2    4    4    0    0  0.86372583233E+02  0.25483760386E+03 -0.29369555528E+03  0.40867764569E+03  0.91421613537E+02 0.  0.
         13    1    3    3    0    0  0.38596722323E+02 -0.14076177657E+02  0.39806453188E+02  0.57204890236E+02  0.00000000000E+00 0. -1.
        -13    1    3    3    0    0  0.54807960239E+03 -0.53833358296E+03  0.46134223001E+03  0.89611994191E+03  0.00000000000E+00 0.  1.
          4    1    6    6  502    0  0.46034856150E+02  0.18745989908E+03 -0.14826284497E+03  0.24339739716E+03  0.00000000000E+00 0. -1.
          4    1    5    5  503    0 -0.63470836001E+03  0.26195591136E+03  0.28009428943E+03  0.74157158301E+03  0.00000000000E+00 0. -1.
         -4    1    5    5    0  503 -0.38340547932E+02  0.35616245397E+02  0.37118862273E+01  0.52462297427E+02  0.00000000000E+00 0.  1.
         -4    1    6    6    0  502  0.40337727083E+02  0.67377704778E+02 -0.14543271031E+03  0.16528024853E+03  0.00000000000E+00 0.  1.
<mgrwt>
<rscale>  0 0.20993230E+04</rscale>
<asrwt>0</asrwt>
<pdfrwt beam="1">  1        2 0.12805977E+00 0.20993230E+04</pdfrwt>
<pdfrwt beam="2">  1       -2 0.20363813E+00 0.20993230E+04</pdfrwt>
<totfact> 0.37875563E+00</totfact>
</mgrwt>
</event>
<event>
12    1  0.4967442E-008  0.1315535E+04  0.7818608E-02  0.9017336E-01
          2   -1    0    0  501    0  0.00000000000E+00  0.00000000000E+00  0.18422718283E+03  0.18422718283E+03  0.00000000000E+00 0. -1.
         -2   -1    0    0    0  501 -0.00000000000E+00 -0.00000000000E+00 -0.23485034935E+04  0.23485034935E+04  0.00000000000E+00 0.  1.
         23    2    1    2    0    0  0.39694776729E+02 -0.28309868875E+03 -0.24714999230E+03  0.38871918964E+03  0.91098555571E+02 0.  0.
        254    2    1    2    0    0 -0.39694776729E+02  0.28309868875E+03 -0.19171263184E+04  0.21440114867E+04  0.91634676384E+03 0.  0.
         23    2    4    4    0    0 -0.15417516129E+03  0.21545706125E+03 -0.19591396084E+04  0.19785507828E+04  0.79015625710E+02 0.  0.
         23    2    4    4    0    0  0.11448038456E+03  0.67641627506E+02  0.42013290039E+02  0.16546070393E+03  0.89056048558E+02 0.  0.
         13    1    3    3    0    0  0.41837918755E+02 -0.20549933367E+03 -0.12546340040E+03  0.24437972998E+03  0.00000000000E+00 0. -1.
        -13    1    3    3    0    0 -0.21431420265E+01 -0.77599355078E+02 -0.12168659189E+03  0.14433945965E+03  0.00000000000E+00 0.  1.
          4    1    5    5  502    0 -0.45413058967E+00 -0.53377189888E+01 -0.15953317806E+02  0.16828720320E+02  0.00000000000E+00 0.  1.
          3    1    6    6  503    0  0.93432742782E+02  0.68019727881E+02  0.66366762183E+02  0.13327005638E+03  0.00000000000E+00 0. -1.
         -4    1    5    5    0  502 -0.15372103070E+03  0.22079478024E+03 -0.19431862906E+04  0.19617220624E+04  0.00000000000E+00 0. -1.
         -3    1    6    6    0  503  0.21047641781E+02 -0.37810037501E+00 -0.24353472144E+02  0.32190647554E+02  0.00000000000E+00 0.  1.
<mgrwt>
<rscale>  0 0.13155351E+04</rscale>
<asrwt>0</asrwt>
<pdfrwt beam="1">  1        2 0.28342644E-01 0.13155351E+04</pdfrwt>
<pdfrwt beam="2">  1       -2 0.36130822E+00 0.13155351E+04</pdfrwt>
<totfact> 0.24834913E+00</totfact>
</mgrwt>
</event>
<event>
12    1  0.4967442E-008  0.1610672E+04  0.7818608E-02  0.8814018E-01
         -2   -1    0    0    0  501 -0.00000000000E+00  0.00000000000E+00  0.48880532646E+03  0.48880532646E+03  0.00000000000E+00 0. -1.
          2   -1    0    0  501    0  0.00000000000E+00 -0.00000000000E+00 -0.13268395557E+04  0.13268395557E+04  0.00000000000E+00 0.  1.
         23    2    1    2    0    0 -0.36341581299E+03  0.28077111088E+03 -0.62200482105E+03  0.77899235439E+03  0.95055883374E+02 0.  0.
        254    2    1    2    0    0  0.36341581299E+03 -0.28077111088E+03 -0.21602940816E+03  0.10366525277E+04  0.90392272249E+03 0.  0.
         23    2    4    4    0    0  0.52730481327E+03 -0.39394363511E+03  0.80035344959E+02  0.66950290584E+03  0.92663535190E+02 0.  0.
         23    2    4    4    0    0 -0.16388900028E+03  0.11317252422E+03 -0.29606475312E+03  0.36714962190E+03  0.86468966478E+02 0.  0.
         13    1    3    3    0    0 -0.20061503586E+03  0.10275117050E+03 -0.33940598293E+03  0.40743173281E+03  0.00000000000E+00 0.  1.
        -13    1    3    3    0    0 -0.16280077712E+03  0.17801994038E+03 -0.28259883812E+03  0.37156062158E+03  0.00000000000E+00 0. -1.
          2    1    5    5  502    0  0.48059333870E+03 -0.33045001846E+03  0.89669002825E+02  0.59009126580E+03  0.00000000000E+00 0.  1.
          3    1    6    6  503    0 -0.91607630239E+01 -0.72374931940E+01 -0.55966737140E+02  0.57171466249E+02  0.00000000000E+00 0. -1.
         -2    1    5    5    0  502  0.46711474572E+02 -0.63493616644E+02 -0.96336578664E+01  0.79411640048E+02  0.00000000000E+00 0. -1.
         -3    1    6    6    0  503 -0.15472823726E+03  0.12041001742E+03 -0.24009801598E+03  0.30997815565E+03  0.00000000000E+00 0.  1.
<mgrwt>
<rscale>  0 0.16106722E+04</rscale>
<asrwt>0</asrwt>
<pdfrwt beam="1">  1        2 0.20412916E+00 0.16106722E+04</pdfrwt>
<pdfrwt beam="2">  1       -2 0.75200820E-01 0.16106722E+04</pdfrwt>
<totfact> 0.24255322E+01</totfact>
</mgrwt>
</event>
<event>
12    1  0.4967442E-008  0.1902002E+04  0.7818608E-02  0.8653860E-01
         -1   -1    0    0    0  501 -0.00000000000E+00  0.00000000000E+00  0.99683979872E+03  0.99683979872E+03  0.00000000000E+00 0.  1.
          1   -1    0    0  501    0  0.00000000000E+00 -0.00000000000E+00 -0.90727046654E+03  0.90727046654E+03  0.00000000000E+00 0. -1.
         23    2    1    2    0    0  0.33556026744E+03  0.36428922051E+03  0.57701730762E+03  0.76579835359E+03  0.90503125970E+02 0.  0.
        254    2    1    2    0    0 -0.33556026744E+03 -0.36428922051E+03 -0.48744797543E+03  0.11383119117E+04  0.90157703510E+03 0.  0.
         23    2    4    4    0    0 -0.51968860840E+03 -0.92242141139E+02  0.88763083752E+01  0.53607777326E+03  0.93358062471E+02 0.  0.
         23    2    4    4    0    0  0.18412834096E+03 -0.27204707937E+03 -0.49632428381E+03  0.60223413841E+03  0.91843907954E+02 0.  0.
         13    1    3    3    0    0  0.26961876121E+03  0.32548755188E+03  0.52150708411E+03  0.67127197290E+03  0.00000000000E+00 0.  1.
        -13    1    3    3    0    0  0.65941506234E+02  0.38801668632E+02  0.55510223500E+02  0.94526380688E+02  0.00000000000E+00 0. -1.
          4    1    6    6  502    0  0.10639697638E+03 -0.22423328533E+03 -0.38800245888E+03  0.46059395451E+03  0.00000000000E+00 0. -1.
          4    1    5    5  503    0 -0.34651559755E+03 -0.35761994065E+02  0.42203418482E+02  0.35090327456E+03  0.00000000000E+00 0. -1.
         -4    1    5    5    0  503 -0.17317301085E+03 -0.56480147074E+02 -0.33327110107E+02  0.18517449870E+03  0.00000000000E+00 0.  1.
         -4    1    6    6    0  502  0.77731364576E+02 -0.47813794043E+02 -0.10832182493E+03  0.14164018390E+03  0.00000000000E+00 0.  1.
<mgrwt>
<rscale>  0 0.19020024E+04</rscale>
<asrwt>0</asrwt>
<pdfrwt beam="1">  1        1 0.13958007E+00 0.19020024E+04</pdfrwt>
<pdfrwt beam="2">  1       -1 0.15335997E+00 0.19020024E+04</pdfrwt>
<totfact> 0.55166809E+00</totfact>
</mgrwt>
</event>
<event>
12    1  0.4967442E-008  0.2209492E+04  0.7818608E-02  0.8514488E-01
          1   -1    0    0  501    0  0.00000000000E+00  0.00000000000E+00  0.14219770556E+04  0.14219770556E+04  0.00000000000E+00 0. -1.
         -1   -1    0    0    0  501 -0.00000000000E+00 -0.00000000000E+00 -0.85828626687E+03  0.85828626687E+03  0.00000000000E+00 0.  1.
         23    2    1    2    0    0 -0.43257281337E+03  0.43794991476E+03  0.93318473240E+03  0.11215674360E+04  0.90334942968E+02 0.  0.
        254    2    1    2    0    0  0.43257281337E+03 -0.43794991476E+03 -0.36949394368E+03  0.11586958865E+04  0.90946743549E+03 0.  0.
         23    2    4    4    0    0 -0.13041685729E+03 -0.23550002763E+03  0.18399418147E+03  0.33858413644E+03  0.91195059943E+02 0.  0.
         23    2    4    4    0    0  0.56298967066E+03 -0.20244988713E+03 -0.55348812515E+03  0.82011175004E+03  0.91054114648E+02 0.  0.
         11    1    3    3    0    0 -0.32776745817E+03  0.27814582403E+03  0.61356115788E+03  0.74916880643E+03  0.00000000000E+00 0. -1.
        -11    1    3    3    0    0 -0.10480535520E+03  0.15980409073E+03  0.31962357452E+03  0.37239862954E+03  0.00000000000E+00 0.  1.
          2    1    5    5  502    0 -0.13555908416E+03 -0.17350801774E+03  0.12682126581E+03  0.25409630258E+03  0.00000000000E+00 0. -1.
          1    1    6    6  503    0  0.30795292153E+03 -0.91627728873E+02 -0.23981229807E+03  0.40092465736E+03  0.00000000000E+00 0. -1.
         -2    1    5    5    0  502  0.51422268751E+01 -0.61992009892E+02  0.57172915652E+02  0.84487833869E+02  0.00000000000E+00 0.  1.
         -1    1    6    6    0  503  0.25503674914E+03 -0.11082215826E+03 -0.31367582708E+03  0.41918709268E+03  0.00000000000E+00 0.  1.
<mgrwt>
<rscale>  0 0.22094917E+04</rscale>
<asrwt>0</asrwt>
<pdfrwt beam="1">  1        1 0.21876570E+00 0.22094917E+04</pdfrwt>
<pdfrwt beam="2">  1       -1 0.13204404E+00 0.22094917E+04</pdfrwt>
<totfact> 0.32927117E+00</totfact>
</mgrwt>
</event>
<event>
12    1  0.4967442E-008  0.1396583E+04  0.7818608E-02  0.8956296E-01
         -2   -1    0    0    0  501 -0.00000000000E+00  0.00000000000E+00  0.56778879045E+03  0.56778879045E+03  0.00000000000E+00 0.  1.
          2   -1    0    0  501    0  0.00000000000E+00 -0.00000000000E+00 -0.85878952309E+03  0.85878952309E+03  0.00000000000E+00 0. -1.
         23    2    1    2    0    0 -0.42441719253E+02  0.75349224838E+02  0.32079268778E+03  0.34905172374E+03  0.10700631802E+03 0.  0.
        254    2    1    2    0    0  0.42441719253E+02 -0.75349224838E+02 -0.61179342043E+03  0.10775265898E+04  0.88277605157E+03 0.  0.
         23    2    4    4    0    0  0.23069000934E+02 -0.40580367688E+03 -0.60441093276E+03  0.73404461831E+03  0.91105011119E+02 0.  0.
         23    2    4    4    0    0  0.19372718319E+02  0.33045445204E+03 -0.73824876683E+01  0.34348197149E+03  0.91377877662E+02 0.  0.
         13    1    3    3    0    0 -0.63959811537E+02  0.87766545476E+02  0.28881209582E+03  0.30855510154E+03  0.00000000000E+00 0.  1.
        -13    1    3    3    0    0  0.21518092284E+02 -0.12417320637E+02  0.31980591967E+02  0.40496622204E+02  0.00000000000E+00 0. -1.
          2    1    5    5  502    0  0.36012009280E+02 -0.39380183544E+03 -0.55418022422E+03  0.68080281384E+03  0.00000000000E+00 0. -1.
          4    1    6    6  503    0 -0.37871897267E+01  0.14435621890E+03  0.40411219547E+02  0.14995375090E+03  0.00000000000E+00 0. -1.
         -2    1    5    5    0  502 -0.12943008346E+02 -0.12001841440E+02 -0.50230708537E+02  0.53241804469E+02  0.00000000000E+00 0.  1.
         -4    1    6    6    0  503  0.23159908046E+02  0.18609823314E+03 -0.47793707215E+02  0.19352822060E+03  0.00000000000E+00 0.  1.
<mgrwt>
<rscale>  0 0.13965831E+04</rscale>
<asrwt>0</asrwt>
<pdfrwt beam="1">  1        2 0.13212146E+00 0.13965831E+04</pdfrwt>
<pdfrwt beam="2">  1       -2 0.87352122E-01 0.13965831E+04</pdfrwt>
<totfact> 0.34499218E+01</totfact>
</mgrwt>
</event>
<event>
12    1  0.4967442E-008  0.1484138E+04  0.7818608E-02  0.8895070E-01
         -2   -1    0    0    0  501 -0.00000000000E+00  0.00000000000E+00  0.41913815828E+03  0.41913815828E+03  0.00000000000E+00 0.  1.
          2   -1    0    0  501    0  0.00000000000E+00 -0.00000000000E+00 -0.13138058348E+04  0.13138058348E+04  0.00000000000E+00 0. -1.
         23    2    1    2    0    0  0.24057108575E+03  0.71358399621E+02 -0.73976605642E+03  0.78646198518E+03  0.91116230169E+02 0.  0.
        254    2    1    2    0    0 -0.24057108575E+03 -0.71358399621E+02 -0.15490162005E+03  0.94648200786E+03  0.89937045249E+03 0.  0.
         23    2    4    4    0    0  0.83587705460E+02 -0.36119350825E+03 -0.29321900025E+03  0.48138015290E+03  0.91114294155E+02 0.  0.
         23    2    4    4    0    0 -0.32415879121E+03  0.28983510863E+03  0.13831738020E+03  0.46510185495E+03  0.90026250084E+02 0.  0.
         13    1    3    3    0    0  0.50030873248E+01 -0.39306529583E+01  0.94370785268E-01  0.63631612665E+01  0.00000000000E+00 0.  1.
        -13    1    3    3    0    0  0.23556799842E+03  0.75289052580E+02 -0.73986042721E+03  0.78009882391E+03  0.00000000000E+00 0. -1.
          2    1    5    5  502    0 -0.17315638009E+02 -0.22881578422E+02 -0.20281664703E+02  0.35138922491E+02  0.00000000000E+00 0. -1.
          3    1    6    6  503    0 -0.83440183509E+02  0.11724915066E+03  0.16560824366E+02  0.14485816670E+03  0.00000000000E+00 0. -1.
         -2    1    5    5    0  502  0.10090334347E+03 -0.33831192983E+03 -0.27293733554E+03  0.44624123041E+03  0.00000000000E+00 0.  1.
         -3    1    6    6    0  503 -0.24071860770E+03  0.17258595797E+03  0.12175655583E+03  0.32024368825E+03  0.00000000000E+00 0.  1.
<mgrwt>
<rscale>  0 0.14841377E+04</rscale>
<asrwt>0</asrwt>
<pdfrwt beam="1">  1        2 0.20212397E+00 0.14841377E+04</pdfrwt>
<pdfrwt beam="2">  1       -2 0.64482794E-01 0.14841377E+04</pdfrwt>
<totfact> 0.34863550E+01</totfact>
</mgrwt>
</event>
<event>
12    1  0.4967442E-008  0.2890967E+04  0.7818608E-02  0.8275570E-01
         -2   -1    0    0    0  501 -0.00000000000E+00  0.00000000000E+00  0.23637751661E+04  0.23637751661E+04  0.00000000000E+00 0.  1.
          2   -1    0    0  501    0  0.00000000000E+00 -0.00000000000E+00 -0.88393467763E+03  0.88393467763E+03  0.00000000000E+00 0. -1.
         23    2    1    2    0    0 -0.35155810619E+03  0.68915919901E+03  0.18445515507E+04  0.20022377478E+04  0.89733337625E+02 0.  0.
        254    2    1    2    0    0  0.35155810619E+03 -0.68915919901E+03 -0.36471106218E+03  0.12454720960E+04  0.90534693870E+03 0.  0.
         23    2    4    4    0    0  0.53588857954E+03 -0.76761705124E+03 -0.40189148877E+03  0.10227169518E+04  0.89558292800E+02 0.  0.
         23    2    4    4    0    0 -0.18433047335E+03  0.78457852232E+02  0.37180426589E+02  0.22275514414E+03  0.90022842306E+02 0.  0.
         13    1    3    3    0    0 -0.22924921687E+02  0.23302172786E+02  0.45981367400E+02  0.56416570605E+02  0.00000000000E+00 0. -1.
        -13    1    3    3    0    0 -0.32863318450E+03  0.66585702622E+03  0.17985701833E+04  0.19458211772E+04  0.00000000000E+00 0.  1.
          1    1    5    5  502    0  0.32533683492E+02 -0.48662776506E+02 -0.28287388593E+01  0.58604676796E+02  0.00000000000E+00 0.  1.
          1    1    6    6  503    0 -0.18722903328E+03  0.69724769837E+02  0.50958617513E+02  0.20618689369E+03  0.00000000000E+00 0. -1.
         -1    1    5    5    0  502  0.50335489605E+03 -0.71895427474E+03 -0.39906274991E+03  0.96411227505E+03  0.00000000000E+00 0. -1.
         -1    1    6    6    0  503  0.28985599279E+01  0.87330823945E+01 -0.13778190924E+02  0.16568250448E+02  0.00000000000E+00 0.  1.
<mgrwt>
<rscale>  0 0.28909672E+04</rscale>
<asrwt>0</asrwt>
<pdfrwt beam="1">  1        2 0.13598995E+00 0.28909672E+04</pdfrwt>
<pdfrwt beam="2">  1       -2 0.36365772E+00 0.28909672E+04</pdfrwt>
<totfact> 0.33093918E-01</totfact>
</mgrwt>
</event>
<event>
12    1  0.4967442E-008  0.1534042E+04  0.7818608E-02  0.8862126E-01
         -1   -1    0    0    0  501 -0.00000000000E+00  0.00000000000E+00  0.86262668268E+03  0.86262668268E+03  0.00000000000E+00 0.  1.
          1   -1    0    0  501    0  0.00000000000E+00 -0.00000000000E+00 -0.68201141320E+03  0.68201141320E+03  0.00000000000E+00 0. -1.
         23    2    1    2    0    0  0.43456185091E+03  0.23153828534E+03 -0.17365671427E+02  0.50156668595E+03  0.93880743845E+02 0.  0.
        254    2    1    2    0    0 -0.43456185091E+03 -0.23153828534E+03  0.19798094090E+03  0.10430714099E+04  0.89796855926E+03 0.  0.
         23    2    4    4    0    0 -0.28952415141E+03  0.31560531663E+03  0.10047178178E+02  0.43972873608E+03  0.99143660426E+02 0.  0.
         23    2    4    4    0    0 -0.14503769950E+03 -0.54714360197E+03  0.18793376272E+03  0.60334267386E+03  0.91111072181E+02 0.  0.
         11    1    3    3    0    0  0.31235089226E+03  0.21026992892E+03 -0.17205478912E+01  0.37653616452E+03  0.00000000000E+00 0. -1.
        -11    1    3    3    0    0  0.12221095865E+03  0.21268356417E+02 -0.15645123536E+02  0.12503052143E+03  0.00000000000E+00 0.  1.
          1    1    5    5  502    0 -0.16433326209E+03  0.10716773312E+03  0.12294233633E+02  0.19657439363E+03  0.00000000000E+00 0. -1.
          3    1    6    6  503    0 -0.24456550029E+02 -0.28958299275E+02 -0.31593025254E+01  0.38035340522E+02  0.00000000000E+00 0. -1.
         -1    1    5    5    0  502 -0.12519088932E+03  0.20843758352E+03 -0.22470554550E+01  0.24315434245E+03  0.00000000000E+00 0.  1.
         -3    1    6    6    0  503 -0.12058114947E+03 -0.51818530270E+03  0.19109306525E+03  0.56530733334E+03  0.00000000000E+00 0.  1.
<mgrwt>
<rscale>  0 0.15340420E+04</rscale>
<asrwt>0</asrwt>
<pdfrwt beam="1">  1        1 0.10492483E+00 0.15340420E+04</pdfrwt>
<pdfrwt beam="2">  1       -1 0.13271180E+00 0.15340420E+04</pdfrwt>
<totfact> 0.13160150E+01</totfact>
</mgrwt>
</event>
<event>
12    1  0.4967442E-008  0.1063693E+04  0.7818608E-02  0.9241320E-01
          2   -1    0    0  501    0  0.00000000000E+00  0.00000000000E+00  0.60997958147E+03  0.60997958147E+03  0.00000000000E+00 0. -1.
         -2   -1    0    0    0  501 -0.00000000000E+00 -0.00000000000E+00 -0.46372146360E+03  0.46372146360E+03  0.00000000000E+00 0.  1.
         23    2    1    2    0    0 -0.10545806372E+03  0.18378909689E+02 -0.47582904502E+02  0.14855819626E+03  0.91357634325E+02 0.  0.
        254    2    1    2    0    0  0.10545806372E+03 -0.18378909689E+02  0.19384102237E+03  0.92514284882E+03  0.89825150222E+03 0.  0.
         23    2    4    4    0    0  0.45202836577E+03  0.11064451419E+03 -0.44038815850E+02  0.47641765308E+03  0.91991906655E+02 0.  0.
         23    2    4    4    0    0 -0.34657030205E+03 -0.12902342388E+03  0.23787983822E+03  0.44872519573E+03  0.89495618235E+02 0.  0.
         11    1    3    3    0    0 -0.59668894352E+02  0.10489737632E+02  0.22368555028E+02  0.64581450919E+02  0.00000000000E+00 0. -1.
        -11    1    3    3    0    0 -0.45789169366E+02  0.78891720565E+01 -0.69951459530E+02  0.83976745337E+02  0.00000000000E+00 0.  1.
          1    1    5    5  502    0  0.20634133719E+01 -0.61091213828E+01  0.60745722751E+01  0.88588637611E+01  0.00000000000E+00 0. -1.
          3    1    6    6  503    0 -0.47703961728E+02 -0.26134843685E+02  0.21773656903E+01  0.54437477351E+02  0.00000000000E+00 0. -1.
         -1    1    5    5    0  502  0.44996495239E+03  0.11675363557E+03 -0.50113388125E+02  0.46755878932E+03  0.00000000000E+00 0.  1.
         -3    1    6    6    0  503 -0.29886634032E+03 -0.10288858020E+03  0.23570247253E+03  0.39428771838E+03  0.00000000000E+00 0.  1.
<mgrwt>
<rscale>  0 0.10636929E+04</rscale>
<asrwt>0</asrwt>
<pdfrwt beam="1">  1        2 0.93843013E-01 0.10636929E+04</pdfrwt>
<pdfrwt beam="2">  1       -2 0.71341764E-01 0.10636929E+04</pdfrwt>
<totfact> 0.86305868E+01</totfact>
</mgrwt>
</event>
<event>
12    1  0.4967442E-008  0.2940051E+04  0.7818608E-02  0.8261060E-01
         -2   -1    0    0    0  501 -0.00000000000E+00  0.00000000000E+00  0.99540309625E+03  0.99540309625E+03  0.00000000000E+00 0.  1.
          2   -1    0    0  501    0  0.00000000000E+00 -0.00000000000E+00 -0.21709547517E+04  0.21709547517E+04  0.00000000000E+00 0. -1.
         23    2    1    2    0    0 -0.90508542917E+03 -0.97643800269E+03 -0.60870545879E+03  0.14667904351E+04  0.91329282073E+02 0.  0.
        254    2    1    2    0    0  0.90508542917E+03  0.97643800269E+03 -0.56684619664E+03  0.16995674128E+04  0.89140561637E+03 0.  0.
         23    2    4    4    0    0  0.20972205839E+03  0.81671417772E+03 -0.48124189198E+03  0.97515878095E+03  0.91298957238E+02 0.  0.
         23    2    4    4    0    0  0.69536337078E+03  0.15972382497E+03 -0.85604304662E+02  0.72440863188E+03  0.91639790927E+02 0.  0.
         11    1    3    3    0    0 -0.59990566901E+03 -0.60219959688E+03 -0.42258320380E+03  0.94926694366E+03  0.00000000000E+00 0. -1.
        -11    1    3    3    0    0 -0.30517976016E+03 -0.37423840581E+03 -0.18612225499E+03  0.51752349145E+03  0.00000000000E+00 0.  1.
          2    1    5    5  502    0  0.63986031936E+02  0.33389601721E+03 -0.23963444491E+03  0.41593921404E+03  0.00000000000E+00 0.  1.
          4    1    6    6  503    0  0.46509291300E+03  0.68865075281E+02 -0.79132855290E+02  0.47677649386E+03  0.00000000000E+00 0. -1.
         -2    1    5    5    0  502  0.14573602646E+03  0.48281816052E+03 -0.24160744707E+03  0.55921956691E+03  0.00000000000E+00 0. -1.
         -4    1    6    6    0  503  0.23027045778E+03  0.90858749686E+02 -0.64714493711E+01  0.24763213801E+03  0.00000000000E+00 0.  1.
<mgrwt>
<rscale>  0 0.29400511E+04</rscale>
<asrwt>0</asrwt>
<pdfrwt beam="1">  1        2 0.33399304E+00 0.29400511E+04</pdfrwt>
<pdfrwt beam="2">  1       -2 0.15313894E+00 0.29400511E+04</pdfrwt>
<totfact> 0.13077985E+00</totfact>
</mgrwt>
</event>
<event>
12    1  0.4967442E-008  0.1218757E+04  0.7818608E-02  0.9096595E-01
         -2   -1    0    0    0  501 -0.00000000000E+00  0.00000000000E+00  0.80959135252E+02  0.80959135252E+02  0.00000000000E+00 0.  1.
          2   -1    0    0  501    0  0.00000000000E+00 -0.00000000000E+00 -0.45867886196E+04  0.45867886196E+04  0.00000000000E+00 0. -1.
         23    2    1    2    0    0 -0.18664024815E+03 -0.14760624894E+03 -0.60489373451E+03  0.65658098324E+03  0.92628130420E+02 0.  0.
        254    2    1    2    0    0  0.18664024815E+03  0.14760624894E+03 -0.39009357499E+04  0.40111667716E+04  0.90307084903E+03 0.  0.
         23    2    4    4    0    0  0.44124994775E+03 -0.16952952514E+03 -0.15287197991E+04  0.16025798471E+04  0.88522121723E+02 0.  0.
         23    2    4    4    0    0 -0.25460969959E+03  0.31713577408E+03 -0.23722159508E+04  0.24085869245E+04  0.92093742752E+02 0.  0.
         13    1    3    3    0    0 -0.42817360307E+02  0.33146118823E+01 -0.65733771690E+02  0.78519053333E+02  0.00000000000E+00 0. -1.
        -13    1    3    3    0    0 -0.14382288785E+03 -0.15092086082E+03 -0.53915996282E+03  0.57806192991E+03  0.00000000000E+00 0.  1.
          4    1    5    5  502    0  0.65096236994E+02  0.32762724338E+01 -0.16457877687E+03  0.17701533218E+03  0.00000000000E+00 0.  1.
          1    1    6    6  503    0 -0.25836860112E+03  0.28546064282E+03 -0.22023214423E+04  0.22357240098E+04  0.00000000000E+00 0. -1.
         -4    1    5    5    0  502  0.37615371075E+03 -0.17280579757E+03 -0.13641410222E+04  0.14255645150E+04  0.00000000000E+00 0. -1.
         -1    1    6    6    0  503  0.37589015247E+01  0.31675131254E+02 -0.16989450847E+03  0.17286291473E+03  0.00000000000E+00 0.  1.
<mgrwt>
<rscale>  0 0.12187575E+04</rscale>
<asrwt>0</asrwt>
<pdfrwt beam="1">  1        2 0.70565983E+00 0.12187575E+04</pdfrwt>
<pdfrwt beam="2">  1       -2 0.12455251E-01 0.12187575E+04</pdfrwt>
<totfact> 0.50562287E+00</totfact>
</mgrwt>
</event>
<event>
12    1  0.4967442E-008  0.1423041E+04  0.7818608E-02  0.8937307E-01
         -2   -1    0    0    0  501 -0.00000000000E+00  0.00000000000E+00  0.32627571799E+03  0.32627571799E+03  0.00000000000E+00 0.  1.
          2   -1    0    0  501    0  0.00000000000E+00 -0.00000000000E+00 -0.15516364995E+04  0.15516364995E+04  0.00000000000E+00 0. -1.
         23    2    1    2    0    0  0.69207212690E+01  0.33945783900E+03 -0.14744866954E+03  0.38100262759E+03  0.90235088765E+02 0.  0.
        254    2    1    2    0    0 -0.69207212690E+01 -0.33945783900E+03 -0.10779121120E+04  0.14969095899E+04  0.98161310017E+03 0.  0.
         23    2    4    4    0    0  0.10350769424E+03  0.32485607293E+03 -0.28284251042E+03  0.45091122079E+03  0.84117373024E+02 0.  0.
         23    2    4    4    0    0 -0.11042841551E+03 -0.66431391193E+03 -0.79506960159E+03  0.10459983692E+04  0.92029931937E+02 0.  0.
         11    1    3    3    0    0  0.12802653562E+02  0.26225902493E+03 -0.70558475936E+02  0.27188637814E+03  0.00000000000E+00 0.  1.
        -11    1    3    3    0    0 -0.58819322930E+01  0.77198814068E+02 -0.76890193604E+02  0.10911624945E+03  0.00000000000E+00 0. -1.
          3    1    6    6  502    0 -0.21625813721E+02 -0.21456535614E+02 -0.29897673832E+02  0.42684067756E+02  0.00000000000E+00 0. -1.
          3    1    5    5  503    0  0.11741250257E+02 -0.14198757248E+01 -0.58865216261E+01  0.13210758552E+02  0.00000000000E+00 0. -1.
         -3    1    5    5    0  503  0.91766443986E+02  0.32627594866E+03 -0.27695598879E+03  0.43770046224E+03  0.00000000000E+00 0.  1.
         -3    1    6    6    0  502 -0.88802601791E+02 -0.64285737631E+03 -0.76517192775E+03  0.10033143014E+04  0.00000000000E+00 0.  1.
<mgrwt>
<rscale>  0 0.14230408E+04</rscale>
<asrwt>0</asrwt>
<pdfrwt beam="1">  1        2 0.23871331E+00 0.14230408E+04</pdfrwt>
<pdfrwt beam="2">  1       -2 0.50196265E-01 0.14230408E+04</pdfrwt>
<totfact> 0.43293610E+01</totfact>
</mgrwt>
</event>
<event>
12    1  0.4967442E-008  0.1696825E+04  0.7818608E-02  0.8763177E-01
         -2   -1    0    0    0  501 -0.00000000000E+00  0.00000000000E+00  0.13309769845E+04  0.13309769845E+04  0.00000000000E+00 0.  1.
          2   -1    0    0  501    0  0.00000000000E+00 -0.00000000000E+00 -0.54080860665E+03  0.54080860665E+03  0.00000000000E+00 0. -1.
         23    2    1    2    0    0 -0.43270669095E+03  0.18159266849E+03 -0.13545311115E+03  0.49723470605E+03  0.93187069594E+02 0.  0.
        254    2    1    2    0    0  0.43270669095E+03 -0.18159266849E+03  0.92562148901E+03  0.13745508851E+04  0.90133457559E+03 0.  0.
         23    2    4    4    0    0 -0.25597414788E+03 -0.15843095309E+03  0.21834996463E+03  0.38283929898E+03  0.90918042834E+02 0.  0.
         23    2    4    4    0    0  0.68868083883E+03 -0.23161715405E+02  0.70727152438E+03  0.99171158611E+03  0.91875448329E+02 0.  0.
         13    1    3    3    0    0 -0.13170918743E+03  0.93042598856E+02 -0.18172694988E+02  0.16227902544E+03  0.00000000000E+00 0.  1.
        -13    1    3    3    0    0 -0.30099750352E+03  0.88550069637E+02 -0.11728041616E+03  0.33495568061E+03  0.00000000000E+00 0. -1.
          2    1    5    5  502    0 -0.41012810633E+02 -0.70645750020E+02  0.46783858744E+02  0.94136082726E+02  0.00000000000E+00 0. -1.
          4    1    6    6  503    0  0.83568020197E+01  0.92416358261E+01  0.50481479744E+01  0.13443502918E+02  0.00000000000E+00 0. -1.
         -2    1    5    5    0  502 -0.21496133725E+03 -0.87785203068E+02  0.17156610589E+03  0.28870321626E+03  0.00000000000E+00 0.  1.
         -4    1    6    6    0  503  0.68032403681E+03 -0.32403351232E+02  0.70222337640E+03  0.97826808320E+03  0.00000000000E+00 0.  1.
<mgrwt>
<rscale>  0 0.16968250E+04</rscale>
<asrwt>0</asrwt>
<pdfrwt beam="1">  1        2 0.83201324E-01 0.16968250E+04</pdfrwt>
<pdfrwt beam="2">  1       -2 0.20476569E+00 0.16968250E+04</pdfrwt>
<totfact> 0.66114245E+00</totfact>
</mgrwt>
</event>
<event>
12    1  0.4967442E-008  0.1295854E+04  0.7818608E-02  0.9032859E-01
         -1   -1    0    0    0  501 -0.00000000000E+00  0.00000000000E+00  0.16292633879E+03  0.16292633879E+03  0.00000000000E+00 0.  1.
          1   -1    0    0  501    0  0.00000000000E+00 -0.00000000000E+00 -0.25766838501E+04  0.25766838501E+04  0.00000000000E+00 0. -1.
         23    2    1    2    0    0 -0.39431684574E-01  0.31812796772E+03 -0.48030442310E+03  0.58304247609E+03  0.89670422526E+02 0.  0.
        254    2    1    2    0    0  0.39431684574E-01 -0.31812796772E+03 -0.19334530882E+04  0.21565677128E+04  0.90074305448E+03 0.  0.
         23    2    4    4    0    0  0.24286563353E+03 -0.20549034263E+03 -0.18228593129E+04  0.18528220248E+04  0.94463664876E+02 0.  0.
         23    2    4    4    0    0 -0.24282620184E+03 -0.11263762509E+03 -0.11059377524E+03  0.30374568797E+03  0.91535025804E+02 0.  0.
         13    1    3    3    0    0 -0.22084355215E+02  0.28897172211E+03 -0.39223608048E+03  0.48768998119E+03  0.00000000000E+00 0.  1.
        -13    1    3    3    0    0  0.22044923531E+02  0.29156245609E+02 -0.88068342621E+02  0.95352494899E+02  0.00000000000E+00 0. -1.
          2    1    5    5  502    0  0.21147126348E+03 -0.21189830600E+03 -0.16733188382E+04  0.16998873262E+04  0.00000000000E+00 0. -1.
          3    1    6    6  503    0 -0.18396444743E+03 -0.47399418587E+02 -0.48239801135E+02  0.19600178880E+03  0.00000000000E+00 0. -1.
         -2    1    5    5    0  502  0.31394370054E+02  0.64079633694E+01 -0.14954047469E+03  0.15293469860E+03  0.00000000000E+00 0.  1.
         -3    1    6    6    0  503 -0.58861754418E+02 -0.65238206505E+02 -0.62353974107E+02  0.10774389917E+03  0.00000000000E+00 0.  1.
<mgrwt>
<rscale>  0 0.12958544E+04</rscale>
<asrwt>0</asrwt>
<pdfrwt beam="1">  1        1 0.39641289E+00 0.12958544E+04</pdfrwt>
<pdfrwt beam="2">  1       -1 0.25065591E-01 0.12958544E+04</pdfrwt>
<totfact> 0.16507310E+01</totfact>
</mgrwt>
</event>
<event>
12    1  0.4967442E-008  0.1699064E+04  0.7818608E-02  0.8761898E-01
         -2   -1    0    0    0  501 -0.00000000000E+00  0.00000000000E+00  0.36048577215E+03  0.36048577215E+03  0.00000000000E+00 0.  1.
          2   -1    0    0  501    0  0.00000000000E+00 -0.00000000000E+00 -0.20020339765E+04  0.20020339765E+04  0.00000000000E+00 0. -1.
         23    2    1    2    0    0  0.10722886235E+03 -0.14583415060E+03  0.21277524786E+03  0.29482611231E+03  0.94252331514E+02 0.  0.
        254    2    1    2    0    0 -0.10722886235E+03  0.14583415060E+03 -0.18543234522E+04  0.20676936363E+04  0.89670278235E+03 0.  0.
         23    2    4    4    0    0 -0.40252862996E+03 -0.11541245903E+03 -0.13760716659E+04  0.14411893282E+04  0.90022865185E+02 0.  0.
         23    2    4    4    0    0  0.29529976761E+03  0.26124660963E+03 -0.47825178632E+03  0.62650430817E+03  0.91275041796E+02 0.  0.
         13    1    3    3    0    0  0.83172095847E+02 -0.12698136277E+03  0.21609621902E+03  0.26408225971E+03  0.00000000000E+00 0.  1.
        -13    1    3    3    0    0  0.24056766507E+02 -0.18852787832E+02 -0.33209711528E+01  0.30743852608E+02  0.00000000000E+00 0. -1.
          4    1    5    5  502    0 -0.39374924178E+03 -0.11493436563E+03 -0.13709873385E+04  0.14310327236E+04  0.00000000000E+00 0. -1.
          1    1    6    6  503    0  0.20598312870E+03  0.19600063144E+03 -0.27754453071E+03  0.39733646115E+03  0.00000000000E+00 0. -1.
         -4    1    5    5    0  502 -0.87793881836E+01 -0.47809339451E+00 -0.50843274042E+01  0.10156604518E+02  0.00000000000E+00 0.  1.
         -1    1    6    6    0  503  0.89316638904E+02  0.65245978192E+02 -0.20070725561E+03  0.22916784703E+03  0.00000000000E+00 0.  1.
<mgrwt>
<rscale>  0 0.16990642E+04</rscale>
<asrwt>0</asrwt>
<pdfrwt beam="1">  1        2 0.30800524E+00 0.16990642E+04</pdfrwt>
<pdfrwt beam="2">  1       -2 0.55459348E-01 0.16990642E+04</pdfrwt>
<totfact> 0.19378756E+01</totfact>
</mgrwt>
</event>
<event>
12    1  0.6401985E-008  0.1626955E+04  0.7818608E-02  0.8804158E-01
          1   -1    0    0  501    0  0.00000000000E+00  0.00000000000E+00  0.12604575397E+04  0.12604575397E+04  0.00000000000E+00 0. -1.
         -1   -1    0    0    0  501 -0.00000000000E+00 -0.00000000000E+00 -0.52500406598E+03  0.52500406598E+03  0.00000000000E+00 0.  1.
         23    2    1    2    0    0  0.29204949152E+02  0.24938037985E+03  0.79661309532E+03  0.84127919487E+03  0.10057214908E+03 0.  0.
        254    2    1    2    0    0 -0.29204949152E+02 -0.24938037985E+03 -0.61159621641E+02  0.94418241078E+03  0.90812797699E+03 0.  0.
         23    2    4    4    0    0 -0.19432232246E+03 -0.35805898073E+03  0.30586256698E+03  0.51752203419E+03  0.91157815397E+02 0.  0.
         23    2    4    4    0    0  0.16511737331E+03  0.10867860088E+03 -0.36702218862E+03  0.42666037659E+03  0.90879066646E+02 0.  0.
         11    1    3    3    0    0  0.59980895483E+02  0.21892025637E+03  0.68013630951E+03  0.71701407656E+03  0.00000000000E+00 0. -1.
        -11    1    3    3    0    0 -0.30775946331E+02  0.30460123485E+02  0.11647678581E+03  0.12426511831E+03  0.00000000000E+00 0.  1.
          4    1    5    5  502    0  0.87854037258E+01 -0.32354829542E+02  0.21623557233E+02  0.39894818470E+02  0.00000000000E+00 0. -1.
          3    1    6    6  503    0  0.26990584862E+02  0.68402027937E+02 -0.13170229628E+03  0.15084039227E+03  0.00000000000E+00 0. -1.
         -4    1    5    5    0  502 -0.20310772619E+03 -0.32570415119E+03  0.28423900974E+03  0.47762721572E+03  0.00000000000E+00 0.  1.
         -3    1    6    6    0  503  0.13812678845E+03  0.40276572943E+02 -0.23531989234E+03  0.27581998431E+03  0.00000000000E+00 0.  1.
<mgrwt>
<rscale>  0 0.16269546E+04</rscale>
<asrwt>0</asrwt>
<pdfrwt beam="1">  1        1 0.19391654E+00 0.16269546E+04</pdfrwt>
<pdfrwt beam="2">  1       -1 0.80769856E-01 0.16269546E+04</pdfrwt>
<totfact> 0.14131597E+01</totfact>
</mgrwt>
</event>
<event>
12    1  0.4967442E-008  0.2255854E+04  0.7818608E-02  0.8495533E-01
          1   -1    0    0  501    0  0.00000000000E+00  0.00000000000E+00  0.21412831168E+04  0.21412831168E+04  0.00000000000E+00 0. -1.
         -1   -1    0    0    0  501 -0.00000000000E+00 -0.00000000000E+00 -0.59413899137E+03  0.59413899137E+03  0.00000000000E+00 0.  1.
         23    2    1    2    0    0 -0.14952299109E+03  0.75437293089E+02  0.17754200051E+04  0.17870099478E+04  0.11506714849E+03 0.  0.
        254    2    1    2    0    0  0.14952299109E+03 -0.75437293089E+02 -0.22827587967E+03  0.94841216045E+03  0.90516729879E+03 0.  0.
         23    2    4    4    0    0 -0.54763142228E+02 -0.38321266319E+03  0.13673539414E+03  0.42045917737E+03  0.90765658950E+02 0.  0.
         23    2    4    4    0    0  0.20428613332E+03  0.30777537011E+03 -0.36501127381E+03  0.52795298308E+03  0.95092689641E+02 0.  0.
         13    1    3    3    0    0  0.38961531816E+00 -0.23017261310E+02  0.25882212233E+03  0.25984387067E+03  0.00000000000E+00 0. -1.
        -13    1    3    3    0    0 -0.14991260641E+03  0.98454554399E+02  0.15165978828E+04  0.15271660771E+04  0.00000000000E+00 0.  1.
          4    1    5    5  502    0 -0.33445501246E+02 -0.36940403845E+03  0.13595984140E+03  0.39504812827E+03  0.00000000000E+00 0. -1.
          3    1    6    6  503    0  0.19253466834E+03  0.31083679937E+03 -0.36373171751E+03  0.51574206410E+03  0.00000000000E+00 0. -1.
         -4    1    5    5    0  502 -0.21317640982E+02 -0.13808624746E+02  0.77555274345E+00  0.25411049102E+02  0.00000000000E+00 0.  1.
         -3    1    6    6    0  503  0.11751464975E+02 -0.30614292591E+01 -0.12795563037E+01  0.12210918987E+02  0.00000000000E+00 0.  1.
<mgrwt>
<rscale>  0 0.22558544E+04</rscale>
<asrwt>0</asrwt>
<pdfrwt beam="1">  1        1 0.32942817E+00 0.22558544E+04</pdfrwt>
<pdfrwt beam="2">  1       -1 0.91406000E-01 0.22558544E+04</pdfrwt>
<totfact> 0.25292630E+00</totfact>
</mgrwt>
</event>
<event>
12    1  0.4967442E-008  0.1449236E+04  0.7818608E-02  0.8918931E-01
          1   -1    0    0  501    0  0.00000000000E+00  0.00000000000E+00  0.69937985494E+03  0.69937985494E+03  0.00000000000E+00 0. -1.
         -1   -1    0    0    0  501 -0.00000000000E+00 -0.00000000000E+00 -0.75076649852E+03  0.75076649852E+03  0.00000000000E+00 0.  1.
         23    2    1    2    0    0  0.15510501403E+03  0.16912669955E+03  0.35511000652E+03  0.43220416146E+03  0.89643262845E+02 0.  0.
        254    2    1    2    0    0 -0.15510501403E+03 -0.16912669955E+03 -0.40649665011E+03  0.10179421920E+04  0.90460232911E+03 0.  0.
         23    2    4    4    0    0 -0.19953845852E+03  0.28662659519E+03  0.50227408094E+02  0.36474779544E+03  0.92454098105E+02 0.  0.
         23    2    4    4    0    0  0.44433444487E+02 -0.45575329474E+03 -0.45672405820E+03  0.65319439656E+03  0.91545932214E+02 0.  0.
         13    1    3    3    0    0  0.34295991954E+02  0.10279410642E+03  0.14809304854E+03  0.18350584297E+03  0.00000000000E+00 0. -1.
        -13    1    3    3    0    0  0.12080902208E+03  0.66332593126E+02  0.20701695798E+03  0.24869831849E+03  0.00000000000E+00 0.  1.
          2    1    5    5  502    0 -0.77823250847E+02  0.43245975863E+02  0.16479167698E+02  0.90544109519E+02  0.00000000000E+00 0. -1.
          4    1    6    6  503    0  0.47167760759E+02 -0.28927826433E+03 -0.34496099214E+03  0.45266411163E+03  0.00000000000E+00 0. -1.
         -2    1    5    5    0  502 -0.12171520767E+03  0.24338061933E+03  0.33748240396E+02  0.27420368592E+03  0.00000000000E+00 0.  1.
         -4    1    6    6    0  503 -0.27343162716E+01 -0.16647503041E+03 -0.11176306606E+03  0.20053028492E+03  0.00000000000E+00 0.  1.
<mgrwt>
<rscale>  0 0.14492356E+04</rscale>
<asrwt>0</asrwt>
<pdfrwt beam="1">  1        1 0.10759690E+00 0.14492356E+04</pdfrwt>
<pdfrwt beam="2">  1       -1 0.11550254E+00 0.14492356E+04</pdfrwt>
<totfact> 0.18004968E+01</totfact>
</mgrwt>
</event>
<event>
12    1  0.4967442E-008  0.1569136E+04  0.7818608E-02  0.8839737E-01
          1   -1    0    0  501    0  0.00000000000E+00  0.00000000000E+00  0.17595859724E+04  0.17595859724E+04  0.00000000000E+00 0. -1.
         -1   -1    0    0    0  501 -0.00000000000E+00 -0.00000000000E+00 -0.34982475463E+03  0.34982475463E+03  0.00000000000E+00 0.  1.
         23    2    1    2    0    0  0.20908039195E+03 -0.35555658567E+02  0.10983275889E+04  0.11229027711E+04  0.98022067544E+02 0.  0.
        254    2    1    2    0    0 -0.20908039195E+03  0.35555658567E+02  0.31143362887E+03  0.98650795590E+03  0.91171718570E+03 0.  0.
         23    2    4    4    0    0  0.23753622883E+03  0.12377427122E+03 -0.16056644047E+03  0.32499676950E+03  0.89987711147E+02 0.  0.
         23    2    4    4    0    0 -0.44661662078E+03 -0.88218612656E+02  0.47200006934E+03  0.66151118639E+03  0.86971574053E+02 0.  0.
         11    1    3    3    0    0  0.11953841959E+03 -0.30091359956E+02  0.39261322143E+03  0.41150949605E+03  0.00000000000E+00 0.  1.
        -11    1    3    3    0    0  0.89541972359E+02 -0.54642986111E+01  0.70571436745E+03  0.71139327506E+03  0.00000000000E+00 0. -1.
          1    1    5    5  502    0  0.46989379233E+02  0.52842024837E+02 -0.87553712008E+01  0.71252634158E+02  0.00000000000E+00 0. -1.
          3    1    6    6  503    0 -0.51502104123E+02 -0.38097389703E+02  0.82276068532E+02  0.10427477780E+03  0.00000000000E+00 0. -1.
         -1    1    5    5    0  502  0.19054684960E+03  0.70932246386E+02 -0.15181106927E+03  0.25374413534E+03  0.00000000000E+00 0.  1.
         -3    1    6    6    0  503 -0.39511451665E+03 -0.50121222954E+02  0.38972400081E+03  0.55723640860E+03  0.00000000000E+00 0.  1.
<mgrwt>
<rscale>  0 0.15691357E+04</rscale>
<asrwt>0</asrwt>
<pdfrwt beam="1">  1        1 0.27070553E+00 0.15691357E+04</pdfrwt>
<pdfrwt beam="2">  1       -1 0.53819194E-01 0.15691357E+04</pdfrwt>
<totfact> 0.14550651E+01</totfact>
</mgrwt>
</event>
<event>
12    1  0.4967442E-008  0.2022511E+04  0.7818608E-02  0.8596168E-01
          1   -1    0    0  501    0  0.00000000000E+00  0.00000000000E+00  0.10355741042E+04  0.10355741042E+04  0.00000000000E+00 0. -1.
         -1   -1    0    0    0  501 -0.00000000000E+00 -0.00000000000E+00 -0.98750802608E+03  0.98750802608E+03  0.00000000000E+00 0.  1.
         23    2    1    2    0    0  0.25109670147E+03  0.52439819107E+03 -0.47561541078E+03  0.75643528476E+03  0.89113998721E+02 0.  0.
        254    2    1    2    0    0 -0.25109670147E+03 -0.52439819107E+03  0.52368148887E+03  0.12666468455E+04  0.99604664204E+03 0.  0.
         23    2    4    4    0    0  0.45284202883E+02  0.25819130574E+03  0.27070228638E+03  0.38757272290E+03  0.90661338474E+02 0.  0.
         23    2    4    4    0    0 -0.29638090435E+03 -0.78258949682E+03  0.25297920249E+03  0.87907412258E+03  0.92113381862E+02 0.  0.
         11    1    3    3    0    0  0.15905650415E+03  0.41402569835E+03 -0.34019953869E+03  0.55897403923E+03  0.00000000000E+00 0.  1.
        -11    1    3    3    0    0  0.92040197320E+02  0.11037249272E+03 -0.13541587208E+03  0.19746124552E+03  0.00000000000E+00 0. -1.
          4    1    6    6  502    0 -0.16296307852E+03 -0.31092398821E+03  0.12292082423E+03  0.37194115184E+03  0.00000000000E+00 0. -1.
          4    1    5    5  503    0  0.13496463097E+01  0.29020218271E+02 -0.14413390983E+01  0.29087318062E+02  0.00000000000E+00 0.  1.
         -4    1    5    5    0  503  0.43934556573E+02  0.22917108747E+03  0.27214362548E+03  0.35848540484E+03  0.00000000000E+00 0. -1.
         -4    1    6    6    0  502 -0.13341782583E+03 -0.47166550861E+03  0.13005837825E+03  0.50713297074E+03  0.00000000000E+00 0.  1.
<mgrwt>
<rscale>  0 0.20225111E+04</rscale>
<asrwt>0</asrwt>
<pdfrwt beam="1">  1        1 0.15931909E+00 0.20225111E+04</pdfrwt>
<pdfrwt beam="2">  1       -1 0.15192431E+00 0.20225111E+04</pdfrwt>
<totfact> 0.44310179E+00</totfact>
</mgrwt>
</event>
<event>
12    1  0.4967442E-008  0.1918290E+04  0.7818608E-02  0.8645805E-01
          2   -1    0    0  501    0  0.00000000000E+00  0.00000000000E+00  0.12961929622E+04  0.12961929622E+04  0.00000000000E+00 0. -1.
         -2   -1    0    0    0  501 -0.00000000000E+00 -0.00000000000E+00 -0.70973929581E+03  0.70973929581E+03  0.00000000000E+00 0.  1.
         23    2    1    2    0    0 -0.10403243564E+03 -0.13432730556E+03  0.98903415736E+03  0.10075824306E+04  0.90372657776E+02 0.  0.
        254    2    1    2    0    0  0.10403243564E+03  0.13432730556E+03 -0.40258049098E+03  0.99834982744E+03  0.89764400157E+03 0.  0.
         23    2    4    4    0    0  0.14242765937E+03 -0.30102735522E+03 -0.42722416425E+03  0.54976715607E+03  0.93916625953E+02 0.  0.
         23    2    4    4    0    0 -0.38395223735E+02  0.43535466078E+03  0.24643673271E+02  0.44858267137E+03  0.98036873426E+02 0.  0.
         13    1    3    3    0    0 -0.39883307617E+02 -0.36308787850E+02  0.56801689477E+03  0.57057181761E+03  0.00000000000E+00 0. -1.
        -13    1    3    3    0    0 -0.64149128019E+02 -0.98018517709E+02  0.42101726259E+03  0.43701061296E+03  0.00000000000E+00 0.  1.
          4    1    5    5  502    0  0.11578213018E+03 -0.27701451413E+03 -0.33002268123E+03  0.44615861846E+03  0.00000000000E+00 0. -1.
          3    1    6    6  503    0 -0.69548057514E+02  0.32461182476E+03  0.59452439711E+01  0.33203179818E+03  0.00000000000E+00 0. -1.
         -4    1    5    5    0  502  0.26645529186E+02 -0.24012841096E+02 -0.97201483024E+02  0.10360853761E+03  0.00000000000E+00 0.  1.
         -3    1    6    6    0  503  0.31152833779E+02  0.11074283602E+03  0.18698429300E+02  0.11655087319E+03  0.00000000000E+00 0.  1.
<mgrwt>
<rscale>  0 0.19182899E+04</rscale>
<asrwt>0</asrwt>
<pdfrwt beam="1">  1        2 0.19941430E+00 0.19182899E+04</pdfrwt>
<pdfrwt beam="2">  1       -2 0.10919066E+00 0.19182899E+04</pdfrwt>
<totfact> 0.10395801E+01</totfact>
</mgrwt>
</event>
<event>
12    1  0.4967442E-008  0.1178189E+04  0.7818608E-02  0.9132164E-01
          3   -1    0    0  501    0  0.00000000000E+00  0.00000000000E+00  0.20131966396E+03  0.20131966396E+03  0.00000000000E+00 0. -1.
         -3   -1    0    0    0  501 -0.00000000000E+00 -0.00000000000E+00 -0.17237888301E+04  0.17237888301E+04  0.00000000000E+00 0.  1.
         23    2    1    2    0    0  0.81640088580E+02 -0.20842254134E+03 -0.25779619073E+03  0.35308902558E+03  0.90044012722E+02 0.  0.
        254    2    1    2    0    0 -0.81640088580E+02  0.20842254134E+03 -0.12646729754E+04  0.15720194685E+04  0.90650009087E+03 0.  0.
         23    2    4    4    0    0  0.28960130889E+03  0.38801958513E+03 -0.52196764057E+03  0.71802315341E+03  0.93160691694E+02 0.  0.
         23    2    4    4    0    0 -0.37124139747E+03 -0.17959704378E+03 -0.74270533481E+03  0.85399631504E+03  0.87311044101E+02 0.  0.
         13    1    3    3    0    0  0.56338001149E+02 -0.90526546094E+02 -0.18117972103E+03  0.21022634762E+03  0.00000000000E+00 0.  1.
        -13    1    3    3    0    0  0.25302087430E+02 -0.11789599525E+03 -0.76616469694E+02  0.14286267796E+03  0.00000000000E+00 0. -1.
          4    1    5    5  502    0  0.22895740502E+03  0.35018944023E+03 -0.41446149427E+03  0.58892484036E+03  0.00000000000E+00 0. -1.
          3    1    6    6  503    0 -0.32467415711E+03 -0.16502873282E+03 -0.70032153048E+03  0.78936559148E+03  0.00000000000E+00 0. -1.
         -4    1    5    5    0  502  0.60643903870E+02  0.37830144900E+02 -0.10750614631E+03  0.12909831306E+03  0.00000000000E+00 0.  1.
         -3    1    6    6    0  503 -0.46567240365E+02 -0.14568310960E+02 -0.42383804321E+02  0.64630723562E+02  0.00000000000E+00 0.  1.
<mgrwt>
<rscale>  0 0.11781894E+04</rscale>
<asrwt>0</asrwt>
<pdfrwt beam="1">  1        3 0.30972255E-01 0.11781894E+04</pdfrwt>
<pdfrwt beam="2">  1       -3 0.26519829E+00 0.11781894E+04</pdfrwt>
<totfact> 0.15907535E+00</totfact>
</mgrwt>
</event>
<event>
12    1  0.4967442E-008  0.2926034E+04  0.7818608E-02  0.8265174E-01
         -2   -1    0    0    0  501 -0.00000000000E+00  0.00000000000E+00  0.54158090460E+03  0.54158090460E+03  0.00000000000E+00 0.  1.
          2   -1    0    0  501    0  0.00000000000E+00 -0.00000000000E+00 -0.39521675162E+04  0.39521675162E+04  0.00000000000E+00 0. -1.
         23    2    1    2    0    0 -0.91151600635E+03 -0.24571358576E+03 -0.29674936387E+04  0.31154568835E+04  0.93896225497E+02 0.  0.
        254    2    1    2    0    0  0.91151600635E+03  0.24571358576E+03 -0.44309297289E+03  0.13782915373E+04  0.90117677681E+03 0.  0.
         23    2    4    4    0    0  0.41012138735E+03 -0.32226849622E+03 -0.27531981915E+03  0.59705915949E+03  0.92855269639E+02 0.  0.
         23    2    4    4    0    0  0.50139461900E+03  0.56798208197E+03 -0.16777315374E+03  0.78123237779E+03  0.90421167816E+02 0.  0.
         13    1    3    3    0    0 -0.44954403541E+03 -0.11552262627E+03 -0.13060276763E+04  0.13860532487E+04  0.00000000000E+00 0. -1.
        -13    1    3    3    0    0 -0.46197197094E+03 -0.13019095949E+03 -0.16614659624E+04  0.17294036348E+04  0.00000000000E+00 0.  1.
          2    1    5    5  502    0  0.21470975506E+03 -0.11869441786E+03 -0.10056974880E+03  0.26514697457E+03  0.00000000000E+00 0. -1.
          4    1    6    6  503    0  0.71595571979E+01  0.10948849359E+02  0.89696912703E+01  0.15861649443E+02  0.00000000000E+00 0. -1.
         -2    1    5    5    0  502  0.19541163229E+03 -0.20357407835E+03 -0.17475007035E+03  0.33191218492E+03  0.00000000000E+00 0.  1.
         -4    1    6    6    0  503  0.49423506180E+03  0.55703323261E+03 -0.17674284501E+03  0.76537072835E+03  0.00000000000E+00 0.  1.
<mgrwt>
<rscale>  0 0.29260338E+04</rscale>
<asrwt>0</asrwt>
<pdfrwt beam="1">  1        2 0.60802575E+00 0.29260338E+04</pdfrwt>
<pdfrwt beam="2">  1       -2 0.83320142E-01 0.29260338E+04</pdfrwt>
<totfact> 0.40582956E-01</totfact>
</mgrwt>
</event>
<event>
12    1  0.4967442E-008  0.2823765E+04  0.7818608E-02  0.8295928E-01
         -1   -1    0    0    0  501 -0.00000000000E+00  0.00000000000E+00  0.96350569722E+03  0.96350569722E+03  0.00000000000E+00 0.  1.
          1   -1    0    0  501    0  0.00000000000E+00 -0.00000000000E+00 -0.20689159470E+04  0.20689159470E+04  0.00000000000E+00 0. -1.
         23    2    1    2    0    0  0.23983688092E+03  0.12358906716E+04 -0.62882020026E+03  0.14102365681E+04  0.91677980957E+02 0.  0.
        254    2    1    2    0    0 -0.23983688092E+03 -0.12358906716E+04 -0.47659004954E+03  0.16221850762E+04  0.90520653141E+03 0.  0.
         23    2    4    4    0    0  0.24418603729E+03 -0.90512771517E+03 -0.40331232392E+03  0.10246127223E+04  0.91035149742E+02 0.  0.
         23    2    4    4    0    0 -0.48402291820E+03 -0.33076295638E+03 -0.73277725614E+02  0.59757235386E+03  0.89670365045E+02 0.  0.
         13    1    3    3    0    0  0.23443111481E+03  0.10694068330E+04 -0.52732511929E+03  0.12151792886E+04  0.00000000000E+00 0. -1.
        -13    1    3    3    0    0  0.54057661082E+01  0.16648383861E+03 -0.10149508097E+03  0.19505727950E+03  0.00000000000E+00 0.  1.
          2    1    5    5  502    0  0.16872479810E+03 -0.45096789066E+03 -0.20888462038E+03  0.52485510432E+03  0.00000000000E+00 0. -1.
          4    1    6    6  503    0 -0.37714761624E+03 -0.28226117755E+03 -0.88202605955E+02  0.47926130293E+03  0.00000000000E+00 0. -1.
         -2    1    5    5    0  502  0.75461239183E+02 -0.45415982452E+03 -0.19442770355E+03  0.49975761798E+03  0.00000000000E+00 0.  1.
         -4    1    6    6    0  503 -0.10687530197E+03 -0.48501778835E+02  0.14924880341E+02  0.11831105094E+03  0.00000000000E+00 0.  1.
<mgrwt>
<rscale>  0 0.28237651E+04</rscale>
<asrwt>0</asrwt>
<pdfrwt beam="1">  1        1 0.31829476E+00 0.28237651E+04</pdfrwt>
<pdfrwt beam="2">  1       -1 0.14823164E+00 0.28237651E+04</pdfrwt>
<totfact> 0.83256939E-01</totfact>
</mgrwt>
</event>
<event>
12    1  0.4967442E-008  0.2011830E+04  0.7818608E-02  0.8601109E-01
         -1   -1    0    0    0  501 -0.00000000000E+00  0.00000000000E+00  0.36688170175E+03  0.36688170175E+03  0.00000000000E+00 0.  1.
          1   -1    0    0  501    0  0.00000000000E+00 -0.00000000000E+00 -0.27580155066E+04  0.27580155066E+04  0.00000000000E+00 0. -1.
         23    2    1    2    0    0  0.29521216625E+03 -0.42865986035E+03 -0.18859381044E+04  0.19586151753E+04  0.92257099737E+02 0.  0.
        254    2    1    2    0    0 -0.29521216625E+03  0.42865986035E+03 -0.50519570042E+03  0.11662820330E+04  0.91328614671E+03 0.  0.
         23    2    4    4    0    0  0.20965934221E+03 -0.12555274880E+03 -0.26903806835E+03  0.37484328977E+03  0.91681389391E+02 0.  0.
         23    2    4    4    0    0 -0.50487150846E+03  0.55421260915E+03 -0.23615763207E+03  0.79143874322E+03  0.92509463751E+02 0.  0.
         13    1    3    3    0    0  0.29467710004E+03 -0.38967807988E+03 -0.17758924554E+04  0.18418679682E+04  0.00000000000E+00 0. -1.
        -13    1    3    3    0    0  0.53506621132E+00 -0.38981780469E+02 -0.11004564899E+03  0.11674720711E+03  0.00000000000E+00 0.  1.
          4    1    5    5  502    0  0.19212810274E+03 -0.13269624702E+03 -0.26860509739E+03  0.35590757252E+03  0.00000000000E+00 0. -1.
          1    1    6    6  503    0 -0.49344504072E+03  0.53277807308E+03 -0.21043011945E+03  0.75605642550E+03  0.00000000000E+00 0. -1.
         -4    1    5    5    0  502  0.17531239464E+02  0.71434982215E+01 -0.43297096528E+00  0.18935717252E+02  0.00000000000E+00 0.  1.
         -1    1    6    6    0  503 -0.11426467743E+02  0.21434536070E+02 -0.25727512620E+02  0.35382317719E+02  0.00000000000E+00 0.  1.
<mgrwt>
<rscale>  0 0.20118304E+04</rscale>
<asrwt>0</asrwt>
<pdfrwt beam="1">  1        1 0.42431008E+00 0.20118304E+04</pdfrwt>
<pdfrwt beam="2">  1       -1 0.56443339E-01 0.20118304E+04</pdfrwt>
<totfact> 0.26308743E+00</totfact>
</mgrwt>
</event>
<event>
12    1  0.4967442E-008  0.1203418E+04  0.7818608E-02  0.9109870E-01
          2   -1    0    0  501    0  0.00000000000E+00  0.00000000000E+00  0.56655890200E+03  0.56655890200E+03  0.00000000000E+00 0. -1.
         -2   -1    0    0    0  501 -0.00000000000E+00 -0.00000000000E+00 -0.63903944421E+03  0.63903944421E+03  0.00000000000E+00 0.  1.
         23    2    1    2    0    0  0.87181028824E+02  0.26396423665E+02 -0.25144275482E+03  0.28396995101E+03  0.95489115375E+02 0.  0.
        254    2    1    2    0    0 -0.87181028824E+02 -0.26396423665E+02  0.17896221260E+03  0.92162839520E+03  0.89948547644E+03 0.  0.
         23    2    4    4    0    0  0.33342956529E+03 -0.93196919755E+02  0.30284216058E+03  0.46893346224E+03  0.91237475444E+02 0.  0.
         23    2    4    4    0    0 -0.42061059411E+03  0.66800496090E+02 -0.12387994798E+03  0.45269493296E+03  0.90613920894E+02 0.  0.
         11    1    3    3    0    0  0.63231281439E+02  0.62240420716E+02 -0.16312944731E+03  0.18569674607E+03  0.00000000000E+00 0.  1.
        -11    1    3    3    0    0  0.23949747385E+02 -0.35843997051E+02 -0.88313307512E+02  0.98273204935E+02  0.00000000000E+00 0. -1.
          2    1    5    5  502    0  0.17517906583E+03 -0.16945420603E+01  0.15180036998E+03  0.23180579998E+03  0.00000000000E+00 0.  1.
          1    1    6    6  503    0 -0.55089998627E+02 -0.18112856746E+02 -0.32490605100E+02  0.66472723338E+02  0.00000000000E+00 0. -1.
         -2    1    5    5    0  502  0.15825049946E+03 -0.91502377694E+02  0.15104179060E+03  0.23712766226E+03  0.00000000000E+00 0. -1.
         -1    1    6    6    0  503 -0.36552059549E+03  0.84913352836E+02 -0.91389342876E+02  0.38622220962E+03  0.00000000000E+00 0.  1.
<mgrwt>
<rscale>  0 0.12034176E+04</rscale>
<asrwt>0</asrwt>
<pdfrwt beam="1">  1        2 0.87162908E-01 0.12034176E+04</pdfrwt>
<pdfrwt beam="2">  1       -2 0.98313761E-01 0.12034176E+04</pdfrwt>
<totfact> 0.45091809E+01</totfact>
</mgrwt>
</event>
<event>
12    1  0.5489421E-008  0.2050227E+04  0.7818608E-02  0.8583491E-01
          2   -1    0    0  501    0  0.00000000000E+00  0.00000000000E+00  0.25368456120E+04  0.25368456120E+04  0.00000000000E+00 0. -1.
         -2   -1    0    0    0  501 -0.00000000000E+00 -0.00000000000E+00 -0.41423810595E+03  0.41423810595E+03  0.00000000000E+00 0.  1.
         23    2    1    2    0    0  0.63126555632E+03  0.11278109081E+03  0.11335125423E+03  0.65831860800E+03  0.96535515589E+02 0.  0.
        254    2    1    2    0    0 -0.63126555632E+03 -0.11278109081E+03  0.20092562519E+04  0.22927651100E+04  0.89913591122E+03 0.  0.
         23    2    4    4    0    0 -0.50603190999E+03  0.80668128877E+02  0.19751571245E+04  0.20425647967E+04  0.90827536725E+02 0.  0.
         23    2    4    4    0    0 -0.12523364633E+03 -0.19344921969E+03  0.34099127384E+02  0.25020031327E+03  0.91276390714E+02 0.  0.
         11    1    3    3    0    0  0.51147983133E+03  0.11642277181E+03  0.63009412226E+02  0.52833329034E+03  0.00000000000E+00 0.  1.
        -11    1    3    3    0    0  0.11978572499E+03 -0.36416810012E+01  0.50341842003E+02  0.12998531766E+03  0.00000000000E+00 0. -1.
          1    1    5    5  502    0 -0.20575810228E+02  0.18816704587E+02  0.65270104113E+02  0.70976184942E+02  0.00000000000E+00 0. -1.
          3    1    6    6  503    0  0.38294143859E+01 -0.67238153151E+02  0.88994183491E+01  0.67932564361E+02  0.00000000000E+00 0. -1.
         -1    1    5    5    0  502 -0.48545609976E+03  0.61851424290E+02  0.19098870204E+04  0.19715886118E+04  0.00000000000E+00 0.  1.
         -3    1    6    6    0  503 -0.12906306071E+03 -0.12621106654E+03  0.25199709035E+02  0.18226774891E+03  0.00000000000E+00 0.  1.
<mgrwt>
<rscale>  0 0.20502274E+04</rscale>
<asrwt>0</asrwt>
<pdfrwt beam="1">  1        2 0.39028393E+00 0.20502274E+04</pdfrwt>
<pdfrwt beam="2">  1       -2 0.63728941E-01 0.20502274E+04</pdfrwt>
<totfact> 0.69871106E+00</totfact>
</mgrwt>
</event>
<event>
12    1  0.4967442E-008  0.1236976E+04  0.7818608E-02  0.9081093E-01
          2   -1    0    0  501    0  0.00000000000E+00  0.00000000000E+00  0.30758941544E+03  0.30758941544E+03  0.00000000000E+00 0. -1.
         -2   -1    0    0    0  501 -0.00000000000E+00 -0.00000000000E+00 -0.12436301448E+04  0.12436301448E+04  0.00000000000E+00 0.  1.
         23    2    1    2    0    0 -0.80164734855E+02 -0.17224784855E+03 -0.47482278014E+03  0.51928710004E+03  0.90037290526E+02 0.  0.
        254    2    1    2    0    0  0.80164734855E+02  0.17224784855E+03 -0.46121794923E+03  0.10319324602E+04  0.90336421210E+03 0.  0.
         23    2    4    4    0    0  0.19384510944E+03  0.48192267155E+03 -0.10302146070E+03  0.53718562292E+03  0.90164207460E+02 0.  0.
         23    2    4    4    0    0 -0.11368037458E+03 -0.30967482300E+03 -0.35819648854E+03  0.49474683729E+03  0.87452758898E+02 0.  0.
         13    1    3    3    0    0  0.45582863026E+01 -0.35698068273E+01  0.22633835156E+01  0.62164619954E+01  0.00000000000E+00 0. -1.
        -13    1    3    3    0    0 -0.84723021158E+02 -0.16867804172E+03 -0.47708616366E+03  0.51307063805E+03  0.00000000000E+00 0.  1.
          2    1    5    5  502    0  0.12629799717E+02  0.13489158551E+03 -0.19480313085E+02  0.13687488550E+03  0.00000000000E+00 0. -1.
          1    1    6    6  503    0 -0.64898911409E+02 -0.81928171351E+02 -0.78165995928E+02  0.13051443170E+03  0.00000000000E+00 0. -1.
         -2    1    5    5    0  502  0.18121530972E+03  0.34703108604E+03 -0.83541147611E+02  0.40031073743E+03  0.00000000000E+00 0.  1.
         -1    1    6    6    0  503 -0.48781463173E+02 -0.22774665165E+03 -0.28003049261E+03  0.36423240559E+03  0.00000000000E+00 0.  1.
<mgrwt>
<rscale>  0 0.12369761E+04</rscale>
<asrwt>0</asrwt>
<pdfrwt beam="1">  1        2 0.47321448E-01 0.12369761E+04</pdfrwt>
<pdfrwt beam="2">  1       -2 0.19132772E+00 0.12369761E+04</pdfrwt>
<totfact> 0.15945150E+01</totfact>
</mgrwt>
</event>
<event>
12    1  0.4967442E-008  0.1587656E+04  0.7818608E-02  0.8828168E-01
         -2   -1    0    0    0  501 -0.00000000000E+00  0.00000000000E+00  0.60879003081E+03  0.60879003081E+03  0.00000000000E+00 0.  1.
          2   -1    0    0  501    0  0.00000000000E+00 -0.00000000000E+00 -0.10351067417E+04  0.10351067417E+04  0.00000000000E+00 0. -1.
         23    2    1    2    0    0 -0.11324062690E+03  0.46267215411E+03  0.98074937973E+02  0.49465832148E+03  0.90438928468E+02 0.  0.
        254    2    1    2    0    0  0.11324062690E+03 -0.46267215411E+03 -0.52439164890E+03  0.11492384511E+04  0.90491626917E+03 0.  0.
         23    2    4    4    0    0 -0.82214186483E+01  0.25105036420E+03 -0.34384754574E+02  0.27045934510E+03  0.94191660529E+02 0.  0.
         23    2    4    4    0    0  0.12146204555E+03 -0.71372251831E+03 -0.49000689432E+03  0.87877910597E+03  0.89404132749E+02 0.  0.
         11    1    3    3    0    0 -0.10924151376E+03  0.44094271212E+03  0.11284809561E+03  0.46807998930E+03  0.00000000000E+00 0.  1.
        -11    1    3    3    0    0 -0.39991131394E+01  0.21729441983E+02 -0.14773157632E+02  0.26578332176E+02  0.00000000000E+00 0. -1.
          2    1    5    5  502    0 -0.25416110988E+02  0.21328507634E+03  0.26944143991E+01  0.21481099217E+03  0.00000000000E+00 0. -1.
          4    1    6    6  503    0  0.84025842245E+02 -0.46164584523E+03 -0.36753540828E+03  0.59603649630E+03  0.00000000000E+00 0. -1.
         -2    1    5    5    0  502  0.17194692340E+02  0.37765287856E+02 -0.37079168973E+02  0.55648352924E+02  0.00000000000E+00 0.  1.
         -4    1    6    6    0  503  0.37436203304E+02 -0.25207667307E+03 -0.12247148604E+03  0.28274260966E+03  0.00000000000E+00 0.  1.
<mgrwt>
<rscale>  0 0.15876557E+04</rscale>
<asrwt>0</asrwt>
<pdfrwt beam="1">  1        2 0.15924719E+00 0.15876557E+04</pdfrwt>
<pdfrwt beam="2">  1       -2 0.93660006E-01 0.15876557E+04</pdfrwt>
<totfact> 0.22125644E+01</totfact>
</mgrwt>
</event>
<event>
12    1  0.4967442E-008  0.2436931E+04  0.7818608E-02  0.8425805E-01
          1   -1    0    0  501    0  0.00000000000E+00  0.00000000000E+00  0.15860867628E+04  0.15860867628E+04  0.00000000000E+00 0. -1.
         -1   -1    0    0    0  501 -0.00000000000E+00 -0.00000000000E+00 -0.93605070689E+03  0.93605070689E+03  0.00000000000E+00 0.  1.
         23    2    1    2    0    0  0.74138375584E+03  0.72471569477E+03  0.44803120896E+03  0.11333083859E+04  0.93772179686E+02 0.  0.
        254    2    1    2    0    0 -0.74138375584E+03 -0.72471569477E+03  0.20200484695E+03  0.13888290838E+04  0.90176357996E+03 0.  0.
         23    2    4    4    0    0 -0.91869059258E+03 -0.71896802643E+03  0.13163319113E+03  0.11772782826E+04  0.88030844973E+02 0.  0.
         23    2    4    4    0    0  0.17730683674E+03 -0.57476683368E+01  0.70371655816E+02  0.21155080123E+03  0.91273334054E+02 0.  0.
         11    1    3    3    0    0  0.55200720187E+03  0.54582235891E+03  0.37863560813E+03  0.86371229130E+03  0.00000000000E+00 0.  1.
        -11    1    3    3    0    0  0.18937655397E+03  0.17889333586E+03  0.69395600829E+02  0.26959609460E+03  0.00000000000E+00 0. -1.
          2    1    5    5  502    0 -0.39156179853E+03 -0.30110458084E+03  0.99359485438E+02  0.50384215586E+03  0.00000000000E+00 0. -1.
          4    1    6    6  503    0  0.40451194668E+02 -0.29377576210E+02  0.50841619599E+02  0.71303656411E+02  0.00000000000E+00 0. -1.
         -2    1    5    5    0  502 -0.52712879405E+03 -0.41786344559E+03  0.32273705692E+02  0.67343612671E+03  0.00000000000E+00 0.  1.
         -4    1    6    6    0  503  0.13685564208E+03  0.23629907873E+02  0.19530036217E+02  0.14024714482E+03  0.00000000000E+00 0.  1.
<mgrwt>
<rscale>  0 0.24369306E+04</rscale>
<asrwt>0</asrwt>
<pdfrwt beam="1">  1        1 0.24401335E+00 0.24369306E+04</pdfrwt>
<pdfrwt beam="2">  1       -1 0.14400780E+00 0.24369306E+04</pdfrwt>
<totfact> 0.19827647E+00</totfact>
</mgrwt>
</event>
<event>
12    1  0.4967442E-008  0.1137828E+04  0.7818608E-02  0.9169087E-01
         -1   -1    0    0    0  501 -0.00000000000E+00  0.00000000000E+00  0.14944112162E+03  0.14944112162E+03  0.00000000000E+00 0.  1.
          1   -1    0    0  501    0  0.00000000000E+00 -0.00000000000E+00 -0.21658234411E+04  0.21658234411E+04  0.00000000000E+00 0. -1.
         23    2    1    2    0    0 -0.64669653296E+02  0.86507075730E+02 -0.70517305738E+03  0.71925445184E+03  0.91609428777E+02 0.  0.
        254    2    1    2    0    0  0.64669653296E+02 -0.86507075730E+02 -0.13112092621E+04  0.15960101108E+04  0.90350036344E+03 0.  0.
         23    2    4    4    0    0 -0.16631608450E+03  0.28590780458E+03 -0.19719299220E+03  0.39555027283E+03  0.90391534342E+02 0.  0.
         23    2    4    4    0    0  0.23098573780E+03 -0.37241488031E+03 -0.11140162699E+04  0.12004598380E+04  0.89578563095E+02 0.  0.
         13    1    3    3    0    0 -0.86188406531E+02  0.54073259927E+02 -0.54532603335E+03  0.55473673171E+03  0.00000000000E+00 0. -1.
        -13    1    3    3    0    0  0.21518753235E+02  0.32433815802E+02 -0.15984702403E+03  0.16451772014E+03  0.00000000000E+00 0.  1.
          2    1    5    5  502    0 -0.16376013177E+02  0.45258315246E+02 -0.69612005859E+02  0.84630492532E+02  0.00000000000E+00 0. -1.
          3    1    6    6  503    0  0.55691953328E+02 -0.33178012698E+02 -0.14052197276E+03  0.15475399517E+03  0.00000000000E+00 0. -1.
         -2    1    5    5    0  502 -0.14994007133E+03  0.24064948934E+03 -0.12758098634E+03  0.31091978030E+03  0.00000000000E+00 0.  1.
         -3    1    6    6    0  503  0.17529378447E+03 -0.33923686762E+03 -0.97349429710E+03  0.10457058428E+04  0.00000000000E+00 0.  1.
<mgrwt>
<rscale>  0 0.11378279E+04</rscale>
<asrwt>0</asrwt>
<pdfrwt beam="1">  1        1 0.33320361E+00 0.11378279E+04</pdfrwt>
<pdfrwt beam="2">  1       -1 0.22990941E-01 0.11378279E+04</pdfrwt>
<totfact> 0.37079729E+01</totfact>
</mgrwt>
</event>
<event>
12    1  0.4967442E-008  0.1224522E+04  0.7818608E-02  0.9091659E-01
         -1   -1    0    0    0  501 -0.00000000000E+00  0.00000000000E+00  0.40270781920E+03  0.40270781920E+03  0.00000000000E+00 0.  1.
          1   -1    0    0  501    0  0.00000000000E+00 -0.00000000000E+00 -0.93085806853E+03  0.93085806853E+03  0.00000000000E+00 0. -1.
         23    2    1    2    0    0 -0.13276606256E+03  0.53477625357E+02 -0.36366218417E+03  0.40149431352E+03  0.91982693001E+02 0.  0.
        254    2    1    2    0    0  0.13276606256E+03 -0.53477625357E+02 -0.16448806515E+03  0.93207157421E+03  0.90620881263E+03 0.  0.
         23    2    4    4    0    0 -0.18775363085E+03  0.30758407639E+03  0.86187186393E+02  0.38065756898E+03  0.87250007326E+02 0.  0.
         23    2    4    4    0    0  0.32051969341E+03 -0.36106170175E+03 -0.25067525154E+03  0.55141400523E+03  0.90116020157E+02 0.  0.
         13    1    3    3    0    0 -0.13332648713E+02 -0.15573180935E+02 -0.11780664837E+03  0.11957712945E+03  0.00000000000E+00 0. -1.
        -13    1    3    3    0    0 -0.11943341385E+03  0.69050806291E+02 -0.24585553580E+03  0.28191718408E+03  0.00000000000E+00 0.  1.
          2    1    5    5  502    0 -0.91177446568E+01  0.83248291786E+02  0.25424184934E+02  0.87520286406E+02  0.00000000000E+00 0. -1.
          4    1    6    6  503    0  0.59421119034E+02 -0.12256492520E+03 -0.87994536209E+02  0.16216062617E+03  0.00000000000E+00 0. -1.
         -2    1    5    5    0  502 -0.17863588619E+03  0.22433578460E+03  0.60763001459E+02  0.29313728258E+03  0.00000000000E+00 0.  1.
         -4    1    6    6    0  503  0.26109857438E+03 -0.23849677654E+03 -0.16268071533E+03  0.38925337905E+03  0.00000000000E+00 0.  1.
<mgrwt>
<rscale>  0 0.12245225E+04</rscale>
<asrwt>0</asrwt>
<pdfrwt beam="1">  1        1 0.14320893E+00 0.12245225E+04</pdfrwt>
<pdfrwt beam="2">  1       -1 0.61955049E-01 0.12245225E+04</pdfrwt>
<totfact> 0.44836917E+01</totfact>
</mgrwt>
</event>
<event>
12    1  0.4967442E-008  0.2240103E+04  0.7818608E-02  0.8501919E-01
         -1   -1    0    0    0  501 -0.00000000000E+00  0.00000000000E+00  0.90202894767E+03  0.90202894767E+03  0.00000000000E+00 0.  1.
          1   -1    0    0  501    0  0.00000000000E+00 -0.00000000000E+00 -0.13907707551E+04  0.13907707551E+04  0.00000000000E+00 0. -1.
         23    2    1    2    0    0  0.33514231732E+03  0.26289010684E+03  0.64971603388E+03  0.78221874015E+03  0.91124374555E+02 0.  0.
        254    2    1    2    0    0 -0.33514231732E+03 -0.26289010684E+03 -0.11384578414E+04  0.15105809627E+04  0.89684837464E+03 0.  0.
         23    2    4    4    0    0 -0.58968017313E+03 -0.21494702628E+03 -0.47569726659E+03  0.79304564256E+03  0.93319724885E+02 0.  0.
         23    2    4    4    0    0  0.25453785581E+03 -0.47943080566E+02 -0.66276057476E+03  0.71753532010E+03  0.92289203752E+02 0.  0.
         13    1    3    3    0    0  0.14742682581E+03  0.16420423259E+03  0.37577160927E+03  0.43577746764E+03  0.00000000000E+00 0.  1.
        -13    1    3    3    0    0  0.18771549150E+03  0.98685874254E+02  0.27394442461E+03  0.34644127252E+03  0.00000000000E+00 0. -1.
          4    1    5    5  502    0 -0.38303393364E+03 -0.17641863559E+03 -0.35072401035E+03  0.54849417567E+03  0.00000000000E+00 0.  1.
          3    1    6    6  503    0  0.18043583859E+03 -0.47663432070E+02 -0.56393646882E+03  0.59401450780E+03  0.00000000000E+00 0. -1.
         -4    1    5    5    0  502 -0.20664623948E+03 -0.38528390680E+02 -0.12497325624E+03  0.24455146688E+03  0.00000000000E+00 0. -1.
         -3    1    6    6    0  503  0.74102017218E+02 -0.27964849554E+00 -0.98824105933E+02  0.12352081231E+03  0.00000000000E+00 0.  1.
<mgrwt>
<rscale>  0 0.22401031E+04</rscale>
<asrwt>0</asrwt>
<pdfrwt beam="1">  1        1 0.21396473E+00 0.22401031E+04</pdfrwt>
<pdfrwt beam="2">  1       -1 0.13877368E+00 0.22401031E+04</pdfrwt>
<totfact> 0.30392286E+00</totfact>
</mgrwt>
</event>
<event>
12    1  0.4967442E-008  0.2079506E+04  0.7818608E-02  0.8570325E-01
          1   -1    0    0  501    0  0.00000000000E+00  0.00000000000E+00  0.22393731704E+04  0.22393731704E+04  0.00000000000E+00 0. -1.
         -1   -1    0    0    0  501 -0.00000000000E+00 -0.00000000000E+00 -0.48276282644E+03  0.48276282644E+03  0.00000000000E+00 0.  1.
         23    2    1    2    0    0 -0.77542734734E+03  0.35401906773E+03  0.87834023512E+03  0.12270137582E+04  0.86395155082E+02 0.  0.
        254    2    1    2    0    0  0.77542734734E+03 -0.35401906773E+03  0.87827010885E+03  0.14951222387E+04  0.85872874245E+03 0.  0.
         23    2    4    4    0    0  0.29720329083E+03 -0.39785595549E+03  0.87014333123E+03  0.10069196506E+04  0.10059129424E+03 0.  0.
         23    2    4    4    0    0  0.47822405652E+03  0.43836887758E+02  0.81267776208E+01  0.48820258806E+03  0.87497437199E+02 0.  0.
         11    1    3    3    0    0 -0.12740884446E+03  0.70341592886E+02  0.19638026870E+03  0.24443028304E+03  0.00000000000E+00 0. -1.
        -11    1    3    3    0    0 -0.64801850289E+03  0.28367747485E+03  0.68195996643E+03  0.98258347515E+03  0.00000000000E+00 0.  1.
          1    1    5    5  502    0  0.12821007309E+03 -0.16150519708E+03  0.26625394637E+03  0.33676834098E+03  0.00000000000E+00 0. -1.
          3    1    6    6  503    0  0.37142285793E+02 -0.19819512288E+02 -0.47395822748E+01  0.42365388012E+02  0.00000000000E+00 0. -1.
         -1    1    5    5    0  502  0.16899321774E+03 -0.23635075842E+03  0.60388938486E+03  0.67015130962E+03  0.00000000000E+00 0.  1.
         -3    1    6    6    0  503  0.44108177072E+03  0.63656400046E+02  0.12866359896E+02  0.44583720005E+03  0.00000000000E+00 0.  1.
<mgrwt>
<rscale>  0 0.20795058E+04</rscale>
<asrwt>0</asrwt>
<pdfrwt beam="1">  1        1 0.34451894E+00 0.20795058E+04</pdfrwt>
<pdfrwt beam="2">  1       -1 0.74271206E-01 0.20795058E+04</pdfrwt>
<totfact> 0.34427084E+00</totfact>
</mgrwt>
</event>
<event>
12    1  0.4967442E-008  0.1554703E+04  0.7818608E-02  0.8848870E-01
          1   -1    0    0  501    0  0.00000000000E+00  0.00000000000E+00  0.67083591230E+03  0.67083591230E+03  0.00000000000E+00 0. -1.
         -1   -1    0    0    0  501 -0.00000000000E+00 -0.00000000000E+00 -0.90077909664E+03  0.90077909664E+03  0.00000000000E+00 0.  1.
         23    2    1    2    0    0 -0.28396857021E+03 -0.37375136986E+03 -0.27761803997E+03  0.55320803161E+03  0.92946838453E+02 0.  0.
        254    2    1    2    0    0  0.28396857021E+03  0.37375136986E+03  0.47674855631E+02  0.10184069773E+04  0.90252514884E+03 0.  0.
         23    2    4    4    0    0 -0.29092667135E+03  0.33998231368E+02  0.14082669924E+03  0.33793279741E+03  0.92586222008E+02 0.  0.
         23    2    4    4    0    0  0.57489524156E+03  0.33975313849E+03 -0.93151843614E+02  0.68047417992E+03  0.91821074320E+02 0.  0.
         11    1    3    3    0    0 -0.82961330603E+02 -0.51510425956E+02 -0.42283440436E+02  0.10641332479E+03  0.00000000000E+00 0. -1.
        -11    1    3    3    0    0 -0.20100723961E+03 -0.32224094391E+03 -0.23533459953E+03  0.44679470682E+03  0.00000000000E+00 0.  1.
          1    1    5    5  502    0 -0.29069428584E+03  0.18908980669E+02  0.13886823742E+03  0.32271520685E+03  0.00000000000E+00 0.  1.
          3    1    6    6  503    0  0.40543383288E+03  0.24476247366E+03 -0.23757417192E+02  0.47418316738E+03  0.00000000000E+00 0. -1.
         -1    1    5    5    0  502 -0.23238551342E+00  0.15089250699E+02  0.19584618211E+01  0.15217590558E+02  0.00000000000E+00 0. -1.
         -3    1    6    6    0  503  0.16946140868E+03  0.94990664830E+02 -0.69394426421E+02  0.20629101254E+03  0.00000000000E+00 0.  1.
<mgrwt>
<rscale>  0 0.15547025E+04</rscale>
<asrwt>0</asrwt>
<pdfrwt beam="1">  1        1 0.10320553E+00 0.15547025E+04</pdfrwt>
<pdfrwt beam="2">  1       -1 0.13858140E+00 0.15547025E+04</pdfrwt>
<totfact> 0.12047435E+01</totfact>
</mgrwt>
</event>
<event>
12    1  0.4967442E-008  0.2138555E+04  0.7818608E-02  0.8544447E-01
         -2   -1    0    0    0  501 -0.00000000000E+00  0.00000000000E+00  0.57703010910E+03  0.57703010910E+03  0.00000000000E+00 0.  1.
          2   -1    0    0  501    0  0.00000000000E+00 -0.00000000000E+00 -0.19814461486E+04  0.19814461486E+04  0.00000000000E+00 0. -1.
         23    2    1    2    0    0 -0.27999772675E+03 -0.25476664239E+03 -0.15331922119E+04  0.15819377542E+04  0.92433383983E+02 0.  0.
        254    2    1    2    0    0  0.27999772675E+03  0.25476664239E+03  0.12877617238E+03  0.97653850352E+03  0.89092052240E+03 0.  0.
         23    2    4    4    0    0  0.55344411297E+03  0.55355053333E+02  0.23441673326E+03  0.61050570038E+03  0.91659354416E+02 0.  0.
         23    2    4    4    0    0 -0.27344638621E+03  0.19941158906E+03 -0.10564056088E+03  0.36603280315E+03  0.91006466219E+02 0.  0.
         13    1    3    3    0    0 -0.26722919844E+03 -0.20736857480E+03 -0.13900528983E+04  0.14306153328E+04  0.00000000000E+00 0. -1.
        -13    1    3    3    0    0 -0.12768528313E+02 -0.47398067590E+02 -0.14313931356E+03  0.15132242138E+03  0.00000000000E+00 0.  1.
          4    1    5    5  502    0  0.47513899720E+03  0.77172594947E+02  0.18709315126E+03  0.51644605073E+03  0.00000000000E+00 0. -1.
          3    1    6    6  503    0 -0.25502165937E+03  0.20895186689E+03 -0.10022254393E+03  0.34458886769E+03  0.00000000000E+00 0. -1.
         -4    1    5    5    0  502  0.78305115768E+02 -0.21817541614E+02  0.47323582000E+02  0.94059649642E+02  0.00000000000E+00 0.  1.
         -3    1    6    6    0  503 -0.18424726844E+02 -0.95402778288E+01 -0.54180169554E+01  0.21443935461E+02  0.00000000000E+00 0.  1.
<mgrwt>
<rscale>  0 0.21385547E+04</rscale>
<asrwt>0</asrwt>
<pdfrwt beam="1">  1        2 0.30483787E+00 0.21385547E+04</pdfrwt>
<pdfrwt beam="2">  1       -2 0.88773862E-01 0.21385547E+04</pdfrwt>
<totfact> 0.68553347E+00</totfact>
</mgrwt>
</event>
<event>
12    1  0.4967442E-008  0.1123786E+04  0.7818608E-02  0.9182313E-01
          2   -1    0    0  501    0  0.00000000000E+00  0.00000000000E+00  0.87683248364E+03  0.87683248364E+03  0.00000000000E+00 0. -1.
         -2   -1    0    0    0  501 -0.00000000000E+00 -0.00000000000E+00 -0.36007327625E+03  0.36007327625E+03  0.00000000000E+00 0.  1.
         23    2    1    2    0    0  0.53914626293E+02 -0.26295157302E+01 -0.10265422929E+03  0.14663101792E+03  0.89716572287E+02 0.  0.
        254    2    1    2    0    0 -0.53914626293E+02  0.26295157302E+01  0.61941343667E+03  0.10902747420E+04  0.89560722763E+03 0.  0.
         23    2    4    4    0    0  0.30246561995E+03 -0.24512038124E+02 -0.54786832110E+02  0.32158327488E+03  0.91257407620E+02 0.  0.
         23    2    4    4    0    0 -0.35638024624E+03  0.27141553854E+02  0.67420026878E+03  0.76869146709E+03  0.92720145069E+02 0.  0.
         13    1    3    3    0    0  0.57064694299E+02  0.23325488562E+02 -0.10350356632E+03  0.12047176430E+03  0.00000000000E+00 0.  1.
        -13    1    3    3    0    0 -0.31500680061E+01 -0.25955004292E+02  0.84933703580E+00  0.26159253614E+02  0.00000000000E+00 0. -1.
          4    1    5    5  502    0  0.17814032288E+03  0.27429320418E+01 -0.73897059478E+02  0.19287890945E+03  0.00000000000E+00 0. -1.
          3    1    6    6  503    0 -0.23866598924E+03 -0.13353347387E+02  0.50412169958E+03  0.55792334087E+03  0.00000000000E+00 0. -1.
         -4    1    5    5    0  502  0.12432529707E+03 -0.27254970165E+02  0.19110227368E+02  0.12870436543E+03  0.00000000000E+00 0.  1.
         -3    1    6    6    0  503 -0.11771425701E+03  0.40494901241E+02  0.17007856920E+03  0.21076812622E+03  0.00000000000E+00 0.  1.
<mgrwt>
<rscale>  0 0.11237864E+04</rscale>
<asrwt>0</asrwt>
<pdfrwt beam="1">  1        2 0.13489730E+00 0.11237864E+04</pdfrwt>
<pdfrwt beam="2">  1       -2 0.55395889E-01 0.11237864E+04</pdfrwt>
<totfact> 0.92353405E+01</totfact>
</mgrwt>
</event>
<event>
12    1  0.4967442E-008  0.2314462E+04  0.7818608E-02  0.8472241E-01
          2   -1    0    0  501    0  0.00000000000E+00  0.00000000000E+00  0.29197912307E+04  0.29197912307E+04  0.00000000000E+00 0. -1.
         -2   -1    0    0    0  501 -0.00000000000E+00 -0.00000000000E+00 -0.45865712243E+03  0.45865712243E+03  0.00000000000E+00 0.  1.
         23    2    1    2    0    0  0.52311900209E+03 -0.31776260665E+03  0.21655035740E+04  0.22520743210E+04  0.88354138954E+02 0.  0.
        254    2    1    2    0    0 -0.52311900209E+03  0.31776260665E+03  0.29563053422E+03  0.11263740321E+04  0.89816172419E+03 0.  0.
         23    2    4    4    0    0 -0.66948311216E+03  0.57237108372E+02 -0.25540649028E+02  0.67845146909E+03  0.90334639595E+02 0.  0.
         23    2    4    4    0    0  0.14636411008E+03  0.26052549828E+03  0.32117118325E+03  0.44792256297E+03  0.90485940886E+02 0.  0.
         13    1    3    3    0    0  0.20535495678E+03 -0.76701909255E+02  0.73235390178E+03  0.76445802933E+03  0.00000000000E+00 0.  1.
        -13    1    3    3    0    0  0.31776404531E+03 -0.24106069739E+03  0.14331496722E+04  0.14876162917E+04  0.00000000000E+00 0. -1.
          4    1    5    5  502    0 -0.65312703281E+03  0.59076027385E+02 -0.39341058276E+02  0.65697231058E+03  0.00000000000E+00 0. -1.
          3    1    6    6  503    0  0.14417851202E+03  0.17676221077E+03  0.22565912970E+03  0.32086502661E+03  0.00000000000E+00 0. -1.
         -4    1    5    5    0  502 -0.16356079348E+02 -0.18389190134E+01  0.13800409248E+02  0.21479158508E+02  0.00000000000E+00 0.  1.
         -3    1    6    6    0  503  0.21855980547E+01  0.83763287504E+02  0.95512053551E+02  0.12705753636E+03  0.00000000000E+00 0.  1.
<mgrwt>
<rscale>  0 0.23144615E+04</rscale>
<asrwt>0</asrwt>
<pdfrwt beam="1">  1        2 0.44919864E+00 0.23144615E+04</pdfrwt>
<pdfrwt beam="2">  1       -2 0.70562636E-01 0.23144615E+04</pdfrwt>
<totfact> 0.32328736E+00</totfact>
</mgrwt>
</event>
<event>
12    1  0.4967442E-008  0.1706611E+04  0.7818608E-02  0.8757603E-01
          2   -1    0    0  501    0  0.00000000000E+00  0.00000000000E+00  0.16157219830E+04  0.16157219830E+04  0.00000000000E+00 0. -1.
         -2   -1    0    0    0  501 -0.00000000000E+00 -0.00000000000E+00 -0.45065302050E+03  0.45065302050E+03  0.00000000000E+00 0.  1.
         23    2    1    2    0    0  0.14829839363E+03 -0.18744884665E+03 -0.25788871121E+03  0.36369158242E+03  0.92927369950E+02 0.  0.
        254    2    1    2    0    0 -0.14829839363E+03  0.18744884665E+03  0.14229576737E+04  0.17026834211E+04  0.90398717225E+03 0.  0.
         23    2    4    4    0    0 -0.18752020067E+03  0.46468095097E+03  0.42827252009E+03  0.66533178503E+03  0.90315119708E+02 0.  0.
         23    2    4    4    0    0  0.39221807035E+02 -0.27723210432E+03  0.99468515362E+03  0.10373516361E+04  0.91125584708E+02 0.  0.
         13    1    3    3    0    0  0.66198353554E+01  0.55101298031E+01 -0.36917978436E+02  0.37909377236E+02  0.00000000000E+00 0. -1.
        -13    1    3    3    0    0  0.14167855828E+03 -0.19295897645E+03 -0.22097073278E+03  0.32578220518E+03  0.00000000000E+00 0.  1.
          2    1    5    5  502    0 -0.80786555269E+02  0.31364740359E+03  0.26084717787E+03  0.41586345294E+03  0.00000000000E+00 0. -1.
          4    1    6    6  503    0  0.18613369884E+02 -0.23872858926E+03  0.70890919375E+03  0.74825800487E+03  0.00000000000E+00 0. -1.
         -2    1    5    5    0  502 -0.10673364540E+03  0.15103354738E+03  0.16742534223E+03  0.24946833209E+03  0.00000000000E+00 0.  1.
         -4    1    6    6    0  503  0.20608437151E+02 -0.38503515057E+02  0.28577595987E+03  0.28909363119E+03  0.00000000000E+00 0.  1.
<mgrwt>
<rscale>  0 0.17066107E+04</rscale>
<asrwt>0</asrwt>
<pdfrwt beam="1">  1        2 0.24857261E+00 0.17066107E+04</pdfrwt>
<pdfrwt beam="2">  1       -2 0.69331234E-01 0.17066107E+04</pdfrwt>
<totfact> 0.19728022E+01</totfact>
</mgrwt>
</event>
<event>
12    1  0.4967442E-008  0.1561670E+04  0.7818608E-02  0.8844448E-01
          2   -1    0    0  501    0  0.00000000000E+00  0.00000000000E+00  0.41194721045E+03  0.41194721045E+03  0.00000000000E+00 0. -1.
         -2   -1    0    0    0  501 -0.00000000000E+00 -0.00000000000E+00 -0.14800516911E+04  0.14800516911E+04  0.00000000000E+00 0.  1.
         23    2    1    2    0    0  0.42616843282E+03  0.27178631794E+03 -0.39221770221E+03  0.64603568992E+03  0.89666331317E+02 0.  0.
        254    2    1    2    0    0 -0.42616843282E+03 -0.27178631794E+03 -0.67588677842E+03  0.12459632116E+04  0.91657735718E+03 0.  0.
         23    2    4    4    0    0 -0.49782146955E+03  0.11524385331E+03 -0.78684183766E+02  0.52539473125E+03  0.93493644593E+02 0.  0.
         23    2    4    4    0    0  0.71653036737E+02 -0.38703017125E+03 -0.59720259466E+03  0.72056848036E+03  0.87415586096E+02 0.  0.
         13    1    3    3    0    0  0.37693674386E+03  0.24390749929E+03 -0.30755251433E+03  0.54420651057E+03  0.00000000000E+00 0.  1.
        -13    1    3    3    0    0  0.49231688960E+02  0.27878818650E+02 -0.84665187883E+02  0.10182917935E+03  0.00000000000E+00 0. -1.
          1    1    5    5  502    0 -0.45900610933E+03  0.11482061286E+03 -0.96164201962E+02  0.48282288189E+03  0.00000000000E+00 0. -1.
          3    1    6    6  503    0  0.70338198441E+02 -0.16676858752E+03 -0.23455600330E+03  0.29626971264E+03  0.00000000000E+00 0. -1.
         -1    1    5    5    0  502 -0.38815360225E+02  0.42324044613E+00  0.17480018197E+02  0.42571849361E+02  0.00000000000E+00 0.  1.
         -3    1    6    6    0  503  0.13148382960E+01 -0.22026158373E+03 -0.36264659135E+03  0.42429876772E+03  0.00000000000E+00 0.  1.
<mgrwt>
<rscale>  0 0.15616698E+04</rscale>
<asrwt>0</asrwt>
<pdfrwt beam="1">  1        2 0.63376492E-01 0.15616698E+04</pdfrwt>
<pdfrwt beam="2">  1       -2 0.22770027E+00 0.15616698E+04</pdfrwt>
<totfact> 0.65348841E+00</totfact>
</mgrwt>
</event>
<event>
12    1  0.4967442E-008  0.1882253E+04  0.7818608E-02  0.8663741E-01
          2   -1    0    0  501    0  0.00000000000E+00  0.00000000000E+00  0.12506578746E+04  0.12506578746E+04  0.00000000000E+00 0. -1.
         -2   -1    0    0    0  501 -0.00000000000E+00 -0.00000000000E+00 -0.70820232022E+03  0.70820232022E+03  0.00000000000E+00 0.  1.
         23    2    1    2    0    0  0.28130580904E+03  0.26927171240E+03 -0.42800150233E+03  0.58579965640E+03  0.91300263615E+02 0.  0.
        254    2    1    2    0    0 -0.28130580904E+03 -0.26927171240E+03  0.97045705672E+03  0.13730605384E+04  0.88986972641E+03 0.  0.
         23    2    4    4    0    0 -0.56662885877E+03 -0.40903853583E+02  0.44762179779E+03  0.72860699096E+03  0.88099288234E+02 0.  0.
         23    2    4    4    0    0  0.28532304973E+03 -0.22836785882E+03  0.52283525893E+03  0.64445354748E+03  0.91665398218E+02 0.  0.
         13    1    3    3    0    0  0.20195449494E+02  0.14403623376E+02 -0.71466717080E+02  0.75649270961E+02  0.00000000000E+00 0. -1.
        -13    1    3    3    0    0  0.26111035954E+03  0.25486808903E+03 -0.35653478525E+03  0.51015038544E+03  0.00000000000E+00 0.  1.
          4    1    5    5  502    0 -0.18151921301E+03 -0.17806564020E+02  0.19741979319E+03  0.26877662316E+03  0.00000000000E+00 0. -1.
          3    1    6    6  503    0  0.21952252044E+03 -0.12764057097E+03  0.31863127529E+03  0.40744096742E+03  0.00000000000E+00 0. -1.
         -4    1    5    5    0  502 -0.38510964576E+03 -0.23097289564E+02  0.25020200460E+03  0.45983036780E+03  0.00000000000E+00 0.  1.
         -3    1    6    6    0  503  0.65800529285E+02 -0.10072728785E+03  0.20420398365E+03  0.23701258006E+03  0.00000000000E+00 0.  1.
<mgrwt>
<rscale>  0 0.18822527E+04</rscale>
<asrwt>0</asrwt>
<pdfrwt beam="1">  1        2 0.19240890E+00 0.18822527E+04</pdfrwt>
<pdfrwt beam="2">  1       -2 0.10895420E+00 0.18822527E+04</pdfrwt>
<totfact> 0.11146490E+01</totfact>
</mgrwt>
</event>
<event>
12    1  0.4967442E-008  0.1218468E+04  0.7818608E-02  0.9096843E-01
          2   -1    0    0  501    0  0.00000000000E+00  0.00000000000E+00  0.94863738018E+03  0.94863738018E+03  0.00000000000E+00 0.  1.
         -2   -1    0    0    0  501 -0.00000000000E+00 -0.00000000000E+00 -0.39126249534E+03  0.39126249534E+03  0.00000000000E+00 0. -1.
         23    2    1    2    0    0 -0.27620040346E+03  0.23263500650E+02  0.91645735192E+02  0.30538630119E+03  0.89632576896E+02 0.  0.
        254    2    1    2    0    0  0.27620040346E+03 -0.23263500650E+02  0.46572914964E+03  0.10345135743E+04  0.88118490756E+03 0.  0.
         23    2    4    4    0    0  0.18665708502E+03  0.39410704290E+03  0.82474897619E+02  0.45360094736E+03  0.93757570662E+02 0.  0.
         23    2    4    4    0    0  0.89543318436E+02 -0.41737054355E+03  0.38325425202E+03  0.58091262697E+03  0.91430202780E+02 0.  0.
         11    1    3    3    0    0 -0.26954649291E+03  0.81112450601E+01  0.70870732267E+02  0.27882568897E+03  0.00000000000E+00 0. -1.
        -11    1    3    3    0    0 -0.66539105519E+01  0.15152255590E+02  0.20775002925E+02  0.26560612223E+02  0.00000000000E+00 0.  1.
          4    1    5    5  502    0  0.14283728505E+03  0.25696544443E+03  0.14407214389E+02  0.29434893827E+03  0.00000000000E+00 0. -1.
          1    1    6    6  503    0  0.11574882891E+02 -0.17235558839E+03  0.20483556446E+03  0.26795155389E+03  0.00000000000E+00 0. -1.
         -4    1    5    5    0  502  0.43819799973E+02  0.13714159847E+03  0.68067683230E+02  0.15925200910E+03  0.00000000000E+00 0.  1.
         -1    1    6    6    0  503  0.77968435545E+02 -0.24501495516E+03  0.17841868756E+03  0.31296107308E+03  0.00000000000E+00 0.  1.
<mgrwt>
<rscale>  0 0.12184683E+04</rscale>
<asrwt>0</asrwt>
<pdfrwt beam="1">  1        2 0.14594421E+00 0.12184683E+04</pdfrwt>
<pdfrwt beam="2">  1       -2 0.60194230E-01 0.12184683E+04</pdfrwt>
<totfact> 0.68982816E+01</totfact>
</mgrwt>
</event>
<event>
12    1  0.4967442E-008  0.3847216E+04  0.7818608E-02  0.8036098E-01
          2   -1    0    0  501    0  0.00000000000E+00  0.00000000000E+00  0.11806551678E+04  0.11806551678E+04  0.00000000000E+00 0. -1.
         -2   -1    0    0    0  501 -0.00000000000E+00 -0.00000000000E+00 -0.31340807510E+04  0.31340807510E+04  0.00000000000E+00 0.  1.
         23    2    1    2    0    0  0.10601865480E+03 -0.55264754028E+03 -0.28625919544E+04  0.29188372232E+04  0.92297234818E+02 0.  0.
        254    2    1    2    0    0 -0.10601865480E+03  0.55264754028E+03  0.90916637116E+03  0.13958986955E+04  0.89737975170E+03 0.  0.
         23    2    4    4    0    0 -0.41647419301E+03  0.21772746668E+03  0.14277629989E+03  0.49902337269E+03  0.88222737910E+02 0.  0.
         23    2    4    4    0    0  0.31045553822E+03  0.33492007360E+03  0.76639007127E+03  0.89687532283E+03  0.92073375341E+02 0.  0.
         11    1    3    3    0    0  0.69422503909E+02 -0.29125278490E+03 -0.12935407822E+04  0.13277407217E+04  0.00000000000E+00 0.  1.
        -11    1    3    3    0    0  0.36596150888E+02 -0.26139475538E+03 -0.15690511722E+04  0.15910965016E+04  0.00000000000E+00 0. -1.
          2    1    5    5  502    0 -0.52069563523E+01  0.13751024429E+02  0.18105275507E+02  0.23323894796E+02  0.00000000000E+00 0. -1.
          4    1    6    6  503    0  0.12333392097E+03  0.76645876704E+02  0.20509323870E+03  0.25129481299E+03  0.00000000000E+00 0. -1.
         -2    1    5    5    0  502 -0.41126723666E+03  0.20397644225E+03  0.12467102438E+03  0.47569947789E+03  0.00000000000E+00 0.  1.
         -4    1    6    6    0  503  0.18712161725E+03  0.25827419689E+03  0.56129683258E+03  0.64558050984E+03  0.00000000000E+00 0.  1.
<mgrwt>
<rscale>  0 0.38472165E+04</rscale>
<asrwt>0</asrwt>
<pdfrwt beam="1">  1        2 0.18163925E+00 0.38472165E+04</pdfrwt>
<pdfrwt beam="2">  1       -2 0.48216627E+00 0.38472165E+04</pdfrwt>
<totfact> 0.33232903E-02</totfact>
</mgrwt>
</event>
<event>
12    1  0.4967442E-008  0.1360681E+04  0.7818608E-02  0.8982782E-01
         -2   -1    0    0    0  501 -0.00000000000E+00  0.00000000000E+00  0.18825867928E+03  0.18825867928E+03  0.00000000000E+00 0.  1.
          2   -1    0    0  501    0  0.00000000000E+00 -0.00000000000E+00 -0.24586549560E+04  0.24586549560E+04  0.00000000000E+00 0. -1.
         23    2    1    2    0    0  0.11522040364E+02  0.35756861615E+03 -0.33299833762E+03  0.49753881455E+03  0.93106962455E+02 0.  0.
        254    2    1    2    0    0 -0.11522040364E+02 -0.35756861615E+03 -0.19373979391E+04  0.21493748207E+04  0.85925157720E+03 0.  0.
         23    2    4    4    0    0 -0.40056272473E+03 -0.20270270276E+03 -0.13285871040E+04  0.14052807292E+04  0.90174013537E+02 0.  0.
         23    2    4    4    0    0  0.38904068436E+03 -0.15486591339E+03 -0.60881083508E+03  0.74409409155E+03  0.87688533716E+02 0.  0.
         13    1    3    3    0    0  0.51807642569E+01  0.51024353254E+02 -0.10020879831E+03  0.11257054766E+03  0.00000000000E+00 0. -1.
        -13    1    3    3    0    0  0.63412761072E+01  0.30654426289E+03 -0.23278953932E+03  0.38496826689E+03  0.00000000000E+00 0.  1.
          2    1    5    5  502    0 -0.30558906809E+03 -0.11886373053E+03 -0.87819923621E+03  0.93741515000E+03  0.00000000000E+00 0. -1.
          4    1    6    6  503    0  0.92092510833E+02 -0.66575470562E+02 -0.11905907610E+03  0.16458550190E+03  0.00000000000E+00 0.  1.
         -2    1    5    5    0  502 -0.94973656638E+02 -0.83838972224E+02 -0.45038786781E+03  0.46786557919E+03  0.00000000000E+00 0.  1.
         -4    1    6    6    0  503  0.29694817353E+03 -0.88290442828E+02 -0.48975175898E+03  0.57950858966E+03  0.00000000000E+00 0. -1.
<mgrwt>
<rscale>  0 0.13606809E+04</rscale>
<asrwt>0</asrwt>
<pdfrwt beam="1">  1        2 0.37825459E+00 0.13606809E+04</pdfrwt>
<pdfrwt beam="2">  1       -2 0.28962875E-01 0.13606809E+04</pdfrwt>
<totfact> 0.39454787E+01</totfact>
</mgrwt>
</event>
<event>
12    1  0.4967442E-008  0.1910232E+04  0.7818608E-02  0.8649780E-01
         -2   -1    0    0    0  501 -0.00000000000E+00  0.00000000000E+00  0.71354480130E+03  0.71354480130E+03  0.00000000000E+00 0.  1.
          2   -1    0    0  501    0  0.00000000000E+00 -0.00000000000E+00 -0.12784719636E+04  0.12784719636E+04  0.00000000000E+00 0. -1.
         23    2    1    2    0    0  0.64150850467E+02 -0.10785707762E+03  0.53855832523E+03  0.56053435258E+03  0.91679932082E+02 0.  0.
        254    2    1    2    0    0 -0.64150850467E+02  0.10785707762E+03 -0.11034854875E+04  0.14314824123E+04  0.90316841994E+03 0.  0.
         23    2    4    4    0    0 -0.15762988912E+03  0.13793130252E+03 -0.12279457375E+04  0.12490362591E+04  0.91480140002E+02 0.  0.
         23    2    4    4    0    0  0.93479038655E+02 -0.30074224903E+02  0.12446024998E+03  0.18244615326E+03  0.90296485786E+02 0.  0.
         13    1    3    3    0    0 -0.38032950909E+01  0.14516577083E+02  0.65780483706E+02  0.67470497999E+02  0.00000000000E+00 0. -1.
        -13    1    3    3    0    0  0.67954145558E+02 -0.12237365470E+03  0.47277784152E+03  0.49306385459E+03  0.00000000000E+00 0.  1.
          2    1    5    5  502    0 -0.28047017387E+02  0.73440552664E+02 -0.31352808551E+03  0.32323367764E+03  0.00000000000E+00 0. -1.
          1    1    6    6  503    0  0.35060304959E+02 -0.57635417496E+02  0.76482599191E+02  0.10198359825E+03  0.00000000000E+00 0. -1.
         -2    1    5    5    0  502 -0.12958287173E+03  0.64490749854E+02 -0.91441765200E+03  0.92580258142E+03  0.00000000000E+00 0.  1.
         -1    1    6    6    0  503  0.58418733696E+02  0.27561192593E+02  0.47977650785E+02  0.80462555010E+02  0.00000000000E+00 0.  1.
<mgrwt>
<rscale>  0 0.19102325E+04</rscale>
<asrwt>0</asrwt>
<pdfrwt beam="1">  1        2 0.19668799E+00 0.19102325E+04</pdfrwt>
<pdfrwt beam="2">  1       -2 0.10977612E+00 0.19102325E+04</pdfrwt>
<totfact> 0.10516983E+01</totfact>
</mgrwt>
</event>
<event>
12    1  0.4967442E-008  0.1265625E+04  0.7818608E-02  0.9057278E-01
         -2   -1    0    0    0  501 -0.00000000000E+00  0.00000000000E+00  0.66802859560E+03  0.66802859560E+03  0.00000000000E+00 0.  1.
          2   -1    0    0  501    0  0.00000000000E+00 -0.00000000000E+00 -0.59945271375E+03  0.59945271375E+03  0.00000000000E+00 0. -1.
         23    2    1    2    0    0 -0.39709721324E+02 -0.21354136291E+03 -0.17021089666E+03  0.29073831913E+03  0.91543679328E+02 0.  0.
        254    2    1    2    0    0  0.39709721324E+02  0.21354136291E+03  0.23878677851E+03  0.97674299023E+03  0.92186277055E+03 0.  0.
         23    2    4    4    0    0 -0.25928229270E+03  0.39874295691E+02 -0.24821690912E+03  0.37281566171E+03  0.92534409150E+02 0.  0.
         23    2    4    4    0    0  0.29899201402E+03  0.17366706722E+03  0.48700368764E+03  0.60392732852E+03  0.89437976675E+02 0.  0.
         13    1    3    3    0    0  0.90193557022E+01 -0.13515988655E+02 -0.49467201296E+02  0.52067597704E+02  0.00000000000E+00 0.  1.
        -13    1    3    3    0    0 -0.48729077026E+02 -0.20002537425E+03 -0.12074369536E+03  0.23867072142E+03  0.00000000000E+00 0. -1.
          1    1    6    6  502    0  0.23595501450E+03  0.17112100560E+03  0.37019507188E+03  0.47117041362E+03  0.00000000000E+00 0. -1.
          1    1    5    5  503    0 -0.20554633646E+03  0.20841100509E+02 -0.23754284628E+03  0.31481780718E+03  0.00000000000E+00 0. -1.
         -1    1    5    5    0  503 -0.53735956242E+02  0.19033195182E+02 -0.10674062846E+02  0.57997854527E+02  0.00000000000E+00 0.  1.
         -1    1    6    6    0  502  0.63036999528E+02  0.25460616212E+01  0.11680861575E+03  0.13275691490E+03  0.00000000000E+00 0.  1.
<mgrwt>
<rscale>  0 0.12656248E+04</rscale>
<asrwt>0</asrwt>
<pdfrwt beam="1">  1        2 0.92223494E-01 0.12656248E+04</pdfrwt>
<pdfrwt beam="2">  1       -2 0.10277363E+00 0.12656248E+04</pdfrwt>
<totfact> 0.37755575E+01</totfact>
</mgrwt>
</event>
<event>
12    1  0.4967442E-008  0.1207059E+04  0.7818608E-02  0.9106700E-01
         -2   -1    0    0    0  501 -0.00000000000E+00  0.00000000000E+00  0.38600249993E+03  0.38600249993E+03  0.00000000000E+00 0.  1.
          2   -1    0    0  501    0  0.00000000000E+00 -0.00000000000E+00 -0.94364066472E+03  0.94364066472E+03  0.00000000000E+00 0. -1.
         23    2    1    2    0    0 -0.20860279978E+03  0.60771329633E+02 -0.30154819734E+03  0.38288299008E+03  0.91977096020E+02 0.  0.
        254    2    1    2    0    0  0.20860279978E+03 -0.60771329633E+02 -0.25608996745E+03  0.94676017456E+03  0.88519177251E+03 0.  0.
         23    2    4    4    0    0 -0.33397837507E+03 -0.32986894906E+02 -0.17755624129E+03  0.39023999141E+03  0.90173953155E+02 0.  0.
         23    2    4    4    0    0  0.54258117485E+03 -0.27784434727E+02 -0.78533726166E+02  0.55652018315E+03  0.91547047965E+02 0.  0.
         13    1    3    3    0    0 -0.31295882703E+02  0.35524739693E+02 -0.11458628831E+03  0.12398167959E+03  0.00000000000E+00 0. -1.
        -13    1    3    3    0    0 -0.17730691708E+03  0.25246589941E+02 -0.18696190903E+03  0.25890131049E+03  0.00000000000E+00 0.  1.
          2    1    5    5  502    0 -0.12599053794E+03 -0.56420433508E+02 -0.76311877916E+02  0.15773516944E+03  0.00000000000E+00 0. -1.
          1    1    6    6  503    0  0.40221989072E+03  0.18798965353E+02 -0.66842593451E+02  0.40816929563E+03  0.00000000000E+00 0. -1.
         -2    1    5    5    0  502 -0.20798783713E+03  0.23433538602E+02 -0.10124436337E+03  0.23250482197E+03  0.00000000000E+00 0.  1.
         -1    1    6    6    0  503  0.14036128413E+03 -0.46583400080E+02 -0.11691132714E+02  0.14835088752E+03  0.00000000000E+00 0.  1.
<mgrwt>
<rscale>  0 0.12070587E+04</rscale>
<asrwt>0</asrwt>
<pdfrwt beam="1">  1        2 0.14517549E+00 0.12070587E+04</pdfrwt>
<pdfrwt beam="2">  1       -2 0.59385001E-01 0.12070587E+04</pdfrwt>
<totfact> 0.71580819E+01</totfact>
</mgrwt>
</event>
<event>
12    1  0.4967442E-008  0.3283301E+04  0.7818608E-02  0.8167157E-01
         -2   -1    0    0    0  501 -0.00000000000E+00  0.00000000000E+00  0.14469354853E+04  0.14469354853E+04  0.00000000000E+00 0.  1.
          2   -1    0    0  501    0  0.00000000000E+00 -0.00000000000E+00 -0.18625684201E+04  0.18625684201E+04  0.00000000000E+00 0. -1.
         23    2    1    2    0    0  0.60417259537E+03  0.23088476509E+03  0.11905638066E+04  0.13580976279E+04  0.93030584062E+02 0.  0.
        254    2    1    2    0    0 -0.60417259537E+03 -0.23088476509E+03 -0.16061967414E+04  0.19514062774E+04  0.89988120747E+03 0.  0.
         23    2    4    4    0    0 -0.49048409567E+03 -0.51788083168E+03 -0.13858308856E+04  0.15613248342E+04  0.91830226165E+02 0.  0.
         23    2    4    4    0    0 -0.11368849970E+03  0.28699606659E+03 -0.22036585582E+03  0.39008144320E+03  0.91162518175E+02 0.  0.
         13    1    3    3    0    0  0.21503591112E+03  0.11627510657E+03  0.51542141971E+03  0.57045559282E+03  0.00000000000E+00 0. -1.
        -13    1    3    3    0    0  0.38913668425E+03  0.11460965852E+03  0.67514238691E+03  0.78764203510E+03  0.00000000000E+00 0.  1.
          2    1    5    5  502    0 -0.46594289509E+02 -0.26588312912E+02 -0.14985850923E+03  0.15917141385E+03  0.00000000000E+00 0. -1.
          3    1    6    6  503    0  0.98822649263E+00  0.42985864445E+02 -0.67827845846E+02  0.80308018316E+02  0.00000000000E+00 0. -1.
         -2    1    5    5    0  502 -0.44388980616E+03 -0.49129251877E+03 -0.12359723764E+04  0.14021534203E+04  0.00000000000E+00 0.  1.
         -3    1    6    6    0  503 -0.11467672619E+03  0.24401020214E+03 -0.15253800997E+03  0.30977342489E+03  0.00000000000E+00 0.  1.
<mgrwt>
<rscale>  0 0.32833010E+04</rscale>
<asrwt>0</asrwt>
<pdfrwt beam="1">  1        2 0.28654899E+00 0.32833010E+04</pdfrwt>
<pdfrwt beam="2">  1       -2 0.22260546E+00 0.32833010E+04</pdfrwt>
<totfact> 0.63396458E-01</totfact>
</mgrwt>
</event>
<event>
12    1  0.4967442E-008  0.1772073E+04  0.7818608E-02  0.8721293E-01
         -2   -1    0    0    0  501 -0.00000000000E+00  0.00000000000E+00  0.32347507434E+03  0.32347507434E+03  0.00000000000E+00 0.  1.
          2   -1    0    0  501    0  0.00000000000E+00 -0.00000000000E+00 -0.24269598261E+04  0.24269598261E+04  0.00000000000E+00 0. -1.
         23    2    1    2    0    0  0.43249286034E+03 -0.22649242747E+03 -0.10763289030E+03  0.50812002696E+03  0.90841778796E+02 0.  0.
        254    2    1    2    0    0 -0.43249286034E+03  0.22649242747E+03 -0.19958518614E+04  0.22423148734E+04  0.89788776858E+03 0.  0.
         23    2    4    4    0    0  0.24836978386E+03  0.18663090152E+03 -0.80286670448E+03  0.86504799315E+03  0.84820058745E+02 0.  0.
         23    2    4    4    0    0 -0.68086264420E+03  0.39861525953E+02 -0.11929851570E+04  0.13772668803E+04  0.92128135359E+02 0.  0.
         13    1    3    3    0    0  0.38331257494E+03 -0.17990235708E+03 -0.65833452267E+02  0.42851771449E+03  0.00000000000E+00 0.  1.
        -13    1    3    3    0    0  0.49180285398E+02 -0.46590070391E+02 -0.41799438034E+02  0.79602312471E+02  0.00000000000E+00 0. -1.
          2    1    5    5  502    0  0.21855330205E+03  0.18803863364E+03 -0.67977798139E+03  0.73839161531E+03  0.00000000000E+00 0.  1.
          2    1    6    6  503    0 -0.31207629459E+03 -0.24103321573E+02 -0.50790636487E+03  0.59660829631E+03  0.00000000000E+00 0. -1.
         -2    1    5    5    0  502  0.29816481810E+02 -0.14077321202E+01 -0.12308872309E+03  0.12665637785E+03  0.00000000000E+00 0. -1.
         -2    1    6    6    0  503 -0.36878634961E+03  0.63964847526E+02 -0.68507879209E+03  0.78065858398E+03  0.00000000000E+00 0.  1.
<mgrwt>
<rscale>  0 0.17720734E+04</rscale>
<asrwt>0</asrwt>
<pdfrwt beam="1">  1        2 0.37337843E+00 0.17720734E+04</pdfrwt>
<pdfrwt beam="2">  1       -2 0.49765397E-01 0.17720734E+04</pdfrwt>
<totfact> 0.13882544E+01</totfact>
</mgrwt>
</event>
<event>
12    1  0.4967442E-008  0.1326866E+04  0.7818608E-02  0.9008528E-01
          4   -1    0    0  501    0  0.00000000000E+00  0.00000000000E+00  0.50176297274E+03  0.50176297274E+03  0.00000000000E+00 0. -1.
         -4   -1    0    0    0  501 -0.00000000000E+00 -0.00000000000E+00 -0.87719351111E+03  0.87719351111E+03  0.00000000000E+00 0.  1.
         23    2    1    2    0    0  0.66354133250E+02 -0.25235557076E+03 -0.46944883113E+03  0.54448228210E+03  0.89401036774E+02 0.  0.
        254    2    1    2    0    0 -0.66354133250E+02  0.25235557076E+03  0.94018292768E+02  0.83447420174E+03  0.78703338487E+03 0.  0.
         23    2    4    4    0    0  0.14754925638E+03 -0.13545809736E+03  0.27211334028E+03  0.34863547866E+03  0.85914770676E+02 0.  0.
         23    2    4    4    0    0 -0.21390338963E+03  0.38781366812E+03 -0.17809504751E+03  0.48583872309E+03  0.90373212973E+02 0.  0.
         13    1    3    3    0    0  0.10902564480E+02 -0.53387631063E+02 -0.18561952135E+03  0.19345209166E+03  0.00000000000E+00 0. -1.
        -13    1    3    3    0    0  0.55451568770E+02 -0.19896793970E+03 -0.28382930978E+03  0.35103019044E+03  0.00000000000E+00 0.  1.
          2    1    5    5  502    0  0.95116918174E+02 -0.13477997317E+03  0.19555302670E+03  0.25583951130E+03  0.00000000000E+00 0. -1.
          1    1    6    6  503    0 -0.25056602752E+02  0.10063050895E+03 -0.71556399524E+02  0.12599464666E+03  0.00000000000E+00 0. -1.
         -2    1    5    5    0  502  0.52432338210E+02 -0.67812419329E+00  0.76560313575E+02  0.92795967355E+02  0.00000000000E+00 0.  1.
         -1    1    6    6    0  503 -0.18884678688E+03  0.28718315917E+03 -0.10653864799E+03  0.35984407643E+03  0.00000000000E+00 0.  1.
<mgrwt>
<rscale>  0 0.13268658E+04</rscale>
<asrwt>0</asrwt>
<pdfrwt beam="1">  1        4 0.77194305E-01 0.13268658E+04</pdfrwt>
<pdfrwt beam="2">  1       -4 0.13495285E+00 0.13268658E+04</pdfrwt>
<totfact> 0.11554427E+00</totfact>
</mgrwt>
</event>
<event>
12    1  0.4967442E-008  0.1187028E+04  0.7818608E-02  0.9124287E-01
          3   -1    0    0  501    0  0.00000000000E+00  0.00000000000E+00  0.42498816844E+03  0.42498816844E+03  0.00000000000E+00 0. -1.
         -3   -1    0    0    0  501 -0.00000000000E+00 -0.00000000000E+00 -0.82886792712E+03  0.82886792712E+03  0.00000000000E+00 0.  1.
         23    2    1    2    0    0 -0.21315937510E+03 -0.49870973272E+02 -0.40051798855E+02  0.24038105945E+03  0.90856337051E+02 0.  0.
        254    2    1    2    0    0  0.21315937510E+03  0.49870973272E+02 -0.36382795982E+03  0.10134750361E+04  0.92023737770E+03 0.  0.
         23    2    4    4    0    0  0.49671145300E+03 -0.14058227200E+03 -0.28315988007E+02  0.52596337290E+03  0.96695562010E+02 0.  0.
         23    2    4    4    0    0 -0.28355207790E+03  0.19045324527E+03 -0.33551197181E+03  0.48751166322E+03  0.91788447145E+02 0.  0.
         11    1    3    3    0    0 -0.69313534833E+02 -0.32250577896E+02  0.26496655767E+02  0.80910683179E+02  0.00000000000E+00 0. -1.
        -11    1    3    3    0    0 -0.14384584027E+03 -0.17620395376E+02 -0.66548454622E+02  0.15947037627E+03  0.00000000000E+00 0.  1.
          2    1    5    5  502    0  0.40984342465E+03 -0.12844599495E+03 -0.57926545054E+02  0.43338838352E+03  0.00000000000E+00 0. -1.
          2    1    6    6  503    0 -0.21888061507E+03  0.16527579433E+03 -0.30913991554E+03  0.41327024963E+03  0.00000000000E+00 0. -1.
         -2    1    5    5    0  502  0.86868028347E+02 -0.12136277049E+02  0.29610557046E+02  0.92574989377E+02  0.00000000000E+00 0.  1.
         -2    1    6    6    0  503 -0.64671462826E+02  0.25177450941E+02 -0.26372056271E+02  0.74241413590E+02  0.00000000000E+00 0.  1.
<mgrwt>
<rscale>  0 0.11870283E+04</rscale>
<asrwt>0</asrwt>
<pdfrwt beam="1">  1        3 0.65382797E-01 0.11870283E+04</pdfrwt>
<pdfrwt beam="2">  1       -3 0.12751814E+00 0.11870283E+04</pdfrwt>
<totfact> 0.28497138E+00</totfact>
</mgrwt>
</event>
<event>
12    1  0.4967442E-008  0.2430098E+04  0.7818608E-02  0.8428320E-01
         -2   -1    0    0    0  501 -0.00000000000E+00  0.00000000000E+00  0.51417382651E+03  0.51417382651E+03  0.00000000000E+00 0.  1.
          2   -1    0    0  501    0  0.00000000000E+00 -0.00000000000E+00 -0.28712948256E+04  0.28712948256E+04  0.00000000000E+00 0. -1.
         23    2    1    2    0    0  0.16755727357E+03  0.51078209893E+03  0.23094235407E+03  0.59241679879E+03  0.93002688512E+02 0.  0.
        254    2    1    2    0    0 -0.16755727357E+03 -0.51078209893E+03 -0.25880633531E+04  0.27930518533E+04  0.90227099193E+03 0.  0.
         23    2    4    4    0    0  0.25538993277E+03  0.23968328110E+02 -0.13446104361E+04  0.13719612016E+04  0.92205287910E+02 0.  0.
         23    2    4    4    0    0 -0.42294720634E+03 -0.53475042704E+03 -0.12434529170E+04  0.14210906517E+04  0.92093024139E+02 0.  0.
         13    1    3    3    0    0  0.22309427526E+02  0.36767638634E+02 -0.51296992685E+01  0.43311472174E+02  0.00000000000E+00 0. -1.
        -13    1    3    3    0    0  0.14524784604E+03  0.47401446029E+03  0.23607205334E+03  0.54910532661E+03  0.00000000000E+00 0.  1.
          1    1    6    6  502    0 -0.37335560875E+03 -0.41432220117E+03 -0.10123433871E+04  0.11558098591E+04  0.00000000000E+00 0. -1.
          1    1    5    5  503    0  0.20212935085E+03 -0.20430699386E+02 -0.98759862587E+03  0.10082781034E+04  0.00000000000E+00 0. -1.
         -1    1    5    5    0  503  0.53260581918E+02  0.44399027496E+02 -0.35701181027E+03  0.36368309818E+03  0.00000000000E+00 0.  1.
         -1    1    6    6    0  502 -0.49591597595E+02 -0.12042822587E+03 -0.23110952991E+03  0.26528079266E+03  0.00000000000E+00 0.  1.
<mgrwt>
<rscale>  0 0.24300985E+04</rscale>
<asrwt>0</asrwt>
<pdfrwt beam="1">  1        2 0.44173767E+00 0.24300985E+04</pdfrwt>
<pdfrwt beam="2">  1       -2 0.79103666E-01 0.24300985E+04</pdfrwt>
<totfact> 0.26613825E+00</totfact>
</mgrwt>
</event>
<event>
12    1  0.4967442E-008  0.1241887E+04  0.7818608E-02  0.9076963E-01
          2   -1    0    0  501    0  0.00000000000E+00  0.00000000000E+00  0.13928344318E+04  0.13928344318E+04  0.00000000000E+00 0. -1.
         -2   -1    0    0    0  501 -0.00000000000E+00 -0.00000000000E+00 -0.27682454115E+03  0.27682454115E+03  0.00000000000E+00 0.  1.
         23    2    1    2    0    0  0.54087569758E+02  0.18932317061E+03  0.39370588822E+02  0.22113413441E+03  0.92636569482E+02 0.  0.
        254    2    1    2    0    0 -0.54087569758E+02 -0.18932317061E+03  0.10766393018E+04  0.14485248385E+04  0.94884313430E+03 0.  0.
         23    2    4    4    0    0  0.15132798939E+03 -0.33986362024E+03  0.49367683480E+02  0.38605533022E+03  0.90521318372E+02 0.  0.
         23    2    4    4    0    0 -0.20541555915E+03  0.15054044964E+03  0.10272716183E+04  0.10624695083E+04  0.93255023149E+02 0.  0.
         11    1    3    3    0    0  0.47543461196E+02  0.89749408186E+02  0.61755289185E+02  0.11886569192E+03  0.00000000000E+00 0.  1.
        -11    1    3    3    0    0  0.65441085624E+01  0.99573762421E+02 -0.22384700363E+02  0.10226844249E+03  0.00000000000E+00 0. -1.
          2    1    5    5  502    0  0.15247084778E+03 -0.25730618371E+03  0.25836245311E+02  0.30020217050E+03  0.00000000000E+00 0.  1.
          4    1    6    6  503    0 -0.65027368144E+02  0.91735409417E+02  0.55500916733E+03  0.56628536956E+03  0.00000000000E+00 0. -1.
         -2    1    5    5    0  502 -0.11428583881E+01 -0.82557436529E+02  0.23531438169E+02  0.85853159720E+02  0.00000000000E+00 0. -1.
         -4    1    6    6    0  503 -0.14038819101E+03  0.58805040218E+02  0.47226245101E+03  0.49618413877E+03  0.00000000000E+00 0.  1.
<mgrwt>
<rscale>  0 0.12418869E+04</rscale>
<asrwt>0</asrwt>
<pdfrwt beam="1">  1        2 0.21428222E+00 0.12418869E+04</pdfrwt>
<pdfrwt beam="2">  1       -2 0.42588392E-01 0.12418869E+04</pdfrwt>
<totfact> 0.75093546E+01</totfact>
</mgrwt>
</event>
<event>
12    1  0.4967442E-008  0.1401747E+04  0.7818608E-02  0.8952555E-01
         -1   -1    0    0    0  501 -0.00000000000E+00  0.00000000000E+00  0.68608137237E+03  0.68608137237E+03  0.00000000000E+00 0.  1.
          1   -1    0    0  501    0  0.00000000000E+00 -0.00000000000E+00 -0.71598414255E+03  0.71598414255E+03  0.00000000000E+00 0. -1.
         23    2    1    2    0    0 -0.10621640373E+03  0.26916434796E+03 -0.25023926920E+03  0.39328091217E+03  0.91207529262E+02 0.  0.
        254    2    1    2    0    0  0.10621640373E+03 -0.26916434796E+03  0.22033649902E+03  0.10087846027E+04  0.94093933455E+03 0.  0.
         23    2    4    4    0    0 -0.24279769110E+03  0.41809489466E+02 -0.23285763279E+03  0.35091770311E+03  0.90674169382E+02 0.  0.
         23    2    4    4    0    0  0.34901409483E+03 -0.31097383743E+03  0.45319413181E+03  0.65786689964E+03  0.94278155349E+02 0.  0.
         13    1    3    3    0    0 -0.91652316603E+02  0.26170388419E+03 -0.25449464321E+03  0.37637294478E+03  0.00000000000E+00 0. -1.
        -13    1    3    3    0    0 -0.14564087124E+02  0.74604637680E+01  0.42553740071E+01  0.16907967392E+02  0.00000000000E+00 0.  1.
          1    1    5    5  502    0 -0.51718753149E+02  0.48751709307E+02 -0.56423465373E+02  0.90747815579E+02  0.00000000000E+00 0. -1.
          1    1    6    6  503    0  0.74634838925E+02 -0.90374105943E+02  0.16767579333E+03  0.20458008182E+03  0.00000000000E+00 0. -1.
         -1    1    5    5    0  502 -0.19107893795E+03 -0.69422198411E+01 -0.17643416741E+03  0.26016988753E+03  0.00000000000E+00 0.  1.
         -1    1    6    6    0  503  0.27437925591E+03 -0.22059973148E+03  0.28551833848E+03  0.45328681782E+03  0.00000000000E+00 0.  1.
<mgrwt>
<rscale>  0 0.14017466E+04</rscale>
<asrwt>0</asrwt>
<pdfrwt beam="1">  1        1 0.11015141E+00 0.14017466E+04</pdfrwt>
<pdfrwt beam="2">  1       -1 0.10555098E+00 0.14017466E+04</pdfrwt>
<totfact> 0.21589353E+01</totfact>
</mgrwt>
</event>
<event>
12    1  0.4967442E-008  0.3564963E+04  0.7818608E-02  0.8098565E-01
          1   -1    0    0  501    0  0.00000000000E+00  0.00000000000E+00  0.31595378157E+04  0.31595378157E+04  0.00000000000E+00 0. -1.
         -1   -1    0    0    0  501 -0.00000000000E+00 -0.00000000000E+00 -0.10056027522E+04  0.10056027522E+04  0.00000000000E+00 0.  1.
         23    2    1    2    0    0 -0.35813542964E+03 -0.74220507390E+03  0.27046018086E+04  0.28285856298E+04  0.83044352413E+02 0.  0.
        254    2    1    2    0    0  0.35813542964E+03  0.74220507390E+03 -0.55066674513E+03  0.13365549381E+04  0.89666932633E+03 0.  0.
         23    2    4    4    0    0  0.50543579249E+03  0.54192196668E+03 -0.23202865408E+02  0.74621433110E+03  0.84573616898E+02 0.  0.
         23    2    4    4    0    0 -0.14730036285E+03  0.20028310721E+03 -0.52746387972E+03  0.59034060703E+03  0.92049812453E+02 0.  0.
         13    1    3    3    0    0 -0.28272471145E+03 -0.63483415638E+03  0.23443626433E+04  0.24451960805E+04  0.00000000000E+00 0. -1.
        -13    1    3    3    0    0 -0.75410718196E+02 -0.10737091752E+03  0.36023916525E+03  0.38338954932E+03  0.00000000000E+00 0.  1.
          2    1    5    5  502    0  0.49280917757E+03  0.54262707458E+03 -0.25021954969E+02  0.73343788135E+03  0.00000000000E+00 0. -1.
          3    1    6    6  503    0 -0.36146372432E+02  0.60716370432E+02 -0.25536521110E+03  0.26496118379E+03  0.00000000000E+00 0. -1.
         -2    1    5    5    0  502  0.12626614921E+02 -0.70510789768E+00  0.18190895606E+01  0.12776449755E+02  0.00000000000E+00 0.  1.
         -3    1    6    6    0  503 -0.11115399042E+03  0.13956673678E+03 -0.27209866862E+03  0.32537942324E+03  0.00000000000E+00 0.  1.
<mgrwt>
<rscale>  0 0.35649628E+04</rscale>
<asrwt>0</asrwt>
<pdfrwt beam="1">  1        1 0.48608274E+00 0.35649628E+04</pdfrwt>
<pdfrwt beam="2">  1       -1 0.15470812E+00 0.35649628E+04</pdfrwt>
<totfact> 0.11851852E-01</totfact>
</mgrwt>
</event>
<event>
12    1  0.4967442E-008  0.3549293E+04  0.7818608E-02  0.8102207E-01
         -1   -1    0    0    0  501 -0.00000000000E+00  0.00000000000E+00  0.85443016256E+03  0.85443016256E+03  0.00000000000E+00 0.  1.
          1   -1    0    0  501    0  0.00000000000E+00 -0.00000000000E+00 -0.36859295823E+04  0.36859295823E+04  0.00000000000E+00 0. -1.
         23    2    1    2    0    0  0.13673300239E+04  0.46007367402E+03 -0.28672031437E+03  0.14737266954E+04  0.91665993406E+02 0.  0.
        254    2    1    2    0    0 -0.13673300239E+04 -0.46007367402E+03 -0.25447791054E+04  0.30666330495E+04  0.92036861372E+03 0.  0.
         23    2    4    4    0    0 -0.58306793828E+03  0.11934561769E+03 -0.44299180674E+03  0.74780895126E+03  0.93620989318E+02 0.  0.
         23    2    4    4    0    0 -0.78426208561E+03 -0.57941929170E+03 -0.21017872986E+04  0.23188240982E+04  0.92960287988E+02 0.  0.
         11    1    3    3    0    0  0.21087042392E+03  0.10217209807E+03 -0.63154561231E+02  0.24268080252E+03  0.00000000000E+00 0. -1.
        -11    1    3    3    0    0  0.11564596000E+04  0.35790157595E+03 -0.22356575314E+03  0.12310458929E+04  0.00000000000E+00 0.  1.
          1    1    5    5  502    0 -0.36996864892E+03  0.38404498852E+02 -0.24074383063E+03  0.44306805200E+03  0.00000000000E+00 0. -1.
          3    1    6    6  503    0 -0.21454589696E+03 -0.12504363710E+03 -0.46520473257E+03  0.52733414102E+03  0.00000000000E+00 0. -1.
         -1    1    5    5    0  502 -0.21309928935E+03  0.80941118833E+02 -0.20224797611E+03  0.30474089926E+03  0.00000000000E+00 0.  1.
         -3    1    6    6    0  503 -0.56971618866E+03 -0.45437565460E+03 -0.16365825661E+04  0.17914899572E+04  0.00000000000E+00 0.  1.
<mgrwt>
<rscale>  0 0.35492926E+04</rscale>
<asrwt>0</asrwt>
<pdfrwt beam="1">  1        1 0.56706609E+00 0.35492926E+04</pdfrwt>
<pdfrwt beam="2">  1       -1 0.13145079E+00 0.35492926E+04</pdfrwt>
<totfact> 0.70843024E-02</totfact>
</mgrwt>
</event>
<event>
12    1  0.4967442E-008  0.1645534E+04  0.7818608E-02  0.8793053E-01
         -2   -1    0    0    0  501 -0.00000000000E+00  0.00000000000E+00  0.36452285999E+03  0.36452285999E+03  0.00000000000E+00 0.  1.
          2   -1    0    0  501    0  0.00000000000E+00 -0.00000000000E+00 -0.18570733103E+04  0.18570733103E+04  0.00000000000E+00 0. -1.
         23    2    1    2    0    0 -0.20600235853E+03  0.27533885603E+03 -0.11096927142E+04  0.11653229432E+04  0.91165699008E+02 0.  0.
        254    2    1    2    0    0  0.20600235853E+03 -0.27533885603E+03 -0.38285773616E+03  0.10562732271E+04  0.92243407723E+03 0.  0.
         23    2    4    4    0    0  0.39100649172E+03 -0.46297163672E+03 -0.40228209511E+02  0.61445088321E+03  0.93288616993E+02 0.  0.
         23    2    4    4    0    0 -0.18500413319E+03  0.18763278070E+03 -0.34262952665E+03  0.44182234391E+03  0.91539070083E+02 0.  0.
         11    1    3    3    0    0 -0.57183159614E+02  0.45969808370E+02 -0.35818557689E+03  0.36562281728E+03  0.00000000000E+00 0. -1.
        -11    1    3    3    0    0 -0.14881919892E+03  0.22936904766E+03 -0.75150713729E+03  0.79970012591E+03  0.00000000000E+00 0.  1.
          4    1    5    5  502    0  0.26922465449E+03 -0.24965929495E+03 -0.14104755930E+02  0.36743791622E+03  0.00000000000E+00 0. -1.
          3    1    6    6  503    0 -0.10364700251E+03  0.50329365580E+02 -0.18185805577E+03  0.21528608552E+03  0.00000000000E+00 0. -1.
         -4    1    5    5    0  502  0.12178183723E+03 -0.21331234178E+03 -0.26123453581E+02  0.24701296699E+03  0.00000000000E+00 0.  1.
         -3    1    6    6    0  503 -0.81357130680E+02  0.13730341512E+03 -0.16077147088E+03  0.22653625839E+03  0.00000000000E+00 0.  1.
<mgrwt>
<rscale>  0 0.16455342E+04</rscale>
<asrwt>0</asrwt>
<pdfrwt beam="1">  1        2 0.28570359E+00 0.16455342E+04</pdfrwt>
<pdfrwt beam="2">  1       -2 0.56080438E-01 0.16455342E+04</pdfrwt>
<totfact> 0.22883523E+01</totfact>
</mgrwt>
</event>
<event>
12    1  0.4967442E-008  0.1268771E+04  0.7818608E-02  0.9054703E-01
          1   -1    0    0  501    0  0.00000000000E+00  0.00000000000E+00  0.69677186324E+03  0.69677186324E+03  0.00000000000E+00 0. -1.
         -1   -1    0    0    0  501 -0.00000000000E+00 -0.00000000000E+00 -0.57758543347E+03  0.57758543347E+03  0.00000000000E+00 0.  1.
         23    2    1    2    0    0  0.19431683522E+03 -0.22480017593E+03 -0.54882655443E+02  0.31536038133E+03  0.90254710107E+02 0.  0.
        254    2    1    2    0    0 -0.19431683522E+03  0.22480017593E+03  0.17406908521E+03  0.95899691538E+03  0.89503122054E+03 0.  0.
         23    2    4    4    0    0 -0.52297982394E+02  0.53189263795E+03  0.25426553453E+03  0.59900865064E+03  0.92279706471E+02 0.  0.
         23    2    4    4    0    0 -0.14201885282E+03 -0.30709246203E+03 -0.80196449314E+02  0.35998826474E+03  0.93193054864E+02 0.  0.
         11    1    3    3    0    0  0.11587855753E+03 -0.16929664490E+03 -0.92687574904E+00  0.20515860491E+03  0.00000000000E+00 0.  1.
        -11    1    3    3    0    0  0.78438277693E+02 -0.55503531025E+02 -0.53955779694E+02  0.11020177642E+03  0.00000000000E+00 0. -1.
          2    1    5    5  502    0  0.19601253133E+02  0.24645655060E+03  0.13208496011E+03  0.28030604193E+03  0.00000000000E+00 0. -1.
          3    1    6    6  503    0 -0.81426926291E+02 -0.11801645030E+03 -0.73983193634E+02  0.16134354591E+03  0.00000000000E+00 0. -1.
         -2    1    5    5    0  502 -0.71899235527E+02  0.28543608736E+03  0.12218057442E+03  0.31870260871E+03  0.00000000000E+00 0.  1.
         -3    1    6    6    0  503 -0.60591926533E+02 -0.18907601173E+03 -0.62132556805E+01  0.19864471883E+03  0.00000000000E+00 0.  1.
<mgrwt>
<rscale>  0 0.12687715E+04</rscale>
<asrwt>0</asrwt>
<pdfrwt beam="1">  1        1 0.10719567E+00 0.12687715E+04</pdfrwt>
<pdfrwt beam="2">  1       -1 0.88859297E-01 0.12687715E+04</pdfrwt>
<totfact> 0.33586514E+01</totfact>
</mgrwt>
</event>
<event>
12    1  0.4967442E-008  0.1863779E+04  0.7818608E-02  0.8673099E-01
         -1   -1    0    0    0  501 -0.00000000000E+00  0.00000000000E+00  0.32106865064E+03  0.32106865064E+03  0.00000000000E+00 0.  1.
          1   -1    0    0  501    0  0.00000000000E+00 -0.00000000000E+00 -0.27047723645E+04  0.27047723645E+04  0.00000000000E+00 0. -1.
         23    2    1    2    0    0 -0.54848427935E+01 -0.57920342260E+03 -0.15946882138E+04  0.16991989890E+04  0.93488056616E+02 0.  0.
        254    2    1    2    0    0  0.54848427935E+01  0.57920342260E+03 -0.78901550004E+03  0.13266420261E+04  0.89550372302E+03 0.  0.
         23    2    4    4    0    0  0.39622586244E+03  0.68554528265E+02 -0.36952413218E+03  0.55320046404E+03  0.88249712388E+02 0.  0.
         23    2    4    4    0    0 -0.39074101965E+03  0.51064889433E+03 -0.41949136786E+03  0.77344156209E+03  0.93797678749E+02 0.  0.
         11    1    3    3    0    0  0.39984296191E+02 -0.36138526868E+03 -0.10268103695E+04  0.10892830630E+04  0.00000000000E+00 0. -1.
        -11    1    3    3    0    0 -0.45469138984E+02 -0.21781815392E+03 -0.56787784434E+03  0.60991592607E+03  0.00000000000E+00 0.  1.
          2    1    5    5  502    0  0.36774120176E+03  0.44170331075E+02 -0.35484803756E+03  0.51293443965E+03  0.00000000000E+00 0. -1.
          2    1    6    6  503    0 -0.18876107457E+03  0.27442679111E+03 -0.16481438018E+03  0.37162425495E+03  0.00000000000E+00 0. -1.
         -2    1    5    5    0  502  0.28484660683E+02  0.24384197190E+02 -0.14676094618E+02  0.40266024389E+02  0.00000000000E+00 0.  1.
         -2    1    6    6    0  503 -0.20197994508E+03  0.23622210322E+03 -0.25467698768E+03  0.40181730714E+03  0.00000000000E+00 0.  1.
<mgrwt>
<rscale>  0 0.18637785E+04</rscale>
<asrwt>0</asrwt>
<pdfrwt beam="1">  1        1 0.41611881E+00 0.18637785E+04</pdfrwt>
<pdfrwt beam="2">  1       -1 0.49395179E-01 0.18637785E+04</pdfrwt>
<totfact> 0.37598622E+00</totfact>
</mgrwt>
</event>
<event>
12    1  0.4967442E-008  0.1655119E+04  0.7818608E-02  0.8787384E-01
         -1   -1    0    0    0  501 -0.00000000000E+00  0.00000000000E+00  0.37850912426E+03  0.37850912426E+03  0.00000000000E+00 0. -1.
          1   -1    0    0  501    0  0.00000000000E+00 -0.00000000000E+00 -0.18093478611E+04  0.18093478611E+04  0.00000000000E+00 0.  1.
         23    2    1    2    0    0 -0.35323109539E+03 -0.43251807508E+03 -0.64418133675E+03  0.85740249494E+03  0.91243365090E+02 0.  0.
        254    2    1    2    0    0  0.35323109539E+03  0.43251807508E+03 -0.78665740006E+03  0.13304544904E+04  0.91620696020E+03 0.  0.
         23    2    4    4    0    0  0.36671030720E+03  0.65156529280E+03 -0.34511013968E+03  0.82887225760E+03  0.94416262938E+02 0.  0.
         23    2    4    4    0    0 -0.13479211816E+02 -0.21904721772E+03 -0.44154726038E+03  0.50158223280E+03  0.91964016691E+02 0.  0.
         11    1    3    3    0    0 -0.27454161239E+03 -0.38790412488E+03 -0.53383856836E+03  0.71472115129E+03  0.00000000000E+00 0.  1.
        -11    1    3    3    0    0 -0.78689482997E+02 -0.44613950206E+02 -0.11034276840E+03  0.14268134365E+03  0.00000000000E+00 0. -1.
          2    1    5    5  502    0  0.22750082863E+03  0.39921806418E+03 -0.16097629567E+03  0.48687273240E+03  0.00000000000E+00 0. -1.
          4    1    6    6  503    0  0.97953347487E+01 -0.19939921141E+03 -0.41749327102E+03  0.46277059699E+03  0.00000000000E+00 0. -1.
         -2    1    5    5    0  502  0.13920947858E+03  0.25234722863E+03 -0.18413384402E+03  0.34199952519E+03  0.00000000000E+00 0.  1.
         -4    1    6    6    0  503 -0.23274546564E+02 -0.19648006306E+02 -0.24053989362E+02  0.38811635804E+02  0.00000000000E+00 0.  1.
<mgrwt>
<rscale>  0 0.16551189E+04</rscale>
<asrwt>0</asrwt>
<pdfrwt beam="1">  1        1 0.27836121E+00 0.16551189E+04</pdfrwt>
<pdfrwt beam="2">  1       -1 0.58232173E-01 0.16551189E+04</pdfrwt>
<totfact> 0.11459487E+01</totfact>
</mgrwt>
</event>
<event>
12    1  0.4967442E-008  0.1217656E+04  0.7818608E-02  0.9097541E-01
         -1   -1    0    0    0  501 -0.00000000000E+00  0.00000000000E+00  0.47003913719E+03  0.47003913719E+03  0.00000000000E+00 0.  1.
          1   -1    0    0  501    0  0.00000000000E+00 -0.00000000000E+00 -0.78859724055E+03  0.78859724055E+03  0.00000000000E+00 0. -1.
         23    2    1    2    0    0 -0.23501247645E+03 -0.53409156065E+02 -0.17976875063E+03  0.31431569497E+03  0.91619595933E+02 0.  0.
        254    2    1    2    0    0  0.23501247645E+03  0.53409156065E+02 -0.13878935272E+03  0.94432068277E+03  0.90243873223E+03 0.  0.
         23    2    4    4    0    0  0.13500625585E+03 -0.31129313187E+03 -0.35329396157E+03  0.50014924830E+03  0.10100764439E+03 0.  0.
         23    2    4    4    0    0  0.10000622061E+03  0.36470228794E+03  0.21450460885E+03  0.44417143446E+03  0.90923225797E+02 0.  0.
         11    1    3    3    0    0 -0.13227450171E+02 -0.32410074187E+02 -0.22314433464E+02  0.41512796674E+02  0.00000000000E+00 0. -1.
        -11    1    3    3    0    0 -0.22178502628E+03 -0.20999081877E+02 -0.15745431717E+03  0.27280289830E+03  0.00000000000E+00 0.  1.
          4    1    5    5  502    0  0.13469175107E+03 -0.29103586619E+03 -0.35663402004E+03  0.47961606256E+03  0.00000000000E+00 0.  1.
          3    1    6    6  503    0  0.19991502438E+02  0.20578480870E+03  0.82409565780E+02  0.22257219996E+03  0.00000000000E+00 0. -1.
         -4    1    5    5    0  502  0.31450478320E+00 -0.20257265687E+02  0.33400584667E+01  0.20533185747E+02  0.00000000000E+00 0. -1.
         -3    1    6    6    0  503  0.80014718168E+02  0.15891747924E+03  0.13209504307E+03  0.22159923451E+03  0.00000000000E+00 0.  1.
<mgrwt>
<rscale>  0 0.12176561E+04</rscale>
<asrwt>0</asrwt>
<pdfrwt beam="1">  1        1 0.12132265E+00 0.12176561E+04</pdfrwt>
<pdfrwt beam="2">  1       -1 0.72313715E-01 0.12176561E+04</pdfrwt>
<totfact> 0.43158266E+01</totfact>
</mgrwt>
</event>
<event>
12    1  0.4967442E-008  0.1611128E+04  0.7818608E-02  0.8813740E-01
         -1   -1    0    0    0  501 -0.00000000000E+00  0.00000000000E+00  0.94288075580E+03  0.94288075580E+03  0.00000000000E+00 0.  1.
          1   -1    0    0  501    0  0.00000000000E+00 -0.00000000000E+00 -0.68824567003E+03  0.68824567003E+03  0.00000000000E+00 0. -1.
         23    2    1    2    0    0  0.30096994642E+03 -0.29296115406E+03  0.45190365581E+03  0.62367443620E+03  0.91344084665E+02 0.  0.
        254    2    1    2    0    0 -0.30096994642E+03  0.29296115406E+03 -0.19726857003E+03  0.10074519896E+04  0.89422339281E+03 0.  0.
         23    2    4    4    0    0 -0.44517394485E+03  0.48207709476E+03  0.34522512920E+02  0.66303124600E+03  0.88546387919E+02 0.  0.
         23    2    4    4    0    0  0.14420399843E+03 -0.18911594070E+03 -0.23179108295E+03  0.34442074362E+03  0.91317634174E+02 0.  0.
         11    1    3    3    0    0  0.25240627960E+03 -0.20647984881E+03  0.38237882574E+03  0.50254992221E+03  0.00000000000E+00 0.  1.
        -11    1    3    3    0    0  0.48563666823E+02 -0.86481305245E+02  0.69524830073E+02  0.12112451399E+03  0.00000000000E+00 0. -1.
          2    1    5    5  502    0 -0.31404839809E+03  0.28270080152E+03  0.49634249052E+01  0.42257635417E+03  0.00000000000E+00 0. -1.
          3    1    6    6  503    0  0.14966658434E+03 -0.16805816140E+03 -0.23122488181E+03  0.32265860913E+03  0.00000000000E+00 0. -1.
         -2    1    5    5    0  502 -0.13112554676E+03  0.19937629324E+03  0.29559088015E+02  0.24045489183E+03  0.00000000000E+00 0.  1.
         -3    1    6    6    0  503 -0.54625859051E+01 -0.21057779303E+02 -0.56620114540E+00  0.21762134493E+02  0.00000000000E+00 0.  1.
<mgrwt>
<rscale>  0 0.16111283E+04</rscale>
<asrwt>0</asrwt>
<pdfrwt beam="1">  1        1 0.10588395E+00 0.16111283E+04</pdfrwt>
<pdfrwt beam="2">  1       -1 0.14505858E+00 0.16111283E+04</pdfrwt>
<totfact> 0.10229249E+01</totfact>
</mgrwt>
</event>
<event>
12    1  0.4967442E-008  0.1667220E+04  0.7818608E-02  0.8780284E-01
          2   -1    0    0  501    0  0.00000000000E+00  0.00000000000E+00  0.14447947386E+04  0.14447947386E+04  0.00000000000E+00 0.  1.
         -2   -1    0    0    0  501 -0.00000000000E+00 -0.00000000000E+00 -0.48097203619E+03  0.48097203619E+03  0.00000000000E+00 0. -1.
         23    2    1    2    0    0  0.88086043708E+02 -0.16629103892E+02 -0.32218669064E+03  0.34706334370E+03  0.92806372204E+02 0.  0.
        254    2    1    2    0    0 -0.88086043708E+02  0.16629103892E+02  0.12860093931E+04  0.15787034311E+04  0.91128957316E+03 0.  0.
         23    2    4    4    0    0 -0.46904281983E+03 -0.61303270719E+01  0.94412558206E+03  0.10581263083E+04  0.90661027219E+02 0.  0.
         23    2    4    4    0    0  0.38095677612E+03  0.22759430964E+02  0.34188381101E+03  0.52057712282E+03  0.92032296508E+02 0.  0.
         13    1    3    3    0    0  0.10774695122E+03 -0.12036121867E+02 -0.28112187262E+03  0.30130346993E+03  0.00000000000E+00 0. -1.
        -13    1    3    3    0    0 -0.19660907515E+02 -0.45929820249E+01 -0.41064818029E+02  0.45759873776E+02  0.00000000000E+00 0.  1.
          1    1    5    5  502    0 -0.90544002775E+02 -0.25928846450E+02  0.25188842546E+03  0.26892062100E+03  0.00000000000E+00 0. -1.
          3    1    6    6  503    0  0.27967268490E+03  0.53575773489E+01  0.19369217359E+03  0.34023840528E+03  0.00000000000E+00 0. -1.
         -1    1    5    5    0  502 -0.37849881706E+03  0.19798519378E+02  0.69223715660E+03  0.78920568730E+03  0.00000000000E+00 0.  1.
         -3    1    6    6    0  503  0.10128409122E+03  0.17401853615E+02  0.14819163742E+03  0.18033871755E+03  0.00000000000E+00 0.  1.
<mgrwt>
<rscale>  0 0.16672203E+04</rscale>
<asrwt>0</asrwt>
<pdfrwt beam="1">  1        2 0.22227611E+00 0.16672203E+04</pdfrwt>
<pdfrwt beam="2">  1       -2 0.73995699E-01 0.16672203E+04</pdfrwt>
<totfact> 0.21412311E+01</totfact>
</mgrwt>
</event>
<event>
12    1  0.4967442E-008  0.1704438E+04  0.7818608E-02  0.8758837E-01
          2   -1    0    0  501    0  0.00000000000E+00  0.00000000000E+00  0.23251038153E+04  0.23251038153E+04  0.00000000000E+00 0. -1.
         -2   -1    0    0    0  501 -0.00000000000E+00 -0.00000000000E+00 -0.31236344306E+03  0.31236344306E+03  0.00000000000E+00 0.  1.
         23    2    1    2    0    0 -0.46979155729E+03 -0.40190411517E+03  0.75373643907E+03  0.97891715218E+03  0.89045753135E+02 0.  0.
        254    2    1    2    0    0  0.46979155729E+03  0.40190411517E+03  0.12590039331E+04  0.16585501061E+04  0.88513644478E+03 0.  0.
         23    2    4    4    0    0  0.21883988682E+03 -0.24196097198E+03  0.64989288955E+03  0.73264674597E+03  0.89299935460E+02 0.  0.
         23    2    4    4    0    0  0.25095167047E+03  0.64386508714E+03  0.60911104358E+03  0.92590336018E+03  0.93497473883E+02 0.  0.
         11    1    3    3    0    0 -0.25919075398E+03 -0.26965468336E+03  0.48985579282E+03  0.61632150130E+03  0.00000000000E+00 0. -1.
        -11    1    3    3    0    0 -0.21060080330E+03 -0.13224943180E+03  0.26388064626E+03  0.36259565087E+03  0.00000000000E+00 0.  1.
          2    1    5    5  502    0  0.22577528748E+03 -0.22531369551E+03  0.59865511418E+03  0.67832786140E+03  0.00000000000E+00 0. -1.
          4    1    6    6  503    0  0.72678439313E+02  0.15488358470E+03  0.20473502316E+03  0.26680987624E+03  0.00000000000E+00 0. -1.
         -2    1    5    5    0  502 -0.69354006598E+01 -0.16647276470E+02  0.51237775370E+02  0.54318884571E+02  0.00000000000E+00 0.  1.
         -4    1    6    6    0  503  0.17827323115E+03  0.48898150244E+03  0.40437602042E+03  0.65909348393E+03  0.00000000000E+00 0.  1.
<mgrwt>
<rscale>  0 0.17044382E+04</rscale>
<asrwt>0</asrwt>
<pdfrwt beam="1">  1        2 0.35770827E+00 0.17044382E+04</pdfrwt>
<pdfrwt beam="2">  1       -2 0.48055916E-01 0.17044382E+04</pdfrwt>
<totfact> 0.17134846E+01</totfact>
</mgrwt>
</event>
<event>
12    1  0.4967442E-008  0.2457102E+04  0.7818608E-02  0.8418429E-01
          2   -1    0    0  501    0  0.00000000000E+00  0.00000000000E+00  0.13458546255E+04  0.13458546255E+04  0.00000000000E+00 0. -1.
         -2   -1    0    0    0  501 -0.00000000000E+00 -0.00000000000E+00 -0.11214716445E+04  0.11214716445E+04  0.00000000000E+00 0.  1.
         23    2    1    2    0    0 -0.36132391988E+03  0.80062691152E+03 -0.51092207669E+03  0.10200226558E+04  0.88580039739E+02 0.  0.
        254    2    1    2    0    0  0.36132391988E+03 -0.80062691152E+03  0.73530505761E+03  0.14473036142E+04  0.88456531546E+03 0.  0.
         23    2    4    4    0    0  0.12845266058E+03 -0.93605266443E+03  0.64799692170E+03  0.11494749046E+04  0.93262367671E+02 0.  0.
         23    2    4    4    0    0  0.23287125931E+03  0.13542575291E+03  0.87308135911E+02  0.29782870955E+03  0.92250049722E+02 0.  0.
         13    1    3    3    0    0 -0.10430962716E+03  0.30795484688E+03 -0.15564842774E+03  0.36047623929E+03  0.00000000000E+00 0. -1.
        -13    1    3    3    0    0 -0.25701429272E+03  0.49267206465E+03 -0.35527364895E+03  0.65954641655E+03  0.00000000000E+00 0.  1.
          4    1    6    6  502    0  0.89390836558E+02  0.45924775453E+02  0.80194007199E+02  0.12857249104E+03  0.00000000000E+00 0. -1.
          4    1    5    5  503    0  0.27791590525E+02 -0.42784596307E+03  0.25136467169E+03  0.49699973721E+03  0.00000000000E+00 0. -1.
         -4    1    5    5    0  503  0.10066107005E+03 -0.50820670137E+03  0.39663225002E+03  0.65247516741E+03  0.00000000000E+00 0.  1.
         -4    1    6    6    0  502  0.14348042275E+03  0.89500977455E+02  0.71141287117E+01  0.16925621851E+03  0.00000000000E+00 0.  1.
<mgrwt>
<rscale>  0 0.24571022E+04</rscale>
<asrwt>0</asrwt>
<pdfrwt beam="1">  1        2 0.20705456E+00 0.24571022E+04</pdfrwt>
<pdfrwt beam="2">  1       -2 0.17253410E+00 0.24571022E+04</pdfrwt>
<totfact> 0.28459621E+00</totfact>
</mgrwt>
</event>
<event>
12    1  0.4967442E-008  0.3200599E+04  0.7818608E-02  0.8188659E-01
          2   -1    0    0  501    0  0.00000000000E+00  0.00000000000E+00  0.19547498009E+04  0.19547498009E+04  0.00000000000E+00 0. -1.
         -2   -1    0    0    0  501 -0.00000000000E+00 -0.00000000000E+00 -0.13101205717E+04  0.13101205717E+04  0.00000000000E+00 0.  1.
         23    2    1    2    0    0  0.64187389802E+03  0.26790057037E+03 -0.10132163929E+04  0.12323847696E+04  0.91607559636E+02 0.  0.
        254    2    1    2    0    0 -0.64187389802E+03 -0.26790057037E+03  0.16578456220E+04  0.20324856030E+04  0.94803628807E+03 0.  0.
         23    2    4    4    0    0 -0.66602136059E+03 -0.27534997543E+03  0.52663168268E+03  0.89738090375E+03  0.92463481886E+02 0.  0.
         23    2    4    4    0    0  0.24147462573E+02  0.74494050566E+01  0.11312139394E+04  0.11351046993E+04  0.90438421992E+02 0.  0.
         11    1    3    3    0    0  0.62731423745E+03  0.26250767984E+03 -0.10081376286E+04  0.12160488940E+04  0.00000000000E+00 0.  1.
        -11    1    3    3    0    0  0.14559660562E+02  0.53928905337E+01 -0.50787642882E+01  0.16335875571E+02  0.00000000000E+00 0. -1.
          2    1    5    5  502    0 -0.29813550579E+03 -0.75010311126E+02  0.21068711230E+03  0.37269342076E+03  0.00000000000E+00 0. -1.
          4    1    6    6  503    0 -0.24324794420E+02  0.24416995963E+02  0.24604829159E+03  0.24845049227E+03  0.00000000000E+00 0. -1.
         -2    1    5    5    0  502 -0.36788585480E+03 -0.20033966430E+03  0.31594457038E+03  0.52468748299E+03  0.00000000000E+00 0.  1.
         -4    1    6    6    0  503  0.48472256993E+02 -0.16967590907E+02  0.88516564776E+03  0.88665420702E+03  0.00000000000E+00 0.  1.
<mgrwt>
<rscale>  0 0.32005986E+04</rscale>
<asrwt>0</asrwt>
<pdfrwt beam="1">  1        2 0.30073074E+00 0.32005986E+04</pdfrwt>
<pdfrwt beam="2">  1       -2 0.20155701E+00 0.32005986E+04</pdfrwt>
<totfact> 0.77449675E-01</totfact>
</mgrwt>
</event>
<event>
12    1  0.4967442E-008  0.2951016E+04  0.7818608E-02  0.8257859E-01
         -1   -1    0    0    0  501 -0.00000000000E+00  0.00000000000E+00  0.10719346852E+04  0.10719346852E+04  0.00000000000E+00 0. -1.
          1   -1    0    0  501    0  0.00000000000E+00 -0.00000000000E+00 -0.20310225756E+04  0.20310225756E+04  0.00000000000E+00 0.  1.
         23    2    1    2    0    0  0.72848504905E+03  0.10647937549E+04 -0.40404456002E+03  0.13549954838E+04  0.91019489830E+02 0.  0.
        254    2    1    2    0    0 -0.72848504905E+03 -0.10647937549E+04 -0.55504333034E+03  0.17479617770E+04  0.10405868864E+04 0.  0.
         23    2    4    4    0    0 -0.83294155900E+03 -0.33514251014E+03 -0.41125370371E+03  0.99140705222E+03  0.87442504360E+02 0.  0.
         23    2    4    4    0    0  0.10445650995E+03 -0.72965124474E+03 -0.14378962663E+03  0.75655472475E+03  0.91637838198E+02 0.  0.
         13    1    3    3    0    0  0.27567761088E+03  0.46705798641E+03 -0.14177476892E+03  0.56057237973E+03  0.00000000000E+00 0. -1.
        -13    1    3    3    0    0  0.45280743817E+03  0.59773576847E+03 -0.26226979110E+03  0.79442310408E+03  0.00000000000E+00 0.  1.
          3    1    6    6  502    0  0.84390687612E+00 -0.66213548880E+01  0.81174992349E+01  0.10509439243E+02  0.00000000000E+00 0. -1.
          3    1    5    5  503    0 -0.43896481862E+03 -0.22353316333E+03 -0.22574468846E+03  0.54186515985E+03  0.00000000000E+00 0. -1.
         -3    1    5    5    0  503 -0.39397674039E+03 -0.11160934681E+03 -0.18550901525E+03  0.44954189238E+03  0.00000000000E+00 0.  1.
         -3    1    6    6    0  502  0.10361260308E+03 -0.72302988986E+03 -0.15190712586E+03  0.74604528551E+03  0.00000000000E+00 0.  1.
<mgrwt>
<rscale>  0 0.29510158E+04</rscale>
<asrwt>0</asrwt>
<pdfrwt beam="1">  1        1 0.31246501E+00 0.29510158E+04</pdfrwt>
<pdfrwt beam="2">  1       -1 0.16491303E+00 0.29510158E+04</pdfrwt>
<totfact> 0.65112621E-01</totfact>
</mgrwt>
</event>
<event>
12    1  0.4967442E-008  0.1940289E+04  0.7818608E-02  0.8635058E-01
          1   -1    0    0  501    0  0.00000000000E+00  0.00000000000E+00  0.86617411391E+03  0.86617411391E+03  0.00000000000E+00 0. -1.
         -1   -1    0    0    0  501 -0.00000000000E+00 -0.00000000000E+00 -0.10865953405E+04  0.10865953405E+04  0.00000000000E+00 0.  1.
         23    2    1    2    0    0 -0.52002093407E+03  0.53966553758E+03 -0.17887722161E+03  0.77593450332E+03  0.91742186115E+02 0.  0.
        254    2    1    2    0    0  0.52002093407E+03 -0.53966553758E+03 -0.41544005003E+02  0.11768349511E+04  0.90639612393E+03 0.  0.
         23    2    4    4    0    0 -0.10426076207E+03 -0.44269358549E+03 -0.22140824255E+03  0.51356456699E+03  0.88763942284E+02 0.  0.
         23    2    4    4    0    0  0.62428169614E+03 -0.96971952092E+02  0.17986423755E+03  0.66327038412E+03  0.91898111365E+02 0.  0.
         13    1    3    3    0    0 -0.85979654058E+01  0.11016151503E+02 -0.18372327130E+02  0.23082959239E+02  0.00000000000E+00 0. -1.
        -13    1    3    3    0    0 -0.51142296866E+03  0.52864938608E+03 -0.16050489448E+03  0.75285154408E+03  0.00000000000E+00 0.  1.
          1    1    5    5  502    0  0.12731238185E+02 -0.51622129211E+02 -0.41654614316E+02  0.67542842284E+02  0.00000000000E+00 0. -1.
          3    1    6    6  503    0  0.76107941367E+02 -0.28720634204E+02  0.51067885972E+02  0.96048022082E+02  0.00000000000E+00 0. -1.
         -1    1    5    5    0  502 -0.11699200026E+03 -0.39107145628E+03 -0.17975362824E+03  0.44602172470E+03  0.00000000000E+00 0.  1.
         -3    1    6    6    0  503  0.54817375477E+03 -0.68251317888E+02  0.12879635158E+03  0.56722236204E+03  0.00000000000E+00 0.  1.
<mgrwt>
<rscale>  0 0.19402894E+04</rscale>
<asrwt>0</asrwt>
<pdfrwt beam="1">  1        1 0.13325756E+00 0.19402894E+04</pdfrwt>
<pdfrwt beam="2">  1       -1 0.16716851E+00 0.19402894E+04</pdfrwt>
<totfact> 0.46731609E+00</totfact>
</mgrwt>
</event>
<event>
12    1  0.7133689E-008  0.2713624E+04  0.7818608E-02  0.8330598E-01
          1   -1    0    0  501    0  0.00000000000E+00  0.00000000000E+00  0.15535312552E+04  0.15535312552E+04  0.00000000000E+00 0. -1.
         -1   -1    0    0    0  501 -0.00000000000E+00 -0.00000000000E+00 -0.11850023965E+04  0.11850023965E+04  0.00000000000E+00 0.  1.
         23    2    1    2    0    0 -0.40196935535E+03  0.58002291651E+03 -0.81469601773E+03  0.10818640815E+04  0.93243462395E+02 0.  0.
        254    2    1    2    0    0  0.40196935535E+03 -0.58002291651E+03  0.11832248764E+04  0.16566695703E+04  0.92006902487E+03 0.  0.
         23    2    4    4    0    0  0.92279960754E+02 -0.21490915075E+03  0.11397263941E+04  0.11672783839E+04  0.94133086038E+02 0.  0.
         23    2    4    4    0    0  0.30968939460E+03 -0.36511376576E+03  0.43498482308E+02  0.48939118634E+03  0.91629865395E+02 0.  0.
         11    1    3    3    0    0  0.18348109049E+00  0.31476627017E+02 -0.41270450567E+02  0.51904352454E+02  0.00000000000E+00 0. -1.
        -11    1    3    3    0    0 -0.40215283645E+03  0.54854628949E+03 -0.77342556716E+03  0.10299597291E+04  0.00000000000E+00 0.  1.
          1    1    5    5  502    0  0.49562659718E+02 -0.20125303931E+03  0.93916599614E+03  0.96176504999E+03  0.00000000000E+00 0. -1.
          3    1    6    6  503    0  0.24247675177E+03 -0.24441846979E+03 -0.87760637446E+00  0.34429076914E+03  0.00000000000E+00 0. -1.
         -1    1    5    5    0  502  0.42717301036E+02 -0.13656111434E+02  0.20056039796E+03  0.20551333392E+03  0.00000000000E+00 0.  1.
         -3    1    6    6    0  503  0.67212642832E+02 -0.12069529597E+03  0.44376088682E+02  0.14510041720E+03  0.00000000000E+00 0.  1.
<mgrwt>
<rscale>  0 0.27136236E+04</rscale>
<asrwt>0</asrwt>
<pdfrwt beam="1">  1        1 0.23900481E+00 0.27136236E+04</pdfrwt>
<pdfrwt beam="2">  1       -1 0.18230806E+00 0.27136236E+04</pdfrwt>
<totfact> 0.10495410E+00</totfact>
</mgrwt>
</event>
<event>
12    1  0.4967442E-008  0.1146865E+04  0.7818608E-02  0.9160681E-01
          2   -1    0    0  501    0  0.00000000000E+00  0.00000000000E+00  0.51239077017E+04  0.51239077017E+04  0.00000000000E+00 0. -1.
         -2   -1    0    0    0  501 -0.00000000000E+00 -0.00000000000E+00 -0.64174568520E+02  0.64174568520E+02  0.00000000000E+00 0.  1.
         23    2    1    2    0    0  0.13602519768E+03  0.33468500585E+02  0.28985895479E+03  0.33500162567E+03  0.92654630745E+02 0.  0.
        254    2    1    2    0    0 -0.13602519768E+03 -0.33468500585E+02  0.47698741784E+04  0.48530806445E+04  0.88378112100E+03 0.  0.
         23    2    4    4    0    0 -0.81422990041E+02  0.36910534982E+03  0.12412105505E+04  0.12999280600E+04  0.79629566432E+02 0.  0.
         23    2    4    4    0    0 -0.54602207637E+02 -0.40257385041E+03  0.35286636279E+04  0.35531525846E+04  0.91537884807E+02 0.  0.
         11    1    3    3    0    0  0.11615096554E+03 -0.76226969059E+01  0.24377017987E+03  0.27013524927E+03  0.00000000000E+00 0.  1.
        -11    1    3    3    0    0  0.19874232140E+02  0.41091197491E+02  0.46088774915E+02  0.64866376402E+02  0.00000000000E+00 0. -1.
          2    1    5    5  502    0 -0.94377111245E+02  0.26530448205E+03  0.91659140349E+03  0.95887085067E+03  0.00000000000E+00 0. -1.
          1    1    6    6  503    0 -0.51154156623E+02 -0.24165477228E+03  0.24704661624E+04  0.24827840897E+04  0.00000000000E+00 0.  1.
         -2    1    5    5    0  502  0.12954121204E+02  0.10380086777E+03  0.32461914700E+03  0.34105720928E+03  0.00000000000E+00 0.  1.
         -1    1    6    6    0  503 -0.34480510139E+01 -0.16091907812E+03  0.10581974655E+04  0.10703684948E+04  0.00000000000E+00 0. -1.
<mgrwt>
<rscale>  0 0.11468645E+04</rscale>
<asrwt>0</asrwt>
<pdfrwt beam="1">  1        2 0.78829317E+00 0.11468645E+04</pdfrwt>
<pdfrwt beam="2">  1       -2 0.98730146E-02 0.11468645E+04</pdfrwt>
<totfact> 0.18014483E+00</totfact>
</mgrwt>
</event>
<event>
12    1  0.4967442E-008  0.1218794E+04  0.7818608E-02  0.9096563E-01
         -3   -1    0    0    0  501 -0.00000000000E+00  0.00000000000E+00  0.13824253475E+04  0.13824253475E+04  0.00000000000E+00 0.  1.
          3   -1    0    0  501    0  0.00000000000E+00 -0.00000000000E+00 -0.26863290815E+03  0.26863290815E+03  0.00000000000E+00 0. -1.
         23    2    1    2    0    0  0.50588615797E+02 -0.25892157728E+03  0.20605750421E+03  0.34749152492E+03  0.93225927854E+02 0.  0.
        254    2    1    2    0    0 -0.50588615797E+02  0.25892157728E+03  0.90773493513E+03  0.13035667307E+04  0.89761011455E+03 0.  0.
         23    2    4    4    0    0  0.29257118476E+03  0.40409136682E+03  0.70854699603E+03  0.87124485770E+03  0.90227632136E+02 0.  0.
         23    2    4    4    0    0 -0.34315980056E+03 -0.14516978955E+03  0.19918793910E+03  0.43232187301E+03  0.91615775308E+02 0.  0.
         13    1    3    3    0    0  0.46554823809E+02 -0.13140855322E+03  0.15912244614E+03  0.21155498658E+03  0.00000000000E+00 0.  1.
        -13    1    3    3    0    0  0.40337919874E+01 -0.12751302405E+03  0.46935058067E+02  0.13593653834E+03  0.00000000000E+00 0. -1.
          4    1    5    5  502    0  0.24767606740E+03  0.30596587202E+03  0.60430600476E+03  0.72121029984E+03  0.00000000000E+00 0. -1.
          3    1    6    6  503    0 -0.98128799007E+02 -0.49310525838E+02  0.14312026905E+02  0.11075027434E+03  0.00000000000E+00 0. -1.
         -4    1    5    5    0  502  0.44895117366E+02  0.98125494805E+02  0.10424099127E+03  0.15003455787E+03  0.00000000000E+00 0.  1.
         -3    1    6    6    0  503 -0.24503100155E+03 -0.95859263708E+02  0.18487591220E+03  0.32157159867E+03  0.00000000000E+00 0.  1.
<mgrwt>
<rscale>  0 0.12187944E+04</rscale>
<asrwt>0</asrwt>
<pdfrwt beam="1">  1        3 0.41328140E-01 0.12187944E+04</pdfrwt>
<pdfrwt beam="2">  1       -3 0.21268082E+00 0.12187944E+04</pdfrwt>
<totfact> 0.18395533E+00</totfact>
</mgrwt>
</event>
<event>
12    1  0.4967442E-008  0.2489770E+04  0.7818608E-02  0.8406639E-01
         -2   -1    0    0    0  501 -0.00000000000E+00  0.00000000000E+00  0.16812060363E+04  0.16812060363E+04  0.00000000000E+00 0. -1.
          2   -1    0    0  501    0  0.00000000000E+00 -0.00000000000E+00 -0.92180149851E+03  0.92180149851E+03  0.00000000000E+00 0.  1.
         23    2    1    2    0    0  0.76203806991E+02  0.92074857382E+03  0.92737386614E+03  0.13122136366E+04  0.91089978411E+02 0.  0.
        254    2    1    2    0    0 -0.76203806991E+02 -0.92074857382E+03 -0.16796932833E+03  0.12907938982E+04  0.88563549839E+03 0.  0.
         23    2    4    4    0    0 -0.66243700869E+00 -0.90504853373E+03  0.17616263750E+03  0.92633286874E+03  0.89140460153E+02 0.  0.
         23    2    4    4    0    0 -0.75541369982E+02 -0.15700040094E+02 -0.34413196583E+03  0.36446102947E+03  0.91934989297E+02 0.  0.
         13    1    3    3    0    0  0.24455879950E+02  0.44417891706E+03  0.38457140617E+03  0.58803755566E+03  0.00000000000E+00 0.  1.
        -13    1    3    3    0    0  0.51747927041E+02  0.47656965676E+03  0.54280245998E+03  0.72417608097E+03  0.00000000000E+00 0. -1.
          1    1    5    5  502    0 -0.31220905705E+02 -0.18744107072E+03  0.18056530407E+02  0.19087938138E+03  0.00000000000E+00 0. -1.
          3    1    6    6  503    0 -0.13961337167E+02 -0.15156368208E+02 -0.25665835448E+03  0.25748426235E+03  0.00000000000E+00 0. -1.
         -1    1    5    5    0  502  0.30558468696E+02 -0.71760746300E+03  0.15810610709E+03  0.73545348736E+03  0.00000000000E+00 0.  1.
         -3    1    6    6    0  503 -0.61580032815E+02 -0.54367188576E+00 -0.87473611347E+02  0.10697676712E+03  0.00000000000E+00 0.  1.
<mgrwt>
<rscale>  0 0.24897697E+04</rscale>
<asrwt>0</asrwt>
<pdfrwt beam="1">  1        2 0.14181562E+00 0.24897697E+04</pdfrwt>
<pdfrwt beam="2">  1       -2 0.25864708E+00 0.24897697E+04</pdfrwt>
<totfact> 0.14387836E+00</totfact>
</mgrwt>
</event>
<event>
12    1  0.4967442E-008  0.2592235E+04  0.7818608E-02  0.8370844E-01
         -2   -1    0    0    0  501 -0.00000000000E+00  0.00000000000E+00  0.17077126169E+04  0.17077126169E+04  0.00000000000E+00 0.  1.
          2   -1    0    0  501    0  0.00000000000E+00 -0.00000000000E+00 -0.98372546411E+03  0.98372546411E+03  0.00000000000E+00 0. -1.
         23    2    1    2    0    0 -0.58153868238E+03  0.23143089542E+03 -0.67025704184E+03  0.92169277636E+03  0.92334031571E+02 0.  0.
        254    2    1    2    0    0  0.58153868238E+03 -0.23143089542E+03  0.13942441946E+04  0.17697453046E+04  0.89237552104E+03 0.  0.
         23    2    4    4    0    0  0.70361922162E+03 -0.39824339440E+03  0.83251559555E+03  0.11642853979E+04  0.93810771374E+02 0.  0.
         23    2    4    4    0    0 -0.12208053923E+03  0.16681249897E+03  0.56172859904E+03  0.60545990666E+03  0.91173525317E+02 0.  0.
         11    1    3    3    0    0 -0.39977460010E+02  0.28439495625E+01 -0.75424194019E+02  0.85411324784E+02  0.00000000000E+00 0.  1.
        -11    1    3    3    0    0 -0.54156122237E+03  0.22858694586E+03 -0.59483284782E+03  0.83628145157E+03  0.00000000000E+00 0. -1.
          1    1    5    5  502    0  0.13784077220E+03 -0.10301993737E+03  0.13368657541E+03  0.21791118930E+03  0.00000000000E+00 0. -1.
          3    1    6    6  503    0 -0.56118626854E+02  0.99263170087E+02  0.41969442748E+03  0.43490905909E+03  0.00000000000E+00 0. -1.
         -1    1    5    5    0  502  0.56577844941E+03 -0.29522345703E+03  0.69882902014E+03  0.94637420865E+03  0.00000000000E+00 0.  1.
         -3    1    6    6    0  503 -0.65961912378E+02  0.67549328887E+02  0.14203417156E+03  0.17055084757E+03  0.00000000000E+00 0.  1.
<mgrwt>
<rscale>  0 0.25922349E+04</rscale>
<asrwt>0</asrwt>
<pdfrwt beam="1">  1        2 0.15134238E+00 0.25922349E+04</pdfrwt>
<pdfrwt beam="2">  1       -2 0.26272502E+00 0.25922349E+04</pdfrwt>
<totfact> 0.12263138E+00</totfact>
</mgrwt>
</event>
<event>
12    1  0.6719042E-008  0.1628989E+04  0.7818608E-02  0.8802934E-01
         -1   -1    0    0    0  501 -0.00000000000E+00  0.00000000000E+00  0.85673620907E+03  0.85673620907E+03  0.00000000000E+00 0.  1.
          1   -1    0    0  501    0  0.00000000000E+00 -0.00000000000E+00 -0.77433552787E+03  0.77433552787E+03  0.00000000000E+00 0. -1.
         23    2    1    2    0    0  0.10309015092E+03  0.41975955074E+03 -0.32596025890E+03  0.54999134261E+03  0.97029515654E+02 0.  0.
        254    2    1    2    0    0 -0.10309015092E+03 -0.41975955074E+03  0.40836094010E+03  0.10810803943E+04  0.90285685574E+03 0.  0.
         23    2    4    4    0    0  0.19976647614E+03  0.48784959111E+01  0.49714351783E+03  0.54328385811E+03  0.89862274970E+02 0.  0.
         23    2    4    4    0    0 -0.30285662706E+03 -0.42463804665E+03 -0.88782577725E+02  0.53779653622E+03  0.96452895479E+02 0.  0.
         13    1    3    3    0    0 -0.50798208075E+01  0.38279046508E+02 -0.64020840791E+02  0.74764684422E+02  0.00000000000E+00 0.  1.
        -13    1    3    3    0    0  0.10816997173E+03  0.38148050423E+03 -0.26193941811E+03  0.47522665819E+03  0.00000000000E+00 0. -1.
          1    1    5    5  502    0  0.41454630394E+02  0.15546331473E+02  0.41041658422E+02  0.60370460735E+02  0.00000000000E+00 0. -1.
          1    1    6    6  503    0  0.52041122207E+01 -0.44626959249E+01 -0.80461555688E+01  0.10570669721E+02  0.00000000000E+00 0. -1.
         -1    1    5    5    0  502  0.15831184574E+03 -0.10667835562E+02  0.45610185940E+03  0.48291339738E+03  0.00000000000E+00 0.  1.
         -1    1    6    6    0  503 -0.30806073928E+03 -0.42017535073E+03 -0.80736422156E+02  0.52722586650E+03  0.00000000000E+00 0.  1.
<mgrwt>
<rscale>  0 0.16289890E+04</rscale>
<asrwt>0</asrwt>
<pdfrwt beam="1">  1        1 0.11912854E+00 0.16289890E+04</pdfrwt>
<pdfrwt beam="2">  1       -1 0.13180557E+00 0.16289890E+04</pdfrwt>
<totfact> 0.10920662E+01</totfact>
</mgrwt>
</event>
<event>
12    1  0.4967442E-008  0.1839861E+04  0.7818608E-02  0.8685385E-01
         -2   -1    0    0    0  501 -0.00000000000E+00  0.00000000000E+00  0.15866208369E+04  0.15866208369E+04  0.00000000000E+00 0.  1.
          2   -1    0    0  501    0  0.00000000000E+00 -0.00000000000E+00 -0.53337997313E+03  0.53337997313E+03  0.00000000000E+00 0. -1.
         23    2    1    2    0    0 -0.91536740561E+02 -0.34310467896E+03 -0.29057891241E+03  0.46806945160E+03  0.92483034065E+02 0.  0.
        254    2    1    2    0    0  0.91536740561E+02  0.34310467896E+03  0.13438197761E+04  0.16519313584E+04  0.89270702166E+03 0.  0.
         23    2    4    4    0    0 -0.16673829522E+03  0.50304256649E+03  0.44511675911E+03  0.69853861119E+03  0.94730033792E+02 0.  0.
         23    2    4    4    0    0  0.25827503578E+03 -0.15993788753E+03  0.89870301703E+03  0.95339274720E+03  0.94892020873E+02 0.  0.
         13    1    3    3    0    0 -0.72710036139E+02 -0.29286341650E+03 -0.28334248840E+03  0.41393078626E+03  0.00000000000E+00 0. -1.
        -13    1    3    3    0    0 -0.18826704422E+02 -0.50241262458E+02 -0.72364240097E+01  0.54138665343E+02  0.00000000000E+00 0.  1.
          4    1    5    5  502    0 -0.17177858630E+03  0.50277240360E+03  0.44564906644E+03  0.69346309415E+03  0.00000000000E+00 0. -1.
          3    1    6    6  503    0  0.20019193811E+02 -0.49659247632E+01  0.16960419042E+03  0.17085376770E+03  0.00000000000E+00 0. -1.
         -4    1    5    5    0  502  0.50402910798E+01  0.27016288949E+00 -0.53230733537E+00  0.50755170432E+01  0.00000000000E+00 0.  1.
         -3    1    6    6    0  503  0.23825584197E+03 -0.15497196276E+03  0.72909882661E+03  0.78253897950E+03  0.00000000000E+00 0.  1.
<mgrwt>
<rscale>  0 0.18398606E+04</rscale>
<asrwt>0</asrwt>
<pdfrwt beam="1">  1        2 0.82058458E-01 0.18398606E+04</pdfrwt>
<pdfrwt beam="2">  1       -2 0.24409551E+00 0.18398606E+04</pdfrwt>
<totfact> 0.37531613E+00</totfact>
</mgrwt>
</event>
<event>
12    1  0.4967442E-008  0.1480310E+04  0.7818608E-02  0.8897653E-01
         -1   -1    0    0    0  501 -0.00000000000E+00  0.00000000000E+00  0.30156465978E+03  0.30156465978E+03  0.00000000000E+00 0.  1.
          1   -1    0    0  501    0  0.00000000000E+00 -0.00000000000E+00 -0.18166235616E+04  0.18166235616E+04  0.00000000000E+00 0. -1.
         23    2    1    2    0    0  0.13616270608E+03 -0.37545527568E+03 -0.81264094862E+03  0.90994190590E+03  0.90011189142E+02 0.  0.
        254    2    1    2    0    0 -0.13616270608E+03  0.37545527568E+03 -0.70241795322E+03  0.12082463155E+04  0.89831020887E+03 0.  0.
         23    2    4    4    0    0 -0.17903644359E+03 -0.65212084171E+02 -0.72448324174E+03  0.75492851815E+03  0.93458204019E+02 0.  0.
         23    2    4    4    0    0  0.42873737516E+02  0.44066735985E+03  0.22065288519E+02  0.45331779736E+03  0.94785384097E+02 0.  0.
         11    1    3    3    0    0  0.88333494620E+02 -0.27800184660E+03 -0.49849944738E+03  0.57757210114E+03  0.00000000000E+00 0.  1.
        -11    1    3    3    0    0  0.47829211455E+02 -0.97453429080E+02 -0.31414150125E+03  0.33236980476E+03  0.00000000000E+00 0. -1.
          2    1    5    5  502    0 -0.34002082740E+02 -0.15608384744E+02 -0.32333494556E+03  0.32549231992E+03  0.00000000000E+00 0. -1.
          3    1    6    6  503    0 -0.72060561251E+01  0.20013039411E+02 -0.17915664338E+02  0.27810430058E+02  0.00000000000E+00 0. -1.
         -2    1    5    5    0  502 -0.14503436085E+03 -0.49603699427E+02 -0.40114829618E+03  0.42943619823E+03  0.00000000000E+00 0.  1.
         -3    1    6    6    0  503  0.50079793641E+02  0.42065432044E+03  0.39980952857E+02  0.42550736730E+03  0.00000000000E+00 0.  1.
<mgrwt>
<rscale>  0 0.14803101E+04</rscale>
<asrwt>0</asrwt>
<pdfrwt beam="1">  1        1 0.27948055E+00 0.14803101E+04</pdfrwt>
<pdfrwt beam="2">  1       -1 0.46394562E-01 0.14803101E+04</pdfrwt>
<totfact> 0.17791626E+01</totfact>
</mgrwt>
</event>
<event>
12    1  0.4967442E-008  0.1577837E+04  0.7818608E-02  0.8834281E-01
          1   -1    0    0  501    0  0.00000000000E+00  0.00000000000E+00  0.21004434585E+04  0.21004434585E+04  0.00000000000E+00 0. -1.
         -1   -1    0    0    0  501 -0.00000000000E+00 -0.00000000000E+00 -0.29631469514E+03  0.29631469514E+03  0.00000000000E+00 0.  1.
         23    2    1    2    0    0 -0.44360817737E+03 -0.20159230537E+02  0.99785074024E+03  0.10958440259E+04  0.89294007515E+02 0.  0.
        254    2    1    2    0    0  0.44360817737E+03  0.20159230537E+02  0.80627802315E+03  0.13009141277E+04  0.91929250378E+03 0.  0.
         23    2    4    4    0    0  0.34497607040E+03 -0.30250261978E+03  0.82881918427E+03  0.95172915475E+03  0.91273323902E+02 0.  0.
         23    2    4    4    0    0  0.98632106966E+02  0.32266185032E+03 -0.22541161121E+02  0.34918497298E+03  0.87080877534E+02 0.  0.
         11    1    3    3    0    0 -0.12704992911E+03  0.55990857598E+01  0.19891649622E+03  0.23609491040E+03  0.00000000000E+00 0. -1.
        -11    1    3    3    0    0 -0.31655824826E+03 -0.25758316297E+02  0.79893424402E+03  0.85974911554E+03  0.00000000000E+00 0.  1.
          2    1    5    5  502    0  0.21452146348E+03 -0.23633084332E+03  0.52243786305E+03  0.61221976981E+03  0.00000000000E+00 0. -1.
          1    1    6    6  503    0  0.10532215287E+03  0.31620985694E+03 -0.98241706645E+01  0.33343356735E+03  0.00000000000E+00 0.  1.
         -2    1    5    5    0  502  0.13045460692E+03 -0.66171776460E+02  0.30638132122E+03  0.33950938494E+03  0.00000000000E+00 0.  1.
         -1    1    6    6    0  503 -0.66900459059E+01  0.64519933836E+01 -0.12716990456E+02  0.15751405623E+02  0.00000000000E+00 0. -1.
<mgrwt>
<rscale>  0 0.15778368E+04</rscale>
<asrwt>0</asrwt>
<pdfrwt beam="1">  1        1 0.32314514E+00 0.15778368E+04</pdfrwt>
<pdfrwt beam="2">  1       -1 0.45586878E-01 0.15778368E+04</pdfrwt>
<totfact> 0.11710043E+01</totfact>
</mgrwt>
</event>
<event>
12    1  0.4967442E-008  0.2104979E+04  0.7818608E-02  0.8559053E-01
          1   -1    0    0  501    0  0.00000000000E+00  0.00000000000E+00  0.64290163665E+03  0.64290163665E+03  0.00000000000E+00 0. -1.
         -1   -1    0    0    0  501 -0.00000000000E+00 -0.00000000000E+00 -0.17230226859E+04  0.17230226859E+04  0.00000000000E+00 0.  1.
         23    2    1    2    0    0  0.12289762796E+02  0.20209983408E+03 -0.13875477265E+04  0.14051929732E+04  0.91012183032E+02 0.  0.
        254    2    1    2    0    0 -0.12289762796E+02 -0.20209983408E+03  0.30742667725E+03  0.96073134933E+03  0.88741094342E+03 0.  0.
         23    2    4    4    0    0  0.12055591118E+03 -0.48003084851E+03  0.37989959601E+03  0.63091467913E+03  0.93628446819E+02 0.  0.
         23    2    4    4    0    0 -0.13284567397E+03  0.27793101443E+03 -0.72472918762E+02  0.32981667020E+03  0.92914423611E+02 0.  0.
         11    1    3    3    0    0  0.13549439354E+02 -0.34995862639E+01 -0.49466072853E+02  0.51407458353E+02  0.00000000000E+00 0. -1.
        -11    1    3    3    0    0 -0.12596765580E+01  0.20559942035E+03 -0.13380816536E+04  0.13537855148E+04  0.00000000000E+00 0.  1.
          4    1    6    6  502    0 -0.93813932751E+02  0.24208661061E+03 -0.28942396685E+02  0.26123675725E+03  0.00000000000E+00 0.  1.
          4    1    5    5  503    0  0.65915732908E+02 -0.22450470294E+03  0.23721200008E+03  0.33319180433E+03  0.00000000000E+00 0. -1.
         -4    1    5    5    0  503  0.54640178267E+02 -0.25552614557E+03  0.14268759593E+03  0.29772287480E+03  0.00000000000E+00 0.  1.
         -4    1    6    6    0  502 -0.39031741220E+02  0.35844403821E+02 -0.43530522077E+02  0.68579912950E+02  0.00000000000E+00 0. -1.
<mgrwt>
<rscale>  0 0.21049790E+04</rscale>
<asrwt>0</asrwt>
<pdfrwt beam="1">  1        1 0.98907945E-01 0.21049790E+04</pdfrwt>
<pdfrwt beam="2">  1       -1 0.26508041E+00 0.21049790E+04</pdfrwt>
<totfact> 0.15826945E+00</totfact>
</mgrwt>
</event>
<event>
12    1  0.4967442E-008  0.1683689E+04  0.7818608E-02  0.8770722E-01
         -2   -1    0    0    0  501 -0.00000000000E+00  0.00000000000E+00  0.31134995384E+03  0.31134995384E+03  0.00000000000E+00 0.  1.
          2   -1    0    0  501    0  0.00000000000E+00 -0.00000000000E+00 -0.22762243208E+04  0.22762243208E+04  0.00000000000E+00 0. -1.
         23    2    1    2    0    0  0.36736614805E+02 -0.13852240010E+03  0.18346679491E+03  0.25020019983E+03  0.91662647593E+02 0.  0.
        254    2    1    2    0    0 -0.36736614805E+02  0.13852240010E+03 -0.21483411619E+04  0.23373740748E+04  0.90962068115E+03 0.  0.
         23    2    4    4    0    0  0.25594630398E+03 -0.25914315795E+03 -0.12836844800E+04  0.13375698887E+04  0.92648130673E+02 0.  0.
         23    2    4    4    0    0 -0.29268291878E+03  0.39766555805E+03 -0.86465668190E+03  0.99980418613E+03  0.90421491086E+02 0.  0.
         11    1    3    3    0    0  0.32504032347E+02 -0.45380311179E+02  0.15240303651E+02  0.57863214713E+02  0.00000000000E+00 0. -1.
        -11    1    3    3    0    0  0.42325824584E+01 -0.93142088924E+02  0.16822649126E+03  0.19233698512E+03  0.00000000000E+00 0.  1.
          1    1    5    5  502    0  0.66146109329E+02 -0.23260503219E+02 -0.31333336212E+03  0.32108278467E+03  0.00000000000E+00 0. -1.
          3    1    6    6  503    0 -0.19327339764E+03  0.24002424688E+03 -0.45248958187E+03  0.54746056207E+03  0.00000000000E+00 0. -1.
         -1    1    5    5    0  502  0.18980019465E+03 -0.23588265473E+03 -0.97035111789E+03  0.10164871040E+04  0.00000000000E+00 0.  1.
         -3    1    6    6    0  503 -0.99409521145E+02  0.15764131118E+03 -0.41216710003E+03  0.45234362406E+03  0.00000000000E+00 0.  1.
<mgrwt>
<rscale>  0 0.16836892E+04</rscale>
<asrwt>0</asrwt>
<pdfrwt beam="1">  1        2 0.35018836E+00 0.16836892E+04</pdfrwt>
<pdfrwt beam="2">  1       -2 0.47899993E-01 0.16836892E+04</pdfrwt>
<totfact> 0.18414233E+01</totfact>
</mgrwt>
</event>
<event>
12    1  0.4967442E-008  0.1289295E+04  0.7818608E-02  0.9038098E-01
          2   -1    0    0  501    0  0.00000000000E+00  0.00000000000E+00  0.63102332437E+03  0.63102332437E+03  0.00000000000E+00 0. -1.
         -2   -1    0    0    0  501 -0.00000000000E+00 -0.00000000000E+00 -0.65856576962E+03  0.65856576962E+03  0.00000000000E+00 0.  1.
         23    2    1    2    0    0  0.22612668852E+03 -0.17934490611E+03  0.12401507402E+03  0.32687210079E+03  0.90375644291E+02 0.  0.
        254    2    1    2    0    0 -0.22612668852E+03  0.17934490611E+03 -0.15155751928E+03  0.96271699320E+03  0.90584571133E+03 0.  0.
         23    2    4    4    0    0 -0.92719770746E+01  0.24019869551E+03  0.33280985272E+03  0.42068875231E+03  0.91843591882E+02 0.  0.
         23    2    4    4    0    0 -0.21685471144E+03 -0.60853789403E+02 -0.48436737199E+03  0.54202824089E+03  0.91944077107E+02 0.  0.
         13    1    3    3    0    0  0.62020055087E+01  0.84739958546E+01 -0.31144731859E+01  0.10953237937E+02  0.00000000000E+00 0.  1.
        -13    1    3    3    0    0  0.21992468301E+03 -0.18781890196E+03  0.12712954721E+03  0.31591886285E+03  0.00000000000E+00 0. -1.
          2    1    5    5  502    0 -0.49149828133E+02  0.15573398405E+03  0.19751281671E+03  0.25628127547E+03  0.00000000000E+00 0. -1.
          1    1    6    6  503    0 -0.18681595791E+02 -0.55615617241E+01 -0.13640903736E+03  0.13779462422E+03  0.00000000000E+00 0. -1.
         -2    1    5    5    0  502  0.39877851058E+02  0.84464711465E+02  0.13529703601E+03  0.16440747684E+03  0.00000000000E+00 0.  1.
         -1    1    6    6    0  503 -0.19817311565E+03 -0.55292227679E+02 -0.34795833463E+03  0.40423361667E+03  0.00000000000E+00 0.  1.
<mgrwt>
<rscale>  0 0.12892949E+04</rscale>
<asrwt>0</asrwt>
<pdfrwt beam="1">  1        2 0.97080511E-01 0.12892949E+04</pdfrwt>
<pdfrwt beam="2">  1       -2 0.10131781E+00 0.12892949E+04</pdfrwt>
<totfact> 0.36635045E+01</totfact>
</mgrwt>
</event>
<event>
12    1  0.4967442E-008  0.1482075E+04  0.7818608E-02  0.8896461E-01
          1   -1    0    0  501    0  0.00000000000E+00  0.00000000000E+00  0.84610760487E+03  0.84610760487E+03  0.00000000000E+00 0. -1.
         -1   -1    0    0    0  501 -0.00000000000E+00 -0.00000000000E+00 -0.64901547648E+03  0.64901547648E+03  0.00000000000E+00 0.  1.
         23    2    1    2    0    0 -0.13630375373E+03 -0.36218235691E+03  0.33128436534E+03  0.51859813805E+03  0.97159277108E+02 0.  0.
        254    2    1    2    0    0  0.13630375373E+03  0.36218235691E+03 -0.13419223695E+03  0.97652494330E+03  0.88647540039E+03 0.  0.
         23    2    4    4    0    0  0.20649431400E+03 -0.13341422044E+03 -0.33872153708E+03  0.42836847704E+03  0.91257966824E+02 0.  0.
         23    2    4    4    0    0 -0.70190560270E+02  0.49559657735E+03  0.20452930013E+03  0.54815646626E+03  0.90003303621E+02 0.  0.
         13    1    3    3    0    0 -0.17867520442E+02 -0.58247718465E+02  0.11897784150E+02  0.62077389287E+02  0.00000000000E+00 0.  1.
        -13    1    3    3    0    0 -0.11843623329E+03 -0.30393463844E+03  0.31938658119E+03  0.45652074876E+03  0.00000000000E+00 0. -1.
          4    1    5    5  502    0  0.81725140681E+01 -0.25669045416E+02 -0.83141332418E+02  0.87396630570E+02  0.00000000000E+00 0. -1.
          4    1    6    6  503    0  0.14461110034E+02  0.12315352289E+03  0.26682164043E+02  0.12683789568E+03  0.00000000000E+00 0. -1.
         -4    1    5    5    0  502  0.19832179994E+03 -0.10774517502E+03 -0.25558020467E+03  0.34097184647E+03  0.00000000000E+00 0.  1.
         -4    1    6    6    0  503 -0.84651670303E+02  0.37244305446E+03  0.17784713609E+03  0.42131857058E+03  0.00000000000E+00 0.  1.
<mgrwt>
<rscale>  0 0.14820755E+04</rscale>
<asrwt>0</asrwt>
<pdfrwt beam="1">  1        1 0.13017040E+00 0.14820755E+04</pdfrwt>
<pdfrwt beam="2">  1       -1 0.99848535E-01 0.14820755E+04</pdfrwt>
<totfact> 0.18704650E+01</totfact>
</mgrwt>
</event>
<event>
12    1  0.4967442E-008  0.1504829E+04  0.7818608E-02  0.8881248E-01
          1   -1    0    0  501    0  0.00000000000E+00  0.00000000000E+00  0.62732701115E+03  0.62732701115E+03  0.00000000000E+00 0. -1.
         -1   -1    0    0    0  501 -0.00000000000E+00 -0.00000000000E+00 -0.90244427863E+03  0.90244427863E+03  0.00000000000E+00 0.  1.
         23    2    1    2    0    0  0.25085958330E+02  0.17921609719E+03  0.36482958078E+03  0.41661475680E+03  0.87860786308E+02 0.  0.
        254    2    1    2    0    0 -0.25085958330E+02 -0.17921609719E+03 -0.63994684826E+03  0.11131565330E+04  0.89265770793E+03 0.  0.
         23    2    4    4    0    0 -0.16106450858E+03  0.27640024567E+03 -0.30508186100E+02  0.33434421474E+03  0.92284520808E+02 0.  0.
         23    2    4    4    0    0  0.13597855025E+03 -0.45561634286E+03 -0.60943866216E+03  0.77881231825E+03  0.95166833040E+02 0.  0.
         13    1    3    3    0    0  0.82230782804E+01  0.14728034868E+03  0.20378174299E+03  0.25156732478E+03  0.00000000000E+00 0. -1.
        -13    1    3    3    0    0  0.16862880049E+02  0.31935748513E+02  0.16104783779E+03  0.16504743202E+03  0.00000000000E+00 0.  1.
          1    1    5    5  502    0 -0.49914143715E+02  0.10670883900E+03 -0.55009489050E+02  0.13001631417E+03  0.00000000000E+00 0. -1.
          3    1    6    6  503    0  0.21016358755E+02 -0.17838788241E+03 -0.17490308281E+03  0.25070901919E+03  0.00000000000E+00 0. -1.
         -1    1    5    5    0  502 -0.11115036487E+03  0.16969140666E+03  0.24501302950E+02  0.20432790057E+03  0.00000000000E+00 0.  1.
         -3    1    6    6    0  503  0.11496219150E+03 -0.27722846045E+03 -0.43453557935E+03  0.52810329906E+03  0.00000000000E+00 0.  1.
<mgrwt>
<rscale>  0 0.15048291E+04</rscale>
<asrwt>0</asrwt>
<pdfrwt beam="1">  1        1 0.96511848E-01 0.15048291E+04</pdfrwt>
<pdfrwt beam="2">  1       -1 0.13883758E+00 0.15048291E+04</pdfrwt>
<totfact> 0.13297697E+01</totfact>
</mgrwt>
</event>
<event>
12    1  0.4967442E-008  0.1225805E+04  0.7818608E-02  0.9090564E-01
          1   -1    0    0  501    0  0.00000000000E+00  0.00000000000E+00  0.92988430370E+03  0.92988430370E+03  0.00000000000E+00 0. -1.
         -1   -1    0    0    0  501 -0.00000000000E+00 -0.00000000000E+00 -0.40397462405E+03  0.40397462405E+03  0.00000000000E+00 0.  1.
         23    2    1    2    0    0  0.24433888216E+03  0.10607875382E+03  0.20589086709E+03  0.34892928975E+03  0.91686469820E+02 0.  0.
        254    2    1    2    0    0 -0.24433888216E+03 -0.10607875382E+03  0.32001881256E+03  0.98492963800E+03  0.89259182165E+03 0.  0.
         23    2    4    4    0    0  0.32920108215E+02 -0.37143285042E+03 -0.11262898111E+03  0.39967887050E+03  0.89508749557E+02 0.  0.
         23    2    4    4    0    0 -0.27725899037E+03  0.26535409660E+03  0.43264779367E+03  0.58525076750E+03  0.89716236871E+02 0.  0.
         13    1    3    3    0    0  0.20338382104E+03  0.49425434396E+02  0.13327838818E+03  0.24813500555E+03  0.00000000000E+00 0. -1.
        -13    1    3    3    0    0  0.40955061118E+02  0.56653319420E+02  0.72612478911E+02  0.10079428419E+03  0.00000000000E+00 0.  1.
          4    1    5    5  502    0  0.51561778727E+02 -0.11306408955E+03 -0.30886142884E+02  0.12804709756E+03  0.00000000000E+00 0. -1.
          3    1    6    6  503    0 -0.14376333154E+03  0.76892436919E+02  0.18668248932E+03  0.24785216192E+03  0.00000000000E+00 0. -1.
         -4    1    5    5    0  502 -0.18641670512E+02 -0.25836876087E+03 -0.81742838225E+02  0.27163177294E+03  0.00000000000E+00 0.  1.
         -3    1    6    6    0  503 -0.13349565884E+03  0.18846165968E+03  0.24596530435E+03  0.33739860557E+03  0.00000000000E+00 0.  1.
<mgrwt>
<rscale>  0 0.12258053E+04</rscale>
<asrwt>0</asrwt>
<pdfrwt beam="1">  1        1 0.14305912E+00 0.12258053E+04</pdfrwt>
<pdfrwt beam="2">  1       -1 0.62149942E-01 0.12258053E+04</pdfrwt>
<totfact> 0.44633381E+01</totfact>
</mgrwt>
</event>
<event>
12    1  0.4967442E-008  0.1313319E+04  0.7818608E-02  0.9019069E-01
         -1   -1    0    0    0  501 -0.00000000000E+00  0.00000000000E+00  0.61084086282E+03  0.61084086282E+03  0.00000000000E+00 0.  1.
          1   -1    0    0  501    0  0.00000000000E+00 -0.00000000000E+00 -0.70591519934E+03  0.70591519934E+03  0.00000000000E+00 0. -1.
         23    2    1    2    0    0 -0.62614259338E+02 -0.34366233655E+03 -0.28178800917E+02  0.36145052181E+03  0.88476481953E+02 0.  0.
        254    2    1    2    0    0  0.62614259338E+02  0.34366233655E+03 -0.66895535607E+02  0.95530554035E+03  0.88662805939E+03 0.  0.
         23    2    4    4    0    0  0.42085159363E+03  0.34289832075E+03  0.83158360201E+02  0.55656074514E+03  0.90273074239E+02 0.  0.
         23    2    4    4    0    0 -0.35823733429E+03  0.76401580169E+00 -0.15005389581E+03  0.39874479521E+03  0.90258897948E+02 0.  0.
         11    1    3    3    0    0 -0.46923730646E+02 -0.27533202211E+03 -0.58004295864E+02  0.28526138406E+03  0.00000000000E+00 0. -1.
        -11    1    3    3    0    0 -0.15690528691E+02 -0.68330314441E+02  0.29825494946E+02  0.76189137750E+02  0.00000000000E+00 0.  1.
          2    1    5    5  502    0  0.38541036957E+03  0.29730906588E+03  0.48392711114E+02  0.48915814224E+03  0.00000000000E+00 0. -1.
          3    1    6    6  503    0 -0.34844460588E+03  0.14323807530E+02 -0.15451128828E+03  0.38143486080E+03  0.00000000000E+00 0. -1.
         -2    1    5    5    0  502  0.35441224053E+02  0.45589254870E+02  0.34765649087E+02  0.67402602906E+02  0.00000000000E+00 0.  1.
         -3    1    6    6    0  503 -0.97927284078E+01 -0.13559791728E+02  0.44573924733E+01  0.17309934403E+02  0.00000000000E+00 0.  1.
<mgrwt>
<rscale>  0 0.13133192E+04</rscale>
<asrwt>0</asrwt>
<pdfrwt beam="1">  1        1 0.10860234E+00 0.13133192E+04</pdfrwt>
<pdfrwt beam="2">  1       -1 0.93975517E-01 0.13133192E+04</pdfrwt>
<totfact> 0.28979321E+01</totfact>
</mgrwt>
</event>
<event>
12    1  0.4967442E-008  0.1729754E+04  0.7818608E-02  0.8744574E-01
         -1   -1    0    0    0  501 -0.00000000000E+00  0.00000000000E+00  0.25324630850E+03  0.25324630850E+03  0.00000000000E+00 0.  1.
          1   -1    0    0  501    0  0.00000000000E+00 -0.00000000000E+00 -0.29536954267E+04  0.29536954267E+04  0.00000000000E+00 0. -1.
         23    2    1    2    0    0 -0.39858724215E+02 -0.33300978568E+03 -0.89499240264E+01  0.34800562453E+03  0.92431478969E+02 0.  0.
        254    2    1    2    0    0  0.39858724215E+02  0.33300978568E+03 -0.26914991942E+04  0.28589361107E+04  0.90380503286E+03 0.  0.
         23    2    4    4    0    0 -0.33257068909E+03  0.37839302713E+03 -0.99396566005E+03  0.11180269098E+04  0.90729772072E+02 0.  0.
         23    2    4    4    0    0  0.37242941330E+03 -0.45383241444E+02 -0.16975335341E+04  0.17409092009E+04  0.91550202598E+02 0.  0.
         13    1    3    3    0    0 -0.22511843693E+02 -0.14694721412E+03  0.41689230231E+02  0.15439643377E+03  0.00000000000E+00 0.  1.
        -13    1    3    3    0    0 -0.17346880522E+02 -0.18606257156E+03 -0.50639154257E+02  0.19360919075E+03  0.00000000000E+00 0. -1.
          1    1    5    5  502    0 -0.84140735059E+02  0.58377929388E+02 -0.26414266884E+03  0.28330018609E+03  0.00000000000E+00 0. -1.
          3    1    6    6  503    0  0.12927412307E+03  0.13148996896E+02 -0.73593847349E+03  0.74732197330E+03  0.00000000000E+00 0. -1.
         -1    1    5    5    0  502 -0.24842995403E+03  0.32001509774E+03 -0.72982299121E+03  0.83472672375E+03  0.00000000000E+00 0.  1.
         -3    1    6    6    0  503  0.24315529023E+03 -0.58532238340E+02 -0.96159506066E+03  0.99358722756E+03  0.00000000000E+00 0.  1.
<mgrwt>
<rscale>  0 0.17297543E+04</rscale>
<asrwt>0</asrwt>
<pdfrwt beam="1">  1        1 0.45441470E+00 0.17297543E+04</pdfrwt>
<pdfrwt beam="2">  1       -1 0.38960969E-01 0.17297543E+04</pdfrwt>
<totfact> 0.39328509E+00</totfact>
</mgrwt>
</event>
<event>
12    1  0.4967442E-008  0.1748774E+04  0.7818608E-02  0.8734025E-01
          1   -1    0    0  501    0  0.00000000000E+00  0.00000000000E+00  0.13979775057E+04  0.13979775057E+04  0.00000000000E+00 0. -1.
         -1   -1    0    0    0  501 -0.00000000000E+00 -0.00000000000E+00 -0.54689914718E+03  0.54689914718E+03  0.00000000000E+00 0.  1.
         23    2    1    2    0    0 -0.31168489429E+03  0.55758953439E+03  0.33920348104E+03  0.72879958563E+03  0.89645257969E+02 0.  0.
        254    2    1    2    0    0  0.31168489429E+03 -0.55758953439E+03  0.51187487746E+03  0.12160770672E+04  0.89931862045E+03 0.  0.
         23    2    4    4    0    0 -0.22534906743E+03 -0.48954948631E+03  0.32872615436E+03  0.63668098398E+03  0.82830483913E+02 0.  0.
         23    2    4    4    0    0  0.53703396171E+03 -0.68040048087E+02  0.18314872310E+03  0.57939608325E+03  0.95506242414E+02 0.  0.
         13    1    3    3    0    0 -0.39917945068E+02  0.56292922884E+02  0.69741251869E+02  0.98113086373E+02  0.00000000000E+00 0. -1.
        -13    1    3    3    0    0 -0.27176694922E+03  0.50129661151E+03  0.26946222917E+03  0.63068649926E+03  0.00000000000E+00 0.  1.
          2    1    5    5  502    0 -0.17992574879E+03 -0.32077267026E+03  0.19275797718E+03  0.41523971249E+03  0.00000000000E+00 0. -1.
          1    1    6    6  503    0  0.47015235021E+03 -0.42918365101E+02  0.12802460373E+03  0.48915796798E+03  0.00000000000E+00 0. -1.
         -2    1    5    5    0  502 -0.45423318631E+02 -0.16877681605E+03  0.13596817719E+03  0.22144127149E+03  0.00000000000E+00 0.  1.
         -1    1    6    6    0  503  0.66881611501E+02 -0.25121682986E+02  0.55124119367E+02  0.90238115278E+02  0.00000000000E+00 0.  1.
<mgrwt>
<rscale>  0 0.17487741E+04</rscale>
<asrwt>0</asrwt>
<pdfrwt beam="1">  1        1 0.21507346E+00 0.17487741E+04</pdfrwt>
<pdfrwt beam="2">  1       -1 0.84138331E-01 0.17487741E+04</pdfrwt>
<totfact> 0.10224703E+01</totfact>
</mgrwt>
</event>
<event>
12    1  0.4967442E-008  0.2635586E+04  0.7818608E-02  0.8356213E-01
          2   -1    0    0  501    0  0.00000000000E+00  0.00000000000E+00  0.10087806979E+04  0.10087806979E+04  0.00000000000E+00 0. -1.
         -2   -1    0    0    0  501 -0.00000000000E+00 -0.00000000000E+00 -0.17214630252E+04  0.17214630252E+04  0.00000000000E+00 0.  1.
         23    2    1    2    0    0 -0.47565489377E+03 -0.17654278871E+03 -0.14048892468E+04  0.14964555500E+04  0.90832169996E+02 0.  0.
        254    2    1    2    0    0  0.47565489377E+03  0.17654278871E+03  0.69220691947E+03  0.12337881731E+04  0.88637909641E+03 0.  0.
         23    2    4    4    0    0  0.68944776413E+03  0.28762749354E+03  0.43238235247E+03  0.86822105588E+03  0.93731044157E+02 0.  0.
         23    2    4    4    0    0 -0.21379287036E+03 -0.11108470483E+03  0.25982456699E+03  0.36556711723E+03  0.89907221763E+02 0.  0.
         11    1    3    3    0    0 -0.34463625604E+03 -0.13485140487E+03 -0.11307251822E+04  0.11897472370E+04  0.00000000000E+00 0. -1.
        -11    1    3    3    0    0 -0.13101863773E+03 -0.41691383848E+02 -0.27416406467E+03  0.30670831301E+03  0.00000000000E+00 0.  1.
          1    1    5    5  502    0  0.45552547462E+03  0.22775105795E+03  0.26227331526E+03  0.57285364127E+03  0.00000000000E+00 0. -1.
          3    1    6    6  503    0 -0.13729161950E+03 -0.11319999560E+03  0.20482400875E+03  0.27132287472E+03  0.00000000000E+00 0. -1.
         -1    1    5    5    0  502  0.23392228951E+03  0.59876435591E+02  0.17010903721E+03  0.29536741461E+03  0.00000000000E+00 0.  1.
         -3    1    6    6    0  503 -0.76501250863E+02  0.21152907781E+01  0.55000558245E+02  0.94244242508E+02  0.00000000000E+00 0.  1.
<mgrwt>
<rscale>  0 0.26355862E+04</rscale>
<asrwt>0</asrwt>
<pdfrwt beam="1">  1        2 0.15519703E+00 0.26355862E+04</pdfrwt>
<pdfrwt beam="2">  1       -2 0.26484046E+00 0.26355862E+04</pdfrwt>
<totfact> 0.11427956E+00</totfact>
</mgrwt>
</event>
<event>
12    1  0.4967442E-008  0.2574002E+04  0.7818608E-02  0.8377086E-01
         -2   -1    0    0    0  501 -0.00000000000E+00  0.00000000000E+00  0.14162619780E+04  0.14162619780E+04  0.00000000000E+00 0.  1.
          2   -1    0    0  501    0  0.00000000000E+00 -0.00000000000E+00 -0.11695375473E+04  0.11695375473E+04  0.00000000000E+00 0. -1.
         23    2    1    2    0    0  0.47705742333E+03 -0.45587147875E+03  0.10259809444E+04  0.12233081368E+04  0.91887480096E+02 0.  0.
        254    2    1    2    0    0 -0.47705742333E+03  0.45587147875E+03 -0.77925651381E+03  0.13624913885E+04  0.90207509615E+03 0.  0.
         23    2    4    4    0    0 -0.37360762324E+03  0.40738679072E+03  0.97928711425E+01  0.56018363090E+03  0.90350133415E+02 0.  0.
         23    2    4    4    0    0 -0.10344980009E+03  0.48484688038E+02 -0.78904938495E+03  0.80230775759E+03  0.89700501047E+02 0.  0.
         11    1    3    3    0    0  0.45529909542E+03 -0.41156472212E+03  0.91416327054E+03  0.11010800479E+04  0.00000000000E+00 0.  1.
        -11    1    3    3    0    0  0.21758327914E+02 -0.44306756637E+02  0.11181767391E+03  0.12222808890E+03  0.00000000000E+00 0. -1.
          1    1    5    5  502    0 -0.37796585387E+02  0.23757317274E+02 -0.21154608084E+02  0.49401512469E+02  0.00000000000E+00 0. -1.
          3    1    6    6  503    0 -0.71536253677E+02  0.15468755088E+02 -0.22973859730E+03  0.24111520288E+03  0.00000000000E+00 0. -1.
         -1    1    5    5    0  502 -0.33581103785E+03  0.38362947344E+03  0.30947479226E+02  0.51078211843E+03  0.00000000000E+00 0.  1.
         -3    1    6    6    0  503 -0.31913546417E+02  0.33015932950E+02 -0.55931078766E+03  0.56119255471E+03  0.00000000000E+00 0.  1.
<mgrwt>
<rscale>  0 0.25740020E+04</rscale>
<asrwt>0</asrwt>
<pdfrwt beam="1">  1        2 0.17992885E+00 0.25740020E+04</pdfrwt>
<pdfrwt beam="2">  1       -2 0.21788646E+00 0.25740020E+04</pdfrwt>
<totfact> 0.17851829E+00</totfact>
</mgrwt>
</event>
<event>
12    1  0.4967442E-008  0.1844066E+04  0.7818608E-02  0.8683211E-01
         -1   -1    0    0    0  501 -0.00000000000E+00  0.00000000000E+00  0.11804420286E+04  0.11804420286E+04  0.00000000000E+00 0.  1.
          1   -1    0    0  501    0  0.00000000000E+00 -0.00000000000E+00 -0.72019163076E+03  0.72019163076E+03  0.00000000000E+00 0. -1.
         23    2    1    2    0    0  0.43990410664E+03  0.12485427170E+03  0.72166603261E+03  0.85719496547E+03  0.69836480439E+02 0.  0.
        254    2    1    2    0    0 -0.43990410664E+03 -0.12485427170E+03 -0.26141563474E+03  0.10434386939E+04  0.90073412374E+03 0.  0.
         23    2    4    4    0    0 -0.43434303522E+03  0.90358060116E+02 -0.52326668316E+03  0.69212767174E+03  0.91729172088E+02 0.  0.
         23    2    4    4    0    0 -0.55610714208E+01 -0.21521233182E+03  0.26185104842E+03  0.35131102218E+03  0.92229005545E+02 0.  0.
         11    1    3    3    0    0  0.21078874036E+03  0.64880625730E+02  0.41230640856E+03  0.46758738563E+03  0.00000000000E+00 0.  1.
        -11    1    3    3    0    0  0.22911536628E+03  0.59973645972E+02  0.30935962405E+03  0.38960757984E+03  0.00000000000E+00 0. -1.
          2    1    5    5  502    0 -0.18103198275E+03  0.53868068482E+02 -0.15869695886E+03  0.24669631601E+03  0.00000000000E+00 0.  1.
          1    1    6    6  503    0 -0.42962828394E+02 -0.16689746952E+03  0.18038427484E+03  0.24947756726E+03  0.00000000000E+00 0. -1.
         -2    1    5    5    0  502 -0.25331105247E+03  0.36489991634E+02 -0.36456972430E+03  0.44543135573E+03  0.00000000000E+00 0. -1.
         -1    1    6    6    0  503  0.37401756973E+02 -0.48314862301E+02  0.81466773578E+02  0.10183345492E+03  0.00000000000E+00 0.  1.
<mgrwt>
<rscale>  0 0.18440656E+04</rscale>
<asrwt>0</asrwt>
<pdfrwt beam="1">  1        1 0.11079871E+00 0.18440656E+04</pdfrwt>
<pdfrwt beam="2">  1       -1 0.18160647E+00 0.18440656E+04</pdfrwt>
<totfact> 0.49686982E+00</totfact>
</mgrwt>
</event>
<event>
12    1  0.4967442E-008  0.1601874E+04  0.7818608E-02  0.8819398E-01
         -1   -1    0    0    0  501 -0.00000000000E+00  0.00000000000E+00  0.57793915758E+03  0.57793915758E+03  0.00000000000E+00 0.  1.
          1   -1    0    0  501    0  0.00000000000E+00 -0.00000000000E+00 -0.11099785617E+04  0.11099785617E+04  0.00000000000E+00 0. -1.
         23    2    1    2    0    0  0.41228605432E+03  0.29661043158E+03 -0.40948115325E+03  0.65905830861E+03  0.93410387903E+02 0.  0.
        254    2    1    2    0    0 -0.41228605432E+03 -0.29661043158E+03 -0.12255825090E+03  0.10288594107E+04  0.88632591265E+03 0.  0.
         23    2    4    4    0    0  0.13898750596E+03 -0.20459144465E+03  0.23739396635E+03  0.35614129065E+03  0.96465214512E+02 0.  0.
         23    2    4    4    0    0 -0.55127356028E+03 -0.92018986933E+02 -0.35995221725E+03  0.67271812006E+03  0.10302445404E+03 0.  0.
         13    1    3    3    0    0  0.82363538683E+02  0.10289077488E+03 -0.80207939886E+02  0.15428408110E+03  0.00000000000E+00 0.  1.
        -13    1    3    3    0    0  0.32992251564E+03  0.19371965670E+03 -0.32927321337E+03  0.50477422751E+03  0.00000000000E+00 0. -1.
          2    1    5    5  502    0  0.61174022075E+02 -0.14422825691E+03  0.95693264441E+02  0.18357900731E+03  0.00000000000E+00 0. -1.
          3    1    6    6  503    0 -0.27791445448E+03  0.54960999004E+01 -0.16928596699E+03  0.32546027368E+03  0.00000000000E+00 0. -1.
         -2    1    5    5    0  502  0.77813483881E+02 -0.60363187742E+02  0.14170070191E+03  0.17256228334E+03  0.00000000000E+00 0.  1.
         -3    1    6    6    0  503 -0.27335910580E+03 -0.97515086833E+02 -0.19066625026E+03  0.34725784638E+03  0.00000000000E+00 0.  1.
<mgrwt>
<rscale>  0 0.16018740E+04</rscale>
<asrwt>0</asrwt>
<pdfrwt beam="1">  1        1 0.17076593E+00 0.16018740E+04</pdfrwt>
<pdfrwt beam="2">  1       -1 0.88913717E-01 0.16018740E+04</pdfrwt>
<totfact> 0.14835680E+01</totfact>
</mgrwt>
</event>
<event>
12    1  0.4967442E-008  0.2742271E+04  0.7818608E-02  0.8321418E-01
         -1   -1    0    0    0  501 -0.00000000000E+00  0.00000000000E+00  0.18845221761E+04  0.18845221761E+04  0.00000000000E+00 0.  1.
          1   -1    0    0  501    0  0.00000000000E+00 -0.00000000000E+00 -0.99760715470E+03  0.99760715470E+03  0.00000000000E+00 0. -1.
         23    2    1    2    0    0 -0.49599468286E+03  0.15660050474E+03  0.15603565490E+04  0.16472433596E+04  0.90353098242E+02 0.  0.
        254    2    1    2    0    0  0.49599468286E+03 -0.15660050474E+03 -0.67344152755E+03  0.12348859712E+04  0.89492202305E+03 0.  0.
         23    2    4    4    0    0 -0.91589420933E+02 -0.59314373754E+01 -0.60363194280E+03  0.61764646662E+03  0.93229991843E+02 0.  0.
         23    2    4    4    0    0  0.58758410379E+03 -0.15066906737E+03 -0.69809584753E+02  0.61723950459E+03  0.90304933505E+02 0.  0.
         11    1    3    3    0    0 -0.17341134009E+03  0.52460858363E+02  0.68474661294E+03  0.70830894281E+03  0.00000000000E+00 0.  1.
        -11    1    3    3    0    0 -0.32258334277E+03  0.10413964638E+03  0.87560993603E+03  0.93893441680E+03  0.00000000000E+00 0. -1.
          4    1    5    5  502    0  0.85431970795E+00 -0.34150465018E+02 -0.16113275331E+03  0.16471414121E+03  0.00000000000E+00 0.  1.
          4    1    6    6  503    0  0.26721287626E+03 -0.90505523295E+02 -0.72368953487E+02  0.29125802378E+03  0.00000000000E+00 0. -1.
         -4    1    5    5    0  502 -0.92443740641E+02  0.28219027642E+02 -0.44249918949E+03  0.45293232541E+03  0.00000000000E+00 0. -1.
         -4    1    6    6    0  503  0.32037122753E+03 -0.60163544070E+02  0.25593687334E+01  0.32598148081E+03  0.00000000000E+00 0.  1.
<mgrwt>
<rscale>  0 0.27422712E+04</rscale>
<asrwt>0</asrwt>
<pdfrwt beam="1">  1        1 0.15347802E+00 0.27422712E+04</pdfrwt>
<pdfrwt beam="2">  1       -1 0.28992649E+00 0.27422712E+04</pdfrwt>
<totfact> 0.50742750E-01</totfact>
</mgrwt>
</event>
<event>
12    1  0.4967442E-008  0.1635268E+04  0.7818608E-02  0.8799170E-01
         -1   -1    0    0    0  501 -0.00000000000E+00  0.00000000000E+00  0.14496890274E+04  0.14496890274E+04  0.00000000000E+00 0.  1.
          1   -1    0    0  501    0  0.00000000000E+00 -0.00000000000E+00 -0.46115073548E+03  0.46115073548E+03  0.00000000000E+00 0. -1.
         23    2    1    2    0    0 -0.27094380710E+03  0.48859286315E+03  0.43908640894E+03  0.71667187599E+03  0.93210357758E+02 0.  0.
        254    2    1    2    0    0  0.27094380710E+03 -0.48859286315E+03  0.54945188296E+03  0.11941678869E+04  0.90111377630E+03 0.  0.
         23    2    4    4    0    0 -0.15872072696E+02 -0.50543057826E+03 -0.57027369132E+02  0.51665505584E+03  0.89265523896E+02 0.  0.
         23    2    4    4    0    0  0.28681587980E+03  0.16837715119E+02  0.60647925210E+03  0.67751283104E+03  0.93057484654E+02 0.  0.
         11    1    3    3    0    0 -0.20186688479E+03  0.41030056647E+03  0.31901856423E+03  0.55755684763E+03  0.00000000000E+00 0.  1.
        -11    1    3    3    0    0 -0.69076922313E+02  0.78292296676E+02  0.12006784471E+03  0.15911502836E+03  0.00000000000E+00 0. -1.
          2    1    5    5  502    0 -0.17833965389E+02 -0.50860450395E+03 -0.59181435512E+02  0.51234659565E+03  0.00000000000E+00 0. -1.
          1    1    6    6  503    0  0.25857667818E+03  0.81801634721E+01  0.58870289077E+03  0.64303958445E+03  0.00000000000E+00 0. -1.
         -2    1    5    5    0  502  0.19618926928E+01  0.31739256903E+01  0.21540663799E+01  0.43084601883E+01  0.00000000000E+00 0.  1.
         -1    1    6    6    0  503  0.28239201617E+02  0.86575516465E+01  0.17776361329E+02  0.34473246592E+02  0.00000000000E+00 0.  1.
<mgrwt>
<rscale>  0 0.16352678E+04</rscale>
<asrwt>0</asrwt>
<pdfrwt beam="1">  1        1 0.70946268E-01 0.16352678E+04</pdfrwt>
<pdfrwt beam="2">  1       -1 0.22302908E+00 0.16352678E+04</pdfrwt>
<totfact> 0.49766318E+00</totfact>
</mgrwt>
</event>
<event>
12    1  0.4967442E-008  0.1465429E+04  0.7818608E-02  0.8907773E-01
          2   -1    0    0  501    0  0.00000000000E+00  0.00000000000E+00  0.11928578053E+04  0.11928578053E+04  0.00000000000E+00 0. -1.
         -2   -1    0    0    0  501 -0.00000000000E+00 -0.00000000000E+00 -0.45007113298E+03  0.45007113298E+03  0.00000000000E+00 0.  1.
         23    2    1    2    0    0 -0.10312668924E+03 -0.39051695024E+03  0.20533827253E+03  0.46183889384E+03  0.89402210479E+02 0.  0.
        254    2    1    2    0    0  0.10312668924E+03  0.39051695024E+03  0.53744839978E+03  0.11810900444E+04  0.97107379130E+03 0.  0.
         23    2    4    4    0    0  0.21261677565E+03  0.52065985318E+03 -0.41364056591E+02  0.57109633813E+03  0.90263316199E+02 0.  0.
         23    2    4    4    0    0 -0.10949008641E+03 -0.13014290294E+03  0.57881245637E+03  0.60999370629E+03  0.90239724378E+02 0.  0.
         11    1    3    3    0    0 -0.17459247433E+02 -0.56926013333E+02 -0.24577450345E+01  0.59593932791E+02  0.00000000000E+00 0. -1.
        -11    1    3    3    0    0 -0.85667441805E+02 -0.33359093691E+03  0.20779601757E+03  0.40224496105E+03  0.00000000000E+00 0.  1.
          3    1    6    6  502    0 -0.99723383309E+02 -0.11750812276E+03  0.37332578451E+03  0.40388742673E+03  0.00000000000E+00 0.  1.
          3    1    5    5  503    0  0.16728842051E+02  0.12426793413E+03 -0.29363849100E+02  0.12878124570E+03  0.00000000000E+00 0. -1.
         -3    1    5    5    0  503  0.19588793359E+03  0.39639191905E+03 -0.12000207491E+02  0.44231509243E+03  0.00000000000E+00 0.  1.
         -3    1    6    6    0  502 -0.97667030983E+01 -0.12634780174E+02  0.20548667186E+03  0.20610627956E+03  0.00000000000E+00 0. -1.
<mgrwt>
<rscale>  0 0.14654294E+04</rscale>
<asrwt>0</asrwt>
<pdfrwt beam="1">  1        2 0.18351658E+00 0.14654294E+04</pdfrwt>
<pdfrwt beam="2">  1       -2 0.69241713E-01 0.14654294E+04</pdfrwt>
<totfact> 0.35276620E+01</totfact>
</mgrwt>
</event>
<event>
12    1  0.8392389E-008  0.2138159E+04  0.7818608E-02  0.8544618E-01
         -2   -1    0    0    0  501 -0.00000000000E+00  0.00000000000E+00  0.70318801408E+03  0.70318801408E+03  0.00000000000E+00 0. -1.
          2   -1    0    0  501    0  0.00000000000E+00 -0.00000000000E+00 -0.16253560582E+04  0.16253560582E+04  0.00000000000E+00 0.  1.
         23    2    1    2    0    0 -0.55671705291E+03 -0.65812488856E+03 -0.50445329391E+03  0.10032908584E+04  0.95169190774E+02 0.  0.
        254    2    1    2    0    0  0.55671705291E+03  0.65812488856E+03 -0.41771475019E+03  0.13252532139E+04  0.91583198372E+03 0.  0.
         23    2    4    4    0    0  0.56593385834E+02  0.30233458107E+03 -0.59751842488E+03  0.67831881844E+03  0.92082252088E+02 0.  0.
         23    2    4    4    0    0  0.50012366708E+03  0.35579030749E+03  0.17980367469E+03  0.64693439543E+03  0.97387500642E+02 0.  0.
         13    1    3    3    0    0 -0.52629631666E+03 -0.60656223048E+03 -0.49307186302E+03  0.94235100387E+03  0.00000000000E+00 0.  1.
        -13    1    3    3    0    0 -0.30420736247E+02 -0.51562658077E+02 -0.11381430886E+02  0.60939854536E+02  0.00000000000E+00 0. -1.
          4    1    5    5  502    0  0.78962662861E+02  0.27105374268E+03 -0.53493962984E+03  0.60486828411E+03  0.00000000000E+00 0. -1.
          3    1    6    6  503    0  0.45133068261E+03  0.34200395587E+03  0.18556927686E+03  0.59590439452E+03  0.00000000000E+00 0. -1.
         -4    1    5    5    0  502 -0.22369277027E+02  0.31280838390E+02 -0.62578795036E+02  0.73450534329E+02  0.00000000000E+00 0.  1.
         -3    1    6    6    0  503  0.48792984469E+02  0.13786351622E+02 -0.57656021689E+01  0.51030000909E+02  0.00000000000E+00 0.  1.
<mgrwt>
<rscale>  0 0.21381589E+04</rscale>
<asrwt>0</asrwt>
<pdfrwt beam="1">  1        2 0.25005478E+00 0.21381589E+04</pdfrwt>
<pdfrwt beam="2">  1       -2 0.10818277E+00 0.21381589E+04</pdfrwt>
<totfact> 0.67835933E+00</totfact>
</mgrwt>
</event>
<event>
12    1  0.4967442E-008  0.2003727E+04  0.7818608E-02  0.8604880E-01
          2   -1    0    0  501    0  0.00000000000E+00  0.00000000000E+00  0.28304570172E+04  0.28304570172E+04  0.00000000000E+00 0. -1.
         -2   -1    0    0    0  501 -0.00000000000E+00 -0.00000000000E+00 -0.35461764935E+03  0.35461764935E+03  0.00000000000E+00 0.  1.
         23    2    1    2    0    0  0.44098673422E+03  0.47200571694E+03  0.26603261713E+03  0.70423715356E+03  0.88982686479E+02 0.  0.
        254    2    1    2    0    0 -0.44098673422E+03 -0.47200571694E+03  0.22098067507E+04  0.24808375130E+04  0.92414836136E+03 0.  0.
         23    2    4    4    0    0 -0.32343353890E+03  0.18939272771E+03  0.12322216880E+04  0.12910388294E+04  0.89062400634E+02 0.  0.
         23    2    4    4    0    0 -0.11755319532E+03 -0.66139844465E+03  0.97758506269E+03  0.11897986836E+04  0.93175621047E+02 0.  0.
         11    1    3    3    0    0 -0.29817580376E+01  0.21732667909E+01 -0.22937819094E+01  0.43445834078E+01  0.00000000000E+00 0. -1.
        -11    1    3    3    0    0  0.44396849226E+03  0.46983245015E+03  0.26832639904E+03  0.69989257015E+03  0.00000000000E+00 0.  1.
          1    1    5    5  502    0 -0.32574663764E+03  0.18576226266E+03  0.11690358333E+04  0.12277065079E+04  0.00000000000E+00 0.  1.
          3    1    6    6  503    0 -0.10362070461E+03 -0.35230919370E+03  0.49019182699E+03  0.61249248619E+03  0.00000000000E+00 0. -1.
         -1    1    5    5    0  502  0.23130987350E+01  0.36304650529E+01  0.63185854715E+02  0.63332321435E+02  0.00000000000E+00 0. -1.
         -3    1    6    6    0  503 -0.13932490710E+02 -0.30908925095E+03  0.48739323569E+03  0.57730619739E+03  0.00000000000E+00 0.  1.
<mgrwt>
<rscale>  0 0.20037265E+04</rscale>
<asrwt>0</asrwt>
<pdfrwt beam="1">  1        2 0.43545491E+00 0.20037265E+04</pdfrwt>
<pdfrwt beam="2">  1       -2 0.54556563E-01 0.20037265E+04</pdfrwt>
<totfact> 0.65180277E+00</totfact>
</mgrwt>
</event>
<event>
12    1  0.4967442E-008  0.2031881E+04  0.7818608E-02  0.8591859E-01
          2   -1    0    0  501    0  0.00000000000E+00  0.00000000000E+00  0.18721980160E+04  0.18721980160E+04  0.00000000000E+00 0.  1.
         -2   -1    0    0    0  501 -0.00000000000E+00 -0.00000000000E+00 -0.55129576398E+03  0.55129576398E+03  0.00000000000E+00 0. -1.
         23    2    1    2    0    0  0.50098649746E+03 -0.96350439420E+02  0.12850827755E+04  0.13855204913E+04  0.89209943080E+02 0.  0.
        254    2    1    2    0    0 -0.50098649746E+03  0.96350439420E+02  0.35819476468E+02  0.10379732887E+04  0.90323564771E+03 0.  0.
         23    2    4    4    0    0 -0.80354813949E+02 -0.34709238586E+03  0.17088262422E+03  0.40547338721E+03  0.90982284125E+02 0.  0.
         23    2    4    4    0    0 -0.42063168352E+03  0.44344282528E+03 -0.13506314775E+03  0.63249990147E+03  0.90782812311E+02 0.  0.
         13    1    3    3    0    0  0.31763066289E+03 -0.87266564973E+02  0.91320725324E+03  0.97079976243E+03  0.00000000000E+00 0.  1.
        -13    1    3    3    0    0  0.18335583457E+03 -0.90838744463E+01  0.37187552228E+03  0.41472072883E+03  0.00000000000E+00 0. -1.
          4    1    5    5  502    0 -0.52945255560E+02 -0.33061505607E+03  0.14761104657E+03  0.36592148947E+03  0.00000000000E+00 0.  1.
          3    1    6    6  503    0 -0.28218890570E+03  0.35253753877E+03 -0.85189313896E+02  0.45953293021E+03  0.00000000000E+00 0. -1.
         -4    1    5    5    0  502 -0.27409558389E+02 -0.16477329790E+02  0.23271577653E+02  0.39551897736E+02  0.00000000000E+00 0. -1.
         -3    1    6    6    0  503 -0.13844277781E+03  0.90905286507E+02 -0.49873833859E+02  0.17296697126E+03  0.00000000000E+00 0.  1.
<mgrwt>
<rscale>  0 0.20318807E+04</rscale>
<asrwt>0</asrwt>
<pdfrwt beam="1">  1        2 0.28803046E+00 0.20318807E+04</pdfrwt>
<pdfrwt beam="2">  1       -2 0.84814734E-01 0.20318807E+04</pdfrwt>
<totfact> 0.88283640E+00</totfact>
</mgrwt>
</event>
<event>
12    1  0.4967442E-008  0.1787265E+04  0.7818608E-02  0.8713101E-01
         -2   -1    0    0    0  501 -0.00000000000E+00  0.00000000000E+00  0.26159054034E+03  0.26159054034E+03  0.00000000000E+00 0.  1.
          2   -1    0    0  501    0  0.00000000000E+00 -0.00000000000E+00 -0.30527832901E+04  0.30527832901E+04  0.00000000000E+00 0. -1.
         23    2    1    2    0    0  0.63509446342E+03 -0.15930668476E+03 -0.84360664995E+03  0.10717082207E+04  0.90347845034E+02 0.  0.
        254    2    1    2    0    0 -0.63509446342E+03  0.15930668476E+03 -0.19475860998E+04  0.22426656098E+04  0.89874013143E+03 0.  0.
         23    2    4    4    0    0 -0.23367746618E+03  0.18770253849E+03 -0.17631486555E+04  0.17908448182E+04  0.92706960161E+02 0.  0.
         23    2    4    4    0    0 -0.40141699724E+03 -0.28395853723E+02 -0.18443744434E+03  0.45182079157E+03  0.90459530413E+02 0.  0.
         13    1    3    3    0    0  0.54474529210E+03 -0.14963708311E+03 -0.76863297259E+03  0.95390530791E+03  0.00000000000E+00 0. -1.
        -13    1    3    3    0    0  0.90349171317E+02 -0.96696016526E+01 -0.74973677360E+02  0.11780291274E+03  0.00000000000E+00 0.  1.
          2    1    5    5  502    0 -0.10839267466E+03  0.11505128086E+03 -0.68432424306E+03  0.70234282141E+03  0.00000000000E+00 0. -1.
          1    1    6    6  503    0 -0.48663375481E+02  0.25372892466E+02 -0.34128304834E+02  0.64626998818E+02  0.00000000000E+00 0. -1.
         -2    1    5    5    0  502 -0.12528479152E+03  0.72651257630E+02 -0.10788244124E+04  0.10885019968E+04  0.00000000000E+00 0.  1.
         -1    1    6    6    0  503 -0.35275362175E+03 -0.53768746189E+02 -0.15030913951E+03  0.38719379275E+03  0.00000000000E+00 0.  1.
<mgrwt>
<rscale>  0 0.17872652E+04</rscale>
<asrwt>0</asrwt>
<pdfrwt beam="1">  1        2 0.46965894E+00 0.17872652E+04</pdfrwt>
<pdfrwt beam="2">  1       -2 0.40244701E-01 0.17872652E+04</pdfrwt>
<totfact> 0.89454399E+00</totfact>
</mgrwt>
</event>
<event>
12    1  0.4967442E-008  0.2364018E+04  0.7818608E-02  0.8453099E-01
          2   -1    0    0  501    0  0.00000000000E+00  0.00000000000E+00  0.16305305708E+04  0.16305305708E+04  0.00000000000E+00 0. -1.
         -2   -1    0    0    0  501 -0.00000000000E+00 -0.00000000000E+00 -0.85686539685E+03  0.85686539685E+03  0.00000000000E+00 0.  1.
         23    2    1    2    0    0 -0.78137004673E+03 -0.42247743600E+03 -0.18814879625E+03  0.91265601936E+03  0.92275166181E+02 0.  0.
        254    2    1    2    0    0  0.78137004673E+03  0.42247743600E+03  0.96181397016E+03  0.15747399483E+04  0.87503911774E+03 0.  0.
         23    2    4    4    0    0  0.49605083028E+03  0.39821739402E+02  0.10958276612E+02  0.50691512953E+03  0.95867969429E+02 0.  0.
         23    2    4    4    0    0  0.28531921645E+03  0.38265569659E+03  0.95085569355E+03  0.10678248187E+04  0.91054138456E+02 0.  0.
         11    1    3    3    0    0 -0.75225612943E+03 -0.38401392695E+03 -0.18239972264E+03  0.86407501942E+03  0.00000000000E+00 0.  1.
        -11    1    3    3    0    0 -0.29113917304E+02 -0.38463509042E+02 -0.57490736027E+01  0.48580999947E+02  0.00000000000E+00 0. -1.
          4    1    5    5  502    0  0.35833651663E+03  0.65122423169E+02  0.30760508279E+02  0.36550266486E+03  0.00000000000E+00 0. -1.
          3    1    6    6  503    0  0.26677241108E+03  0.31386004869E+03  0.84733763222E+03  0.94215535474E+03  0.00000000000E+00 0. -1.
         -4    1    5    5    0  502  0.13771431365E+03 -0.25300683767E+02 -0.19802231666E+02  0.14141246466E+03  0.00000000000E+00 0.  1.
         -3    1    6    6    0  503  0.18546805369E+02  0.68795647902E+02  0.10351806133E+03  0.12566946400E+03  0.00000000000E+00 0.  1.
<mgrwt>
<rscale>  0 0.23640180E+04</rscale>
<asrwt>0</asrwt>
<pdfrwt beam="1">  1        2 0.25085086E+00 0.23640180E+04</pdfrwt>
<pdfrwt beam="2">  1       -2 0.13182545E+00 0.23640180E+04</pdfrwt>
<totfact> 0.40542248E+00</totfact>
</mgrwt>
</event>
<event>
12    1  0.4967442E-008  0.2222082E+04  0.7818608E-02  0.8509293E-01
         -1   -1    0    0    0  501 -0.00000000000E+00  0.00000000000E+00  0.48205538598E+03  0.48205538598E+03  0.00000000000E+00 0.  1.
          1   -1    0    0  501    0  0.00000000000E+00 -0.00000000000E+00 -0.25607274095E+04  0.25607274095E+04  0.00000000000E+00 0. -1.
         23    2    1    2    0    0  0.52259150765E+03 -0.67112794063E+03 -0.13693702553E+04  0.16145811342E+04  0.90458532532E+02 0.  0.
        254    2    1    2    0    0 -0.52259150765E+03  0.67112794063E+03 -0.70930176820E+03  0.14282016613E+04  0.90174075565E+03 0.  0.
         23    2    4    4    0    0 -0.26328399276E+02 -0.20644257218E+03 -0.14448671770E+03  0.26904671749E+03  0.90542831770E+02 0.  0.
         23    2    4    4    0    0 -0.49626310838E+03  0.87757051281E+03 -0.56481505050E+03  0.11591549438E+04  0.90648027017E+02 0.  0.
         11    1    3    3    0    0  0.79319119926E+02 -0.92418911815E+02 -0.26042920864E+03  0.28749982741E+03  0.00000000000E+00 0.  1.
        -11    1    3    3    0    0  0.44327238773E+03 -0.57870902882E+03 -0.11089410467E+04  0.13270813068E+04  0.00000000000E+00 0. -1.
          4    1    5    5  502    0 -0.44422662830E+02 -0.16329407027E+03 -0.74596099858E+02  0.18494027272E+03  0.00000000000E+00 0. -1.
          3    1    6    6  503    0 -0.26418157865E+03  0.55693572990E+03 -0.34185511271E+03  0.70486469044E+03  0.00000000000E+00 0. -1.
         -4    1    5    5    0  502  0.18094263554E+02 -0.43148501909E+02 -0.69890617840E+02  0.84106444774E+02  0.00000000000E+00 0.  1.
         -3    1    6    6    0  503 -0.23208152973E+03  0.32063478291E+03 -0.22295993780E+03  0.45429025338E+03  0.00000000000E+00 0.  1.
<mgrwt>
<rscale>  0 0.22220823E+04</rscale>
<asrwt>0</asrwt>
<pdfrwt beam="1">  1        1 0.39395806E+00 0.22220823E+04</pdfrwt>
<pdfrwt beam="2">  1       -1 0.74162368E-01 0.22220823E+04</pdfrwt>
<totfact> 0.20473276E+00</totfact>
</mgrwt>
</event>
<event>
12    1  0.4967442E-008  0.1357430E+04  0.7818608E-02  0.8985222E-01
         -2   -1    0    0    0  501 -0.00000000000E+00  0.00000000000E+00  0.72432117465E+03  0.72432117465E+03  0.00000000000E+00 0.  1.
          2   -1    0    0  501    0  0.00000000000E+00 -0.00000000000E+00 -0.63598067129E+03  0.63598067129E+03  0.00000000000E+00 0. -1.
         23    2    1    2    0    0  0.22953560305E+03 -0.69922800675E+02 -0.25667672011E+03  0.36220549946E+03  0.87943698322E+02 0.  0.
        254    2    1    2    0    0 -0.22953560305E+03  0.69922800675E+02  0.34501722347E+03  0.99809634647E+03  0.90530858895E+03 0.  0.
         23    2    4    4    0    0 -0.51399710706E+03 -0.29826744738E+02 -0.72549706269E+01  0.52376420886E+03  0.95883528922E+02 0.  0.
         23    2    4    4    0    0  0.28446150401E+03  0.99749545413E+02  0.35227219410E+03  0.47433213761E+03  0.10013470411E+03 0.  0.
         11    1    3    3    0    0  0.19164908372E+03 -0.22578655750E+02 -0.21337546859E+03  0.28769472985E+03  0.00000000000E+00 0. -1.
        -11    1    3    3    0    0  0.37886519325E+02 -0.47344144925E+02 -0.43301251518E+02  0.74510769612E+02  0.00000000000E+00 0.  1.
          3    1    5    5  502    0 -0.12898738597E+03  0.17255348072E+02 -0.35403836869E+02  0.13486632063E+03  0.00000000000E+00 0. -1.
          3    1    6    6  503    0  0.20626466419E+03  0.26076099184E+02  0.25845772850E+03  0.33170087739E+03  0.00000000000E+00 0. -1.
         -3    1    5    5    0  502 -0.38500972109E+03 -0.47082092810E+02  0.28148866242E+02  0.38889788823E+03  0.00000000000E+00 0.  1.
         -3    1    6    6    0  503  0.78196839820E+02  0.73673446229E+02  0.93814465597E+02  0.14263126022E+03  0.00000000000E+00 0.  1.
<mgrwt>
<rscale>  0 0.13574303E+04</rscale>
<asrwt>0</asrwt>
<pdfrwt beam="1">  1        2 0.97843180E-01 0.13574303E+04</pdfrwt>
<pdfrwt beam="2">  1       -2 0.11143403E+00 0.13574303E+04</pdfrwt>
<totfact> 0.28711003E+01</totfact>
</mgrwt>
</event>
<event>
12    1  0.4967442E-008  0.2047693E+04  0.7818608E-02  0.8584642E-01
         -1   -1    0    0    0  501 -0.00000000000E+00  0.00000000000E+00  0.32684559041E+04  0.32684559041E+04  0.00000000000E+00 0.  1.
          1   -1    0    0  501    0  0.00000000000E+00 -0.00000000000E+00 -0.32072082252E+03  0.32072082252E+03  0.00000000000E+00 0. -1.
         23    2    1    2    0    0  0.66707654961E+03  0.20337345847E+03  0.19697990196E+04  0.20917010321E+04  0.93558235475E+02 0.  0.
        254    2    1    2    0    0 -0.66707654961E+03 -0.20337345847E+03  0.97793606196E+03  0.14974756945E+04  0.89427212171E+03 0.  0.
         23    2    4    4    0    0 -0.42216934969E+03  0.27680037916E+03  0.74188097880E+03  0.90202691578E+03  0.91759252139E+02 0.  0.
         23    2    4    4    0    0 -0.24490719992E+03 -0.48017383762E+03  0.23605508316E+03  0.59544877872E+03  0.91053802109E+02 0.  0.
         13    1    3    3    0    0  0.42902934660E+03  0.88803216811E+02  0.12901917102E+04  0.13625515919E+04  0.00000000000E+00 0.  1.
        -13    1    3    3    0    0  0.23804720301E+03  0.11457024165E+03  0.67960730941E+03  0.72914944019E+03  0.00000000000E+00 0. -1.
          4    1    5    5  502    0 -0.25512624564E+03  0.16720601134E+03  0.52474660942E+03  0.60696478937E+03  0.00000000000E+00 0. -1.
          3    1    6    6  503    0 -0.16828920993E+03 -0.26054287894E+03  0.99597186395E+02  0.32576594279E+03  0.00000000000E+00 0. -1.
         -4    1    5    5    0  502 -0.16704310406E+03  0.10959436782E+03  0.21713436938E+03  0.29506212641E+03  0.00000000000E+00 0.  1.
         -3    1    6    6    0  503 -0.76617989985E+02 -0.21963095869E+03  0.13645789676E+03  0.26968283593E+03  0.00000000000E+00 0.  1.
<mgrwt>
<rscale>  0 0.20476932E+04</rscale>
<asrwt>0</asrwt>
<pdfrwt beam="1">  1        1 0.49341667E-01 0.20476932E+04</pdfrwt>
<pdfrwt beam="2">  1       -1 0.50283935E+00 0.20476932E+04</pdfrwt>
<totfact> 0.10554629E-01</totfact>
</mgrwt>
</event>
<event>
12    1  0.4967442E-008  0.2790465E+04  0.7818608E-02  0.8306235E-01
          1   -1    0    0  501    0  0.00000000000E+00  0.00000000000E+00  0.13350565288E+04  0.13350565288E+04  0.00000000000E+00 0.  1.
         -1   -1    0    0    0  501 -0.00000000000E+00 -0.00000000000E+00 -0.14581206783E+04  0.14581206783E+04  0.00000000000E+00 0. -1.
         23    2    1    2    0    0  0.74098490985E+03  0.27859019068E+03 -0.10190896536E+04  0.12936680067E+04  0.91444292229E+02 0.  0.
        254    2    1    2    0    0 -0.74098490985E+03 -0.27859019068E+03  0.89602550402E+03  0.14995092004E+04  0.90498342925E+03 0.  0.
         23    2    4    4    0    0 -0.77888470716E+03 -0.11093888094E+03  0.25876165597E+03  0.83304013446E+03  0.89607190968E+02 0.  0.
         23    2    4    4    0    0  0.37899797312E+02 -0.16765130974E+03  0.63726384806E+03  0.66646906592E+03  0.92371248215E+02 0.  0.
         13    1    3    3    0    0 -0.16468723435E+01  0.45560094546E+01 -0.32662630997E+01  0.58427634988E+01  0.00000000000E+00 0. -1.
        -13    1    3    3    0    0  0.74263178219E+03  0.27403418123E+03 -0.10158233905E+04  0.12878252432E+04  0.00000000000E+00 0.  1.
          1    1    5    5  502    0 -0.67761518233E+03 -0.97112173737E+02  0.25585234898E+03  0.73078966474E+03  0.00000000000E+00 0. -1.
          3    1    6    6  503    0 -0.73432149028E+01 -0.41450692782E+02  0.56651152637E+02  0.70579287559E+02  0.00000000000E+00 0.  1.
         -1    1    5    5    0  502 -0.10126952483E+03 -0.13826707200E+02  0.29093069896E+01  0.10225046972E+03  0.00000000000E+00 0.  1.
         -3    1    6    6    0  503  0.45243012214E+02 -0.12620061696E+03  0.58061269542E+03  0.59588977837E+03  0.00000000000E+00 0. -1.
<mgrwt>
<rscale>  0 0.27904649E+04</rscale>
<asrwt>0</asrwt>
<pdfrwt beam="1">  1        1 0.20539331E+00 0.27904649E+04</pdfrwt>
<pdfrwt beam="2">  1       -1 0.22432626E+00 0.27904649E+04</pdfrwt>
<totfact> 0.76179553E-01</totfact>
</mgrwt>
</event>
<event>
12    1  0.4967442E-008  0.2075138E+04  0.7818608E-02  0.8572275E-01
          1   -1    0    0  501    0  0.00000000000E+00  0.00000000000E+00  0.21568643414E+04  0.21568643414E+04  0.00000000000E+00 0. -1.
         -1   -1    0    0    0  501 -0.00000000000E+00 -0.00000000000E+00 -0.49912700860E+03  0.49912700860E+03  0.00000000000E+00 0.  1.
         23    2    1    2    0    0 -0.49563610463E+03 -0.43886416572E+03  0.13562575733E+04  0.15119167975E+04  0.90558782934E+02 0.  0.
        254    2    1    2    0    0  0.49563610463E+03  0.43886416572E+03  0.30147975947E+03  0.11440745525E+04  0.88303999464E+03 0.  0.
         23    2    4    4    0    0  0.36895455586E+03  0.21906036150E+03  0.59839533546E+03  0.74179808947E+03  0.89847213500E+02 0.  0.
         23    2    4    4    0    0  0.12668154877E+03  0.21980380422E+03 -0.29691557599E+03  0.40227646303E+03  0.96465363193E+02 0.  0.
         13    1    3    3    0    0  0.33822002187E+01 -0.52479100853E+01  0.68307396907E+01  0.92541257450E+01  0.00000000000E+00 0.  1.
        -13    1    3    3    0    0 -0.49901830485E+03 -0.43361625563E+03  0.13494268336E+04  0.15026626718E+04  0.00000000000E+00 0. -1.
          2    1    5    5  502    0  0.34657829540E+02 -0.22145048317E+01  0.27987736202E+02  0.44602494972E+02  0.00000000000E+00 0. -1.
          3    1    6    6  503    0  0.37298563600E+02  0.12837162463E+03 -0.97778816047E+02  0.16562353011E+03  0.00000000000E+00 0. -1.
         -2    1    5    5    0  502  0.33429672632E+03  0.22127486633E+03  0.57040759926E+03  0.69719559450E+03  0.00000000000E+00 0.  1.
         -3    1    6    6    0  503  0.89382985174E+02  0.91432179586E+02 -0.19913675994E+03  0.23665293292E+03  0.00000000000E+00 0.  1.
<mgrwt>
<rscale>  0 0.20751378E+04</rscale>
<asrwt>0</asrwt>
<pdfrwt beam="1">  1        1 0.33182528E+00 0.20751378E+04</pdfrwt>
<pdfrwt beam="2">  1       -1 0.76788772E-01 0.20751378E+04</pdfrwt>
<totfact> 0.36555223E+00</totfact>
</mgrwt>
</event>
<event>
12    1  0.4967442E-008  0.1288355E+04  0.7818608E-02  0.9038851E-01
         -2   -1    0    0    0  501 -0.00000000000E+00  0.00000000000E+00  0.51136603625E+03  0.51136603625E+03  0.00000000000E+00 0.  1.
          2   -1    0    0  501    0  0.00000000000E+00 -0.00000000000E+00 -0.81148237437E+03  0.81148237437E+03  0.00000000000E+00 0. -1.
         23    2    1    2    0    0  0.29548638271E+03 -0.83300290273E+02 -0.15866109174E+03  0.35726924369E+03  0.90646730379E+02 0.  0.
        254    2    1    2    0    0 -0.29548638271E+03  0.83300290273E+02 -0.14145524639E+03  0.96557916693E+03  0.90447907668E+03 0.  0.
         23    2    4    4    0    0 -0.56262031127E+03 -0.46894543944E+02  0.88434254356E+02  0.57879194949E+03  0.91862889872E+02 0.  0.
         23    2    4    4    0    0  0.26713392856E+03  0.13019483422E+03 -0.22988950074E+03  0.38678721744E+03  0.91890904770E+02 0.  0.
         11    1    3    3    0    0  0.74680623788E+01  0.64843327671E+01 -0.25781801167E+02  0.27613761036E+02  0.00000000000E+00 0.  1.
        -11    1    3    3    0    0  0.28801832033E+03 -0.89784623040E+02 -0.13287929057E+03  0.32965548265E+03  0.00000000000E+00 0. -1.
          2    1    5    5  502    0 -0.51923832627E+02 -0.32180859943E+02  0.95497356112E+01  0.61829520390E+02  0.00000000000E+00 0. -1.
          3    1    6    6  503    0  0.23087681588E+02  0.41626168895E+01 -0.58509755242E+02  0.63037765498E+02  0.00000000000E+00 0. -1.
         -2    1    5    5    0  502 -0.51069647865E+03 -0.14713684002E+02  0.78884518745E+02  0.51696242910E+03  0.00000000000E+00 0.  1.
         -3    1    6    6    0  503  0.24404624697E+03  0.12603221733E+03 -0.17137974550E+03  0.32374945194E+03  0.00000000000E+00 0.  1.
<mgrwt>
<rscale>  0 0.12883548E+04</rscale>
<asrwt>0</asrwt>
<pdfrwt beam="1">  1        2 0.12484344E+00 0.12883548E+04</pdfrwt>
<pdfrwt beam="2">  1       -2 0.78671698E-01 0.12883548E+04</pdfrwt>
<totfact> 0.47603303E+01</totfact>
</mgrwt>
</event>
<event>
12    1  0.4967442E-008  0.1436962E+04  0.7818608E-02  0.8927490E-01
          1   -1    0    0  501    0  0.00000000000E+00  0.00000000000E+00  0.22881605805E+04  0.22881605805E+04  0.00000000000E+00 0. -1.
         -1   -1    0    0    0  501 -0.00000000000E+00 -0.00000000000E+00 -0.22560259539E+03  0.22560259539E+03  0.00000000000E+00 0.  1.
         23    2    1    2    0    0  0.40228053366E+03  0.89360350590E+02  0.91996661376E+03  0.10129305355E+04  0.99372024416E+02 0.  0.
        254    2    1    2    0    0 -0.40228053366E+03 -0.89360350590E+02  0.11425913713E+04  0.15008326404E+04  0.88157170587E+03 0.  0.
         23    2    4    4    0    0  0.16952740246E+03 -0.17105995284E+03  0.49490496004E+02  0.26118999125E+03  0.88146779218E+02 0.  0.
         23    2    4    4    0    0 -0.57180793612E+03  0.81699602248E+02  0.10931008753E+04  0.12396426491E+04  0.90582741681E+02 0.  0.
         13    1    3    3    0    0  0.25631371241E+03  0.83611216285E+01  0.53264206037E+03  0.59116342241E+03  0.00000000000E+00 0.  1.
        -13    1    3    3    0    0  0.14596682125E+03  0.80999228962E+02  0.38732455339E+03  0.42176711306E+03  0.00000000000E+00 0. -1.
          2    1    5    5  502    0  0.17070292600E+02 -0.39444242120E+02 -0.20955281178E+02  0.47815969457E+02  0.00000000000E+00 0. -1.
          3    1    6    6  503    0 -0.30537888733E+03  0.88429262806E+02  0.61213174012E+03  0.68976899510E+03  0.00000000000E+00 0. -1.
         -2    1    5    5    0  502  0.15245710986E+03 -0.13161571072E+03  0.70445777182E+02  0.21337402180E+03  0.00000000000E+00 0.  1.
         -3    1    6    6    0  503 -0.26642904880E+03 -0.67296605579E+01  0.48096913520E+03  0.54987365402E+03  0.00000000000E+00 0.  1.
<mgrwt>
<rscale>  0 0.14369620E+04</rscale>
<asrwt>0</asrwt>
<pdfrwt beam="1">  1        1 0.35202469E+00 0.14369620E+04</pdfrwt>
<pdfrwt beam="2">  1       -1 0.34708093E-01 0.14369620E+04</pdfrwt>
<totfact> 0.14551336E+01</totfact>
</mgrwt>
</event>
<event>
12    1  0.4967442E-008  0.1112446E+04  0.7818608E-02  0.9193145E-01
         -3   -1    0    0    0  501 -0.00000000000E+00  0.00000000000E+00  0.38734216199E+03  0.38734216199E+03  0.00000000000E+00 0.  1.
          3   -1    0    0  501    0  0.00000000000E+00 -0.00000000000E+00 -0.79873560592E+03  0.79873560592E+03  0.00000000000E+00 0. -1.
         23    2    1    2    0    0  0.19753170127E+03  0.28292090939E+02 -0.16130715303E+03  0.27244903134E+03  0.91592912608E+02 0.  0.
        254    2    1    2    0    0 -0.19753170127E+03 -0.28292090939E+02 -0.25008629091E+03  0.91362873657E+03  0.85577748274E+03 0.  0.
         23    2    4    4    0    0 -0.28486448032E+02 -0.39838255055E+03  0.31237450994E+02  0.41103809435E+03  0.91958699176E+02 0.  0.
         23    2    4    4    0    0 -0.16904525324E+03  0.37009045961E+03 -0.28132374190E+03  0.50259064223E+03  0.88944139533E+02 0.  0.
         13    1    3    3    0    0  0.56333819329E+02 -0.25602954720E+02 -0.18669211752E+02  0.64633969072E+02  0.00000000000E+00 0.  1.
        -13    1    3    3    0    0  0.14119788195E+03  0.53895045659E+02 -0.14263794127E+03  0.20781506226E+03  0.00000000000E+00 0. -1.
          2    1    5    5  502    0  0.33370090388E+02 -0.13845893190E+03  0.17613023852E+02  0.14350838779E+03  0.00000000000E+00 0. -1.
          4    1    6    6  503    0 -0.15560207929E+03  0.28194943545E+03 -0.18524160341E+03  0.37151304535E+03  0.00000000000E+00 0. -1.
         -2    1    5    5    0  502 -0.61856538420E+02 -0.25992361865E+03  0.13624427142E+02  0.26752970656E+03  0.00000000000E+00 0.  1.
         -4    1    6    6    0  503 -0.13443173953E+02  0.88141024157E+02 -0.96082138495E+02  0.13107759688E+03  0.00000000000E+00 0.  1.
<mgrwt>
<rscale>  0 0.11124459E+04</rscale>
<asrwt>0</asrwt>
<pdfrwt beam="1">  1        3 0.12288240E+00 0.11124459E+04</pdfrwt>
<pdfrwt beam="2">  1       -3 0.59591102E-01 0.11124459E+04</pdfrwt>
<totfact> 0.38294830E+00</totfact>
</mgrwt>
</event>
<event>
12    1  0.4967442E-008  0.2110604E+04  0.7818608E-02  0.8556586E-01
         -1   -1    0    0    0  501 -0.00000000000E+00  0.00000000000E+00  0.52923572758E+03  0.52923572758E+03  0.00000000000E+00 0.  1.
          1   -1    0    0  501    0  0.00000000000E+00 -0.00000000000E+00 -0.21042849132E+04  0.21042849132E+04  0.00000000000E+00 0. -1.
         23    2    1    2    0    0  0.17093906190E+03 -0.84327165777E+03 -0.56704220846E+03  0.10345231249E+04  0.91509442651E+02 0.  0.
        254    2    1    2    0    0 -0.17093906190E+03  0.84327165777E+03 -0.10080069772E+04  0.15989975159E+04  0.89464391696E+03 0.  0.
         23    2    4    4    0    0  0.27414507888E+03  0.36076295205E+02 -0.38561838403E+03  0.48283554560E+03  0.89283831955E+02 0.  0.
         23    2    4    4    0    0 -0.44508414078E+03  0.80719536256E+03 -0.62238859319E+03  0.11161619703E+04  0.93732264175E+02 0.  0.
         13    1    3    3    0    0  0.16133295517E+03 -0.65824862225E+03 -0.41365953461E+03  0.79399860308E+03  0.00000000000E+00 0.  1.
        -13    1    3    3    0    0  0.96061067318E+01 -0.18502303552E+03 -0.15338267385E+03  0.24052452182E+03  0.00000000000E+00 0. -1.
          4    1    5    5  502    0  0.86453855180E+02 -0.68764463176E+01 -0.63241339714E+02  0.10733602209E+03  0.00000000000E+00 0. -1.
          1    1    6    6  503    0 -0.31061450289E+03  0.49471151753E+03 -0.35589016392E+03  0.68401656687E+03  0.00000000000E+00 0.  1.
         -4    1    5    5    0  502  0.18769122370E+03  0.42952741522E+02 -0.32237704431E+03  0.37549952351E+03  0.00000000000E+00 0.  1.
         -1    1    6    6    0  503 -0.13446963790E+03  0.31248384503E+03 -0.26649842926E+03  0.43214540345E+03  0.00000000000E+00 0. -1.
<mgrwt>
<rscale>  0 0.21106044E+04</rscale>
<asrwt>0</asrwt>
<pdfrwt beam="1">  1        1 0.32373614E+00 0.21106044E+04</pdfrwt>
<pdfrwt beam="2">  1       -1 0.81420882E-01 0.21106044E+04</pdfrwt>
<totfact> 0.34938022E+00</totfact>
</mgrwt>
</event>
<event>
12    1  0.4967442E-008  0.2635710E+04  0.7818608E-02  0.8356172E-01
          2   -1    0    0  501    0  0.00000000000E+00  0.00000000000E+00  0.12695317705E+04  0.12695317705E+04  0.00000000000E+00 0. -1.
         -2   -1    0    0    0  501 -0.00000000000E+00 -0.00000000000E+00 -0.13680175825E+04  0.13680175825E+04  0.00000000000E+00 0.  1.
         23    2    1    2    0    0 -0.76703268979E+03 -0.55169739205E+03  0.63887477292E+03  0.11439895068E+04  0.88554258352E+02 0.  0.
        254    2    1    2    0    0  0.76703268979E+03  0.55169739205E+03 -0.73736058491E+03  0.14935598461E+04  0.89124139385E+03 0.  0.
         23    2    4    4    0    0 -0.10504652638E+03  0.12608045364E+03  0.96009201096E+02  0.21126332467E+03  0.92105223311E+02 0.  0.
         23    2    4    4    0    0  0.87207921617E+03  0.42561693841E+03 -0.83336978600E+03  0.12822965214E+04  0.90040163871E+02 0.  0.
         13    1    3    3    0    0 -0.14007044785E+02 -0.18840670296E+02  0.32350669143E+02  0.39971664399E+02  0.00000000000E+00 0.  1.
        -13    1    3    3    0    0 -0.75302564501E+03 -0.53285672175E+03  0.60652410377E+03  0.11040178424E+04  0.00000000000E+00 0. -1.
          2    1    5    5  502    0 -0.11963699219E+03  0.12566187895E+03  0.90231810661E+02  0.19556507198E+03  0.00000000000E+00 0. -1.
          4    1    6    6  503    0  0.84124931829E+03  0.39964233767E+03 -0.77649529731E+03  0.12125837539E+04  0.00000000000E+00 0. -1.
         -2    1    5    5    0  502  0.14590465811E+02  0.41857468459E+00  0.57773904349E+01  0.15698252692E+02  0.00000000000E+00 0.  1.
         -4    1    6    6    0  503  0.30829897889E+02  0.25974600741E+02 -0.56874488691E+02  0.69712767492E+02  0.00000000000E+00 0.  1.
<mgrwt>
<rscale>  0 0.26357100E+04</rscale>
<asrwt>0</asrwt>
<pdfrwt beam="1">  1        2 0.19531258E+00 0.26357100E+04</pdfrwt>
<pdfrwt beam="2">  1       -2 0.21046424E+00 0.26357100E+04</pdfrwt>
<totfact> 0.17276918E+00</totfact>
</mgrwt>
</event>
<event>
12    1  0.4967442E-008  0.2253992E+04  0.7818608E-02  0.8496285E-01
         -3   -1    0    0    0  501 -0.00000000000E+00  0.00000000000E+00  0.11356232679E+04  0.11356232679E+04  0.00000000000E+00 0.  1.
          3   -1    0    0  501    0  0.00000000000E+00 -0.00000000000E+00 -0.11184344646E+04  0.11184344646E+04  0.00000000000E+00 0. -1.
         23    2    1    2    0    0  0.48786447588E+03  0.38821606226E+03 -0.70331901616E+03  0.94429633275E+03  0.91183703214E+02 0.  0.
        254    2    1    2    0    0 -0.48786447588E+03 -0.38821606226E+03  0.72050781941E+03  0.13097613997E+04  0.89867677642E+03 0.  0.
         23    2    4    4    0    0  0.17338179972E+03 -0.36271395192E+03  0.17884816586E+03  0.44967712101E+03  0.92737194968E+02 0.  0.
         23    2    4    4    0    0 -0.66124627560E+03 -0.25502110338E+02  0.54165965356E+03  0.86008427869E+03  0.91939064240E+02 0.  0.
         11    1    3    3    0    0  0.20814965131E+03  0.11370311272E+03 -0.29138814068E+03  0.37571495008E+03  0.00000000000E+00 0. -1.
        -11    1    3    3    0    0  0.27971482457E+03  0.27451294954E+03 -0.41193087548E+03  0.56858138267E+03  0.00000000000E+00 0.  1.
          1    1    5    5  502    0  0.13243933448E+03 -0.26671381489E+03  0.85916630817E+02  0.30993241815E+03  0.00000000000E+00 0. -1.
          3    1    6    6  503    0 -0.32297856881E+03  0.16697815383E+02  0.21803185509E+03  0.39004084759E+03  0.00000000000E+00 0. -1.
         -1    1    5    5    0  502  0.40942465239E+02 -0.96000137034E+02  0.92931535041E+02  0.13974470285E+03  0.00000000000E+00 0.  1.
         -3    1    6    6    0  503 -0.33826770679E+03 -0.42199925722E+02  0.32362779846E+03  0.47004343111E+03  0.00000000000E+00 0.  1.
<mgrwt>
<rscale>  0 0.22539922E+04</rscale>
<asrwt>0</asrwt>
<pdfrwt beam="1">  1        3 0.17206684E+00 0.22539922E+04</pdfrwt>
<pdfrwt beam="2">  1       -3 0.17471127E+00 0.22539922E+04</pdfrwt>
<totfact> 0.11454553E-01</totfact>
</mgrwt>
</event>
<event>
12    1  0.4967442E-008  0.2624701E+04  0.7818608E-02  0.8359859E-01
         -2   -1    0    0    0  501 -0.00000000000E+00  0.00000000000E+00  0.15609988458E+04  0.15609988458E+04  0.00000000000E+00 0.  1.
          2   -1    0    0  501    0  0.00000000000E+00 -0.00000000000E+00 -0.11033089305E+04  0.11033089305E+04  0.00000000000E+00 0. -1.
         23    2    1    2    0    0 -0.64389206443E+03  0.15256160673E+03 -0.75968469010E+03  0.10119717960E+04  0.95362744146E+02 0.  0.
        254    2    1    2    0    0  0.64389206443E+03 -0.15256160673E+03  0.12173746054E+04  0.16523359804E+04  0.90018955103E+03 0.  0.
         23    2    4    4    0    0  0.53736249228E+02 -0.43902419659E+03  0.44538945189E+03  0.63519424145E+03  0.97314597275E+02 0.  0.
         23    2    4    4    0    0  0.59015581520E+03  0.28646258986E+03  0.77198515353E+03  0.10171417390E+04  0.90947997613E+02 0.  0.
         13    1    3    3    0    0 -0.14342917169E+03  0.63202752706E+02 -0.22468493875E+03  0.27395225304E+03  0.00000000000E+00 0.  1.
        -13    1    3    3    0    0 -0.50046289274E+03  0.89358854024E+02 -0.53499975135E+03  0.73801954293E+03  0.00000000000E+00 0. -1.
          4    1    6    6  502    0  0.82981737583E+02  0.56701516166E+02  0.16720964719E+03  0.19508997109E+03  0.00000000000E+00 0. -1.
          4    1    5    5  503    0 -0.15430603088E+02 -0.26608819811E+02  0.55513015566E+02  0.63465169192E+02  0.00000000000E+00 0. -1.
         -4    1    5    5    0  503  0.69166852316E+02 -0.41241537678E+03  0.38987643633E+03  0.57172907226E+03  0.00000000000E+00 0.  1.
         -4    1    6    6    0  502  0.50717407762E+03  0.22976107370E+03  0.60477550634E+03  0.82205176787E+03  0.00000000000E+00 0.  1.
<mgrwt>
<rscale>  0 0.26247011E+04</rscale>
<asrwt>0</asrwt>
<pdfrwt beam="1">  1        2 0.16973984E+00 0.26247011E+04</pdfrwt>
<pdfrwt beam="2">  1       -2 0.24015367E+00 0.26247011E+04</pdfrwt>
<totfact> 0.14147181E+00</totfact>
</mgrwt>
</event>
<event>
12    1  0.4967442E-008  0.1932810E+04  0.7818608E-02  0.8638695E-01
          2   -1    0    0  501    0  0.00000000000E+00  0.00000000000E+00  0.75625082354E+03  0.75625082354E+03  0.00000000000E+00 0. -1.
         -2   -1    0    0    0  501 -0.00000000000E+00 -0.00000000000E+00 -0.12349582136E+04  0.12349582136E+04  0.00000000000E+00 0.  1.
         23    2    1    2    0    0  0.29017789172E+03 -0.69258940522E+03 -0.26814937104E+03  0.80287810363E+03  0.93946107070E+02 0.  0.
        254    2    1    2    0    0 -0.29017789172E+03  0.69258940522E+03 -0.21055801899E+03  0.11883309335E+04  0.89661164116E+03 0.  0.
         23    2    4    4    0    0 -0.37385578797E+03  0.86236118622E+03 -0.24002085325E+03  0.97426313382E+03  0.90242330570E+02 0.  0.
         23    2    4    4    0    0  0.83677896247E+02 -0.16977178100E+03  0.29462834255E+02  0.21406779967E+03  0.95564199927E+02 0.  0.
         11    1    3    3    0    0  0.21756776628E+03 -0.49779765971E+03 -0.14925817542E+03  0.56339705880E+03  0.00000000000E+00 0.  1.
        -11    1    3    3    0    0  0.72610125437E+02 -0.19479174550E+03 -0.11889119563E+03  0.23948104482E+03  0.00000000000E+00 0. -1.
          3    1    5    5  502    0 -0.25809849118E+02  0.46379046213E+02 -0.35586120119E+02  0.63902552251E+02  0.00000000000E+00 0. -1.
          3    1    6    6  503    0  0.45873583128E+02 -0.74631948728E+02 -0.33602228779E+02  0.93826559027E+02  0.00000000000E+00 0. -1.
         -3    1    5    5    0  502 -0.34804593885E+03  0.81598214001E+03 -0.20443473313E+03  0.91036058157E+03  0.00000000000E+00 0.  1.
         -3    1    6    6    0  503  0.37804313118E+02 -0.95139832275E+02  0.63065063034E+02  0.12024124064E+03  0.00000000000E+00 0.  1.
<mgrwt>
<rscale>  0 0.19328095E+04</rscale>
<asrwt>0</asrwt>
<pdfrwt beam="1">  1        2 0.11634628E+00 0.19328095E+04</pdfrwt>
<pdfrwt beam="2">  1       -2 0.18999357E+00 0.19328095E+04</pdfrwt>
<totfact> 0.53684429E+00</totfact>
</mgrwt>
</event>
<event>
12    1  0.4967442E-008  0.1363274E+04  0.7818608E-02  0.8980840E-01
         -2   -1    0    0    0  501 -0.00000000000E+00  0.00000000000E+00  0.24739213657E+03  0.24739213657E+03  0.00000000000E+00 0.  1.
          2   -1    0    0  501    0  0.00000000000E+00 -0.00000000000E+00 -0.18781082320E+04  0.18781082320E+04  0.00000000000E+00 0. -1.
         23    2    1    2    0    0  0.74810683290E+02 -0.37686311496E+03 -0.46419195261E+03  0.60901092606E+03  0.88304549428E+02 0.  0.
        254    2    1    2    0    0 -0.74810683290E+02  0.37686311496E+03 -0.11665241428E+04  0.15164894425E+04  0.88957248593E+03 0.  0.
         23    2    4    4    0    0  0.19373168053E+03  0.25292802491E+03 -0.11603422420E+04  0.12068593713E+04  0.92794793297E+02 0.  0.
         23    2    4    4    0    0 -0.26854236382E+03  0.12393509005E+03 -0.61819008661E+01  0.30963007127E+03  0.91420224363E+02 0.  0.
         13    1    3    3    0    0 -0.73354935471E+01  0.11162894387E+01 -0.81351634654E+01  0.11010742586E+02  0.00000000000E+00 0. -1.
        -13    1    3    3    0    0  0.82146176837E+02 -0.37797940439E+03 -0.45605678914E+03  0.59800018348E+03  0.00000000000E+00 0.  1.
          3    1    6    6  502    0 -0.11757458883E+03  0.42856571732E+02 -0.46650453923E+02  0.13355423816E+03  0.00000000000E+00 0.  1.
          3    1    5    5  503    0  0.13915026240E+03  0.23171015496E+03 -0.10092730073E+04  0.10448370183E+04  0.00000000000E+00 0. -1.
         -3    1    5    5    0  503  0.54581418132E+02  0.21217869949E+02 -0.15106923467E+03  0.16202235301E+03  0.00000000000E+00 0.  1.
         -3    1    6    6    0  502 -0.15096777500E+03  0.81078518315E+02  0.40468553056E+02  0.17607583311E+03  0.00000000000E+00 0. -1.
<mgrwt>
<rscale>  0 0.13632743E+04</rscale>
<asrwt>0</asrwt>
<pdfrwt beam="1">  1        2 0.28893974E+00 0.13632743E+04</pdfrwt>
<pdfrwt beam="2">  1       -2 0.38060327E-01 0.13632743E+04</pdfrwt>
<totfact> 0.49674385E+01</totfact>
</mgrwt>
</event>
<event>
12    1  0.4967442E-008  0.3045637E+04  0.7818608E-02  0.8230818E-01
          2   -1    0    0  501    0  0.00000000000E+00  0.00000000000E+00  0.14087918114E+04  0.14087918114E+04  0.00000000000E+00 0. -1.
         -2   -1    0    0    0  501 -0.00000000000E+00 -0.00000000000E+00 -0.16460744081E+04  0.16460744081E+04  0.00000000000E+00 0.  1.
         23    2    1    2    0    0  0.62268156340E+02 -0.78126073546E+03 -0.11893563199E+04  0.14262450483E+04  0.73217633806E+02 0.  0.
        254    2    1    2    0    0 -0.62268156340E+02  0.78126073546E+03  0.95207372324E+03  0.16286211712E+04  0.10638218293E+04 0.  0.
         23    2    4    4    0    0 -0.27174274503E+03  0.96134856121E+03  0.59065758285E+03  0.11644261513E+04  0.94745479757E+02 0.  0.
         23    2    4    4    0    0  0.20947458869E+03 -0.18008782575E+03  0.36141614039E+03  0.46419501990E+03  0.92434634596E+02 0.  0.
         13    1    3    3    0    0  0.10379985636E+02 -0.12994378903E+03 -0.15168509093E+03  0.20000374801E+03  0.00000000000E+00 0. -1.
        -13    1    3    3    0    0  0.51888170704E+02 -0.65131694643E+03 -0.10376712290E+04  0.12262413003E+04  0.00000000000E+00 0.  1.
          1    1    5    5  502    0 -0.12641233586E+03  0.53487890991E+03  0.37157130804E+03  0.66343105436E+03  0.00000000000E+00 0. -1.
          3    1    6    6  503    0  0.80161468683E+02 -0.12362345509E+03  0.21696228426E+03  0.26226180146E+03  0.00000000000E+00 0. -1.
         -1    1    5    5    0  502 -0.14533040917E+03  0.42646965130E+03  0.21908627481E+03  0.50099509690E+03  0.00000000000E+00 0.  1.
         -3    1    6    6    0  503  0.12931312001E+03 -0.56464370656E+02  0.14445385613E+03  0.20193321844E+03  0.00000000000E+00 0.  1.
<mgrwt>
<rscale>  0 0.30456370E+04</rscale>
<asrwt>0</asrwt>
<pdfrwt beam="1">  1        2 0.21673720E+00 0.30456370E+04</pdfrwt>
<pdfrwt beam="2">  1       -2 0.25324222E+00 0.30456370E+04</pdfrwt>
<totfact> 0.74873566E-01</totfact>
</mgrwt>
</event>
<event>
12    1  0.4967442E-008  0.3784084E+04  0.7818608E-02  0.8049579E-01
          2   -1    0    0  501    0  0.00000000000E+00  0.00000000000E+00  0.41098621774E+04  0.41098621774E+04  0.00000000000E+00 0. -1.
         -2   -1    0    0    0  501 -0.00000000000E+00 -0.00000000000E+00 -0.87103239195E+03  0.87103239195E+03  0.00000000000E+00 0.  1.
         23    2    1    2    0    0 -0.85980870200E+03  0.14243668270E+04  0.23920157272E+04  0.29151872836E+04  0.92118387715E+02 0.  0.
        254    2    1    2    0    0  0.85980870200E+03 -0.14243668270E+04  0.84681405821E+03  0.20657072857E+04  0.88428540589E+03 0.  0.
         23    2    4    4    0    0  0.80735498002E+03 -0.14978663475E+04  0.63562805298E+03  0.18187420284E+04  0.91508937610E+02 0.  0.
         23    2    4    4    0    0  0.52453721988E+02  0.73499520439E+02  0.21118600523E+03  0.24696525727E+03  0.90767488881E+02 0.  0.
         11    1    3    3    0    0 -0.48703341472E+03  0.75618411073E+03  0.12263270770E+04  0.15208201919E+04  0.00000000000E+00 0. -1.
        -11    1    3    3    0    0 -0.37277528729E+03  0.66818271630E+03  0.11656886502E+04  0.13943670917E+04  0.00000000000E+00 0.  1.
          4    1    5    5  502    0  0.68059336164E+03 -0.13124805195E+04  0.53018055104E+03  0.15706380406E+04  0.00000000000E+00 0. -1.
          1    1    6    6  503    0  0.74758876018E+02  0.72872958755E+02  0.18616015012E+03  0.21343607744E+03  0.00000000000E+00 0. -1.
         -4    1    5    5    0  502  0.12676161838E+03 -0.18538582799E+03  0.10544750194E+03  0.24810398783E+03  0.00000000000E+00 0.  1.
         -1    1    6    6    0  503 -0.22305154030E+02  0.62656168389E+00  0.25025855108E+02  0.33529179825E+02  0.00000000000E+00 0.  1.
<mgrwt>
<rscale>  0 0.37840841E+04</rscale>
<asrwt>0</asrwt>
<pdfrwt beam="1">  1        2 0.63228648E+00 0.37840841E+04</pdfrwt>
<pdfrwt beam="2">  1       -2 0.13400499E+00 0.37840841E+04</pdfrwt>
<totfact> 0.89279917E-02</totfact>
</mgrwt>
</event>
<event>
12    1  0.4967442E-008  0.9763306E+03  0.7818608E-02  0.9334893E-01
          1   -1    0    0  501    0  0.00000000000E+00  0.00000000000E+00  0.91519794774E+03  0.91519794774E+03  0.00000000000E+00 0. -1.
         -1   -1    0    0    0  501 -0.00000000000E+00 -0.00000000000E+00 -0.26038666713E+03  0.26038666713E+03  0.00000000000E+00 0.  1.
         23    2    1    2    0    0  0.89915478426E+01  0.36626281215E+02  0.11125935721E+03  0.14691713332E+03  0.88225093298E+02 0.  0.
        254    2    1    2    0    0 -0.89915478426E+01 -0.36626281215E+02  0.54355192340E+03  0.10286674815E+04  0.87251691201E+03 0.  0.
         23    2    4    4    0    0  0.21779754228E+02 -0.86174607143E+02  0.76903627931E+03  0.77990810016E+03  0.94548533532E+02 0.  0.
         23    2    4    4    0    0 -0.30771302071E+02  0.49548325928E+02 -0.22548435591E+03  0.24875938138E+03  0.87384926794E+02 0.  0.
         13    1    3    3    0    0  0.41573047174E+02  0.16472980739E+02  0.22111237114E+02  0.49885710905E+02  0.00000000000E+00 0.  1.
        -13    1    3    3    0    0 -0.32581499332E+02  0.20153300476E+02  0.89148120100E+02  0.97031422416E+02  0.00000000000E+00 0. -1.
          2    1    5    5  502    0  0.54046185942E+02 -0.23041689003E+02  0.36489144239E+03  0.36959122606E+03  0.00000000000E+00 0. -1.
          1    1    6    6  503    0 -0.48838760720E+02  0.32946569945E+02 -0.21344908240E+03  0.22142992525E+03  0.00000000000E+00 0. -1.
         -2    1    5    5    0  502 -0.32266431713E+02 -0.63132918141E+02  0.40414483692E+03  0.41031687411E+03  0.00000000000E+00 0.  1.
         -1    1    6    6    0  503  0.18067458649E+02  0.16601755983E+02 -0.12035273510E+02  0.27329456128E+02  0.00000000000E+00 0.  1.
<mgrwt>
<rscale>  0 0.97633057E+03</rscale>
<asrwt>0</asrwt>
<pdfrwt beam="1">  1        1 0.14079968E+00 0.97633057E+03</pdfrwt>
<pdfrwt beam="2">  1       -1 0.40059488E-01 0.97633057E+03</pdfrwt>
<totfact> 0.10773044E+02</totfact>
</mgrwt>
</event>
<event>
12    1  0.4967442E-008  0.1858161E+04  0.7818608E-02  0.8675967E-01
         -2   -1    0    0    0  501 -0.00000000000E+00  0.00000000000E+00  0.66308425638E+03  0.66308425638E+03  0.00000000000E+00 0.  1.
          2   -1    0    0  501    0  0.00000000000E+00 -0.00000000000E+00 -0.13017808362E+04  0.13017808362E+04  0.00000000000E+00 0. -1.
         23    2    1    2    0    0  0.21963826134E+03  0.16026469264E+03  0.44404805306E+03  0.52853043874E+03  0.90774521223E+02 0.  0.
        254    2    1    2    0    0 -0.21963826134E+03 -0.16026469264E+03 -0.10827446329E+04  0.14363346539E+04  0.90376742598E+03 0.  0.
         23    2    4    4    0    0 -0.48078159950E+03  0.73449755862E+01 -0.98143445574E+03  0.10973957887E+04  0.99292653992E+02 0.  0.
         23    2    4    4    0    0  0.26114333816E+03 -0.16760966822E+03 -0.10131017716E+03  0.33893886513E+03  0.91252169021E+02 0.  0.
         11    1    3    3    0    0  0.14699649607E+03  0.11945899988E+03  0.37576556092E+03  0.42080658180E+03  0.00000000000E+00 0.  1.
        -11    1    3    3    0    0  0.72641765269E+02  0.40805692760E+02  0.68282492134E+02  0.10772385695E+03  0.00000000000E+00 0. -1.
          2    1    5    5  502    0 -0.28481177857E+03 -0.97728397529E+01 -0.47277762692E+03  0.55202530932E+03  0.00000000000E+00 0.  1.
          3    1    6    6  503    0  0.18290569353E+03 -0.13376874522E+03 -0.31546496799E+02  0.22878756825E+03  0.00000000000E+00 0. -1.
         -2    1    5    5    0  502 -0.19596982093E+03  0.17117815339E+02 -0.50865682882E+03  0.54537047942E+03  0.00000000000E+00 0. -1.
         -3    1    6    6    0  503  0.78237644626E+02 -0.33840923000E+02 -0.69763680363E+02  0.11015129688E+03  0.00000000000E+00 0.  1.
<mgrwt>
<rscale>  0 0.18581608E+04</rscale>
<asrwt>0</asrwt>
<pdfrwt beam="1">  1        2 0.20027397E+00 0.18581608E+04</pdfrwt>
<pdfrwt beam="2">  1       -2 0.10201296E+00 0.18581608E+04</pdfrwt>
<totfact> 0.12209336E+01</totfact>
</mgrwt>
</event>
<event>
12    1  0.6299835E-008  0.1782241E+04  0.7818608E-02  0.8715801E-01
         -2   -1    0    0    0  501 -0.00000000000E+00  0.00000000000E+00  0.57212166083E+03  0.57212166083E+03  0.00000000000E+00 0. -1.
          2   -1    0    0  501    0  0.00000000000E+00 -0.00000000000E+00 -0.13879833422E+04  0.13879833422E+04  0.00000000000E+00 0.  1.
         23    2    1    2    0    0 -0.24955052177E+03  0.45324210732E+03 -0.76156719642E+03  0.92542497105E+03  0.93396528867E+02 0.  0.
        254    2    1    2    0    0  0.24955052177E+03 -0.45324210732E+03 -0.54294484983E+02  0.10346800320E+04  0.89437744089E+03 0.  0.
         23    2    4    4    0    0  0.69654678243E+02 -0.12464832353E+03 -0.45076904713E+03  0.48147434251E+03  0.90751473179E+02 0.  0.
         23    2    4    4    0    0  0.17989584353E+03 -0.32859378380E+03  0.39647456215E+03  0.55320568950E+03  0.92239184703E+02 0.  0.
         13    1    3    3    0    0 -0.17883446686E+03  0.35130037332E+03 -0.64042677291E+03  0.75202404901E+03  0.00000000000E+00 0.  1.
        -13    1    3    3    0    0 -0.70716054910E+02  0.10194173401E+03 -0.12114042351E+03  0.17340092203E+03  0.00000000000E+00 0. -1.
          1    1    5    5  502    0  0.76715024995E+02 -0.12619963022E+03 -0.45066237838E+03  0.47424479018E+03  0.00000000000E+00 0. -1.
          3    1    6    6  503    0  0.17031472577E+03 -0.32384996114E+03  0.35295700425E+03  0.50839408926E+03  0.00000000000E+00 0. -1.
         -1    1    5    5    0  502 -0.70603467520E+01  0.15513066904E+01 -0.10666875590E+00  0.72295523326E+01  0.00000000000E+00 0.  1.
         -3    1    6    6    0  503  0.95811177599E+01 -0.47438226609E+01  0.43517557896E+02  0.44811600241E+02  0.00000000000E+00 0.  1.
<mgrwt>
<rscale>  0 0.17822405E+04</rscale>
<asrwt>0</asrwt>
<pdfrwt beam="1">  1        2 0.21353590E+00 0.17822405E+04</pdfrwt>
<pdfrwt beam="2">  1       -2 0.88018717E-01 0.17822405E+04</pdfrwt>
<totfact> 0.15463223E+01</totfact>
</mgrwt>
</event>
<event>
12    1  0.4967442E-008  0.1738863E+04  0.7818608E-02  0.8739505E-01
         -1   -1    0    0    0  501 -0.00000000000E+00  0.00000000000E+00  0.73278698392E+03  0.73278698392E+03  0.00000000000E+00 0.  1.
          1   -1    0    0  501    0  0.00000000000E+00 -0.00000000000E+00 -0.10315563560E+04  0.10315563560E+04  0.00000000000E+00 0. -1.
         23    2    1    2    0    0  0.23844163021E+03 -0.25497004346E+03 -0.64668892198E+03  0.74260788652E+03  0.10675100579E+03 0.  0.
        254    2    1    2    0    0 -0.23844163021E+03  0.25497004346E+03  0.34791954988E+03  0.10217354534E+04  0.89500345780E+03 0.  0.
         23    2    4    4    0    0 -0.12064443233E+03 -0.27543254498E+03 -0.80679781517E+02  0.32367490621E+03  0.88532772920E+02 0.  0.
         23    2    4    4    0    0 -0.11779719788E+03  0.53040258844E+03  0.42859933140E+03  0.69806054719E+03  0.91586325485E+02 0.  0.
         13    1    3    3    0    0  0.30689446529E+02 -0.53672922646E+02 -0.20907169556E+03  0.21802201412E+03  0.00000000000E+00 0.  1.
        -13    1    3    3    0    0  0.20775218368E+03 -0.20129712081E+03 -0.43761722642E+03  0.52458587241E+03  0.00000000000E+00 0. -1.
          1    1    5    5  502    0 -0.61720412487E+02 -0.14357069123E+03 -0.87465614400E+02  0.17908709166E+03  0.00000000000E+00 0. -1.
          3    1    6    6  503    0 -0.11251030865E+03  0.29815190850E+03  0.24625524036E+03  0.40273412260E+03  0.00000000000E+00 0. -1.
         -1    1    5    5    0  502 -0.58924019843E+02 -0.13186185375E+03  0.67858328827E+01  0.14458781456E+03  0.00000000000E+00 0.  1.
         -3    1    6    6    0  503 -0.52868892350E+01  0.23225067994E+03  0.18234409104E+03  0.29532642460E+03  0.00000000000E+00 0.  1.
<mgrwt>
<rscale>  0 0.17388629E+04</rscale>
<asrwt>0</asrwt>
<pdfrwt beam="1">  1        1 0.15870098E+00 0.17388629E+04</pdfrwt>
<pdfrwt beam="2">  1       -1 0.11273646E+00 0.17388629E+04</pdfrwt>
<totfact> 0.97655565E+00</totfact>
</mgrwt>
</event>
<event>
12    1  0.4967442E-008  0.2568425E+04  0.7818608E-02  0.8379006E-01
         -2   -1    0    0    0  501 -0.00000000000E+00  0.00000000000E+00  0.10795886493E+04  0.10795886493E+04  0.00000000000E+00 0.  1.
          2   -1    0    0  501    0  0.00000000000E+00 -0.00000000000E+00 -0.15276201490E+04  0.15276201490E+04  0.00000000000E+00 0. -1.
         23    2    1    2    0    0 -0.52093899473E+03 -0.52219414043E+03 -0.10557723954E+04  0.12897246840E+04  0.68339250674E+02 0.  0.
        254    2    1    2    0    0  0.52093899473E+03  0.52219414043E+03  0.60774089569E+03  0.13174841143E+04  0.90683583886E+03 0.  0.
         23    2    4    4    0    0 -0.23445056332E+03  0.20958199956E+03  0.28176424276E+03  0.43258439165E+03  0.94055761201E+02 0.  0.
         23    2    4    4    0    0  0.75538955805E+03  0.31261214087E+03  0.32597665293E+03  0.88489972266E+03  0.91907594232E+02 0.  0.
         11    1    3    3    0    0 -0.34292399491E+03 -0.35143970095E+03 -0.75665705611E+03  0.90201808754E+03  0.00000000000E+00 0. -1.
        -11    1    3    3    0    0 -0.17801499982E+03 -0.17075443948E+03 -0.29911533925E+03  0.38770659646E+03  0.00000000000E+00 0.  1.
          4    1    5    5  502    0 -0.89636057840E+02  0.51680641330E+02  0.14597646447E+03  0.17892635282E+03  0.00000000000E+00 0. -1.
          1    1    6    6  503    0  0.11406946567E+03  0.16061748884E+02  0.60427317327E+02  0.13008183369E+03  0.00000000000E+00 0. -1.
         -4    1    5    5    0  502 -0.14481450548E+03  0.15790135823E+03  0.13578777829E+03  0.25365803883E+03  0.00000000000E+00 0.  1.
         -1    1    6    6    0  503  0.64132009238E+03  0.29655039198E+03  0.26554933560E+03  0.75481788898E+03  0.00000000000E+00 0.  1.
<mgrwt>
<rscale>  0 0.25684247E+04</rscale>
<asrwt>0</asrwt>
<pdfrwt beam="1">  1        2 0.23501848E+00 0.25684247E+04</pdfrwt>
<pdfrwt beam="2">  1       -2 0.16609056E+00 0.25684247E+04</pdfrwt>
<totfact> 0.24695693E+00</totfact>
</mgrwt>
</event>
<event>
12    1  0.4967442E-008  0.1731418E+04  0.7818608E-02  0.8743645E-01
          1   -1    0    0  501    0  0.00000000000E+00  0.00000000000E+00  0.70099764769E+03  0.70099764769E+03  0.00000000000E+00 0. -1.
         -1   -1    0    0    0  501 -0.00000000000E+00 -0.00000000000E+00 -0.10691224496E+04  0.10691224496E+04  0.00000000000E+00 0.  1.
         23    2    1    2    0    0 -0.12495649417E+03  0.24641482371E+02  0.50362979849E+03  0.52738858459E+03  0.90963823269E+02 0.  0.
        254    2    1    2    0    0  0.12495649417E+03 -0.24641482371E+02 -0.87175460036E+03  0.12427315127E+04  0.87647259011E+03 0.  0.
         23    2    4    4    0    0  0.31292972217E+03  0.15861824137E+03 -0.89342363485E+03  0.96419773095E+03  0.91579012591E+02 0.  0.
         23    2    4    4    0    0 -0.18797322800E+03 -0.18325972374E+03  0.21669034499E+02  0.27853378170E+03  0.90517731406E+02 0.  0.
         13    1    3    3    0    0 -0.37061229587E+02 -0.12095666730E+02  0.30063195817E+03  0.30314916157E+03  0.00000000000E+00 0.  1.
        -13    1    3    3    0    0 -0.87895264579E+02  0.36737149102E+02  0.20299784032E+03  0.22423942302E+03  0.00000000000E+00 0. -1.
          4    1    5    5  502    0  0.57793019399E+02  0.54067444943E+02 -0.12652042058E+03  0.14923383838E+03  0.00000000000E+00 0.  1.
          3    1    6    6  503    0 -0.57294238090E+02 -0.51942311069E+02  0.48583393768E+02  0.91328963355E+02  0.00000000000E+00 0. -1.
         -4    1    5    5    0  502  0.25513670277E+03  0.10455079643E+03 -0.76690321428E+03  0.81496389257E+03  0.00000000000E+00 0. -1.
         -3    1    6    6    0  503 -0.13067898991E+03 -0.13131741267E+03 -0.26914359269E+02  0.18720481834E+03  0.00000000000E+00 0.  1.
<mgrwt>
<rscale>  0 0.17314183E+04</rscale>
<asrwt>0</asrwt>
<pdfrwt beam="1">  1        1 0.10784579E+00 0.17314183E+04</pdfrwt>
<pdfrwt beam="2">  1       -1 0.16448038E+00 0.17314183E+04</pdfrwt>
<totfact> 0.69764159E+00</totfact>
</mgrwt>
</event>
<event>
12    1  0.4967442E-008  0.2849503E+04  0.7818608E-02  0.8288062E-01
          2   -1    0    0  501    0  0.00000000000E+00  0.00000000000E+00  0.97696047824E+03  0.97696047824E+03  0.00000000000E+00 0. -1.
         -2   -1    0    0    0  501 -0.00000000000E+00 -0.00000000000E+00 -0.20777881624E+04  0.20777881624E+04  0.00000000000E+00 0.  1.
         23    2    1    2    0    0  0.30173984899E+03 -0.84601546549E+03  0.48282790604E+03  0.10234181183E+04  0.86445090997E+02 0.  0.
        254    2    1    2    0    0 -0.30173984899E+03  0.84601546549E+03 -0.15836555902E+04  0.20313305223E+04  0.90086045434E+03 0.  0.
         23    2    4    4    0    0 -0.39043427972E+03  0.26273488231E+03 -0.12686816214E+04  0.13562882153E+04  0.92174406403E+02 0.  0.
         23    2    4    4    0    0  0.88694430731E+02  0.58328058318E+03 -0.31497396881E+03  0.67504230707E+03  0.91600079374E+02 0.  0.
         11    1    3    3    0    0  0.13483625244E+03 -0.31361540237E+03  0.22442996781E+03  0.40853916095E+03  0.00000000000E+00 0.  1.
        -11    1    3    3    0    0  0.16690359655E+03 -0.53240006312E+03  0.25839793823E+03  0.61487895738E+03  0.00000000000E+00 0. -1.
          4    1    5    5  502    0 -0.11787960718E+03  0.42592124710E+02 -0.26332355087E+03  0.29163158835E+03  0.00000000000E+00 0. -1.
          1    1    6    6  503    0  0.28869534326E+02  0.23498447747E+03 -0.17727637764E+03  0.29576691623E+03  0.00000000000E+00 0. -1.
         -4    1    5    5    0  502 -0.27255467254E+03  0.22014275760E+03 -0.10053580706E+04  0.10646566269E+04  0.00000000000E+00 0.  1.
         -1    1    6    6    0  503  0.59824896405E+02  0.34829610571E+03 -0.13769759117E+03  0.37927539084E+03  0.00000000000E+00 0.  1.
<mgrwt>
<rscale>  0 0.28495031E+04</rscale>
<asrwt>0</asrwt>
<pdfrwt beam="1">  1        2 0.15030161E+00 0.28495031E+04</pdfrwt>
<pdfrwt beam="2">  1       -2 0.31965972E+00 0.28495031E+04</pdfrwt>
<totfact> 0.54354310E-01</totfact>
</mgrwt>
</event>
<event>
12    1  0.4967442E-008  0.1521528E+04  0.7818608E-02  0.8870262E-01
         -1   -1    0    0    0  501 -0.00000000000E+00  0.00000000000E+00  0.40002099167E+03  0.40002099167E+03  0.00000000000E+00 0.  1.
          1   -1    0    0  501    0  0.00000000000E+00 -0.00000000000E+00 -0.14468284358E+04  0.14468284358E+04  0.00000000000E+00 0. -1.
         23    2    1    2    0    0 -0.34687884753E+03 -0.31408955016E+03 -0.17040073089E+03  0.50640697475E+03  0.91839177943E+02 0.  0.
        254    2    1    2    0    0  0.34687884753E+03  0.31408955016E+03 -0.87640671320E+03  0.13404424527E+04  0.89984446525E+03 0.  0.
         23    2    4    4    0    0  0.10626298792E+03  0.54719252375E+03 -0.23644779899E+03  0.61227005176E+03  0.90860189239E+02 0.  0.
         23    2    4    4    0    0  0.24061585961E+03 -0.23310297359E+03 -0.63995891420E+03  0.72817240092E+03  0.91949145704E+02 0.  0.
         13    1    3    3    0    0 -0.23112273223E+03 -0.24834453127E+03 -0.15297436456E+03  0.37214765857E+03  0.00000000000E+00 0. -1.
        -13    1    3    3    0    0 -0.11575611530E+03 -0.65745018887E+02 -0.17426366329E+02  0.13425931618E+03  0.00000000000E+00 0.  1.
          4    1    5    5  502    0  0.70204068641E+02  0.17227750798E+03 -0.10326279590E+03  0.21277066533E+03  0.00000000000E+00 0. -1.
          3    1    6    6  503    0  0.78414929076E+02 -0.12750742224E+03 -0.33584127603E+03  0.36769063968E+03  0.00000000000E+00 0. -1.
         -4    1    5    5    0  502  0.36058919281E+02  0.37491501577E+03 -0.13318500310E+03  0.39949938643E+03  0.00000000000E+00 0.  1.
         -3    1    6    6    0  503  0.16220093053E+03 -0.10559555135E+03 -0.30411763818E+03  0.36048176123E+03  0.00000000000E+00 0.  1.
<mgrwt>
<rscale>  0 0.15215278E+04</rscale>
<asrwt>0</asrwt>
<pdfrwt beam="1">  1        1 0.22258899E+00 0.15215278E+04</pdfrwt>
<pdfrwt beam="2">  1       -1 0.61541691E-01 0.15215278E+04</pdfrwt>
<totfact> 0.18420960E+01</totfact>
</mgrwt>
</event>
<event>
12    1  0.4967442E-008  0.1408034E+04  0.7818608E-02  0.8948024E-01
         -2   -1    0    0    0  501 -0.00000000000E+00  0.00000000000E+00  0.28824840769E+03  0.28824840769E+03  0.00000000000E+00 0.  1.
          2   -1    0    0  501    0  0.00000000000E+00 -0.00000000000E+00 -0.17194879195E+04  0.17194879195E+04  0.00000000000E+00 0. -1.
         23    2    1    2    0    0 -0.95072707691E+02  0.28390053438E+03 -0.23445025334E+02  0.31423347297E+03  0.92491476098E+02 0.  0.
        254    2    1    2    0    0  0.95072707691E+02 -0.28390053438E+03 -0.14077944865E+04  0.16935028542E+04  0.89242829850E+03 0.  0.
         23    2    4    4    0    0  0.80895402427E+02  0.30084789156E+03 -0.32556992581E+03  0.45987235472E+03  0.91832924636E+02 0.  0.
         23    2    4    4    0    0  0.14177305264E+02 -0.58474842594E+03 -0.10822245607E+04  0.12336304995E+04  0.92208958317E+02 0.  0.
         13    1    3    3    0    0 -0.75459881780E+02  0.10239756864E+03 -0.33047903865E+02  0.13142153466E+03  0.00000000000E+00 0.  1.
        -13    1    3    3    0    0 -0.19612825911E+02  0.18150296574E+03  0.96028785313E+01  0.18281193831E+03  0.00000000000E+00 0. -1.
          4    1    5    5  502    0  0.61123968465E+02  0.19301539121E+03 -0.26849602953E+03  0.33627548028E+03  0.00000000000E+00 0. -1.
          3    1    6    6  503    0 -0.14132989642E+01 -0.39851933692E+03 -0.64563375145E+03  0.75872432433E+03  0.00000000000E+00 0. -1.
         -4    1    5    5    0  502  0.19771433962E+02  0.10783250036E+03 -0.57073896284E+02  0.12359687444E+03  0.00000000000E+00 0.  1.
         -3    1    6    6    0  503  0.15590604228E+02 -0.18622908902E+03 -0.43659080922E+03  0.47490617519E+03  0.00000000000E+00 0.  1.
<mgrwt>
<rscale>  0 0.14080336E+04</rscale>
<asrwt>0</asrwt>
<pdfrwt beam="1">  1        2 0.26453661E+00 0.14080336E+04</pdfrwt>
<pdfrwt beam="2">  1       -2 0.44345908E-01 0.14080336E+04</pdfrwt>
<totfact> 0.44864396E+01</totfact>
</mgrwt>
</event>
<event>
12    1  0.4967442E-008  0.1877745E+04  0.7818608E-02  0.8666014E-01
          2   -1    0    0  501    0  0.00000000000E+00  0.00000000000E+00  0.37383992499E+03  0.37383992499E+03  0.00000000000E+00 0. -1.
         -2   -1    0    0    0  501 -0.00000000000E+00 -0.00000000000E+00 -0.23579105846E+04  0.23579105846E+04  0.00000000000E+00 0.  1.
         23    2    1    2    0    0 -0.44623489315E+03 -0.55862961520E+03 -0.89124302891E+03  0.11462781685E+04  0.91906888328E+02 0.  0.
        254    2    1    2    0    0  0.44623489315E+03  0.55862961520E+03 -0.10928276307E+04  0.15854723411E+04  0.89903152730E+03 0.  0.
         23    2    4    4    0    0  0.38948199779E+03  0.77246444002E+02 -0.23598613690E+02  0.40793192841E+03  0.90489358144E+02 0.  0.
         23    2    4    4    0    0  0.56752895360E+02  0.48138317120E+03 -0.10692290170E+04  0.11775404126E+04  0.91651972364E+02 0.  0.
         13    1    3    3    0    0 -0.36780225696E+03 -0.40076932235E+03 -0.69328136429E+03  0.88121143889E+03  0.00000000000E+00 0.  1.
        -13    1    3    3    0    0 -0.78432636193E+02 -0.15786029285E+03 -0.19796166462E+03  0.26506672959E+03  0.00000000000E+00 0. -1.
          2    1    5    5  502    0  0.21183107677E+03  0.38901328673E+02  0.32312690538E+02  0.21778390305E+03  0.00000000000E+00 0. -1.
          1    1    6    6  503    0  0.37453547338E+02  0.46815699565E+03 -0.10098946935E+04  0.11137598631E+04  0.00000000000E+00 0. -1.
         -2    1    5    5    0  502  0.17765092102E+03  0.38345115328E+02 -0.55911304229E+02  0.19014802536E+03  0.00000000000E+00 0.  1.
         -1    1    6    6    0  503  0.19299348022E+02  0.13226175557E+02 -0.59334323463E+02  0.63780549502E+02  0.00000000000E+00 0.  1.
<mgrwt>
<rscale>  0 0.18777445E+04</rscale>
<asrwt>0</asrwt>
<pdfrwt beam="1">  1        2 0.57513836E-01 0.18777445E+04</pdfrwt>
<pdfrwt beam="2">  1       -2 0.36275546E+00 0.18777445E+04</pdfrwt>
<totfact> 0.10435146E+00</totfact>
</mgrwt>
</event>
<event>
12    1  0.4967442E-008  0.1576898E+04  0.7818608E-02  0.8834867E-01
          2   -1    0    0  501    0  0.00000000000E+00  0.00000000000E+00  0.11738717560E+04  0.11738717560E+04  0.00000000000E+00 0. -1.
         -2   -1    0    0    0  501 -0.00000000000E+00 -0.00000000000E+00 -0.52957420259E+03  0.52957420259E+03  0.00000000000E+00 0.  1.
         23    2    1    2    0    0  0.15474665481E+03  0.12891798669E+02  0.75843833808E+03  0.77962620291E+03  0.92062902064E+02 0.  0.
        254    2    1    2    0    0 -0.15474665481E+03 -0.12891798669E+02 -0.11414078470E+03  0.92381975566E+03  0.90349438104E+03 0.  0.
         23    2    4    4    0    0  0.37069699961E+03  0.85801227516E+01 -0.68164366154E+02  0.38787853700E+03  0.91178367068E+02 0.  0.
         23    2    4    4    0    0 -0.52544365442E+03 -0.21471921421E+02 -0.45976418542E+02  0.53594121867E+03  0.92558529749E+02 0.  0.
         13    1    3    3    0    0  0.26840109258E+02 -0.97032199118E+01  0.34702286159E+03  0.34819450083E+03  0.00000000000E+00 0. -1.
        -13    1    3    3    0    0  0.12790654555E+03  0.22595018581E+02  0.41141547650E+03  0.43143170208E+03  0.00000000000E+00 0.  1.
          4    1    5    5  502    0  0.35388564545E+03  0.24571892785E+02 -0.77091637199E+02  0.36301783496E+03  0.00000000000E+00 0. -1.
          1    1    6    6  503    0 -0.39085138392E+03 -0.56437050526E+02 -0.33627536444E+02  0.39633414715E+03  0.00000000000E+00 0. -1.
         -4    1    5    5    0  502  0.16811354162E+02 -0.15991770034E+02  0.89272710449E+01  0.24860702039E+02  0.00000000000E+00 0.  1.
         -1    1    6    6    0  503 -0.13459227049E+03  0.34965129105E+02 -0.12348882098E+02  0.13960707152E+03  0.00000000000E+00 0.  1.
<mgrwt>
<rscale>  0 0.15768985E+04</rscale>
<asrwt>0</asrwt>
<pdfrwt beam="1">  1        2 0.18059565E+00 0.15768985E+04</pdfrwt>
<pdfrwt beam="2">  1       -2 0.81472954E-01 0.15768985E+04</pdfrwt>
<totfact> 0.25028971E+01</totfact>
</mgrwt>
</event>
<event>
12    1  0.4967442E-008  0.1524172E+04  0.7818608E-02  0.8868536E-01
          2   -1    0    0  501    0  0.00000000000E+00  0.00000000000E+00  0.47320381111E+03  0.47320381111E+03  0.00000000000E+00 0. -1.
         -2   -1    0    0    0  501 -0.00000000000E+00 -0.00000000000E+00 -0.12273261973E+04  0.12273261973E+04  0.00000000000E+00 0.  1.
         23    2    1    2    0    0  0.30350084377E+03 -0.30122243230E+03  0.17294768194E+02  0.43764696486E+03  0.91586248710E+02 0.  0.
        254    2    1    2    0    0 -0.30350084377E+03  0.30122243230E+03 -0.77141715437E+03  0.12628830435E+04  0.90384812869E+03 0.  0.
         23    2    4    4    0    0 -0.31785444183E+03  0.34631360518E+03 -0.94665263051E+03  0.10604602281E+04  0.86372062699E+02 0.  0.
         23    2    4    4    0    0  0.14353598060E+02 -0.45091172889E+02  0.17523547614E+03  0.20242281544E+03  0.89600694538E+02 0.  0.
         13    1    3    3    0    0  0.63501643943E+02 -0.81595838982E+02 -0.32837409138E+02  0.10848334048E+03  0.00000000000E+00 0.  1.
        -13    1    3    3    0    0  0.23999919983E+03 -0.21962659331E+03  0.50132177332E+02  0.32916362438E+03  0.00000000000E+00 0. -1.
          2    1    5    5  502    0 -0.12005366142E+03  0.92360454137E+02 -0.23781160638E+03  0.28195335649E+03  0.00000000000E+00 0. -1.
          3    1    6    6  503    0  0.50395067301E+02 -0.37225008466E+02  0.12779997150E+03  0.14233129234E+03  0.00000000000E+00 0. -1.
         -2    1    5    5    0  502 -0.19780078041E+03  0.25395315105E+03 -0.70884102413E+03  0.77850687162E+03  0.00000000000E+00 0.  1.
         -3    1    6    6    0  503 -0.36041469241E+02 -0.78661644229E+01  0.47435504644E+02  0.60091523101E+02  0.00000000000E+00 0.  1.
<mgrwt>
<rscale>  0 0.15241725E+04</rscale>
<asrwt>0</asrwt>
<pdfrwt beam="1">  1        2 0.72800587E-01 0.15241725E+04</pdfrwt>
<pdfrwt beam="2">  1       -2 0.18881941E+00 0.15241725E+04</pdfrwt>
<totfact> 0.99828240E+00</totfact>
</mgrwt>
</event>
<event>
12    1  0.4967442E-008  0.1319873E+04  0.7818608E-02  0.9013952E-01
          2   -1    0    0  501    0  0.00000000000E+00  0.00000000000E+00  0.21756243418E+04  0.21756243418E+04  0.00000000000E+00 0. -1.
         -2   -1    0    0    0  501 -0.00000000000E+00 -0.00000000000E+00 -0.20017996050E+03  0.20017996050E+03  0.00000000000E+00 0.  1.
         23    2    1    2    0    0  0.33887832645E+03 -0.10935916195E+03  0.51078760514E+03  0.62954091926E+03  0.92843120447E+02 0.  0.
        254    2    1    2    0    0 -0.33887832645E+03  0.10935916195E+03  0.14646567762E+04  0.17462633831E+04  0.88171332335E+03 0.  0.
         23    2    4    4    0    0 -0.36447239484E+03 -0.19995315792E+03  0.25920384030E+03  0.49817334281E+03  0.90380621246E+02 0.  0.
         23    2    4    4    0    0  0.25594068388E+02  0.30931231987E+03  0.12054529359E+04  0.12480900402E+04  0.91009891745E+02 0.  0.
         13    1    3    3    0    0  0.31890148254E+03 -0.11183719665E+03  0.50660963987E+03  0.60898197127E+03  0.00000000000E+00 0. -1.
        -13    1    3    3    0    0  0.19976843915E+02  0.24780346997E+01  0.41779652723E+01  0.20558947993E+02  0.00000000000E+00 0.  1.
          2    1    5    5  502    0 -0.40858577833E+02 -0.11771505008E+02 -0.56127161767E+00  0.42524190039E+02  0.00000000000E+00 0. -1.
          3    1    6    6  503    0 -0.30837349240E+02  0.15101520342E+03  0.63166704674E+03  0.65019980906E+03  0.00000000000E+00 0. -1.
         -2    1    5    5    0  502 -0.32361381701E+03 -0.18818165291E+03  0.25976511191E+03  0.45564915277E+03  0.00000000000E+00 0.  1.
         -3    1    6    6    0  503  0.56431417628E+02  0.15829711645E+03  0.57378588914E+03  0.59789023119E+03  0.00000000000E+00 0.  1.
<mgrwt>
<rscale>  0 0.13198733E+04</rscale>
<asrwt>0</asrwt>
<pdfrwt beam="1">  1        2 0.33471142E+00 0.13198733E+04</pdfrwt>
<pdfrwt beam="2">  1       -2 0.30796919E-01 0.13198733E+04</pdfrwt>
<totfact> 0.51024553E+01</totfact>
</mgrwt>
</event>
<event>
12    1  0.4967442E-008  0.1809660E+04  0.7818608E-02  0.8701179E-01
          2   -1    0    0  501    0  0.00000000000E+00  0.00000000000E+00  0.17691940646E+04  0.17691940646E+04  0.00000000000E+00 0. -1.
         -2   -1    0    0    0  501 -0.00000000000E+00 -0.00000000000E+00 -0.46276265474E+03  0.46276265474E+03  0.00000000000E+00 0.  1.
         23    2    1    2    0    0 -0.21334306422E+03 -0.45994032038E+03 -0.67742376152E+02  0.51919965744E+03  0.88988164367E+02 0.  0.
        254    2    1    2    0    0  0.21334306422E+03  0.45994032038E+03  0.13741737860E+04  0.17127570619E+04  0.88776280480E+03 0.  0.
         23    2    4    4    0    0 -0.12947881338E+03 -0.15169697191E+03  0.72391165407E+02  0.23123268485E+03  0.91931166173E+02 0.  0.
         23    2    4    4    0    0  0.34282187760E+03  0.61163729228E+03  0.13017826206E+04  0.14815243771E+04  0.93002534502E+02 0.  0.
         11    1    3    3    0    0 -0.19915881251E+03 -0.36052254560E+03 -0.74458316064E+02  0.41855080853E+03  0.00000000000E+00 0.  1.
        -11    1    3    3    0    0 -0.14184251707E+02 -0.99417774778E+02  0.67159399129E+01  0.10064884891E+03  0.00000000000E+00 0. -1.
          2    1    5    5  502    0 -0.11686001413E+03 -0.13055729859E+03  0.23888331456E+02  0.17683925893E+03  0.00000000000E+00 0. -1.
          3    1    6    6  503    0  0.33984290637E+03  0.58694395660E+03  0.12794445142E+04  0.14480934618E+04  0.00000000000E+00 0. -1.
         -2    1    5    5    0  502 -0.12618799249E+02 -0.21139673316E+02  0.48502833951E+02  0.54393425924E+02  0.00000000000E+00 0.  1.
         -3    1    6    6    0  503  0.29789712249E+01  0.24693335684E+02  0.22338106408E+02  0.33430915253E+02  0.00000000000E+00 0.  1.
<mgrwt>
<rscale>  0 0.18096596E+04</rscale>
<asrwt>0</asrwt>
<pdfrwt beam="1">  1        2 0.27218370E+00 0.18096596E+04</pdfrwt>
<pdfrwt beam="2">  1       -2 0.71194255E-01 0.18096596E+04</pdfrwt>
<totfact> 0.15165178E+01</totfact>
</mgrwt>
</event>
<event>
12    1  0.4967442E-008  0.3618646E+04  0.7818608E-02  0.8086234E-01
         -2   -1    0    0    0  501 -0.00000000000E+00  0.00000000000E+00  0.11952350461E+04  0.11952350461E+04  0.00000000000E+00 0.  1.
          2   -1    0    0  501    0  0.00000000000E+00 -0.00000000000E+00 -0.27389175757E+04  0.27389175757E+04  0.00000000000E+00 0. -1.
         23    2    1    2    0    0 -0.14726991088E+04 -0.70505393263E+03 -0.27557769368E+03  0.16588441725E+04  0.99384155429E+02 0.  0.
        254    2    1    2    0    0  0.14726991088E+04  0.70505393263E+03 -0.12681048359E+04  0.22753084494E+04  0.95026046527E+03 0.  0.
         23    2    4    4    0    0  0.52296199051E+03 -0.20084544710E+03 -0.46634751356E+03  0.73442283930E+03  0.89826312094E+02 0.  0.
         23    2    4    4    0    0  0.94973711832E+03  0.90589937972E+03 -0.80175732236E+03  0.15408856101E+04  0.94124275730E+02 0.  0.
         13    1    3    3    0    0 -0.82884333589E+02 -0.64758126280E+02 -0.88450604328E+01  0.10555407509E+03  0.00000000000E+00 0. -1.
        -13    1    3    3    0    0 -0.13898147752E+04 -0.64029580635E+03 -0.26673263325E+03  0.15532900974E+04  0.00000000000E+00 0.  1.
          2    1    6    6  502    0  0.87306904615E+03  0.84702803994E+03 -0.71503142082E+03  0.14110194869E+04  0.00000000000E+00 0. -1.
          2    1    5    5  503    0  0.18688086495E+02 -0.28813960908E+02 -0.23668646744E+02  0.41709636282E+02  0.00000000000E+00 0.  1.
         -2    1    5    5    0  503  0.50427390401E+03 -0.17203148619E+03 -0.44267886682E+03  0.69271320302E+03  0.00000000000E+00 0. -1.
         -2    1    6    6    0  502  0.76668072177E+02  0.58871339783E+02 -0.86725901537E+02  0.12986612313E+03  0.00000000000E+00 0.  1.
<mgrwt>
<rscale>  0 0.36186463E+04</rscale>
<asrwt>0</asrwt>
<pdfrwt beam="1">  1        2 0.42137193E+00 0.36186463E+04</pdfrwt>
<pdfrwt beam="2">  1       -2 0.18388232E+00 0.36186463E+04</pdfrwt>
<totfact> 0.34916432E-01</totfact>
</mgrwt>
</event>
<event>
12    1  0.4967442E-008  0.1671252E+04  0.7818608E-02  0.8777933E-01
          1   -1    0    0  501    0  0.00000000000E+00  0.00000000000E+00  0.59541233966E+03  0.59541233966E+03  0.00000000000E+00 0.  1.
         -1   -1    0    0    0  501 -0.00000000000E+00 -0.00000000000E+00 -0.11727511827E+04  0.11727511827E+04  0.00000000000E+00 0. -1.
         23    2    1    2    0    0 -0.11505189000E+03  0.12452323420E+03 -0.79807157752E+03  0.82118947530E+03  0.93225201759E+02 0.  0.
        254    2    1    2    0    0  0.11505189000E+03 -0.12452323420E+03  0.22073273446E+03  0.94697404708E+03  0.90514856932E+03 0.  0.
         23    2    4    4    0    0  0.43205015780E+03 -0.26842843002E+03 -0.14170916219E+02  0.51690825823E+03  0.90951479740E+02 0.  0.
         23    2    4    4    0    0 -0.31699826779E+03  0.14390519581E+03  0.23490365068E+03  0.43006578885E+03  0.92629641429E+02 0.  0.
         11    1    3    3    0    0 -0.70569234707E+01  0.40429671924E+02 -0.35744282490E+03  0.35979123338E+03  0.00000000000E+00 0. -1.
        -11    1    3    3    0    0 -0.10799496653E+03  0.84093562279E+02 -0.44062875262E+03  0.46139824192E+03  0.00000000000E+00 0.  1.
          2    1    5    5  502    0  0.10963347324E+01 -0.13916226145E+02  0.76829469462E+01  0.15933956625E+02  0.00000000000E+00 0. -1.
          3    1    6    6  503    0  0.10609296100E+01  0.88263433344E+01 -0.42213129256E+01  0.98412088237E+01  0.00000000000E+00 0. -1.
         -2    1    5    5    0  502  0.43095382306E+03 -0.25451220387E+03 -0.21853863165E+02  0.50097430160E+03  0.00000000000E+00 0.  1.
         -3    1    6    6    0  503 -0.31805919740E+03  0.13507885248E+03  0.23912496361E+03  0.42022458003E+03  0.00000000000E+00 0.  1.
<mgrwt>
<rscale>  0 0.16712517E+04</rscale>
<asrwt>0</asrwt>
<pdfrwt beam="1">  1        1 0.91601899E-01 0.16712517E+04</pdfrwt>
<pdfrwt beam="2">  1       -1 0.18042326E+00 0.16712517E+04</pdfrwt>
<totfact> 0.68259250E+00</totfact>
</mgrwt>
</event>
<event>
12    1  0.4967442E-008  0.2700496E+04  0.7818608E-02  0.8334844E-01
         -2   -1    0    0    0  501 -0.00000000000E+00  0.00000000000E+00  0.11300897089E+04  0.11300897089E+04  0.00000000000E+00 0.  1.
          2   -1    0    0  501    0  0.00000000000E+00 -0.00000000000E+00 -0.16132968843E+04  0.16132968843E+04  0.00000000000E+00 0. -1.
         23    2    1    2    0    0 -0.39662697209E+03 -0.10092362416E+04 -0.74029831367E+03  0.13161632842E+04  0.91506562726E+02 0.  0.
        254    2    1    2    0    0  0.39662697209E+03  0.10092362416E+04  0.25709113819E+03  0.14272233090E+04  0.89162759825E+03 0.  0.
         23    2    4    4    0    0  0.36561912639E+03  0.10222066575E+04 -0.64473772793E+02  0.10914893516E+04  0.92781146696E+02 0.  0.
         23    2    4    4    0    0  0.31007845707E+02 -0.12970415849E+02  0.32156491098E+03  0.33573395734E+03  0.90463141425E+02 0.  0.
         13    1    3    3    0    0 -0.31020219239E+03 -0.75675904700E+03 -0.60245234713E+03  0.10158043542E+04  0.00000000000E+00 0. -1.
        -13    1    3    3    0    0 -0.86424779704E+02 -0.25247719464E+03 -0.13784596654E+03  0.30035893003E+03  0.00000000000E+00 0.  1.
          2    1    5    5  502    0  0.96671830478E+02  0.40373534083E+03 -0.27601705902E+02  0.41606432485E+03  0.00000000000E+00 0.  1.
          3    1    6    6  503    0  0.48526591385E+02 -0.38088224779E+02  0.25662701582E+03  0.26393743233E+03  0.00000000000E+00 0. -1.
         -2    1    5    5    0  502  0.26894729591E+03  0.61847131667E+03 -0.36872066891E+02  0.67542502680E+03  0.00000000000E+00 0. -1.
         -3    1    6    6    0  503 -0.17518745678E+02  0.25117808929E+02  0.64937895163E+02  0.71796525012E+02  0.00000000000E+00 0.  1.
<mgrwt>
<rscale>  0 0.27004964E+04</rscale>
<asrwt>0</asrwt>
<pdfrwt beam="1">  1        2 0.24819952E+00 0.27004964E+04</pdfrwt>
<pdfrwt beam="2">  1       -2 0.17385996E+00 0.27004964E+04</pdfrwt>
<totfact> 0.19250721E+00</totfact>
</mgrwt>
</event>
<event>
12    1  0.4967442E-008  0.1519988E+04  0.7818608E-02  0.8871269E-01
          2   -1    0    0  501    0  0.00000000000E+00  0.00000000000E+00  0.68240977853E+03  0.68240977853E+03  0.00000000000E+00 0. -1.
         -2   -1    0    0    0  501 -0.00000000000E+00 -0.00000000000E+00 -0.84639902476E+03  0.84639902476E+03  0.00000000000E+00 0.  1.
         23    2    1    2    0    0  0.39347052273E+03 -0.10099347519E+03 -0.32290649375E+03  0.52687634055E+03  0.91166552199E+02 0.  0.
        254    2    1    2    0    0 -0.39347052273E+03  0.10099347519E+03  0.15891724752E+03  0.10019324627E+04  0.90199514081E+03 0.  0.
         23    2    4    4    0    0  0.28028716040E+02  0.34938722118E+03  0.31574024496E+03  0.48105868971E+03  0.94172827324E+02 0.  0.
         23    2    4    4    0    0 -0.42149923877E+03 -0.24839374599E+03 -0.15682299745E+03  0.52087377303E+03  0.85761142555E+02 0.  0.
         13    1    3    3    0    0  0.15876728605E+03 -0.75513913554E+02 -0.17628043030E+03  0.24896624744E+03  0.00000000000E+00 0.  1.
        -13    1    3    3    0    0  0.23470323667E+03 -0.25479561637E+02 -0.14662606345E+03  0.27791009311E+03  0.00000000000E+00 0. -1.
          1    1    5    5  502    0 -0.14797111744E+02  0.23035048296E+03  0.16219999367E+03  0.28211546831E+03  0.00000000000E+00 0. -1.
          1    1    6    6  503    0 -0.34335285683E+03 -0.23821676971E+03 -0.13237677736E+03  0.43836289173E+03  0.00000000000E+00 0. -1.
         -1    1    5    5    0  502  0.42825827784E+02  0.11903673823E+03  0.15354025129E+03  0.19894322139E+03  0.00000000000E+00 0.  1.
         -1    1    6    6    0  503 -0.78146381931E+02 -0.10176976285E+02 -0.24446220089E+02  0.82510881294E+02  0.00000000000E+00 0.  1.
<mgrwt>
<rscale>  0 0.15199881E+04</rscale>
<asrwt>0</asrwt>
<pdfrwt beam="1">  1        2 0.10498612E+00 0.15199881E+04</pdfrwt>
<pdfrwt beam="2">  1       -2 0.13021523E+00 0.15199881E+04</pdfrwt>
<totfact> 0.17648532E+01</totfact>
</mgrwt>
</event>
<event>
12    1  0.4967442E-008  0.2669499E+04  0.7818608E-02  0.8344970E-01
          2   -1    0    0  501    0  0.00000000000E+00  0.00000000000E+00  0.43398296030E+04  0.43398296030E+04  0.00000000000E+00 0.  1.
         -2   -1    0    0    0  501 -0.00000000000E+00 -0.00000000000E+00 -0.41051292968E+03  0.41051292968E+03  0.00000000000E+00 0. -1.
         23    2    1    2    0    0 -0.24885845046E+02 -0.11837611452E+04  0.15919412689E+04  0.19861791517E+04  0.93385571006E+02 0.  0.
        254    2    1    2    0    0  0.24885845046E+02  0.11837611452E+04  0.23373754044E+04  0.27641633810E+04  0.88054850041E+03 0.  0.
         23    2    4    4    0    0 -0.47197268834E+02  0.11299368817E+04  0.23728187355E+04  0.26301222288E+04  0.91045306043E+02 0.  0.
         23    2    4    4    0    0  0.72083113880E+02  0.53824263412E+02 -0.35443331112E+02  0.13404115221E+03  0.92831967160E+02 0.  0.
         13    1    3    3    0    0  0.13157313367E+01 -0.10121215034E+03  0.18366579688E+03  0.20971112386E+03  0.00000000000E+00 0.  1.
        -13    1    3    3    0    0 -0.26201576383E+02 -0.10825489948E+04  0.14082754720E+04  0.17764680278E+04  0.00000000000E+00 0. -1.
          4    1    5    5  502    0 -0.77819203229E+01  0.83225211005E+03  0.18108357647E+04  0.19929451321E+04  0.00000000000E+00 0. -1.
          3    1    6    6  503    0 -0.58033505027E+01  0.44442869965E+02  0.61621369717E+01  0.45241789309E+02  0.00000000000E+00 0. -1.
         -4    1    5    5    0  502 -0.39415348511E+02  0.29768477170E+03  0.56198297082E+03  0.63717709665E+03  0.00000000000E+00 0.  1.
         -3    1    6    6    0  503  0.77886464383E+02  0.93813934467E+01 -0.41605468084E+02  0.88799362900E+02  0.00000000000E+00 0.  1.
<mgrwt>
<rscale>  0 0.26694990E+04</rscale>
<asrwt>0</asrwt>
<pdfrwt beam="1">  1        2 0.66766606E+00 0.26694990E+04</pdfrwt>
<pdfrwt beam="2">  1       -2 0.63155838E-01 0.26694990E+04</pdfrwt>
<totfact> 0.35738995E-01</totfact>
</mgrwt>
</event>
<event>
12    1  0.4967442E-008  0.3104980E+04  0.7818608E-02  0.8214373E-01
         -2   -1    0    0    0  501 -0.00000000000E+00  0.00000000000E+00  0.10613492066E+04  0.10613492066E+04  0.00000000000E+00 0.  1.
          2   -1    0    0  501    0  0.00000000000E+00 -0.00000000000E+00 -0.22709067486E+04  0.22709067486E+04  0.00000000000E+00 0. -1.
         23    2    1    2    0    0 -0.73189842533E+02  0.41858039157E+03  0.90178781792E+03  0.10015296298E+04  0.96301783353E+02 0.  0.
        254    2    1    2    0    0  0.73189842533E+02 -0.41858039157E+03 -0.21113453600E+04  0.23307263254E+04  0.89103292734E+03 0.  0.
         23    2    4    4    0    0  0.31592474877E+03  0.54078755010E+02 -0.32743764110E+03  0.46710195854E+03  0.90751706506E+02 0.  0.
         23    2    4    4    0    0 -0.24273490624E+03 -0.47265914658E+03 -0.17839077189E+04  0.18636243669E+04  0.91881052246E+02 0.  0.
         13    1    3    3    0    0  0.32246215401E+01  0.10676941372E+03  0.31560724703E+03  0.33319369782E+03  0.00000000000E+00 0. -1.
        -13    1    3    3    0    0 -0.76414464073E+02  0.31181097786E+03  0.58618057089E+03  0.66833593194E+03  0.00000000000E+00 0.  1.
          4    1    5    5  502    0  0.49162659274E+02 -0.22676028937E+02 -0.70196703306E+02  0.88649571404E+02  0.00000000000E+00 0. -1.
          3    1    6    6  503    0 -0.11473125074E+03 -0.16993475633E+03 -0.81893840495E+03  0.84421631850E+03  0.00000000000E+00 0. -1.
         -4    1    5    5    0  502  0.26676208950E+03  0.76754783947E+02 -0.25724093779E+03  0.37845238713E+03  0.00000000000E+00 0.  1.
         -3    1    6    6    0  503 -0.12800365549E+03 -0.30272439025E+03 -0.96496931395E+03  0.10194080484E+04  0.00000000000E+00 0.  1.
<mgrwt>
<rscale>  0 0.31049799E+04</rscale>
<asrwt>0</asrwt>
<pdfrwt beam="1">  1        2 0.34937026E+00 0.31049799E+04</pdfrwt>
<pdfrwt beam="2">  1       -2 0.16328450E+00 0.31049799E+04</pdfrwt>
<totfact> 0.95220156E-01</totfact>
</mgrwt>
</event>
<event>
12    1  0.4967442E-008  0.1538212E+04  0.7818608E-02  0.8859433E-01
         -1   -1    0    0    0  501 -0.00000000000E+00  0.00000000000E+00  0.14252040681E+04  0.14252040681E+04  0.00000000000E+00 0.  1.
          1   -1    0    0  501    0  0.00000000000E+00 -0.00000000000E+00 -0.41504489873E+03  0.41504489873E+03  0.00000000000E+00 0. -1.
         23    2    1    2    0    0  0.64291521933E+01  0.26035073477E+03  0.84195050640E+03  0.88622222521E+03  0.93195161515E+02 0.  0.
        254    2    1    2    0    0 -0.64291521933E+01 -0.26035073477E+03  0.16820866299E+03  0.95402674165E+03  0.90224665717E+03 0.  0.
         23    2    4    4    0    0 -0.30343339647E+02  0.15852730072E+03 -0.27916659173E+03  0.33401230226E+03  0.87055205432E+02 0.  0.
         23    2    4    4    0    0  0.23914187454E+02 -0.41887803549E+03  0.44737525472E+03  0.62001443939E+03  0.90788708201E+02 0.  0.
         11    1    3    3    0    0 -0.71250666559E+01  0.19478138802E+03  0.73185547519E+03  0.75736582459E+03  0.00000000000E+00 0.  1.
        -11    1    3    3    0    0  0.13554218849E+02  0.65569346759E+02  0.11009503121E+03  0.12885640062E+03  0.00000000000E+00 0. -1.
          4    1    5    5  502    0 -0.56989230939E+00  0.15207201474E+03 -0.24371898369E+03  0.28727193642E+03  0.00000000000E+00 0. -1.
          1    1    6    6  503    0  0.86178441041E+01 -0.39361833069E+03  0.38338747269E+03  0.54954127389E+03  0.00000000000E+00 0. -1.
         -4    1    5    5    0  502 -0.29773447337E+02  0.64552859768E+01 -0.35447608033E+02  0.46740365838E+02  0.00000000000E+00 0.  1.
         -1    1    6    6    0  503  0.15296343349E+02 -0.25259704803E+02  0.63987782032E+02  0.70473165502E+02  0.00000000000E+00 0.  1.
<mgrwt>
<rscale>  0 0.15382115E+04</rscale>
<asrwt>0</asrwt>
<pdfrwt beam="1">  1        1 0.63853062E-01 0.15382115E+04</pdfrwt>
<pdfrwt beam="2">  1       -1 0.21926216E+00 0.15382115E+04</pdfrwt>
<totfact> 0.61296587E+00</totfact>
</mgrwt>
</event>
<event>
12    1  0.4967442E-008  0.2399722E+04  0.7818608E-02  0.8439608E-01
          1   -1    0    0  501    0  0.00000000000E+00  0.00000000000E+00  0.10867537315E+04  0.10867537315E+04  0.00000000000E+00 0. -1.
         -1   -1    0    0    0  501 -0.00000000000E+00 -0.00000000000E+00 -0.13247399221E+04  0.13247399221E+04  0.00000000000E+00 0.  1.
         23    2    1    2    0    0 -0.84925365614E+03  0.56907592109E+03 -0.21914635796E+03  0.10495722892E+04  0.92182902590E+02 0.  0.
        254    2    1    2    0    0  0.84925365614E+03 -0.56907592109E+03 -0.18839832685E+02  0.13619213644E+04  0.89966420797E+03 0.  0.
         23    2    4    4    0    0  0.38314098395E+03 -0.68653452139E+03 -0.23593113275E+03  0.82615875910E+03  0.93531455653E+02 0.  0.
         23    2    4    4    0    0  0.46611267219E+03  0.11745860029E+03  0.21709130006E+03  0.53576260531E+03  0.94103085633E+02 0.  0.
         13    1    3    3    0    0 -0.32930385355E+03  0.21292289858E+03 -0.38887004677E+02  0.39406774524E+03  0.00000000000E+00 0.  1.
        -13    1    3    3    0    0 -0.51994980259E+03  0.35615302251E+03 -0.18025935329E+03  0.65550454392E+03  0.00000000000E+00 0. -1.
          1    1    6    6  502    0  0.21740522249E+03  0.66816519863E+01  0.99754440788E+02  0.23929192150E+03  0.00000000000E+00 0. -1.
          1    1    5    5  503    0  0.17633472478E+03 -0.31630203415E+03 -0.15744917485E+03  0.39488119053E+03  0.00000000000E+00 0. -1.
         -1    1    5    5    0  503  0.20680625917E+03 -0.37023248724E+03 -0.78481957898E+02  0.43127756857E+03  0.00000000000E+00 0.  1.
         -1    1    6    6    0  502  0.24870744970E+03  0.11077694831E+03  0.11733685927E+03  0.29647068380E+03  0.00000000000E+00 0.  1.
<mgrwt>
<rscale>  0 0.23997217E+04</rscale>
<asrwt>0</asrwt>
<pdfrwt beam="1">  1        1 0.16719288E+00 0.23997217E+04</pdfrwt>
<pdfrwt beam="2">  1       -1 0.20380614E+00 0.23997217E+04</pdfrwt>
<totfact> 0.16474820E+00</totfact>
</mgrwt>
</event>
<event>
12    1  0.4967442E-008  0.2530271E+04  0.7818608E-02  0.8392280E-01
          1   -1    0    0  501    0  0.00000000000E+00  0.00000000000E+00  0.17708278395E+04  0.17708278395E+04  0.00000000000E+00 0. -1.
         -1   -1    0    0    0  501 -0.00000000000E+00 -0.00000000000E+00 -0.90385321517E+03  0.90385321517E+03  0.00000000000E+00 0.  1.
         23    2    1    2    0    0  0.93112326211E+03  0.29037996632E+03  0.92410522903E+03  0.13470281199E+04  0.95933453023E+02 0.  0.
        254    2    1    2    0    0 -0.93112326211E+03 -0.29037996632E+03 -0.57130604682E+02  0.13276529348E+04  0.89893679153E+03 0.  0.
         23    2    4    4    0    0  0.58586976215E+02  0.10163760245E+03 -0.20197633763E+03  0.24907100817E+03  0.86482889257E+02 0.  0.
         23    2    4    4    0    0 -0.98971023833E+03 -0.39201756877E+03  0.14484573294E+03  0.10785819266E+04  0.95679443999E+02 0.  0.
         11    1    3    3    0    0  0.29095690213E+03  0.13707328828E+03  0.29185890968E+03  0.43431167197E+03  0.00000000000E+00 0.  1.
        -11    1    3    3    0    0  0.64016635999E+03  0.15330667804E+03  0.63224631935E+03  0.91271644793E+03  0.00000000000E+00 0. -1.
          2    1    5    5  502    0  0.66802867568E+02  0.83695810670E+02 -0.20278206448E+03  0.22932112313E+03  0.00000000000E+00 0. -1.
          3    1    6    6  503    0 -0.95200795142E+03 -0.35529696079E+03  0.13960125719E+03  0.10256917573E+04  0.00000000000E+00 0. -1.
         -2    1    5    5    0  502 -0.82158913528E+01  0.17941791782E+02  0.80572685751E+00  0.19749885033E+02  0.00000000000E+00 0.  1.
         -3    1    6    6    0  503 -0.37702286908E+02 -0.36720607977E+02  0.52444757558E+01  0.52890169354E+02  0.00000000000E+00 0.  1.
<mgrwt>
<rscale>  0 0.25302715E+04</rscale>
<asrwt>0</asrwt>
<pdfrwt beam="1">  1        1 0.27243505E+00 0.25302715E+04</pdfrwt>
<pdfrwt beam="2">  1       -1 0.13905434E+00 0.25302715E+04</pdfrwt>
<totfact> 0.16121345E+00</totfact>
</mgrwt>
</event>
<event>
12    1  0.4967442E-008  0.1378698E+04  0.7818608E-02  0.8969384E-01
         -2   -1    0    0    0  501 -0.00000000000E+00  0.00000000000E+00  0.29404520629E+03  0.29404520629E+03  0.00000000000E+00 0.  1.
          2   -1    0    0  501    0  0.00000000000E+00 -0.00000000000E+00 -0.16160852413E+04  0.16160852413E+04  0.00000000000E+00 0. -1.
         23    2    1    2    0    0  0.24334718161E+03  0.12060481438E+03 -0.77805068058E+03  0.82908990971E+03  0.90905691690E+02 0.  0.
        254    2    1    2    0    0 -0.24334718161E+03 -0.12060481438E+03 -0.54398935438E+03  0.10810405378E+04  0.89384610236E+03 0.  0.
         23    2    4    4    0    0 -0.11075871526E+03  0.31629247044E+03 -0.50547273242E+03  0.61340772538E+03  0.91967029248E+02 0.  0.
         23    2    4    4    0    0 -0.13258846635E+03 -0.43689728482E+03 -0.38516621961E+02  0.46763281245E+03  0.93477153463E+02 0.  0.
         11    1    3    3    0    0  0.31947526421E+01  0.24296311732E+02 -0.39055844702E+02  0.46107225178E+02  0.00000000000E+00 0.  1.
        -11    1    3    3    0    0  0.24015242897E+03  0.96308502651E+02 -0.73899483588E+03  0.78298268453E+03  0.00000000000E+00 0. -1.
          1    1    5    5  502    0 -0.57146003109E+02  0.21899939409E+03 -0.26488039396E+03  0.34840784060E+03  0.00000000000E+00 0. -1.
          3    1    6    6  503    0 -0.13545511432E+03 -0.42328739000E+03 -0.52965420018E+02  0.44757752205E+03  0.00000000000E+00 0. -1.
         -1    1    5    5    0  502 -0.53612712152E+02  0.97293076353E+02 -0.24059233845E+03  0.26499988478E+03  0.00000000000E+00 0.  1.
         -3    1    6    6    0  503  0.28666479735E+01 -0.13609894823E+02  0.14448798057E+02  0.20055290399E+02  0.00000000000E+00 0.  1.
<mgrwt>
<rscale>  0 0.13786981E+04</rscale>
<asrwt>0</asrwt>
<pdfrwt beam="1">  1        2 0.24862849E+00 0.13786981E+04</pdfrwt>
<pdfrwt beam="2">  1       -2 0.45237725E-01 0.13786981E+04</pdfrwt>
<totfact> 0.49331123E+01</totfact>
</mgrwt>
</event>
<event>
12    1  0.4967442E-008  0.2312853E+04  0.7818608E-02  0.8472871E-01
         -2   -1    0    0    0  501 -0.00000000000E+00  0.00000000000E+00  0.19415636849E+04  0.19415636849E+04  0.00000000000E+00 0. -1.
          2   -1    0    0  501    0  0.00000000000E+00 -0.00000000000E+00 -0.68878614644E+03  0.68878614644E+03  0.00000000000E+00 0.  1.
         23    2    1    2    0    0 -0.11179007017E+03 -0.66108632614E+03  0.13664234305E+04  0.15248804884E+04  0.92818974848E+02 0.  0.
        254    2    1    2    0    0  0.11179007017E+03  0.66108632614E+03 -0.11364589201E+03  0.11054693430E+04  0.87155890740E+03 0.  0.
         23    2    4    4    0    0  0.35680525259E+03  0.43418406748E+03  0.23305820409E+03  0.61516963206E+03  0.91059085153E+02 0.  0.
         23    2    4    4    0    0 -0.24501518241E+03  0.22690225866E+03 -0.34670409609E+03  0.49029971091E+03  0.93128951836E+02 0.  0.
         13    1    3    3    0    0 -0.10299291063E+03 -0.52682773731E+03  0.11640704415E+04  0.12818794785E+04  0.00000000000E+00 0. -1.
        -13    1    3    3    0    0 -0.87971595414E+01 -0.13425858883E+03  0.20235298898E+03  0.24300100996E+03  0.00000000000E+00 0.  1.
          1    1    5    5  502    0  0.14591589726E+03  0.12147896020E+03  0.10429272693E+03  0.21662308218E+03  0.00000000000E+00 0. -1.
          3    1    6    6  503    0 -0.21482590426E+03  0.14483524153E+03 -0.26543209791E+03  0.37091995758E+03  0.00000000000E+00 0. -1.
         -1    1    5    5    0  502  0.21088935532E+03  0.31270510728E+03  0.12876547716E+03  0.39854654988E+03  0.00000000000E+00 0.  1.
         -3    1    6    6    0  503 -0.30189278154E+02  0.82067017128E+02 -0.81271998184E+02  0.11937975333E+03  0.00000000000E+00 0.  1.
<mgrwt>
<rscale>  0 0.23128529E+04</rscale>
<asrwt>0</asrwt>
<pdfrwt beam="1">  1        2 0.10596710E+00 0.23128529E+04</pdfrwt>
<pdfrwt beam="2">  1       -2 0.29870210E+00 0.23128529E+04</pdfrwt>
<totfact> 0.12264383E+00</totfact>
</mgrwt>
</event>
<event>
12    1  0.4967442E-008  0.2434494E+04  0.7818608E-02  0.8426701E-01
         -2   -1    0    0    0  501 -0.00000000000E+00  0.00000000000E+00  0.96848996943E+03  0.96848996943E+03  0.00000000000E+00 0.  1.
          2   -1    0    0  501    0  0.00000000000E+00 -0.00000000000E+00 -0.15298974324E+04  0.15298974324E+04  0.00000000000E+00 0. -1.
         23    2    1    2    0    0  0.42854771919E+03  0.73313399545E+03 -0.87513224975E+03  0.12233269495E+04  0.97641016124E+02 0.  0.
        254    2    1    2    0    0 -0.42854771919E+03 -0.73313399545E+03  0.31372478680E+03  0.12750604523E+04  0.89789604753E+03 0.  0.
         23    2    4    4    0    0 -0.91104558308E+02  0.12136096371E+03 -0.15917479351E+03  0.23793844997E+03  0.90827127161E+02 0.  0.
         23    2    4    4    0    0 -0.33744316088E+03 -0.85449495916E+03  0.47289958031E+03  0.10371220023E+04  0.89210495630E+02 0.  0.
         11    1    3    3    0    0  0.12343067641E+03  0.23885675566E+03 -0.34068792258E+03  0.43399993340E+03  0.00000000000E+00 0.  1.
        -11    1    3    3    0    0  0.30511704278E+03  0.49427723979E+03 -0.53444432717E+03  0.78932701615E+03  0.00000000000E+00 0. -1.
          4    1    5    5  502    0 -0.58930035939E+02  0.86803544753E+01 -0.57569474651E+02  0.82839254591E+02  0.00000000000E+00 0.  1.
          1    1    6    6  503    0 -0.29128826924E+03 -0.79607139473E+03  0.42192698701E+03  0.94689012228E+03  0.00000000000E+00 0. -1.
         -4    1    5    5    0  502 -0.32174522370E+02  0.11268060923E+03 -0.10160531886E+03  0.15509919538E+03  0.00000000000E+00 0. -1.
         -1    1    6    6    0  503 -0.46154891639E+02 -0.58423564426E+02  0.50972593300E+02  0.90231880010E+02  0.00000000000E+00 0.  1.
<mgrwt>
<rscale>  0 0.24344940E+04</rscale>
<asrwt>0</asrwt>
<pdfrwt beam="1">  1        2 0.23536884E+00 0.24344940E+04</pdfrwt>
<pdfrwt beam="2">  1       -2 0.14899846E+00 0.24344940E+04</pdfrwt>
<totfact> 0.33397877E+00</totfact>
</mgrwt>
</event>
<event>
12    1  0.4967442E-008  0.1513221E+04  0.7818608E-02  0.8875708E-01
          2   -1    0    0  501    0  0.00000000000E+00  0.00000000000E+00  0.70993201266E+03  0.70993201266E+03  0.00000000000E+00 0. -1.
         -2   -1    0    0    0  501 -0.00000000000E+00 -0.00000000000E+00 -0.80635809146E+03  0.80635809146E+03  0.00000000000E+00 0.  1.
         23    2    1    2    0    0 -0.23681014225E+03 -0.12282061129E+03 -0.43670966737E+03  0.51958399020E+03  0.89934661091E+02 0.  0.
        254    2    1    2    0    0  0.23681014225E+03  0.12282061129E+03  0.34028358857E+03  0.99670611391E+03  0.89803463788E+03 0.  0.
         23    2    4    4    0    0  0.11666405687E+03  0.45907437157E+03  0.39663553428E+03  0.62429023975E+03  0.89770683379E+02 0.  0.
         23    2    4    4    0    0  0.12014608538E+03 -0.33625376028E+03 -0.56351945710E+02  0.37241587417E+03  0.89534174555E+02 0.  0.
         11    1    3    3    0    0 -0.20771583991E+03 -0.68015255978E+02 -0.35662556514E+03  0.41827471703E+03  0.00000000000E+00 0.  1.
        -11    1    3    3    0    0 -0.29094302332E+02 -0.54805355312E+02 -0.80084102232E+02  0.10130927317E+03  0.00000000000E+00 0. -1.
          1    1    5    5  502    0  0.77604417351E+02  0.14038065760E+03  0.11742746514E+03  0.19879231422E+03  0.00000000000E+00 0. -1.
          3    1    6    6  503    0  0.12227865078E+03 -0.33845177498E+03 -0.47420979511E+02  0.36297440918E+03  0.00000000000E+00 0.  1.
         -1    1    5    5    0  502  0.39059639519E+02  0.31869371396E+03  0.27920806914E+03  0.42549792553E+03  0.00000000000E+00 0.  1.
         -3    1    6    6    0  503 -0.21325654005E+01  0.21980147014E+01 -0.89309661993E+01  0.94414649853E+01  0.00000000000E+00 0. -1.
<mgrwt>
<rscale>  0 0.15132210E+04</rscale>
<asrwt>0</asrwt>
<pdfrwt beam="1">  1        2 0.10922031E+00 0.15132210E+04</pdfrwt>
<pdfrwt beam="2">  1       -2 0.12405509E+00 0.15132210E+04</pdfrwt>
<totfact> 0.18980741E+01</totfact>
</mgrwt>
</event>
<event>
12    1  0.4967442E-008  0.2049711E+04  0.7818608E-02  0.8583726E-01
         -1   -1    0    0    0  501 -0.00000000000E+00  0.00000000000E+00  0.10336843978E+04  0.10336843978E+04  0.00000000000E+00 0.  1.
          1   -1    0    0  501    0  0.00000000000E+00 -0.00000000000E+00 -0.10161016107E+04  0.10161016107E+04  0.00000000000E+00 0. -1.
         23    2    1    2    0    0  0.27026842213E+03  0.68814856633E+03 -0.35773166315E+03  0.82631480147E+03  0.90723420249E+02 0.  0.
        254    2    1    2    0    0 -0.27026842213E+03 -0.68814856633E+03  0.37531445019E+03  0.12234712070E+04  0.89968182631E+03 0.  0.
         23    2    4    4    0    0 -0.96684696636E+01 -0.80696706410E+03  0.42805420189E+03  0.91818470472E+03  0.92430678747E+02 0.  0.
         23    2    4    4    0    0 -0.26059995246E+03  0.11881849777E+03 -0.52739751709E+02  0.30528650232E+03  0.91587097611E+02 0.  0.
         13    1    3    3    0    0  0.15725933375E+03  0.30298832859E+03 -0.13359108229E+03  0.36657741690E+03  0.00000000000E+00 0.  1.
        -13    1    3    3    0    0  0.11300908838E+03  0.38516023773E+03 -0.22414058086E+03  0.45973738457E+03  0.00000000000E+00 0. -1.
          4    1    5    5  502    0  0.30403086921E+02 -0.11291026025E+03  0.68015334061E+02  0.13527438868E+03  0.00000000000E+00 0. -1.
          3    1    6    6  503    0 -0.24634601467E+02 -0.74452187055E+01  0.14235556283E+02  0.29409963171E+02  0.00000000000E+00 0. -1.
         -4    1    5    5    0  502 -0.40071556585E+02 -0.69405680385E+03  0.36003886783E+03  0.78291031604E+03  0.00000000000E+00 0.  1.
         -3    1    6    6    0  503 -0.23596535100E+03  0.12626371648E+03 -0.66975307992E+02  0.27587653915E+03  0.00000000000E+00 0.  1.
<mgrwt>
<rscale>  0 0.20497106E+04</rscale>
<asrwt>0</asrwt>
<pdfrwt beam="1">  1        1 0.15632332E+00 0.20497106E+04</pdfrwt>
<pdfrwt beam="2">  1       -1 0.15902837E+00 0.20497106E+04</pdfrwt>
<totfact> 0.40362086E+00</totfact>
</mgrwt>
</event>
<event>
12    1  0.7068576E-008  0.1608330E+04  0.7818608E-02  0.8815447E-01
         -1   -1    0    0    0  501 -0.00000000000E+00  0.00000000000E+00  0.29678599271E+03  0.29678599271E+03  0.00000000000E+00 0.  1.
          1   -1    0    0  501    0  0.00000000000E+00 -0.00000000000E+00 -0.21789492814E+04  0.21789492814E+04  0.00000000000E+00 0. -1.
         23    2    1    2    0    0  0.35694350054E+03  0.39336141587E+03 -0.87149205726E+03  0.10246363877E+04  0.90771444169E+02 0.  0.
        254    2    1    2    0    0 -0.35694350054E+03 -0.39336141587E+03 -0.10106712315E+04  0.14510988864E+04  0.89559464827E+03 0.  0.
         23    2    4    4    0    0 -0.13598389528E+03  0.27914391311E+03 -0.25669074261E+03  0.41283080620E+03  0.90145400378E+02 0.  0.
         23    2    4    4    0    0 -0.22095960526E+03 -0.67250532898E+03 -0.75398048885E+03  0.10382680802E+04  0.91801220972E+02 0.  0.
         13    1    3    3    0    0  0.45647985496E+02  0.72959699031E+02 -0.20443403282E+03  0.22181102326E+03  0.00000000000E+00 0. -1.
        -13    1    3    3    0    0  0.31129551504E+03  0.32040171684E+03 -0.66705802444E+03  0.80282536445E+03  0.00000000000E+00 0.  1.
          1    1    5    5  502    0 -0.14213403007E+03  0.24135425625E+03 -0.24673147468E+03  0.37326984892E+03  0.00000000000E+00 0. -1.
          1    1    6    6  503    0 -0.19605348079E+03 -0.65404005680E+03 -0.72038307809E+03  0.99255082611E+03  0.00000000000E+00 0. -1.
         -1    1    5    5    0  502  0.61501347919E+01  0.37789656859E+02 -0.99592679226E+01  0.39560957282E+02  0.00000000000E+00 0.  1.
         -1    1    6    6    0  503 -0.24906124471E+02 -0.18465272184E+02 -0.33597410770E+02  0.45717254111E+02  0.00000000000E+00 0.  1.
<mgrwt>
<rscale>  0 0.16083303E+04</rscale>
<asrwt>0</asrwt>
<pdfrwt beam="1">  1        1 0.33522298E+00 0.16083303E+04</pdfrwt>
<pdfrwt beam="2">  1       -1 0.45659382E-01 0.16083303E+04</pdfrwt>
<totfact> 0.10298790E+01</totfact>
</mgrwt>
</event>
<event>
12    1  0.4967442E-008  0.1879800E+04  0.7818608E-02  0.8664977E-01
          2   -1    0    0  501    0  0.00000000000E+00  0.00000000000E+00  0.24601424514E+04  0.24601424514E+04  0.00000000000E+00 0. -1.
         -2   -1    0    0    0  501 -0.00000000000E+00 -0.00000000000E+00 -0.35908994068E+03  0.35908994068E+03  0.00000000000E+00 0.  1.
         23    2    1    2    0    0  0.36660675982E+03  0.58094755453E+03  0.50544598128E+03  0.85782354105E+03  0.92114114686E+02 0.  0.
        254    2    1    2    0    0 -0.36660675982E+03 -0.58094755453E+03  0.15956065294E+04  0.19614088510E+04  0.91063928457E+03 0.  0.
         23    2    4    4    0    0 -0.61974205832E+03 -0.16897177796E+03  0.89670603875E+03  0.11068131774E+04  0.91225046884E+02 0.  0.
         23    2    4    4    0    0  0.25313529850E+03 -0.41197577657E+03  0.69890049066E+03  0.85459567357E+03  0.89835124673E+02 0.  0.
         11    1    3    3    0    0  0.11569500334E+03  0.13705098822E+03  0.17249549397E+03  0.24884332944E+03  0.00000000000E+00 0. -1.
        -11    1    3    3    0    0  0.25091175648E+03  0.44389656632E+03  0.33295048731E+03  0.60898021161E+03  0.00000000000E+00 0.  1.
          4    1    5    5  502    0 -0.13971539345E+02 -0.14382708922E+02  0.11564224862E+02  0.23147300583E+02  0.00000000000E+00 0. -1.
          3    1    6    6  503    0  0.30856721801E+02 -0.26909918687E+02  0.27487210047E+02  0.49313565276E+02  0.00000000000E+00 0. -1.
         -4    1    5    5    0  502 -0.60577051897E+03 -0.15458906904E+03  0.88514181389E+03  0.10836658768E+04  0.00000000000E+00 0.  1.
         -3    1    6    6    0  503  0.22227857670E+03 -0.38506585789E+03  0.67141328061E+03  0.80528210830E+03  0.00000000000E+00 0.  1.
<mgrwt>
<rscale>  0 0.18798004E+04</rscale>
<asrwt>0</asrwt>
<pdfrwt beam="1">  1        2 0.37848344E+00 0.18798004E+04</pdfrwt>
<pdfrwt beam="2">  1       -2 0.55244608E-01 0.18798004E+04</pdfrwt>
<totfact> 0.10615985E+01</totfact>
</mgrwt>
</event>
<event>
12    1  0.4967442E-008  0.1577840E+04  0.7818608E-02  0.8834279E-01
         -1   -1    0    0    0  501 -0.00000000000E+00  0.00000000000E+00  0.51017716466E+03  0.51017716466E+03  0.00000000000E+00 0.  1.
          1   -1    0    0  501    0  0.00000000000E+00 -0.00000000000E+00 -0.12199575770E+04  0.12199575770E+04  0.00000000000E+00 0. -1.
         23    2    1    2    0    0  0.94132718846E+02  0.40941687036E+03  0.10769738185E+03  0.44395339750E+03  0.94935507626E+02 0.  0.
        254    2    1    2    0    0 -0.94132718846E+02 -0.40941687036E+03 -0.81747779423E+03  0.12861813442E+04  0.89972738293E+03 0.  0.
         23    2    4    4    0    0  0.34717941649E+03  0.36408215474E+00 -0.17377639198E+03  0.39994403750E+03  0.96038111889E+02 0.  0.
         23    2    4    4    0    0 -0.44131213533E+03 -0.40978095251E+03 -0.64370140225E+03  0.88623730669E+03  0.91587328177E+02 0.  0.
         13    1    3    3    0    0  0.26227519831E+02  0.43971838172E+02  0.42580989620E+02  0.66592387146E+02  0.00000000000E+00 0. -1.
        -13    1    3    3    0    0  0.67905199015E+02  0.36544503218E+03  0.65116392228E+02  0.37736101036E+03  0.00000000000E+00 0.  1.
          1    1    5    5  502    0  0.20071500125E+03  0.46026877018E+02 -0.85735278564E+02  0.22305946097E+03  0.00000000000E+00 0. -1.
          3    1    6    6  503    0 -0.26669730145E+03 -0.27807108533E+03 -0.46436829169E+03  0.60339778706E+03  0.00000000000E+00 0. -1.
         -1    1    5    5    0  502  0.14646441523E+03 -0.45662794863E+02 -0.88041113416E+02  0.17688457653E+03  0.00000000000E+00 0.  1.
         -3    1    6    6    0  503 -0.17461483388E+03 -0.13170986718E+03 -0.17933311056E+03  0.28283951964E+03  0.00000000000E+00 0.  1.
<mgrwt>
<rscale>  0 0.15778397E+04</rscale>
<asrwt>0</asrwt>
<pdfrwt beam="1">  1        1 0.18768578E+00 0.15778397E+04</pdfrwt>
<pdfrwt beam="2">  1       -1 0.78488796E-01 0.15778397E+04</pdfrwt>
<totfact> 0.16136790E+01</totfact>
</mgrwt>
</event>
<event>
12    1  0.4967442E-008  0.1039191E+04  0.7818608E-02  0.9266575E-01
          4   -1    0    0  501    0  0.00000000000E+00  0.00000000000E+00  0.30514653293E+04  0.30514653293E+04  0.00000000000E+00 0.  1.
         -4   -1    0    0    0  501 -0.00000000000E+00 -0.00000000000E+00 -0.88475381565E+02  0.88475381565E+02  0.00000000000E+00 0. -1.
         23    2    1    2    0    0  0.79675502855E+02  0.41259805230E+02  0.51848012521E+03  0.53368192280E+03  0.89130226093E+02 0.  0.
        254    2    1    2    0    0 -0.79675502855E+02 -0.41259805230E+02  0.24445098225E+04  0.26062587880E+04  0.89939203947E+03 0.  0.
         23    2    4    4    0    0  0.21537570218E+03  0.70472304068E+02  0.14631238150E+03  0.28456711359E+03  0.90653684012E+02 0.  0.
         23    2    4    4    0    0 -0.29505120503E+03 -0.11173210930E+03  0.22981974410E+04  0.23216916745E+04  0.94876106455E+02 0.  0.
         13    1    3    3    0    0  0.32720450703E+02 -0.21452863865E+02  0.27856752485E+03  0.28130182930E+03  0.00000000000E+00 0.  1.
        -13    1    3    3    0    0  0.46955052152E+02  0.62712669095E+02  0.23991260036E+03  0.25238009351E+03  0.00000000000E+00 0. -1.
          3    1    6    6  502    0 -0.57894787699E+02 -0.47250239925E+02  0.33894980727E+03  0.34708984927E+03  0.00000000000E+00 0.  1.
          3    1    5    5  503    0  0.21982609800E+03  0.59724369430E+02  0.14954150785E+03  0.27249436001E+03  0.00000000000E+00 0. -1.
         -3    1    5    5    0  503 -0.44503958272E+01  0.10747934637E+02 -0.32291263443E+01  0.12072753577E+02  0.00000000000E+00 0.  1.
         -3    1    6    6    0  502 -0.23715641733E+03 -0.64481869372E+02  0.19592476337E+04  0.19746018252E+04  0.00000000000E+00 0. -1.
<mgrwt>
<rscale>  0 0.10391911E+04</rscale>
<asrwt>0</asrwt>
<pdfrwt beam="1">  1        4 0.46945612E+00 0.10391911E+04</pdfrwt>
<pdfrwt beam="2">  1       -4 0.13611600E-01 0.10391911E+04</pdfrwt>
<totfact> 0.20321758E-01</totfact>
</mgrwt>
</event>
<event>
12    1  0.4967442E-008  0.1883596E+04  0.7818608E-02  0.8663065E-01
          2   -1    0    0  501    0  0.00000000000E+00  0.00000000000E+00  0.97865664836E+03  0.97865664836E+03  0.00000000000E+00 0. -1.
         -2   -1    0    0    0  501 -0.00000000000E+00 -0.00000000000E+00 -0.90632790999E+03  0.90632790999E+03  0.00000000000E+00 0.  1.
         23    2    1    2    0    0 -0.31512433680E+02 -0.65372322770E+03 -0.27952588298E+03  0.71749840236E+03  0.91225797972E+02 0.  0.
        254    2    1    2    0    0  0.31512433680E+02  0.65372322770E+03  0.35185462135E+03  0.11674861560E+04  0.90048606762E+03 0.  0.
         23    2    4    4    0    0  0.29394746018E+03  0.75111249499E+03  0.19718676936E+03  0.83497435006E+03  0.87888871712E+02 0.  0.
         23    2    4    4    0    0 -0.26243502650E+03 -0.97389267289E+02  0.15466785200E+03  0.33251180594E+03  0.91022767125E+02 0.  0.
         11    1    3    3    0    0 -0.15789699347E+02 -0.33569507546E+03 -0.19296654318E+03  0.38752623792E+03  0.00000000000E+00 0.  1.
        -11    1    3    3    0    0 -0.15722734333E+02 -0.31802815224E+03 -0.86559339802E+02  0.32997216443E+03  0.00000000000E+00 0. -1.
          4    1    5    5  502    0  0.16441731945E+03  0.34010618187E+03  0.58454525922E+02  0.38225933799E+03  0.00000000000E+00 0. -1.
          3    1    6    6  503    0 -0.80444716761E+02  0.43897894672E+01  0.72520071168E+02  0.10839641797E+03  0.00000000000E+00 0. -1.
         -4    1    5    5    0  502  0.12953014072E+03  0.41100631312E+03  0.13873224343E+03  0.45271501206E+03  0.00000000000E+00 0.  1.
         -3    1    6    6    0  503 -0.18199030973E+03 -0.10177905676E+03  0.82147780830E+02  0.22411538797E+03  0.00000000000E+00 0.  1.
<mgrwt>
<rscale>  0 0.18835964E+04</rscale>
<asrwt>0</asrwt>
<pdfrwt beam="1">  1        2 0.15056256E+00 0.18835964E+04</pdfrwt>
<pdfrwt beam="2">  1       -2 0.13943506E+00 0.18835964E+04</pdfrwt>
<totfact> 0.88498434E+00</totfact>
</mgrwt>
</event>
<event>
12    1  0.4967442E-008  0.1859325E+04  0.7818608E-02  0.8675372E-01
          2   -1    0    0  501    0  0.00000000000E+00  0.00000000000E+00  0.27101627710E+04  0.27101627710E+04  0.00000000000E+00 0. -1.
         -2   -1    0    0    0  501 -0.00000000000E+00 -0.00000000000E+00 -0.31890062398E+03  0.31890062398E+03  0.00000000000E+00 0.  1.
         23    2    1    2    0    0  0.38815703558E+03  0.54111739611E+03  0.54231012162E+03  0.86357430132E+03  0.90478645195E+02 0.  0.
        254    2    1    2    0    0 -0.38815703558E+03 -0.54111739611E+03  0.18489520254E+04  0.21654890936E+04  0.90953037436E+03 0.  0.
         23    2    4    4    0    0 -0.39361411826E+03 -0.25701320691E+03  0.17996697607E+04  0.18625995713E+04  0.97355290932E+02 0.  0.
         23    2    4    4    0    0  0.54570826804E+01 -0.28410418920E+03  0.49282264694E+02  0.30288952239E+03  0.92565388169E+02 0.  0.
         13    1    3    3    0    0  0.14862682923E+03  0.20462781362E+03  0.15071080707E+03  0.29440826048E+03  0.00000000000E+00 0.  1.
        -13    1    3    3    0    0  0.23953020635E+03  0.33648958249E+03  0.39159931455E+03  0.56916604083E+03  0.00000000000E+00 0. -1.
          1    1    6    6  502    0 -0.18458382148E+02 -0.14637241709E+03  0.66899420585E+02  0.16199113813E+03  0.00000000000E+00 0. -1.
          1    1    5    5  503    0 -0.50977148875E+02 -0.46419326524E+02  0.41564384377E+03  0.42132318764E+03  0.00000000000E+00 0. -1.
         -1    1    5    5    0  503 -0.34263696938E+03 -0.21059388039E+03  0.13840259169E+04  0.14412763836E+04  0.00000000000E+00 0.  1.
         -1    1    6    6    0  502  0.23915464828E+02 -0.13773177211E+03 -0.17617155890E+02  0.14089838427E+03  0.00000000000E+00 0.  1.
<mgrwt>
<rscale>  0 0.18593253E+04</rscale>
<asrwt>0</asrwt>
<pdfrwt beam="1">  1        2 0.41694811E+00 0.18593253E+04</pdfrwt>
<pdfrwt beam="2">  1       -2 0.49061636E-01 0.18593253E+04</pdfrwt>
<totfact> 0.96954350E+00</totfact>
</mgrwt>
</event>
<event>
12    1  0.4967442E-008  0.1499478E+04  0.7818608E-02  0.8884800E-01
         -1   -1    0    0    0  501 -0.00000000000E+00  0.00000000000E+00  0.30931236458E+03  0.30931236458E+03  0.00000000000E+00 0.  1.
          1   -1    0    0  501    0  0.00000000000E+00 -0.00000000000E+00 -0.18172833837E+04  0.18172833837E+04  0.00000000000E+00 0. -1.
         23    2    1    2    0    0 -0.33365585504E+03 -0.23075012982E+03 -0.15703331858E+03  0.44641746138E+03  0.10028576503E+03 0.  0.
        254    2    1    2    0    0  0.33365585504E+03  0.23075012982E+03 -0.13509377005E+04  0.16801782869E+04  0.91290445993E+03 0.  0.
         23    2    4    4    0    0 -0.17852994943E+02 -0.24771861361E+02 -0.12107430784E+04  0.12142932278E+04  0.87617730668E+02 0.  0.
         23    2    4    4    0    0  0.35150884999E+03  0.25552199118E+03 -0.14019462217E+03  0.46588505908E+03  0.92435905321E+02 0.  0.
         11    1    3    3    0    0 -0.22749801005E+02 -0.10856324373E+02  0.14143465350E+02  0.28904166426E+02  0.00000000000E+00 0. -1.
        -11    1    3    3    0    0 -0.31090605404E+03 -0.21989380544E+03 -0.17117678393E+03  0.41751329496E+03  0.00000000000E+00 0.  1.
          4    1    5    5  502    0  0.30866040259E+01 -0.54818722202E+02 -0.82068028756E+03  0.82251489581E+03  0.00000000000E+00 0. -1.
          3    1    6    6  503    0  0.25727890698E+02  0.55454687098E+02 -0.29470367070E+02  0.67864933627E+02  0.00000000000E+00 0. -1.
         -4    1    5    5    0  502 -0.20939598969E+02  0.30046860841E+02 -0.39006279081E+03  0.39177833200E+03  0.00000000000E+00 0.  1.
         -3    1    6    6    0  503  0.32578095929E+03  0.20006730408E+03 -0.11072425510E+03  0.39802012545E+03  0.00000000000E+00 0.  1.
<mgrwt>
<rscale>  0 0.14994775E+04</rscale>
<asrwt>0</asrwt>
<pdfrwt beam="1">  1        1 0.27958206E+00 0.14994775E+04</pdfrwt>
<pdfrwt beam="2">  1       -1 0.47586517E-01 0.14994775E+04</pdfrwt>
<totfact> 0.16916891E+01</totfact>
</mgrwt>
</event>
<event>
12    1  0.4967442E-008  0.1212942E+04  0.7818608E-02  0.9101603E-01
         -2   -1    0    0    0  501 -0.00000000000E+00  0.00000000000E+00  0.44497747168E+03  0.44497747168E+03  0.00000000000E+00 0.  1.
          2   -1    0    0  501    0  0.00000000000E+00 -0.00000000000E+00 -0.82657457131E+03  0.82657457131E+03  0.00000000000E+00 0. -1.
         23    2    1    2    0    0  0.19772073452E+03  0.19938517966E+02 -0.26617675956E+03  0.34561889536E+03  0.95453235386E+02 0.  0.
        254    2    1    2    0    0 -0.19772073452E+03 -0.19938517966E+02 -0.11542034007E+03  0.92593314762E+03  0.89696115056E+03 0.  0.
         23    2    4    4    0    0 -0.38573957468E+03 -0.97930453287E+01 -0.40648512053E+03  0.56780001841E+03  0.90971338823E+02 0.  0.
         23    2    4    4    0    0  0.18801884016E+03 -0.10145472637E+02  0.29106478046E+03  0.35813312921E+03  0.89925618952E+02 0.  0.
         13    1    3    3    0    0  0.65862958683E+02 -0.14660425700E+02 -0.32057391284E+02  0.74702970116E+02  0.00000000000E+00 0.  1.
        -13    1    3    3    0    0  0.13185777583E+03  0.34598943666E+02 -0.23411936828E+03  0.27091592525E+03  0.00000000000E+00 0. -1.
          4    1    5    5  502    0 -0.82852714587E+02 -0.18325391744E+02 -0.44771727601E+02  0.95942169505E+02  0.00000000000E+00 0. -1.
          4    1    6    6  503    0  0.95480133526E+02 -0.38592635323E+02  0.20127628956E+03  0.22609288387E+03  0.00000000000E+00 0.  1.
         -4    1    5    5    0  502 -0.30288686009E+03  0.85323464154E+01 -0.36171339293E+03  0.47185784891E+03  0.00000000000E+00 0.  1.
         -4    1    6    6    0  503  0.92538706638E+02  0.28447162685E+02  0.89788490899E+02  0.13204024534E+03  0.00000000000E+00 0. -1.
<mgrwt>
<rscale>  0 0.12129420E+04</rscale>
<asrwt>0</asrwt>
<pdfrwt beam="1">  1        2 0.12716532E+00 0.12129420E+04</pdfrwt>
<pdfrwt beam="2">  1       -2 0.68458073E-01 0.12129420E+04</pdfrwt>
<totfact> 0.63455344E+01</totfact>
</mgrwt>
</event>
<event>
12    1  0.5490882E-008  0.2345028E+04  0.7818608E-02  0.8460376E-01
          1   -1    0    0  501    0  0.00000000000E+00  0.00000000000E+00  0.15001848744E+04  0.15001848744E+04  0.00000000000E+00 0. -1.
         -1   -1    0    0    0  501 -0.00000000000E+00 -0.00000000000E+00 -0.91641288047E+03  0.91641288047E+03  0.00000000000E+00 0.  1.
         23    2    1    2    0    0 -0.83978251974E+03 -0.54302526601E+03  0.19042769491E+03  0.10220255694E+04  0.90346209565E+02 0.  0.
        254    2    1    2    0    0  0.83978251974E+03  0.54302526601E+03  0.39334429903E+03  0.13945721855E+04  0.88881984838E+03 0.  0.
         23    2    4    4    0    0  0.25506114785E+03  0.53810582655E+03 -0.11622343665E+03  0.61354951208E+03  0.91219772208E+02 0.  0.
         23    2    4    4    0    0  0.58472137189E+03  0.49194394674E+01  0.50956773568E+03  0.78102267337E+03  0.91727070403E+02 0.  0.
         13    1    3    3    0    0 -0.97632241394E+02 -0.95505815875E+02  0.41010280811E+02  0.14260174809E+03  0.00000000000E+00 0. -1.
        -13    1    3    3    0    0 -0.74215027834E+03 -0.44751945014E+03  0.14941741410E+03  0.87942382134E+03  0.00000000000E+00 0.  1.
          1    1    6    6  502    0  0.52427033044E+03  0.30647335440E+02  0.46673239814E+03  0.70259360232E+03  0.00000000000E+00 0. -1.
          1    1    5    5  503    0  0.20118232532E+03  0.44252017841E+03 -0.12940724305E+03  0.50303545688E+03  0.00000000000E+00 0. -1.
         -1    1    5    5    0  503  0.53878822525E+02  0.95585648135E+02  0.13183806396E+02  0.11051405520E+03  0.00000000000E+00 0.  1.
         -1    1    6    6    0  502  0.60451041449E+02 -0.25727895973E+02  0.42835337536E+02  0.78429071047E+02  0.00000000000E+00 0.  1.
<mgrwt>
<rscale>  0 0.23450277E+04</rscale>
<asrwt>0</asrwt>
<pdfrwt beam="1">  1        1 0.23079767E+00 0.23450277E+04</pdfrwt>
<pdfrwt beam="2">  1       -1 0.14098660E+00 0.23450277E+04</pdfrwt>
<totfact> 0.24231457E+00</totfact>
</mgrwt>
</event>
<event>
12    1  0.4967442E-008  0.3039871E+04  0.7818608E-02  0.8232436E-01
         -2   -1    0    0    0  501 -0.00000000000E+00  0.00000000000E+00  0.10996866406E+04  0.10996866406E+04  0.00000000000E+00 0.  1.
          2   -1    0    0  501    0  0.00000000000E+00 -0.00000000000E+00 -0.21007843371E+04  0.21007843371E+04  0.00000000000E+00 0. -1.
         23    2    1    2    0    0 -0.64996554477E+03  0.79540293589E+02 -0.17411559071E+04  0.18624784866E+04  0.91762479247E+02 0.  0.
        254    2    1    2    0    0  0.64996554477E+03 -0.79540293589E+02  0.74005821057E+03  0.13379924912E+04  0.90208418878E+03 0.  0.
         23    2    4    4    0    0  0.10140226185E+02 -0.38023183136E+03  0.17572768526E+03  0.42899847766E+03  0.92089112843E+02 0.  0.
         23    2    4    4    0    0  0.63982531859E+03  0.30069153777E+03  0.56433052532E+03  0.90899401349E+03  0.89494891247E+02 0.  0.
         11    1    3    3    0    0 -0.92155318272E+02 -0.17252857164E+02 -0.29084684846E+03  0.30558493586E+03  0.00000000000E+00 0.  1.
        -11    1    3    3    0    0 -0.55781022650E+03  0.96793150753E+02 -0.14503090586E+04  0.15568935507E+04  0.00000000000E+00 0. -1.
          1    1    5    5  502    0 -0.11703019109E+02 -0.21764352535E+02 -0.75015345886E+01  0.25824808203E+02  0.00000000000E+00 0. -1.
          3    1    6    6  503    0  0.19417375174E+03  0.11909268130E+03  0.13976309202E+03  0.26724564449E+03  0.00000000000E+00 0. -1.
         -1    1    5    5    0  502  0.21843245293E+02 -0.35846747883E+03  0.18322921985E+03  0.40317366946E+03  0.00000000000E+00 0.  1.
         -3    1    6    6    0  503  0.44565156684E+03  0.18159885647E+03  0.42456743329E+03  0.64174836900E+03  0.00000000000E+00 0.  1.
<mgrwt>
<rscale>  0 0.30398714E+04</rscale>
<asrwt>0</asrwt>
<pdfrwt beam="1">  1        2 0.32319759E+00 0.30398714E+04</pdfrwt>
<pdfrwt beam="2">  1       -2 0.16918256E+00 0.30398714E+04</pdfrwt>
<totfact> 0.10819142E+00</totfact>
</mgrwt>
</event>
<event>
12    1  0.4967442E-008  0.1439820E+04  0.7818608E-02  0.8925489E-01
          2   -1    0    0  501    0  0.00000000000E+00  0.00000000000E+00  0.44127228754E+03  0.44127228754E+03  0.00000000000E+00 0.  1.
         -2   -1    0    0    0  501 -0.00000000000E+00 -0.00000000000E+00 -0.11744905699E+04  0.11744905699E+04  0.00000000000E+00 0. -1.
         23    2    1    2    0    0  0.75111505310E+02  0.19537641038E+02  0.25006587425E+03  0.27748182608E+03  0.91868191966E+02 0.  0.
        254    2    1    2    0    0 -0.75111505310E+02 -0.19537641038E+02 -0.98328415661E+03  0.13382810314E+04  0.90450258630E+03 0.  0.
         23    2    4    4    0    0  0.26325038201E+03  0.31069042810E+03 -0.54983365195E+03  0.69030262152E+03  0.91495129492E+02 0.  0.
         23    2    4    4    0    0 -0.33836188732E+03 -0.33022806914E+03 -0.43345050466E+03  0.64797840984E+03  0.91963771064E+02 0.  0.
         13    1    3    3    0    0 -0.12475853403E+01 -0.25639055497E+02  0.26215721050E+02  0.36690348406E+02  0.00000000000E+00 0. -1.
        -13    1    3    3    0    0  0.76359090650E+02  0.45176696535E+02  0.22385015320E+03  0.24079147768E+03  0.00000000000E+00 0.  1.
          1    1    5    5  502    0  0.19728473594E+03  0.17301415873E+03 -0.38176582496E+03  0.46324972883E+03  0.00000000000E+00 0. -1.
          1    1    6    6  503    0 -0.12989276568E+02  0.42858104526E+01 -0.21638503800E+02  0.25599107869E+02  0.00000000000E+00 0. -1.
         -1    1    5    5    0  502  0.65965646074E+02  0.13767626937E+03 -0.16806782699E+03  0.22705289269E+03  0.00000000000E+00 0.  1.
         -1    1    6    6    0  503 -0.32537261076E+03 -0.33451387959E+03 -0.41181200086E+03  0.62237930197E+03  0.00000000000E+00 0.  1.
<mgrwt>
<rscale>  0 0.14398196E+04</rscale>
<asrwt>0</asrwt>
<pdfrwt beam="1">  1        2 0.67888044E-01 0.14398196E+04</pdfrwt>
<pdfrwt beam="2">  1       -2 0.18069086E+00 0.14398196E+04</pdfrwt>
<totfact> 0.12365311E+01</totfact>
</mgrwt>
</event>
<event>
12    1  0.4967442E-008  0.1111720E+04  0.7818608E-02  0.9193843E-01
         -2   -1    0    0    0  501 -0.00000000000E+00  0.00000000000E+00  0.11741275918E+03  0.11741275918E+03  0.00000000000E+00 0.  1.
          2   -1    0    0  501    0  0.00000000000E+00 -0.00000000000E+00 -0.26315755033E+04  0.26315755033E+04  0.00000000000E+00 0. -1.
         23    2    1    2    0    0 -0.42939740224E+02  0.12155968992E+03 -0.16515105569E+03  0.22884969132E+03  0.92069161597E+02 0.  0.
        254    2    1    2    0    0  0.42939740224E+02 -0.12155968992E+03 -0.23490116884E+04  0.25201385712E+04  0.90367135950E+03 0.  0.
         23    2    4    4    0    0  0.44910891149E+03 -0.64171279272E+02 -0.90713565776E+03  0.10183941860E+04  0.91732486855E+02 0.  0.
         23    2    4    4    0    0 -0.40616917126E+03 -0.57388410649E+02 -0.14418760307E+04  0.15017443851E+04  0.89234998894E+02 0.  0.
         11    1    3    3    0    0  0.19373435378E+02  0.31452058974E+02 -0.86286075740E+02  0.93860795217E+02  0.00000000000E+00 0. -1.
        -11    1    3    3    0    0 -0.62313175602E+02  0.90107630946E+02 -0.78864979947E+02  0.13498889610E+03  0.00000000000E+00 0.  1.
          2    1    5    5  502    0  0.96771084729E+02 -0.37197595430E+02 -0.14423956994E+03  0.17763264757E+03  0.00000000000E+00 0. -1.
          1    1    6    6  503    0 -0.48147461599E+02 -0.22465444473E+02 -0.29604350707E+03  0.30077339033E+03  0.00000000000E+00 0. -1.
         -2    1    5    5    0  502  0.35233782676E+03 -0.26973683841E+02 -0.76289608781E+03  0.84076153848E+03  0.00000000000E+00 0.  1.
         -1    1    6    6    0  503 -0.35802170966E+03 -0.34922966176E+02 -0.11458325236E+04  0.12009709948E+04  0.00000000000E+00 0.  1.
<mgrwt>
<rscale>  0 0.11117204E+04</rscale>
<asrwt>0</asrwt>
<pdfrwt beam="1">  1        2 0.40485774E+00 0.11117204E+04</pdfrwt>
<pdfrwt beam="2">  1       -2 0.18063503E-01 0.11117204E+04</pdfrwt>
<totfact> 0.74669451E+01</totfact>
</mgrwt>
</event>
<event>
12    1  0.4967442E-008  0.1512984E+04  0.7818608E-02  0.8875865E-01
          2   -1    0    0  501    0  0.00000000000E+00  0.00000000000E+00  0.17242676288E+04  0.17242676288E+04  0.00000000000E+00 0. -1.
         -2   -1    0    0    0  501 -0.00000000000E+00 -0.00000000000E+00 -0.33189730276E+03  0.33189730276E+03  0.00000000000E+00 0.  1.
         23    2    1    2    0    0 -0.34301089147E+03  0.12009713988E+03  0.51243864948E+03  0.63496030094E+03  0.92203143150E+02 0.  0.
        254    2    1    2    0    0  0.34301089147E+03 -0.12009713988E+03  0.87993167654E+03  0.14212046306E+04  0.10552075872E+04 0.  0.
         23    2    4    4    0    0 -0.16533969761E+03 -0.45990874698E+03  0.41584625461E+03  0.64822722572E+03  0.91745068151E+02 0.  0.
         23    2    4    4    0    0  0.50835058908E+03  0.33981160711E+03  0.46408542193E+03  0.77297740488E+03  0.90700274877E+02 0.  0.
         11    1    3    3    0    0 -0.26921762948E+03  0.12260357257E+03  0.44858446641E+03  0.53734327160E+03  0.00000000000E+00 0. -1.
        -11    1    3    3    0    0 -0.73793261996E+02 -0.25064326962E+01  0.63854183075E+02  0.97617029339E+02  0.00000000000E+00 0.  1.
          1    1    5    5  502    0 -0.12707362159E+02 -0.78773509033E+02  0.11174247091E+03  0.13730667348E+03  0.00000000000E+00 0. -1.
          3    1    6    6  503    0  0.15477992228E+03  0.12383649880E+03  0.10295093906E+03  0.22336337799E+03  0.00000000000E+00 0. -1.
         -1    1    5    5    0  502 -0.15263233545E+03 -0.38113523795E+03  0.30410378370E+03  0.51092055224E+03  0.00000000000E+00 0.  1.
         -3    1    6    6    0  503  0.35357066681E+03  0.21597510831E+03  0.36113448287E+03  0.54961402689E+03  0.00000000000E+00 0.  1.
<mgrwt>
<rscale>  0 0.15129835E+04</rscale>
<asrwt>0</asrwt>
<pdfrwt beam="1">  1        2 0.26527194E+00 0.15129835E+04</pdfrwt>
<pdfrwt beam="2">  1       -2 0.51061125E-01 0.15129835E+04</pdfrwt>
<totfact> 0.33260545E+01</totfact>
</mgrwt>
</event>
<event>
12    1  0.4967442E-008  0.1299341E+04  0.7818608E-02  0.9030088E-01
         -2   -1    0    0    0  501 -0.00000000000E+00  0.00000000000E+00  0.20437124146E+03  0.20437124146E+03  0.00000000000E+00 0.  1.
          2   -1    0    0  501    0  0.00000000000E+00 -0.00000000000E+00 -0.20652217903E+04  0.20652217903E+04  0.00000000000E+00 0. -1.
         23    2    1    2    0    0  0.22395160226E+03  0.26041267667E+02 -0.11021412622E+03  0.26780331822E+03  0.93482596524E+02 0.  0.
        254    2    1    2    0    0 -0.22395160226E+03 -0.26041267667E+02 -0.17506364226E+04  0.20017897135E+04  0.94424663370E+03 0.  0.
         23    2    4    4    0    0 -0.96352450847E+02 -0.45868900930E+03 -0.63047319073E+03  0.79077147275E+03  0.90242317373E+02 0.  0.
         23    2    4    4    0    0 -0.12759915142E+03  0.43264774164E+03 -0.11201632319E+04  0.12110182408E+04  0.91290205728E+02 0.  0.
         11    1    3    3    0    0  0.13815665034E+03  0.29662876841E+02 -0.11443099230E+03  0.18182848593E+03  0.00000000000E+00 0.  1.
        -11    1    3    3    0    0  0.85794951920E+02 -0.36216091745E+01  0.42168660775E+01  0.85974832291E+02  0.00000000000E+00 0. -1.
          2    1    5    5  502    0 -0.44733039708E+02 -0.37840407531E+03 -0.48494927491E+03  0.61673858991E+03  0.00000000000E+00 0. -1.
          2    1    6    6  503    0 -0.14078580827E+03  0.41316425330E+03 -0.10702860494E+04  0.11558709147E+04  0.00000000000E+00 0. -1.
         -2    1    5    5    0  502 -0.51619411138E+02 -0.80284933995E+02 -0.14552391582E+03  0.17403288284E+03  0.00000000000E+00 0.  1.
         -2    1    6    6    0  503  0.13186656853E+02  0.19483488336E+02 -0.49877182507E+02  0.55147326059E+02  0.00000000000E+00 0.  1.
<mgrwt>
<rscale>  0 0.12993413E+04</rscale>
<asrwt>0</asrwt>
<pdfrwt beam="1">  1        2 0.31772641E+00 0.12993413E+04</pdfrwt>
<pdfrwt beam="2">  1       -2 0.31441731E-01 0.12993413E+04</pdfrwt>
<totfact> 0.56630932E+01</totfact>
</mgrwt>
</event>
<event>
12    1  0.4967442E-008  0.1343368E+04  0.7818608E-02  0.8995864E-01
          1   -1    0    0  501    0  0.00000000000E+00  0.00000000000E+00  0.80291491582E+03  0.80291491582E+03  0.00000000000E+00 0. -1.
         -1   -1    0    0    0  501 -0.00000000000E+00 -0.00000000000E+00 -0.56190166908E+03  0.56190166908E+03  0.00000000000E+00 0.  1.
         23    2    1    2    0    0  0.11891028690E+03  0.35434066807E+02 -0.27948448678E+03  0.31898120874E+03  0.90786583543E+02 0.  0.
        254    2    1    2    0    0 -0.11891028690E+03 -0.35434066807E+02  0.52049773352E+03  0.10458353762E+04  0.89858695407E+03 0.  0.
         23    2    4    4    0    0  0.23805160183E+03  0.20231204942E+03  0.51193452994E+03  0.60673656804E+03  0.91943295435E+02 0.  0.
         23    2    4    4    0    0 -0.35696188873E+03 -0.23774611623E+03  0.85632035731E+01  0.43909880812E+03  0.93751954897E+02 0.  0.
         11    1    3    3    0    0  0.71956072017E+02  0.82096956566E+01 -0.63620500176E+02  0.96398358106E+02  0.00000000000E+00 0. -1.
        -11    1    3    3    0    0  0.46954214887E+02  0.27224371150E+02 -0.21586398661E+03  0.22258285063E+03  0.00000000000E+00 0.  1.
          2    1    5    5  502    0  0.10277616961E+03  0.10132108943E+03  0.15438525391E+03  0.21133790675E+03  0.00000000000E+00 0. -1.
          1    1    6    6  503    0 -0.75761462740E+01  0.75124871420E+01  0.59491923699E+01  0.12215905422E+02  0.00000000000E+00 0. -1.
         -2    1    5    5    0  502  0.13527543222E+03  0.10099096000E+03  0.35754927603E+03  0.39539866130E+03  0.00000000000E+00 0.  1.
         -1    1    6    6    0  503 -0.34938574246E+03 -0.24525860337E+03  0.26140112032E+01  0.42688290270E+03  0.00000000000E+00 0.  1.
<mgrwt>
<rscale>  0 0.13433678E+04</rscale>
<asrwt>0</asrwt>
<pdfrwt beam="1">  1        1 0.12352537E+00 0.13433678E+04</pdfrwt>
<pdfrwt beam="2">  1       -1 0.86446411E-01 0.13433678E+04</pdfrwt>
<totfact> 0.28419706E+01</totfact>
</mgrwt>
</event>
<event>
12    1  0.4967442E-008  0.1890587E+04  0.7818608E-02  0.8659556E-01
         -1   -1    0    0    0  501 -0.00000000000E+00  0.00000000000E+00  0.27978985088E+03  0.27978985088E+03  0.00000000000E+00 0.  1.
          1   -1    0    0  501    0  0.00000000000E+00 -0.00000000000E+00 -0.31937537128E+04  0.31937537128E+04  0.00000000000E+00 0. -1.
         23    2    1    2    0    0 -0.35209021687E+03  0.26125316148E+03 -0.62787025616E+02  0.45195797834E+03  0.90017045063E+02 0.  0.
        254    2    1    2    0    0  0.35209021687E+03 -0.26125316148E+03 -0.28511768363E+04  0.30215855853E+04  0.89919372912E+03 0.  0.
         23    2    4    4    0    0  0.57754525949E+03  0.53567929881E+02 -0.14304252196E+04  0.15464021263E+04  0.93889177221E+02 0.  0.
         23    2    4    4    0    0 -0.22545504261E+03 -0.31482109136E+03 -0.14207516167E+04  0.14751834590E+04  0.87685720441E+02 0.  0.
         13    1    3    3    0    0 -0.34351861029E+03  0.23895319607E+03 -0.42482941788E+02  0.42060488094E+03  0.00000000000E+00 0.  1.
        -13    1    3    3    0    0 -0.85716065820E+01  0.22299965407E+02 -0.20304083828E+02  0.31353097401E+02  0.00000000000E+00 0. -1.
          2    1    5    5  502    0  0.36590982642E+03  0.71776569085E+02 -0.97514998609E+03  0.10440111936E+04  0.00000000000E+00 0.  1.
          3    1    6    6  503    0 -0.77545309406E+02 -0.86855934096E+02 -0.58118657662E+03  0.59273524034E+03  0.00000000000E+00 0. -1.
         -2    1    5    5    0  502  0.21163543307E+03 -0.18208639204E+02 -0.45527523350E+03  0.50239093275E+03  0.00000000000E+00 0. -1.
         -3    1    6    6    0  503 -0.14790973321E+03 -0.22796515726E+03 -0.83956504007E+03  0.88244821866E+03  0.00000000000E+00 0.  1.
<mgrwt>
<rscale>  0 0.18905871E+04</rscale>
<asrwt>0</asrwt>
<pdfrwt beam="1">  1        1 0.49134672E+00 0.18905871E+04</pdfrwt>
<pdfrwt beam="2">  1       -1 0.43044593E-01 0.18905871E+04</pdfrwt>
<totfact> 0.21480337E+00</totfact>
</mgrwt>
</event>
<event>
12    1  0.4967442E-008  0.1476754E+04  0.7818608E-02  0.8900060E-01
          2   -1    0    0  501    0  0.00000000000E+00  0.00000000000E+00  0.38207758530E+04  0.38207758530E+04  0.00000000000E+00 0. -1.
         -2   -1    0    0    0  501 -0.00000000000E+00 -0.00000000000E+00 -0.14269365644E+03  0.14269365644E+03  0.00000000000E+00 0.  1.
         23    2    1    2    0    0 -0.38493765047E+02 -0.33666742533E+03  0.19549799499E+04  0.19860606254E+04  0.87541292861E+02 0.  0.
        254    2    1    2    0    0  0.38493765047E+02  0.33666742533E+03  0.17231022466E+04  0.19774088840E+04  0.90897624668E+03 0.  0.
         23    2    4    4    0    0  0.26522766157E+03  0.33470313914E+03  0.29265904712E+03  0.52592132760E+03  0.92585210254E+02 0.  0.
         23    2    4    4    0    0 -0.22673389652E+03  0.19642861895E+01  0.14304431995E+04  0.14514875564E+04  0.96105468879E+02 0.  0.
         11    1    3    3    0    0  0.22108642984E+02 -0.60818563901E+02  0.27541358698E+03  0.28291400408E+03  0.00000000000E+00 0.  1.
        -11    1    3    3    0    0 -0.60602408031E+02 -0.27584886143E+03  0.16795663629E+04  0.17031466213E+04  0.00000000000E+00 0. -1.
          4    1    5    5  502    0  0.14079530597E+03  0.14927938964E+03  0.19184643900E+03  0.28091406250E+03  0.00000000000E+00 0. -1.
          3    1    6    6  503    0 -0.22401075267E+03  0.14475726104E+02  0.12082498127E+04  0.12289255363E+04  0.00000000000E+00 0. -1.
         -4    1    5    5    0  502  0.12443235560E+03  0.18542374949E+03  0.10081260812E+03  0.24500726510E+03  0.00000000000E+00 0.  1.
         -3    1    6    6    0  503 -0.27231438509E+01 -0.12511439914E+02  0.22219338680E+03  0.22256202007E+03  0.00000000000E+00 0.  1.
<mgrwt>
<rscale>  0 0.14767538E+04</rscale>
<asrwt>0</asrwt>
<pdfrwt beam="1">  1        2 0.58781159E+00 0.14767538E+04</pdfrwt>
<pdfrwt beam="2">  1       -2 0.21952873E-01 0.14767538E+04</pdfrwt>
<totfact> 0.84815536E+00</totfact>
</mgrwt>
</event>
<event>
12    1  0.4967442E-008  0.3215768E+04  0.7818608E-02  0.8184665E-01
          2   -1    0    0  501    0  0.00000000000E+00  0.00000000000E+00  0.33887555432E+04  0.33887555432E+04  0.00000000000E+00 0. -1.
         -2   -1    0    0    0  501 -0.00000000000E+00 -0.00000000000E+00 -0.76290274198E+03  0.76290274198E+03  0.00000000000E+00 0.  1.
         23    2    1    2    0    0  0.36223644537E+03 -0.47839280837E+03 -0.53682283019E+03  0.81031120505E+03  0.91381489164E+02 0.  0.
        254    2    1    2    0    0 -0.36223644537E+03  0.47839280837E+03  0.31626756314E+04  0.33413470801E+04  0.89554912705E+03 0.  0.
         23    2    4    4    0    0  0.20544029755E+03  0.39143767992E+03  0.18753262228E+04  0.19288539387E+04  0.90553308490E+02 0.  0.
         23    2    4    4    0    0 -0.56767674293E+03  0.86955128451E+02  0.12873494086E+04  0.14124931415E+04  0.89723441863E+02 0.  0.
         13    1    3    3    0    0  0.14076675607E+03 -0.23901800458E+03 -0.20381200735E+03  0.34421536930E+03  0.00000000000E+00 0. -1.
        -13    1    3    3    0    0  0.22146968931E+03 -0.23937480380E+03 -0.33301082283E+03  0.46609583575E+03  0.00000000000E+00 0.  1.
          1    1    5    5  502    0  0.14281976427E+03  0.31129451321E+03  0.12865344485E+04  0.13313424226E+04  0.00000000000E+00 0. -1.
          3    1    6    6  503    0 -0.44968624820E+03  0.32057151905E+02  0.10175487698E+04  0.11129469357E+04  0.00000000000E+00 0. -1.
         -1    1    5    5    0  502  0.62620533286E+02  0.80143166706E+02  0.58879177430E+03  0.59751151607E+03  0.00000000000E+00 0.  1.
         -3    1    6    6    0  503 -0.11799049473E+03  0.54897976547E+02  0.26980063879E+03  0.29954620573E+03  0.00000000000E+00 0.  1.
<mgrwt>
<rscale>  0 0.32157680E+04</rscale>
<asrwt>0</asrwt>
<pdfrwt beam="1">  1        2 0.52134700E+00 0.32157680E+04</pdfrwt>
<pdfrwt beam="2">  1       -2 0.11736965E+00 0.32157680E+04</pdfrwt>
<totfact> 0.45721684E-01</totfact>
</mgrwt>
</event>
<event>
12    1  0.4967442E-008  0.2436566E+04  0.7818608E-02  0.8425939E-01
         -1   -1    0    0    0  501 -0.00000000000E+00  0.00000000000E+00  0.14966751896E+04  0.14966751896E+04  0.00000000000E+00 0.  1.
          1   -1    0    0  501    0  0.00000000000E+00 -0.00000000000E+00 -0.99167349957E+03  0.99167349957E+03  0.00000000000E+00 0. -1.
         23    2    1    2    0    0 -0.42251582338E+03 -0.82456402923E+03 -0.28311152434E+03  0.97315624648E+03  0.91953714203E+02 0.  0.
        254    2    1    2    0    0  0.42251582338E+03  0.82456402923E+03  0.78811321437E+03  0.15151924427E+04  0.90347121727E+03 0.  0.
         23    2    4    4    0    0  0.27007353801E+03  0.24841661576E+03  0.82845645878E+03  0.91084387076E+03  0.92983449537E+02 0.  0.
         23    2    4    4    0    0  0.15244228537E+03  0.57614741346E+03 -0.40343244407E+02  0.60434857194E+03  0.91788488524E+02 0.  0.
         13    1    3    3    0    0 -0.22865880817E+03 -0.54331579769E+03 -0.18099958009E+03  0.61663421456E+03  0.00000000000E+00 0. -1.
        -13    1    3    3    0    0 -0.19385701521E+03 -0.28124823154E+03 -0.10211194424E+03  0.35652203192E+03  0.00000000000E+00 0.  1.
          2    1    5    5  502    0  0.50163127714E+02  0.25251860060E+02  0.21232559077E+03  0.21962730321E+03  0.00000000000E+00 0. -1.
          1    1    6    6  503    0  0.57767254120E+02  0.18687642145E+03  0.29105715775E+02  0.19775488675E+03  0.00000000000E+00 0. -1.
         -2    1    5    5    0  502  0.21991041029E+03  0.22316475570E+03  0.61613086801E+03  0.69121656755E+03  0.00000000000E+00 0.  1.
         -1    1    6    6    0  503  0.94675031248E+02  0.38927099201E+03 -0.69448960182E+02  0.40659368519E+03  0.00000000000E+00 0.  1.
<mgrwt>
<rscale>  0 0.24365657E+04</rscale>
<asrwt>0</asrwt>
<pdfrwt beam="1">  1        1 0.15256515E+00 0.24365657E+04</pdfrwt>
<pdfrwt beam="2">  1       -1 0.23025772E+00 0.24365657E+04</pdfrwt>
<totfact> 0.12900208E+00</totfact>
</mgrwt>
</event>
<event>
12    1  0.4967442E-008  0.1629550E+04  0.7818608E-02  0.8802597E-01
          2   -1    0    0  501    0  0.00000000000E+00  0.00000000000E+00  0.10086307516E+04  0.10086307516E+04  0.00000000000E+00 0. -1.
         -2   -1    0    0    0  501 -0.00000000000E+00 -0.00000000000E+00 -0.65817803390E+03  0.65817803390E+03  0.00000000000E+00 0.  1.
         23    2    1    2    0    0 -0.18244670262E+03  0.80898472775E+02 -0.44234564899E+03  0.49354936415E+03  0.89944090869E+02 0.  0.
        254    2    1    2    0    0  0.18244670262E+03 -0.80898472775E+02  0.79279836673E+03  0.11732594214E+04  0.84153256467E+03 0.  0.
         23    2    4    4    0    0  0.79234481241E+02  0.35983156039E+03  0.22386573413E+03  0.44060809585E+03  0.90899792839E+02 0.  0.
         23    2    4    4    0    0  0.10321222138E+03 -0.44073003316E+03  0.56893263260E+03  0.73265132555E+03  0.90542253200E+02 0.  0.
         11    1    3    3    0    0 -0.59033046155E+02  0.28669393125E+02 -0.61985648240E+02  0.90272117667E+02  0.00000000000E+00 0. -1.
        -11    1    3    3    0    0 -0.12341365647E+03  0.52229079649E+02 -0.38036000075E+03  0.40327724649E+03  0.00000000000E+00 0.  1.
          2    1    5    5  502    0 -0.37888756817E+01  0.12944850243E+03  0.11268133116E+03  0.17166348695E+03  0.00000000000E+00 0. -1.
          3    1    6    6  503    0  0.78385984352E+02 -0.27818252866E+03  0.29379881285E+03  0.41212573837E+03  0.00000000000E+00 0. -1.
         -2    1    5    5    0  502  0.83023356923E+02  0.23038305796E+03  0.11118440297E+03  0.26894460889E+03  0.00000000000E+00 0.  1.
         -3    1    6    6    0  503  0.24826237031E+02 -0.16254750451E+03  0.27513381976E+03  0.32052558718E+03  0.00000000000E+00 0.  1.
<mgrwt>
<rscale>  0 0.16295504E+04</rscale>
<asrwt>0</asrwt>
<pdfrwt beam="1">  1        2 0.15517396E+00 0.16295504E+04</pdfrwt>
<pdfrwt beam="2">  1       -2 0.10125816E+00 0.16295504E+04</pdfrwt>
<totfact> 0.19081024E+01</totfact>
</mgrwt>
</event>
<event>
12    1  0.4967442E-008  0.2408610E+04  0.7818608E-02  0.8436287E-01
         -1   -1    0    0    0  501 -0.00000000000E+00  0.00000000000E+00  0.82364170640E+03  0.82364170640E+03  0.00000000000E+00 0.  1.
          1   -1    0    0  501    0  0.00000000000E+00 -0.00000000000E+00 -0.17609000725E+04  0.17609000725E+04  0.00000000000E+00 0. -1.
         23    2    1    2    0    0  0.98988816866E+03 -0.23191255837E+03 -0.52996616224E+03  0.11497577976E+04  0.86121070098E+02 0.  0.
        254    2    1    2    0    0 -0.98988816866E+03  0.23191255837E+03 -0.40729220385E+03  0.14347839814E+04  0.92685279987E+03 0.  0.
         23    2    4    4    0    0  0.34418724526E+02  0.22093952991E+03 -0.32338330962E+03  0.40300324467E+03  0.88520764795E+02 0.  0.
         23    2    4    4    0    0 -0.10243068932E+04  0.10973028465E+02 -0.83908894237E+02  0.10317807367E+04  0.90585690196E+02 0.  0.
         11    1    3    3    0    0  0.65697890957E+03 -0.12556680414E+03 -0.38176015500E+03  0.77014876866E+03  0.00000000000E+00 0. -1.
        -11    1    3    3    0    0  0.33290925909E+03 -0.10634575423E+03 -0.14820600725E+03  0.37960902890E+03  0.00000000000E+00 0.  1.
          1    1    5    5  502    0  0.40485688997E+02  0.13779110394E+03 -0.13547507684E+03  0.19743093928E+03  0.00000000000E+00 0. -1.
          3    1    6    6  503    0 -0.18874360768E+03  0.23436969837E+02 -0.43749431472E+02  0.19516007211E+03  0.00000000000E+00 0. -1.
         -1    1    5    5    0  502 -0.60669644708E+01  0.83148425966E+02 -0.18790823277E+03  0.20557230539E+03  0.00000000000E+00 0.  1.
         -3    1    6    6    0  503 -0.83556328551E+03 -0.12463941372E+02 -0.40159462765E+02  0.83662066457E+03  0.00000000000E+00 0.  1.
<mgrwt>
<rscale>  0 0.24086102E+04</rscale>
<asrwt>0</asrwt>
<pdfrwt beam="1">  1        1 0.27090770E+00 0.24086102E+04</pdfrwt>
<pdfrwt beam="2">  1       -1 0.12671411E+00 0.24086102E+04</pdfrwt>
<totfact> 0.20977837E+00</totfact>
</mgrwt>
</event>
<event>
12    1  0.4967442E-008  0.1853134E+04  0.7818608E-02  0.8678543E-01
          1   -1    0    0  501    0  0.00000000000E+00  0.00000000000E+00  0.22709071356E+04  0.22709071356E+04  0.00000000000E+00 0. -1.
         -1   -1    0    0    0  501 -0.00000000000E+00 -0.00000000000E+00 -0.37805457763E+03  0.37805457763E+03  0.00000000000E+00 0.  1.
         23    2    1    2    0    0 -0.42457821104E+03 -0.12674246854E+02 -0.76388770709E+02  0.44326583309E+03  0.10110420700E+03 0.  0.
        254    2    1    2    0    0  0.42457821104E+03  0.12674246854E+02  0.19692413287E+04  0.22056958802E+04  0.89819575332E+03 0.  0.
         23    2    4    4    0    0 -0.19217264879E+03 -0.15722021260E+03  0.10397992471E+04  0.10736168357E+04  0.99106576271E+02 0.  0.
         23    2    4    4    0    0  0.61675085982E+03  0.16989445945E+03  0.92944208162E+03  0.11320790445E+04  0.92166313789E+02 0.  0.
         11    1    3    3    0    0 -0.21111915894E+03  0.42714135590E+02 -0.25120261356E+02  0.21685669042E+03  0.00000000000E+00 0.  1.
        -11    1    3    3    0    0 -0.21345905210E+03 -0.55388382444E+02 -0.51268509353E+02  0.22640914267E+03  0.00000000000E+00 0. -1.
          1    1    5    5  502    0 -0.16123193294E+03 -0.11086618789E+03  0.93138136010E+03  0.95171334221E+03  0.00000000000E+00 0. -1.
          3    1    6    6  503    0  0.32205164284E+03  0.10752463418E+03  0.41797244213E+03  0.53849769730E+03  0.00000000000E+00 0. -1.
         -1    1    5    5    0  502 -0.30940715848E+02 -0.46354024704E+02  0.10841788699E+03  0.12190349348E+03  0.00000000000E+00 0.  1.
         -3    1    6    6    0  503  0.29469921698E+03  0.62369825271E+02  0.51146963949E+03  0.59358134717E+03  0.00000000000E+00 0.  1.
<mgrwt>
<rscale>  0 0.18531345E+04</rscale>
<asrwt>0</asrwt>
<pdfrwt beam="1">  1        1 0.34937032E+00 0.18531345E+04</pdfrwt>
<pdfrwt beam="2">  1       -1 0.58162244E-01 0.18531345E+04</pdfrwt>
<totfact> 0.54842037E+00</totfact>
</mgrwt>
</event>
<event>
12    1  0.4967442E-008  0.1607607E+04  0.7818608E-02  0.8815889E-01
          1   -1    0    0  501    0  0.00000000000E+00  0.00000000000E+00  0.13536624610E+04  0.13536624610E+04  0.00000000000E+00 0. -1.
         -1   -1    0    0    0  501 -0.00000000000E+00 -0.00000000000E+00 -0.47729752369E+03  0.47729752369E+03  0.00000000000E+00 0.  1.
         23    2    1    2    0    0 -0.36075567223E+03 -0.22637906002E+03  0.68756107108E+03  0.81492586500E+03  0.99858926116E+02 0.  0.
        254    2    1    2    0    0  0.36075567223E+03  0.22637906002E+03  0.18880386625E+03  0.10160341197E+04  0.90293205649E+03 0.  0.
         23    2    4    4    0    0 -0.24047065610E+03  0.61676091876E+02  0.27291324933E+03  0.37996711992E+03  0.90902661188E+02 0.  0.
         23    2    4    4    0    0  0.60122632833E+03  0.16470296815E+03 -0.84109383080E+02  0.63606699979E+03  0.94375178422E+02 0.  0.
         11    1    3    3    0    0 -0.12336190475E+02  0.86065043696E+01  0.11684562102E+02  0.19046850249E+02  0.00000000000E+00 0.  1.
        -11    1    3    3    0    0 -0.34841948176E+03 -0.23498556439E+03  0.67587650898E+03  0.79587901475E+03  0.00000000000E+00 0. -1.
          1    1    5    5  502    0 -0.26530811644E+02  0.41371834709E+02  0.43677076054E+02  0.65751042930E+02  0.00000000000E+00 0. -1.
          3    1    6    6  503    0  0.27807425896E+03  0.12108074292E+03 -0.59360308159E+02  0.30904609039E+03  0.00000000000E+00 0. -1.
         -1    1    5    5    0  502 -0.21393984446E+03  0.20304257167E+02  0.22923617327E+03  0.31421607699E+03  0.00000000000E+00 0.  1.
         -3    1    6    6    0  503  0.32315206937E+03  0.43622225229E+02 -0.24749074921E+02  0.32702090940E+03  0.00000000000E+00 0.  1.
<mgrwt>
<rscale>  0 0.16076066E+04</rscale>
<asrwt>0</asrwt>
<pdfrwt beam="1">  1        1 0.20825576E+00 0.16076066E+04</pdfrwt>
<pdfrwt beam="2">  1       -1 0.73430389E-01 0.16076066E+04</pdfrwt>
<totfact> 0.14843969E+01</totfact>
</mgrwt>
</event>
<event>
12    1  0.4967442E-008  0.1871591E+04  0.7818608E-02  0.8669128E-01
          2   -1    0    0  501    0  0.00000000000E+00  0.00000000000E+00  0.88928738126E+03  0.88928738126E+03  0.00000000000E+00 0. -1.
         -2   -1    0    0    0  501 -0.00000000000E+00 -0.00000000000E+00 -0.98473592674E+03  0.98473592674E+03  0.00000000000E+00 0.  1.
         23    2    1    2    0    0 -0.59022481395E+03  0.31633544660E+03  0.20844390673E+03  0.70723478182E+03  0.91097357706E+02 0.  0.
        254    2    1    2    0    0  0.59022481395E+03 -0.31633544660E+03 -0.30389245222E+03  0.11667885262E+04  0.90587603817E+03 0.  0.
         23    2    4    4    0    0  0.77927995066E+03 -0.36499610351E+03 -0.10260412901E+03  0.87158658427E+03  0.92930993274E+02 0.  0.
         23    2    4    4    0    0 -0.18905513671E+03  0.48660656910E+02 -0.20128832321E+03  0.29520194192E+03  0.92290266029E+02 0.  0.
         11    1    3    3    0    0 -0.41944965214E+03  0.20255874509E+03  0.18300426710E+03  0.50045840753E+03  0.00000000000E+00 0.  1.
        -11    1    3    3    0    0 -0.17077516181E+03  0.11377670151E+03  0.25439639631E+02  0.20677637428E+03  0.00000000000E+00 0. -1.
          4    1    6    6  502    0 -0.19557990408E+03  0.33954626467E+02 -0.19392268929E+03  0.27750752235E+03  0.00000000000E+00 0. -1.
          4    1    5    5  503    0  0.42720932165E+03 -0.24186853083E+03 -0.31875620978E+02  0.49195959786E+03  0.00000000000E+00 0. -1.
         -4    1    5    5    0  503  0.35207062900E+03 -0.12312757269E+03 -0.70728508030E+02  0.37962698641E+03  0.00000000000E+00 0.  1.
         -4    1    6    6    0  502  0.65247673761E+01  0.14706030443E+02 -0.73656339216E+01  0.17694419566E+02  0.00000000000E+00 0.  1.
<mgrwt>
<rscale>  0 0.18715910E+04</rscale>
<asrwt>0</asrwt>
<pdfrwt beam="1">  1        2 0.13681344E+00 0.18715910E+04</pdfrwt>
<pdfrwt beam="2">  1       -2 0.15149783E+00 0.18715910E+04</pdfrwt>
<totfact> 0.81654301E+00</totfact>
</mgrwt>
</event>
<event>
12    1  0.4967442E-008  0.1855110E+04  0.7818608E-02  0.8677529E-01
          1   -1    0    0  501    0  0.00000000000E+00  0.00000000000E+00  0.33979590255E+04  0.33979590255E+04  0.00000000000E+00 0. -1.
         -1   -1    0    0    0  501 -0.00000000000E+00 -0.00000000000E+00 -0.25319865031E+03  0.25319865031E+03  0.00000000000E+00 0.  1.
         23    2    1    2    0    0  0.19821983766E+03 -0.26510921786E+03  0.24243254460E+04  0.24485369633E+04  0.91680919553E+02 0.  0.
        254    2    1    2    0    0 -0.19821983766E+03  0.26510921786E+03  0.72043492923E+03  0.12026207126E+04  0.90426549729E+03 0.  0.
         23    2    4    4    0    0  0.83106635512E+02 -0.25837540587E+02  0.77356432460E+03  0.78366560379E+03  0.90309041043E+02 0.  0.
         23    2    4    4    0    0 -0.28132647318E+03  0.29094675844E+03 -0.53129395373E+02  0.41895510877E+03  0.94371869514E+02 0.  0.
         11    1    3    3    0    0  0.18631960834E+03 -0.18670528937E+03  0.19128703767E+04  0.19309704657E+04  0.00000000000E+00 0. -1.
        -11    1    3    3    0    0  0.11900229320E+02 -0.78403928485E+02  0.51145506930E+03  0.51756649754E+03  0.00000000000E+00 0.  1.
          4    1    5    5  502    0  0.28416260875E+02  0.26418679196E+01  0.50733635605E+02  0.58209665263E+02  0.00000000000E+00 0. -1.
          3    1    6    6  503    0 -0.47428171138E+01  0.33134321589E+02 -0.20932889059E+02  0.39478645186E+02  0.00000000000E+00 0. -1.
         -4    1    5    5    0  502  0.54690374636E+02 -0.28479408506E+02  0.72283068900E+03  0.72545593853E+03  0.00000000000E+00 0.  1.
         -3    1    6    6    0  503 -0.27658365606E+03  0.25781243685E+03 -0.32196506314E+02  0.37947646359E+03  0.00000000000E+00 0.  1.
<mgrwt>
<rscale>  0 0.18551104E+04</rscale>
<asrwt>0</asrwt>
<pdfrwt beam="1">  1        1 0.52276290E+00 0.18551104E+04</pdfrwt>
<pdfrwt beam="2">  1       -1 0.38953641E-01 0.18551104E+04</pdfrwt>
<totfact> 0.18123971E+00</totfact>
</mgrwt>
</event>
<event>
12    1  0.4967442E-008  0.1584823E+04  0.7818608E-02  0.8829926E-01
         -2   -1    0    0    0  501 -0.00000000000E+00  0.00000000000E+00  0.19671166284E+03  0.19671166284E+03  0.00000000000E+00 0.  1.
          2   -1    0    0  501    0  0.00000000000E+00 -0.00000000000E+00 -0.31920642534E+04  0.31920642534E+04  0.00000000000E+00 0. -1.
         23    2    1    2    0    0  0.40062597100E+03 -0.52131376836E+02 -0.27162082072E+03  0.49552719763E+03  0.92468828515E+02 0.  0.
        254    2    1    2    0    0 -0.40062597100E+03  0.52131376836E+02 -0.27237317699E+04  0.28932487187E+04  0.88823113242E+03 0.  0.
         23    2    4    4    0    0 -0.74347865509E+02  0.21393074994E+03 -0.23516123786E+04  0.23642872150E+04  0.92083034113E+02 0.  0.
         23    2    4    4    0    0 -0.32627810550E+03 -0.16179937310E+03 -0.37211939131E+03  0.52896150362E+03  0.93225488304E+02 0.  0.
         13    1    3    3    0    0  0.82761852030E+01  0.13704612387E+02 -0.56657632681E+01  0.16982712257E+02  0.00000000000E+00 0. -1.
        -13    1    3    3    0    0  0.39234978580E+03 -0.65835989223E+02 -0.26595505745E+03  0.47854448537E+03  0.00000000000E+00 0.  1.
          4    1    5    5  502    0 -0.40000981845E+01  0.33053737573E+02 -0.12934881920E+03  0.13356521770E+03  0.00000000000E+00 0. -1.
          1    1    6    6  503    0 -0.49783833996E+02  0.55539880402E+01 -0.73370488970E+02  0.88839774663E+02  0.00000000000E+00 0. -1.
         -4    1    5    5    0  502 -0.70347767325E+02  0.18087701236E+03 -0.22222635594E+04  0.22307219973E+04  0.00000000000E+00 0.  1.
         -1    1    6    6    0  503 -0.27649427150E+03 -0.16735336114E+03 -0.29874890234E+03  0.44012172896E+03  0.00000000000E+00 0.  1.
<mgrwt>
<rscale>  0 0.15848234E+04</rscale>
<asrwt>0</asrwt>
<pdfrwt beam="1">  1        2 0.49108682E+00 0.15848234E+04</pdfrwt>
<pdfrwt beam="2">  1       -2 0.30263332E-01 0.15848234E+04</pdfrwt>
<totfact> 0.12814904E+01</totfact>
</mgrwt>
</event>
<event>
12    1  0.4967442E-008  0.1144900E+04  0.7818608E-02  0.9162502E-01
          3   -1    0    0  501    0  0.00000000000E+00  0.00000000000E+00  0.22528715831E+04  0.22528715831E+04  0.00000000000E+00 0. -1.
         -3   -1    0    0    0  501 -0.00000000000E+00 -0.00000000000E+00 -0.14545828420E+03  0.14545828420E+03  0.00000000000E+00 0.  1.
         23    2    1    2    0    0  0.17613450962E+03 -0.14038888078E+02  0.58297187408E+03  0.61757357618E+03  0.10158966569E+03 0.  0.
        254    2    1    2    0    0 -0.17613450962E+03  0.14038888078E+02  0.15244414249E+04  0.17807562912E+04  0.90329998052E+03 0.  0.
         23    2    4    4    0    0 -0.17650964101E+03  0.32086696602E+03  0.13785333073E+04  0.14292572599E+04  0.91164535176E+02 0.  0.
         23    2    4    4    0    0  0.37513139047E+00 -0.30682807795E+03  0.14590811760E+03  0.35149903126E+03  0.90104273251E+02 0.  0.
         11    1    3    3    0    0  0.18730518519E+03 -0.22110290376E+02  0.52099535418E+03  0.55408325765E+03  0.00000000000E+00 0. -1.
        -11    1    3    3    0    0 -0.11170675569E+02  0.80714022980E+01  0.61976519901E+02  0.63490318528E+02  0.00000000000E+00 0.  1.
          4    1    5    5  502    0 -0.17928297941E+03  0.32321619912E+03  0.13245658419E+04  0.13751675416E+04  0.00000000000E+00 0. -1.
          1    1    6    6  503    0 -0.58149372716E+01 -0.28031425258E+03  0.15786464065E+03  0.32176254981E+03  0.00000000000E+00 0. -1.
         -4    1    5    5    0  502  0.27733384004E+01 -0.23492330958E+01  0.53967465381E+02  0.54089718262E+02  0.00000000000E+00 0.  1.
         -1    1    6    6    0  503  0.61900686621E+01 -0.26513825369E+02 -0.11956523050E+02  0.29736481453E+02  0.00000000000E+00 0.  1.
<mgrwt>
<rscale>  0 0.11448997E+04</rscale>
<asrwt>0</asrwt>
<pdfrwt beam="1">  1        3 0.34659560E+00 0.11448997E+04</pdfrwt>
<pdfrwt beam="2">  1       -3 0.22378199E-01 0.11448997E+04</pdfrwt>
<totfact> 0.10629664E+00</totfact>
</mgrwt>
</event>
<event>
12    1  0.4967442E-008  0.1717351E+04  0.7818608E-02  0.8751530E-01
         -1   -1    0    0    0  501 -0.00000000000E+00  0.00000000000E+00  0.29715052234E+03  0.29715052234E+03  0.00000000000E+00 0.  1.
          1   -1    0    0  501    0  0.00000000000E+00 -0.00000000000E+00 -0.24813146720E+04  0.24813146720E+04  0.00000000000E+00 0. -1.
         23    2    1    2    0    0  0.88924422399E+02 -0.39647237396E+02  0.19563568961E+03  0.23717408800E+03  0.92188766331E+02 0.  0.
        254    2    1    2    0    0 -0.88924422399E+02  0.39647237396E+02 -0.23797998393E+04  0.25412911064E+04  0.88613416357E+03 0.  0.
         23    2    4    4    0    0  0.65414102153E+02 -0.20128176918E+03 -0.11710472163E+03  0.25875865061E+03  0.91919356370E+02 0.  0.
         23    2    4    4    0    0 -0.15433852455E+03  0.24092900657E+03 -0.22626951177E+04  0.22825324558E+04  0.91093631521E+02 0.  0.
         13    1    3    3    0    0  0.38788675894E+02 -0.55427697790E+02  0.55496107011E+02  0.87502051137E+02  0.00000000000E+00 0. -1.
        -13    1    3    3    0    0  0.50135746505E+02  0.15780460394E+02  0.14013958260E+03  0.14967203686E+03  0.00000000000E+00 0.  1.
          3    1    5    5  502    0 -0.16400640043E+02 -0.60665539578E+02 -0.58446427088E+02  0.85821171779E+02  0.00000000000E+00 0. -1.
          3    1    6    6  503    0  0.86805401430E+01  0.42551885802E+02 -0.34643961995E+03  0.34915100606E+03  0.00000000000E+00 0. -1.
         -3    1    5    5    0  502  0.81814742195E+02 -0.14061622960E+03 -0.58658294545E+02  0.17293747883E+03  0.00000000000E+00 0.  1.
         -3    1    6    6    0  503 -0.16301906469E+03  0.19837712077E+03 -0.19162554977E+04  0.19333814497E+04  0.00000000000E+00 0.  1.
<mgrwt>
<rscale>  0 0.17173514E+04</rscale>
<asrwt>0</asrwt>
<pdfrwt beam="1">  1        1 0.38174072E+00 0.17173514E+04</pdfrwt>
<pdfrwt beam="2">  1       -1 0.45715465E-01 0.17173514E+04</pdfrwt>
<totfact> 0.63152347E+00</totfact>
</mgrwt>
</event>
<event>
12    1  0.6727561E-008  0.3433488E+04  0.7818608E-02  0.8129736E-01
          2   -1    0    0  501    0  0.00000000000E+00  0.00000000000E+00  0.16675086667E+04  0.16675086667E+04  0.00000000000E+00 0. -1.
         -2   -1    0    0    0  501 -0.00000000000E+00 -0.00000000000E+00 -0.17674330142E+04  0.17674330142E+04  0.00000000000E+00 0.  1.
         23    2    1    2    0    0  0.12485558555E+04 -0.93302937184E+03 -0.40382836732E+03  0.16126406199E+04  0.89982697215E+02 0.  0.
        254    2    1    2    0    0 -0.12485558555E+04  0.93302937184E+03  0.30390401981E+03  0.18223010610E+04  0.89386127042E+03 0.  0.
         23    2    4    4    0    0 -0.69322234688E+03  0.52853168609E+03  0.60711174835E+03  0.10660705318E+04  0.89547408205E+02 0.  0.
         23    2    4    4    0    0 -0.55533350858E+03  0.40449768574E+03 -0.30320772854E+03  0.75623052923E+03  0.89084247591E+02 0.  0.
         11    1    3    3    0    0  0.58335944967E+02 -0.33703868377E+02 -0.35091548921E+02  0.75963478228E+02  0.00000000000E+00 0. -1.
        -11    1    3    3    0    0  0.11902199105E+04 -0.89932550346E+03 -0.36873681840E+03  0.15366771417E+04  0.00000000000E+00 0.  1.
          4    1    5    5  502    0 -0.63268715486E+03  0.44658714741E+03  0.53794958815E+03  0.94293312358E+03  0.00000000000E+00 0. -1.
          1    1    6    6  503    0 -0.52190119047E+03  0.34944670860E+03 -0.28125310568E+03  0.68818396103E+03  0.00000000000E+00 0. -1.
         -4    1    5    5    0  502 -0.60535192015E+02  0.81944538682E+02  0.69162160197E+02  0.12313740819E+03  0.00000000000E+00 0.  1.
         -1    1    6    6    0  503 -0.33432318110E+02  0.55050977145E+02 -0.21954622861E+02  0.68046568200E+02  0.00000000000E+00 0.  1.
<mgrwt>
<rscale>  0 0.34334879E+04</rscale>
<asrwt>0</asrwt>
<pdfrwt beam="1">  1        2 0.25653980E+00 0.34334879E+04</pdfrwt>
<pdfrwt beam="2">  1       -2 0.27191277E+00 0.34334879E+04</pdfrwt>
<totfact> 0.39854014E-01</totfact>
</mgrwt>
</event>
<event>
12    1  0.4967442E-008  0.1881308E+04  0.7818608E-02  0.8664217E-01
         -1   -1    0    0    0  501 -0.00000000000E+00  0.00000000000E+00  0.38606833544E+03  0.38606833544E+03  0.00000000000E+00 0.  1.
          1   -1    0    0  501    0  0.00000000000E+00 -0.00000000000E+00 -0.22918997765E+04  0.22918997765E+04  0.00000000000E+00 0. -1.
         23    2    1    2    0    0 -0.61917441552E+03  0.36712706651E+03 -0.76682373156E+03  0.10556505831E+04  0.90665751007E+02 0.  0.
        254    2    1    2    0    0  0.61917441552E+03 -0.36712706651E+03 -0.11390077095E+04  0.16223175289E+04  0.90355761434E+03 0.  0.
         23    2    4    4    0    0  0.33357071565E+03 -0.34098574822E+00  0.43254647748E+02  0.34870625830E+03  0.91954072291E+02 0.  0.
         23    2    4    4    0    0  0.28560369987E+03 -0.36678608077E+03 -0.11822623573E+04  0.12736112706E+04  0.90773811051E+02 0.  0.
         13    1    3    3    0    0 -0.29803989952E+03  0.21042390538E+03 -0.33666051223E+03  0.49643358282E+03  0.00000000000E+00 0. -1.
        -13    1    3    3    0    0 -0.32113451601E+03  0.15670316114E+03 -0.43016321933E+03  0.55921700023E+03  0.00000000000E+00 0.  1.
          2    1    5    5  502    0  0.32278164682E+03 -0.19826630987E+02  0.36567407164E+02  0.32545085972E+03  0.00000000000E+00 0. -1.
          1    1    6    6  503    0  0.96476962840E+02 -0.18734688745E+03 -0.59018628320E+03  0.62667895247E+03  0.00000000000E+00 0. -1.
         -2    1    5    5    0  502  0.10789068830E+02  0.19485645239E+02  0.66872405836E+01  0.23255398583E+02  0.00000000000E+00 0.  1.
         -1    1    6    6    0  503  0.18912673703E+03 -0.17943919332E+03 -0.59207607407E+03  0.64693231813E+03  0.00000000000E+00 0.  1.
<mgrwt>
<rscale>  0 0.18813080E+04</rscale>
<asrwt>0</asrwt>
<pdfrwt beam="1">  1        1 0.35259995E+00 0.18813080E+04</pdfrwt>
<pdfrwt beam="2">  1       -1 0.59395131E-01 0.18813080E+04</pdfrwt>
<totfact> 0.50782571E+00</totfact>
</mgrwt>
</event>
<event>
12    1  0.4967442E-008  0.1999201E+04  0.7818608E-02  0.8606994E-01
          2   -1    0    0  501    0  0.00000000000E+00  0.00000000000E+00  0.23576049544E+04  0.23576049544E+04  0.00000000000E+00 0. -1.
         -2   -1    0    0    0  501 -0.00000000000E+00 -0.00000000000E+00 -0.42382044279E+03  0.42382044279E+03  0.00000000000E+00 0.  1.
         23    2    1    2    0    0  0.44174969576E+03  0.66372345006E+03  0.83382672093E+03  0.11572238236E+04  0.90710339017E+02 0.  0.
        254    2    1    2    0    0 -0.44174969576E+03 -0.66372345006E+03  0.10999577907E+04  0.16242015735E+04  0.89019772994E+03 0.  0.
         23    2    4    4    0    0 -0.70577183714E+03 -0.46269859147E+03  0.81758352613E+03  0.11786517250E+04  0.92591543948E+02 0.  0.
         23    2    4    4    0    0  0.26402214138E+03 -0.20102485858E+03  0.28237426453E+03  0.44554984853E+03  0.93063190088E+02 0.  0.
         13    1    3    3    0    0  0.44489536152E+03  0.65515572838E+03  0.83036867128E+03  0.11474637429E+04  0.00000000000E+00 0. -1.
        -13    1    3    3    0    0 -0.31456657632E+01  0.85677216723E+01  0.34580496546E+01  0.97600806943E+01  0.00000000000E+00 0.  1.
          1    1    5    5  502    0 -0.20727701178E+03 -0.17721738863E+03  0.29990480093E+03  0.40535497045E+03  0.00000000000E+00 0. -1.
          3    1    6    6  503    0  0.19436808740E+03 -0.97425361709E+02  0.15363516656E+03  0.26622249887E+03  0.00000000000E+00 0. -1.
         -1    1    5    5    0  502 -0.49849482536E+03 -0.28548120284E+03  0.51767872520E+03  0.77329675456E+03  0.00000000000E+00 0.  1.
         -3    1    6    6    0  503  0.69654053985E+02 -0.10359949687E+03  0.12873909797E+03  0.17932734966E+03  0.00000000000E+00 0.  1.
<mgrwt>
<rscale>  0 0.19992010E+04</rscale>
<asrwt>0</asrwt>
<pdfrwt beam="1">  1        2 0.36270845E+00 0.19992010E+04</pdfrwt>
<pdfrwt beam="2">  1       -2 0.65203146E-01 0.19992010E+04</pdfrwt>
<totfact> 0.84721755E+00</totfact>
</mgrwt>
</event>
<event>
12    1  0.4967442E-008  0.2365954E+04  0.7818608E-02  0.8452361E-01
          1   -1    0    0  501    0  0.00000000000E+00  0.00000000000E+00  0.10990241053E+04  0.10990241053E+04  0.00000000000E+00 0. -1.
         -1   -1    0    0    0  501 -0.00000000000E+00 -0.00000000000E+00 -0.12733424951E+04  0.12733424951E+04  0.00000000000E+00 0.  1.
         23    2    1    2    0    0  0.72499161515E+03 -0.50223045966E+03 -0.57108945449E+03  0.10546474115E+04  0.91047904707E+02 0.  0.
        254    2    1    2    0    0 -0.72499161515E+03  0.50223045966E+03  0.39677106474E+03  0.13177191889E+04  0.89504653866E+03 0.  0.
         23    2    4    4    0    0  0.55203211553E+02  0.45048901180E+03  0.21272680977E+03  0.50934695592E+03  0.90520061794E+02 0.  0.
         23    2    4    4    0    0 -0.78019482670E+03  0.51741447866E+02  0.18404425497E+03  0.80837223299E+03  0.90621378557E+02 0.  0.
         13    1    3    3    0    0  0.62167140687E+03 -0.46495800178E+03 -0.48845626498E+03  0.91719725487E+03  0.00000000000E+00 0.  1.
        -13    1    3    3    0    0  0.10332020828E+03 -0.37272457879E+02 -0.82633189512E+02  0.13745015665E+03  0.00000000000E+00 0. -1.
          1    1    5    5  502    0  0.31798314683E+02  0.36193090085E+03  0.12988494341E+03  0.38584350238E+03  0.00000000000E+00 0. -1.
          3    1    6    6  503    0 -0.66200540018E+03  0.35756968772E+02  0.12260544983E+03  0.67421198966E+03  0.00000000000E+00 0. -1.
         -1    1    5    5    0  502  0.23404896870E+02  0.88558110954E+02  0.82841866362E+02  0.12350345354E+03  0.00000000000E+00 0.  1.
         -3    1    6    6    0  503 -0.11818942653E+03  0.15984479094E+02  0.61438805133E+02  0.13416024333E+03  0.00000000000E+00 0.  1.
<mgrwt>
<rscale>  0 0.23659536E+04</rscale>
<asrwt>0</asrwt>
<pdfrwt beam="1">  1        1 0.16908063E+00 0.23659536E+04</pdfrwt>
<pdfrwt beam="2">  1       -1 0.19589884E+00 0.23659536E+04</pdfrwt>
<totfact> 0.18341459E+00</totfact>
</mgrwt>
</event>
<event>
12    1  0.4967442E-008  0.1700424E+04  0.7818608E-02  0.8761123E-01
          2   -1    0    0  501    0  0.00000000000E+00  0.00000000000E+00  0.24499996203E+04  0.24499996203E+04  0.00000000000E+00 0. -1.
         -2   -1    0    0    0  501 -0.00000000000E+00 -0.00000000000E+00 -0.29504497239E+03  0.29504497239E+03  0.00000000000E+00 0.  1.
         23    2    1    2    0    0  0.58115462622E+03  0.18448641861E+03  0.71476030355E+03  0.94397583412E+03  0.91826715307E+02 0.  0.
        254    2    1    2    0    0 -0.58115462622E+03 -0.18448641861E+03  0.14401943444E+04  0.18010687586E+04  0.89325975244E+03 0.  0.
         23    2    4    4    0    0 -0.23846662381E+03 -0.10923079815E+03 -0.36157068070E+02  0.28081238844E+03  0.93544459996E+02 0.  0.
         23    2    4    4    0    0 -0.34268800241E+03 -0.75255620460E+02  0.14763514125E+04  0.15202563701E+04  0.92018816042E+02 0.  0.
         13    1    3    3    0    0  0.12628144170E+03  0.81161459380E+02  0.16969442824E+03  0.22656209741E+03  0.00000000000E+00 0. -1.
        -13    1    3    3    0    0  0.45487318452E+03  0.10332495923E+03  0.54506587530E+03  0.71741373670E+03  0.00000000000E+00 0.  1.
          1    1    5    5  502    0 -0.10708352580E+03 -0.23144890544E+02  0.24794300803E+02  0.11232686593E+03  0.00000000000E+00 0. -1.
          3    1    6    6  503    0 -0.96287674684E+02 -0.25816037735E+02  0.61369608470E+03  0.62174003287E+03  0.00000000000E+00 0. -1.
         -1    1    5    5    0  502 -0.13138309801E+03 -0.86085907603E+02 -0.60951368873E+02  0.16848552252E+03  0.00000000000E+00 0.  1.
         -3    1    6    6    0  503 -0.24640032773E+03 -0.49439582725E+02  0.86265532776E+03  0.89851633728E+03  0.00000000000E+00 0.  1.
<mgrwt>
<rscale>  0 0.17004236E+04</rscale>
<asrwt>0</asrwt>
<pdfrwt beam="1">  1        2 0.37692301E+00 0.17004236E+04</pdfrwt>
<pdfrwt beam="2">  1       -2 0.45391536E-01 0.17004236E+04</pdfrwt>
<totfact> 0.16317902E+01</totfact>
</mgrwt>
</event>
<event>
12    1  0.4967442E-008  0.1472197E+04  0.7818608E-02  0.8903155E-01
         -1   -1    0    0    0  501 -0.00000000000E+00  0.00000000000E+00  0.26365589423E+03  0.26365589423E+03  0.00000000000E+00 0.  1.
          1   -1    0    0  501    0  0.00000000000E+00 -0.00000000000E+00 -0.20551059602E+04  0.20551059602E+04  0.00000000000E+00 0. -1.
         23    2    1    2    0    0 -0.23164924519E+03 -0.21836093166E+03 -0.55563000975E+02  0.33556452346E+03  0.90407040944E+02 0.  0.
        254    2    1    2    0    0  0.23164924519E+03  0.21836093166E+03 -0.17358870650E+04  0.19831973310E+04  0.90466838226E+03 0.  0.
         23    2    4    4    0    0  0.27094262074E+03  0.50476563867E+03 -0.72959933607E+03  0.93213878439E+03  0.91483705952E+02 0.  0.
         23    2    4    4    0    0 -0.39293375552E+02 -0.28640470701E+03 -0.10062877289E+04  0.10510585466E+04  0.92398319155E+02 0.  0.
         13    1    3    3    0    0 -0.12470315760E+03 -0.84787466359E+02  0.12716747201E+02  0.15133244076E+03  0.00000000000E+00 0.  1.
        -13    1    3    3    0    0 -0.10694608759E+03 -0.13357346530E+03 -0.68279748176E+02  0.18423208270E+03  0.00000000000E+00 0. -1.
          2    1    5    5  502    0  0.29779116508E+02  0.12059514513E+03 -0.12413992582E+03  0.17561522141E+03  0.00000000000E+00 0. -1.
          4    1    6    6  503    0  0.11640372978E+02 -0.10370356929E+03 -0.49113902953E+03  0.50210305207E+03  0.00000000000E+00 0. -1.
         -2    1    5    5    0  502  0.24116350423E+03  0.38417049354E+03 -0.60545941026E+03  0.75652356298E+03  0.00000000000E+00 0.  1.
         -4    1    6    6    0  503 -0.50933748530E+02 -0.18270113771E+03 -0.51514869941E+03  0.54895549452E+03  0.00000000000E+00 0.  1.
<mgrwt>
<rscale>  0 0.14721967E+04</rscale>
<asrwt>0</asrwt>
<pdfrwt beam="1">  1        1 0.31617014E+00 0.14721967E+04</pdfrwt>
<pdfrwt beam="2">  1       -1 0.40562447E-01 0.14721967E+04</pdfrwt>
<totfact> 0.15749893E+01</totfact>
</mgrwt>
</event>
<event>
12    1  0.4967442E-008  0.1866431E+04  0.7818608E-02  0.8671749E-01
         -2   -1    0    0    0  501 -0.00000000000E+00  0.00000000000E+00  0.35226080129E+03  0.35226080129E+03  0.00000000000E+00 0. -1.
          2   -1    0    0  501    0  0.00000000000E+00 -0.00000000000E+00 -0.24722899440E+04  0.24722899440E+04  0.00000000000E+00 0.  1.
         23    2    1    2    0    0  0.66158498273E+03  0.18776166389E+03 -0.11072684877E+04  0.13064052170E+04  0.87760784524E+02 0.  0.
        254    2    1    2    0    0 -0.66158498273E+03 -0.18776166389E+03 -0.10127606551E+04  0.15181455284E+04  0.89784885644E+03 0.  0.
         23    2    4    4    0    0  0.21440602787E+03 -0.38915891134E+02 -0.17531318227E+03  0.29379770067E+03  0.89988808586E+02 0.  0.
         23    2    4    4    0    0 -0.87599101061E+03 -0.14884577276E+03 -0.83744747279E+03  0.12243478277E+04  0.90520819404E+02 0.  0.
         11    1    3    3    0    0  0.23501835761E+03  0.88081960848E+02 -0.47469126936E+03  0.53695796991E+03  0.00000000000E+00 0.  1.
        -11    1    3    3    0    0  0.42656662512E+03  0.99679703042E+02 -0.63257721831E+03  0.76944724705E+03  0.00000000000E+00 0. -1.
          2    1    5    5  502    0  0.59109061784E+02 -0.43565364768E+01 -0.10344733881E+03  0.11922337230E+03  0.00000000000E+00 0. -1.
          1    1    6    6  503    0 -0.61899645196E+03 -0.14420031267E+03 -0.61532932744E+03  0.88463581146E+03  0.00000000000E+00 0. -1.
         -2    1    5    5    0  502  0.15529696609E+03 -0.34559354657E+02 -0.71865843459E+02  0.17457432837E+03  0.00000000000E+00 0.  1.
         -1    1    6    6    0  503 -0.25699455865E+03 -0.46454600884E+01 -0.22211814535E+03  0.33971201622E+03  0.00000000000E+00 0.  1.
<mgrwt>
<rscale>  0 0.18664306E+04</rscale>
<asrwt>0</asrwt>
<pdfrwt beam="1">  1        2 0.38035229E+00 0.18664306E+04</pdfrwt>
<pdfrwt beam="2">  1       -2 0.54193970E-01 0.18664306E+04</pdfrwt>
<totfact> 0.10883751E+01</totfact>
</mgrwt>
</event>
<event>
12    1  0.4967442E-008  0.3112720E+04  0.7818608E-02  0.8212256E-01
         -2   -1    0    0    0  501 -0.00000000000E+00  0.00000000000E+00  0.15817183177E+04  0.15817183177E+04  0.00000000000E+00 0.  1.
          2   -1    0    0  501    0  0.00000000000E+00 -0.00000000000E+00 -0.15314084071E+04  0.15314084071E+04  0.00000000000E+00 0. -1.
         23    2    1    2    0    0 -0.54577839041E+03 -0.10417066318E+04  0.79087926176E+03  0.14201690512E+04  0.91451458736E+02 0.  0.
        254    2    1    2    0    0  0.54577839041E+03  0.10417066318E+04 -0.74056935114E+03  0.16929576735E+04  0.96676572264E+03 0.  0.
         23    2    4    4    0    0  0.32106144459E+03  0.64364863693E+03 -0.93890429479E+03  0.11864477275E+04  0.93557021169E+02 0.  0.
         23    2    4    4    0    0  0.22471694581E+03  0.39805799483E+03  0.19833494365E+03  0.50650994607E+03  0.90926908087E+02 0.  0.
         13    1    3    3    0    0 -0.51731132073E+03 -0.94539351024E+03  0.74246695307E+03  0.13086776028E+04  0.00000000000E+00 0.  1.
        -13    1    3    3    0    0 -0.28467069675E+02 -0.96313121518E+02  0.48412308690E+02  0.11149144839E+03  0.00000000000E+00 0. -1.
          1    1    6    6  502    0  0.18233271450E+03  0.24730554589E+03  0.10774872980E+03  0.32559950949E+03  0.00000000000E+00 0. -1.
          1    1    5    5  503    0  0.37485726406E+02  0.13706444214E+03 -0.14608539139E+03  0.20379593362E+03  0.00000000000E+00 0.  1.
         -1    1    5    5    0  503  0.28357571819E+03  0.50658419478E+03 -0.79281890340E+03  0.98265179384E+03  0.00000000000E+00 0. -1.
         -1    1    6    6    0  502  0.42384231311E+02  0.15075244894E+03  0.90586213852E+02  0.18091043659E+03  0.00000000000E+00 0.  1.
<mgrwt>
<rscale>  0 0.31127202E+04</rscale>
<asrwt>0</asrwt>
<pdfrwt beam="1">  1        2 0.23560129E+00 0.31127202E+04</pdfrwt>
<pdfrwt beam="2">  1       -2 0.24334128E+00 0.31127202E+04</pdfrwt>
<totfact> 0.73004990E-01</totfact>
</mgrwt>
</event>
<event>
12    1  0.4967442E-008  0.1678919E+04  0.7818608E-02  0.8773480E-01
          2   -1    0    0  501    0  0.00000000000E+00  0.00000000000E+00  0.20846915567E+04  0.20846915567E+04  0.00000000000E+00 0. -1.
         -2   -1    0    0    0  501 -0.00000000000E+00 -0.00000000000E+00 -0.33803206097E+03  0.33803206097E+03  0.00000000000E+00 0.  1.
         23    2    1    2    0    0  0.48124819839E+03  0.12340766817E+03  0.10108353665E+04  0.11301230939E+04  0.92524528015E+02 0.  0.
        254    2    1    2    0    0 -0.48124819839E+03 -0.12340766817E+03  0.73582412926E+03  0.12926005238E+04  0.93944115506E+03 0.  0.
         23    2    4    4    0    0 -0.12498820889E+03 -0.17955737247E+03  0.86701502792E+03  0.89877024840E+03  0.90609041465E+02 0.  0.
         23    2    4    4    0    0 -0.35625998950E+03  0.56149704309E+02 -0.13119089867E+03  0.39383027536E+03  0.88415295529E+02 0.  0.
         13    1    3    3    0    0  0.31799661818E+03  0.77656768090E+02  0.75850684484E+03  0.82612653781E+03  0.00000000000E+00 0.  1.
        -13    1    3    3    0    0  0.16325158020E+03  0.45750900075E+02  0.25232852164E+03  0.30399655612E+03  0.00000000000E+00 0. -1.
          4    1    5    5  502    0 -0.79114701679E+02 -0.16949034351E+03  0.63151926107E+03  0.65863699385E+03  0.00000000000E+00 0. -1.
          3    1    6    6  503    0 -0.40047785926E+02 -0.10731842286E+02  0.74801838597E+01  0.42130164337E+02  0.00000000000E+00 0. -1.
         -4    1    5    5    0  502 -0.45873507209E+02 -0.10067028966E+02  0.23549576685E+03  0.24013325455E+03  0.00000000000E+00 0.  1.
         -3    1    6    6    0  503 -0.31621220357E+03  0.66881546595E+02 -0.13867108253E+03  0.35170011102E+03  0.00000000000E+00 0.  1.
<mgrwt>
<rscale>  0 0.16789194E+04</rscale>
<asrwt>0</asrwt>
<pdfrwt beam="1">  1        2 0.32072177E+00 0.16789194E+04</pdfrwt>
<pdfrwt beam="2">  1       -2 0.52004934E-01 0.16789194E+04</pdfrwt>
<totfact> 0.19946111E+01</totfact>
</mgrwt>
</event>
<event>
12    1  0.4967442E-008  0.1263854E+04  0.7818608E-02  0.9058731E-01
         -1   -1    0    0    0  501 -0.00000000000E+00  0.00000000000E+00  0.29706314746E+03  0.29706314746E+03  0.00000000000E+00 0.  1.
          1   -1    0    0  501    0  0.00000000000E+00 -0.00000000000E+00 -0.13442655188E+04  0.13442655188E+04  0.00000000000E+00 0. -1.
         23    2    1    2    0    0  0.19907598788E+03 -0.14282192666E+03 -0.11552350676E+03  0.28544052614E+03  0.90007008948E+02 0.  0.
        254    2    1    2    0    0 -0.19907598788E+03  0.14282192666E+03 -0.93167886456E+03  0.13558881401E+04  0.95413719671E+03 0.  0.
         23    2    4    4    0    0 -0.52443146907E+01  0.16800733565E+03 -0.10791089265E+04  0.10960855598E+04  0.93131688826E+02 0.  0.
         23    2    4    4    0    0 -0.19383167319E+03 -0.25185408990E+02  0.14743006195E+03  0.25980258032E+03  0.86929484146E+02 0.  0.
         11    1    3    3    0    0  0.10546644119E+03 -0.11424496793E+03 -0.36659284828E+02  0.15974663088E+03  0.00000000000E+00 0.  1.
        -11    1    3    3    0    0  0.93609546698E+02 -0.28576958732E+02 -0.78864221936E+02  0.12569389526E+03  0.00000000000E+00 0. -1.
          1    1    5    5  502    0 -0.14557035812E+02  0.32775406617E+00 -0.27170439413E+02  0.30826084608E+02  0.00000000000E+00 0. -1.
          1    1    6    6  503    0 -0.12646273527E+02  0.52018997743E+01 -0.10732885877E+02  0.17383406877E+02  0.00000000000E+00 0. -1.
         -1    1    5    5    0  502  0.93127211208E+01  0.16767958159E+03 -0.10519384871E+04  0.10652594752E+04  0.00000000000E+00 0.  1.
         -1    1    6    6    0  503 -0.18118539967E+03 -0.30387308764E+02  0.15816294782E+03  0.24241917344E+03  0.00000000000E+00 0.  1.
<mgrwt>
<rscale>  0 0.12638540E+04</rscale>
<asrwt>0</asrwt>
<pdfrwt beam="1">  1        1 0.20681008E+00 0.12638540E+04</pdfrwt>
<pdfrwt beam="2">  1       -1 0.45702022E-01 0.12638540E+04</pdfrwt>
<totfact> 0.39413918E+01</totfact>
</mgrwt>
</event>
<event>
12    1  0.4967442E-008  0.1755607E+04  0.7818608E-02  0.8730270E-01
          4   -1    0    0  501    0  0.00000000000E+00  0.00000000000E+00  0.68644396889E+03  0.68644396889E+03  0.00000000000E+00 0. -1.
         -4   -1    0    0    0  501 -0.00000000000E+00 -0.00000000000E+00 -0.11225087435E+04  0.11225087435E+04  0.00000000000E+00 0.  1.
         23    2    1    2    0    0  0.47295638720E+03  0.14691791397E+03 -0.58570743015E+03  0.77251822056E+03  0.91970591630E+02 0.  0.
        254    2    1    2    0    0 -0.47295638720E+03 -0.14691791397E+03  0.14964265557E+03  0.10364344918E+04  0.89807066192E+03 0.  0.
         23    2    4    4    0    0 -0.67752467591E+01 -0.44322585793E+03 -0.14779248050E+02  0.45251523210E+03  0.89758253128E+02 0.  0.
         23    2    4    4    0    0 -0.46618114044E+03  0.29630794396E+03  0.16442190362E+03  0.58391925971E+03  0.93829025961E+02 0.  0.
         11    1    3    3    0    0  0.24889803787E+03  0.69734553857E+02 -0.23557050083E+03  0.34972360818E+03  0.00000000000E+00 0. -1.
        -11    1    3    3    0    0  0.22405834933E+03  0.77183360115E+02 -0.35013692932E+03  0.42279461238E+03  0.00000000000E+00 0.  1.
          2    1    5    5  502    0  0.23679572782E+01 -0.36436346933E+03 -0.45883797517E+02  0.36724878200E+03  0.00000000000E+00 0.  1.
          1    1    6    6  503    0 -0.22021546228E+03  0.85170346250E+02  0.66713407220E+02  0.24535589745E+03  0.00000000000E+00 0. -1.
         -2    1    5    5    0  502 -0.91432040373E+01 -0.78862388598E+02  0.31104549468E+02  0.85266450102E+02  0.00000000000E+00 0. -1.
         -1    1    6    6    0  503 -0.24596567816E+03  0.21113759771E+03  0.97708496399E+02  0.33856336226E+03  0.00000000000E+00 0.  1.
<mgrwt>
<rscale>  0 0.17556074E+04</rscale>
<asrwt>0</asrwt>
<pdfrwt beam="1">  1        4 0.10560676E+00 0.17556074E+04</pdfrwt>
<pdfrwt beam="2">  1       -4 0.17269365E+00 0.17556074E+04</pdfrwt>
<totfact> 0.27771070E-01</totfact>
</mgrwt>
</event>
<event>
12    1  0.4967442E-008  0.1034500E+04  0.7818608E-02  0.9271494E-01
          1   -1    0    0  501    0  0.00000000000E+00  0.00000000000E+00  0.11579360077E+04  0.11579360077E+04  0.00000000000E+00 0. -1.
         -1   -1    0    0    0  501 -0.00000000000E+00 -0.00000000000E+00 -0.23105578629E+03  0.23105578629E+03  0.00000000000E+00 0.  1.
         23    2    1    2    0    0 -0.52917821768E+02  0.45647126591E+02  0.42551122650E+02  0.12195681300E+03  0.90437327313E+02 0.  0.
        254    2    1    2    0    0  0.52917821768E+02 -0.45647126591E+02  0.88432909876E+03  0.12670349810E+04  0.90468543269E+03 0.  0.
         23    2    4    4    0    0  0.28731293552E+03  0.20719589762E+03  0.82871235418E+03  0.90590714443E+03  0.91786303195E+02 0.  0.
         23    2    4    4    0    0 -0.23439511375E+03 -0.25284302421E+03  0.55616744578E+02  0.36112783656E+03  0.91920769261E+02 0.  0.
         13    1    3    3    0    0 -0.15404295731E+02  0.67533379465E+02  0.35902956682E+02  0.78019689614E+02  0.00000000000E+00 0.  1.
        -13    1    3    3    0    0 -0.37513526037E+02 -0.21886252875E+02  0.66481659677E+01  0.43937123385E+02  0.00000000000E+00 0. -1.
          2    1    5    5  502    0  0.24870281623E+03  0.19974942085E+03  0.66513965206E+03  0.73767450726E+03  0.00000000000E+00 0. -1.
          3    1    6    6  503    0 -0.97471956229E+02 -0.56865573720E+02  0.46001821198E+02  0.12186321545E+03  0.00000000000E+00 0. -1.
         -2    1    5    5    0  502  0.38610119288E+02  0.74464767666E+01  0.16357270212E+03  0.16823263716E+03  0.00000000000E+00 0.  1.
         -3    1    6    6    0  503 -0.13692315752E+03 -0.19597745049E+03  0.96149233796E+01  0.23926462111E+03  0.00000000000E+00 0.  1.
<mgrwt>
<rscale>  0 0.10345005E+04</rscale>
<asrwt>0</asrwt>
<pdfrwt beam="1">  1        1 0.17814400E+00 0.10345005E+04</pdfrwt>
<pdfrwt beam="2">  1       -1 0.35547045E-01 0.10345005E+04</pdfrwt>
<totfact> 0.86566937E+01</totfact>
</mgrwt>
</event>
<event>
12    1  0.4967442E-008  0.2282114E+04  0.7818608E-02  0.8485007E-01
         -2   -1    0    0    0  501 -0.00000000000E+00  0.00000000000E+00  0.71573960345E+03  0.71573960345E+03  0.00000000000E+00 0. -1.
          2   -1    0    0  501    0  0.00000000000E+00 -0.00000000000E+00 -0.18191134765E+04  0.18191134765E+04  0.00000000000E+00 0.  1.
         23    2    1    2    0    0 -0.70816346580E+03  0.17207319105E+03 -0.12196045105E+04  0.14236791334E+04  0.91227382915E+02 0.  0.
        254    2    1    2    0    0  0.70816346580E+03 -0.17207319105E+03  0.11623063743E+03  0.11111739466E+04  0.83071854510E+03 0.  0.
         23    2    4    4    0    0  0.35212650285E+03 -0.19850806321E+02 -0.34438307997E+03  0.50246353012E+03  0.97379488673E+02 0.  0.
         23    2    4    4    0    0  0.35603696294E+03 -0.15222238473E+03  0.46061371740E+03  0.60871041648E+03  0.91811769845E+02 0.  0.
         11    1    3    3    0    0 -0.59004449200E+03  0.16695685795E+03 -0.97146824541E+03  0.11488157584E+04  0.00000000000E+00 0.  1.
        -11    1    3    3    0    0 -0.11811897380E+03  0.51163330931E+01 -0.24813626509E+03  0.27486337495E+03  0.00000000000E+00 0. -1.
          2    1    5    5  502    0  0.13201730185E+03 -0.52304715991E+02 -0.15581575855E+03  0.21081485222E+03  0.00000000000E+00 0. -1.
          4    1    6    6  503    0  0.27173819872E+03 -0.71310834530E+02  0.31727989636E+03  0.42378463445E+03  0.00000000000E+00 0. -1.
         -2    1    5    5    0  502  0.22010920100E+03  0.32453909670E+02 -0.18856732142E+03  0.29164867791E+03  0.00000000000E+00 0.  1.
         -4    1    6    6    0  503  0.84298764226E+02 -0.80911550196E+02  0.14333382104E+03  0.18492578203E+03  0.00000000000E+00 0.  1.
<mgrwt>
<rscale>  0 0.22821144E+04</rscale>
<asrwt>0</asrwt>
<pdfrwt beam="1">  1        2 0.27986361E+00 0.22821144E+04</pdfrwt>
<pdfrwt beam="2">  1       -2 0.11011379E+00 0.22821144E+04</pdfrwt>
<totfact> 0.50107084E+00</totfact>
</mgrwt>
</event>
<event>
12    1  0.4967442E-008  0.1341755E+04  0.7818608E-02  0.8997093E-01
          1   -1    0    0  501    0  0.00000000000E+00  0.00000000000E+00  0.10340000049E+04  0.10340000049E+04  0.00000000000E+00 0. -1.
         -1   -1    0    0    0  501 -0.00000000000E+00 -0.00000000000E+00 -0.43527724875E+03  0.43527724875E+03  0.00000000000E+00 0.  1.
         23    2    1    2    0    0  0.39153612109E+03  0.36305149854E+02  0.41481013447E+02  0.40481710975E+03  0.86819467010E+02 0.  0.
        254    2    1    2    0    0 -0.39153612109E+03 -0.36305149854E+02  0.55724174273E+03  0.10644601439E+04  0.81727500887E+03 0.  0.
         23    2    4    4    0    0 -0.19363579834E+03  0.32938762937E+03  0.49847932345E+03  0.63463891018E+03  0.91070728761E+02 0.  0.
         23    2    4    4    0    0 -0.19790032275E+03 -0.36569277922E+03  0.58762419287E+02  0.42982123373E+03  0.91638008117E+02 0.  0.
         13    1    3    3    0    0  0.10092610455E+03 -0.40280408099E+01  0.46917379072E+02  0.11137119983E+03  0.00000000000E+00 0. -1.
        -13    1    3    3    0    0  0.29061001654E+03  0.40333190664E+02 -0.54363656252E+01  0.29344590993E+03  0.00000000000E+00 0.  1.
          2    1    5    5  502    0 -0.17722674180E+03  0.33044859847E+03  0.46511374938E+03  0.59744154032E+03  0.00000000000E+00 0. -1.
          1    1    6    6  503    0 -0.29867312880E+02 -0.30727589822E+02 -0.19350485052E+02  0.47017894750E+02  0.00000000000E+00 0. -1.
         -2    1    5    5    0  502 -0.16409056538E+02 -0.10609691011E+01  0.33365574066E+02  0.37197369863E+02  0.00000000000E+00 0.  1.
         -1    1    6    6    0  503 -0.16803300987E+03 -0.33496518940E+03  0.78112904339E+02  0.38280333899E+03  0.00000000000E+00 0.  1.
<mgrwt>
<rscale>  0 0.13417551E+04</rscale>
<asrwt>0</asrwt>
<pdfrwt beam="1">  1        1 0.15907692E+00 0.13417551E+04</pdfrwt>
<pdfrwt beam="2">  1       -1 0.66965731E-01 0.13417551E+04</pdfrwt>
<totfact> 0.31505181E+01</totfact>
</mgrwt>
</event>
<event>
12    1  0.4967442E-008  0.1440015E+04  0.7818608E-02  0.8925352E-01
         -2   -1    0    0    0  501 -0.00000000000E+00  0.00000000000E+00  0.22749502342E+04  0.22749502342E+04  0.00000000000E+00 0.  1.
          2   -1    0    0  501    0  0.00000000000E+00 -0.00000000000E+00 -0.22787798378E+03  0.22787798378E+03  0.00000000000E+00 0. -1.
         23    2    1    2    0    0  0.22201462964E+02 -0.39519056121E+03  0.33465839433E+03  0.52587983716E+03  0.88796833313E+02 0.  0.
        254    2    1    2    0    0 -0.22201462964E+02  0.39519056121E+03  0.17124138561E+04  0.19769483809E+04  0.90514927019E+03 0.  0.
         23    2    4    4    0    0  0.36755490777E+03  0.36472153594E+03  0.62114731355E+03  0.81420642966E+03  0.94814112719E+02 0.  0.
         23    2    4    4    0    0 -0.38975637073E+03  0.30469025271E+02  0.10912665426E+04  0.11627419512E+04  0.90927378281E+02 0.  0.
         13    1    3    3    0    0  0.75130562507E+01 -0.38992268490E+03  0.32011911908E+03  0.50455167884E+03  0.00000000000E+00 0. -1.
        -13    1    3    3    0    0  0.14688406713E+02 -0.52678763060E+01  0.14539275254E+02  0.21328158323E+02  0.00000000000E+00 0.  1.
          1    1    5    5  502    0  0.36432584061E+03  0.36862231938E+03  0.62136033715E+03  0.80913806057E+03  0.00000000000E+00 0. -1.
          3    1    6    6  503    0 -0.27089695732E+03  0.23883516964E+01  0.63416625338E+03  0.68960691893E+03  0.00000000000E+00 0. -1.
         -1    1    5    5    0  502  0.32290671618E+01 -0.39007834387E+01 -0.21302360570E+00  0.50683690896E+01  0.00000000000E+00 0.  1.
         -3    1    6    6    0  503 -0.11885941342E+03  0.28080673575E+02  0.45710028919E+03  0.47313503227E+03  0.00000000000E+00 0.  1.
<mgrwt>
<rscale>  0 0.14400154E+04</rscale>
<asrwt>0</asrwt>
<pdfrwt beam="1">  1        2 0.35058153E-01 0.14400154E+04</pdfrwt>
<pdfrwt beam="2">  1       -2 0.34999233E+00 0.14400154E+04</pdfrwt>
<totfact> 0.22738208E+00</totfact>
</mgrwt>
</event>
<event>
12    1  0.4967442E-008  0.1786825E+04  0.7818608E-02  0.8713337E-01
         -1   -1    0    0    0  501 -0.00000000000E+00  0.00000000000E+00  0.13202332329E+04  0.13202332329E+04  0.00000000000E+00 0.  1.
          1   -1    0    0  501    0  0.00000000000E+00 -0.00000000000E+00 -0.60457973441E+03  0.60457973441E+03  0.00000000000E+00 0. -1.
         23    2    1    2    0    0 -0.62595871896E+02 -0.65720943759E+03  0.16881699223E+03  0.68731227119E+03  0.89757970251E+02 0.  0.
        254    2    1    2    0    0  0.62595871896E+02  0.65720943759E+03  0.54683650625E+03  0.12375006961E+04  0.89248827459E+03 0.  0.
         23    2    4    4    0    0  0.30377220143E+03  0.76672540689E+03  0.40863231454E+03  0.92482143980E+03  0.90382117072E+02 0.  0.
         23    2    4    4    0    0 -0.24117632954E+03 -0.10951596930E+03  0.13820419171E+03  0.31267925631E+03  0.92239629568E+02 0.  0.
         11    1    3    3    0    0  0.29441818349E+01 -0.17389266139E+03  0.80483911025E+02  0.19163764199E+03  0.00000000000E+00 0.  1.
        -11    1    3    3    0    0 -0.65540053730E+02 -0.48331677620E+03  0.88333081207E+02  0.49567462920E+03  0.00000000000E+00 0. -1.
          2    1    5    5  502    0  0.29757909862E+03  0.76238472639E+03  0.39390283881E+03  0.90826385891E+03  0.00000000000E+00 0. -1.
          1    1    6    6  503    0 -0.23345881604E+03 -0.11025854735E+03  0.10523188361E+03  0.27880766736E+03  0.00000000000E+00 0. -1.
         -2    1    5    5    0  502  0.61931028090E+01  0.43406805004E+01  0.14729475736E+02  0.16557580894E+02  0.00000000000E+00 0.  1.
         -1    1    6    6    0  503 -0.77175134948E+01  0.74257805090E+00  0.32972308101E+02  0.33871588953E+02  0.00000000000E+00 0.  1.
<mgrwt>
<rscale>  0 0.17868254E+04</rscale>
<asrwt>0</asrwt>
<pdfrwt beam="1">  1        1 0.93012267E-01 0.17868254E+04</pdfrwt>
<pdfrwt beam="2">  1       -1 0.20311280E+00 0.17868254E+04</pdfrwt>
<totfact> 0.45832030E+00</totfact>
</mgrwt>
</event>
<event>
12    1  0.4967442E-008  0.2005041E+04  0.7818608E-02  0.8604268E-01
         -4   -1    0    0    0  501 -0.00000000000E+00  0.00000000000E+00  0.33474840185E+03  0.33474840185E+03  0.00000000000E+00 0.  1.
          4   -1    0    0  501    0  0.00000000000E+00 -0.00000000000E+00 -0.30023956475E+04  0.30023956475E+04  0.00000000000E+00 0. -1.
         23    2    1    2    0    0 -0.15226616551E+03  0.66175806478E+03 -0.17852124528E+04  0.19121546396E+04  0.90791752522E+02 0.  0.
        254    2    1    2    0    0  0.15226616551E+03 -0.66175806478E+03 -0.88243479284E+03  0.14249894098E+04  0.88926651407E+03 0.  0.
         23    2    4    4    0    0 -0.15430943839E+01  0.15578052390E+03  0.34106089000E+02  0.18387462086E+03  0.91524303443E+02 0.  0.
         23    2    4    4    0    0  0.15380925989E+03 -0.81753858869E+03 -0.91654088184E+03  0.12411147890E+04  0.91060962570E+02 0.  0.
         13    1    3    3    0    0 -0.78408605842E+02  0.38936178225E+03 -0.11622745586E+04  0.12282640826E+04  0.00000000000E+00 0.  1.
        -13    1    3    3    0    0 -0.73857559666E+02  0.27239628254E+03 -0.62293789421E+03  0.68389055696E+03  0.00000000000E+00 0. -1.
          1    1    6    6  502    0  0.15127308848E+03 -0.58833626898E+03 -0.65449728854E+03  0.89296686019E+03  0.00000000000E+00 0. -1.
          1    1    5    5  503    0 -0.35743151440E+02  0.81593346375E+02 -0.12298321451E+02  0.89923833092E+02  0.00000000000E+00 0. -1.
         -1    1    5    5    0  503  0.34200057056E+02  0.74187177529E+02  0.46404410451E+02  0.93950787766E+02  0.00000000000E+00 0.  1.
         -1    1    6    6    0  502  0.25361714075E+01 -0.22920231970E+03 -0.26204359331E+03  0.34814792878E+03  0.00000000000E+00 0.  1.
<mgrwt>
<rscale>  0 0.20050408E+04</rscale>
<asrwt>0</asrwt>
<pdfrwt beam="1">  1        4 0.46190702E+00 0.20050408E+04</pdfrwt>
<pdfrwt beam="2">  1       -4 0.51499755E-01 0.20050408E+04</pdfrwt>
<totfact> 0.16328237E-02</totfact>
</mgrwt>
</event>
<event>
12    1  0.4967442E-008  0.1332530E+04  0.7818608E-02  0.9004159E-01
          2   -1    0    0  501    0  0.00000000000E+00  0.00000000000E+00  0.17509722714E+04  0.17509722714E+04  0.00000000000E+00 0. -1.
         -2   -1    0    0    0  501 -0.00000000000E+00 -0.00000000000E+00 -0.25352156302E+03  0.25352156302E+03  0.00000000000E+00 0.  1.
         23    2    1    2    0    0  0.19778665219E+03  0.15791390111E+02 -0.27508712150E+02  0.22335853294E+03  0.98809803185E+02 0.  0.
        254    2    1    2    0    0 -0.19778665219E+03 -0.15791390111E+02  0.15249594205E+04  0.17811353015E+04  0.89865054394E+03 0.  0.
         23    2    4    4    0    0 -0.31546313982E+03  0.36295659085E+03  0.62579693790E+03  0.79377356930E+03  0.84853947477E+02 0.  0.
         23    2    4    4    0    0  0.11767648763E+03 -0.37874798097E+03  0.89916248260E+03  0.98736173216E+03  0.95353191765E+02 0.  0.
         11    1    3    3    0    0  0.10340309957E+03 -0.40615036709E+01 -0.62343769959E+02  0.12081159905E+03  0.00000000000E+00 0.  1.
        -11    1    3    3    0    0  0.94383552622E+02  0.19852893782E+02  0.34835057809E+02  0.10254693389E+03  0.00000000000E+00 0. -1.
          1    1    5    5  502    0 -0.30977378937E+03  0.34880954407E+03  0.62294681598E+03  0.77826128912E+03  0.00000000000E+00 0. -1.
          1    1    6    6  503    0  0.10470255353E+03 -0.25536356122E+03  0.70326003465E+03  0.75547855658E+03  0.00000000000E+00 0. -1.
         -1    1    5    5    0  502 -0.56893504581E+01  0.14147046781E+02  0.28501219232E+01  0.15512280175E+02  0.00000000000E+00 0.  1.
         -1    1    6    6    0  503  0.12973934098E+02 -0.12338441974E+03  0.19590244795E+03  0.23188317558E+03  0.00000000000E+00 0.  1.
<mgrwt>
<rscale>  0 0.13325303E+04</rscale>
<asrwt>0</asrwt>
<pdfrwt beam="1">  1        2 0.26938034E+00 0.13325303E+04</pdfrwt>
<pdfrwt beam="2">  1       -2 0.39003318E-01 0.13325303E+04</pdfrwt>
<totfact> 0.55824569E+01</totfact>
</mgrwt>
</event>
<event>
12    1  0.4967442E-008  0.1457696E+04  0.7818608E-02  0.8913082E-01
         -1   -1    0    0    0  501 -0.00000000000E+00  0.00000000000E+00  0.31057859186E+03  0.31057859186E+03  0.00000000000E+00 0.  1.
          1   -1    0    0  501    0  0.00000000000E+00 -0.00000000000E+00 -0.17104184586E+04  0.17104184586E+04  0.00000000000E+00 0. -1.
         23    2    1    2    0    0  0.33181300130E+03  0.91329178083E+02 -0.79495379598E+03  0.87206071938E+03  0.10048618779E+03 0.  0.
        254    2    1    2    0    0 -0.33181300130E+03 -0.91329178083E+02 -0.60488607079E+03  0.11489363311E+04  0.91418086160E+03 0.  0.
         23    2    4    4    0    0 -0.32544113474E+03 -0.37980839070E+03 -0.44225144367E+02  0.51165894614E+03  0.98349722637E+02 0.  0.
         23    2    4    4    0    0 -0.63718665605E+01  0.28847921262E+03 -0.56066092642E+03  0.63727738497E+03  0.92308906315E+02 0.  0.
         13    1    3    3    0    0  0.22842110966E+03  0.83388376239E+02 -0.64868011872E+03  0.69275949727E+03  0.00000000000E+00 0. -1.
        -13    1    3    3    0    0  0.10339189164E+03  0.79408018440E+01 -0.14627367725E+03  0.17930122211E+03  0.00000000000E+00 0.  1.
          1    1    5    5  502    0 -0.22518360306E+03 -0.27006502484E+03 -0.75780691712E+02  0.35970194045E+03  0.00000000000E+00 0. -1.
          3    1    6    6  503    0  0.40515406066E+02  0.15505952975E+03 -0.26859373244E+03  0.31277395832E+03  0.00000000000E+00 0. -1.
         -1    1    5    5    0  502 -0.10025753169E+03 -0.10974336586E+03  0.31555547345E+02  0.15195700569E+03  0.00000000000E+00 0.  1.
         -3    1    6    6    0  503 -0.46887272626E+02  0.13341968287E+03 -0.29206719398E+03  0.32450342665E+03  0.00000000000E+00 0.  1.
<mgrwt>
<rscale>  0 0.14576959E+04</rscale>
<asrwt>0</asrwt>
<pdfrwt beam="1">  1        1 0.26314130E+00 0.14576959E+04</pdfrwt>
<pdfrwt beam="2">  1       -1 0.47781323E-01 0.14576959E+04</pdfrwt>
<totfact> 0.19913101E+01</totfact>
</mgrwt>
</event>
<event>
12    1  0.4967442E-008  0.3647945E+04  0.7818608E-02  0.8079597E-01
         -1   -1    0    0    0  501 -0.00000000000E+00  0.00000000000E+00  0.17208299020E+04  0.17208299020E+04  0.00000000000E+00 0.  1.
          1   -1    0    0  501    0  0.00000000000E+00 -0.00000000000E+00 -0.19332974358E+04  0.19332974358E+04  0.00000000000E+00 0. -1.
         23    2    1    2    0    0  0.11440878780E+04 -0.56293930724E+03  0.10423250054E+04  0.16494759865E+04  0.92151379596E+02 0.  0.
        254    2    1    2    0    0 -0.11440878780E+04  0.56293930724E+03 -0.12547925391E+04  0.20046513513E+04  0.90459106117E+03 0.  0.
         23    2    4    4    0    0 -0.15714193366E+03  0.10274409111E+03 -0.78934462949E+03  0.81674442258E+03  0.93576557633E+02 0.  0.
         23    2    4    4    0    0 -0.98694594435E+03  0.46019521612E+03 -0.46544790964E+03  0.11879069288E+04  0.92947193669E+02 0.  0.
         13    1    3    3    0    0  0.48907745286E+03 -0.20234337842E+03  0.47048380141E+03  0.70816283797E+03  0.00000000000E+00 0. -1.
        -13    1    3    3    0    0  0.65501042515E+03 -0.36059592882E+03  0.57184120399E+03  0.94131314849E+03  0.00000000000E+00 0.  1.
          1    1    6    6  502    0 -0.83675580031E+03  0.39202357765E+03 -0.43007417680E+03  0.10192185989E+04  0.00000000000E+00 0. -1.
          1    1    5    5  503    0 -0.15867868792E+03  0.10052999568E+03 -0.79137940184E+03  0.81336742232E+03  0.00000000000E+00 0. -1.
         -1    1    5    5    0  503  0.15367542597E+01  0.22140954336E+01  0.20347723513E+01  0.33770002614E+01  0.00000000000E+00 0.  1.
         -1    1    6    6    0  502 -0.15019014404E+03  0.68171638468E+02 -0.35373732833E+02  0.16868832986E+03  0.00000000000E+00 0.  1.
<mgrwt>
<rscale>  0 0.36479452E+04</rscale>
<asrwt>0</asrwt>
<pdfrwt beam="1">  1        1 0.29743037E+00 0.36479452E+04</pdfrwt>
<pdfrwt beam="2">  1       -1 0.26474306E+00 0.36479452E+04</pdfrwt>
<totfact> 0.14897175E-01</totfact>
</mgrwt>
</event>
<event>
12    1  0.4967442E-008  0.1941655E+04  0.7818608E-02  0.8634395E-01
         -2   -1    0    0    0  501 -0.00000000000E+00  0.00000000000E+00  0.69307538717E+03  0.69307538717E+03  0.00000000000E+00 0.  1.
          2   -1    0    0  501    0  0.00000000000E+00 -0.00000000000E+00 -0.13598901030E+04  0.13598901030E+04  0.00000000000E+00 0. -1.
         23    2    1    2    0    0 -0.40310713635E+03 -0.53286958889E+03 -0.67076853178E+03  0.95102085454E+03  0.89804679163E+02 0.  0.
        254    2    1    2    0    0  0.40310713635E+03  0.53286958889E+03  0.39538159024E+01  0.11019446357E+04  0.87625395022E+03 0.  0.
         23    2    4    4    0    0 -0.24885646799E+03  0.14873136995E+03 -0.12666156819E+03  0.32864433747E+03  0.88957212329E+02 0.  0.
         23    2    4    4    0    0  0.65196360435E+03  0.38413821894E+03  0.13061538409E+03  0.77330029820E+03  0.91182564046E+02 0.  0.
         11    1    3    3    0    0 -0.13271878577E+03 -0.11187576323E+03 -0.18414283051E+03  0.25305936956E+03  0.00000000000E+00 0.  1.
        -11    1    3    3    0    0 -0.27038835058E+03 -0.42099382566E+03 -0.48662570127E+03  0.69796148498E+03  0.00000000000E+00 0. -1.
          1    1    5    5  502    0 -0.24262316078E+03  0.15083762206E+03 -0.10236743446E+03  0.30347500394E+03  0.00000000000E+00 0. -1.
          1    1    6    6  503    0  0.39549233127E+03  0.23353917785E+03  0.33880317613E+02  0.46054598859E+03  0.00000000000E+00 0. -1.
         -1    1    5    5    0  502 -0.62333072104E+01 -0.21062521138E+01 -0.24294133728E+02  0.25169333530E+02  0.00000000000E+00 0.  1.
         -1    1    6    6    0  503  0.25647127308E+03  0.15059904109E+03  0.96735066482E+02  0.31275430961E+03  0.00000000000E+00 0.  1.
<mgrwt>
<rscale>  0 0.19416553E+04</rscale>
<asrwt>0</asrwt>
<pdfrwt beam="1">  1        2 0.20921386E+00 0.19416553E+04</pdfrwt>
<pdfrwt beam="2">  1       -2 0.10662698E+00 0.19416553E+04</pdfrwt>
<totfact> 0.10091985E+01</totfact>
</mgrwt>
</event>
<event>
12    1  0.4967442E-008  0.1246597E+04  0.7818608E-02  0.9073020E-01
         -2   -1    0    0    0  501 -0.00000000000E+00  0.00000000000E+00  0.32485392802E+03  0.32485392802E+03  0.00000000000E+00 0.  1.
          2   -1    0    0  501    0  0.00000000000E+00 -0.00000000000E+00 -0.11959249316E+04  0.11959249316E+04  0.00000000000E+00 0. -1.
         23    2    1    2    0    0 -0.24677209294E+03 -0.49829436520E+02 -0.36643451248E+03  0.45344896022E+03  0.89231547021E+02 0.  0.
        254    2    1    2    0    0  0.24677209294E+03  0.49829436520E+02 -0.50463649109E+03  0.10673298994E+04  0.90617641074E+03 0.  0.
         23    2    4    4    0    0 -0.16384797018E+03 -0.32000828777E+03 -0.27741287624E+03  0.46366092123E+03  0.93659406370E+02 0.  0.
         23    2    4    4    0    0  0.41062006313E+03  0.36983772429E+03 -0.22722361485E+03  0.60366897815E+03  0.86005148048E+02 0.  0.
         11    1    3    3    0    0 -0.12503959198E+02  0.37077914594E+01 -0.73072687445E+02  0.74227450203E+02  0.00000000000E+00 0. -1.
        -11    1    3    3    0    0 -0.23426813374E+03 -0.53537227979E+02 -0.29336182504E+03  0.37922151002E+03  0.00000000000E+00 0.  1.
          2    1    5    5  502    0 -0.24401595038E+02 -0.63209271471E+02 -0.11817309468E+02  0.68778620540E+02  0.00000000000E+00 0. -1.
          3    1    6    6  503    0  0.14178270595E+03  0.77794655657E+02 -0.78643596377E+02  0.17983091894E+03  0.00000000000E+00 0. -1.
         -2    1    5    5    0  502 -0.13944637514E+03 -0.25679901630E+03 -0.26559556677E+03  0.39488230069E+03  0.00000000000E+00 0.  1.
         -3    1    6    6    0  503  0.26883735718E+03  0.29204306863E+03 -0.14858001847E+03  0.42383805922E+03  0.00000000000E+00 0.  1.
<mgrwt>
<rscale>  0 0.12465968E+04</rscale>
<asrwt>0</asrwt>
<pdfrwt beam="1">  1        2 0.18398845E+00 0.12465968E+04</pdfrwt>
<pdfrwt beam="2">  1       -2 0.49977527E-01 0.12465968E+04</pdfrwt>
<totfact> 0.70954170E+01</totfact>
</mgrwt>
</event>
<event>
12    1  0.4967442E-008  0.1809106E+04  0.7818608E-02  0.8701472E-01
          2   -1    0    0  501    0  0.00000000000E+00  0.00000000000E+00  0.43316804904E+04  0.43316804904E+04  0.00000000000E+00 0. -1.
         -2   -1    0    0    0  501 -0.00000000000E+00 -0.00000000000E+00 -0.18889109830E+03  0.18889109830E+03  0.00000000000E+00 0.  1.
         23    2    1    2    0    0  0.46832530974E+03  0.33883085698E+03  0.68952308596E+03  0.90459387601E+03  0.93343714697E+02 0.  0.
        254    2    1    2    0    0 -0.46832530974E+03 -0.33883085698E+03  0.34532663062E+04  0.36159777127E+04  0.90338900374E+03 0.  0.
         23    2    4    4    0    0 -0.12453303194E+03  0.27503410176E+03  0.16195944922E+04  0.16498015315E+04  0.87215485448E+02 0.  0.
         23    2    4    4    0    0 -0.34379227780E+03 -0.61386495874E+03  0.18336718139E+04  0.19661761812E+04  0.92049641344E+02 0.  0.
         11    1    3    3    0    0  0.20834864302E+03  0.18059955911E+03  0.26651009577E+03  0.38347488698E+03  0.00000000000E+00 0. -1.
        -11    1    3    3    0    0  0.25997666672E+03  0.15823129787E+03  0.42301299019E+03  0.52111898904E+03  0.00000000000E+00 0.  1.
          3    1    5    5  502    0 -0.13690555974E+03  0.23316212501E+03  0.13726012183E+04  0.13989788466E+04  0.00000000000E+00 0. -1.
          3    1    6    6  503    0 -0.34674388049E+03 -0.58463959963E+03  0.17423027747E+04  0.18702015236E+04  0.00000000000E+00 0. -1.
         -3    1    5    5    0  502  0.12372527797E+02  0.41871976751E+02  0.24699327391E+03  0.25082268485E+03  0.00000000000E+00 0.  1.
         -3    1    6    6    0  503  0.29516026851E+01 -0.29225359110E+02  0.91369039239E+02  0.95974657618E+02  0.00000000000E+00 0.  1.
<mgrwt>
<rscale>  0 0.18091057E+04</rscale>
<asrwt>0</asrwt>
<pdfrwt beam="1">  1        2 0.66641231E+00 0.18091057E+04</pdfrwt>
<pdfrwt beam="2">  1       -2 0.29060172E-01 0.18091057E+04</pdfrwt>
<totfact> 0.18581709E+00</totfact>
</mgrwt>
</event>
<event>
12    1  0.4967442E-008  0.2785779E+04  0.7818608E-02  0.8307697E-01
          2   -1    0    0  501    0  0.00000000000E+00  0.00000000000E+00  0.30280829875E+04  0.30280829875E+04  0.00000000000E+00 0.  1.
         -2   -1    0    0    0  501 -0.00000000000E+00 -0.00000000000E+00 -0.64071587061E+03  0.64071587061E+03  0.00000000000E+00 0. -1.
         23    2    1    2    0    0 -0.30360919844E+02 -0.65072766527E+03 -0.32743230878E+03  0.73517617735E+03  0.94360029144E+02 0.  0.
        254    2    1    2    0    0  0.30360919844E+02  0.65072766527E+03  0.27147994257E+04  0.29336226807E+04  0.90090944696E+03 0.  0.
         23    2    4    4    0    0  0.14764889109E+03  0.75328579301E+03  0.13406260371E+04  0.15475807469E+04  0.92132056573E+02 0.  0.
         23    2    4    4    0    0 -0.11728797125E+03 -0.10255812773E+03  0.13741733886E+04  0.13860419339E+04  0.92114617569E+02 0.  0.
         13    1    3    3    0    0 -0.48057413527E+01 -0.56800257030E+03 -0.30908522803E+03  0.64667124043E+03  0.00000000000E+00 0. -1.
        -13    1    3    3    0    0 -0.25555178491E+02 -0.82725094978E+02 -0.18347080750E+02  0.88504936919E+02  0.00000000000E+00 0.  1.
          2    1    5    5  502    0  0.59356275741E+02  0.15083140988E+03  0.33105407699E+03  0.36860559352E+03  0.00000000000E+00 0. -1.
          4    1    6    6  503    0 -0.26871546194E+01  0.45543429138E+01  0.33220373994E+01  0.62448996636E+01  0.00000000000E+00 0. -1.
         -2    1    5    5    0  502  0.88292615353E+02  0.60245438312E+03  0.10095719601E+04  0.11789751534E+04  0.00000000000E+00 0.  1.
         -4    1    6    6    0  503 -0.11460081663E+03 -0.10711247065E+03  0.13708513512E+04  0.13797970342E+04  0.00000000000E+00 0.  1.
<mgrwt>
<rscale>  0 0.27857788E+04</rscale>
<asrwt>0</asrwt>
<pdfrwt beam="1">  1        2 0.46585891E+00 0.27857788E+04</pdfrwt>
<pdfrwt beam="2">  1       -2 0.98571674E-01 0.27857788E+04</pdfrwt>
<totfact> 0.12441264E+00</totfact>
</mgrwt>
</event>
<event>
12    1  0.4967442E-008  0.2007937E+04  0.7818608E-02  0.8602919E-01
         -1   -1    0    0    0  501 -0.00000000000E+00  0.00000000000E+00  0.69181693014E+03  0.69181693014E+03  0.00000000000E+00 0.  1.
          1   -1    0    0  501    0  0.00000000000E+00 -0.00000000000E+00 -0.14569643605E+04  0.14569643605E+04  0.00000000000E+00 0. -1.
         23    2    1    2    0    0  0.61886338082E+03  0.46699129039E+03 -0.10279018247E+03  0.78751353757E+03  0.92406714172E+02 0.  0.
        254    2    1    2    0    0 -0.61886338082E+03 -0.46699129039E+03 -0.66235724786E+03  0.13612677531E+04  0.90180930484E+03 0.  0.
         23    2    4    4    0    0 -0.55042349452E+03  0.10583616727E+03 -0.15640214419E+03  0.58843371443E+03  0.87322894797E+02 0.  0.
         23    2    4    4    0    0 -0.68439886306E+02 -0.57282745765E+03 -0.50595510367E+03  0.77283403862E+03  0.92013966584E+02 0.  0.
         13    1    3    3    0    0  0.83133267455E+02  0.64109727759E+02  0.17680514315E+02  0.10646031156E+03  0.00000000000E+00 0. -1.
        -13    1    3    3    0    0  0.53573011337E+03  0.40288156263E+03 -0.12047069679E+03  0.68105322601E+03  0.00000000000E+00 0.  1.
          2    1    5    5  502    0 -0.54760153633E+03  0.11288683241E+03 -0.15720689123E+03  0.58079676839E+03  0.00000000000E+00 0. -1.
          4    1    6    6  503    0 -0.31334609948E+02 -0.49929256929E+03 -0.45313777501E+03  0.67498797816E+03  0.00000000000E+00 0. -1.
         -2    1    5    5    0  502 -0.28219581853E+01 -0.70506651461E+01  0.80474704303E+00  0.76369460392E+01  0.00000000000E+00 0.  1.
         -4    1    6    6    0  503 -0.37105276358E+02 -0.73534888367E+02 -0.52817328663E+02  0.97846060461E+02  0.00000000000E+00 0.  1.
<mgrwt>
<rscale>  0 0.20079369E+04</rscale>
<asrwt>0</asrwt>
<pdfrwt beam="1">  1        1 0.22414836E+00 0.20079369E+04</pdfrwt>
<pdfrwt beam="2">  1       -1 0.10643337E+00 0.20079369E+04</pdfrwt>
<totfact> 0.53586782E+00</totfact>
</mgrwt>
</event>
<event>
12    1  0.4967442E-008  0.1665772E+04  0.7818608E-02  0.8781130E-01
         -2   -1    0    0    0  501 -0.00000000000E+00  0.00000000000E+00  0.22040178476E+03  0.22040178476E+03  0.00000000000E+00 0.  1.
          2   -1    0    0  501    0  0.00000000000E+00 -0.00000000000E+00 -0.31474286284E+04  0.31474286284E+04  0.00000000000E+00 0. -1.
         23    2    1    2    0    0 -0.41021700810E+03  0.40614463665E+03 -0.11780830133E+04  0.13149978131E+04  0.90045558460E+02 0.  0.
        254    2    1    2    0    0  0.41021700810E+03 -0.40614463665E+03 -0.17489438303E+04  0.20528326000E+04  0.90668941901E+03 0.  0.
         23    2    4    4    0    0  0.65962488621E+03 -0.18344835347E+03 -0.13998762309E+04  0.15611107645E+04  0.93032619786E+02 0.  0.
         23    2    4    4    0    0 -0.24940787811E+03 -0.22269628318E+03 -0.34906759940E+03  0.49172183551E+03  0.90245500493E+02 0.  0.
         13    1    3    3    0    0 -0.29409796898E+03  0.29885330049E+03 -0.93909881204E+03  0.10284519869E+04  0.00000000000E+00 0.  1.
        -13    1    3    3    0    0 -0.11611903912E+03  0.10729133616E+03 -0.23898420130E+03  0.28654582623E+03  0.00000000000E+00 0. -1.
          1    1    5    5  502    0  0.31278667186E+03 -0.56709013923E+02 -0.56668956800E+03  0.64976032568E+03  0.00000000000E+00 0. -1.
          3    1    6    6  503    0 -0.68920828767E+02 -0.11752881369E+03 -0.11815145646E+03  0.18034098078E+03  0.00000000000E+00 0.  1.
         -1    1    5    5    0  502  0.34683821436E+03 -0.12673933955E+03 -0.83318666286E+03  0.91135043879E+03  0.00000000000E+00 0.  1.
         -3    1    6    6    0  503 -0.18048704934E+03 -0.10516746948E+03 -0.23091614294E+03  0.31138085472E+03  0.00000000000E+00 0. -1.
<mgrwt>
<rscale>  0 0.16657718E+04</rscale>
<asrwt>0</asrwt>
<pdfrwt beam="1">  1        2 0.48421974E+00 0.16657718E+04</pdfrwt>
<pdfrwt beam="2">  1       -2 0.33907970E-01 0.16657718E+04</pdfrwt>
<totfact> 0.10965591E+01</totfact>
</mgrwt>
</event>
<event>
12    1  0.4967442E-008  0.1986627E+04  0.7818608E-02  0.8612899E-01
          2   -1    0    0  501    0  0.00000000000E+00  0.00000000000E+00  0.23878196757E+04  0.23878196757E+04  0.00000000000E+00 0. -1.
         -2   -1    0    0    0  501 -0.00000000000E+00 -0.00000000000E+00 -0.41321024267E+03  0.41321024267E+03  0.00000000000E+00 0.  1.
         23    2    1    2    0    0  0.16310940386E+03  0.65609033377E+03  0.24346769075E+03  0.72182700250E+03  0.68545615507E+02 0.  0.
        254    2    1    2    0    0 -0.16310940386E+03 -0.65609033377E+03  0.17311417423E+04  0.20792029159E+04  0.93229492639E+03 0.  0.
         23    2    4    4    0    0  0.11196590555E+03  0.98114325654E+02  0.50032570805E+01  0.17321846237E+03  0.88412771812E+02 0.  0.
         23    2    4    4    0    0 -0.27507530941E+03 -0.75420465942E+03  0.17261384852E+04  0.19059844535E+04  0.93442884914E+02 0.  0.
         11    1    3    3    0    0  0.93251227649E+02  0.42939644301E+03  0.18964682239E+03  0.47858438543E+03  0.00000000000E+00 0. -1.
        -11    1    3    3    0    0  0.69858176211E+02  0.22669389076E+03  0.53820868356E+02  0.24324261707E+03  0.00000000000E+00 0.  1.
          1    1    5    5  502    0  0.11617045727E+03  0.69249731411E+02 -0.17507610651E+02  0.13637307973E+03  0.00000000000E+00 0. -1.
          3    1    6    6  503    0 -0.13655324212E+03 -0.28320605517E+03  0.75349219189E+03  0.81645755606E+03  0.00000000000E+00 0. -1.
         -1    1    5    5    0  502 -0.42045517219E+01  0.28864594243E+02  0.22510867731E+02  0.36845382642E+02  0.00000000000E+00 0.  1.
         -3    1    6    6    0  503 -0.13852206729E+03 -0.47099860426E+03  0.97264629331E+03  0.10895268974E+04  0.00000000000E+00 0.  1.
<mgrwt>
<rscale>  0 0.19866268E+04</rscale>
<asrwt>0</asrwt>
<pdfrwt beam="1">  1        2 0.36735686E+00 0.19866268E+04</pdfrwt>
<pdfrwt beam="2">  1       -2 0.63570808E-01 0.19866268E+04</pdfrwt>
<totfact> 0.86069178E+00</totfact>
</mgrwt>
</event>
<event>
12    1  0.4967442E-008  0.1388032E+04  0.7818608E-02  0.8962527E-01
          2   -1    0    0  501    0  0.00000000000E+00  0.00000000000E+00  0.71448516258E+03  0.71448516258E+03  0.00000000000E+00 0. -1.
         -2   -1    0    0    0  501 -0.00000000000E+00 -0.00000000000E+00 -0.67413342812E+03  0.67413342812E+03  0.00000000000E+00 0.  1.
         23    2    1    2    0    0  0.19614498006E+03 -0.15445956754E+03  0.31716203871E+03  0.41359957011E+03  0.90234330430E+02 0.  0.
        254    2    1    2    0    0 -0.19614498006E+03  0.15445956754E+03 -0.27681030425E+03  0.97501902058E+03  0.90094813100E+03 0.  0.
         23    2    4    4    0    0  0.29519547610E+03 -0.41468465465E+02 -0.30686820473E+03  0.43747599581E+03  0.91417444168E+02 0.  0.
         23    2    4    4    0    0 -0.49134045615E+03  0.19592803301E+03  0.30057900472E+02  0.53754302478E+03  0.90806322092E+02 0.  0.
         11    1    3    3    0    0  0.17480883183E+03 -0.15565452359E+03  0.31453400022E+03  0.39206899354E+03  0.00000000000E+00 0. -1.
        -11    1    3    3    0    0  0.21336148231E+02  0.11949560467E+01  0.26280384926E+01  0.21530576574E+02  0.00000000000E+00 0.  1.
          4    1    5    5  502    0  0.15910563274E+03 -0.19879979917E+02 -0.10017240377E+03  0.18906170011E+03  0.00000000000E+00 0. -1.
          3    1    6    6  503    0 -0.42642504246E+03  0.16544893166E+03 -0.56474621428E+01  0.45743148083E+03  0.00000000000E+00 0. -1.
         -4    1    5    5    0  502  0.13608984336E+03 -0.21588485548E+02 -0.20669580096E+03  0.24841429570E+03  0.00000000000E+00 0.  1.
         -3    1    6    6    0  503 -0.64915413691E+02  0.30479101346E+02  0.35705362615E+02  0.80111543943E+02  0.00000000000E+00 0.  1.
<mgrwt>
<rscale>  0 0.13880322E+04</rscale>
<asrwt>0</asrwt>
<pdfrwt beam="1">  1        2 0.10992079E+00 0.13880322E+04</pdfrwt>
<pdfrwt beam="2">  1       -2 0.10371283E+00 0.13880322E+04</pdfrwt>
<totfact> 0.29448596E+01</totfact>
</mgrwt>
</event>
<event>
12    1  0.4967442E-008  0.2201996E+04  0.7818608E-02  0.8517598E-01
          1   -1    0    0  501    0  0.00000000000E+00  0.00000000000E+00  0.25119724680E+04  0.25119724680E+04  0.00000000000E+00 0. -1.
         -1   -1    0    0    0  501 -0.00000000000E+00 -0.00000000000E+00 -0.48256749556E+03  0.48256749556E+03  0.00000000000E+00 0.  1.
         23    2    1    2    0    0  0.31034570518E+02 -0.34051110900E+03 -0.30510978324E+03  0.46892622184E+03  0.99442756321E+02 0.  0.
        254    2    1    2    0    0 -0.31034570518E+02  0.34051110900E+03  0.23345147557E+04  0.25256137417E+04  0.90102978192E+03 0.  0.
         23    2    4    4    0    0 -0.32440949245E+03 -0.14165395844E+02  0.17184737611E+04  0.17512507709E+04  0.91022073785E+02 0.  0.
         23    2    4    4    0    0  0.29337492193E+03  0.35467650484E+03  0.61604099460E+03  0.77436297079E+03  0.90924339908E+02 0.  0.
         13    1    3    3    0    0  0.35900890839E+02 -0.12801352095E+03 -0.64162847886E+02  0.14762522332E+03  0.00000000000E+00 0. -1.
        -13    1    3    3    0    0 -0.48663203206E+01 -0.21249758804E+03 -0.24094693536E+03  0.32130099853E+03  0.00000000000E+00 0.  1.
          2    1    5    5  502    0 -0.32518774927E+03 -0.10889050794E+02  0.17170309792E+04  0.17475872016E+04  0.00000000000E+00 0. -1.
          3    1    6    6  503    0  0.25352782856E+03  0.25133060621E+03  0.49487248526E+03  0.61019850060E+03  0.00000000000E+00 0. -1.
         -2    1    5    5    0  502  0.77825681930E+00 -0.32763450500E+01  0.14427818785E+01  0.36635693131E+01  0.00000000000E+00 0.  1.
         -3    1    6    6    0  503  0.39847093374E+02  0.10334589863E+03  0.12116850935E+03  0.16416447018E+03  0.00000000000E+00 0.  1.
<mgrwt>
<rscale>  0 0.22019957E+04</rscale>
<asrwt>0</asrwt>
<pdfrwt beam="1">  1        1 0.38645730E+00 0.22019957E+04</pdfrwt>
<pdfrwt beam="2">  1       -1 0.74241154E-01 0.22019957E+04</pdfrwt>
<totfact> 0.22127280E+00</totfact>
</mgrwt>
</event>
<event>
12    1  0.4967442E-008  0.1340041E+04  0.7818608E-02  0.8998402E-01
          1   -1    0    0  501    0  0.00000000000E+00  0.00000000000E+00  0.79610463175E+03  0.79610463175E+03  0.00000000000E+00 0. -1.
         -1   -1    0    0    0  501 -0.00000000000E+00 -0.00000000000E+00 -0.56390473140E+03  0.56390473140E+03  0.00000000000E+00 0.  1.
         23    2    1    2    0    0 -0.46275535065E+02  0.11407690121E+03 -0.27801995424E+03  0.31445840021E+03  0.80212380413E+02 0.  0.
        254    2    1    2    0    0  0.46275535065E+02 -0.11407690121E+03  0.51021985459E+03  0.10455509629E+04  0.90426630566E+03 0.  0.
         23    2    4    4    0    0 -0.22984697694E+03  0.35553305882E+02 -0.16135495771E+03  0.29868904364E+03  0.95320784956E+02 0.  0.
         23    2    4    4    0    0  0.27612251200E+03 -0.14963020710E+03  0.67157481230E+03  0.74686191930E+03  0.90316983340E+02 0.  0.
         13    1    3    3    0    0 -0.40268484710E+00  0.33183533965E+01  0.56117758354E+01  0.65318950066E+01  0.00000000000E+00 0. -1.
        -13    1    3    3    0    0 -0.45872850218E+02  0.11075854782E+03 -0.28363173008E+03  0.30792650521E+03  0.00000000000E+00 0.  1.
          1    1    5    5  502    0 -0.31946704386E+02  0.41347532204E+02 -0.45580107176E+02  0.69337987501E+02  0.00000000000E+00 0. -1.
          3    1    6    6  503    0  0.11796302342E+03 -0.10573725797E+03  0.27007497274E+03  0.31310722368E+03  0.00000000000E+00 0. -1.
         -1    1    5    5    0  502 -0.19790027255E+03 -0.57942263221E+01 -0.11577485054E+03  0.22935105614E+03  0.00000000000E+00 0.  1.
         -3    1    6    6    0  503  0.15815948858E+03 -0.43892949121E+02  0.40149983956E+03  0.43375469562E+03  0.00000000000E+00 0.  1.
<mgrwt>
<rscale>  0 0.13400405E+04</rscale>
<asrwt>0</asrwt>
<pdfrwt beam="1">  1        1 0.12247764E+00 0.13400405E+04</pdfrwt>
<pdfrwt beam="2">  1       -1 0.86754574E-01 0.13400405E+04</pdfrwt>
<totfact> 0.28596112E+01</totfact>
</mgrwt>
</event>
<event>
12    1  0.4967442E-008  0.1633214E+04  0.7818608E-02  0.8800399E-01
          2   -1    0    0  501    0  0.00000000000E+00  0.00000000000E+00  0.14546792770E+04  0.14546792770E+04  0.00000000000E+00 0. -1.
         -2   -1    0    0    0  501 -0.00000000000E+00 -0.00000000000E+00 -0.45841534250E+03  0.45841534250E+03  0.00000000000E+00 0.  1.
         23    2    1    2    0    0 -0.32811672731E+03  0.11522572603E+03  0.86063169888E+03  0.93199355652E+03  0.83591348730E+02 0.  0.
        254    2    1    2    0    0  0.32811672731E+03 -0.11522572603E+03  0.13563223558E+03  0.98110106296E+03  0.90731782619E+03 0.  0.
         23    2    4    4    0    0 -0.11088932430E+03 -0.26185919462E+03 -0.23569403239E+03  0.38115080431E+03  0.94114710143E+02 0.  0.
         23    2    4    4    0    0  0.43900605161E+03  0.14663346859E+03  0.37132626798E+03  0.59995025865E+03  0.88484055625E+02 0.  0.
         11    1    3    3    0    0 -0.82372895324E+01 -0.11015843256E+02  0.35131225607E+02  0.37728036712E+02  0.00000000000E+00 0.  1.
        -11    1    3    3    0    0 -0.31987943778E+03  0.12624156928E+03  0.82550047328E+03  0.89426551981E+03  0.00000000000E+00 0. -1.
          4    1    5    5  502    0 -0.51338943463E+02 -0.35153480780E+02 -0.72500659520E+02  0.95539520397E+02  0.00000000000E+00 0.  1.
          3    1    6    6  503    0  0.30745925988E+03  0.13772858700E+03  0.23833494335E+03  0.41267893742E+03  0.00000000000E+00 0. -1.
         -4    1    5    5    0  502 -0.59550380836E+02 -0.22670571384E+03 -0.16319337287E+03  0.28561128391E+03  0.00000000000E+00 0. -1.
         -3    1    6    6    0  503  0.13154679173E+03  0.89048815906E+01  0.13299132462E+03  0.18727132123E+03  0.00000000000E+00 0.  1.
<mgrwt>
<rscale>  0 0.16332144E+04</rscale>
<asrwt>0</asrwt>
<pdfrwt beam="1">  1        2 0.22379681E+00 0.16332144E+04</pdfrwt>
<pdfrwt beam="2">  1       -2 0.70525438E-01 0.16332144E+04</pdfrwt>
<totfact> 0.23555725E+01</totfact>
</mgrwt>
</event>
<event>
12    1  0.4967442E-008  0.1195764E+04  0.7818608E-02  0.9116573E-01
          2   -1    0    0  501    0  0.00000000000E+00  0.00000000000E+00  0.10663323681E+04  0.10663323681E+04  0.00000000000E+00 0.  1.
         -2   -1    0    0    0  501 -0.00000000000E+00 -0.00000000000E+00 -0.33522641237E+03  0.33522641237E+03  0.00000000000E+00 0. -1.
         23    2    1    2    0    0 -0.34614141348E+01 -0.15209496361E+03 -0.29040250255E+02  0.18015646011E+03  0.92022576811E+02 0.  0.
        254    2    1    2    0    0  0.34614141348E+01  0.15209496361E+03  0.76014620595E+03  0.12214023203E+04  0.94385195573E+03 0.  0.
         23    2    4    4    0    0 -0.31581358673E+03 -0.22340714700E+03  0.54659783354E+03  0.67592604124E+03  0.91966552108E+02 0.  0.
         23    2    4    4    0    0  0.31927500087E+03  0.37550211061E+03  0.21354837242E+03  0.54547627908E+03  0.94884679639E+02 0.  0.
         11    1    3    3    0    0 -0.29282803727E+02 -0.10809091928E+02  0.71895648980E+01  0.32031373774E+02  0.00000000000E+00 0.  1.
        -11    1    3    3    0    0  0.25821389593E+02 -0.14128587168E+03 -0.36229815153E+02  0.14812508634E+03  0.00000000000E+00 0. -1.
          2    1    5    5  502    0 -0.16360791039E+03 -0.60155868965E+02  0.23177054078E+03  0.29000665594E+03  0.00000000000E+00 0.  1.
          3    1    6    6  503    0  0.86974699524E+02  0.17231862216E+03  0.73138209888E+02  0.20641585125E+03  0.00000000000E+00 0. -1.
         -2    1    5    5    0  502 -0.15220567634E+03 -0.16325127804E+03  0.31482729275E+03  0.38591938530E+03  0.00000000000E+00 0. -1.
         -3    1    6    6    0  503  0.23230030134E+03  0.20318348844E+03  0.14041016253E+03  0.33906042783E+03  0.00000000000E+00 0.  1.
<mgrwt>
<rscale>  0 0.11957638E+04</rscale>
<asrwt>0</asrwt>
<pdfrwt beam="1">  1        2 0.16405113E+00 0.11957638E+04</pdfrwt>
<pdfrwt beam="2">  1       -2 0.51573295E-01 0.11957638E+04</pdfrwt>
<totfact> 0.80126368E+01</totfact>
</mgrwt>
</event>
<event>
12    1  0.4967442E-008  0.1148172E+04  0.7818608E-02  0.9159472E-01
          1   -1    0    0  501    0  0.00000000000E+00  0.00000000000E+00  0.94106989963E+03  0.94106989963E+03  0.00000000000E+00 0. -1.
         -1   -1    0    0    0  501 -0.00000000000E+00 -0.00000000000E+00 -0.35021276633E+03  0.35021276633E+03  0.00000000000E+00 0.  1.
         23    2    1    2    0    0  0.16682921065E+03 -0.55422835377E+02  0.23098521386E+03  0.30455772932E+03  0.92182239379E+02 0.  0.
        254    2    1    2    0    0 -0.16682921065E+03  0.55422835377E+02  0.35987191944E+03  0.98672493665E+03  0.90178413492E+03 0.  0.
         23    2    4    4    0    0 -0.22426974106E+03 -0.29046261109E+03  0.47488024093E+03  0.60716215081E+03  0.92028196480E+02 0.  0.
         23    2    4    4    0    0  0.57440530408E+02  0.34588544647E+03 -0.11500832149E+03  0.37956278584E+03  0.88909154611E+02 0.  0.
         13    1    3    3    0    0  0.37908239812E+02 -0.41623358228E+02  0.12500502213E+03  0.13709775401E+03  0.00000000000E+00 0.  1.
        -13    1    3    3    0    0  0.12892097084E+03 -0.13799477149E+02  0.10598019173E+03  0.16745997531E+03  0.00000000000E+00 0. -1.
          1    1    5    5  502    0 -0.11302141016E+03 -0.17996445770E+03  0.33675052566E+03  0.39819839493E+03  0.00000000000E+00 0. -1.
          3    1    6    6  503    0  0.12301289060E+02  0.16884495104E+02 -0.30374007776E+02  0.36864457623E+02  0.00000000000E+00 0. -1.
         -1    1    5    5    0  502 -0.11124833090E+03 -0.11049815339E+03  0.13812971527E+03  0.20896375588E+03  0.00000000000E+00 0.  1.
         -3    1    6    6    0  503  0.45139241348E+02  0.32900095136E+03 -0.84634313715E+02  0.34269832822E+03  0.00000000000E+00 0.  1.
<mgrwt>
<rscale>  0 0.11481719E+04</rscale>
<asrwt>0</asrwt>
<pdfrwt beam="1">  1        1 0.14477998E+00 0.11481719E+04</pdfrwt>
<pdfrwt beam="2">  1       -1 0.53878888E-01 0.11481719E+04</pdfrwt>
<totfact> 0.58190157E+01</totfact>
</mgrwt>
</event>
<event>
12    1  0.4967442E-008  0.1774435E+04  0.7818608E-02  0.8720014E-01
          2   -1    0    0  501    0  0.00000000000E+00  0.00000000000E+00  0.27781768634E+04  0.27781768634E+04  0.00000000000E+00 0.  1.
         -2   -1    0    0    0  501 -0.00000000000E+00 -0.00000000000E+00 -0.28333514480E+03  0.28333514480E+03  0.00000000000E+00 0. -1.
         23    2    1    2    0    0 -0.15630688882E+03  0.38296139707E+03  0.56831434114E+02  0.42745158355E+03  0.91617515993E+02 0.  0.
        254    2    1    2    0    0  0.15630688882E+03 -0.38296139707E+03  0.24380102844E+04  0.26340604246E+04  0.90735268680E+03 0.  0.
         23    2    4    4    0    0  0.14786537622E+03  0.23862587401E+03  0.37168568404E+03  0.47439865601E+03  0.89985331441E+02 0.  0.
         23    2    4    4    0    0  0.84415125993E+01 -0.62158727108E+03  0.20663246004E+04  0.21596617686E+04  0.89440515239E+02 0.  0.
         11    1    3    3    0    0 -0.14398604735E+03  0.27917979423E+03  0.70824794709E+02  0.32200852610E+03  0.00000000000E+00 0. -1.
        -11    1    3    3    0    0 -0.12320841469E+02  0.10378160285E+03 -0.13993360594E+02  0.10544305745E+03  0.00000000000E+00 0.  1.
          1    1    6    6  502    0  0.62248709508E+01 -0.62250615525E+03  0.20312893459E+04  0.21245444380E+04  0.00000000000E+00 0. -1.
          1    1    5    5  503    0  0.52907918802E+02  0.16634793246E+03  0.20236021346E+03  0.26724621325E+03  0.00000000000E+00 0. -1.
         -1    1    5    5    0  503  0.94957457419E+02  0.72277941543E+02  0.16932547058E+03  0.20715244276E+03  0.00000000000E+00 0.  1.
         -1    1    6    6    0  502  0.22166416485E+01  0.91888417018E+00  0.35035254508E+02  0.35117330576E+02  0.00000000000E+00 0.  1.
<mgrwt>
<rscale>  0 0.17744353E+04</rscale>
<asrwt>0</asrwt>
<pdfrwt beam="1">  1        2 0.42741181E+00 0.17744353E+04</pdfrwt>
<pdfrwt beam="2">  1       -2 0.43590024E-01 0.17744353E+04</pdfrwt>
<totfact> 0.11283629E+01</totfact>
</mgrwt>
</event>
<event>
12    1  0.4967442E-008  0.1705346E+04  0.7818608E-02  0.8758321E-01
         -1   -1    0    0    0  501 -0.00000000000E+00  0.00000000000E+00  0.35504593605E+03  0.35504593605E+03  0.00000000000E+00 0.  1.
          1   -1    0    0  501    0  0.00000000000E+00 -0.00000000000E+00 -0.20477665387E+04  0.20477665387E+04  0.00000000000E+00 0. -1.
         23    2    1    2    0    0  0.33251573873E+02 -0.42886008170E+03 -0.28971563801E+00  0.43952367465E+03  0.90301383172E+02 0.  0.
        254    2    1    2    0    0 -0.33251573873E+02  0.42886008170E+03 -0.16924308870E+04  0.19632888001E+04  0.89730372137E+03 0.  0.
         23    2    4    4    0    0 -0.75005051100E+02  0.32704737833E+03 -0.96106909843E+02  0.36032448598E+03  0.89506713269E+02 0.  0.
         23    2    4    4    0    0  0.41753477227E+02  0.10181270338E+03 -0.15963239771E+04  0.16029643141E+04  0.95578097795E+02 0.  0.
         13    1    3    3    0    0 -0.25763433339E+02 -0.51647211623E+02  0.71872106888E+00  0.57720927971E+02  0.00000000000E+00 0. -1.
        -13    1    3    3    0    0  0.59015007212E+02 -0.37721287008E+03 -0.10084367069E+01  0.38180274668E+03  0.00000000000E+00 0.  1.
          4    1    5    5  502    0 -0.33082309597E+02  0.26502928882E+03 -0.48065641557E+02  0.27137661845E+03  0.00000000000E+00 0. -1.
          1    1    6    6  503    0 -0.14126777022E+01  0.79821727091E+02 -0.13210405362E+04  0.13234506421E+04  0.00000000000E+00 0. -1.
         -4    1    5    5    0  502 -0.41922741503E+02  0.62018089502E+02 -0.48041268286E+02  0.88947867535E+02  0.00000000000E+00 0.  1.
         -1    1    6    6    0  503  0.43166154929E+02  0.21990976285E+02 -0.27528344097E+03  0.27951367201E+03  0.00000000000E+00 0.  1.
<mgrwt>
<rscale>  0 0.17053459E+04</rscale>
<asrwt>0</asrwt>
<pdfrwt beam="1">  1        1 0.31504101E+00 0.17053459E+04</pdfrwt>
<pdfrwt beam="2">  1       -1 0.54622451E-01 0.17053459E+04</pdfrwt>
<totfact> 0.89101727E+00</totfact>
</mgrwt>
</event>
<event>
12    1  0.4967442E-008  0.2088437E+04  0.7818608E-02  0.8566354E-01
         -2   -1    0    0    0  501 -0.00000000000E+00  0.00000000000E+00  0.12780603863E+04  0.12780603863E+04  0.00000000000E+00 0.  1.
          2   -1    0    0  501    0  0.00000000000E+00 -0.00000000000E+00 -0.85316216666E+03  0.85316216666E+03  0.00000000000E+00 0. -1.
         23    2    1    2    0    0  0.30880507633E+03 -0.71327972593E+03 -0.16303412790E+03  0.79940701828E+03  0.91339539292E+02 0.  0.
        254    2    1    2    0    0 -0.30880507633E+03  0.71327972593E+03  0.58793234754E+03  0.13318155347E+04  0.90771120436E+03 0.  0.
         23    2    4    4    0    0 -0.14048907718E+03  0.65619946731E+03  0.79526082908E+03  0.10449518082E+04  0.95653402403E+02 0.  0.
         23    2    4    4    0    0 -0.16831599915E+03  0.57080258614E+02 -0.20732848153E+03  0.28686372652E+03  0.87847975756E+02 0.  0.
         13    1    3    3    0    0  0.22188654724E+03 -0.40035958928E+03 -0.10175774641E+03  0.46890945771E+03  0.00000000000E+00 0. -1.
        -13    1    3    3    0    0  0.86918529089E+02 -0.31292013665E+03 -0.61276381492E+02  0.33049756058E+03  0.00000000000E+00 0.  1.
          1    1    5    5  502    0 -0.37059211079E+02  0.37261902237E+03  0.47514058807E+03  0.60496024612E+03  0.00000000000E+00 0. -1.
          1    1    6    6  503    0 -0.50321448535E+02  0.12375514435E+02 -0.12730552011E+03  0.13744852488E+03  0.00000000000E+00 0. -1.
         -1    1    5    5    0  502 -0.10342986610E+03  0.28358044495E+03  0.32012024101E+03  0.43999156203E+03  0.00000000000E+00 0.  1.
         -1    1    6    6    0  503 -0.11799455061E+03  0.44704744179E+02 -0.80022961421E+02  0.14941520164E+03  0.00000000000E+00 0.  1.
<mgrwt>
<rscale>  0 0.20884375E+04</rscale>
<asrwt>0</asrwt>
<pdfrwt beam="1">  1        2 0.13125572E+00 0.20884375E+04</pdfrwt>
<pdfrwt beam="2">  1       -2 0.19662468E+00 0.20884375E+04</pdfrwt>
<totfact> 0.40761048E+00</totfact>
</mgrwt>
</event>
<event>
12    1  0.4967442E-008  0.1273241E+04  0.7818608E-02  0.9051059E-01
          1   -1    0    0  501    0  0.00000000000E+00  0.00000000000E+00  0.89022385114E+03  0.89022385114E+03  0.00000000000E+00 0. -1.
         -1   -1    0    0    0  501 -0.00000000000E+00 -0.00000000000E+00 -0.45526234763E+03  0.45526234763E+03  0.00000000000E+00 0.  1.
         23    2    1    2    0    0 -0.21628771884E+03 -0.44934985528E+02 -0.11616525560E+03  0.26617941868E+03  0.92507221740E+02 0.  0.
        254    2    1    2    0    0  0.21628771884E+03  0.44934985528E+02  0.55112675911E+03  0.10793067801E+04  0.90131176111E+03 0.  0.
         23    2    4    4    0    0 -0.21748855228E+03  0.18008292434E+03  0.53939270777E+03  0.61565093724E+03  0.91380814827E+02 0.  0.
         23    2    4    4    0    0  0.43377627112E+03 -0.13514793881E+03  0.11734051345E+02  0.46365584287E+03  0.91718231085E+02 0.  0.
         13    1    3    3    0    0  0.39222256305E+01 -0.12400912208E+02 -0.19630543598E+02  0.23548348551E+02  0.00000000000E+00 0. -1.
        -13    1    3    3    0    0 -0.22020994447E+03 -0.32534073320E+02 -0.96534712004E+02  0.24263107013E+03  0.00000000000E+00 0.  1.
          2    1    5    5  502    0 -0.32565804161E+01  0.13089780810E+02  0.21698686807E+01  0.13662210940E+02  0.00000000000E+00 0. -1.
          3    1    6    6  503    0  0.30253539346E+03 -0.49225580803E+02  0.12911721247E+02  0.30678581233E+03  0.00000000000E+00 0. -1.
         -2    1    5    5    0  502 -0.21423197187E+03  0.16699314353E+03  0.53722283909E+03  0.60198872630E+03  0.00000000000E+00 0.  1.
         -3    1    6    6    0  503  0.13124087765E+03 -0.85922358005E+02 -0.11776699016E+01  0.15687003053E+03  0.00000000000E+00 0.  1.
<mgrwt>
<rscale>  0 0.12732406E+04</rscale>
<asrwt>0</asrwt>
<pdfrwt beam="1">  1        1 0.13695752E+00 0.12732406E+04</pdfrwt>
<pdfrwt beam="2">  1       -1 0.70040361E-01 0.12732406E+04</pdfrwt>
<totfact> 0.37617199E+01</totfact>
</mgrwt>
</event>
<event>
12    1  0.4967442E-008  0.1306647E+04  0.7818608E-02  0.9024310E-01
          2   -1    0    0  501    0  0.00000000000E+00  0.00000000000E+00  0.25314185072E+04  0.25314185072E+04  0.00000000000E+00 0.  1.
         -2   -1    0    0    0  501 -0.00000000000E+00 -0.00000000000E+00 -0.16861364035E+03  0.16861364035E+03  0.00000000000E+00 0. -1.
         23    2    1    2    0    0  0.12586777305E+03 -0.28630454921E+03  0.39595999729E+03  0.51298129368E+03  0.92479711373E+02 0.  0.
        254    2    1    2    0    0 -0.12586777305E+03  0.28630454921E+03  0.19668448696E+04  0.21870508539E+04  0.90382504132E+03 0.  0.
         23    2    4    4    0    0 -0.31582990806E+03  0.43982069325E+03  0.68040010677E+03  0.87444241285E+03  0.92273804848E+02 0.  0.
         23    2    4    4    0    0  0.18996213501E+03 -0.15351614404E+03  0.12864447628E+04  0.13126084410E+04  0.91367239839E+02 0.  0.
         11    1    3    3    0    0  0.10305573070E+02  0.58247618339E+01  0.17390645264E+02  0.21037281893E+02  0.00000000000E+00 0. -1.
        -11    1    3    3    0    0  0.11556219998E+03 -0.29212931105E+03  0.37856935202E+03  0.49194401178E+03  0.00000000000E+00 0.  1.
          1    1    5    5  502    0 -0.21072374537E+03  0.31660318729E+03  0.53757584235E+03  0.65850577927E+03  0.00000000000E+00 0. -1.
          1    1    6    6  503    0  0.95694058679E+01 -0.33057066016E+02  0.84361391315E+02  0.91110852739E+02  0.00000000000E+00 0. -1.
         -1    1    5    5    0  502 -0.10510616270E+03  0.12321750596E+03  0.14282426442E+03  0.21593663357E+03  0.00000000000E+00 0.  1.
         -1    1    6    6    0  503  0.18039272915E+03 -0.12045907802E+03  0.12020833715E+04  0.12214975883E+04  0.00000000000E+00 0.  1.
<mgrwt>
<rscale>  0 0.13066471E+04</rscale>
<asrwt>0</asrwt>
<pdfrwt beam="1">  1        2 0.38944897E+00 0.13066471E+04</pdfrwt>
<pdfrwt beam="2">  1       -2 0.25940562E-01 0.13066471E+04</pdfrwt>
<totfact> 0.44083605E+01</totfact>
</mgrwt>
</event>
<event>
12    1  0.4967442E-008  0.1451654E+04  0.7818608E-02  0.8917255E-01
          2   -1    0    0  501    0  0.00000000000E+00  0.00000000000E+00  0.60305314095E+03  0.60305314095E+03  0.00000000000E+00 0. -1.
         -2   -1    0    0    0  501 -0.00000000000E+00 -0.00000000000E+00 -0.87359614289E+03  0.87359614289E+03  0.00000000000E+00 0.  1.
         23    2    1    2    0    0 -0.29211455333E+03  0.14030002049E+03  0.22129822150E+03  0.40393271766E+03  0.95779588315E+02 0.  0.
        254    2    1    2    0    0  0.29211455333E+03 -0.14030002049E+03 -0.49184122345E+03  0.10727165662E+04  0.89654784271E+03 0.  0.
         23    2    4    4    0    0 -0.19318320568E+03 -0.31289532717E+03 -0.38905598021E+02  0.38075381268E+03  0.90755625694E+02 0.  0.
         23    2    4    4    0    0  0.48529775901E+03  0.17259530668E+03 -0.45293562543E+03  0.69196275350E+03  0.91426017431E+02 0.  0.
         13    1    3    3    0    0 -0.46568013015E+02 -0.12047744380E+02  0.42007154651E+02  0.63861796268E+02  0.00000000000E+00 0.  1.
        -13    1    3    3    0    0 -0.24554654031E+03  0.15234776487E+03  0.17929106685E+03  0.34007092139E+03  0.00000000000E+00 0. -1.
          2    1    5    5  502    0 -0.50405696216E+02 -0.87505593921E+02  0.29710777026E+02  0.10526487282E+03  0.00000000000E+00 0. -1.
          3    1    6    6  503    0  0.34146692791E+03  0.16257670525E+03 -0.34423062927E+03  0.51139571183E+03  0.00000000000E+00 0. -1.
         -2    1    5    5    0  502 -0.14277750947E+03 -0.22538973325E+03 -0.68616375047E+02  0.27548893986E+03  0.00000000000E+00 0.  1.
         -3    1    6    6    0  503  0.14383083110E+03  0.10018601426E+02 -0.10870499615E+03  0.18056704167E+03  0.00000000000E+00 0.  1.
<mgrwt>
<rscale>  0 0.14516541E+04</rscale>
<asrwt>0</asrwt>
<pdfrwt beam="1">  1        2 0.92777407E-01 0.14516541E+04</pdfrwt>
<pdfrwt beam="2">  1       -2 0.13439941E+00 0.14516541E+04</pdfrwt>
<totfact> 0.19063132E+01</totfact>
</mgrwt>
</event>
<event>
12    1  0.4967442E-008  0.1685345E+04  0.7818608E-02  0.8769767E-01
          2   -1    0    0  501    0  0.00000000000E+00  0.00000000000E+00  0.16888211626E+04  0.16888211626E+04  0.00000000000E+00 0. -1.
         -2   -1    0    0    0  501 -0.00000000000E+00 -0.00000000000E+00 -0.42046882205E+03  0.42046882205E+03  0.00000000000E+00 0.  1.
         23    2    1    2    0    0 -0.58069272176E+03  0.10013796283E+02  0.32721261893E+03  0.67373905585E+03  0.97733843521E+02 0.  0.
        254    2    1    2    0    0  0.58069272176E+03 -0.10013796283E+02  0.94113972163E+03  0.14355509288E+04  0.91529130902E+03 0.  0.
         23    2    4    4    0    0  0.38135760645E+03  0.43490869081E+03  0.46020664655E+03  0.74474309928E+03  0.90955665315E+02 0.  0.
         23    2    4    4    0    0  0.19933511531E+03 -0.44492248709E+03  0.48093307508E+03  0.69080782954E+03  0.90710125819E+02 0.  0.
         13    1    3    3    0    0 -0.67531583842E+02  0.30188750429E+02  0.26251949904E+02  0.78492294797E+02  0.00000000000E+00 0.  1.
        -13    1    3    3    0    0 -0.51316113791E+03 -0.20174954145E+02  0.30096066903E+03  0.59524676105E+03  0.00000000000E+00 0. -1.
          2    1    5    5  502    0  0.35890414569E+03  0.40573877166E+03  0.39700135863E+03  0.67159974343E+03  0.00000000000E+00 0. -1.
          3    1    6    6  503    0  0.20848580291E+03 -0.41700151560E+03  0.45788952285E+03  0.65346722119E+03  0.00000000000E+00 0. -1.
         -2    1    5    5    0  502  0.22453460756E+02  0.29169919152E+02  0.63205287923E+02  0.73143355848E+02  0.00000000000E+00 0.  1.
         -3    1    6    6    0  503 -0.91506875996E+01 -0.27920971492E+02  0.23043552226E+02  0.37340608348E+02  0.00000000000E+00 0.  1.
<mgrwt>
<rscale>  0 0.16853446E+04</rscale>
<asrwt>0</asrwt>
<pdfrwt beam="1">  1        2 0.25981864E+00 0.16853446E+04</pdfrwt>
<pdfrwt beam="2">  1       -2 0.64687512E-01 0.16853446E+04</pdfrwt>
<totfact> 0.20903704E+01</totfact>
</mgrwt>
</event>
<event>
12    1  0.4967442E-008  0.1784036E+04  0.7818608E-02  0.8714836E-01
          1   -1    0    0  501    0  0.00000000000E+00  0.00000000000E+00  0.11769165591E+04  0.11769165591E+04  0.00000000000E+00 0. -1.
         -1   -1    0    0    0  501 -0.00000000000E+00 -0.00000000000E+00 -0.67608503149E+03  0.67608503149E+03  0.00000000000E+00 0.  1.
         23    2    1    2    0    0 -0.18058735396E+03  0.23680238659E+03  0.79383100133E+03  0.85268636081E+03  0.90659850769E+02 0.  0.
        254    2    1    2    0    0  0.18058735396E+03 -0.23680238659E+03 -0.29299947372E+03  0.10003152298E+04  0.90889752150E+03 0.  0.
         23    2    4    4    0    0 -0.30687674097E+03 -0.11623330421E+03  0.99175413660E+02  0.35672536246E+03  0.98659547897E+02 0.  0.
         23    2    4    4    0    0  0.48746409492E+03 -0.12056908238E+03 -0.39217488738E+03  0.64358986731E+03  0.90821955164E+02 0.  0.
         13    1    3    3    0    0 -0.17848685525E+03  0.22007156879E+03  0.66632869905E+03  0.72407388302E+03  0.00000000000E+00 0. -1.
        -13    1    3    3    0    0 -0.21004987103E+01  0.16730817800E+02  0.12750230228E+03  0.12861247780E+03  0.00000000000E+00 0.  1.
          2    1    5    5  502    0 -0.24254906014E+03 -0.80251219209E+02  0.11684078849E+03  0.28093072921E+03  0.00000000000E+00 0. -1.
          4    1    6    6  503    0  0.39531973038E+03 -0.10376119631E+03 -0.27082366272E+03  0.49029535116E+03  0.00000000000E+00 0. -1.
         -2    1    5    5    0  502 -0.64327680830E+02 -0.35982085000E+02 -0.17665374826E+02  0.75794633251E+02  0.00000000000E+00 0.  1.
         -4    1    6    6    0  503  0.92144364548E+02 -0.16807886073E+02 -0.12135122466E+03  0.15329451614E+03  0.00000000000E+00 0.  1.
<mgrwt>
<rscale>  0 0.17840355E+04</rscale>
<asrwt>0</asrwt>
<pdfrwt beam="1">  1        1 0.18106409E+00 0.17840355E+04</pdfrwt>
<pdfrwt beam="2">  1       -1 0.10401308E+00 0.17840355E+04</pdfrwt>
<totfact> 0.91381478E+00</totfact>
</mgrwt>
</event>
<event>
12    1  0.4967442E-008  0.1291465E+04  0.7818608E-02  0.9036361E-01
         -1   -1    0    0    0  501 -0.00000000000E+00  0.00000000000E+00  0.37531842228E+03  0.37531842228E+03  0.00000000000E+00 0.  1.
          1   -1    0    0  501    0  0.00000000000E+00 -0.00000000000E+00 -0.11109778999E+04  0.11109778999E+04  0.00000000000E+00 0. -1.
         23    2    1    2    0    0  0.27082272602E+03  0.87427727836E+02 -0.30675996984E+03  0.42801410389E+03  0.90032424734E+02 0.  0.
        254    2    1    2    0    0 -0.27082272602E+03 -0.87427727836E+02 -0.42889950774E+03  0.10582822183E+04  0.92467178459E+03 0.  0.
         23    2    4    4    0    0  0.26203741919E+03  0.12115753457E+03  0.48274087221E+02  0.30759948700E+03  0.94574307629E+02 0.  0.
         23    2    4    4    0    0 -0.53286014522E+03 -0.20858526241E+03 -0.47717359496E+03  0.75068273126E+03  0.91554231087E+02 0.  0.
         11    1    3    3    0    0  0.64313502277E+02  0.29602972842E+02 -0.13807725541E+03  0.15517052245E+03  0.00000000000E+00 0.  1.
        -11    1    3    3    0    0  0.20650922374E+03  0.57824754994E+02 -0.16868271443E+03  0.27284358143E+03  0.00000000000E+00 0. -1.
          2    1    5    5  502    0  0.21963780015E+03  0.13640597403E+03  0.44866893579E+02  0.26241263526E+03  0.00000000000E+00 0. -1.
          1    1    6    6  503    0 -0.33429738163E+03 -0.16442350078E+03 -0.26812282207E+03  0.45899855630E+03  0.00000000000E+00 0. -1.
         -2    1    5    5    0  502  0.42399619044E+02 -0.15248439463E+02  0.34071936420E+01  0.45186851734E+02  0.00000000000E+00 0.  1.
         -1    1    6    6    0  503 -0.19856276358E+03 -0.44161761623E+02 -0.20905077289E+03  0.29168417495E+03  0.00000000000E+00 0.  1.
<mgrwt>
<rscale>  0 0.12914650E+04</rscale>
<asrwt>0</asrwt>
<pdfrwt beam="1">  1        1 0.17091967E+00 0.12914650E+04</pdfrwt>
<pdfrwt beam="2">  1       -1 0.57741297E-01 0.12914650E+04</pdfrwt>
<totfact> 0.37154637E+01</totfact>
</mgrwt>
</event>
<event>
12    1  0.4967442E-008  0.1396108E+04  0.7818608E-02  0.8956641E-01
         -2   -1    0    0    0  501 -0.00000000000E+00  0.00000000000E+00  0.18679637030E+03  0.18679637030E+03  0.00000000000E+00 0. -1.
          2   -1    0    0  501    0  0.00000000000E+00 -0.00000000000E+00 -0.26086131084E+04  0.26086131084E+04  0.00000000000E+00 0.  1.
         23    2    1    2    0    0  0.12085666674E+03 -0.27616360144E+03 -0.19006188456E+03  0.36896422280E+03  0.95595026489E+02 0.  0.
        254    2    1    2    0    0 -0.12085666674E+03  0.27616360144E+03 -0.22317548535E+04  0.24264452559E+04  0.90334610472E+03 0.  0.
         23    2    4    4    0    0  0.27499671980E+03  0.16345578569E+03 -0.17705552495E+04  0.18016071261E+04  0.92635604791E+02 0.  0.
         23    2    4    4    0    0 -0.39585338654E+03  0.11270781575E+03 -0.46119960396E+03  0.62483812979E+03  0.91184748573E+02 0.  0.
         13    1    3    3    0    0  0.93075259548E+02 -0.12047050957E+03 -0.12861741747E+03  0.19929522747E+03  0.00000000000E+00 0. -1.
        -13    1    3    3    0    0  0.27781407196E+02 -0.15569309186E+03 -0.61444467093E+02  0.16966899533E+03  0.00000000000E+00 0.  1.
          1    1    6    6  502    0 -0.38403090942E+03  0.12421762399E+03 -0.45186425737E+03  0.60588040453E+03  0.00000000000E+00 0. -1.
          1    1    5    5  503    0  0.26741758872E+03  0.12852042939E+03 -0.16113455045E+04  0.16384333988E+04  0.00000000000E+00 0. -1.
         -1    1    5    5    0  503  0.75791310813E+01  0.34935356300E+02 -0.15920974508E+03  0.16317372728E+03  0.00000000000E+00 0.  1.
         -1    1    6    6    0  502 -0.11822477122E+02 -0.11509808240E+02 -0.93353465877E+01  0.18957725258E+02  0.00000000000E+00 0.  1.
<mgrwt>
<rscale>  0 0.13961081E+04</rscale>
<asrwt>0</asrwt>
<pdfrwt beam="1">  1        2 0.40132509E+00 0.13961081E+04</pdfrwt>
<pdfrwt beam="2">  1       -2 0.28737903E-01 0.13961081E+04</pdfrwt>
<totfact> 0.32685343E+01</totfact>
</mgrwt>
</event>
<event>
12    1  0.4967442E-008  0.1251447E+04  0.7818608E-02  0.9068980E-01
         -2   -1    0    0    0  501 -0.00000000000E+00  0.00000000000E+00  0.53635443764E+03  0.53635443764E+03  0.00000000000E+00 0.  1.
          2   -1    0    0  501    0  0.00000000000E+00 -0.00000000000E+00 -0.72998311258E+03  0.72998311258E+03  0.00000000000E+00 0. -1.
         23    2    1    2    0    0 -0.34951132042E+02 -0.59032213586E+02 -0.33590822882E+03  0.35471833835E+03  0.91018555793E+02 0.  0.
        254    2    1    2    0    0  0.34951132042E+02  0.59032213586E+02  0.14227955388E+03  0.91161921187E+03  0.89783056983E+03 0.  0.
         23    2    4    4    0    0 -0.98128581855E+02  0.34454184180E+03  0.36169045483E+03  0.51720643964E+03  0.91346684462E+02 0.  0.
         23    2    4    4    0    0  0.13307971390E+03 -0.28550962821E+03 -0.21941090096E+03  0.39441277223E+03  0.90522557332E+02 0.  0.
         11    1    3    3    0    0 -0.45324910773E+02 -0.33918476955E+02 -0.31600731344E+03  0.32103805501E+03  0.00000000000E+00 0. -1.
        -11    1    3    3    0    0  0.10373778732E+02 -0.25113736630E+02 -0.19900915375E+02  0.33680283334E+02  0.00000000000E+00 0.  1.
          2    1    5    5  502    0  0.51211427194E+01 -0.88013918044E+00 -0.15523023210E+01  0.54231347231E+01  0.00000000000E+00 0. -1.
          4    1    6    6  503    0  0.43778186191E+02 -0.29003313541E+02 -0.58949462713E+02  0.78947836808E+02  0.00000000000E+00 0. -1.
         -2    1    5    5    0  502 -0.10324972457E+03  0.34542198098E+03  0.36324275716E+03  0.51178330492E+03  0.00000000000E+00 0.  1.
         -4    1    6    6    0  503  0.89301527706E+02 -0.25650631467E+03 -0.16046143824E+03  0.31546493542E+03  0.00000000000E+00 0.  1.
<mgrwt>
<rscale>  0 0.12514467E+04</rscale>
<asrwt>0</asrwt>
<pdfrwt beam="1">  1        2 0.11230509E+00 0.12514467E+04</pdfrwt>
<pdfrwt beam="2">  1       -2 0.82516067E-01 0.12514467E+04</pdfrwt>
<totfact> 0.49247175E+01</totfact>
</mgrwt>
</event>
<event>
12    1  0.4967442E-008  0.2206800E+04  0.7818608E-02  0.8515603E-01
         -1   -1    0    0    0  501 -0.00000000000E+00  0.00000000000E+00  0.23723110072E+04  0.23723110072E+04  0.00000000000E+00 0.  1.
          1   -1    0    0  501    0  0.00000000000E+00 -0.00000000000E+00 -0.51320922825E+03  0.51320922825E+03  0.00000000000E+00 0. -1.
         23    2    1    2    0    0 -0.40304035574E+03 -0.69837021797E+03  0.13816166545E+04  0.16022644849E+04  0.90688532680E+02 0.  0.
        254    2    1    2    0    0  0.40304035574E+03  0.69837021797E+03  0.47748512443E+03  0.12832557505E+04  0.87669309764E+03 0.  0.
         23    2    4    4    0    0  0.41202917573E+03  0.87797361156E+03  0.46716474373E+03  0.10804738276E+04  0.92601782780E+02 0.  0.
         23    2    4    4    0    0 -0.89888199927E+01 -0.17960339359E+03  0.10320380700E+02  0.20278192287E+03  0.93144082534E+02 0.  0.
         13    1    3    3    0    0 -0.10638986350E+03 -0.25977142345E+03  0.43790885594E+03  0.52015782374E+03  0.00000000000E+00 0.  1.
        -13    1    3    3    0    0 -0.29665049224E+03 -0.43859879452E+03  0.94370779854E+03  0.10821066612E+04  0.00000000000E+00 0. -1.
          4    1    5    5  502    0  0.38589748618E+03  0.82149797524E+03  0.40983166001E+03  0.99586032289E+03  0.00000000000E+00 0. -1.
          1    1    6    6  503    0  0.58566728085E+00 -0.18185441030E+03  0.26571391658E+02  0.18378631180E+03  0.00000000000E+00 0. -1.
         -4    1    5    5    0  502  0.26131689549E+02  0.56475636319E+02  0.57333083715E+02  0.84613504741E+02  0.00000000000E+00 0.  1.
         -1    1    6    6    0  503 -0.95744872735E+01  0.22510167058E+01 -0.16251010959E+02  0.18995611070E+02  0.00000000000E+00 0.  1.
<mgrwt>
<rscale>  0 0.22068003E+04</rscale>
<asrwt>0</asrwt>
<pdfrwt beam="1">  1        1 0.78955267E-01 0.22068003E+04</pdfrwt>
<pdfrwt beam="2">  1       -1 0.36497092E+00 0.22068003E+04</pdfrwt>
<totfact> 0.48145769E-01</totfact>
</mgrwt>
</event>
<event>
12    1  0.4967442E-008  0.1437495E+04  0.7818608E-02  0.8927116E-01
          1   -1    0    0  501    0  0.00000000000E+00  0.00000000000E+00  0.57027556281E+03  0.57027556281E+03  0.00000000000E+00 0. -1.
         -1   -1    0    0    0  501 -0.00000000000E+00 -0.00000000000E+00 -0.90587437496E+03  0.90587437496E+03  0.00000000000E+00 0.  1.
         23    2    1    2    0    0 -0.34732475793E+03 -0.23226931245E+03  0.15832033543E+02  0.42807573418E+03  0.91731455519E+02 0.  0.
        254    2    1    2    0    0  0.34732475793E+03  0.23226931245E+03 -0.35143084569E+03  0.10480742036E+04  0.89463533128E+03 0.  0.
         23    2    4    4    0    0 -0.12307413447E+03  0.40171678344E+03  0.20392116103E+01  0.42882106930E+03  0.85788894524E+02 0.  0.
         23    2    4    4    0    0  0.47039889239E+03 -0.16944747099E+03 -0.35347005730E+03  0.61925313429E+03  0.92443493742E+02 0.  0.
         13    1    3    3    0    0 -0.75873100089E+02 -0.32855056456E+02  0.37004965342E+02  0.90584488252E+02  0.00000000000E+00 0. -1.
        -13    1    3    3    0    0 -0.27145165784E+03 -0.19941425599E+03 -0.21172931799E+02  0.33749124593E+03  0.00000000000E+00 0.  1.
          4    1    5    5  502    0 -0.82533179031E+02  0.36062273628E+03  0.12486783588E+02  0.37015726837E+03  0.00000000000E+00 0. -1.
          1    1    6    6  503    0  0.45796067087E+03 -0.14872450169E+03 -0.34897766209E+03  0.59466996066E+03  0.00000000000E+00 0. -1.
         -4    1    5    5    0  502 -0.40540955436E+02  0.41094047152E+02 -0.10447571978E+02  0.58663800927E+02  0.00000000000E+00 0.  1.
         -1    1    6    6    0  503  0.12438221519E+02 -0.20722969304E+02 -0.44923952079E+01  0.24583173636E+02  0.00000000000E+00 0.  1.
<mgrwt>
<rscale>  0 0.14374951E+04</rscale>
<asrwt>0</asrwt>
<pdfrwt beam="1">  1        1 0.87734702E-01 0.14374951E+04</pdfrwt>
<pdfrwt beam="2">  1       -1 0.13936529E+00 0.14374951E+04</pdfrwt>
<totfact> 0.15196720E+01</totfact>
</mgrwt>
</event>
<event>
12    1  0.4967442E-008  0.1480922E+04  0.7818608E-02  0.8897239E-01
         -2   -1    0    0    0  501 -0.00000000000E+00  0.00000000000E+00  0.33330016634E+03  0.33330016634E+03  0.00000000000E+00 0.  1.
          2   -1    0    0  501    0  0.00000000000E+00 -0.00000000000E+00 -0.16450120646E+04  0.16450120646E+04  0.00000000000E+00 0. -1.
         23    2    1    2    0    0  0.42020824070E+03 -0.12263885905E+03 -0.25050067324E+03  0.51281920011E+03  0.92831510846E+02 0.  0.
        254    2    1    2    0    0 -0.42020824070E+03  0.12263885905E+03 -0.10612112250E+04  0.14654930308E+04  0.91098040812E+03 0.  0.
         23    2    4    4    0    0  0.83981680485E+01 -0.34928885902E+03 -0.31073534999E+03  0.47648962161E+03  0.91720583850E+02 0.  0.
         23    2    4    4    0    0 -0.42860640875E+03  0.47192771807E+03 -0.75047587498E+03  0.98900340918E+03  0.92165501887E+02 0.  0.
         11    1    3    3    0    0  0.21046216762E+03 -0.10887572508E+03 -0.12304789523E+03  0.26700005998E+03  0.00000000000E+00 0. -1.
        -11    1    3    3    0    0  0.20974607308E+03 -0.13763133968E+02 -0.12745277802E+03  0.24581914013E+03  0.00000000000E+00 0.  1.
          2    1    5    5  502    0 -0.84668956175E+01 -0.34218736237E+03 -0.28822057553E+03  0.44747623338E+03  0.00000000000E+00 0. -1.
          1    1    6    6  503    0 -0.32521897312E+03  0.29727309152E+03 -0.49430881527E+03  0.66217813032E+03  0.00000000000E+00 0. -1.
         -2    1    5    5    0  502  0.16865063666E+02 -0.71014966583E+01 -0.22514774464E+02  0.29013388227E+02  0.00000000000E+00 0.  1.
         -1    1    6    6    0  503 -0.10338743563E+03  0.17465462656E+03 -0.25616705971E+03  0.32682527886E+03  0.00000000000E+00 0.  1.
<mgrwt>
<rscale>  0 0.14809224E+04</rscale>
<asrwt>0</asrwt>
<pdfrwt beam="1">  1        2 0.25307878E+00 0.14809224E+04</pdfrwt>
<pdfrwt beam="2">  1       -2 0.51276949E-01 0.14809224E+04</pdfrwt>
<totfact> 0.36588595E+01</totfact>
</mgrwt>
</event>
<event>
12    1  0.4967442E-008  0.1965638E+04  0.7818608E-02  0.8622857E-01
          2   -1    0    0  501    0  0.00000000000E+00  0.00000000000E+00  0.12902243245E+04  0.12902243245E+04  0.00000000000E+00 0. -1.
         -2   -1    0    0    0  501 -0.00000000000E+00 -0.00000000000E+00 -0.74865485081E+03  0.74865485081E+03  0.00000000000E+00 0.  1.
         23    2    1    2    0    0  0.27090517029E+03 -0.90847588908E+02  0.95612526970E+03  0.10021383097E+04  0.91993285945E+02 0.  0.
        254    2    1    2    0    0 -0.27090517029E+03  0.90847588908E+02 -0.41455579598E+03  0.10367408657E+04  0.90627381009E+03 0.  0.
         23    2    4    4    0    0  0.16818605368E+03 -0.28456452339E+03 -0.45716431476E+02  0.34527964214E+03  0.88682143346E+02 0.  0.
         23    2    4    4    0    0 -0.43909122397E+03  0.37541211229E+03 -0.36883936450E+03  0.69146122352E+03  0.91327924525E+02 0.  0.
         11    1    3    3    0    0  0.20994236777E+03 -0.31885885191E+02  0.61501595768E+03  0.65064363184E+03  0.00000000000E+00 0.  1.
        -11    1    3    3    0    0  0.60962802524E+02 -0.58961703716E+02  0.34110931202E+03  0.35149467783E+03  0.00000000000E+00 0. -1.
          1    1    5    5  502    0  0.60706558078E+02 -0.43845012480E+02 -0.31597091773E+02  0.81277595447E+02  0.00000000000E+00 0. -1.
          3    1    6    6  503    0 -0.73549674629E+02  0.44913277924E+02 -0.22301875763E+02  0.89017587220E+02  0.00000000000E+00 0. -1.
         -1    1    5    5    0  502  0.10747949560E+03 -0.24071951091E+03 -0.14119339703E+02  0.26400204669E+03  0.00000000000E+00 0.  1.
         -3    1    6    6    0  503 -0.36554154935E+03  0.33049883437E+03 -0.34653748874E+03  0.60244363630E+03  0.00000000000E+00 0.  1.
<mgrwt>
<rscale>  0 0.19656375E+04</rscale>
<asrwt>0</asrwt>
<pdfrwt beam="1">  1        2 0.19849605E+00 0.19656375E+04</pdfrwt>
<pdfrwt beam="2">  1       -2 0.11517767E+00 0.19656375E+04</pdfrwt>
<totfact> 0.91686448E+00</totfact>
</mgrwt>
</event>
<event>
12    1  0.4967442E-008  0.1836150E+04  0.7818608E-02  0.8687308E-01
          1   -1    0    0  501    0  0.00000000000E+00  0.00000000000E+00  0.71660885000E+03  0.71660885000E+03  0.00000000000E+00 0. -1.
         -1   -1    0    0    0  501 -0.00000000000E+00 -0.00000000000E+00 -0.11761809722E+04  0.11761809722E+04  0.00000000000E+00 0.  1.
         23    2    1    2    0    0  0.25497114258E+03 -0.55541855739E+03  0.15848858743E+03  0.63794968321E+03  0.91439097323E+02 0.  0.
        254    2    1    2    0    0 -0.25497114258E+03  0.55541855739E+03 -0.61806070963E+03  0.12548401390E+04  0.90505506804E+03 0.  0.
         23    2    4    4    0    0  0.20825824717E+03 -0.98175326917E+02 -0.29585507254E+03  0.38629467225E+03  0.93185071389E+02 0.  0.
         23    2    4    4    0    0 -0.46322938975E+03  0.65359388431E+03 -0.32220563709E+03  0.86854546674E+03  0.93746051045E+02 0.  0.
         13    1    3    3    0    0  0.17693760538E+03 -0.45338791834E+03  0.10022428403E+03  0.49690283538E+03  0.00000000000E+00 0. -1.
        -13    1    3    3    0    0  0.78033537203E+02 -0.10203063905E+03  0.58264303400E+02  0.14104684783E+03  0.00000000000E+00 0.  1.
          2    1    5    5  502    0  0.17727310989E+02 -0.48022015838E+02 -0.66928639004E+02  0.84260395673E+02  0.00000000000E+00 0. -1.
          1    1    6    6  503    0 -0.28559782108E+03  0.47382811021E+03 -0.20550431324E+03  0.59017896963E+03  0.00000000000E+00 0. -1.
         -2    1    5    5    0  502  0.19053093618E+03 -0.50153311079E+02 -0.22892643353E+03  0.30203427657E+03  0.00000000000E+00 0.  1.
         -1    1    6    6    0  503 -0.17763156867E+03  0.17976577410E+03 -0.11670132385E+03  0.27836649711E+03  0.00000000000E+00 0.  1.
<mgrwt>
<rscale>  0 0.18361500E+04</rscale>
<asrwt>0</asrwt>
<pdfrwt beam="1">  1        1 0.11024752E+00 0.18361500E+04</pdfrwt>
<pdfrwt beam="2">  1       -1 0.18095092E+00 0.18361500E+04</pdfrwt>
<totfact> 0.50648497E+00</totfact>
</mgrwt>
</event>
<event>
12    1  0.4967442E-008  0.2036931E+04  0.7818608E-02  0.8589546E-01
          2   -1    0    0  501    0  0.00000000000E+00  0.00000000000E+00  0.18113676835E+04  0.18113676835E+04  0.00000000000E+00 0.  1.
         -2   -1    0    0    0  501 -0.00000000000E+00 -0.00000000000E+00 -0.57264570766E+03  0.57264570766E+03  0.00000000000E+00 0. -1.
         23    2    1    2    0    0 -0.75893717265E+03 -0.19915401561E+03  0.77425113529E+03  0.11059641612E+04  0.89688078847E+02 0.  0.
        254    2    1    2    0    0  0.75893717265E+03  0.19915401561E+03  0.46447084057E+03  0.12780492299E+04  0.89556056102E+03 0.  0.
         23    2    4    4    0    0  0.60814610407E+03 -0.28307189560E+03  0.24964069181E+03  0.72160265198E+03  0.91752549649E+02 0.  0.
         23    2    4    4    0    0  0.15079106859E+03  0.48222591121E+03  0.21483014876E+03  0.55644657796E+03  0.90559513582E+02 0.  0.
         11    1    3    3    0    0 -0.92661848302E+02 -0.44484564002E+02  0.13569115529E+03  0.17022686095E+03  0.00000000000E+00 0.  1.
        -11    1    3    3    0    0 -0.66627532435E+03 -0.15466945161E+03  0.63855998000E+03  0.93573730029E+03  0.00000000000E+00 0. -1.
          2    1    5    5  502    0  0.43934598714E+02 -0.24864423489E+02  0.46698341643E+02  0.68769350962E+02  0.00000000000E+00 0. -1.
          2    1    6    6  503    0 -0.10152623752E+02  0.68920451301E+02  0.25365887237E+02  0.74138604060E+02  0.00000000000E+00 0. -1.
         -2    1    5    5    0  502  0.56421150535E+03 -0.25820747212E+03  0.20294235017E+03  0.65283330102E+03  0.00000000000E+00 0.  1.
         -2    1    6    6    0  503  0.16094369234E+03  0.41330545991E+03  0.18946426152E+03  0.48230797390E+03  0.00000000000E+00 0.  1.
<mgrwt>
<rscale>  0 0.20369310E+04</rscale>
<asrwt>0</asrwt>
<pdfrwt beam="1">  1        2 0.27867195E+00 0.20369310E+04</pdfrwt>
<pdfrwt beam="2">  1       -2 0.88099340E-01 0.20369310E+04</pdfrwt>
<totfact> 0.87441675E+00</totfact>
</mgrwt>
</event>
<event>
12    1  0.4967442E-008  0.3804102E+04  0.7818608E-02  0.8045275E-01
         -1   -1    0    0    0  501 -0.00000000000E+00  0.00000000000E+00  0.12313451374E+04  0.12313451374E+04  0.00000000000E+00 0.  1.
          1   -1    0    0  501    0  0.00000000000E+00 -0.00000000000E+00 -0.29380853642E+04  0.29380853642E+04  0.00000000000E+00 0. -1.
         23    2    1    2    0    0 -0.18474445654E+03 -0.14815199486E+04 -0.18955379590E+04  0.24146513736E+04  0.91897928431E+02 0.  0.
        254    2    1    2    0    0  0.18474445654E+03  0.14815199486E+04  0.18879773227E+03  0.17547791280E+04  0.90253716371E+03 0.  0.
         23    2    4    4    0    0  0.32640837009E+03  0.11312858595E+04  0.47495240406E+03  0.12722576475E+04  0.81912242480E+02 0.  0.
         23    2    4    4    0    0 -0.14166391355E+03  0.35023408915E+03 -0.28615467179E+03  0.48252148053E+03  0.90608506081E+02 0.  0.
         13    1    3    3    0    0 -0.15064653710E+02 -0.45237138013E+02 -0.41312752199E+02  0.63087922309E+02  0.00000000000E+00 0.  1.
        -13    1    3    3    0    0 -0.16967980283E+03 -0.14362828106E+04 -0.18542252068E+04  0.23515634512E+04  0.00000000000E+00 0. -1.
          4    1    5    5  502    0  0.78715425159E+02  0.38299902115E+03  0.18299578267E+03  0.43170803193E+03  0.00000000000E+00 0. -1.
          3    1    6    6  503    0 -0.10269709518E+03  0.18875056214E+03 -0.20753564984E+03  0.29873820315E+03  0.00000000000E+00 0. -1.
         -4    1    5    5    0  502  0.24769294493E+03  0.74828683832E+03  0.29195662139E+03  0.84054961552E+03  0.00000000000E+00 0.  1.
         -3    1    6    6    0  503 -0.38966818366E+02  0.16148352701E+03 -0.78619021952E+02  0.18378327738E+03  0.00000000000E+00 0.  1.
<mgrwt>
<rscale>  0 0.38041015E+04</rscale>
<asrwt>0</asrwt>
<pdfrwt beam="1">  1        1 0.45201313E+00 0.38041015E+04</pdfrwt>
<pdfrwt beam="2">  1       -1 0.18943772E+00 0.38041015E+04</pdfrwt>
<totfact> 0.93995207E-02</totfact>
</mgrwt>
</event>
<event>
12    1  0.4967442E-008  0.1472680E+04  0.7818608E-02  0.8902827E-01
          2   -1    0    0  501    0  0.00000000000E+00  0.00000000000E+00  0.40931283577E+03  0.40931283577E+03  0.00000000000E+00 0. -1.
         -2   -1    0    0    0  501 -0.00000000000E+00 -0.00000000000E+00 -0.13246502035E+04  0.13246502035E+04  0.00000000000E+00 0.  1.
         23    2    1    2    0    0  0.26572784420E+03 -0.27497239786E+03 -0.15023264376E+02  0.39348280211E+03  0.91552773410E+02 0.  0.
        254    2    1    2    0    0 -0.26572784420E+03  0.27497239786E+03 -0.90031410331E+03  0.13404802371E+04  0.91657005990E+03 0.  0.
         23    2    4    4    0    0 -0.40016518614E+03  0.33641841021E+03 -0.10021386313E+04  0.11340345035E+04  0.91885232143E+02 0.  0.
         23    2    4    4    0    0  0.13443734194E+03 -0.61446012358E+02  0.10182452801E+03  0.20644573358E+03  0.10199311284E+03 0.  0.
         11    1    3    3    0    0  0.27334898938E+03 -0.26717891709E+03 -0.13478458392E+02  0.38247341421E+03  0.00000000000E+00 0. -1.
        -11    1    3    3    0    0 -0.76211451884E+01 -0.77934807618E+01 -0.15448059840E+01  0.11009387898E+02  0.00000000000E+00 0.  1.
          4    1    5    5  502    0 -0.14519597251E+03  0.12755662008E+03 -0.46873957345E+03  0.50702006812E+03  0.00000000000E+00 0.  1.
          4    1    6    6  503    0 -0.70049931777E+01  0.12938888351E+02  0.25281381218E+02  0.29251205060E+02  0.00000000000E+00 0. -1.
         -4    1    5    5    0  502 -0.25496921362E+03  0.20886179013E+03 -0.53339905787E+03  0.62701443541E+03  0.00000000000E+00 0. -1.
         -4    1    6    6    0  503  0.14144233512E+03 -0.74384900709E+02  0.76543146791E+02  0.17719452852E+03  0.00000000000E+00 0.  1.
<mgrwt>
<rscale>  0 0.14726796E+04</rscale>
<asrwt>0</asrwt>
<pdfrwt beam="1">  1        2 0.62971206E-01 0.14726796E+04</pdfrwt>
<pdfrwt beam="2">  1       -2 0.20379234E+00 0.14726796E+04</pdfrwt>
<totfact> 0.94130735E+00</totfact>
</mgrwt>
</event>
<event>
12    1  0.4967442E-008  0.2446318E+04  0.7818608E-02  0.8422364E-01
         -2   -1    0    0    0  501 -0.00000000000E+00  0.00000000000E+00  0.11775765616E+04  0.11775765616E+04  0.00000000000E+00 0.  1.
          2   -1    0    0  501    0  0.00000000000E+00 -0.00000000000E+00 -0.12705054711E+04  0.12705054711E+04  0.00000000000E+00 0. -1.
         23    2    1    2    0    0  0.23744271388E+03  0.76805955604E+03  0.64538079630E+03  0.10343043633E+04  0.83514188762E+02 0.  0.
        254    2    1    2    0    0 -0.23744271388E+03 -0.76805955604E+03 -0.73830970574E+03  0.14137776694E+04  0.89853856511E+03 0.  0.
         23    2    4    4    0    0 -0.52990146586E+02 -0.20497799036E+03  0.19663001846E+03  0.30315917906E+03  0.91750703128E+02 0.  0.
         23    2    4    4    0    0 -0.18445256729E+03 -0.56308156569E+03 -0.93493972420E+03  0.11106184904E+04  0.90981009448E+02 0.  0.
         13    1    3    3    0    0  0.11308472804E+03  0.24361658939E+03  0.19481552053E+03  0.33179856145E+03  0.00000000000E+00 0. -1.
        -13    1    3    3    0    0  0.12435798583E+03  0.52444296665E+03  0.45056527576E+03  0.70250580185E+03  0.00000000000E+00 0.  1.
          4    1    5    5  502    0 -0.11179049958E+02 -0.16392842539E+03  0.10700562561E+03  0.19608086016E+03  0.00000000000E+00 0. -1.
          3    1    6    6  503    0 -0.17409605530E+03 -0.40240941641E+03 -0.68147737899E+03  0.81034202221E+03  0.00000000000E+00 0. -1.
         -4    1    5    5    0  502 -0.41811096628E+02 -0.41049564964E+02  0.89624392848E+02  0.10707831890E+03  0.00000000000E+00 0.  1.
         -3    1    6    6    0  503 -0.10356511990E+02 -0.16067214927E+03 -0.25346234521E+03  0.30027646816E+03  0.00000000000E+00 0.  1.
<mgrwt>
<rscale>  0 0.24463176E+04</rscale>
<asrwt>0</asrwt>
<pdfrwt beam="1">  1        2 0.19546238E+00 0.24463176E+04</pdfrwt>
<pdfrwt beam="2">  1       -2 0.18116563E+00 0.24463176E+04</pdfrwt>
<totfact> 0.27431449E+00</totfact>
</mgrwt>
</event>
<event>
12    1  0.4967442E-008  0.1263281E+04  0.7818608E-02  0.9059201E-01
         -2   -1    0    0    0  501 -0.00000000000E+00  0.00000000000E+00  0.63723542126E+03  0.63723542126E+03  0.00000000000E+00 0.  1.
          2   -1    0    0  501    0  0.00000000000E+00 -0.00000000000E+00 -0.62609518963E+03  0.62609518963E+03  0.00000000000E+00 0. -1.
         23    2    1    2    0    0  0.18961030211E+03  0.11748202118E+03  0.20115317489E+03  0.31132607743E+03  0.81897709070E+02 0.  0.
        254    2    1    2    0    0 -0.18961030211E+03 -0.11748202118E+03 -0.19001294327E+03  0.95200453346E+03  0.90578894956E+03 0.  0.
         23    2    4    4    0    0 -0.14981565296E+03 -0.21055588868E+03  0.32149850768E+03  0.42265168006E+03  0.92166371794E+02 0.  0.
         23    2    4    4    0    0 -0.39794649150E+02  0.93073867501E+02 -0.51151145094E+03  0.52935285340E+03  0.91236615669E+02 0.  0.
         11    1    3    3    0    0  0.16107379555E+03  0.12902693876E+03  0.18122950176E+03  0.27465769759E+03  0.00000000000E+00 0.  1.
        -11    1    3    3    0    0  0.28536506558E+02 -0.11544917583E+02  0.19923673137E+02  0.36668379836E+02  0.00000000000E+00 0. -1.
          2    1    5    5  502    0 -0.11909029221E+03 -0.16295545981E+03  0.30099197665E+03  0.36239915782E+03  0.00000000000E+00 0. -1.
          1    1    6    6  503    0 -0.15959234109E+02  0.81475724363E+02 -0.48429884559E+03  0.49136377832E+03  0.00000000000E+00 0. -1.
         -2    1    5    5    0  502 -0.30725360750E+02 -0.47600428870E+02  0.20506531031E+02  0.60252522244E+02  0.00000000000E+00 0.  1.
         -1    1    6    6    0  503 -0.23835415040E+02  0.11598143137E+02 -0.27212605359E+02  0.37989075071E+02  0.00000000000E+00 0.  1.
<mgrwt>
<rscale>  0 0.12632815E+04</rscale>
<asrwt>0</asrwt>
<pdfrwt beam="1">  1        2 0.96322337E-01 0.12632815E+04</pdfrwt>
<pdfrwt beam="2">  1       -2 0.98036219E-01 0.12632815E+04</pdfrwt>
<totfact> 0.40064411E+01</totfact>
</mgrwt>
</event>
<event>
12    1  0.4967442E-008  0.2176327E+04  0.7818608E-02  0.8528347E-01
         -1   -1    0    0    0  501 -0.00000000000E+00  0.00000000000E+00  0.55190018638E+03  0.55190018638E+03  0.00000000000E+00 0.  1.
          1   -1    0    0  501    0  0.00000000000E+00 -0.00000000000E+00 -0.21454957985E+04  0.21454957985E+04  0.00000000000E+00 0. -1.
         23    2    1    2    0    0 -0.64241071580E+03  0.40210596002E+03 -0.72620515265E+02  0.76679003660E+03  0.91172858528E+02 0.  0.
        254    2    1    2    0    0  0.64241071580E+03 -0.40210596002E+03 -0.15209750968E+04  0.19306059482E+04  0.91623869780E+03 0.  0.
         23    2    4    4    0    0 -0.12901113255E+03 -0.95616852282E+02  0.79816923597E+01  0.18847892756E+03  0.98357226275E+02 0.  0.
         23    2    4    4    0    0  0.77142184835E+03 -0.30648910774E+03 -0.15289567892E+04  0.17421270207E+04  0.90942023740E+02 0.  0.
         13    1    3    3    0    0 -0.14225998783E+03  0.13579257923E+03 -0.15117293557E+02  0.19724619458E+03  0.00000000000E+00 0. -1.
        -13    1    3    3    0    0 -0.50015072797E+03  0.26631338079E+03 -0.57503221708E+02  0.56954384202E+03  0.00000000000E+00 0.  1.
          2    1    5    5  502    0 -0.13982068765E+03 -0.67056206445E+02 -0.53425188107E+01  0.15516089078E+03  0.00000000000E+00 0.  1.
          3    1    6    6  503    0  0.48739933070E+03 -0.23855997254E+03 -0.10182402535E+04  0.11538120219E+04  0.00000000000E+00 0. -1.
         -2    1    5    5    0  502  0.10809555104E+02 -0.28560645837E+02  0.13324211170E+02  0.33318036789E+02  0.00000000000E+00 0. -1.
         -3    1    6    6    0  503  0.28402251765E+03 -0.67929135205E+02 -0.51071653571E+03  0.58831499878E+03  0.00000000000E+00 0.  1.
<mgrwt>
<rscale>  0 0.21763268E+04</rscale>
<asrwt>0</asrwt>
<pdfrwt beam="1">  1        1 0.33007628E+00 0.21763268E+04</pdfrwt>
<pdfrwt beam="2">  1       -1 0.84907721E-01 0.21763268E+04</pdfrwt>
<totfact> 0.29748594E+00</totfact>
</mgrwt>
</event>
<event>
12    1  0.4967442E-008  0.1851974E+04  0.7818608E-02  0.8679138E-01
         -1   -1    0    0    0  501 -0.00000000000E+00  0.00000000000E+00  0.12181962338E+04  0.12181962338E+04  0.00000000000E+00 0.  1.
          1   -1    0    0  501    0  0.00000000000E+00 -0.00000000000E+00 -0.70387018753E+03  0.70387018753E+03  0.00000000000E+00 0. -1.
         23    2    1    2    0    0  0.94899433775E+02 -0.48502594875E+02 -0.52051846588E+03  0.53800360103E+03  0.84557655810E+02 0.  0.
        254    2    1    2    0    0 -0.94899433775E+02  0.48502594875E+02  0.10348445122E+04  0.13840628203E+04  0.91289009307E+03 0.  0.
         23    2    4    4    0    0 -0.10321036003E+03 -0.41062070057E+02  0.11823013020E+04  0.11913712967E+04  0.95868274499E+02 0.  0.
         23    2    4    4    0    0  0.83109262582E+01  0.89564664932E+02 -0.14745678979E+03  0.19269152360E+03  0.85414388201E+02 0.  0.
         11    1    3    3    0    0  0.24835341035E+02 -0.57223137467E+02 -0.18824376693E+03  0.19831035629E+03  0.00000000000E+00 0.  1.
        -11    1    3    3    0    0  0.70064092740E+02  0.87205425918E+01 -0.33227469895E+03  0.33969324473E+03  0.00000000000E+00 0. -1.
          4    1    5    5  502    0  0.97348199145E+01  0.62327391978E+01  0.34201230545E+03  0.34220758442E+03  0.00000000000E+00 0.  1.
          1    1    6    6  503    0  0.35538820240E+02  0.87193610859E+02 -0.96246947975E+02  0.13464474930E+03  0.00000000000E+00 0. -1.
         -4    1    5    5    0  502 -0.11294517995E+03 -0.47294809255E+02  0.84028899652E+03  0.84916371232E+03  0.00000000000E+00 0. -1.
         -1    1    6    6    0  503 -0.27227893982E+02  0.23710540734E+01 -0.51209841815E+02  0.58046774301E+02  0.00000000000E+00 0.  1.
<mgrwt>
<rscale>  0 0.18519741E+04</rscale>
<asrwt>0</asrwt>
<pdfrwt beam="1">  1        1 0.10828772E+00 0.18519741E+04</pdfrwt>
<pdfrwt beam="2">  1       -1 0.18741481E+00 0.18519741E+04</pdfrwt>
<totfact> 0.46761131E+00</totfact>
</mgrwt>
</event>
<event>
12    1  0.4967442E-008  0.3562982E+04  0.7818608E-02  0.8099024E-01
          2   -1    0    0  501    0  0.00000000000E+00  0.00000000000E+00  0.20886056458E+04  0.20886056458E+04  0.00000000000E+00 0.  1.
         -2   -1    0    0    0  501 -0.00000000000E+00 -0.00000000000E+00 -0.15195351553E+04  0.15195351553E+04  0.00000000000E+00 0. -1.
         23    2    1    2    0    0  0.19222454997E+03 -0.54865078209E+03  0.18391228279E+04  0.19309170378E+04  0.89999292723E+02 0.  0.
        254    2    1    2    0    0 -0.19222454997E+03  0.54865078209E+03 -0.12700523374E+04  0.16772237632E+04  0.92848190825E+03 0.  0.
         23    2    4    4    0    0 -0.40813182703E+03 -0.79830990588E+02 -0.49524925188E+03  0.65266290717E+03  0.88048132382E+02 0.  0.
         23    2    4    4    0    0  0.21590727706E+03  0.62848177268E+03 -0.77480308549E+03  0.10245608561E+04  0.88316677889E+02 0.  0.
         11    1    3    3    0    0  0.33417219157E+01  0.19844180812E+01  0.36093563839E+01  0.53040054665E+01  0.00000000000E+00 0. -1.
        -11    1    3    3    0    0  0.18888282805E+03 -0.55063520017E+03  0.18355134715E+04  0.19256130324E+04  0.00000000000E+00 0.  1.
          1    1    5    5  502    0 -0.27181223858E+03 -0.41483650652E+02 -0.38545593625E+03  0.47347551690E+03  0.00000000000E+00 0. -1.
          3    1    6    6  503    0  0.13512464558E+03  0.42759779696E+03 -0.45935578385E+03  0.64195504668E+03  0.00000000000E+00 0. -1.
         -1    1    5    5    0  502 -0.13631958844E+03 -0.38347339935E+02 -0.10979331563E+03  0.17918739027E+03  0.00000000000E+00 0.  1.
         -3    1    6    6    0  503  0.80782631476E+02  0.20088397572E+03 -0.31544730164E+03  0.38260580937E+03  0.00000000000E+00 0.  1.
<mgrwt>
<rscale>  0 0.35629817E+04</rscale>
<asrwt>0</asrwt>
<pdfrwt beam="1">  1        2 0.32132395E+00 0.35629817E+04</pdfrwt>
<pdfrwt beam="2">  1       -2 0.23377464E+00 0.35629817E+04</pdfrwt>
<totfact> 0.39475284E-01</totfact>
</mgrwt>
</event>
<event>
12    1  0.4967442E-008  0.1320975E+04  0.7818608E-02  0.9013095E-01
         -1   -1    0    0    0  501 -0.00000000000E+00  0.00000000000E+00  0.71505833840E+03  0.71505833840E+03  0.00000000000E+00 0.  1.
          1   -1    0    0  501    0  0.00000000000E+00 -0.00000000000E+00 -0.61008139932E+03  0.61008139932E+03  0.00000000000E+00 0. -1.
         23    2    1    2    0    0  0.11169089961E+03  0.48078791369E+02 -0.29780373000E+03  0.33435076456E+03  0.91197285709E+02 0.  0.
        254    2    1    2    0    0 -0.11169089961E+03 -0.48078791369E+02  0.40278066908E+03  0.99078897316E+03  0.89701956206E+03 0.  0.
         23    2    4    4    0    0 -0.39025538073E+03 -0.24066120998E+02 -0.95945816356E+02  0.41274818916E+03  0.90978171042E+02 0.  0.
         23    2    4    4    0    0  0.27856448112E+03 -0.24012670370E+02  0.49872648544E+03  0.57804078401E+03  0.85019187333E+02 0.  0.
         13    1    3    3    0    0 -0.16096888304E+02  0.50691830502E+01 -0.40081784982E+02  0.43489721972E+02  0.00000000000E+00 0.  1.
        -13    1    3    3    0    0  0.12778778792E+03  0.43009608318E+02 -0.25772194502E+03  0.29086104259E+03  0.00000000000E+00 0. -1.
          2    1    5    5  502    0 -0.33492703520E+03 -0.22409283848E+01 -0.10828567846E+03  0.35200416024E+03  0.00000000000E+00 0.  1.
          1    1    6    6  503    0  0.21160591783E+03  0.16980454357E+02  0.33745911878E+03  0.39867788644E+03  0.00000000000E+00 0. -1.
         -2    1    5    5    0  502 -0.55328345533E+02 -0.21825192614E+02  0.12339862108E+02  0.60744028916E+02  0.00000000000E+00 0. -1.
         -1    1    6    6    0  503  0.66958563294E+02 -0.40993124728E+02  0.16126736666E+03  0.17936289757E+03  0.00000000000E+00 0.  1.
<mgrwt>
<rscale>  0 0.13209751E+04</rscale>
<asrwt>0</asrwt>
<pdfrwt beam="1">  1        1 0.93858677E-01 0.13209751E+04</pdfrwt>
<pdfrwt beam="2">  1       -1 0.11000897E+00 0.13209751E+04</pdfrwt>
<totfact> 0.25034668E+01</totfact>
</mgrwt>
</event>
<event>
12    1  0.4967442E-008  0.2484878E+04  0.7818608E-02  0.8408393E-01
          2   -1    0    0  501    0  0.00000000000E+00  0.00000000000E+00  0.38117868535E+04  0.38117868535E+04  0.00000000000E+00 0. -1.
         -2   -1    0    0    0  501 -0.00000000000E+00 -0.00000000000E+00 -0.40496861896E+03  0.40496861896E+03  0.00000000000E+00 0.  1.
         23    2    1    2    0    0  0.26414755240E+02 -0.32965799564E+03  0.32166962743E+04  0.32350717934E+04  0.95825122421E+02 0.  0.
        254    2    1    2    0    0 -0.26414755240E+02  0.32965799564E+03  0.19012196026E+03  0.98168367906E+03  0.90453543467E+03 0.  0.
         23    2    4    4    0    0  0.25018128789E+03 -0.21092068450E+03  0.46630432261E+01  0.34004654434E+03  0.92367182375E+02 0.  0.
         23    2    4    4    0    0 -0.27659604313E+03  0.54057868014E+03  0.18545891703E+03  0.64163713472E+03  0.92587916309E+02 0.  0.
         13    1    3    3    0    0  0.95007388782E+01 -0.30022691687E+03  0.30618381696E+04  0.30765369236E+04  0.00000000000E+00 0. -1.
        -13    1    3    3    0    0  0.16914016362E+02 -0.29431078767E+02  0.15485810476E+03  0.15853486985E+03  0.00000000000E+00 0.  1.
          2    1    5    5  502    0  0.64090654665E+02 -0.10455901453E+02  0.13721121853E+02  0.66371734010E+02  0.00000000000E+00 0. -1.
          4    1    6    6  503    0 -0.21733926168E+03  0.45275963191E+03  0.18638165645E+03  0.53569185249E+03  0.00000000000E+00 0.  1.
         -2    1    5    5    0  502  0.18609063323E+03 -0.20046478305E+03 -0.90580786271E+01  0.27367481033E+03  0.00000000000E+00 0.  1.
         -4    1    6    6    0  503 -0.59256781450E+02  0.87819048227E+02 -0.92273942286E+00  0.10594528223E+03  0.00000000000E+00 0. -1.
<mgrwt>
<rscale>  0 0.24848775E+04</rscale>
<asrwt>0</asrwt>
<pdfrwt beam="1">  1        2 0.58642872E+00 0.24848775E+04</pdfrwt>
<pdfrwt beam="2">  1       -2 0.62302867E-01 0.24848775E+04</pdfrwt>
<totfact> 0.10297515E+00</totfact>
</mgrwt>
</event>
<event>
12    1  0.4967442E-008  0.1283651E+04  0.7818608E-02  0.9042632E-01
          2   -1    0    0  501    0  0.00000000000E+00  0.00000000000E+00  0.16037560666E+04  0.16037560666E+04  0.00000000000E+00 0. -1.
         -2   -1    0    0    0  501 -0.00000000000E+00 -0.00000000000E+00 -0.25685931320E+03  0.25685931320E+03  0.00000000000E+00 0.  1.
         23    2    1    2    0    0 -0.25094156428E+03 -0.20619893812E+03  0.39437858297E+03  0.51831248897E+03  0.87313794725E+02 0.  0.
        254    2    1    2    0    0  0.25094156428E+03  0.20619893812E+03  0.95251817043E+03  0.13423028908E+04  0.88825475793E+03 0.  0.
         23    2    4    4    0    0  0.12335785034E+03 -0.13903326664E+03  0.93823866686E+03  0.96076865880E+03  0.90759083654E+02 0.  0.
         23    2    4    4    0    0  0.12758371394E+03  0.34523220476E+03  0.14279503566E+02  0.38153423203E+03  0.99506716989E+02 0.  0.
         11    1    3    3    0    0 -0.19854533378E+03 -0.19797312271E+03  0.35437508714E+03  0.45187975089E+03  0.00000000000E+00 0.  1.
        -11    1    3    3    0    0 -0.52396230497E+02 -0.82258154104E+01  0.40003495835E+02  0.66432738078E+02  0.00000000000E+00 0. -1.
          2    1    5    5  502    0  0.69940089335E+02 -0.39345112612E+02  0.23094610842E+03  0.24449081573E+03  0.00000000000E+00 0. -1.
          1    1    6    6  503    0  0.78732310402E+00  0.20741388938E+02  0.25610801028E+02  0.32965712825E+02  0.00000000000E+00 0. -1.
         -2    1    5    5    0  502  0.53417761000E+02 -0.99688154029E+02  0.70729255844E+03  0.71627784307E+03  0.00000000000E+00 0.  1.
         -1    1    6    6    0  503  0.12679639084E+03  0.32449081582E+03 -0.11331297462E+02  0.34856851921E+03  0.00000000000E+00 0.  1.
<mgrwt>
<rscale>  0 0.12836505E+04</rscale>
<asrwt>0</asrwt>
<pdfrwt beam="1">  1        2 0.24673170E+00 0.12836505E+04</pdfrwt>
<pdfrwt beam="2">  1       -2 0.39516818E-01 0.12836505E+04</pdfrwt>
<totfact> 0.65937097E+01</totfact>
</mgrwt>
</event>
<event>
12    1  0.4967442E-008  0.1364049E+04  0.7818608E-02  0.8980261E-01
          1   -1    0    0  501    0  0.00000000000E+00  0.00000000000E+00  0.12057244445E+04  0.12057244445E+04  0.00000000000E+00 0. -1.
         -1   -1    0    0    0  501 -0.00000000000E+00 -0.00000000000E+00 -0.38579094418E+03  0.38579094418E+03  0.00000000000E+00 0.  1.
         23    2    1    2    0    0  0.30253180683E+02  0.30972109139E+03  0.45042665641E+03  0.55685830323E+03  0.10180661905E+03 0.  0.
        254    2    1    2    0    0 -0.30253180683E+02 -0.30972109139E+03  0.36950684386E+03  0.10346570854E+04  0.91495222132E+03 0.  0.
         23    2    4    4    0    0 -0.18130119602E+02 -0.57880762585E+03  0.44901356174E+03  0.73824405899E+03  0.89689146668E+02 0.  0.
         23    2    4    4    0    0 -0.12123061080E+02  0.26908653446E+03 -0.79506717876E+02  0.29641302641E+03  0.94788355831E+02 0.  0.
         13    1    3    3    0    0  0.57529819487E+01  0.25916638515E+03  0.30112378085E+03  0.39733593267E+03  0.00000000000E+00 0. -1.
        -13    1    3    3    0    0  0.24500198734E+02  0.50554706236E+02  0.14930287556E+03  0.15952237056E+03  0.00000000000E+00 0.  1.
          3    1    6    6  502    0  0.72847486257E+01 -0.16176293771E+01 -0.16041649843E+02  0.17692337806E+02  0.00000000000E+00 0. -1.
          3    1    5    5  503    0  0.23728813546E+02 -0.24370409921E+03  0.14975793692E+03  0.28702296813E+03  0.00000000000E+00 0. -1.
         -3    1    5    5    0  503 -0.41858933148E+02 -0.33510352664E+03  0.29925562482E+03  0.45122109086E+03  0.00000000000E+00 0.  1.
         -3    1    6    6    0  502 -0.19407809706E+02  0.27070416383E+03 -0.63465068033E+02  0.27872068860E+03  0.00000000000E+00 0.  1.
<mgrwt>
<rscale>  0 0.13640492E+04</rscale>
<asrwt>0</asrwt>
<pdfrwt beam="1">  1        1 0.18549607E+00 0.13640492E+04</pdfrwt>
<pdfrwt beam="2">  1       -1 0.59352453E-01 0.13640492E+04</pdfrwt>
<totfact> 0.29776574E+01</totfact>
</mgrwt>
</event>
<event>
12    1  0.4967442E-008  0.1541240E+04  0.7818608E-02  0.8857483E-01
          2   -1    0    0  501    0  0.00000000000E+00  0.00000000000E+00  0.62649889328E+03  0.62649889328E+03  0.00000000000E+00 0. -1.
         -2   -1    0    0    0  501 -0.00000000000E+00 -0.00000000000E+00 -0.94789455603E+03  0.94789455603E+03  0.00000000000E+00 0.  1.
         23    2    1    2    0    0 -0.16495036149E+03  0.28693351763E+03 -0.49838044238E+03  0.60512861584E+03  0.90874149634E+02 0.  0.
        254    2    1    2    0    0  0.16495036149E+03 -0.28693351763E+03  0.17698477963E+03  0.96926483347E+03  0.89365051328E+03 0.  0.
         23    2    4    4    0    0  0.32251298706E+02  0.30697310304E+03 -0.21895053590E+02  0.32254656448E+03  0.91017913797E+02 0.  0.
         23    2    4    4    0    0  0.13269906278E+03 -0.59390662066E+03  0.19887983322E+03  0.64671826899E+03  0.91417810354E+02 0.  0.
         11    1    3    3    0    0 -0.11169114334E+02  0.99775982627E+02 -0.13031189394E+03  0.16450284352E+03  0.00000000000E+00 0. -1.
        -11    1    3    3    0    0 -0.15378124715E+03  0.18715753500E+03 -0.36806854844E+03  0.44062577232E+03  0.00000000000E+00 0.  1.
          4    1    5    5  502    0 -0.20838395190E+00  0.26581510984E+03 -0.36056841675E+02  0.26824953285E+03  0.00000000000E+00 0.  1.
          3    1    6    6  503    0 -0.12667847597E+02 -0.31210684569E+02  0.49447128742E+01  0.34044549923E+02  0.00000000000E+00 0. -1.
         -4    1    5    5    0  502  0.32459682658E+02  0.41157993195E+02  0.14161788086E+02  0.54297031630E+02  0.00000000000E+00 0. -1.
         -3    1    6    6    0  503  0.14536691038E+03 -0.56269593609E+03  0.19393512034E+03  0.61267371907E+03  0.00000000000E+00 0.  1.
<mgrwt>
<rscale>  0 0.15412396E+04</rscale>
<asrwt>0</asrwt>
<pdfrwt beam="1">  1        2 0.96384445E-01 0.15412396E+04</pdfrwt>
<pdfrwt beam="2">  1       -2 0.14582993E+00 0.15412396E+04</pdfrwt>
<totfact> 0.14619825E+01</totfact>
</mgrwt>
</event>
<event>
12    1  0.4967442E-008  0.1281683E+04  0.7818608E-02  0.9044218E-01
         -2   -1    0    0    0  501 -0.00000000000E+00  0.00000000000E+00  0.11051851395E+03  0.11051851395E+03  0.00000000000E+00 0.  1.
          2   -1    0    0  501    0  0.00000000000E+00 -0.00000000000E+00 -0.37159179163E+04  0.37159179163E+04  0.00000000000E+00 0. -1.
         23    2    1    2    0    0 -0.99005965532E+02 -0.89873476788E+02 -0.70013221593E+02  0.17721307602E+03  0.92861187130E+02 0.  0.
        254    2    1    2    0    0  0.99005965532E+02  0.89873476788E+02 -0.35353861808E+04  0.36492233543E+04  0.89442507731E+03 0.  0.
         23    2    4    4    0    0 -0.32816166359E+03 -0.58486586105E+00 -0.68686818821E+03  0.76600013858E+03  0.85310519938E+02 0.  0.
         23    2    4    4    0    0  0.42716762912E+03  0.90458342649E+02 -0.28485179926E+04  0.28832232157E+04  0.90920087252E+02 0.  0.
         11    1    3    3    0    0 -0.25391755409E+02  0.18555879696E+02 -0.17805400243E+02  0.36139925178E+02  0.00000000000E+00 0. -1.
        -11    1    3    3    0    0 -0.73614210122E+02 -0.10842935648E+03 -0.52207821350E+02  0.14107315085E+03  0.00000000000E+00 0.  1.
          1    1    5    5  502    0 -0.25402376804E+03 -0.35935950076E+02 -0.53548255387E+03  0.59376850096E+03  0.00000000000E+00 0. -1.
          3    1    6    6  503    0  0.17477939105E+03  0.52650352910E+02 -0.14690476005E+04  0.14803448070E+04  0.00000000000E+00 0. -1.
         -1    1    5    5    0  502 -0.74137895551E+02  0.35351084215E+02 -0.15138563434E+03  0.17223163762E+03  0.00000000000E+00 0.  1.
         -3    1    6    6    0  503  0.25238823807E+03  0.37807989739E+02 -0.13794703921E+04  0.14028784087E+04  0.00000000000E+00 0.  1.
<mgrwt>
<rscale>  0 0.12816828E+04</rscale>
<asrwt>0</asrwt>
<pdfrwt beam="1">  1        2 0.57167968E+00 0.12816828E+04</pdfrwt>
<pdfrwt beam="2">  1       -2 0.17002848E-01 0.12816828E+04</pdfrwt>
<totfact> 0.16235447E+01</totfact>
</mgrwt>
</event>
<event>
12    1  0.4967442E-008  0.1683758E+04  0.7818608E-02  0.8770682E-01
         -2   -1    0    0    0  501 -0.00000000000E+00  0.00000000000E+00  0.47329891064E+03  0.47329891064E+03  0.00000000000E+00 0.  1.
          2   -1    0    0  501    0  0.00000000000E+00 -0.00000000000E+00 -0.14974904543E+04  0.14974904543E+04  0.00000000000E+00 0. -1.
         23    2    1    2    0    0  0.50300466760E+03 -0.15109886516E+03 -0.45068606643E+02  0.53513941083E+03  0.92187022098E+02 0.  0.
        254    2    1    2    0    0 -0.50300466760E+03  0.15109886516E+03 -0.97912293704E+03  0.14356499541E+04  0.90915592848E+03 0.  0.
         23    2    4    4    0    0 -0.15190406145E+03  0.71455501220E+02  0.15250961757E+03  0.24430964504E+03  0.90814572992E+02 0.  0.
         23    2    4    4    0    0 -0.35110060615E+03  0.79643363938E+02 -0.11316325546E+04  0.11913403091E+04  0.95314177097E+02 0.  0.
         13    1    3    3    0    0  0.41787856531E+02 -0.28701608444E+02 -0.27411336321E+02  0.57631490000E+02  0.00000000000E+00 0. -1.
        -13    1    3    3    0    0  0.46121681107E+03 -0.12239725671E+03 -0.17657270322E+02  0.47750792083E+03  0.00000000000E+00 0.  1.
          4    1    5    5  502    0  0.94422546629E+00 -0.14615110759E+02  0.18311842260E+02  0.23448168184E+02  0.00000000000E+00 0.  1.
          1    1    6    6  503    0 -0.27466370951E+03  0.96892575074E+02 -0.94676468169E+03  0.99055120358E+03  0.00000000000E+00 0. -1.
         -4    1    5    5    0  502 -0.15284828692E+03  0.86070611980E+02  0.13419777531E+03  0.22086147686E+03  0.00000000000E+00 0. -1.
         -1    1    6    6    0  503 -0.76436896638E+02 -0.17249211136E+02 -0.18486787292E+03  0.20078910551E+03  0.00000000000E+00 0.  1.
<mgrwt>
<rscale>  0 0.16837584E+04</rscale>
<asrwt>0</asrwt>
<pdfrwt beam="1">  1        2 0.23038315E+00 0.16837584E+04</pdfrwt>
<pdfrwt beam="2">  1       -2 0.72815217E-01 0.16837584E+04</pdfrwt>
<totfact> 0.20683738E+01</totfact>
</mgrwt>
</event>
<event>
12    1  0.4967442E-008  0.2020191E+04  0.7818608E-02  0.8597238E-01
          1   -1    0    0  501    0  0.00000000000E+00  0.00000000000E+00  0.14121370973E+04  0.14121370973E+04  0.00000000000E+00 0. -1.
         -1   -1    0    0    0  501 -0.00000000000E+00 -0.00000000000E+00 -0.72251699750E+03  0.72251699750E+03  0.00000000000E+00 0.  1.
         23    2    1    2    0    0  0.23424034057E+03  0.77223664005E+02  0.10934697851E+04  0.11249078289E+04  0.94389730226E+02 0.  0.
        254    2    1    2    0    0 -0.23424034057E+03 -0.77223664005E+02 -0.40384968528E+03  0.10097462659E+04  0.89199827455E+03 0.  0.
         23    2    4    4    0    0  0.30123273906E+03 -0.11004545119E+01  0.20745785251E+02  0.31585422755E+03  0.92688356198E+02 0.  0.
         23    2    4    4    0    0 -0.53547307963E+03 -0.76123209493E+02 -0.42459547053E+03  0.69389203837E+03  0.93159461572E+02 0.  0.
         11    1    3    3    0    0  0.27063157017E+02  0.28031232089E+02  0.76123231071E+02  0.85515558519E+02  0.00000000000E+00 0.  1.
        -11    1    3    3    0    0  0.20717718356E+03  0.49192431916E+02  0.10173465541E+04  0.10393922704E+04  0.00000000000E+00 0. -1.
          4    1    6    6  502    0 -0.31468836351E+03 -0.85502649364E+02 -0.22573404330E+03  0.39660474970E+03  0.00000000000E+00 0.  1.
          4    1    5    5  503    0  0.25782418772E+02 -0.11048435865E+02 -0.23627900305E+02  0.36675314935E+02  0.00000000000E+00 0. -1.
         -4    1    5    5    0  503  0.27545032029E+03  0.99479813531E+01  0.44373685556E+02  0.27917891261E+03  0.00000000000E+00 0.  1.
         -4    1    6    6    0  502 -0.22078471612E+03  0.93794398716E+01 -0.19886142723E+03  0.29728728867E+03  0.00000000000E+00 0. -1.
<mgrwt>
<rscale>  0 0.20201911E+04</rscale>
<asrwt>0</asrwt>
<pdfrwt beam="1">  1        1 0.21725186E+00 0.20201911E+04</pdfrwt>
<pdfrwt beam="2">  1       -1 0.11115646E+00 0.20201911E+04</pdfrwt>
<totfact> 0.51937737E+00</totfact>
</mgrwt>
</event>
<event>
12    1  0.5883170E-008  0.1679132E+04  0.7818608E-02  0.8773356E-01
         -2   -1    0    0    0  501 -0.00000000000E+00  0.00000000000E+00  0.51101784378E+03  0.51101784378E+03  0.00000000000E+00 0.  1.
          2   -1    0    0  501    0  0.00000000000E+00 -0.00000000000E+00 -0.13793470984E+04  0.13793470984E+04  0.00000000000E+00 0. -1.
         23    2    1    2    0    0 -0.13894116573E+03  0.57541285937E+03 -0.22932634920E+03  0.64137863481E+03  0.91495204700E+02 0.  0.
        254    2    1    2    0    0  0.13894116573E+03 -0.57541285937E+03 -0.63900290546E+03  0.12489863074E+04  0.89511869418E+03 0.  0.
         23    2    4    4    0    0 -0.41750843939E+02 -0.21530520654E+03 -0.77582199384E+03  0.81134538660E+03  0.91006072821E+02 0.  0.
         23    2    4    4    0    0  0.18069200967E+03 -0.36010765283E+03  0.13681908838E+03  0.43764092082E+03  0.10238646710E+03 0.  0.
         11    1    3    3    0    0  0.10328605109E+02  0.10702471265E+02 -0.56843015124E+01  0.15922759131E+02  0.00000000000E+00 0. -1.
        -11    1    3    3    0    0 -0.14926977084E+03  0.56471038811E+03 -0.22364204768E+03  0.62545587568E+03  0.00000000000E+00 0.  1.
          1    1    5    5  502    0 -0.45513067438E+02 -0.22267572734E+03 -0.76259489386E+03  0.79574298048E+03  0.00000000000E+00 0. -1.
          3    1    6    6  503    0  0.17577584398E+03 -0.35764352436E+03  0.14806485692E+03  0.42512261725E+03  0.00000000000E+00 0. -1.
         -1    1    5    5    0  502  0.37622234994E+01  0.73705207980E+01 -0.13227099985E+02  0.15602406113E+02  0.00000000000E+00 0.  1.
         -3    1    6    6    0  503  0.49161656943E+01 -0.24641284717E+01 -0.11245768540E+02  0.12518303572E+02  0.00000000000E+00 0.  1.
<mgrwt>
<rscale>  0 0.16791319E+04</rscale>
<asrwt>0</asrwt>
<pdfrwt beam="1">  1        2 0.21220725E+00 0.16791319E+04</pdfrwt>
<pdfrwt beam="2">  1       -2 0.78618129E-01 0.16791319E+04</pdfrwt>
<totfact> 0.20375088E+01</totfact>
</mgrwt>
</event>
<event>
12    1  0.4967442E-008  0.1913909E+04  0.7818608E-02  0.8647964E-01
          2   -1    0    0  501    0  0.00000000000E+00  0.00000000000E+00  0.48634954403E+03  0.48634954403E+03  0.00000000000E+00 0. -1.
         -2   -1    0    0    0  501 -0.00000000000E+00 -0.00000000000E+00 -0.18829290241E+04  0.18829290241E+04  0.00000000000E+00 0.  1.
         23    2    1    2    0    0 -0.64661703607E+03 -0.28535294605E+03 -0.77358953815E+03  0.10517966535E+04  0.91079808611E+02 0.  0.
        254    2    1    2    0    0  0.64661703607E+03  0.28535294605E+03 -0.62298994197E+03  0.13174819147E+04  0.92092466177E+03 0.  0.
         23    2    4    4    0    0  0.31728233465E+03 -0.32007198108E+03 -0.18345568309E+03  0.49493759993E+03  0.90515673850E+02 0.  0.
         23    2    4    4    0    0  0.32933470142E+03  0.60542492713E+03 -0.43953425888E+03  0.82254431479E+03  0.91586555291E+02 0.  0.
         13    1    3    3    0    0 -0.46550668789E+03 -0.20194032994E+03 -0.61304746178E+03  0.79580372186E+03  0.00000000000E+00 0.  1.
        -13    1    3    3    0    0 -0.18111034818E+03 -0.83412616112E+02 -0.16054207636E+03  0.25599293160E+03  0.00000000000E+00 0. -1.
          1    1    5    5  502    0  0.74686216218E+02 -0.11994343004E+03 -0.87239929359E+02  0.16605800967E+03  0.00000000000E+00 0. -1.
          1    1    6    6  503    0  0.26343426049E+03  0.39602093794E+03 -0.30707125555E+03  0.56614746212E+03  0.00000000000E+00 0. -1.
         -1    1    5    5    0  502  0.24259611843E+03 -0.20012855104E+03 -0.96215753729E+02  0.32887959026E+03  0.00000000000E+00 0.  1.
         -1    1    6    6    0  503  0.65900440930E+02  0.20940398919E+03 -0.13246300333E+03  0.25639685266E+03  0.00000000000E+00 0.  1.
<mgrwt>
<rscale>  0 0.19139087E+04</rscale>
<asrwt>0</asrwt>
<pdfrwt beam="1">  1        2 0.74823008E-01 0.19139087E+04</pdfrwt>
<pdfrwt beam="2">  1       -2 0.28968138E+00 0.19139087E+04</pdfrwt>
<totfact> 0.21886732E+00</totfact>
</mgrwt>
</event>
<event>
12    1  0.6794353E-008  0.3002058E+04  0.7818608E-02  0.8243144E-01
         -2   -1    0    0    0  501 -0.00000000000E+00  0.00000000000E+00  0.11409084721E+04  0.11409084721E+04  0.00000000000E+00 0.  1.
          2   -1    0    0  501    0  0.00000000000E+00 -0.00000000000E+00 -0.19748188434E+04  0.19748188434E+04  0.00000000000E+00 0. -1.
         23    2    1    2    0    0 -0.80566209822E+03 -0.58854912006E+03  0.58559006562E+03  0.11606128171E+04  0.92870356064E+02 0.  0.
        254    2    1    2    0    0  0.80566209822E+03  0.58854912006E+03 -0.14195004369E+04  0.19551144984E+04  0.90111582402E+03 0.  0.
         23    2    4    4    0    0  0.14108013958E+03 -0.22880204680E+03 -0.24665025566E+03  0.37609429239E+03  0.91414362945E+02 0.  0.
         23    2    4    4    0    0  0.66458195864E+03  0.81735116686E+03 -0.11728501813E+04  0.15790202060E+04  0.89415623010E+02 0.  0.
         11    1    3    3    0    0 -0.37004533698E+02 -0.32852668972E+02  0.80784754077E+01  0.50138758837E+02  0.00000000000E+00 0. -1.
        -11    1    3    3    0    0 -0.76865756452E+03 -0.55569645109E+03  0.57751159022E+03  0.11104740583E+04  0.00000000000E+00 0.  1.
          1    1    5    5  502    0  0.19687407443E+01 -0.19586614516E+02  0.51925228599E+01  0.20358627212E+02  0.00000000000E+00 0. -1.
          3    1    6    6  503    0  0.60641397379E+02  0.44794632376E+02 -0.10455898400E+03  0.12890507864E+03  0.00000000000E+00 0. -1.
         -1    1    5    5    0  502  0.13911139883E+03 -0.20921543228E+03 -0.25184277852E+03  0.35573566518E+03  0.00000000000E+00 0.  1.
         -3    1    6    6    0  503  0.60394056126E+03  0.77255653449E+03 -0.10682911973E+04  0.14501151274E+04  0.00000000000E+00 0.  1.
<mgrwt>
<rscale>  0 0.30020577E+04</rscale>
<asrwt>0</asrwt>
<pdfrwt beam="1">  1        2 0.30381828E+00 0.30020577E+04</pdfrwt>
<pdfrwt beam="2">  1       -2 0.17552438E+00 0.30020577E+04</pdfrwt>
<totfact> 0.11506662E+00</totfact>
</mgrwt>
</event>
<event>
12    1  0.4967442E-008  0.1432166E+04  0.7818608E-02  0.8930859E-01
         -4   -1    0    0    0  501 -0.00000000000E+00  0.00000000000E+00  0.38833702874E+03  0.38833702874E+03  0.00000000000E+00 0.  1.
          4   -1    0    0  501    0  0.00000000000E+00 -0.00000000000E+00 -0.13204370639E+04  0.13204370639E+04  0.00000000000E+00 0. -1.
         23    2    1    2    0    0 -0.14530172851E+02  0.27778679523E+03  0.10004556138E+03  0.30773682056E+03  0.85534828296E+02 0.  0.
        254    2    1    2    0    0  0.14530172851E+02 -0.27778679523E+03 -0.10321455966E+04  0.14010372721E+04  0.90565129923E+03 0.  0.
         23    2    4    4    0    0  0.24212154032E+02 -0.59421041297E+03 -0.54112858300E+03  0.80964021791E+03  0.94999451760E+02 0.  0.
         23    2    4    4    0    0 -0.96819811815E+01  0.31642361774E+03 -0.49101701356E+03  0.59139705419E+03  0.91842917421E+02 0.  0.
         11    1    3    3    0    0  0.76422776257E+00  0.17842120611E+02  0.35074962276E+02  0.39359602267E+02  0.00000000000E+00 0. -1.
        -11    1    3    3    0    0 -0.15294400613E+02  0.25994467462E+03  0.64970599106E+02  0.26837721830E+03  0.00000000000E+00 0.  1.
          2    1    5    5  502    0 -0.17072306453E+02 -0.31729026322E+03 -0.33677671301E+03  0.46301525808E+03  0.00000000000E+00 0.  1.
          1    1    6    6  503    0 -0.13207313486E+02  0.23343020721E+01 -0.36640658953E+02  0.39018200679E+02  0.00000000000E+00 0.  1.
         -2    1    5    5    0  502  0.41284460485E+02 -0.27692014974E+03 -0.20435186999E+03  0.34662495983E+03  0.00000000000E+00 0. -1.
         -1    1    6    6    0  503  0.35253323050E+01  0.31408931567E+03 -0.45437635460E+03  0.55237885351E+03  0.00000000000E+00 0. -1.
<mgrwt>
<rscale>  0 0.14321656E+04</rscale>
<asrwt>0</asrwt>
<pdfrwt beam="1">  1        4 0.20314417E+00 0.14321656E+04</pdfrwt>
<pdfrwt beam="2">  1       -4 0.59744158E-01 0.14321656E+04</pdfrwt>
<totfact> 0.64464174E-01</totfact>
</mgrwt>
</event>
<event>
12    1  0.4967442E-008  0.1300958E+04  0.7818608E-02  0.9028805E-01
         -2   -1    0    0    0  501 -0.00000000000E+00  0.00000000000E+00  0.25064060011E+03  0.25064060011E+03  0.00000000000E+00 0.  1.
          2   -1    0    0  501    0  0.00000000000E+00 -0.00000000000E+00 -0.16881669586E+04  0.16881669586E+04  0.00000000000E+00 0. -1.
         23    2    1    2    0    0  0.40246137082E+02 -0.88086598551E+02  0.74524612778E+02  0.15411304726E+03  0.93903743441E+02 0.  0.
        254    2    1    2    0    0 -0.40246137082E+02  0.88086598551E+02 -0.15120509713E+04  0.17846945115E+04  0.94311047025E+03 0.  0.
         23    2    4    4    0    0 -0.30070260777E+03 -0.16187637754E+03 -0.16885718378E+03  0.39074724474E+03  0.86859891945E+02 0.  0.
         23    2    4    4    0    0  0.26045647069E+03  0.24996297609E+03 -0.13431937875E+04  0.13939472667E+04  0.92738174938E+02 0.  0.
         13    1    3    3    0    0  0.35518522410E+02 -0.18331154458E+01 -0.59416435065E+01  0.36058686526E+02  0.00000000000E+00 0.  1.
        -13    1    3    3    0    0  0.47276146727E+01 -0.86253483106E+02  0.80466256285E+02  0.11805436074E+03  0.00000000000E+00 0. -1.
          4    1    5    5  502    0 -0.29585675164E+03 -0.13876959766E+03 -0.14610611155E+03  0.35795979461E+03  0.00000000000E+00 0. -1.
          3    1    6    6  503    0  0.21934284166E+03  0.16448201823E+03 -0.10773791183E+04  0.11117155126E+04  0.00000000000E+00 0. -1.
         -4    1    5    5    0  502 -0.48458561322E+01 -0.23106779882E+02 -0.22751072230E+02  0.32787450127E+02  0.00000000000E+00 0.  1.
         -3    1    6    6    0  503  0.41113629026E+02  0.85480957863E+02 -0.26581466923E+03  0.28223175411E+03  0.00000000000E+00 0.  1.
<mgrwt>
<rscale>  0 0.13009584E+04</rscale>
<asrwt>0</asrwt>
<pdfrwt beam="1">  1        2 0.25971798E+00 0.13009584E+04</pdfrwt>
<pdfrwt beam="2">  1       -2 0.38560094E-01 0.13009584E+04</pdfrwt>
<totfact> 0.61991494E+01</totfact>
</mgrwt>
</event>
<event>
12    1  0.4967442E-008  0.2346682E+04  0.7818608E-02  0.8459739E-01
         -2   -1    0    0    0  501 -0.00000000000E+00  0.00000000000E+00  0.43222327500E+03  0.43222327500E+03  0.00000000000E+00 0.  1.
          2   -1    0    0  501    0  0.00000000000E+00 -0.00000000000E+00 -0.31852256887E+04  0.31852256887E+04  0.00000000000E+00 0. -1.
         23    2    1    2    0    0  0.92052593985E+03 -0.32794382958E+03 -0.14420065564E+04  0.17443362227E+04  0.91710347974E+02 0.  0.
        254    2    1    2    0    0 -0.92052593985E+03  0.32794382958E+03 -0.13109958573E+04  0.18731127410E+04  0.91374287479E+03 0.  0.
         23    2    4    4    0    0 -0.18987901232E+03  0.44830861847E+03 -0.88446752692E+03  0.10135652324E+04  0.89426044375E+02 0.  0.
         23    2    4    4    0    0 -0.73064692754E+03 -0.12036478888E+03 -0.42652833037E+03  0.85954750858E+03  0.92535872953E+02 0.  0.
         13    1    3    3    0    0  0.91523600565E+03 -0.31617844228E+03 -0.14274255659E+04  0.17248679659E+04  0.00000000000E+00 0.  1.
        -13    1    3    3    0    0  0.52899342035E+01 -0.11765387306E+02 -0.14580990491E+02  0.19468256883E+02  0.00000000000E+00 0. -1.
          1    1    6    6  502    0 -0.37331753574E+03 -0.15096160234E+02 -0.20591015153E+03  0.42660622012E+03  0.00000000000E+00 0. -1.
          1    1    5    5  503    0 -0.17993110958E+03  0.42277947844E+03 -0.86654499129E+03  0.98082511872E+03  0.00000000000E+00 0. -1.
         -1    1    5    5    0  503 -0.99479027376E+01  0.25529140023E+02 -0.17922535630E+02  0.32740113662E+02  0.00000000000E+00 0.  1.
         -1    1    6    6    0  502 -0.35732939180E+03 -0.10526862865E+03 -0.22061817884E+03  0.43294128846E+03  0.00000000000E+00 0.  1.
<mgrwt>
<rscale>  0 0.23466816E+04</rscale>
<asrwt>0</asrwt>
<pdfrwt beam="1">  1        2 0.49003471E+00 0.23466816E+04</pdfrwt>
<pdfrwt beam="2">  1       -2 0.66495890E-01 0.23466816E+04</pdfrwt>
<totfact> 0.24918523E+00</totfact>
</mgrwt>
</event>
<event>
12    1  0.4967442E-008  0.1797733E+04  0.7818608E-02  0.8707506E-01
         -1   -1    0    0    0  501 -0.00000000000E+00  0.00000000000E+00  0.85389468594E+03  0.85389468594E+03  0.00000000000E+00 0.  1.
          1   -1    0    0  501    0  0.00000000000E+00 -0.00000000000E+00 -0.94620677287E+03  0.94620677287E+03  0.00000000000E+00 0. -1.
         23    2    1    2    0    0  0.22155442545E+02  0.50088517393E+03  0.44855268645E+03  0.67901150784E+03  0.92088512652E+02 0.  0.
        254    2    1    2    0    0 -0.22155442545E+02 -0.50088517393E+03 -0.54086477338E+03  0.11210899510E+04  0.84435250576E+03 0.  0.
         23    2    4    4    0    0  0.13385137552E+03 -0.69064550622E+03 -0.46406492785E+03  0.84769297379E+03  0.91212469358E+02 0.  0.
         23    2    4    4    0    0 -0.15600681806E+03  0.18976033229E+03 -0.76799845529E+02  0.27339697718E+03  0.92198589254E+02 0.  0.
         11    1    3    3    0    0 -0.25602164305E+02  0.24453075631E+03  0.18021641356E+03  0.30484211867E+03  0.00000000000E+00 0. -1.
        -11    1    3    3    0    0  0.47757606849E+02  0.25635441762E+03  0.26833627289E+03  0.37416938917E+03  0.00000000000E+00 0.  1.
          1    1    5    5  502    0  0.13040791753E+03 -0.64828115457E+03 -0.40679672362E+03  0.77637507345E+03  0.00000000000E+00 0.  1.
          3    1    6    6  503    0 -0.11618997240E+03  0.12306748912E+03 -0.76847881413E+01  0.16942482857E+03  0.00000000000E+00 0. -1.
         -1    1    5    5    0  502  0.34434579889E+01 -0.42364351652E+02 -0.57268204231E+02  0.71317900345E+02  0.00000000000E+00 0. -1.
         -3    1    6    6    0  503 -0.39816845661E+02  0.66692843170E+02 -0.69115057388E+02  0.10397214861E+03  0.00000000000E+00 0.  1.
<mgrwt>
<rscale>  0 0.17977329E+04</rscale>
<asrwt>0</asrwt>
<pdfrwt beam="1">  1        1 0.14557027E+00 0.17977329E+04</pdfrwt>
<pdfrwt beam="2">  1       -1 0.13136841E+00 0.17977329E+04</pdfrwt>
<totfact> 0.77810064E+00</totfact>
</mgrwt>
</event>
<event>
12    1  0.4967442E-008  0.1554039E+04  0.7818608E-02  0.8849292E-01
          1   -1    0    0  501    0  0.00000000000E+00  0.00000000000E+00  0.25796771641E+04  0.25796771641E+04  0.00000000000E+00 0. -1.
         -1   -1    0    0    0  501 -0.00000000000E+00 -0.00000000000E+00 -0.23404452548E+03  0.23404452548E+03  0.00000000000E+00 0.  1.
         23    2    1    2    0    0 -0.24163076997E+03  0.43050262288E+03  0.56460565872E+03  0.75531786775E+03  0.89485161756E+02 0.  0.
        254    2    1    2    0    0  0.24163076997E+03 -0.43050262288E+03  0.17810269799E+04  0.20584038218E+04  0.90622913950E+03 0.  0.
         23    2    4    4    0    0 -0.31194724862E+03 -0.28077663851E+03  0.56089115081E+03  0.70709862144E+03  0.96140369910E+02 0.  0.
         23    2    4    4    0    0  0.55357801859E+03 -0.14972598438E+03  0.12201358290E+04  0.13513052004E+04  0.91803105154E+02 0.  0.
         11    1    3    3    0    0 -0.47922030153E+02  0.15512286966E+03  0.14817963996E+03  0.21981089911E+03  0.00000000000E+00 0.  1.
        -11    1    3    3    0    0 -0.19370873982E+03  0.27537975322E+03  0.41642601875E+03  0.53550696864E+03  0.00000000000E+00 0. -1.
          3    1    6    6  502    0  0.51848677128E+03 -0.13520176585E+03  0.11804872913E+04  0.12964020574E+04  0.00000000000E+00 0. -1.
          3    1    5    5  503    0 -0.27113193013E+03 -0.24825462718E+03  0.42728980391E+03  0.56366608908E+03  0.00000000000E+00 0. -1.
         -3    1    5    5    0  503 -0.40815318490E+02 -0.32522011321E+02  0.13360134690E+03  0.14343253236E+03  0.00000000000E+00 0.  1.
         -3    1    6    6    0  502  0.35091247313E+02 -0.14524218523E+02  0.39648537728E+02  0.54903142949E+02  0.00000000000E+00 0.  1.
<mgrwt>
<rscale>  0 0.15540390E+04</rscale>
<asrwt>0</asrwt>
<pdfrwt beam="1">  1        1 0.39687339E+00 0.15540390E+04</pdfrwt>
<pdfrwt beam="2">  1       -1 0.36006852E-01 0.15540390E+04</pdfrwt>
<totfact> 0.84899784E+00</totfact>
</mgrwt>
</event>
<event>
12    1  0.4967442E-008  0.2993307E+04  0.7818608E-02  0.8245645E-01
         -1   -1    0    0    0  501 -0.00000000000E+00  0.00000000000E+00  0.16352682218E+04  0.16352682218E+04  0.00000000000E+00 0.  1.
          1   -1    0    0  501    0  0.00000000000E+00 -0.00000000000E+00 -0.13697887146E+04  0.13697887146E+04  0.00000000000E+00 0. -1.
         23    2    1    2    0    0  0.10040891006E+04 -0.26072391886E+03 -0.76195547080E+03  0.12905920607E+04  0.94232922592E+02 0.  0.
        254    2    1    2    0    0 -0.10040891006E+04  0.26072391886E+03  0.10274349780E+04  0.17144648757E+04  0.89866305826E+03 0.  0.
         23    2    4    4    0    0 -0.65416260088E+03 -0.23992324599E+03  0.77412333064E+03  0.10464635760E+04  0.10162289330E+03 0.  0.
         23    2    4    4    0    0 -0.34992649975E+03  0.50064716484E+03  0.25331164732E+03  0.66800129975E+03  0.94672102053E+02 0.  0.
         11    1    3    3    0    0  0.77761158883E+03 -0.24150119558E+03 -0.60360512390E+03  0.10135786877E+04  0.00000000000E+00 0. -1.
        -11    1    3    3    0    0  0.22647751181E+03 -0.19222723280E+02 -0.15835034690E+03  0.27701337297E+03  0.00000000000E+00 0.  1.
          4    1    6    6  502    0 -0.59815124509E+01  0.19380890944E+02 -0.73592559994E+01  0.21576748454E+02  0.00000000000E+00 0. -1.
          4    1    5    5  503    0 -0.94664413282E+02 -0.18494081282E+02  0.15902283547E+03  0.18598829099E+03  0.00000000000E+00 0. -1.
         -4    1    5    5    0  503 -0.55949818760E+03 -0.22142916470E+03  0.61510049517E+03  0.86047528498E+03  0.00000000000E+00 0.  1.
         -4    1    6    6    0  502 -0.34394498730E+03  0.48126627390E+03  0.26067090332E+03  0.64642455130E+03  0.00000000000E+00 0.  1.
<mgrwt>
<rscale>  0 0.29933072E+04</rscale>
<asrwt>0</asrwt>
<pdfrwt beam="1">  1        1 0.21073673E+00 0.29933072E+04</pdfrwt>
<pdfrwt beam="2">  1       -1 0.25157973E+00 0.29933072E+04</pdfrwt>
<totfact> 0.46778483E-01</totfact>
</mgrwt>
</event>
<event>
12    1  0.4967442E-008  0.1305746E+04  0.7818608E-02  0.9025021E-01
         -2   -1    0    0    0  501 -0.00000000000E+00  0.00000000000E+00  0.15097170056E+03  0.15097170056E+03  0.00000000000E+00 0.  1.
          2   -1    0    0  501    0  0.00000000000E+00 -0.00000000000E+00 -0.28233302644E+04  0.28233302644E+04  0.00000000000E+00 0. -1.
         23    2    1    2    0    0  0.25231502409E+03 -0.24440062969E+02 -0.14114639762E+04  0.14374046763E+04  0.98190932137E+02 0.  0.
        254    2    1    2    0    0 -0.25231502409E+03  0.24440062969E+02 -0.12608945876E+04  0.15368972886E+04  0.84139047224E+03 0.  0.
         23    2    4    4    0    0  0.18857819292E+03  0.54249368952E+02 -0.98343081823E+03  0.10069872584E+04  0.91555641783E+02 0.  0.
         23    2    4    4    0    0 -0.44089321701E+03 -0.29809305983E+02 -0.27746376935E+03  0.52991003019E+03  0.92428746979E+02 0.  0.
         11    1    3    3    0    0 -0.35067418022E+01 -0.15477536642E+02 -0.82232976491E+02  0.83750306275E+02  0.00000000000E+00 0.  1.
        -11    1    3    3    0    0  0.25582176589E+03 -0.89625263263E+01 -0.13292309997E+04  0.13536543700E+04  0.00000000000E+00 0. -1.
          3    1    5    5  502    0  0.11359827788E+03 -0.86508007127E+01 -0.42292225452E+03  0.43799844573E+03  0.00000000000E+00 0. -1.
          3    1    6    6  503    0 -0.21029813489E+03  0.15553165913E+02 -0.17285757974E+03  0.27266637010E+03  0.00000000000E+00 0. -1.
         -3    1    5    5    0  502  0.74979915044E+02  0.62900169665E+02 -0.56050856371E+03  0.56898881272E+03  0.00000000000E+00 0.  1.
         -3    1    6    6    0  503 -0.23059508212E+03 -0.45362471896E+02 -0.10460618961E+03  0.25724366009E+03  0.00000000000E+00 0.  1.
<mgrwt>
<rscale>  0 0.13057457E+04</rscale>
<asrwt>0</asrwt>
<pdfrwt beam="1">  1        2 0.43435846E+00 0.13057457E+04</pdfrwt>
<pdfrwt beam="2">  1       -2 0.23226418E-01 0.13057457E+04</pdfrwt>
<totfact> 0.36244859E+01</totfact>
</mgrwt>
</event>
<event>
12    1  0.4967442E-008  0.1808050E+04  0.7818608E-02  0.8702030E-01
         -2   -1    0    0    0  501 -0.00000000000E+00  0.00000000000E+00  0.44828553668E+03  0.44828553668E+03  0.00000000000E+00 0. -1.
          2   -1    0    0  501    0  0.00000000000E+00 -0.00000000000E+00 -0.18230814407E+04  0.18230814407E+04  0.00000000000E+00 0.  1.
         23    2    1    2    0    0  0.63166608046E+03  0.18527677744E+03 -0.33488233684E+03  0.74919140686E+03  0.12574602629E+03 0.  0.
        254    2    1    2    0    0 -0.63166608046E+03 -0.18527677744E+03 -0.10399135672E+04  0.15221755705E+04  0.89569454549E+03 0.  0.
         23    2    4    4    0    0 -0.68759717131E+03  0.16192814236E+03 -0.49484113771E+03  0.86709705812E+03  0.89325043220E+02 0.  0.
         23    2    4    4    0    0  0.55931090844E+02 -0.34720491980E+03 -0.54507242945E+03  0.65507851239E+03  0.91347472834E+02 0.  0.
         13    1    3    3    0    0  0.17217395793E+03 -0.62490568543E+01 -0.91260888765E+02  0.19496531056E+03  0.00000000000E+00 0. -1.
        -13    1    3    3    0    0  0.45949212253E+03  0.19152583429E+03 -0.24362144807E+03  0.55422609631E+03  0.00000000000E+00 0.  1.
          4    1    5    5  502    0 -0.55948890517E+03  0.10563016171E+03 -0.36584034805E+03  0.67677524063E+03  0.00000000000E+00 0.  1.
          1    1    6    6  503    0 -0.16083044276E+01 -0.24600164881E+03 -0.34764270370E+03  0.42588125962E+03  0.00000000000E+00 0. -1.
         -4    1    5    5    0  502 -0.12810826614E+03  0.56297980650E+02 -0.12900078966E+03  0.19032181749E+03  0.00000000000E+00 0. -1.
         -1    1    6    6    0  503  0.57539395272E+02 -0.10120327099E+03 -0.19742972576E+03  0.22919725277E+03  0.00000000000E+00 0.  1.
<mgrwt>
<rscale>  0 0.18080498E+04</rscale>
<asrwt>0</asrwt>
<pdfrwt beam="1">  1        2 0.28047406E+00 0.18080498E+04</pdfrwt>
<pdfrwt beam="2">  1       -2 0.68967008E-01 0.18080498E+04</pdfrwt>
<totfact> 0.15176529E+01</totfact>
</mgrwt>
</event>
<event>
12    1  0.4967442E-008  0.1106814E+04  0.7818608E-02  0.9198576E-01
         -3   -1    0    0    0  501 -0.00000000000E+00  0.00000000000E+00  0.53646424309E+03  0.53646424309E+03  0.00000000000E+00 0.  1.
          3   -1    0    0  501    0  0.00000000000E+00 -0.00000000000E+00 -0.57088495610E+03  0.57088495610E+03  0.00000000000E+00 0. -1.
         23    2    1    2    0    0  0.13953748933E+03  0.96803359377E+02 -0.15457232346E+01  0.19216705891E+03  0.89912112376E+02 0.  0.
        254    2    1    2    0    0 -0.13953748933E+03 -0.96803359377E+02 -0.32874989777E+02  0.91518214028E+03  0.89868569791E+03 0.  0.
         23    2    4    4    0    0 -0.36171042184E+03 -0.38572468804E+03 -0.52569986763E+02  0.53930676962E+03  0.92033819980E+02 0.  0.
         23    2    4    4    0    0  0.22217293251E+03  0.28892132866E+03  0.19694996985E+02  0.37587537066E+03  0.89766671236E+02 0.  0.
         13    1    3    3    0    0 -0.24995192782E+00  0.30692759836E+02 -0.19701325471E+02  0.36472595296E+02  0.00000000000E+00 0. -1.
        -13    1    3    3    0    0  0.13978744126E+03  0.66110599540E+02  0.18155602236E+02  0.15569446361E+03  0.00000000000E+00 0.  1.
          4    1    5    5  502    0 -0.64649552721E+02 -0.12554471779E+03 -0.23218528795E+01  0.14123183718E+03  0.00000000000E+00 0. -1.
          3    1    6    6  503    0  0.10129742264E+02  0.68605984910E+02  0.87538096454E+01  0.69900086031E+02  0.00000000000E+00 0. -1.
         -4    1    5    5    0  502 -0.29706086912E+03 -0.26017997025E+03 -0.50248133883E+02  0.39807493245E+03  0.00000000000E+00 0.  1.
         -3    1    6    6    0  503  0.21204319024E+03  0.22031534375E+03  0.10941187340E+02  0.30597528463E+03  0.00000000000E+00 0.  1.
<mgrwt>
<rscale>  0 0.11068141E+04</rscale>
<asrwt>0</asrwt>
<pdfrwt beam="1">  1        3 0.87828455E-01 0.11068141E+04</pdfrwt>
<pdfrwt beam="2">  1       -3 0.82532961E-01 0.11068141E+04</pdfrwt>
<totfact> 0.41617550E+00</totfact>
</mgrwt>
</event>
<event>
12    1  0.4967442E-008  0.1297636E+04  0.7818608E-02  0.9031442E-01
         -2   -1    0    0    0  501 -0.00000000000E+00  0.00000000000E+00  0.34771959736E+03  0.34771959736E+03  0.00000000000E+00 0.  1.
          2   -1    0    0  501    0  0.00000000000E+00 -0.00000000000E+00 -0.12106435320E+04  0.12106435320E+04  0.00000000000E+00 0. -1.
         23    2    1    2    0    0  0.25813477128E+03  0.11652368585E+03 -0.53387623035E+03  0.61126643020E+03  0.91714174731E+02 0.  0.
        254    2    1    2    0    0 -0.25813477128E+03 -0.11652368585E+03 -0.32904770426E+03  0.94709669915E+03  0.84172943179E+03 0.  0.
         23    2    4    4    0    0 -0.52847899678E+03 -0.93670913908E+02 -0.36977835054E+03  0.65794417321E+03  0.89945630145E+02 0.  0.
         23    2    4    4    0    0  0.27034422550E+03 -0.22852771937E+02  0.40730646273E+02  0.28915252594E+03  0.91334266634E+02 0.  0.
         13    1    3    3    0    0  0.77240144676E+02  0.30944882302E+02 -0.80892138723E+02  0.11604810984E+03  0.00000000000E+00 0.  1.
        -13    1    3    3    0    0  0.18089462660E+03  0.85578803543E+02 -0.45298409163E+03  0.49521832036E+03  0.00000000000E+00 0. -1.
          4    1    5    5  502    0 -0.13365590273E+02  0.12435364295E+02 -0.13347198207E+02  0.22614707348E+02  0.00000000000E+00 0. -1.
          1    1    6    6  503    0  0.45918747938E+02  0.25621939878E+02 -0.11174559080E+02  0.53757659788E+02  0.00000000000E+00 0. -1.
         -4    1    5    5    0  502 -0.51511340651E+03 -0.10610627820E+03 -0.35643115233E+03  0.63532946586E+03  0.00000000000E+00 0.  1.
         -1    1    6    6    0  503  0.22442547757E+03 -0.48474711815E+02  0.51905205354E+02  0.23539486615E+03  0.00000000000E+00 0.  1.
<mgrwt>
<rscale>  0 0.12976355E+04</rscale>
<asrwt>0</asrwt>
<pdfrwt beam="1">  1        2 0.18625285E+00 0.12976355E+04</pdfrwt>
<pdfrwt beam="2">  1       -2 0.53495322E-01 0.12976355E+04</pdfrwt>
<totfact> 0.60251864E+01</totfact>
</mgrwt>
</event>
<event>
12    1  0.4967442E-008  0.1754009E+04  0.7818608E-02  0.8731147E-01
          2   -1    0    0  501    0  0.00000000000E+00  0.00000000000E+00  0.67172232561E+03  0.67172232561E+03  0.00000000000E+00 0. -1.
         -2   -1    0    0    0  501 -0.00000000000E+00 -0.00000000000E+00 -0.11450220041E+04  0.11450220041E+04  0.00000000000E+00 0.  1.
         23    2    1    2    0    0  0.37139210994E+02 -0.44767422998E+03 -0.65350517746E+03  0.79607894314E+03  0.69865081130E+02 0.  0.
        254    2    1    2    0    0 -0.37139210994E+02  0.44767422998E+03  0.18020549894E+03  0.10206653866E+04  0.89860573800E+03 0.  0.
         23    2    4    4    0    0 -0.72517617410E+02  0.65659874892E+03 -0.81398727627E+02  0.67189964286E+03  0.91883922979E+02 0.  0.
         23    2    4    4    0    0  0.35378406415E+02 -0.20892451894E+03  0.26160422657E+03  0.34876574373E+03  0.91102614615E+02 0.  0.
         11    1    3    3    0    0 -0.16236544096E+02 -0.13053336228E+03 -0.21966431265E+03  0.25603709552E+03  0.00000000000E+00 0. -1.
        -11    1    3    3    0    0  0.53375755090E+02 -0.31714086770E+03 -0.43384086481E+03  0.54004184761E+03  0.00000000000E+00 0.  1.
          2    1    5    5  502    0 -0.40485592046E+01  0.22292274331E+02 -0.21278075065E+02  0.31082033475E+02  0.00000000000E+00 0. -1.
          1    1    6    6  503    0 -0.27784678662E+02 -0.32626976911E+02  0.58282251019E+02  0.72341749872E+02  0.00000000000E+00 0. -1.
         -2    1    5    5    0  502 -0.68469058205E+02  0.63430647459E+03 -0.60120652562E+02  0.64081760939E+03  0.00000000000E+00 0.  1.
         -1    1    6    6    0  503  0.63163085077E+02 -0.17629754203E+03  0.20332197555E+03  0.27642399386E+03  0.00000000000E+00 0.  1.
<mgrwt>
<rscale>  0 0.17540089E+04</rscale>
<asrwt>0</asrwt>
<pdfrwt beam="1">  1        2 0.10334190E+00 0.17540089E+04</pdfrwt>
<pdfrwt beam="2">  1       -2 0.17615723E+00 0.17540089E+04</pdfrwt>
<totfact> 0.78798674E+00</totfact>
</mgrwt>
</event>
<event>
12    1  0.4967442E-008  0.1789625E+04  0.7818608E-02  0.8711837E-01
          1   -1    0    0  501    0  0.00000000000E+00  0.00000000000E+00  0.19297286830E+04  0.19297286830E+04  0.00000000000E+00 0. -1.
         -1   -1    0    0    0  501 -0.00000000000E+00 -0.00000000000E+00 -0.41492312594E+03  0.41492312594E+03  0.00000000000E+00 0.  1.
         23    2    1    2    0    0 -0.12303525243E+02 -0.58744786876E+03  0.15026846297E+03  0.61396399365E+03  0.95523815289E+02 0.  0.
        254    2    1    2    0    0  0.12303525243E+02  0.58744786876E+03  0.13645370941E+04  0.17306878153E+04  0.88773445221E+03 0.  0.
         23    2    4    4    0    0 -0.22669875743E+03  0.20542667817E+03  0.12008706451E+04  0.12426797366E+04  0.92575237819E+02 0.  0.
         23    2    4    4    0    0  0.23900228267E+03  0.38202119059E+03  0.16366644896E+03  0.48800807872E+03  0.91120234845E+02 0.  0.
         13    1    3    3    0    0  0.11281615949E+02 -0.31330108585E+03  0.34335719725E+02  0.31537879907E+03  0.00000000000E+00 0. -1.
        -13    1    3    3    0    0 -0.23585141192E+02 -0.27414678291E+03  0.11593274324E+03  0.29858519458E+03  0.00000000000E+00 0.  1.
          3    1    5    5  502    0 -0.12145081683E+03  0.11953375153E+03  0.83944645527E+03  0.85656813502E+03  0.00000000000E+00 0. -1.
          3    1    6    6  503    0  0.98896872824E+02  0.24195173296E+03  0.85154444014E+02  0.27490455047E+03  0.00000000000E+00 0. -1.
         -3    1    5    5    0  502 -0.10524794060E+03  0.85892926643E+02  0.36142418986E+03  0.38611160156E+03  0.00000000000E+00 0.  1.
         -3    1    6    6    0  503  0.14010540985E+03  0.14006945763E+03  0.78512004948E+02  0.21310352824E+03  0.00000000000E+00 0.  1.
<mgrwt>
<rscale>  0 0.17896246E+04</rscale>
<asrwt>0</asrwt>
<pdfrwt beam="1">  1        1 0.29688133E+00 0.17896246E+04</pdfrwt>
<pdfrwt beam="2">  1       -1 0.63834328E-01 0.17896246E+04</pdfrwt>
<totfact> 0.78182216E+00</totfact>
</mgrwt>
</event>
<event>
12    1  0.4967442E-008  0.1235698E+04  0.7818608E-02  0.9082171E-01
          1   -1    0    0  501    0  0.00000000000E+00  0.00000000000E+00  0.63843301573E+03  0.63843301573E+03  0.00000000000E+00 0. -1.
         -1   -1    0    0    0  501 -0.00000000000E+00 -0.00000000000E+00 -0.59792902942E+03  0.59792902942E+03  0.00000000000E+00 0.  1.
         23    2    1    2    0    0 -0.44952781642E+02 -0.17023050078E+02 -0.26741457907E+03  0.28717230594E+03  0.92988383085E+02 0.  0.
        254    2    1    2    0    0  0.44952781642E+02  0.17023050078E+02  0.30791856538E+03  0.94918973920E+03  0.89656945146E+03 0.  0.
         23    2    4    4    0    0 -0.25873926061E+03 -0.17850866487E+03  0.44455129744E+03  0.55188576496E+03  0.90225789512E+02 0.  0.
         23    2    4    4    0    0  0.30369204225E+03  0.19553171494E+03 -0.13663273206E+03  0.39730397425E+03  0.93383276889E+02 0.  0.
         11    1    3    3    0    0 -0.57903289236E+02 -0.18698313147E+02 -0.26727438307E+03  0.27411314027E+03  0.00000000000E+00 0.  1.
        -11    1    3    3    0    0  0.12950507593E+02  0.16752630686E+01 -0.14019599906E+00  0.13059165678E+02  0.00000000000E+00 0. -1.
          4    1    5    5  502    0 -0.10272070256E+03 -0.11187169239E+03  0.16005820752E+03  0.22064779194E+03  0.00000000000E+00 0. -1.
          3    1    6    6  503    0  0.30682259613E+03  0.19251215703E+03 -0.14314233714E+03  0.38947498607E+03  0.00000000000E+00 0. -1.
         -4    1    5    5    0  502 -0.15601855805E+03 -0.66636972473E+02  0.28449308992E+03  0.33123797302E+03  0.00000000000E+00 0.  1.
         -3    1    6    6    0  503 -0.31305538704E+01  0.30195579179E+01  0.65096050753E+01  0.78289881716E+01  0.00000000000E+00 0.  1.
<mgrwt>
<rscale>  0 0.12356984E+04</rscale>
<asrwt>0</asrwt>
<pdfrwt beam="1">  1        1 0.98220464E-01 0.12356984E+04</pdfrwt>
<pdfrwt beam="2">  1       -1 0.91989082E-01 0.12356984E+04</pdfrwt>
<totfact> 0.35550767E+01</totfact>
</mgrwt>
</event>
<event>
12    1  0.4967442E-008  0.2788647E+04  0.7818608E-02  0.8306802E-01
         -2   -1    0    0    0  501 -0.00000000000E+00  0.00000000000E+00  0.92716241370E+03  0.92716241370E+03  0.00000000000E+00 0.  1.
          2   -1    0    0  501    0  0.00000000000E+00 -0.00000000000E+00 -0.20968692317E+04  0.20968692317E+04  0.00000000000E+00 0. -1.
         23    2    1    2    0    0  0.11264090043E+04  0.51245216488E+03 -0.32569567986E+03  0.12829993016E+04  0.92763493242E+02 0.  0.
        254    2    1    2    0    0 -0.11264090043E+04 -0.51245216488E+03 -0.84401113811E+03  0.17410323438E+04  0.88737497967E+03 0.  0.
         23    2    4    4    0    0 -0.46776473476E+03 -0.68137457712E+03 -0.39699582822E+03  0.92182770386E+03  0.95317713681E+02 0.  0.
         23    2    4    4    0    0 -0.65864426957E+03  0.16892241224E+03 -0.44701530990E+03  0.81920463993E+03  0.94480154607E+02 0.  0.
         13    1    3    3    0    0  0.52097621347E+02  0.72762761296E+01 -0.25576580264E+02  0.58491604546E+02  0.00000000000E+00 0. -1.
        -13    1    3    3    0    0  0.10743113830E+04  0.50517588875E+03 -0.30011909960E+03  0.12245076970E+04  0.00000000000E+00 0.  1.
          2    1    6    6  502    0 -0.16273553349E+02 -0.97224106340E+01 -0.19337542411E+02  0.27079408295E+02  0.00000000000E+00 0. -1.
          2    1    5    5  503    0 -0.15371764616E+03 -0.19274277316E+03 -0.16338964634E+03  0.29576184318E+03  0.00000000000E+00 0. -1.
         -2    1    5    5    0  503 -0.31404708860E+03 -0.48863180396E+03 -0.23360618188E+03  0.62606586068E+03  0.00000000000E+00 0.  1.
         -2    1    6    6    0  502 -0.64237071622E+03  0.17864482288E+03 -0.42767776748E+03  0.79212523164E+03  0.00000000000E+00 0.  1.
<mgrwt>
<rscale>  0 0.27886472E+04</rscale>
<asrwt>0</asrwt>
<pdfrwt beam="1">  1        2 0.32259526E+00 0.27886472E+04</pdfrwt>
<pdfrwt beam="2">  1       -2 0.14264037E+00 0.27886472E+04</pdfrwt>
<totfact> 0.17577384E+00</totfact>
</mgrwt>
</event>
<event>
12    1  0.4967442E-008  0.1556472E+04  0.7818608E-02  0.8847744E-01
         -2   -1    0    0    0  501 -0.00000000000E+00  0.00000000000E+00  0.87854006652E+03  0.87854006652E+03  0.00000000000E+00 0.  1.
          2   -1    0    0  501    0  0.00000000000E+00 -0.00000000000E+00 -0.68938366477E+03  0.68938366477E+03  0.00000000000E+00 0. -1.
         23    2    1    2    0    0  0.32829257846E+03  0.82909662777E+01  0.46361131021E+03  0.57539309114E+03  0.91087898120E+02 0.  0.
        254    2    1    2    0    0 -0.32829257846E+03 -0.82909662777E+01 -0.27445490846E+03  0.99253064014E+03  0.89551483386E+03 0.  0.
         23    2    4    4    0    0 -0.52106818594E+03  0.11860426893E+03  0.92002409861E+02  0.54975815513E+03  0.90501705492E+02 0.  0.
         23    2    4    4    0    0  0.19277560748E+03 -0.12689523521E+03 -0.36645731832E+03  0.44277248502E+03  0.92150267393E+02 0.  0.
         13    1    3    3    0    0  0.10422980779E+03  0.40579020532E+02  0.18769542296E+03  0.21849503779E+03  0.00000000000E+00 0. -1.
        -13    1    3    3    0    0  0.22406277067E+03 -0.32288054255E+02  0.27591588726E+03  0.35689805336E+03  0.00000000000E+00 0.  1.
          2    1    5    5  502    0 -0.41029948068E+03  0.61480125683E+02  0.48277102274E+02  0.41767948035E+03  0.00000000000E+00 0. -1.
          1    1    6    6  503    0  0.29110478384E+01  0.33720382704E+01 -0.56362213680E+02  0.56537986987E+02  0.00000000000E+00 0. -1.
         -2    1    5    5    0  502 -0.11076870526E+03  0.57124143245E+02  0.43725307588E+02  0.13207867478E+03  0.00000000000E+00 0.  1.
         -1    1    6    6    0  503  0.18986455965E+03 -0.13026727348E+03 -0.31009510464E+03  0.38623449803E+03  0.00000000000E+00 0.  1.
<mgrwt>
<rscale>  0 0.15564719E+04</rscale>
<asrwt>0</asrwt>
<pdfrwt beam="1">  1        2 0.10605902E+00 0.15564719E+04</pdfrwt>
<pdfrwt beam="2">  1       -2 0.13516001E+00 0.15564719E+04</pdfrwt>
<totfact> 0.15801449E+01</totfact>
</mgrwt>
</event>
<event>
12    1  0.4967442E-008  0.1542755E+04  0.7818608E-02  0.8856509E-01
         -2   -1    0    0    0  501 -0.00000000000E+00  0.00000000000E+00  0.75544279080E+03  0.75544279080E+03  0.00000000000E+00 0. -1.
          2   -1    0    0  501    0  0.00000000000E+00 -0.00000000000E+00 -0.78764832919E+03  0.78764832919E+03  0.00000000000E+00 0.  1.
         23    2    1    2    0    0  0.82802415637E+02 -0.32698670698E+02 -0.50593456645E+03  0.52135491017E+03  0.88970296882E+02 0.  0.
        254    2    1    2    0    0 -0.82802415637E+02  0.32698670698E+02  0.47372902806E+03  0.10217362098E+04  0.90088858763E+03 0.  0.
         23    2    4    4    0    0  0.27789865498E+03 -0.85715070882E+02  0.54736051561E+03  0.62636118850E+03  0.90277730374E+02 0.  0.
         23    2    4    4    0    0 -0.36070107062E+03  0.11841374158E+03 -0.73631487543E+02  0.39537502132E+03  0.82296628044E+02 0.  0.
         11    1    3    3    0    0  0.72360725546E+02 -0.30018324447E+02 -0.19380995108E+03  0.20904418562E+03  0.00000000000E+00 0. -1.
        -11    1    3    3    0    0  0.10441690091E+02 -0.26803462506E+01 -0.31212461537E+03  0.31231072455E+03  0.00000000000E+00 0.  1.
          1    1    5    5  502    0  0.55497397063E+02 -0.57963383878E+02  0.13624861404E+03  0.15812463369E+03  0.00000000000E+00 0. -1.
          1    1    6    6  503    0 -0.22871868314E+03  0.79327548088E+02 -0.86620440553E+02  0.25711514274E+03  0.00000000000E+00 0. -1.
         -1    1    5    5    0  502  0.22240125792E+03 -0.27751687004E+02  0.41111190156E+03  0.46823655481E+03  0.00000000000E+00 0.  1.
         -1    1    6    6    0  503 -0.13198238747E+03  0.39086193491E+02  0.12988953010E+02  0.13825987858E+03  0.00000000000E+00 0.  1.
<mgrwt>
<rscale>  0 0.15427550E+04</rscale>
<asrwt>0</asrwt>
<pdfrwt beam="1">  1        2 0.12117667E+00 0.15427550E+04</pdfrwt>
<pdfrwt beam="2">  1       -2 0.11622197E+00 0.15427550E+04</pdfrwt>
<totfact> 0.19460431E+01</totfact>
</mgrwt>
</event>
<event>
12    1  0.4967442E-008  0.1170433E+04  0.7818608E-02  0.9139137E-01
          2   -1    0    0  501    0  0.00000000000E+00  0.00000000000E+00  0.16674497963E+04  0.16674497963E+04  0.00000000000E+00 0. -1.
         -2   -1    0    0    0  501 -0.00000000000E+00 -0.00000000000E+00 -0.20539057654E+03  0.20539057654E+03  0.00000000000E+00 0.  1.
         23    2    1    2    0    0 -0.18156084209E+03 -0.90891370944E+01  0.48318109231E+03  0.52470278652E+03  0.93819477838E+02 0.  0.
        254    2    1    2    0    0  0.18156084209E+03  0.90891370944E+01  0.97887812750E+03  0.13481375864E+04  0.90896953276E+03 0.  0.
         23    2    4    4    0    0 -0.10235753780E+03 -0.24118098550E+03  0.91294022420E+03  0.95333344202E+03  0.82094247089E+02 0.  0.
         23    2    4    4    0    0  0.28391837989E+03  0.25027012259E+03  0.65937903298E+02  0.39480414435E+03  0.90982001522E+02 0.  0.
         13    1    3    3    0    0 -0.61341938761E+02  0.32971727827E+02  0.24375227935E+03  0.25350570403E+03  0.00000000000E+00 0. -1.
        -13    1    3    3    0    0 -0.12021890333E+03 -0.42060864922E+02  0.23942881295E+03  0.27119708248E+03  0.00000000000E+00 0.  1.
          1    1    5    5  502    0 -0.87004432463E+02 -0.12758407570E+03  0.61529243820E+03  0.63437548199E+03  0.00000000000E+00 0. -1.
          3    1    6    6  503    0  0.25624957739E+03  0.24067258236E+03  0.82581759639E+02  0.36111893447E+03  0.00000000000E+00 0. -1.
         -1    1    5    5    0  502 -0.15353105335E+02 -0.11359690980E+03  0.29764778600E+03  0.31895796004E+03  0.00000000000E+00 0.  1.
         -3    1    6    6    0  503  0.27668802499E+02  0.95975402370E+01 -0.16643856341E+02  0.33685209873E+02  0.00000000000E+00 0.  1.
<mgrwt>
<rscale>  0 0.11704332E+04</rscale>
<asrwt>0</asrwt>
<pdfrwt beam="1">  1        2 0.25653073E+00 0.11704332E+04</pdfrwt>
<pdfrwt beam="2">  1       -2 0.31598551E-01 0.11704332E+04</pdfrwt>
<totfact> 0.94016037E+01</totfact>
</mgrwt>
</event>
<event>
12    1  0.4967442E-008  0.1319464E+04  0.7818608E-02  0.9014271E-01
         -1   -1    0    0    0  501 -0.00000000000E+00  0.00000000000E+00  0.18925071005E+03  0.18925071005E+03  0.00000000000E+00 0.  1.
          1   -1    0    0  501    0  0.00000000000E+00 -0.00000000000E+00 -0.22998399837E+04  0.22998399837E+04  0.00000000000E+00 0. -1.
         23    2    1    2    0    0  0.22135392035E+03  0.39285500432E+02 -0.10595412950E+04  0.10868296013E+04  0.89609808874E+02 0.  0.
        254    2    1    2    0    0 -0.22135392035E+03 -0.39285500432E+02 -0.10510479786E+04  0.14022610924E+04  0.90060724479E+03 0.  0.
         23    2    4    4    0    0 -0.79718781269E+02  0.64670154659E+02 -0.11647273555E+04  0.11728099640E+04  0.91411628383E+02 0.  0.
         23    2    4    4    0    0 -0.14163513908E+03 -0.10395565509E+03  0.11367937695E+03  0.22945112845E+03  0.94114445005E+02 0.  0.
         11    1    3    3    0    0  0.13746886403E+02  0.26939142920E+02 -0.81748001098E+02  0.87163237610E+02  0.00000000000E+00 0.  1.
        -11    1    3    3    0    0  0.20760703394E+03  0.12346357511E+02 -0.97779329392E+03  0.99966636370E+03  0.00000000000E+00 0. -1.
          2    1    5    5  502    0 -0.22859833964E+02  0.53902575128E+02 -0.27305377819E+03  0.27926049739E+03  0.00000000000E+00 0. -1.
          4    1    6    6  503    0  0.79842269911E+01 -0.32449110683E+02  0.21284910676E+02  0.39619945574E+02  0.00000000000E+00 0. -1.
         -2    1    5    5    0  502 -0.56858947305E+02  0.10767579531E+02 -0.89167357735E+03  0.89354946657E+03  0.00000000000E+00 0.  1.
         -4    1    6    6    0  503 -0.14961936607E+03 -0.71506544407E+02  0.92394466269E+02  0.18983118288E+03  0.00000000000E+00 0.  1.
<mgrwt>
<rscale>  0 0.13194641E+04</rscale>
<asrwt>0</asrwt>
<pdfrwt beam="1">  1        1 0.35382153E+00 0.13194641E+04</pdfrwt>
<pdfrwt beam="2">  1       -1 0.29115494E-01 0.13194641E+04</pdfrwt>
<totfact> 0.19698379E+01</totfact>
</mgrwt>
</event>
<event>
12    1  0.4967442E-008  0.1167161E+04  0.7818608E-02  0.9142096E-01
         -2   -1    0    0    0  501 -0.00000000000E+00  0.00000000000E+00  0.70207720939E+03  0.70207720939E+03  0.00000000000E+00 0.  1.
          2   -1    0    0  501    0  0.00000000000E+00 -0.00000000000E+00 -0.48508376715E+03  0.48508376715E+03  0.00000000000E+00 0. -1.
         23    2    1    2    0    0  0.58222869357E+02 -0.80348136583E+02  0.23940688281E+03  0.27530074701E+03  0.92893057849E+02 0.  0.
        254    2    1    2    0    0 -0.58222869357E+02  0.80348136583E+02 -0.22413440573E+02  0.91186022953E+03  0.90616830132E+03 0.  0.
         23    2    4    4    0    0  0.40858917450E+03  0.51574956981E+02 -0.81010655721E+02  0.42958746009E+03  0.91529065421E+02 0.  0.
         23    2    4    4    0    0 -0.46681204386E+03  0.28773179602E+02  0.58597215147E+02  0.48227276944E+03  0.10203925893E+03 0.  0.
         13    1    3    3    0    0  0.36831854705E+02 -0.23537905177E+02  0.20772240879E+02  0.48395294113E+02  0.00000000000E+00 0. -1.
        -13    1    3    3    0    0  0.21391014653E+02 -0.56810231407E+02  0.21863464194E+03  0.22690545290E+03  0.00000000000E+00 0.  1.
          1    1    5    5  502    0  0.26445805890E+02 -0.10121876410E+02 -0.26304300105E+02  0.38649052191E+02  0.00000000000E+00 0. -1.
          1    1    6    6  503    0 -0.72020021429E+02  0.21616027253E+02  0.44052869928E+02  0.87148100781E+02  0.00000000000E+00 0. -1.
         -1    1    5    5    0  502  0.38214336861E+03  0.61696833391E+02 -0.54706355616E+02  0.39093840790E+03  0.00000000000E+00 0.  1.
         -1    1    6    6    0  503 -0.39479202243E+03  0.71571523485E+01  0.14544345220E+02  0.39512466866E+03  0.00000000000E+00 0.  1.
<mgrwt>
<rscale>  0 0.11671611E+04</rscale>
<asrwt>0</asrwt>
<pdfrwt beam="1">  1        2 0.74628272E-01 0.11671611E+04</pdfrwt>
<pdfrwt beam="2">  1       -2 0.10801188E+00 0.11671611E+04</pdfrwt>
<totfact> 0.43310432E+01</totfact>
</mgrwt>
</event>
<event>
12    1  0.4967442E-008  0.1109752E+04  0.7818608E-02  0.9195738E-01
          2   -1    0    0  501    0  0.00000000000E+00  0.00000000000E+00  0.35835904981E+03  0.35835904981E+03  0.00000000000E+00 0.  1.
         -2   -1    0    0    0  501 -0.00000000000E+00 -0.00000000000E+00 -0.85915946936E+03  0.85915946936E+03  0.00000000000E+00 0. -1.
         23    2    1    2    0    0 -0.13783389033E+03  0.56532054036E+02 -0.38655347054E+02  0.17872806379E+03  0.90859399481E+02 0.  0.
        254    2    1    2    0    0  0.13783389033E+03 -0.56532054036E+02 -0.46214507249E+03  0.10387904554E+04  0.91832101560E+03 0.  0.
         23    2    4    4    0    0  0.11133516248E+03  0.39502487357E+03 -0.56210152564E+02  0.42392540200E+03  0.90072171453E+02 0.  0.
         23    2    4    4    0    0  0.26498727850E+02 -0.45155692761E+03 -0.40593491993E+03  0.61486505337E+03  0.93113013030E+02 0.  0.
         13    1    3    3    0    0 -0.64356145729E+02  0.15805126596E+02  0.27549236346E+02  0.71766816448E+02  0.00000000000E+00 0.  1.
        -13    1    3    3    0    0 -0.73477744602E+02  0.40726927440E+02 -0.66204583400E+02  0.10696124735E+03  0.00000000000E+00 0. -1.
          2    1    5    5  502    0  0.77975655778E+02  0.35044471675E+03 -0.71757001115E+02  0.36611578716E+03  0.00000000000E+00 0. -1.
          3    1    6    6  503    0  0.14684892742E+02 -0.18040867445E+03 -0.10350490456E+03  0.20850947498E+03  0.00000000000E+00 0. -1.
         -2    1    5    5    0  502  0.33359506704E+02  0.44580156815E+02  0.15546848551E+02  0.57809614850E+02  0.00000000000E+00 0.  1.
         -3    1    6    6    0  503  0.11813835107E+02 -0.27114825316E+03 -0.30243001537E+03  0.40635557839E+03  0.00000000000E+00 0.  1.
<mgrwt>
<rscale>  0 0.11097524E+04</rscale>
<asrwt>0</asrwt>
<pdfrwt beam="1">  1        2 0.55132162E-01 0.11097524E+04</pdfrwt>
<pdfrwt beam="2">  1       -2 0.13217838E+00 0.11097524E+04</pdfrwt>
<totfact> 0.37153357E+01</totfact>
</mgrwt>
</event>
<event>
12    1  0.4967442E-008  0.2921851E+04  0.7818608E-02  0.8266406E-01
         -2   -1    0    0    0  501 -0.00000000000E+00  0.00000000000E+00  0.12922669354E+04  0.12922669354E+04  0.00000000000E+00 0.  1.
          2   -1    0    0  501    0  0.00000000000E+00 -0.00000000000E+00 -0.16515960765E+04  0.16515960765E+04  0.00000000000E+00 0. -1.
         23    2    1    2    0    0  0.95083818450E+03  0.91321426074E+03 -0.23305727471E+03  0.13417219433E+04  0.88591990271E+02 0.  0.
        254    2    1    2    0    0 -0.95083818450E+03 -0.91321426074E+03 -0.12627186643E+03  0.16021410686E+04  0.90158631332E+03 0.  0.
         23    2    4    4    0    0 -0.11203582131E+03 -0.11971357093E+03  0.31243561363E+03  0.36353932822E+03  0.87529801647E+02 0.  0.
         23    2    4    4    0    0 -0.83880236319E+03 -0.79350068981E+03 -0.43870748006E+03  0.12386017404E+04  0.91854608099E+02 0.  0.
         13    1    3    3    0    0  0.86358667580E+02  0.83505117497E+02  0.43379013567E+01  0.12020707759E+03  0.00000000000E+00 0.  1.
        -13    1    3    3    0    0  0.86447951692E+03  0.82970914324E+03 -0.23739517606E+03  0.12215148657E+04  0.00000000000E+00 0. -1.
          3    1    6    6  502    0 -0.78886205735E+03 -0.71753463548E+03 -0.41790951591E+03  0.11453417229E+04  0.00000000000E+00 0. -1.
          3    1    5    5  503    0 -0.83239892559E+02 -0.63189048358E+02  0.26335343991E+03  0.28333155465E+03  0.00000000000E+00 0. -1.
         -3    1    5    5    0  503 -0.28795928752E+02 -0.56524522571E+02  0.49082173721E+02  0.80207773574E+02  0.00000000000E+00 0.  1.
         -3    1    6    6    0  502 -0.49940305837E+02 -0.75966054326E+02 -0.20797964155E+02  0.93260017531E+02  0.00000000000E+00 0.  1.
<mgrwt>
<rscale>  0 0.29218508E+04</rscale>
<asrwt>0</asrwt>
<pdfrwt beam="1">  1        2 0.25409170E+00 0.29218508E+04</pdfrwt>
<pdfrwt beam="2">  1       -2 0.19881030E+00 0.29218508E+04</pdfrwt>
<totfact> 0.12176082E+00</totfact>
</mgrwt>
</event>
<event>
12    1  0.4967442E-008  0.2172485E+04  0.7818608E-02  0.8529968E-01
          2   -1    0    0  501    0  0.00000000000E+00  0.00000000000E+00  0.18329114189E+04  0.18329114189E+04  0.00000000000E+00 0. -1.
         -2   -1    0    0    0  501 -0.00000000000E+00 -0.00000000000E+00 -0.64374267753E+03  0.64374267753E+03  0.00000000000E+00 0.  1.
         23    2    1    2    0    0  0.87301466425E+03 -0.20646599422E+02  0.73184648179E+03  0.11431004782E+04  0.92187549912E+02 0.  0.
        254    2    1    2    0    0 -0.87301466425E+03  0.20646599422E+02  0.45732225960E+03  0.13335536182E+04  0.89813179292E+03 0.  0.
         23    2    4    4    0    0 -0.13640268955E+03  0.38885555552E+03  0.13937842182E+03  0.44537168408E+03  0.95473848437E+02 0.  0.
         23    2    4    4    0    0 -0.73661197471E+03 -0.36820895610E+03  0.31794383778E+03  0.88818193414E+03  0.97999119932E+02 0.  0.
         13    1    3    3    0    0  0.36941304410E+03  0.55447842023E+01  0.25371533690E+03  0.44818323704E+03  0.00000000000E+00 0.  1.
        -13    1    3    3    0    0  0.50360162015E+03 -0.26191383624E+02  0.47813114489E+03  0.69491724120E+03  0.00000000000E+00 0. -1.
          4    1    5    5  502    0 -0.11809077831E+02  0.85572978283E+02  0.67696141183E+02  0.10974951691E+03  0.00000000000E+00 0.  1.
          3    1    6    6  503    0 -0.34999484476E+03 -0.16365554962E+03  0.20050359046E+03  0.43529440620E+03  0.00000000000E+00 0. -1.
         -4    1    5    5    0  502 -0.12459361172E+03  0.30328257724E+03  0.71682280636E+02  0.33562216716E+03  0.00000000000E+00 0. -1.
         -3    1    6    6    0  503 -0.38661712994E+03 -0.20455340648E+03  0.11744024733E+03  0.45288752793E+03  0.00000000000E+00 0.  1.
<mgrwt>
<rscale>  0 0.21724855E+04</rscale>
<asrwt>0</asrwt>
<pdfrwt beam="1">  1        2 0.28198637E+00 0.21724855E+04</pdfrwt>
<pdfrwt beam="2">  1       -2 0.99037336E-01 0.21724855E+04</pdfrwt>
<totfact> 0.64054338E+00</totfact>
</mgrwt>
</event>
<event>
12    1  0.4967442E-008  0.1615934E+04  0.7818608E-02  0.8810819E-01
          1   -1    0    0  501    0  0.00000000000E+00  0.00000000000E+00  0.31129731920E+04  0.31129731920E+04  0.00000000000E+00 0. -1.
         -1   -1    0    0    0  501 -0.00000000000E+00 -0.00000000000E+00 -0.20970642283E+03  0.20970642283E+03  0.00000000000E+00 0.  1.
         23    2    1    2    0    0  0.55147365792E+03  0.52016442080E+02  0.92294314719E+03  0.10801204154E+04  0.89482698223E+02 0.  0.
        254    2    1    2    0    0 -0.55147365792E+03 -0.52016442080E+02  0.19803236220E+04  0.22425591994E+04  0.89474086159E+03 0.  0.
         23    2    4    4    0    0  0.95525314985E+02  0.28071476982E+03  0.72495080509E+03  0.78872471696E+03  0.92774681512E+02 0.  0.
         23    2    4    4    0    0 -0.64699897290E+03 -0.33273121190E+03  0.12553728169E+04  0.14538344824E+04  0.91411501719E+02 0.  0.
         13    1    3    3    0    0  0.27719366056E+03  0.25867857279E+02  0.54992951717E+03  0.61638295348E+03  0.00000000000E+00 0. -1.
        -13    1    3    3    0    0  0.27427999736E+03  0.26148584800E+02  0.37301363002E+03  0.46373746195E+03  0.00000000000E+00 0.  1.
          4    1    6    6  502    0 -0.12578722284E+03 -0.92799324158E+02  0.21641486670E+03  0.26696354531E+03  0.00000000000E+00 0.  1.
          4    1    5    5  503    0  0.28346453557E+02  0.85671612684E+01  0.54343067898E+02  0.61887694335E+02  0.00000000000E+00 0. -1.
         -4    1    5    5    0  503  0.67178861428E+02  0.27214760856E+03  0.67060773720E+03  0.72683702262E+03  0.00000000000E+00 0.  1.
         -4    1    6    6    0  502 -0.52121175006E+03 -0.23993188775E+03  0.10389579502E+04  0.11868709371E+04  0.00000000000E+00 0. -1.
<mgrwt>
<rscale>  0 0.16159338E+04</rscale>
<asrwt>0</asrwt>
<pdfrwt beam="1">  1        1 0.47891892E+00 0.16159338E+04</pdfrwt>
<pdfrwt beam="2">  1       -1 0.32262529E-01 0.16159338E+04</pdfrwt>
<totfact> 0.42691713E+00</totfact>
</mgrwt>
</event>
<event>
12    1  0.4967442E-008  0.1842822E+04  0.7818608E-02  0.8683853E-01
          2   -1    0    0  501    0  0.00000000000E+00  0.00000000000E+00  0.10124856972E+04  0.10124856972E+04  0.00000000000E+00 0. -1.
         -2   -1    0    0    0  501 -0.00000000000E+00 -0.00000000000E+00 -0.83852843114E+03  0.83852843114E+03  0.00000000000E+00 0.  1.
         23    2    1    2    0    0 -0.55934866103E+03 -0.25646922178E+03 -0.27633078397E+03  0.68288484642E+03  0.10642191966E+03 0.  0.
        254    2    1    2    0    0  0.55934866103E+03  0.25646922178E+03  0.45028805006E+03  0.11681292819E+04  0.88494028329E+03 0.  0.
         23    2    4    4    0    0  0.72997766833E+03  0.50225061787E+02  0.15020871967E+03  0.75294031119E+03  0.94691602877E+02 0.  0.
         23    2    4    4    0    0 -0.17062900729E+03  0.20624415999E+03  0.30007933039E+03  0.41518897076E+03  0.10336036598E+03 0.  0.
         11    1    3    3    0    0 -0.29786288838E+03 -0.18966496870E+03 -0.17975758497E+03  0.39624221126E+03  0.00000000000E+00 0.  1.
        -11    1    3    3    0    0 -0.26148577266E+03 -0.66804253075E+02 -0.96573198997E+02  0.28664263517E+03  0.00000000000E+00 0. -1.
          2    1    5    5  502    0  0.48583688033E+03  0.23914516872E+02  0.14405881046E+03  0.50730889927E+03  0.00000000000E+00 0.  1.
          3    1    6    6  503    0  0.66884892531E+01  0.15859068576E+02 -0.10400261269E+01  0.17243189929E+02  0.00000000000E+00 0. -1.
         -2    1    5    5    0  502  0.24414078800E+03  0.26310544915E+02  0.61499092152E+01  0.24563141192E+03  0.00000000000E+00 0. -1.
         -3    1    6    6    0  503 -0.17731749655E+03  0.19038509141E+03  0.30111935651E+03  0.39794578083E+03  0.00000000000E+00 0.  1.
<mgrwt>
<rscale>  0 0.18428218E+04</rscale>
<asrwt>0</asrwt>
<pdfrwt beam="1">  1        2 0.15576703E+00 0.18428218E+04</pdfrwt>
<pdfrwt beam="2">  1       -2 0.12900437E+00 0.18428218E+04</pdfrwt>
<totfact> 0.10302975E+01</totfact>
</mgrwt>
</event>
<event>
12    1  0.4967442E-008  0.1807137E+04  0.7818608E-02  0.8702513E-01
         -1   -1    0    0    0  501 -0.00000000000E+00  0.00000000000E+00  0.15869972846E+04  0.15869972846E+04  0.00000000000E+00 0.  1.
          1   -1    0    0  501    0  0.00000000000E+00 -0.00000000000E+00 -0.51445313932E+03  0.51445313932E+03  0.00000000000E+00 0. -1.
         23    2    1    2    0    0  0.32151619094E+03 -0.35280375807E+03  0.96321562410E+03  0.10789458463E+04  0.92177264485E+02 0.  0.
        254    2    1    2    0    0 -0.32151619094E+03  0.35280375807E+03  0.10932852118E+03  0.10225045776E+04  0.89761892409E+03 0.  0.
         23    2    4    4    0    0 -0.45685351938E+03  0.41940569669E+03  0.35468238326E+03  0.72049456394E+03  0.93255279117E+02 0.  0.
         23    2    4    4    0    0  0.13533732844E+03 -0.66601938627E+02 -0.24535386208E+03  0.30201001363E+03  0.90881901386E+02 0.  0.
         11    1    3    3    0    0  0.21652735174E+03 -0.20499274335E+03  0.50932610719E+03  0.59018573546E+03  0.00000000000E+00 0.  1.
        -11    1    3    3    0    0  0.10498883920E+03 -0.14781101472E+03  0.45388951691E+03  0.48876011088E+03  0.00000000000E+00 0. -1.
          3    1    5    5  502    0 -0.31596082954E+03  0.30360621065E+03  0.20137858674E+03  0.48224611159E+03  0.00000000000E+00 0. -1.
          3    1    6    6  503    0  0.11026419741E+03 -0.24718982450E+02 -0.10828474936E+03  0.15650817317E+03  0.00000000000E+00 0. -1.
         -3    1    5    5    0  502 -0.14089268984E+03  0.11579948605E+03  0.15330379652E+03  0.23824845235E+03  0.00000000000E+00 0.  1.
         -3    1    6    6    0  503  0.25073131029E+02 -0.41882956177E+02 -0.13706911271E+03  0.14550184046E+03  0.00000000000E+00 0.  1.
<mgrwt>
<rscale>  0 0.18071367E+04</rscale>
<asrwt>0</asrwt>
<pdfrwt beam="1">  1        1 0.79146637E-01 0.18071367E+04</pdfrwt>
<pdfrwt beam="2">  1       -1 0.24415343E+00 0.18071367E+04</pdfrwt>
<totfact> 0.30591923E+00</totfact>
</mgrwt>
</event>
<event>
12    1  0.4967442E-008  0.1696646E+04  0.7818608E-02  0.8763280E-01
         -2   -1    0    0    0  501 -0.00000000000E+00  0.00000000000E+00  0.39660096679E+03  0.39660096679E+03  0.00000000000E+00 0.  1.
          2   -1    0    0  501    0  0.00000000000E+00 -0.00000000000E+00 -0.18145482501E+04  0.18145482501E+04  0.00000000000E+00 0. -1.
         23    2    1    2    0    0  0.17930189592E+03 -0.71833857962E+02  0.23537763290E+03  0.31923877532E+03  0.95924410674E+02 0.  0.
        254    2    1    2    0    0 -0.17930189592E+03  0.71833857962E+02 -0.16533249162E+04  0.18919104415E+04  0.89918439006E+03 0.  0.
         23    2    4    4    0    0 -0.13189950236E+03  0.60135118042E+02  0.55318998133E+02  0.18004651727E+03  0.91339179330E+02 0.  0.
         23    2    4    4    0    0 -0.47402393564E+02  0.11698739920E+02 -0.17086439143E+04  0.17118639243E+04  0.92898987552E+02 0.  0.
         13    1    3    3    0    0  0.60488960136E+02 -0.51576206714E+02  0.15551399156E+03  0.17465285846E+03  0.00000000000E+00 0.  1.
        -13    1    3    3    0    0  0.11881293579E+03 -0.20257651247E+02  0.79863641342E+02  0.14458591686E+03  0.00000000000E+00 0. -1.
          2    1    5    5  502    0 -0.14015660140E+03  0.49087700432E+02  0.30427424601E+02  0.15158925891E+03  0.00000000000E+00 0. -1.
          3    1    6    6  503    0 -0.70073526043E+02  0.14451759131E+02 -0.87946942380E+03  0.88237498820E+03  0.00000000000E+00 0. -1.
         -2    1    5    5    0  502  0.82570990365E+01  0.11047417610E+02  0.24891573532E+02  0.28457258358E+02  0.00000000000E+00 0.  1.
         -3    1    6    6    0  503  0.22671132479E+02 -0.27530192114E+01 -0.82917449052E+03  0.82948893608E+03  0.00000000000E+00 0.  1.
<mgrwt>
<rscale>  0 0.16966456E+04</rscale>
<asrwt>0</asrwt>
<pdfrwt beam="1">  1        2 0.27916127E+00 0.16966456E+04</pdfrwt>
<pdfrwt beam="2">  1       -2 0.61015534E-01 0.16966456E+04</pdfrwt>
<totfact> 0.20147258E+01</totfact>
</mgrwt>
</event>
<event>
12    1  0.4967442E-008  0.1031211E+04  0.7818608E-02  0.9274960E-01
         -1   -1    0    0    0  501 -0.00000000000E+00  0.00000000000E+00  0.38629639108E+03  0.38629639108E+03  0.00000000000E+00 0.  1.
          1   -1    0    0  501    0  0.00000000000E+00 -0.00000000000E+00 -0.68820005204E+03  0.68820005204E+03  0.00000000000E+00 0. -1.
         23    2    1    2    0    0  0.13271819069E+02  0.84491652013E+02 -0.42156597267E+02  0.13359508792E+03  0.93570766702E+02 0.  0.
        254    2    1    2    0    0 -0.13271819069E+02 -0.84491652013E+02 -0.25974706370E+03  0.94090135521E+03  0.90028431214E+03 0.  0.
         23    2    4    4    0    0  0.36122579982E+03 -0.23723614958E+03 -0.28410601520E+03  0.52528333967E+03  0.91876492841E+02 0.  0.
         23    2    4    4    0    0 -0.37449761889E+03  0.15274449756E+03  0.24358951507E+02  0.41561801553E+03  0.92550679222E+02 0.  0.
         11    1    3    3    0    0 -0.82146043335E+00  0.59591280189E+02 -0.71182949586E+02  0.92837534346E+02  0.00000000000E+00 0. -1.
        -11    1    3    3    0    0  0.14093279503E+02  0.24900371825E+02  0.29026352319E+02  0.40757553571E+02  0.00000000000E+00 0.  1.
          1    1    5    5  502    0  0.22173623634E+02 -0.84735771629E+01 -0.46648318169E+02  0.52340583518E+02  0.00000000000E+00 0. -1.
          3    1    6    6  503    0 -0.56425067172E+02  0.51343887244E+02  0.29339896844E+02  0.81736237432E+02  0.00000000000E+00 0. -1.
         -1    1    5    5    0  502  0.33905217619E+03 -0.22876257241E+03 -0.23745769703E+03  0.47294275615E+03  0.00000000000E+00 0.  1.
         -3    1    6    6    0  503 -0.31807255172E+03  0.10140061032E+03 -0.49809453372E+01  0.33388177810E+03  0.00000000000E+00 0.  1.
<mgrwt>
<rscale>  0 0.10312113E+04</rscale>
<asrwt>0</asrwt>
<pdfrwt beam="1">  1        1 0.10587693E+00 0.10312113E+04</pdfrwt>
<pdfrwt beam="2">  1       -1 0.59430215E-01 0.10312113E+04</pdfrwt>
<totfact> 0.80314668E+01</totfact>
</mgrwt>
</event>
<event>
12    1  0.4967442E-008  0.1124816E+04  0.7818608E-02  0.9181337E-01
          2   -1    0    0  501    0  0.00000000000E+00  0.00000000000E+00  0.24008967867E+04  0.24008967867E+04  0.00000000000E+00 0. -1.
         -2   -1    0    0    0  501 -0.00000000000E+00 -0.00000000000E+00 -0.13174348599E+03  0.13174348599E+03  0.00000000000E+00 0.  1.
         23    2    1    2    0    0 -0.32773056238E+02  0.11904866751E+03  0.75553722521E+03  0.77053621105E+03  0.87423654746E+02 0.  0.
        254    2    1    2    0    0  0.32773056238E+02 -0.11904866751E+03  0.15136160755E+04  0.17621040617E+04  0.89371720448E+03 0.  0.
         23    2    4    4    0    0 -0.26301045651E+03  0.77322331853E+02  0.10517214363E+03  0.30688076079E+03  0.89226556063E+02 0.  0.
         23    2    4    4    0    0  0.29578351275E+03 -0.19637099936E+03  0.14084439319E+04  0.14552233009E+04  0.88944310157E+02 0.  0.
         11    1    3    3    0    0  0.22574860606E+02  0.62346908801E+02  0.24191050439E+03  0.25083351751E+03  0.00000000000E+00 0. -1.
        -11    1    3    3    0    0 -0.55347916844E+02  0.56701758709E+02  0.51362672081E+03  0.51970269354E+03  0.00000000000E+00 0.  1.
          2    1    5    5  502    0 -0.31070104711E+02 -0.76861070096E+01 -0.11073711384E+02  0.33868196461E+02  0.00000000000E+00 0.  1.
          2    1    6    6  503    0  0.46453943045E+02 -0.86672069787E+01  0.29935024605E+03  0.30305718786E+03  0.00000000000E+00 0.  1.
         -2    1    5    5    0  502 -0.23194035180E+03  0.85008438863E+02  0.11624585501E+03  0.27301256433E+03  0.00000000000E+00 0. -1.
         -2    1    6    6    0  503  0.24932956971E+03 -0.18770379238E+03  0.11090936858E+04  0.11521661130E+04  0.00000000000E+00 0. -1.
<mgrwt>
<rscale>  0 0.11248156E+04</rscale>
<asrwt>0</asrwt>
<pdfrwt beam="1">  1        2 0.36936870E+00 0.11248156E+04</pdfrwt>
<pdfrwt beam="2">  1       -2 0.20268230E-01 0.11248156E+04</pdfrwt>
<totfact> 0.82740373E+01</totfact>
</mgrwt>
</event>
<event>
12    1  0.4967442E-008  0.1807250E+04  0.7818608E-02  0.8702453E-01
          2   -1    0    0  501    0  0.00000000000E+00  0.00000000000E+00  0.16230163056E+04  0.16230163056E+04  0.00000000000E+00 0. -1.
         -2   -1    0    0    0  501 -0.00000000000E+00 -0.00000000000E+00 -0.50309932673E+03  0.50309932673E+03  0.00000000000E+00 0.  1.
         23    2    1    2    0    0 -0.10412162631E+03  0.60377662270E+03  0.93289331901E+02  0.62643986061E+03  0.91304306171E+02 0.  0.
        254    2    1    2    0    0  0.10412162631E+03 -0.60377662270E+03  0.10266276470E+04  0.14996757717E+04  0.90535936047E+03 0.  0.
         23    2    4    4    0    0  0.27255147590E+03 -0.64981152673E+03  0.10817967616E+04  0.12945351997E+04  0.94856853036E+02 0.  0.
         23    2    4    4    0    0 -0.16842984959E+03  0.46034904023E+02 -0.55169114673E+02  0.20514057199E+03  0.92472679433E+02 0.  0.
         13    1    3    3    0    0  0.11872789722E+01  0.18799722358E+03  0.54710298486E+02  0.19579985308E+03  0.00000000000E+00 0. -1.
        -13    1    3    3    0    0 -0.10530890528E+03  0.41577939912E+03  0.38579033414E+02  0.43064000753E+03  0.00000000000E+00 0.  1.
          4    1    5    5  502    0  0.73586668656E+02 -0.86511724106E+02  0.16844206788E+03  0.20315512901E+03  0.00000000000E+00 0. -1.
          1    1    6    6  503    0 -0.27489574614E+02 -0.26472167763E+02 -0.30129581963E+01  0.38282245175E+02  0.00000000000E+00 0. -1.
         -4    1    5    5    0  502  0.19896480725E+03 -0.56329980262E+03  0.91335469375E+03  0.10913800707E+04  0.00000000000E+00 0.  1.
         -1    1    6    6    0  503 -0.14094027498E+03  0.72507071787E+02 -0.52156156477E+02  0.16685832682E+03  0.00000000000E+00 0.  1.
<mgrwt>
<rscale>  0 0.18072503E+04</rscale>
<asrwt>0</asrwt>
<pdfrwt beam="1">  1        2 0.24969481E+00 0.18072503E+04</pdfrwt>
<pdfrwt beam="2">  1       -2 0.77399897E-01 0.18072503E+04</pdfrwt>
<totfact> 0.15204909E+01</totfact>
</mgrwt>
</event>
<event>
12    1  0.4967442E-008  0.1906823E+04  0.7818608E-02  0.8651467E-01
          1   -1    0    0  501    0  0.00000000000E+00  0.00000000000E+00  0.92203332943E+03  0.92203332943E+03  0.00000000000E+00 0. -1.
         -1   -1    0    0    0  501 -0.00000000000E+00 -0.00000000000E+00 -0.98585781328E+03  0.98585781328E+03  0.00000000000E+00 0.  1.
         23    2    1    2    0    0 -0.32167669597E+02  0.33228496684E+03 -0.67260539162E+03  0.75632519457E+03  0.90452910161E+02 0.  0.
        254    2    1    2    0    0  0.32167669597E+02 -0.33228496684E+03  0.60878090778E+03  0.11515659481E+04  0.91871751974E+03 0.  0.
         23    2    4    4    0    0  0.21131140678E+03 -0.59830852794E+03  0.43809604546E+03  0.77650131427E+03  0.91654464060E+02 0.  0.
         23    2    4    4    0    0 -0.17914373719E+03  0.26602356110E+03  0.17068486232E+03  0.37506463387E+03  0.93161922048E+02 0.  0.
         13    1    3    3    0    0  0.16151410651E+01  0.29412291421E+03 -0.59026412337E+03  0.65948664330E+03  0.00000000000E+00 0.  1.
        -13    1    3    3    0    0 -0.33782810663E+02  0.38162052627E+02 -0.82341268245E+02  0.96838551275E+02  0.00000000000E+00 0. -1.
          2    1    6    6  502    0 -0.11294657990E+03  0.21020369760E+03  0.85183171412E+02  0.25337461808E+03  0.00000000000E+00 0. -1.
          2    1    5    5  503    0 -0.30352290229E+01  0.13011184862E+01 -0.44132790151E+00  0.33317104997E+01  0.00000000000E+00 0.  1.
         -2    1    5    5    0  503  0.21434663581E+03 -0.59960964642E+03  0.43853737336E+03  0.77316960377E+03  0.00000000000E+00 0. -1.
         -2    1    6    6    0  502 -0.66197157287E+02  0.55819863498E+02  0.85501690909E+02  0.12169001579E+03  0.00000000000E+00 0.  1.
<mgrwt>
<rscale>  0 0.19068233E+04</rscale>
<asrwt>0</asrwt>
<pdfrwt beam="1">  1        1 0.14185128E+00 0.19068233E+04</pdfrwt>
<pdfrwt beam="2">  1       -1 0.15167043E+00 0.19068233E+04</pdfrwt>
<totfact> 0.55278780E+00</totfact>
</mgrwt>
</event>
<event>
12    1  0.4967442E-008  0.1040815E+04  0.7818608E-02  0.9264879E-01
          4   -1    0    0  501    0  0.00000000000E+00  0.00000000000E+00  0.43843326541E+03  0.43843326541E+03  0.00000000000E+00 0. -1.
         -4   -1    0    0    0  501 -0.00000000000E+00 -0.00000000000E+00 -0.61770834586E+03  0.61770834586E+03  0.00000000000E+00 0.  1.
         23    2    1    2    0    0  0.17294998193E+03  0.13594423501E+02 -0.11627222341E+03  0.22780861034E+03  0.91000156094E+02 0.  0.
        254    2    1    2    0    0 -0.17294998193E+03 -0.13594423501E+02 -0.63002857035E+02  0.82833300093E+03  0.80750832556E+03 0.  0.
         23    2    4    4    0    0 -0.10118689431E+03 -0.26155030944E+03 -0.33195809194E+03  0.44444585216E+03  0.93212599754E+02 0.  0.
         23    2    4    4    0    0 -0.71763087615E+02  0.24795588594E+03  0.26895523490E+03  0.38388714877E+03  0.91653491448E+02 0.  0.
         11    1    3    3    0    0  0.17099516413E+03 -0.10714527981E+02 -0.10496547889E+03  0.20092759648E+03  0.00000000000E+00 0.  1.
        -11    1    3    3    0    0  0.19548177953E+01  0.24308951482E+02 -0.11306744519E+02  0.26881013864E+02  0.00000000000E+00 0. -1.
          1    1    6    6  502    0  0.10686418649E+02  0.10497577895E+03  0.13483432715E+03  0.17121451307E+03  0.00000000000E+00 0. -1.
          1    1    5    5  503    0 -0.82313873540E+02 -0.13804583712E+03 -0.24192359530E+03  0.29044664379E+03  0.00000000000E+00 0. -1.
         -1    1    5    5    0  503 -0.18873020771E+02 -0.12350447232E+03 -0.90034496639E+02  0.15399920838E+03  0.00000000000E+00 0.  1.
         -1    1    6    6    0  502 -0.82449506264E+02  0.14298010699E+03  0.13412090776E+03  0.21267263570E+03  0.00000000000E+00 0.  1.
<mgrwt>
<rscale>  0 0.10408148E+04</rscale>
<asrwt>0</asrwt>
<pdfrwt beam="1">  1        4 0.67451272E-01 0.10408148E+04</pdfrwt>
<pdfrwt beam="2">  1       -4 0.95032053E-01 0.10408148E+04</pdfrwt>
<totfact> 0.37514115E+00</totfact>
</mgrwt>
</event>
<event>
12    1  0.4967442E-008  0.1540900E+04  0.7818608E-02  0.8857701E-01
          1   -1    0    0  501    0  0.00000000000E+00  0.00000000000E+00  0.98627686852E+03  0.98627686852E+03  0.00000000000E+00 0. -1.
         -1   -1    0    0    0  501 -0.00000000000E+00 -0.00000000000E+00 -0.60185275178E+03  0.60185275178E+03  0.00000000000E+00 0.  1.
         23    2    1    2    0    0 -0.24667424356E+03 -0.15592699948E+03 -0.29718781835E+03  0.42624755375E+03  0.90581267966E+02 0.  0.
        254    2    1    2    0    0  0.24667424356E+03  0.15592699948E+03  0.68161193509E+03  0.11618820665E+04  0.89454664210E+03 0.  0.
         23    2    4    4    0    0 -0.96270203411E+02  0.64298516897E+02  0.76891792367E+03  0.78298157133E+03  0.91777537384E+02 0.  0.
         23    2    4    4    0    0  0.34294444697E+03  0.91628482584E+02 -0.87305988575E+02  0.37890049522E+03  0.99682381125E+02 0.  0.
         13    1    3    3    0    0 -0.21763903899E+03 -0.13579634252E+03 -0.20781019969E+03  0.33014008698E+03  0.00000000000E+00 0.  1.
        -13    1    3    3    0    0 -0.29035204569E+02 -0.20130656961E+02 -0.89377618652E+02  0.96107466775E+02  0.00000000000E+00 0. -1.
          2    1    5    5  502    0 -0.77751427882E+01  0.40731408367E+02  0.10692477755E+03  0.11468395061E+03  0.00000000000E+00 0. -1.
          4    1    6    6  503    0  0.25513651600E+03  0.32249471699E+02 -0.91117350461E+02  0.27283152636E+03  0.00000000000E+00 0. -1.
         -2    1    5    5    0  502 -0.88495060622E+02  0.23567108531E+02  0.66199314611E+03  0.66829762072E+03  0.00000000000E+00 0.  1.
         -4    1    6    6    0  503  0.87807930971E+02  0.59379010885E+02  0.38113618860E+01  0.10606896886E+03  0.00000000000E+00 0.  1.
<mgrwt>
<rscale>  0 0.15409003E+04</rscale>
<asrwt>0</asrwt>
<pdfrwt beam="1">  1        1 0.15173490E+00 0.15409003E+04</pdfrwt>
<pdfrwt beam="2">  1       -1 0.92592731E-01 0.15409003E+04</pdfrwt>
<totfact> 0.16965239E+01</totfact>
</mgrwt>
</event>
<event>
12    1  0.4967442E-008  0.1566091E+04  0.7818608E-02  0.8841655E-01
         -2   -1    0    0    0  501 -0.00000000000E+00  0.00000000000E+00  0.32375493639E+03  0.32375493639E+03  0.00000000000E+00 0.  1.
          2   -1    0    0  501    0  0.00000000000E+00 -0.00000000000E+00 -0.18939016280E+04  0.18939016280E+04  0.00000000000E+00 0. -1.
         23    2    1    2    0    0 -0.36416875418E+03  0.18368880622E+03 -0.78392631147E+02  0.42504402702E+03  0.90313682480E+02 0.  0.
        254    2    1    2    0    0  0.36416875418E+03 -0.18368880622E+03 -0.14917540604E+04  0.17926125373E+04  0.90651479476E+03 0.  0.
         23    2    4    4    0    0 -0.28001581178E+03 -0.16621308026E+03 -0.43339447615E+03  0.55010558040E+03  0.93540016781E+02 0.  0.
         23    2    4    4    0    0  0.64418456596E+03 -0.17475725962E+02 -0.10583595843E+04  0.12425069569E+04  0.91757137867E+02 0.  0.
         13    1    3    3    0    0 -0.21218020811E+03  0.96022183013E+02 -0.88860645147E+02  0.24927277148E+03  0.00000000000E+00 0. -1.
        -13    1    3    3    0    0 -0.15198854607E+03  0.87666623204E+02  0.10468014000E+02  0.17577125555E+03  0.00000000000E+00 0.  1.
          3    1    5    5  502    0 -0.17291582767E+03 -0.59093045517E+02 -0.28134421389E+03  0.33547941542E+03  0.00000000000E+00 0. -1.
          3    1    6    6  503    0  0.48763862714E+03  0.26309204060E+02 -0.79820854560E+03  0.93574595226E+03  0.00000000000E+00 0. -1.
         -3    1    5    5    0  502 -0.10709998411E+03 -0.10712003474E+03 -0.15205026226E+03  0.21462616498E+03  0.00000000000E+00 0.  1.
         -3    1    6    6    0  503  0.15654593882E+03 -0.43784930022E+02 -0.26015103867E+03  0.30676100466E+03  0.00000000000E+00 0.  1.
<mgrwt>
<rscale>  0 0.15660907E+04</rscale>
<asrwt>0</asrwt>
<pdfrwt beam="1">  1        2 0.29136947E+00 0.15660907E+04</pdfrwt>
<pdfrwt beam="2">  1       -2 0.49808453E-01 0.15660907E+04</pdfrwt>
<totfact> 0.28063777E+01</totfact>
</mgrwt>
</event>
<event>
12    1  0.4967442E-008  0.2088064E+04  0.7818608E-02  0.8566520E-01
          2   -1    0    0  501    0  0.00000000000E+00  0.00000000000E+00  0.13202962692E+04  0.13202962692E+04  0.00000000000E+00 0.  1.
         -2   -1    0    0    0  501 -0.00000000000E+00 -0.00000000000E+00 -0.82557440094E+03  0.82557440094E+03  0.00000000000E+00 0. -1.
         23    2    1    2    0    0 -0.53906671592E+03  0.63084361799E+03  0.13516075091E+01  0.83495762451E+03  0.92713609084E+02 0.  0.
        254    2    1    2    0    0  0.53906671592E+03 -0.63084361799E+03  0.49337026072E+03  0.13109130456E+04  0.88686087095E+03 0.  0.
         23    2    4    4    0    0  0.62810835207E+03 -0.62506678914E+03  0.96265636289E+02  0.89594998120E+03  0.90723223312E+02 0.  0.
         23    2    4    4    0    0 -0.89041636158E+02 -0.57768288550E+01  0.39710462443E+03  0.41496306442E+03  0.80873217824E+02 0.  0.
         11    1    3    3    0    0 -0.46709535147E+03  0.49267892915E+03  0.93165053741E+01  0.67896788721E+03  0.00000000000E+00 0.  1.
        -11    1    3    3    0    0 -0.71971364444E+02  0.13816468884E+03 -0.79648978650E+01  0.15598973729E+03  0.00000000000E+00 0. -1.
          2    1    5    5  502    0  0.46756968218E+02 -0.51690362741E+02  0.32568792820E+02  0.76933958321E+02  0.00000000000E+00 0. -1.
          1    1    6    6  503    0 -0.32890451579E+02  0.36632336321E+02  0.18784573338E+03  0.19418993130E+03  0.00000000000E+00 0. -1.
         -2    1    5    5    0  502  0.58135138386E+03 -0.57337642639E+03  0.63696843469E+02  0.81901602287E+03  0.00000000000E+00 0.  1.
         -1    1    6    6    0  503 -0.56151184579E+02 -0.42409165176E+02  0.20925889106E+03  0.22077313312E+03  0.00000000000E+00 0.  1.
<mgrwt>
<rscale>  0 0.20880640E+04</rscale>
<asrwt>0</asrwt>
<pdfrwt beam="1">  1        2 0.20312250E+00 0.20880640E+04</pdfrwt>
<pdfrwt beam="2">  1       -2 0.12701145E+00 0.20880640E+04</pdfrwt>
<totfact> 0.68363689E+00</totfact>
</mgrwt>
</event>
<event>
12    1  0.4967442E-008  0.1078110E+04  0.7818608E-02  0.9226794E-01
         -2   -1    0    0    0  501 -0.00000000000E+00  0.00000000000E+00  0.72697507627E+03  0.72697507627E+03  0.00000000000E+00 0.  1.
          2   -1    0    0  501    0  0.00000000000E+00 -0.00000000000E+00 -0.39971173206E+03  0.39971173206E+03  0.00000000000E+00 0. -1.
         23    2    1    2    0    0 -0.34197303230E+02 -0.28561922925E+02 -0.63062858638E+01  0.94859061787E+02  0.83505888249E+02 0.  0.
        254    2    1    2    0    0  0.34197303230E+02  0.28561922925E+02  0.33356963007E+03  0.10318277465E+04  0.97540481926E+03 0.  0.
         23    2    4    4    0    0  0.18384543587E+03  0.25242425195E+03  0.57491080393E+03  0.65931643824E+03  0.81600159248E+02 0.  0.
         23    2    4    4    0    0 -0.14964813264E+03 -0.22386232903E+03 -0.24134117386E+03  0.37251130830E+03  0.89499757842E+02 0.  0.
         13    1    3    3    0    0  0.26914752231E+02 -0.60382232425E+01  0.68302663285E+01  0.28416835955E+02  0.00000000000E+00 0.  1.
        -13    1    3    3    0    0 -0.61112055460E+02 -0.22523699683E+02 -0.13136552192E+02  0.66442225832E+02  0.00000000000E+00 0. -1.
          1    1    5    5  502    0  0.60489059261E+02  0.52888622534E+02  0.90041701900E+02  0.12067991036E+03  0.00000000000E+00 0. -1.
          3    1    6    6  503    0 -0.30955865161E+02 -0.57993794474E+02 -0.14235981264E+02  0.67262240135E+02  0.00000000000E+00 0. -1.
         -1    1    5    5    0  502  0.12335637661E+03  0.19953562942E+03  0.48486910203E+03  0.53863652788E+03  0.00000000000E+00 0.  1.
         -3    1    6    6    0  503 -0.11869226748E+03 -0.16586853455E+03 -0.22710519260E+03  0.30524906817E+03  0.00000000000E+00 0.  1.
<mgrwt>
<rscale>  0 0.10781103E+04</rscale>
<asrwt>0</asrwt>
<pdfrwt beam="1">  1        2 0.61494113E-01 0.10781103E+04</pdfrwt>
<pdfrwt beam="2">  1       -2 0.11184232E+00 0.10781103E+04</pdfrwt>
<totfact> 0.49921161E+01</totfact>
</mgrwt>
</event>
<event>
12    1  0.4967442E-008  0.4493074E+04  0.7818608E-02  0.7911851E-01
          2   -1    0    0  501    0  0.00000000000E+00  0.00000000000E+00  0.22694706484E+04  0.22694706484E+04  0.00000000000E+00 0. -1.
         -2   -1    0    0    0  501 -0.00000000000E+00 -0.00000000000E+00 -0.22238346097E+04  0.22238346097E+04  0.00000000000E+00 0.  1.
         23    2    1    2    0    0 -0.14625369984E+04 -0.13997571267E+04 -0.71882600666E+03  0.21502182494E+04  0.91614446071E+02 0.  0.
        254    2    1    2    0    0  0.14625369984E+04  0.13997571267E+04  0.76446204533E+03  0.23430870087E+04  0.89850989189E+03 0.  0.
         23    2    4    4    0    0  0.18096966114E+03  0.74664906615E+03  0.24669874560E+03  0.81193527952E+03  0.90242898949E+02 0.  0.
         23    2    4    4    0    0  0.12815673373E+04  0.65310806058E+03  0.51776329973E+03  0.15311517292E+04  0.85917427299E+02 0.  0.
         11    1    3    3    0    0 -0.42622457578E+03 -0.41651693036E+03 -0.16807662070E+03  0.61919584358E+03  0.00000000000E+00 0. -1.
        -11    1    3    3    0    0 -0.10363124227E+04 -0.98324019637E+03 -0.55074938596E+03  0.15310224059E+04  0.00000000000E+00 0.  1.
          2    1    5    5  502    0  0.71774151594E+02  0.46617012044E+03  0.13142792194E+03  0.48963191144E+03  0.00000000000E+00 0.  1.
          1    1    6    6  503    0  0.70633215020E+02  0.22035437309E+02  0.11833557131E+02  0.74930932437E+02  0.00000000000E+00 0. -1.
         -2    1    5    5    0  502  0.10919550955E+03  0.28047894571E+03  0.11527082366E+03  0.32230336808E+03  0.00000000000E+00 0. -1.
         -1    1    6    6    0  503  0.12109341223E+04  0.63107262327E+03  0.50592974260E+03  0.14562207967E+04  0.00000000000E+00 0.  1.
<mgrwt>
<rscale>  0 0.44930735E+04</rscale>
<asrwt>0</asrwt>
<pdfrwt beam="1">  1        2 0.34914933E+00 0.44930735E+04</pdfrwt>
<pdfrwt beam="2">  1       -2 0.34212840E+00 0.44930735E+04</pdfrwt>
<totfact> 0.62368252E-02</totfact>
</mgrwt>
</event>
<event>
12    1  0.4967442E-008  0.1582184E+04  0.7818608E-02  0.8831568E-01
         -1   -1    0    0    0  501 -0.00000000000E+00  0.00000000000E+00  0.39842682239E+03  0.39842682239E+03  0.00000000000E+00 0.  1.
          1   -1    0    0  501    0  0.00000000000E+00 -0.00000000000E+00 -0.15707444847E+04  0.15707444847E+04  0.00000000000E+00 0. -1.
         23    2    1    2    0    0  0.45399613418E+03 -0.26691422087E+03 -0.42201598015E+03  0.68054415663E+03  0.87676510357E+02 0.  0.
        254    2    1    2    0    0 -0.45399613418E+03  0.26691422087E+03 -0.75030168213E+03  0.12886271504E+04  0.90567744118E+03 0.  0.
         23    2    4    4    0    0 -0.69811695857E+03  0.29993548834E+03 -0.44294138761E+03  0.88385259054E+03  0.87577074300E+02 0.  0.
         23    2    4    4    0    0  0.24412082438E+03 -0.33021267472E+02 -0.30736029452E+03  0.40477455988E+03  0.93202535807E+02 0.  0.
         11    1    3    3    0    0  0.25817804756E+02 -0.78429196431E+01 -0.17628892521E+01  0.27040307126E+02  0.00000000000E+00 0. -1.
        -11    1    3    3    0    0  0.42817832943E+03 -0.25907130122E+03 -0.42025309090E+03  0.65350384950E+03  0.00000000000E+00 0.  1.
          2    1    5    5  502    0 -0.31320935400E+03  0.17633045536E+03 -0.18431559201E+03  0.40393658707E+03  0.00000000000E+00 0. -1.
          2    1    6    6  503    0  0.13641461221E+03 -0.25482830028E+02 -0.24083209650E+03  0.27795398855E+03  0.00000000000E+00 0. -1.
         -2    1    5    5    0  502 -0.38490760457E+03  0.12360503298E+03 -0.25862579561E+03  0.47991600347E+03  0.00000000000E+00 0.  1.
         -2    1    6    6    0  503  0.10770621218E+03 -0.75384374437E+01 -0.66528198019E+02  0.12682057133E+03  0.00000000000E+00 0.  1.
<mgrwt>
<rscale>  0 0.15821842E+04</rscale>
<asrwt>0</asrwt>
<pdfrwt beam="1">  1        1 0.24165300E+00 0.15821842E+04</pdfrwt>
<pdfrwt beam="2">  1       -1 0.61296433E-01 0.15821842E+04</pdfrwt>
<totfact> 0.15160496E+01</totfact>
</mgrwt>
</event>
<event>
12    1  0.4967442E-008  0.1096504E+04  0.7818608E-02  0.9208606E-01
          2   -1    0    0  501    0  0.00000000000E+00  0.00000000000E+00  0.38286924670E+03  0.38286924670E+03  0.00000000000E+00 0. -1.
         -2   -1    0    0    0  501 -0.00000000000E+00 -0.00000000000E+00 -0.78507346548E+03  0.78507346548E+03  0.00000000000E+00 0.  1.
         23    2    1    2    0    0  0.42101941817E+02 -0.15200719037E+03 -0.54220359828E+02  0.19102166775E+03  0.93116436252E+02 0.  0.
        254    2    1    2    0    0 -0.42101941817E+02  0.15200719037E+03 -0.34798385895E+03  0.97692104442E+03  0.89911245210E+03 0.  0.
         23    2    4    4    0    0 -0.21554184009E+03 -0.18070914764E+03 -0.48221002062E+03  0.56573543617E+03  0.91738753413E+02 0.  0.
         23    2    4    4    0    0  0.17343989828E+03  0.33271633801E+03  0.13422616167E+03  0.41118560825E+03  0.10136755923E+03 0.  0.
         11    1    3    3    0    0  0.39008948452E+01  0.10463471551E+02  0.70763785803E+01  0.13220300727E+02  0.00000000000E+00 0.  1.
        -11    1    3    3    0    0  0.38201046972E+02 -0.16247066192E+03 -0.61296738409E+02  0.17780136702E+03  0.00000000000E+00 0. -1.
          1    1    5    5  502    0 -0.12131298166E+03 -0.11902425291E+03 -0.20352039491E+03  0.26514932292E+03  0.00000000000E+00 0. -1.
          3    1    6    6  503    0  0.41046872006E+02  0.32156603317E+02 -0.89527775111E+01  0.52906002150E+02  0.00000000000E+00 0. -1.
         -1    1    5    5    0  502 -0.94228858433E+02 -0.61684894726E+02 -0.27868962571E+03  0.30058611325E+03  0.00000000000E+00 0.  1.
         -3    1    6    6    0  503  0.13239302627E+03  0.30055973469E+03  0.14317893918E+03  0.35827960610E+03  0.00000000000E+00 0.  1.
<mgrwt>
<rscale>  0 0.10965044E+04</rscale>
<asrwt>0</asrwt>
<pdfrwt beam="1">  1        2 0.58902962E-01 0.10965044E+04</pdfrwt>
<pdfrwt beam="2">  1       -2 0.12078053E+00 0.10965044E+04</pdfrwt>
<totfact> 0.43330803E+01</totfact>
</mgrwt>
</event>
<event>
12    1  0.4967442E-008  0.1447973E+04  0.7818608E-02  0.8919807E-01
          2   -1    0    0  501    0  0.00000000000E+00  0.00000000000E+00  0.24689678948E+04  0.24689678948E+04  0.00000000000E+00 0. -1.
         -2   -1    0    0    0  501 -0.00000000000E+00 -0.00000000000E+00 -0.21229771099E+03  0.21229771099E+03  0.00000000000E+00 0.  1.
         23    2    1    2    0    0 -0.27628012099E+03 -0.27269274974E+03  0.32521101341E+03  0.51462255125E+03  0.91553951283E+02 0.  0.
        254    2    1    2    0    0  0.27628012099E+03  0.27269274974E+03  0.19314591704E+04  0.21666430545E+04  0.90172920426E+03 0.  0.
         23    2    4    4    0    0 -0.20985870964E+03 -0.18441386998E+03  0.42756453622E+03  0.51884253701E+03  0.91307130769E+02 0.  0.
         23    2    4    4    0    0  0.48613883063E+03  0.45710661972E+03  0.15038946342E+04  0.16478005175E+04  0.90939817386E+02 0.  0.
         11    1    3    3    0    0 -0.12517441156E+03 -0.17956296938E+03  0.20772413701E+03  0.30176283796E+03  0.00000000000E+00 0. -1.
        -11    1    3    3    0    0 -0.15110570943E+03 -0.93129780366E+02  0.11748687641E+03  0.21285971329E+03  0.00000000000E+00 0.  1.
          1    1    5    5  502    0 -0.19576520241E+03 -0.14683142903E+03  0.31208376334E+03  0.39658512121E+03  0.00000000000E+00 0. -1.
          3    1    6    6  503    0  0.38112505609E+03  0.31308786790E+03  0.10467408966E+04  0.11571286990E+04  0.00000000000E+00 0. -1.
         -1    1    5    5    0  502 -0.14093507229E+02 -0.37582440951E+02  0.11548077288E+03  0.12225741580E+03  0.00000000000E+00 0.  1.
         -3    1    6    6    0  503  0.10501377454E+03  0.14401875181E+03  0.45715373756E+03  0.49067181851E+03  0.00000000000E+00 0.  1.
<mgrwt>
<rscale>  0 0.14479727E+04</rscale>
<asrwt>0</asrwt>
<pdfrwt beam="1">  1        2 0.37984119E+00 0.14479727E+04</pdfrwt>
<pdfrwt beam="2">  1       -2 0.32661188E-01 0.14479727E+04</pdfrwt>
<totfact> 0.30846838E+01</totfact>
</mgrwt>
</event>
<event>
12    1  0.4967442E-008  0.2200549E+04  0.7818608E-02  0.8518200E-01
         -2   -1    0    0    0  501 -0.00000000000E+00  0.00000000000E+00  0.16448229141E+04  0.16448229141E+04  0.00000000000E+00 0.  1.
          2   -1    0    0  501    0  0.00000000000E+00 -0.00000000000E+00 -0.73600872780E+03  0.73600872780E+03  0.00000000000E+00 0. -1.
         23    2    1    2    0    0  0.67854885180E+03  0.18184059056E+03 -0.23732932675E+03  0.74614005079E+03  0.83097661817E+02 0.  0.
        254    2    1    2    0    0 -0.67854885180E+03 -0.18184059056E+03  0.11461435131E+04  0.16346915911E+04  0.93009521066E+03 0.  0.
         23    2    4    4    0    0 -0.10170285930E+03 -0.15286553261E+03  0.10148661093E+04  0.10353007894E+04  0.90460832038E+02 0.  0.
         23    2    4    4    0    0 -0.57684599250E+03 -0.28975057953E+02  0.13127740375E+03  0.59939080169E+03  0.91895175965E+02 0.  0.
         11    1    3    3    0    0  0.31758907657E+03  0.67679942617E+02 -0.69754838372E+02  0.33212818861E+03  0.00000000000E+00 0. -1.
        -11    1    3    3    0    0  0.36095977522E+03  0.11416064795E+03 -0.16757448838E+03  0.41401186218E+03  0.00000000000E+00 0.  1.
          4    1    5    5  502    0 -0.11743117635E+02 -0.84469506936E+02  0.56801284180E+03  0.57437930574E+03  0.00000000000E+00 0. -1.
          1    1    6    6  503    0 -0.11518972542E+03 -0.13465735932E+02  0.64408260378E+02  0.13265904753E+03  0.00000000000E+00 0. -1.
         -4    1    5    5    0  502 -0.89959741661E+02 -0.68396025675E+02  0.44685326750E+03  0.46092148368E+03  0.00000000000E+00 0.  1.
         -1    1    6    6    0  503 -0.46165626708E+03 -0.15509322022E+02  0.66869143375E+02  0.46673175416E+03  0.00000000000E+00 0.  1.
<mgrwt>
<rscale>  0 0.22005490E+04</rscale>
<asrwt>0</asrwt>
<pdfrwt beam="1">  1        2 0.11323211E+00 0.22005490E+04</pdfrwt>
<pdfrwt beam="2">  1       -2 0.25304968E+00 0.22005490E+04</pdfrwt>
<totfact> 0.21611919E+00</totfact>
</mgrwt>
</event>
<event>
12    1  0.4967442E-008  0.1806256E+04  0.7818608E-02  0.8702980E-01
         -2   -1    0    0    0  501 -0.00000000000E+00  0.00000000000E+00  0.67616432092E+03  0.67616432092E+03  0.00000000000E+00 0. -1.
          2   -1    0    0  501    0  0.00000000000E+00 -0.00000000000E+00 -0.12062754045E+04  0.12062754045E+04  0.00000000000E+00 0.  1.
         23    2    1    2    0    0 -0.12497600027E+03  0.40262628613E+03 -0.74072696493E+03  0.85698460713E+03  0.89550283951E+02 0.  0.
        254    2    1    2    0    0  0.12497600027E+03 -0.40262628613E+03  0.21061588138E+03  0.10254551183E+04  0.91075365668E+03 0.  0.
         23    2    4    4    0    0  0.11815466960E+03  0.21564598168E+02  0.48882696225E+03  0.51155694300E+03  0.91176472116E+02 0.  0.
         23    2    4    4    0    0  0.68213306721E+01 -0.42419088430E+03 -0.27821108088E+03  0.51389817526E+03  0.81887069452E+02 0.  0.
         13    1    3    3    0    0 -0.70050827279E+01  0.16795443745E+02 -0.67188164305E+01  0.19398469240E+02  0.00000000000E+00 0. -1.
        -13    1    3    3    0    0 -0.11797091755E+03  0.38583084238E+03 -0.73400814850E+03  0.83758613789E+03  0.00000000000E+00 0.  1.
          2    1    5    5  502    0  0.59002580736E+01 -0.20244771371E+02  0.25982464270E+02  0.33462699573E+02  0.00000000000E+00 0. -1.
          1    1    6    6  503    0 -0.27023653466E+02 -0.12088021191E+03 -0.10865799838E+03  0.16476912360E+03  0.00000000000E+00 0. -1.
         -2    1    5    5    0  502  0.11225441153E+03  0.41809369539E+02  0.46284449798E+03  0.47809424343E+03  0.00000000000E+00 0.  1.
         -1    1    6    6    0  503  0.33844984138E+02 -0.30331067238E+03 -0.16955308249E+03  0.34912905167E+03  0.00000000000E+00 0.  1.
<mgrwt>
<rscale>  0 0.18062562E+04</rscale>
<asrwt>0</asrwt>
<pdfrwt beam="1">  1        2 0.18558083E+00 0.18062562E+04</pdfrwt>
<pdfrwt beam="2">  1       -2 0.10402528E+00 0.18062562E+04</pdfrwt>
<totfact> 0.13322000E+01</totfact>
</mgrwt>
</event>
<event>
12    1  0.4967442E-008  0.3907114E+04  0.7818608E-02  0.8023551E-01
          2   -1    0    0  501    0  0.00000000000E+00  0.00000000000E+00  0.26582990047E+04  0.26582990047E+04  0.00000000000E+00 0. -1.
         -2   -1    0    0    0  501 -0.00000000000E+00 -0.00000000000E+00 -0.14356490963E+04  0.14356490963E+04  0.00000000000E+00 0.  1.
         23    2    1    2    0    0  0.12617214509E+04 -0.13502399659E+04  0.50851907768E+03  0.19188240239E+04  0.90581439162E+02 0.  0.
        254    2    1    2    0    0 -0.12617214509E+04  0.13502399659E+04  0.71413083076E+03  0.21751240771E+04  0.89782677740E+03 0.  0.
         23    2    4    4    0    0 -0.32301724069E+03  0.98511260124E+03  0.41696162083E+03  0.11209753306E+04  0.89116349135E+02 0.  0.
         23    2    4    4    0    0 -0.93870421022E+03  0.36512736464E+03  0.29716920993E+03  0.10541487465E+04  0.91850169935E+02 0.  0.
         11    1    3    3    0    0  0.30409745159E+03 -0.35556053403E+03  0.16375892740E+03  0.49569702413E+03  0.00000000000E+00 0.  1.
        -11    1    3    3    0    0  0.95762399933E+03 -0.99467943184E+03  0.34476015028E+03  0.14231269998E+04  0.00000000000E+00 0. -1.
          4    1    5    5  502    0 -0.32069106240E+03  0.90633631685E+03  0.37775036145E+03  0.10329489882E+04  0.00000000000E+00 0. -1.
          1    1    6    6  503    0 -0.30783988374E+03  0.12250380589E+03  0.53246586201E+02  0.33557082027E+03  0.00000000000E+00 0. -1.
         -4    1    5    5    0  502 -0.23261782951E+01  0.78776284386E+02  0.39211259378E+02  0.88026342359E+02  0.00000000000E+00 0.  1.
         -1    1    6    6    0  503 -0.63086432648E+03  0.24262355875E+03  0.24392262373E+03  0.71857792622E+03  0.00000000000E+00 0.  1.
<mgrwt>
<rscale>  0 0.39071138E+04</rscale>
<asrwt>0</asrwt>
<pdfrwt beam="1">  1        2 0.40896908E+00 0.39071138E+04</pdfrwt>
<pdfrwt beam="2">  1       -2 0.22086909E+00 0.39071138E+04</pdfrwt>
<totfact> 0.21804359E-01</totfact>
</mgrwt>
</event>
<event>
12    1  0.4967442E-008  0.1466307E+04  0.7818608E-02  0.8907173E-01
         -1   -1    0    0    0  501 -0.00000000000E+00  0.00000000000E+00  0.48408502325E+03  0.48408502325E+03  0.00000000000E+00 0.  1.
          1   -1    0    0  501    0  0.00000000000E+00 -0.00000000000E+00 -0.11103710706E+04  0.11103710706E+04  0.00000000000E+00 0. -1.
         23    2    1    2    0    0  0.87128848422E+02  0.15597060960E+03 -0.64071785279E+03  0.67113774310E+03  0.89376932359E+02 0.  0.
        254    2    1    2    0    0 -0.87128848422E+02 -0.15597060960E+03  0.14431805443E+02  0.92331835075E+03  0.90575395806E+03 0.  0.
         23    2    4    4    0    0 -0.72560690045E+02 -0.50813802448E+03  0.13823090336E+03  0.53894613845E+03  0.88802318923E+02 0.  0.
         23    2    4    4    0    0 -0.14568158377E+02  0.35216741488E+03 -0.12379909792E+03  0.38437221230E+03  0.90452537830E+02 0.  0.
         11    1    3    3    0    0  0.57960685944E+02  0.41922692344E+02 -0.14566807259E+03  0.16228413546E+03  0.00000000000E+00 0.  1.
        -11    1    3    3    0    0  0.29168162478E+02  0.11404791725E+03 -0.49504978020E+03  0.50885360764E+03  0.00000000000E+00 0. -1.
          3    1    6    6  502    0 -0.19292314158E+02  0.35429753681E+03 -0.12850144411E+03  0.37737456077E+03  0.00000000000E+00 0. -1.
          3    1    5    5  503    0 -0.32289490334E+02 -0.15744862230E+03  0.85447977485E+02  0.18202757128E+03  0.00000000000E+00 0. -1.
         -3    1    5    5    0  503 -0.40271199711E+02 -0.35068940218E+03  0.52782925878E+02  0.35691856717E+03  0.00000000000E+00 0.  1.
         -3    1    6    6    0  502  0.47241557813E+01 -0.21301219293E+01  0.47023461905E+01  0.69976515328E+01  0.00000000000E+00 0.  1.
<mgrwt>
<rscale>  0 0.14663069E+04</rscale>
<asrwt>0</asrwt>
<pdfrwt beam="1">  1        1 0.17082632E+00 0.14663069E+04</pdfrwt>
<pdfrwt beam="2">  1       -1 0.74474619E-01 0.14663069E+04</pdfrwt>
<totfact> 0.21918817E+01</totfact>
</mgrwt>
</event>
<event>
12    1  0.4993839E-008  0.1295263E+04  0.7818608E-02  0.9033330E-01
         -2   -1    0    0    0  501 -0.00000000000E+00  0.00000000000E+00  0.21273409097E+03  0.21273409097E+03  0.00000000000E+00 0.  1.
          2   -1    0    0  501    0  0.00000000000E+00 -0.00000000000E+00 -0.19715990191E+04  0.19715990191E+04  0.00000000000E+00 0. -1.
         23    2    1    2    0    0 -0.10578193163E+03  0.19453141913E+03 -0.86277119793E+03  0.89490893990E+03  0.86345704262E+02 0.  0.
        254    2    1    2    0    0  0.10578193163E+03 -0.19453141913E+03 -0.89609373016E+03  0.12894241701E+04  0.90033239818E+03 0.  0.
         23    2    4    4    0    0 -0.25099757280E+03 -0.81228539145E+02 -0.85730280995E+03  0.90160081689E+03  0.91203442647E+02 0.  0.
         23    2    4    4    0    0  0.35677950443E+03 -0.11330287998E+03 -0.38790920206E+02  0.38782335324E+03  0.93664616776E+02 0.  0.
         11    1    3    3    0    0 -0.11544605256E+03  0.18805883503E+03 -0.84723899425E+03  0.87550432887E+03  0.00000000000E+00 0. -1.
        -11    1    3    3    0    0  0.96641209256E+01  0.64725840985E+01 -0.15532203678E+02  0.19404611031E+02  0.00000000000E+00 0.  1.
          2    1    5    5  502    0 -0.16016987571E+03 -0.41718118726E+02 -0.66500208952E+03  0.68529013533E+03  0.00000000000E+00 0. -1.
          1    1    6    6  503    0  0.30147085582E+03 -0.12115527380E+03 -0.10191525239E+02  0.32506483117E+03  0.00000000000E+00 0. -1.
         -2    1    5    5    0  502 -0.90827697088E+02 -0.39510420418E+02 -0.19230072043E+03  0.21631068156E+03  0.00000000000E+00 0.  1.
         -1    1    6    6    0  503  0.55308648613E+02  0.78523938199E+01 -0.28599394968E+02  0.62758522071E+02  0.00000000000E+00 0.  1.
<mgrwt>
<rscale>  0 0.12952626E+04</rscale>
<asrwt>0</asrwt>
<pdfrwt beam="1">  1        2 0.30332293E+00 0.12952626E+04</pdfrwt>
<pdfrwt beam="2">  1       -2 0.32728321E-01 0.12952626E+04</pdfrwt>
<totfact> 0.59187555E+01</totfact>
</mgrwt>
</event>
<event>
12    1  0.4967442E-008  0.1434862E+04  0.7818608E-02  0.8928963E-01
          1   -1    0    0  501    0  0.00000000000E+00  0.00000000000E+00  0.17802491943E+04  0.17802491943E+04  0.00000000000E+00 0. -1.
         -1   -1    0    0    0  501 -0.00000000000E+00 -0.00000000000E+00 -0.28912108730E+03  0.28912108730E+03  0.00000000000E+00 0.  1.
         23    2    1    2    0    0 -0.31360622366E+03 -0.68637828498E+02  0.44940987630E+02  0.33670824500E+03  0.91064454448E+02 0.  0.
        254    2    1    2    0    0  0.31360622366E+03  0.68637828498E+02  0.14461871194E+04  0.17326620366E+04  0.89866597456E+03 0.  0.
         23    2    4    4    0    0  0.13312455001E+03  0.11501013322E+03  0.15043140456E+04  0.15172736150E+04  0.90603521754E+02 0.  0.
         23    2    4    4    0    0  0.18048167365E+03 -0.46372304720E+02 -0.58126926222E+02  0.21538842169E+03  0.91046183230E+02 0.  0.
         13    1    3    3    0    0  0.42547896021E+01 -0.49562090537E+01  0.81578371890E+01  0.10450720087E+02  0.00000000000E+00 0. -1.
        -13    1    3    3    0    0 -0.31786101326E+03 -0.63681619444E+02  0.36783150441E+02  0.32625752491E+03  0.00000000000E+00 0.  1.
          1    1    5    5  502    0  0.81075041047E+02  0.46363079128E+02  0.45839209454E+03  0.46780980080E+03  0.00000000000E+00 0. -1.
          3    1    6    6  503    0  0.83545311988E+02  0.11706183330E+02 -0.58015748420E+02  0.10238496446E+03  0.00000000000E+00 0. -1.
         -1    1    5    5    0  502  0.52049508964E+02  0.68647054089E+02  0.10459219511E+04  0.10494638142E+04  0.00000000000E+00 0.  1.
         -3    1    6    6    0  503  0.96936361658E+02 -0.58078488051E+02 -0.11117780208E+00  0.11300345723E+03  0.00000000000E+00 0.  1.
<mgrwt>
<rscale>  0 0.14348625E+04</rscale>
<asrwt>0</asrwt>
<pdfrwt beam="1">  1        1 0.27388448E+00 0.14348625E+04</pdfrwt>
<pdfrwt beam="2">  1       -1 0.44480169E-01 0.14348625E+04</pdfrwt>
<totfact> 0.20455383E+01</totfact>
</mgrwt>
</event>
<event>
12    1  0.4967442E-008  0.1428807E+04  0.7818608E-02  0.8933227E-01
          2   -1    0    0  501    0  0.00000000000E+00  0.00000000000E+00  0.20251401975E+04  0.20251401975E+04  0.00000000000E+00 0. -1.
         -2   -1    0    0    0  501 -0.00000000000E+00 -0.00000000000E+00 -0.25201817246E+03  0.25201817246E+03  0.00000000000E+00 0.  1.
         23    2    1    2    0    0 -0.39315950706E+03 -0.11280546092E+03  0.35721884601E+03  0.55068642078E+03  0.91382493285E+02 0.  0.
        254    2    1    2    0    0  0.39315950706E+03  0.11280546092E+03  0.14159031790E+04  0.17264719492E+04  0.89923529121E+03 0.  0.
         23    2    4    4    0    0 -0.14582932193E+03 -0.11123944701E+03  0.16664704013E+02  0.20761671131E+03  0.95846652254E+02 0.  0.
         23    2    4    4    0    0  0.53898882899E+03  0.22404490793E+03  0.13992384750E+04  0.15188552379E+04  0.91366542715E+02 0.  0.
         13    1    3    3    0    0 -0.36241042478E+03 -0.95663438277E+02  0.28681006172E+03  0.47196697016E+03  0.00000000000E+00 0.  1.
        -13    1    3    3    0    0 -0.30749082281E+02 -0.17142022646E+02  0.70408784291E+02  0.78719450626E+02  0.00000000000E+00 0. -1.
          4    1    5    5  502    0 -0.69212389715E+02 -0.10293641186E+03  0.34018204155E+02  0.12862153005E+03  0.00000000000E+00 0. -1.
          3    1    6    6  503    0  0.37520036938E+03  0.18704169656E+03  0.91907250360E+03  0.10101753216E+04  0.00000000000E+00 0. -1.
         -4    1    5    5    0  502 -0.76616932220E+02 -0.83030351426E+01 -0.17353500142E+02  0.78995181262E+02  0.00000000000E+00 0.  1.
         -3    1    6    6    0  503  0.16378845961E+03  0.37003211374E+02  0.48016597141E+03  0.50867991630E+03  0.00000000000E+00 0.  1.
<mgrwt>
<rscale>  0 0.14288067E+04</rscale>
<asrwt>0</asrwt>
<pdfrwt beam="1">  1        2 0.31156002E+00 0.14288067E+04</pdfrwt>
<pdfrwt beam="2">  1       -2 0.38772028E-01 0.14288067E+04</pdfrwt>
<totfact> 0.39522845E+01</totfact>
</mgrwt>
</event>
<event>
12    1  0.4967442E-008  0.1414393E+04  0.7818608E-02  0.8943466E-01
          2   -1    0    0  501    0  0.00000000000E+00  0.00000000000E+00  0.85703358034E+03  0.85703358034E+03  0.00000000000E+00 0. -1.
         -2   -1    0    0    0  501 -0.00000000000E+00 -0.00000000000E+00 -0.58355559300E+03  0.58355559300E+03  0.00000000000E+00 0.  1.
         23    2    1    2    0    0  0.13198690264E+03  0.32518927527E+03 -0.12308075814E+03  0.38317663159E+03  0.92232590510E+02 0.  0.
        254    2    1    2    0    0 -0.13198690264E+03 -0.32518927527E+03  0.39655874548E+03  0.10574125418E+04  0.91525615956E+03 0.  0.
         23    2    4    4    0    0  0.34101314103E+03  0.52282837403E+01  0.30658512730E+03  0.46634880561E+03  0.84672728270E+02 0.  0.
         23    2    4    4    0    0 -0.47300004367E+03 -0.33041755901E+03  0.89973618181E+02  0.59106373614E+03  0.91412710261E+02 0.  0.
         11    1    3    3    0    0  0.17108902957E+02  0.43348112324E+01  0.61603279016E+01  0.18693709869E+02  0.00000000000E+00 0. -1.
        -11    1    3    3    0    0  0.11487799968E+03  0.32085446404E+03 -0.12924108604E+03  0.36448292172E+03  0.00000000000E+00 0.  1.
          2    1    5    5  502    0  0.31663179491E+03  0.10477728687E+02  0.30735284821E+03  0.44139692981E+03  0.00000000000E+00 0. -1.
          4    1    6    6  503    0 -0.53559329482E+02 -0.56028596123E+02 -0.15057116576E+02  0.78958990101E+02  0.00000000000E+00 0.  1.
         -2    1    5    5    0  502  0.24381346118E+02 -0.52494449467E+01 -0.76772090537E+00  0.24951875805E+02  0.00000000000E+00 0.  1.
         -4    1    6    6    0  503 -0.41944071419E+03 -0.27438896288E+03  0.10503073476E+03  0.51210474604E+03  0.00000000000E+00 0. -1.
<mgrwt>
<rscale>  0 0.14143928E+04</rscale>
<asrwt>0</asrwt>
<pdfrwt beam="1">  1        2 0.13185132E+00 0.14143928E+04</pdfrwt>
<pdfrwt beam="2">  1       -2 0.89777784E-01 0.14143928E+04</pdfrwt>
<totfact> 0.32440961E+01</totfact>
</mgrwt>
</event>
<event>
12    1  0.4967442E-008  0.1686182E+04  0.7818608E-02  0.8769285E-01
          2   -1    0    0  501    0  0.00000000000E+00  0.00000000000E+00  0.38207703222E+03  0.38207703222E+03  0.00000000000E+00 0.  1.
         -2   -1    0    0    0  501 -0.00000000000E+00 -0.00000000000E+00 -0.18603648429E+04  0.18603648429E+04  0.00000000000E+00 0. -1.
         23    2    1    2    0    0 -0.22206056726E+03  0.41816418085E+03 -0.10088140757E+04  0.11185416277E+04  0.96215155181E+02 0.  0.
        254    2    1    2    0    0  0.22206056726E+03 -0.41816418085E+03 -0.46947373503E+03  0.11239002474E+04  0.90475079470E+03 0.  0.
         23    2    4    4    0    0 -0.29152663214E+03 -0.44583887939E+02 -0.35903827503E+03  0.47292537874E+03  0.88172731643E+02 0.  0.
         23    2    4    4    0    0  0.51358719941E+03 -0.37358029291E+03 -0.11043546000E+03  0.65097486864E+03  0.90764762625E+02 0.  0.
         13    1    3    3    0    0 -0.30683642719E+02  0.12790498836E+03 -0.21684988333E+03  0.25362382356E+03  0.00000000000E+00 0. -1.
        -13    1    3    3    0    0 -0.19137692454E+03  0.29025919249E+03 -0.79196419233E+03  0.86491780419E+03  0.00000000000E+00 0.  1.
          2    1    5    5  502    0  0.47625597319E+01  0.12281863721E+01  0.31540525144E+00  0.49284782071E+01  0.00000000000E+00 0. -1.
          3    1    6    6  503    0  0.13341203006E+03 -0.12347412459E+03 -0.67409847083E+02  0.19387809751E+03  0.00000000000E+00 0. -1.
         -2    1    5    5    0  502 -0.29628919188E+03 -0.45812074311E+02 -0.35935368028E+03  0.46799690053E+03  0.00000000000E+00 0.  1.
         -3    1    6    6    0  503  0.38017516934E+03 -0.25010616832E+03 -0.43025612918E+02  0.45709677114E+03  0.00000000000E+00 0.  1.
<mgrwt>
<rscale>  0 0.16861823E+04</rscale>
<asrwt>0</asrwt>
<pdfrwt beam="1">  1        2 0.58781082E-01 0.16861823E+04</pdfrwt>
<pdfrwt beam="2">  1       -2 0.28620998E+00 0.16861823E+04</pdfrwt>
<totfact> 0.30835651E+00</totfact>
</mgrwt>
</event>
<event>
12    1  0.4967442E-008  0.1916394E+04  0.7818608E-02  0.8646739E-01
          2   -1    0    0  501    0  0.00000000000E+00  0.00000000000E+00  0.21423486024E+04  0.21423486024E+04  0.00000000000E+00 0. -1.
         -2   -1    0    0    0  501 -0.00000000000E+00 -0.00000000000E+00 -0.42856771583E+03  0.42856771583E+03  0.00000000000E+00 0.  1.
         23    2    1    2    0    0  0.26878228766E+03  0.68866201049E+03  0.58958992665E+03  0.94997041681E+03  0.91259127455E+02 0.  0.
        254    2    1    2    0    0 -0.26878228766E+03 -0.68866201049E+03  0.11241909599E+04  0.16209459014E+04  0.90396958916E+03 0.  0.
         23    2    4    4    0    0 -0.28995686516E+03 -0.70777983275E+03  0.35875968264E+03  0.84964931798E+03  0.90377974922E+02 0.  0.
         23    2    4    4    0    0  0.21174577500E+02  0.19117822262E+02  0.76543127726E+03  0.77129658343E+03  0.90551231629E+02 0.  0.
         13    1    3    3    0    0  0.22759814661E+03  0.54908337549E+03  0.42760832777E+03  0.73221742096E+03  0.00000000000E+00 0. -1.
        -13    1    3    3    0    0  0.41184141042E+02  0.13957863500E+03  0.16198159888E+03  0.21775299584E+03  0.00000000000E+00 0.  1.
          4    1    5    5  502    0 -0.12259312853E+02 -0.76864263622E+01 -0.18951379278E+01  0.14593267270E+02  0.00000000000E+00 0. -1.
          1    1    6    6  503    0 -0.62518639681E+01 -0.32226901465E+02  0.39001629780E+03  0.39139541582E+03  0.00000000000E+00 0. -1.
         -4    1    5    5    0  502 -0.27769755230E+03 -0.70009340639E+03  0.36065482057E+03  0.83505605071E+03  0.00000000000E+00 0.  1.
         -1    1    6    6    0  503  0.27426441469E+02  0.51344723727E+02  0.37541497946E+03  0.37990116761E+03  0.00000000000E+00 0.  1.
<mgrwt>
<rscale>  0 0.19163940E+04</rscale>
<asrwt>0</asrwt>
<pdfrwt beam="1">  1        2 0.32959209E+00 0.19163940E+04</pdfrwt>
<pdfrwt beam="2">  1       -2 0.65933496E-01 0.19163940E+04</pdfrwt>
<totfact> 0.11017414E+01</totfact>
</mgrwt>
</event>
<event>
12    1  0.4967442E-008  0.1510700E+04  0.7818608E-02  0.8877369E-01
          1   -1    0    0  501    0  0.00000000000E+00  0.00000000000E+00  0.34425018010E+04  0.34425018010E+04  0.00000000000E+00 0. -1.
         -1   -1    0    0    0  501 -0.00000000000E+00 -0.00000000000E+00 -0.16573807257E+03  0.16573807257E+03  0.00000000000E+00 0.  1.
         23    2    1    2    0    0 -0.16412166510E+03  0.17331929309E+03  0.21026029959E+04  0.21174934660E+04  0.76574944214E+02 0.  0.
        254    2    1    2    0    0  0.16412166510E+03 -0.17331929309E+03  0.11741607326E+04  0.14907464076E+04  0.88695880821E+03 0.  0.
         23    2    4    4    0    0 -0.23662660480E+03 -0.11913964500E+03  0.10041496517E+04  0.10426068287E+04  0.92336726258E+02 0.  0.
         23    2    4    4    0    0  0.40074826990E+03 -0.54179648090E+02  0.17001108088E+03  0.44813957893E+03  0.91600788674E+02 0.  0.
         13    1    3    3    0    0 -0.11936997050E+03  0.13362453265E+03  0.12476657275E+04  0.12604659746E+04  0.00000000000E+00 0.  1.
        -13    1    3    3    0    0 -0.44751694600E+02  0.39694760441E+02  0.85493726835E+03  0.85702749139E+03  0.00000000000E+00 0. -1.
          4    1    5    5  502    0 -0.15276162544E+03 -0.25557849285E+02  0.55891582894E+03  0.57997950111E+03  0.00000000000E+00 0. -1.
          1    1    6    6  503    0  0.40268195905E+03 -0.47612939344E+02  0.17276896370E+03  0.44075942072E+03  0.00000000000E+00 0. -1.
         -4    1    5    5    0  502 -0.83864979356E+02 -0.93581795716E+02  0.44523382280E+03  0.46262732757E+03  0.00000000000E+00 0.  1.
         -1    1    6    6    0  503 -0.19336891539E+01 -0.65667087461E+01 -0.27578828163E+01  0.73801582048E+01  0.00000000000E+00 0.  1.
<mgrwt>
<rscale>  0 0.15107000E+04</rscale>
<asrwt>0</asrwt>
<pdfrwt beam="1">  1        1 0.52961561E+00 0.15107000E+04</pdfrwt>
<pdfrwt beam="2">  1       -1 0.25498168E-01 0.15107000E+04</pdfrwt>
<totfact> 0.36675529E+00</totfact>
</mgrwt>
</event>
<event>
12    1  0.4967442E-008  0.1933239E+04  0.7818608E-02  0.8638486E-01
         -3   -1    0    0    0  501 -0.00000000000E+00  0.00000000000E+00  0.10546566017E+04  0.10546566017E+04  0.00000000000E+00 0.  1.
          3   -1    0    0  501    0  0.00000000000E+00 -0.00000000000E+00 -0.88593132335E+03  0.88593132335E+03  0.00000000000E+00 0. -1.
         23    2    1    2    0    0  0.36960857756E+03 -0.54289476188E+03 -0.27445276630E+03  0.71796932323E+03  0.93863758139E+02 0.  0.
        254    2    1    2    0    0 -0.36960857756E+03  0.54289476188E+03  0.44317804468E+03  0.12226186018E+04  0.93115210530E+03 0.  0.
         23    2    4    4    0    0 -0.67433006149E+03  0.39281418816E+03  0.28073176379E+03  0.83471958364E+03  0.94458678070E+02 0.  0.
         23    2    4    4    0    0  0.30472148393E+03  0.15008057372E+03  0.16244628089E+03  0.38789901820E+03  0.93260349378E+02 0.  0.
         13    1    3    3    0    0  0.61597571444E+02 -0.49108730064E+02 -0.12523796108E+02  0.79766995964E+02  0.00000000000E+00 0.  1.
        -13    1    3    3    0    0  0.30801100611E+03 -0.49378603182E+03 -0.26192897019E+03  0.63820232727E+03  0.00000000000E+00 0. -1.
          1    1    5    5  502    0 -0.47080523017E+03  0.23285355324E+03  0.15987339494E+03  0.54903355492E+03  0.00000000000E+00 0. -1.
          3    1    6    6  503    0  0.11286572545E+03  0.12974862531E+02  0.30275985472E+02  0.11757403768E+03  0.00000000000E+00 0. -1.
         -1    1    5    5    0  502 -0.20352483132E+03  0.15996063491E+03  0.12085836886E+03  0.28568602872E+03  0.00000000000E+00 0.  1.
         -3    1    6    6    0  503  0.19185575848E+03  0.13710571119E+03  0.13217029542E+03  0.27032498052E+03  0.00000000000E+00 0.  1.
<mgrwt>
<rscale>  0 0.19332391E+04</rscale>
<asrwt>0</asrwt>
<pdfrwt beam="1">  1        3 0.13629713E+00 0.19332391E+04</pdfrwt>
<pdfrwt beam="2">  1       -3 0.16225486E+00 0.19332391E+04</pdfrwt>
<totfact> 0.26465363E-01</totfact>
</mgrwt>
</event>
<event>
12    1  0.4967442E-008  0.1887684E+04  0.7818608E-02  0.8661011E-01
          1   -1    0    0  501    0  0.00000000000E+00  0.00000000000E+00  0.13440674559E+04  0.13440674559E+04  0.00000000000E+00 0. -1.
         -1   -1    0    0    0  501 -0.00000000000E+00 -0.00000000000E+00 -0.66279231133E+03  0.66279231133E+03  0.00000000000E+00 0.  1.
         23    2    1    2    0    0 -0.55481965263E+03  0.45859312645E+03  0.39964127085E+03  0.82833393565E+03  0.91057459909E+02 0.  0.
        254    2    1    2    0    0  0.55481965263E+03 -0.45859312645E+03  0.28163387369E+03  0.11785258315E+04  0.88964767983E+03 0.  0.
         23    2    4    4    0    0  0.23902594421E+03 -0.51746829601E+03  0.51318726568E+03  0.77259511008E+03  0.92925750403E+02 0.  0.
         23    2    4    4    0    0  0.31579370842E+03  0.58875169554E+02 -0.23155339199E+03  0.40593072146E+03  0.89279479261E+02 0.  0.
         11    1    3    3    0    0 -0.54124040595E+03  0.42273242431E+03  0.38477405652E+03  0.78720705927E+03  0.00000000000E+00 0.  1.
        -11    1    3    3    0    0 -0.13579246682E+02  0.35860702144E+02  0.14867214329E+02  0.41126876378E+02  0.00000000000E+00 0. -1.
          2    1    5    5  502    0  0.44339005184E+02 -0.60138316443E+02  0.10798121830E+03  0.13131073068E+03  0.00000000000E+00 0. -1.
          3    1    6    6  503    0  0.22483621331E+03  0.80559135552E+01 -0.12711725869E+03  0.25840862605E+03  0.00000000000E+00 0. -1.
         -2    1    5    5    0  502  0.19468693902E+03 -0.45732997956E+03  0.40520604738E+03  0.64128437940E+03  0.00000000000E+00 0.  1.
         -3    1    6    6    0  503  0.90957495109E+02  0.50819255999E+02 -0.10443613330E+03  0.14752209541E+03  0.00000000000E+00 0.  1.
<mgrwt>
<rscale>  0 0.18876838E+04</rscale>
<asrwt>0</asrwt>
<pdfrwt beam="1">  1        1 0.20677961E+00 0.18876838E+04</pdfrwt>
<pdfrwt beam="2">  1       -1 0.10196805E+00 0.18876838E+04</pdfrwt>
<totfact> 0.71822117E+00</totfact>
</mgrwt>
</event>
<event>
12    1  0.4967442E-008  0.3123771E+04  0.7818608E-02  0.8209244E-01
         -2   -1    0    0    0  501 -0.00000000000E+00  0.00000000000E+00  0.14021334351E+04  0.14021334351E+04  0.00000000000E+00 0.  1.
          2   -1    0    0  501    0  0.00000000000E+00 -0.00000000000E+00 -0.17398391085E+04  0.17398391085E+04  0.00000000000E+00 0. -1.
         23    2    1    2    0    0 -0.93829883027E+03  0.29476129942E+03 -0.12043633350E+04  0.15576430385E+04  0.92042784301E+02 0.  0.
        254    2    1    2    0    0  0.93829883027E+03 -0.29476129942E+03  0.86665766159E+03  0.15843295052E+04  0.88978399625E+03 0.  0.
         23    2    4    4    0    0  0.39855691295E+03 -0.10421737221E+03 -0.12124583409E+03  0.43900962877E+03  0.91214189358E+02 0.  0.
         23    2    4    4    0    0  0.53974191732E+03 -0.19054392721E+03  0.98790349567E+03  0.11453198764E+04  0.90421109040E+02 0.  0.
         11    1    3    3    0    0 -0.68756260932E+03  0.17381747958E+03 -0.87993195718E+03  0.11301482678E+04  0.00000000000E+00 0. -1.
        -11    1    3    3    0    0 -0.25073622095E+03  0.12094381984E+03 -0.32443137782E+03  0.42749477069E+03  0.00000000000E+00 0.  1.
          1    1    6    6  502    0  0.46546196378E+03 -0.19588296257E+03  0.86365161191E+03  0.10004594352E+04  0.00000000000E+00 0. -1.
          1    1    5    5  503    0  0.30946719248E+03 -0.88552099630E+02 -0.13202943932E+03  0.34791261894E+03  0.00000000000E+00 0. -1.
         -1    1    5    5    0  503  0.89089720472E+02 -0.15665272584E+02  0.10783605234E+02  0.91097009834E+02  0.00000000000E+00 0.  1.
         -1    1    6    6    0  502  0.74279953542E+02  0.53390353625E+01  0.12425188376E+03  0.14486044117E+03  0.00000000000E+00 0.  1.
<mgrwt>
<rscale>  0 0.31237712E+04</rscale>
<asrwt>0</asrwt>
<pdfrwt beam="1">  1        2 0.26766755E+00 0.31237712E+04</pdfrwt>
<pdfrwt beam="2">  1       -2 0.21571284E+00 0.31237712E+04</pdfrwt>
<totfact> 0.83112076E-01</totfact>
</mgrwt>
</event>
<event>
12    1  0.4967442E-008  0.3479106E+04  0.7818608E-02  0.8118760E-01
         -2   -1    0    0    0  501 -0.00000000000E+00  0.00000000000E+00  0.22266128785E+04  0.22266128785E+04  0.00000000000E+00 0.  1.
          2   -1    0    0  501    0  0.00000000000E+00 -0.00000000000E+00 -0.13590345742E+04  0.13590345742E+04  0.00000000000E+00 0. -1.
         23    2    1    2    0    0  0.13006846712E+04  0.19818239085E+02  0.14089655926E+04  0.19196611249E+04  0.87985321908E+02 0.  0.
        254    2    1    2    0    0 -0.13006846712E+04 -0.19818239085E+02 -0.54138728826E+03  0.16659863278E+04  0.88895268263E+03 0.  0.
         23    2    4    4    0    0 -0.98139492394E+03  0.93636520813E+02 -0.76423394861E+03  0.12503964385E+04  0.86798216532E+02 0.  0.
         23    2    4    4    0    0 -0.31928974731E+03 -0.11345475990E+03  0.22284666036E+03  0.41558988933E+03  0.90754596587E+02 0.  0.
         11    1    3    3    0    0  0.73925942519E+03 -0.23599415835E+02  0.76126704753E+03  0.10614089447E+04  0.00000000000E+00 0. -1.
        -11    1    3    3    0    0  0.56142524606E+03  0.43417654920E+02  0.64769854502E+03  0.85825218024E+03  0.00000000000E+00 0.  1.
          1    1    5    5  502    0 -0.87147591695E+03  0.69060760047E+02 -0.64518380380E+03  0.10865089982E+04  0.00000000000E+00 0. -1.
          3    1    6    6  503    0 -0.26869093414E+03 -0.63970940716E+02  0.15118648785E+03  0.31487212238E+03  0.00000000000E+00 0. -1.
         -1    1    5    5    0  502 -0.10991900699E+03  0.24575760766E+02 -0.11905014481E+03  0.16388744032E+03  0.00000000000E+00 0.  1.
         -3    1    6    6    0  503 -0.50598813167E+02 -0.49483819182E+02  0.71660172512E+02  0.10071776695E+03  0.00000000000E+00 0.  1.
<mgrwt>
<rscale>  0 0.34791056E+04</rscale>
<asrwt>0</asrwt>
<pdfrwt beam="1">  1        2 0.20908224E+00 0.34791056E+04</pdfrwt>
<pdfrwt beam="2">  1       -2 0.34255583E+00 0.34791056E+04</pdfrwt>
<totfact> 0.21783729E-01</totfact>
</mgrwt>
</event>
<event>
12    1  0.4967442E-008  0.1655663E+04  0.7818608E-02  0.8787063E-01
          2   -1    0    0  501    0  0.00000000000E+00  0.00000000000E+00  0.13298558280E+04  0.13298558280E+04  0.00000000000E+00 0. -1.
         -2   -1    0    0    0  501 -0.00000000000E+00 -0.00000000000E+00 -0.51532268467E+03  0.51532268467E+03  0.00000000000E+00 0.  1.
         23    2    1    2    0    0 -0.33947325596E+02  0.51639547756E+03  0.57942222227E+03  0.78156601046E+03  0.85431884487E+02 0.  0.
        254    2    1    2    0    0  0.33947325596E+02 -0.51639547756E+03  0.23511092103E+03  0.10636125022E+04  0.89898704077E+03 0.  0.
         23    2    4    4    0    0 -0.26174913807E+03 -0.34364563193E+03  0.46517562845E+03  0.64113231288E+03  0.89762718814E+02 0.  0.
         23    2    4    4    0    0  0.29569646367E+03 -0.17274984563E+03 -0.23006470742E+03  0.42248018931E+03  0.90999082260E+02 0.  0.
         11    1    3    3    0    0 -0.34522328263E+02  0.45183832891E+03  0.54369117738E+03  0.70777804641E+03  0.00000000000E+00 0. -1.
        -11    1    3    3    0    0  0.57500266728E+00  0.64557148648E+02  0.35731044896E+02  0.73787964052E+02  0.00000000000E+00 0.  1.
          2    1    5    5  502    0 -0.11321444590E+03 -0.82070217641E+02  0.13270621949E+03  0.19277959455E+03  0.00000000000E+00 0. -1.
          4    1    6    6  503    0  0.29303726073E+03 -0.17762722087E+03 -0.21054040450E+03  0.40218096386E+03  0.00000000000E+00 0. -1.
         -2    1    5    5    0  502 -0.14853469217E+03 -0.26157541429E+03  0.33246940896E+03  0.44835271833E+03  0.00000000000E+00 0.  1.
         -4    1    6    6    0  503  0.26592029398E+01  0.48773752353E+01 -0.19524302916E+02  0.20299225449E+02  0.00000000000E+00 0.  1.
<mgrwt>
<rscale>  0 0.16556629E+04</rscale>
<asrwt>0</asrwt>
<pdfrwt beam="1">  1        2 0.20459320E+00 0.16556629E+04</pdfrwt>
<pdfrwt beam="2">  1       -2 0.79280413E-01 0.16556629E+04</pdfrwt>
<totfact> 0.21395016E+01</totfact>
</mgrwt>
</event>
<event>
12    1  0.4967442E-008  0.2818943E+04  0.7818608E-02  0.8297411E-01
         -2   -1    0    0    0  501 -0.00000000000E+00  0.00000000000E+00  0.86839329823E+03  0.86839329823E+03  0.00000000000E+00 0. -1.
          2   -1    0    0  501    0  0.00000000000E+00 -0.00000000000E+00 -0.22876847479E+04  0.22876847479E+04  0.00000000000E+00 0.  1.
         23    2    1    2    0    0 -0.28572056538E+03 -0.86045378598E+03 -0.16254584821E+04  0.18634289245E+04  0.90747563065E+02 0.  0.
        254    2    1    2    0    0  0.28572056538E+03  0.86045378598E+03  0.20616703239E+03  0.12926491217E+04  0.89800887929E+03 0.  0.
         23    2    4    4    0    0  0.51104520856E+03  0.17627940735E+03  0.11457475200E+03  0.56071321578E+03  0.95027900635E+02 0.  0.
         23    2    4    4    0    0 -0.22532464319E+03  0.68417437863E+03  0.91592280394E+02  0.73193590592E+03  0.92061117438E+02 0.  0.
         11    1    3    3    0    0 -0.22142105925E+03 -0.67366849458E+03 -0.11901140257E+04  0.13853620178E+04  0.00000000000E+00 0.  1.
        -11    1    3    3    0    0 -0.64299506125E+02 -0.18678529140E+03 -0.43534445636E+03  0.47806690668E+03  0.00000000000E+00 0. -1.
          2    1    5    5  502    0  0.40267340029E+03  0.99356918102E+02  0.70505090484E+02  0.42070016907E+03  0.00000000000E+00 0. -1.
          1    1    6    6  503    0 -0.10990611210E+03  0.42120231874E+03  0.91167653570E+02  0.44474969123E+03  0.00000000000E+00 0. -1.
         -2    1    5    5    0  502  0.10837180828E+03  0.76922489251E+02  0.44069661512E+02  0.14001304671E+03  0.00000000000E+00 0.  1.
         -1    1    6    6    0  503 -0.11541853109E+03  0.26297205989E+03  0.42462682445E+00  0.28718621469E+03  0.00000000000E+00 0.  1.
<mgrwt>
<rscale>  0 0.28189431E+04</rscale>
<asrwt>0</asrwt>
<pdfrwt beam="1">  1        2 0.35195150E+00 0.28189431E+04</pdfrwt>
<pdfrwt beam="2">  1       -2 0.13359897E+00 0.28189431E+04</pdfrwt>
<totfact> 0.16216166E+00</totfact>
</mgrwt>
</event>
<event>
12    1  0.4967442E-008  0.1415277E+04  0.7818608E-02  0.8942834E-01
          2   -1    0    0  501    0  0.00000000000E+00  0.00000000000E+00  0.13270141902E+04  0.13270141902E+04  0.00000000000E+00 0. -1.
         -2   -1    0    0    0  501 -0.00000000000E+00 -0.00000000000E+00 -0.37735258206E+03  0.37735258206E+03  0.00000000000E+00 0.  1.
         23    2    1    2    0    0 -0.54341038830E+02 -0.12409251668E+03 -0.19277880753E+03  0.25284684797E+03  0.91738534433E+02 0.  0.
        254    2    1    2    0    0  0.54341038830E+02  0.12409251668E+03  0.11424404157E+04  0.14515199243E+04  0.88509213421E+03 0.  0.
         23    2    4    4    0    0  0.16048869777E+03  0.47902784323E+03  0.69365437004E+03  0.86278395769E+03  0.89529190103E+02 0.  0.
         23    2    4    4    0    0 -0.10614765894E+03 -0.35493532655E+03  0.44878604563E+03  0.58873596658E+03  0.89189192573E+02 0.  0.
         13    1    3    3    0    0  0.84466942209E+01 -0.68100854111E+02 -0.13294803669E+03  0.14961368064E+03  0.00000000000E+00 0.  1.
        -13    1    3    3    0    0 -0.62787733051E+02 -0.55991662570E+02 -0.59830770840E+02  0.10323316734E+03  0.00000000000E+00 0. -1.
          4    1    5    5  502    0  0.14008028352E+03  0.35070633233E+03  0.56759155494E+03  0.68174598686E+03  0.00000000000E+00 0. -1.
          1    1    6    6  503    0 -0.55045057003E+02 -0.29496851407E+03  0.32820120566E+03  0.44469361811E+03  0.00000000000E+00 0. -1.
         -4    1    5    5    0  502  0.20408414248E+02  0.12832151090E+03  0.12606281510E+03  0.18103797083E+03  0.00000000000E+00 0.  1.
         -1    1    6    6    0  503 -0.51102601938E+02 -0.59966812474E+02  0.12058483997E+03  0.14404234847E+03  0.00000000000E+00 0.  1.
<mgrwt>
<rscale>  0 0.14152770E+04</rscale>
<asrwt>0</asrwt>
<pdfrwt beam="1">  1        2 0.20415603E+00 0.14152770E+04</pdfrwt>
<pdfrwt beam="2">  1       -2 0.58054244E-01 0.14152770E+04</pdfrwt>
<totfact> 0.43033676E+01</totfact>
</mgrwt>
</event>
<event>
12    1  0.4967442E-008  0.1906566E+04  0.7818608E-02  0.8651595E-01
         -2   -1    0    0    0  501 -0.00000000000E+00  0.00000000000E+00  0.61754048283E+03  0.61754048283E+03  0.00000000000E+00 0.  1.
          2   -1    0    0  501    0  0.00000000000E+00 -0.00000000000E+00 -0.14715613028E+04  0.14715613028E+04  0.00000000000E+00 0. -1.
         23    2    1    2    0    0 -0.35658553590E+03  0.64690648944E+03 -0.34819173687E+03  0.82130234159E+03  0.87514571274E+02 0.  0.
        254    2    1    2    0    0  0.35658553590E+03 -0.64690648944E+03 -0.50582908310E+03  0.12677994440E+04  0.89766982712E+03 0.  0.
         23    2    4    4    0    0  0.61833608642E+03 -0.61142957623E+03 -0.30558775261E+03  0.92652850829E+03  0.94263246714E+02 0.  0.
         23    2    4    4    0    0 -0.26175055052E+03 -0.35476913210E+02 -0.20024133049E+03  0.34127093575E+03  0.81223759364E+02 0.  0.
         13    1    3    3    0    0 -0.46079344432E+02  0.36545868133E+02 -0.33103163932E+02  0.67488709598E+02  0.00000000000E+00 0.  1.
        -13    1    3    3    0    0 -0.31050619146E+03  0.61036062131E+03 -0.31508857294E+03  0.75381363199E+03  0.00000000000E+00 0. -1.
          4    1    5    5  502    0  0.13517194356E+03 -0.96090929340E+02 -0.85715555063E+02  0.18668711098E+03  0.00000000000E+00 0. -1.
          3    1    6    6  503    0 -0.50006079864E+01 -0.95382964445E+01  0.46842486848E+01  0.11744248168E+02  0.00000000000E+00 0. -1.
         -4    1    5    5    0  502  0.48316414286E+03 -0.51533864689E+03 -0.21987219755E+03  0.73984139731E+03  0.00000000000E+00 0.  1.
         -3    1    6    6    0  503 -0.25674994253E+03 -0.25938616766E+02 -0.20492557918E+03  0.32952668759E+03  0.00000000000E+00 0.  1.
<mgrwt>
<rscale>  0 0.19065662E+04</rscale>
<asrwt>0</asrwt>
<pdfrwt beam="1">  1        2 0.22639404E+00 0.19065662E+04</pdfrwt>
<pdfrwt beam="2">  1       -2 0.95006229E-01 0.19065662E+04</pdfrwt>
<totfact> 0.11492025E+01</totfact>
</mgrwt>
</event>
<event>
12    1  0.4967442E-008  0.1296234E+04  0.7818608E-02  0.9032557E-01
          1   -1    0    0  501    0  0.00000000000E+00  0.00000000000E+00  0.99451643993E+03  0.99451643993E+03  0.00000000000E+00 0. -1.
         -1   -1    0    0    0  501 -0.00000000000E+00 -0.00000000000E+00 -0.42237145015E+03  0.42237145015E+03  0.00000000000E+00 0.  1.
         23    2    1    2    0    0 -0.25154699643E+03  0.18327944935E+03  0.23871747587E+03  0.40279571029E+03  0.91602963803E+02 0.  0.
        254    2    1    2    0    0  0.25154699643E+03 -0.18327944935E+03  0.33342751391E+03  0.10140921798E+04  0.90572721838E+03 0.  0.
         23    2    4    4    0    0  0.79986152293E+02 -0.53417229454E+03  0.12470860985E+03  0.56211034394E+03  0.93155657841E+02 0.  0.
         23    2    4    4    0    0  0.17156084414E+03  0.35089284519E+03  0.20871890406E+03  0.45198183585E+03  0.90360870824E+02 0.  0.
         13    1    3    3    0    0 -0.14542313351E+02 -0.10004896444E+02  0.20753925597E+02  0.27245224502E+02  0.00000000000E+00 0.  1.
        -13    1    3    3    0    0 -0.23700468308E+03  0.19328434579E+03  0.21796355027E+03  0.37555048579E+03  0.00000000000E+00 0. -1.
          4    1    5    5  502    0  0.69285743101E+02 -0.50801735281E+03  0.13787469249E+03  0.53093462478E+03  0.00000000000E+00 0. -1.
          3    1    6    6  503    0  0.11503096386E+03  0.31095660692E+03  0.16812173216E+03  0.37174056929E+03  0.00000000000E+00 0. -1.
         -4    1    5    5    0  502  0.10700409192E+02 -0.26154941723E+02 -0.13166082642E+02  0.31175719167E+02  0.00000000000E+00 0.  1.
         -3    1    6    6    0  503  0.56529880284E+02  0.39936238269E+02  0.40597171899E+02  0.80241266555E+02  0.00000000000E+00 0.  1.
<mgrwt>
<rscale>  0 0.12962335E+04</rscale>
<asrwt>0</asrwt>
<pdfrwt beam="1">  1        1 0.15300253E+00 0.12962335E+04</pdfrwt>
<pdfrwt beam="2">  1       -1 0.64980223E-01 0.12962335E+04</pdfrwt>
<totfact> 0.36066073E+01</totfact>
</mgrwt>
</event>
<event>
12    1  0.4967442E-008  0.1660013E+04  0.7818608E-02  0.8784505E-01
          2   -1    0    0  501    0  0.00000000000E+00  0.00000000000E+00  0.20744350758E+04  0.20744350758E+04  0.00000000000E+00 0. -1.
         -2   -1    0    0    0  501 -0.00000000000E+00 -0.00000000000E+00 -0.33209556105E+03  0.33209556105E+03  0.00000000000E+00 0.  1.
         23    2    1    2    0    0 -0.56122804129E+03  0.16595915507E+03  0.60996112293E+03  0.85016749641E+03  0.90624748230E+02 0.  0.
        254    2    1    2    0    0  0.56122804129E+03 -0.16595915507E+03  0.11323783918E+04  0.15563631404E+04  0.89300954483E+03 0.  0.
         23    2    4    4    0    0  0.64114977500E+03 -0.10691957326E+03  0.12268996202E+04  0.13914187411E+04  0.90876872722E+02 0.  0.
         23    2    4    4    0    0 -0.79921733710E+02 -0.59039581819E+02 -0.94521228429E+02  0.16494439926E+03  0.91647348484E+02 0.  0.
         13    1    3    3    0    0 -0.11782583013E+02 -0.67685649349E+01  0.29357940548E+02  0.32350137665E+02  0.00000000000E+00 0.  1.
        -13    1    3    3    0    0 -0.54944545828E+03  0.17272772001E+03  0.58060318238E+03  0.81781735875E+03  0.00000000000E+00 0. -1.
          4    1    5    5  502    0  0.54674524495E+03 -0.95804942166E+02  0.97134977653E+03  0.11187624136E+04  0.00000000000E+00 0.  1.
          1    1    6    6  503    0  0.17063273270E+02 -0.22953421174E+02 -0.70745039472E+01  0.29462916427E+02  0.00000000000E+00 0. -1.
         -4    1    5    5    0  502  0.94404530053E+02 -0.11114631089E+02  0.25554984369E+03  0.27265632750E+03  0.00000000000E+00 0. -1.
         -1    1    6    6    0  503 -0.96985006980E+02 -0.36086160645E+02 -0.87446724482E+02  0.13548148284E+03  0.00000000000E+00 0.  1.
<mgrwt>
<rscale>  0 0.16600129E+04</rscale>
<asrwt>0</asrwt>
<pdfrwt beam="1">  1        2 0.31914385E+00 0.16600129E+04</pdfrwt>
<pdfrwt beam="2">  1       -2 0.51091626E-01 0.16600129E+04</pdfrwt>
<totfact> 0.20991547E+01</totfact>
</mgrwt>
</event>
<event>
12    1  0.4967442E-008  0.1889955E+04  0.7818608E-02  0.8659873E-01
         -2   -1    0    0    0  501 -0.00000000000E+00  0.00000000000E+00  0.41897442883E+03  0.41897442883E+03  0.00000000000E+00 0.  1.
          2   -1    0    0  501    0  0.00000000000E+00 -0.00000000000E+00 -0.21313529832E+04  0.21313529832E+04  0.00000000000E+00 0. -1.
         23    2    1    2    0    0 -0.14286568700E+03 -0.69941736246E+03 -0.50669816840E+03  0.88025528110E+03  0.92255485574E+02 0.  0.
        254    2    1    2    0    0  0.14286568700E+03  0.69941736246E+03 -0.12056803860E+04  0.16700721309E+04  0.90877966415E+03 0.  0.
         23    2    4    4    0    0  0.21099962668E+03  0.80757862057E+03 -0.12503422320E+04  0.15066305561E+04  0.99377384497E+02 0.  0.
         23    2    4    4    0    0 -0.68133939681E+02 -0.10816125812E+03  0.44661846071E+02  0.16344157481E+03  0.91528008761E+02 0.  0.
         11    1    3    3    0    0  0.62827277143E+01 -0.66469782457E+02 -0.26257975490E+02  0.71743891198E+02  0.00000000000E+00 0. -1.
        -11    1    3    3    0    0 -0.14914841471E+03 -0.63294758000E+03 -0.48044019291E+03  0.80851138990E+03  0.00000000000E+00 0.  1.
          1    1    5    5  502    0  0.13868187797E+03  0.38661686199E+03 -0.55250933606E+03  0.68845611892E+03  0.00000000000E+00 0. -1.
          1    1    6    6  503    0 -0.82142625506E+02 -0.10033036837E+03  0.16077711452E+02  0.13066019496E+03  0.00000000000E+00 0. -1.
         -1    1    5    5    0  502  0.72317748708E+02  0.42096175858E+03 -0.69783289599E+03  0.81817443720E+03  0.00000000000E+00 0.  1.
         -1    1    6    6    0  503  0.14008685825E+02 -0.78308897488E+01  0.28584134619E+02  0.32781379848E+02  0.00000000000E+00 0.  1.
<mgrwt>
<rscale>  0 0.18899549E+04</rscale>
<asrwt>0</asrwt>
<pdfrwt beam="1">  1        2 0.32790045E+00 0.18899549E+04</pdfrwt>
<pdfrwt beam="2">  1       -2 0.64457606E-01 0.18899549E+04</pdfrwt>
<totfact> 0.11758245E+01</totfact>
</mgrwt>
</event>
<event>
12    1  0.4967442E-008  0.1799103E+04  0.7818608E-02  0.8706777E-01
         -1   -1    0    0    0  501 -0.00000000000E+00  0.00000000000E+00  0.76583725733E+03  0.76583725733E+03  0.00000000000E+00 0.  1.
          1   -1    0    0  501    0  0.00000000000E+00 -0.00000000000E+00 -0.10566121468E+04  0.10566121468E+04  0.00000000000E+00 0. -1.
         23    2    1    2    0    0 -0.21258121408E+03  0.27543476691E+03  0.48559234086E+03  0.60443969723E+03  0.92153907590E+02 0.  0.
        254    2    1    2    0    0  0.21258121408E+03 -0.27543476691E+03 -0.77636723032E+03  0.12180097069E+04  0.87163437655E+03 0.  0.
         23    2    4    4    0    0  0.45524662773E+03  0.10635412191E+02 -0.67495033411E+03  0.81933296845E+03  0.91574863445E+02 0.  0.
         23    2    4    4    0    0 -0.24266541366E+03 -0.28607017910E+03 -0.10141689621E+03  0.39867673845E+03  0.89079203997E+02 0.  0.
         11    1    3    3    0    0 -0.25976314088E+02  0.10130914787E+03  0.14808730308E+03  0.18129578503E+03  0.00000000000E+00 0. -1.
        -11    1    3    3    0    0 -0.18660489999E+03  0.17412561905E+03  0.33750503778E+03  0.42314391220E+03  0.00000000000E+00 0.  1.
          4    1    5    5  502    0  0.17489109221E+03 -0.39836642489E+02 -0.27406860271E+03  0.32754763198E+03  0.00000000000E+00 0. -1.
          3    1    6    6  503    0 -0.43996067492E+01 -0.17052092091E+02  0.12607586894E+02  0.21658292443E+02  0.00000000000E+00 0. -1.
         -4    1    5    5    0  502  0.28035553552E+03  0.50472054680E+02 -0.40088173140E+03  0.49178533648E+03  0.00000000000E+00 0.  1.
         -3    1    6    6    0  503 -0.23826580691E+03 -0.26901808701E+03 -0.11402448310E+03  0.37701844600E+03  0.00000000000E+00 0.  1.
<mgrwt>
<rscale>  0 0.17991031E+04</rscale>
<asrwt>0</asrwt>
<pdfrwt beam="1">  1        1 0.16255572E+00 0.17991031E+04</pdfrwt>
<pdfrwt beam="2">  1       -1 0.11782112E+00 0.17991031E+04</pdfrwt>
<totfact> 0.83583447E+00</totfact>
</mgrwt>
</event>
<event>
12    1  0.4967442E-008  0.2921495E+04  0.7818608E-02  0.8266511E-01
          2   -1    0    0  501    0  0.00000000000E+00  0.00000000000E+00  0.24532519870E+04  0.24532519870E+04  0.00000000000E+00 0. -1.
         -2   -1    0    0    0  501 -0.00000000000E+00 -0.00000000000E+00 -0.86977731703E+03  0.86977731703E+03  0.00000000000E+00 0.  1.
         23    2    1    2    0    0  0.37869106432E+03 -0.11380371808E+04  0.13562223828E+04  0.18128912955E+04  0.93274598016E+02 0.  0.
        254    2    1    2    0    0 -0.37869106432E+03  0.11380371808E+04  0.22725228719E+03  0.15101380086E+04  0.88900936771E+03 0.  0.
         23    2    4    4    0    0 -0.23365757601E+03 -0.80523399122E+02  0.38924244244E+02  0.26507689014E+03  0.87582990722E+02 0.  0.
         23    2    4    4    0    0 -0.14503348832E+03  0.12185605799E+04  0.18832804294E+03  0.12450611184E+04  0.93729063092E+02 0.  0.
         13    1    3    3    0    0  0.33317591062E+03 -0.10575921550E+04  0.12763549185E+04  0.16907362987E+04  0.00000000000E+00 0. -1.
        -13    1    3    3    0    0  0.45515153700E+02 -0.80445025738E+02  0.79867464250E+02  0.12215499674E+03  0.00000000000E+00 0.  1.
          1    1    5    5  502    0 -0.94190951361E+02 -0.68984754062E+00  0.44725632848E+02  0.10427268790E+03  0.00000000000E+00 0. -1.
          1    1    6    6  503    0  0.83297133545E+01  0.19157354288E+03  0.43596878150E+02  0.19664814832E+03  0.00000000000E+00 0. -1.
         -1    1    5    5    0  502 -0.13946662465E+03 -0.79833551581E+02 -0.58013886036E+01  0.16080420224E+03  0.00000000000E+00 0.  1.
         -1    1    6    6    0  503 -0.15336320167E+03  0.10269870370E+04  0.14473116479E+03  0.10484129701E+04  0.00000000000E+00 0.  1.
<mgrwt>
<rscale>  0 0.29214948E+04</rscale>
<asrwt>0</asrwt>
<pdfrwt beam="1">  1        2 0.37742338E+00 0.29214948E+04</pdfrwt>
<pdfrwt beam="2">  1       -2 0.13381190E+00 0.29214948E+04</pdfrwt>
<totfact> 0.12877424E+00</totfact>
</mgrwt>
</event>
<event>
12    1  0.4967442E-008  0.2214504E+04  0.7818608E-02  0.8512415E-01
          1   -1    0    0  501    0  0.00000000000E+00  0.00000000000E+00  0.76159321614E+03  0.76159321614E+03  0.00000000000E+00 0. -1.
         -1   -1    0    0    0  501 -0.00000000000E+00 -0.00000000000E+00 -0.16097931175E+04  0.16097931175E+04  0.00000000000E+00 0.  1.
         23    2    1    2    0    0  0.77656022533E+03 -0.29099172023E+03 -0.80233248786E+03  0.11574047564E+04  0.90146459937E+02 0.  0.
        254    2    1    2    0    0 -0.77656022533E+03  0.29099172023E+03 -0.45867413499E+02  0.12139815772E+04  0.88539566605E+03 0.  0.
         23    2    4    4    0    0 -0.28696047563E+02  0.22378732922E+03 -0.32722387150E+03  0.40686698232E+03  0.86954283158E+02 0.  0.
         23    2    4    4    0    0 -0.74786417777E+03  0.67204391005E+02  0.28135645800E+03  0.80711459493E+03  0.91952456883E+02 0.  0.
         13    1    3    3    0    0  0.44530143963E+03 -0.20556464336E+03 -0.43691041600E+03  0.65684161435E+03  0.00000000000E+00 0. -1.
        -13    1    3    3    0    0  0.33125878570E+03 -0.85427076862E+02 -0.36542207186E+03  0.50056314204E+03  0.00000000000E+00 0.  1.
          4    1    5    5  502    0 -0.34522573040E+02  0.22515388759E+03 -0.28801458290E+03  0.36720359626E+03  0.00000000000E+00 0. -1.
          1    1    6    6  503    0 -0.43538988684E+03  0.84098474379E+02  0.17198539431E+03  0.47562157522E+03  0.00000000000E+00 0. -1.
         -4    1    5    5    0  502  0.58265254770E+01 -0.13665583727E+01 -0.39209288602E+02  0.39663386058E+02  0.00000000000E+00 0.  1.
         -1    1    6    6    0  503 -0.31247429093E+03 -0.16894083374E+02  0.10937106369E+03  0.33149301971E+03  0.00000000000E+00 0.  1.
<mgrwt>
<rscale>  0 0.22145045E+04</rscale>
<asrwt>0</asrwt>
<pdfrwt beam="1">  1        1 0.11716819E+00 0.22145045E+04</pdfrwt>
<pdfrwt beam="2">  1       -1 0.24766048E+00 0.22145045E+04</pdfrwt>
<totfact> 0.15722815E+00</totfact>
</mgrwt>
</event>
<event>
12    1  0.4967442E-008  0.1279340E+04  0.7818608E-02  0.9046111E-01
          1   -1    0    0  501    0  0.00000000000E+00  0.00000000000E+00  0.13606416991E+04  0.13606416991E+04  0.00000000000E+00 0. -1.
         -1   -1    0    0    0  501 -0.00000000000E+00 -0.00000000000E+00 -0.30072429354E+03  0.30072429354E+03  0.00000000000E+00 0.  1.
         23    2    1    2    0    0 -0.21496816158E+03 -0.16805822237E+03  0.47321786888E+03  0.55321395154E+03  0.87496560810E+02 0.  0.
        254    2    1    2    0    0  0.21496816158E+03  0.16805822237E+03  0.58669953671E+03  0.11081520411E+04  0.89962754699E+03 0.  0.
         23    2    4    4    0    0  0.55883463460E+03  0.11716905983E+03  0.31669332560E+03  0.66001068000E+03  0.96409013160E+02 0.  0.
         23    2    4    4    0    0 -0.34386647303E+03  0.50889162537E+02  0.27000621111E+03  0.44814136114E+03  0.84222724907E+02 0.  0.
         13    1    3    3    0    0 -0.20491278092E+03 -0.17610978367E+03  0.42759751454E+03  0.50580978453E+03  0.00000000000E+00 0. -1.
        -13    1    3    3    0    0 -0.10055380659E+02  0.80515613021E+01  0.45620354334E+02  0.47404167002E+02  0.00000000000E+00 0.  1.
          1    1    5    5  502    0  0.31196756229E+03  0.95492876728E+02  0.13675647389E+03  0.35375836750E+03  0.00000000000E+00 0. -1.
          3    1    6    6  503    0 -0.10329489104E+03 -0.10879937701E+02  0.11685942244E+03  0.15634683294E+03  0.00000000000E+00 0. -1.
         -1    1    5    5    0  502  0.24686707231E+03  0.21676183104E+02  0.17993685171E+03  0.30625231250E+03  0.00000000000E+00 0.  1.
         -3    1    6    6    0  503 -0.24057158199E+03  0.61769100238E+02  0.15314678867E+03  0.29179452819E+03  0.00000000000E+00 0.  1.
<mgrwt>
<rscale>  0 0.12793405E+04</rscale>
<asrwt>0</asrwt>
<pdfrwt beam="1">  1        1 0.20932949E+00 0.12793405E+04</pdfrwt>
<pdfrwt beam="2">  1       -1 0.46265276E-01 0.12793405E+04</pdfrwt>
<totfact> 0.37460597E+01</totfact>
</mgrwt>
</event>
<event>
12    1  0.4967442E-008  0.1724376E+04  0.7818608E-02  0.8747583E-01
         -1   -1    0    0    0  501 -0.00000000000E+00  0.00000000000E+00  0.75374642928E+03  0.75374642928E+03  0.00000000000E+00 0.  1.
          1   -1    0    0  501    0  0.00000000000E+00 -0.00000000000E+00 -0.98623068178E+03  0.98623068178E+03  0.00000000000E+00 0. -1.
         23    2    1    2    0    0  0.43738944099E+03 -0.45087993638E+03 -0.15708501757E+03  0.65379197527E+03  0.90365945301E+02 0.  0.
        254    2    1    2    0    0 -0.43738944099E+03  0.45087993638E+03 -0.75399234931E+02  0.10861851358E+04  0.88289912475E+03 0.  0.
         23    2    4    4    0    0  0.42990458613E+02 -0.20294661150E+03 -0.14066036477E+03  0.26709373383E+03  0.92294191466E+02 0.  0.
         23    2    4    4    0    0 -0.48037989960E+03  0.65382654788E+03  0.65261129842E+02  0.81909140197E+03  0.91639004005E+02 0.  0.
         11    1    3    3    0    0  0.15690610555E+03 -0.18665849459E+03 -0.10288618035E+03  0.26466296619E+03  0.00000000000E+00 0.  1.
        -11    1    3    3    0    0  0.28048333543E+03 -0.26422144178E+03 -0.54198837214E+02  0.38912900908E+03  0.00000000000E+00 0. -1.
          1    1    6    6  502    0 -0.40380102962E+03  0.48697297568E+03  0.59649348528E+02  0.63541796901E+03  0.00000000000E+00 0. -1.
          1    1    5    5  503    0  0.59972320851E+02 -0.11902219063E+03 -0.11923310590E+03  0.17882811488E+03  0.00000000000E+00 0. -1.
         -1    1    5    5    0  503 -0.16981862238E+02 -0.83924420880E+02 -0.21427258874E+02  0.88265618946E+02  0.00000000000E+00 0.  1.
         -1    1    6    6    0  502 -0.76578869981E+02  0.16685357221E+03  0.56117813137E+01  0.18367343296E+03  0.00000000000E+00 0.  1.
<mgrwt>
<rscale>  0 0.17243757E+04</rscale>
<asrwt>0</asrwt>
<pdfrwt beam="1">  1        1 0.15172780E+00 0.17243757E+04</pdfrwt>
<pdfrwt beam="2">  1       -1 0.11596099E+00 0.17243757E+04</pdfrwt>
<totfact> 0.99133412E+00</totfact>
</mgrwt>
</event>
<event>
12    1  0.4967442E-008  0.1357267E+04  0.7818608E-02  0.8985346E-01
         -2   -1    0    0    0  501 -0.00000000000E+00  0.00000000000E+00  0.16025336175E+03  0.16025336175E+03  0.00000000000E+00 0.  1.
          2   -1    0    0  501    0  0.00000000000E+00 -0.00000000000E+00 -0.28738436261E+04  0.28738436261E+04  0.00000000000E+00 0. -1.
         23    2    1    2    0    0  0.16932841002E+03  0.14658191691E+03 -0.15766774994E+04  0.15953146573E+04  0.94649615751E+02 0.  0.
        254    2    1    2    0    0 -0.16932841002E+03 -0.14658191691E+03 -0.11369127650E+04  0.14387823306E+04  0.85285730980E+03 0.  0.
         23    2    4    4    0    0 -0.39952713384E+03  0.10286189898E+03 -0.26461174955E+03  0.49834105103E+03  0.90121718843E+02 0.  0.
         23    2    4    4    0    0  0.23019872382E+03 -0.24944381589E+03 -0.87230101542E+03  0.94044127956E+03  0.91143124099E+02 0.  0.
         13    1    3    3    0    0  0.15161543064E+03  0.10153650153E+03 -0.99246254218E+03  0.10090980119E+04  0.00000000000E+00 0. -1.
        -13    1    3    3    0    0  0.17712979383E+02  0.45045415384E+02 -0.58421495722E+03  0.58621664538E+03  0.00000000000E+00 0.  1.
          2    1    5    5  502    0 -0.37554836444E+03  0.11015682983E+03 -0.22491930901E+03  0.45139760384E+03  0.00000000000E+00 0.  1.
          2    1    6    6  503    0 -0.85670780045E+01 -0.11777727160E+02 -0.36795517605E+02  0.39572968026E+02  0.00000000000E+00 0. -1.
         -2    1    5    5    0  502 -0.23978769408E+02 -0.72949308536E+01 -0.39692440533E+02  0.46943447188E+02  0.00000000000E+00 0. -1.
         -2    1    6    6    0  503  0.23876580183E+03 -0.23766608873E+03 -0.83550549781E+03  0.90086831154E+03  0.00000000000E+00 0.  1.
<mgrwt>
<rscale>  0 0.13572665E+04</rscale>
<asrwt>0</asrwt>
<pdfrwt beam="1">  1        2 0.44212981E+00 0.13572665E+04</pdfrwt>
<pdfrwt beam="2">  1       -2 0.24654362E-01 0.13572665E+04</pdfrwt>
<totfact> 0.30196258E+01</totfact>
</mgrwt>
</event>
<event>
12    1  0.4967442E-008  0.1128961E+04  0.7818608E-02  0.9177416E-01
          2   -1    0    0  501    0  0.00000000000E+00  0.00000000000E+00  0.76858414999E+03  0.76858414999E+03  0.00000000000E+00 0. -1.
         -2   -1    0    0    0  501 -0.00000000000E+00 -0.00000000000E+00 -0.41457802450E+03  0.41457802450E+03  0.00000000000E+00 0.  1.
         23    2    1    2    0    0 -0.14577224086E+03  0.77155612646E+02 -0.31752013131E+02  0.19299546063E+03  0.95060626532E+02 0.  0.
        254    2    1    2    0    0  0.14577224086E+03 -0.77155612646E+02  0.38575813863E+03  0.99016671386E+03  0.89689366424E+03 0.  0.
         23    2    4    4    0    0 -0.98674753877E+02  0.26151360226E+03  0.47170775794E+03  0.55507713283E+03  0.86465850317E+02 0.  0.
         23    2    4    4    0    0  0.24444699474E+03 -0.33866921490E+03 -0.85949619310E+02  0.43508958103E+03  0.86396968137E+02 0.  0.
         11    1    3    3    0    0 -0.91033158587E+02  0.44471986441E+02 -0.65713123063E+02  0.12076012621E+03  0.00000000000E+00 0.  1.
        -11    1    3    3    0    0 -0.54739082276E+02  0.32683626204E+02  0.33961109933E+02  0.72235334416E+02  0.00000000000E+00 0. -1.
          2    1    5    5  502    0 -0.49758839149E+02  0.70159737458E+02  0.85404509779E+02  0.12121163774E+03  0.00000000000E+00 0. -1.
          3    1    6    6  503    0 -0.29370827661E+01  0.19163448474E+01  0.32646500488E+01  0.47913226452E+01  0.00000000000E+00 0. -1.
         -2    1    5    5    0  502 -0.48915914728E+02  0.19135386480E+03  0.38630324816E+03  0.43386549509E+03  0.00000000000E+00 0.  1.
         -3    1    6    6    0  503  0.24738407751E+03 -0.34058555975E+03 -0.89214269359E+02  0.43029825839E+03  0.00000000000E+00 0.  1.
<mgrwt>
<rscale>  0 0.11289608E+04</rscale>
<asrwt>0</asrwt>
<pdfrwt beam="1">  1        2 0.11824372E+00 0.11289608E+04</pdfrwt>
<pdfrwt beam="2">  1       -2 0.63781235E-01 0.11289608E+04</pdfrwt>
<totfact> 0.81888581E+01</totfact>
</mgrwt>
</event>
<event>
12    1  0.4967442E-008  0.1460957E+04  0.7818608E-02  0.8910840E-01
         -2   -1    0    0    0  501 -0.00000000000E+00  0.00000000000E+00  0.45882589525E+03  0.45882589525E+03  0.00000000000E+00 0.  1.
          2   -1    0    0  501    0  0.00000000000E+00 -0.00000000000E+00 -0.11629652858E+04  0.11629652858E+04  0.00000000000E+00 0. -1.
         23    2    1    2    0    0 -0.29798380156E+03  0.26307457995E+03 -0.12320031043E+02  0.40852717538E+03  0.93488444493E+02 0.  0.
        254    2    1    2    0    0  0.29798380156E+03 -0.26307457995E+03 -0.69181935947E+03  0.12132640056E+04  0.91399832638E+03 0.  0.
         23    2    4    4    0    0  0.53209858607E+03  0.40629662184E+02 -0.18720717176E+03  0.57281581309E+03  0.91059078753E+02 0.  0.
         23    2    4    4    0    0 -0.23411478451E+03 -0.30370424213E+03 -0.50461218772E+03  0.64044819255E+03  0.92165223020E+02 0.  0.
         11    1    3    3    0    0 -0.19217266670E+03  0.22383345925E+03 -0.74312021772E-01  0.29501145203E+03  0.00000000000E+00 0.  1.
        -11    1    3    3    0    0 -0.10581113485E+03  0.39241120695E+02 -0.12245719021E+02  0.11351572335E+03  0.00000000000E+00 0. -1.
          1    1    5    5  502    0  0.41888515264E+03  0.50073400331E+01 -0.17319526974E+03  0.45330612837E+03  0.00000000000E+00 0. -1.
          3    1    6    6  503    0 -0.21475156217E+03 -0.30444681260E+03 -0.49268954599E+03  0.61769659533E+03  0.00000000000E+00 0. -1.
         -1    1    5    5    0  502  0.11321343343E+03  0.35622322151E+02 -0.14011902019E+02  0.11950968472E+03  0.00000000000E+00 0.  1.
         -3    1    6    6    0  503 -0.19363222340E+02  0.74257046643E+00 -0.11922641725E+02  0.22751597219E+02  0.00000000000E+00 0.  1.
<mgrwt>
<rscale>  0 0.14609567E+04</rscale>
<asrwt>0</asrwt>
<pdfrwt beam="1">  1        2 0.17891774E+00 0.14609567E+04</pdfrwt>
<pdfrwt beam="2">  1       -2 0.70588599E-01 0.14609567E+04</pdfrwt>
<totfact> 0.35266344E+01</totfact>
</mgrwt>
</event>
<event>
12    1  0.4967442E-008  0.1307290E+04  0.7818608E-02  0.9023804E-01
          2   -1    0    0  501    0  0.00000000000E+00  0.00000000000E+00  0.50919113030E+03  0.50919113030E+03  0.00000000000E+00 0.  1.
         -2   -1    0    0    0  501 -0.00000000000E+00 -0.00000000000E+00 -0.83907894768E+03  0.83907894768E+03  0.00000000000E+00 0. -1.
         23    2    1    2    0    0  0.31777452120E+03  0.10003597145E+03 -0.65183718673E+02  0.35195340455E+03  0.92921686847E+02 0.  0.
        254    2    1    2    0    0 -0.31777452120E+03 -0.10003597145E+03 -0.26470409871E+03  0.99631667343E+03  0.90088335093E+03 0.  0.
         23    2    4    4    0    0 -0.32818793688E+03  0.27430473715E+01  0.27576137430E+03  0.43857801439E+03  0.92690306550E+02 0.  0.
         23    2    4    4    0    0  0.10413415682E+02 -0.10277901882E+03 -0.54046547301E+03  0.55773865904E+03  0.91090714897E+02 0.  0.
         11    1    3    3    0    0  0.10548081125E+03  0.42161998989E+02 -0.67044658185E+02  0.13190459390E+03  0.00000000000E+00 0. -1.
        -11    1    3    3    0    0  0.21229370995E+03  0.57873972459E+02  0.18609395122E+01  0.22004881065E+03  0.00000000000E+00 0.  1.
          1    1    6    6  502    0 -0.36186458622E+02 -0.16718404467E+02 -0.15727871231E+03  0.16225152752E+03  0.00000000000E+00 0. -1.
          1    1    5    5  503    0 -0.16061686709E+03 -0.74500423922E+01  0.19362260665E+03  0.25168034276E+03  0.00000000000E+00 0. -1.
         -1    1    5    5    0  503 -0.16757106980E+03  0.10193089764E+02  0.82138767647E+02  0.18689767163E+03  0.00000000000E+00 0.  1.
         -1    1    6    6    0  502  0.46599874304E+02 -0.86060614354E+02 -0.38318676069E+03  0.39548713152E+03  0.00000000000E+00 0.  1.
<mgrwt>
<rscale>  0 0.13072897E+04</rscale>
<asrwt>0</asrwt>
<pdfrwt beam="1">  1        2 0.78337098E-01 0.13072897E+04</pdfrwt>
<pdfrwt beam="2">  1       -2 0.12908907E+00 0.13072897E+04</pdfrwt>
<totfact> 0.26097697E+01</totfact>
</mgrwt>
</event>
<event>
12    1  0.4967442E-008  0.1815743E+04  0.7818608E-02  0.8697972E-01
         -1   -1    0    0    0  501 -0.00000000000E+00  0.00000000000E+00  0.82488588318E+03  0.82488588318E+03  0.00000000000E+00 0.  1.
          1   -1    0    0  501    0  0.00000000000E+00 -0.00000000000E+00 -0.99920514941E+03  0.99920514941E+03  0.00000000000E+00 0. -1.
         23    2    1    2    0    0 -0.25130853354E+03 -0.48605872418E+03 -0.47480508867E+03  0.73012766931E+03  0.90760557968E+02 0.  0.
        254    2    1    2    0    0  0.25130853354E+03  0.48605872418E+03  0.30048582244E+03  0.10939633633E+04  0.89836242592E+03 0.  0.
         23    2    4    4    0    0 -0.29431335439E+03  0.25829164736E+03  0.28953193832E+03  0.49533261101E+03  0.90502632856E+02 0.  0.
         23    2    4    4    0    0  0.54562188793E+03  0.22776707682E+03  0.10953884124E+02  0.59863075226E+03  0.93046784475E+02 0.  0.
         11    1    3    3    0    0 -0.23053781922E+03 -0.47998056608E+03 -0.46212310438E+03  0.70504382382E+03  0.00000000000E+00 0. -1.
        -11    1    3    3    0    0 -0.20770714316E+02 -0.60781581084E+01 -0.12681984287E+02  0.25083845491E+02  0.00000000000E+00 0.  1.
          4    1    5    5  502    0 -0.21941152602E+03  0.21170152404E+03  0.26451977881E+03  0.40364547119E+03  0.00000000000E+00 0.  1.
          1    1    6    6  503    0  0.66862037703E+01  0.16072599528E+01  0.12382083847E+02  0.14163495536E+02  0.00000000000E+00 0. -1.
         -4    1    5    5    0  502 -0.74901828376E+02  0.46590123319E+02  0.25012159505E+02  0.91687139818E+02  0.00000000000E+00 0. -1.
         -1    1    6    6    0  503  0.53893568416E+03  0.22615981687E+03 -0.14281997227E+01  0.58446725672E+03  0.00000000000E+00 0.  1.
<mgrwt>
<rscale>  0 0.18157425E+04</rscale>
<asrwt>0</asrwt>
<pdfrwt beam="1">  1        1 0.15372387E+00 0.18157425E+04</pdfrwt>
<pdfrwt beam="2">  1       -1 0.12690552E+00 0.18157425E+04</pdfrwt>
<totfact> 0.76956513E+00</totfact>
</mgrwt>
</event>
<event>
12    1  0.4967442E-008  0.2037607E+04  0.7818608E-02  0.8589237E-01
          1   -1    0    0  501    0  0.00000000000E+00  0.00000000000E+00  0.94308199923E+03  0.94308199923E+03  0.00000000000E+00 0. -1.
         -1   -1    0    0    0  501 -0.00000000000E+00 -0.00000000000E+00 -0.11006047312E+04  0.11006047312E+04  0.00000000000E+00 0.  1.
         23    2    1    2    0    0  0.75014021945E+03 -0.15841912526E+01  0.26335141820E+03  0.80023855430E+03  0.91186160207E+02 0.  0.
        254    2    1    2    0    0 -0.75014021945E+03  0.15841912526E+01 -0.42087415022E+03  0.12434481762E+04  0.89795069911E+03 0.  0.
         23    2    4    4    0    0 -0.79347161808E+03 -0.20846270160E+03 -0.78448589870E+02  0.82899277282E+03  0.89559642100E+02 0.  0.
         23    2    4    4    0    0  0.43331398625E+02  0.21004689285E+03 -0.34242556035E+03  0.41445540336E+03  0.92307690303E+02 0.  0.
         13    1    3    3    0    0  0.73692883699E+03  0.10185290588E+02  0.25064073398E+03  0.77845271434E+03  0.00000000000E+00 0. -1.
        -13    1    3    3    0    0  0.13211382465E+02 -0.11769481841E+02  0.12710684220E+02  0.21785839960E+02  0.00000000000E+00 0.  1.
          3    1    5    5  502    0 -0.62993199777E+03 -0.12716751772E+03 -0.61787503309E+02  0.64560327984E+03  0.00000000000E+00 0. -1.
          3    1    6    6  503    0  0.33206351958E+02  0.13368649222E+02 -0.41377047588E+02  0.54712362949E+02  0.00000000000E+00 0. -1.
         -3    1    5    5    0  502 -0.16353962031E+03 -0.81295183873E+02 -0.16661086560E+02  0.18338949298E+03  0.00000000000E+00 0.  1.
         -3    1    6    6    0  503  0.10125046667E+02  0.19667824363E+03 -0.30104851276E+03  0.35974304041E+03  0.00000000000E+00 0.  1.
<mgrwt>
<rscale>  0 0.20376069E+04</rscale>
<asrwt>0</asrwt>
<pdfrwt beam="1">  1        1 0.14508954E+00 0.20376069E+04</pdfrwt>
<pdfrwt beam="2">  1       -1 0.16932380E+00 0.20376069E+04</pdfrwt>
<totfact> 0.38637616E+00</totfact>
</mgrwt>
</event>
<event>
12    1  0.4967442E-008  0.2582531E+04  0.7818608E-02  0.8374159E-01
          2   -1    0    0  501    0  0.00000000000E+00  0.00000000000E+00  0.12698346814E+04  0.12698346814E+04  0.00000000000E+00 0. -1.
         -2   -1    0    0    0  501 -0.00000000000E+00 -0.00000000000E+00 -0.13130581684E+04  0.13130581684E+04  0.00000000000E+00 0.  1.
         23    2    1    2    0    0  0.77863448634E+03 -0.81708430280E+03 -0.19887989088E+02  0.11325224962E+04  0.91177031244E+02 0.  0.
        254    2    1    2    0    0 -0.77863448634E+03  0.81708430280E+03 -0.23335497896E+02  0.14503703536E+04  0.91056641495E+03 0.  0.
         23    2    4    4    0    0 -0.45194753906E+03  0.62084386756E+03 -0.43145226537E+03  0.88520174559E+03  0.87905558247E+02 0.  0.
         23    2    4    4    0    0 -0.32668694728E+03  0.19624043525E+03  0.40811676748E+03  0.56516860804E+03  0.87301716297E+02 0.  0.
         13    1    3    3    0    0  0.34522686327E+03 -0.39345638933E+03 -0.49282638791E+02  0.52575497707E+03  0.00000000000E+00 0. -1.
        -13    1    3    3    0    0  0.43340762307E+03 -0.42362791347E+03  0.29394649703E+02  0.60676751910E+03  0.00000000000E+00 0.  1.
          1    1    5    5  502    0 -0.17380583849E+02  0.49301573663E+02 -0.11885278025E+02  0.53609604497E+02  0.00000000000E+00 0. -1.
          3    1    6    6  503    0 -0.12658579984E+03  0.30431798017E+02  0.11840450782E+03  0.17598206308E+03  0.00000000000E+00 0. -1.
         -1    1    5    5    0  502 -0.43456695521E+03  0.57154229389E+03 -0.41956698735E+03  0.83159214110E+03  0.00000000000E+00 0.  1.
         -3    1    6    6    0  503 -0.20010114744E+03  0.16580863723E+03  0.28971225965E+03  0.38918654496E+03  0.00000000000E+00 0.  1.
<mgrwt>
<rscale>  0 0.25825312E+04</rscale>
<asrwt>0</asrwt>
<pdfrwt beam="1">  1        2 0.19535918E+00 0.25825312E+04</pdfrwt>
<pdfrwt beam="2">  1       -2 0.20200895E+00 0.25825312E+04</pdfrwt>
<totfact> 0.19679911E+00</totfact>
</mgrwt>
</event>
<event>
12    1  0.4967442E-008  0.1476664E+04  0.7818608E-02  0.8900121E-01
         -1   -1    0    0    0  501 -0.00000000000E+00  0.00000000000E+00  0.18738808995E+03  0.18738808995E+03  0.00000000000E+00 0.  1.
          1   -1    0    0  501    0  0.00000000000E+00 -0.00000000000E+00 -0.29091179732E+04  0.29091179732E+04  0.00000000000E+00 0. -1.
         23    2    1    2    0    0 -0.21429820252E-01 -0.18711829659E+03  0.17914271135E+02  0.20788470595E+03  0.88779910341E+02 0.  0.
        254    2    1    2    0    0  0.21429820252E-01  0.18711829659E+03 -0.27396441543E+04  0.28886213572E+04  0.89636487837E+03 0.  0.
         23    2    4    4    0    0  0.35687616364E+03  0.82125475330E+02 -0.55728460407E+03  0.67280675151E+03  0.89429330024E+02 0.  0.
         23    2    4    4    0    0 -0.35685473382E+03  0.10499282126E+03 -0.21823595503E+04  0.22158146056E+04  0.93660911526E+02 0.  0.
         11    1    3    3    0    0  0.31432483648E+01 -0.28752189848E+02 -0.30715458459E+02  0.42190138892E+02  0.00000000000E+00 0. -1.
        -11    1    3    3    0    0 -0.31646781850E+01 -0.15836610674E+03  0.48629729595E+02  0.16569456706E+03  0.00000000000E+00 0.  1.
          4    1    5    5  502    0  0.18411465813E+03 -0.32964203548E+01 -0.26476019760E+03  0.32250121853E+03  0.00000000000E+00 0. -1.
          1    1    6    6  503    0 -0.58673135932E+02 -0.10513918395E+02 -0.47951823472E+03  0.48320887491E+03  0.00000000000E+00 0. -1.
         -4    1    5    5    0  502  0.17276150551E+03  0.85421895685E+02 -0.29252440648E+03  0.35030553297E+03  0.00000000000E+00 0.  1.
         -1    1    6    6    0  503 -0.29818159789E+03  0.11550673965E+03 -0.17028413156E+04  0.17326057307E+04  0.00000000000E+00 0.  1.
<mgrwt>
<rscale>  0 0.14766639E+04</rscale>
<asrwt>0</asrwt>
<pdfrwt beam="1">  1        1 0.44755659E+00 0.14766639E+04</pdfrwt>
<pdfrwt beam="2">  1       -1 0.28828938E-01 0.14766639E+04</pdfrwt>
<totfact> 0.74219242E+00</totfact>
</mgrwt>
</event>
<event>
12    1  0.4967442E-008  0.2783179E+04  0.7818608E-02  0.8308510E-01
         -1   -1    0    0    0  501 -0.00000000000E+00  0.00000000000E+00  0.12342459221E+04  0.12342459221E+04  0.00000000000E+00 0.  1.
          1   -1    0    0  501    0  0.00000000000E+00 -0.00000000000E+00 -0.15689909906E+04  0.15689909906E+04  0.00000000000E+00 0. -1.
         23    2    1    2    0    0  0.22002240069E+03  0.39848963426E+03  0.10167095035E+04  0.11175154783E+04  0.89099855393E+02 0.  0.
        254    2    1    2    0    0 -0.22002240069E+03 -0.39848963426E+03 -0.13514545721E+04  0.16857214344E+04  0.89890124527E+03 0.  0.
         23    2    4    4    0    0 -0.26619268671E+03 -0.56248684467E+03 -0.13534047443E+04  0.14923521808E+04  0.90336219632E+02 0.  0.
         23    2    4    4    0    0  0.46170286020E+02  0.16399721041E+03  0.19501722683E+01  0.19336925367E+03  0.91438967407E+02 0.  0.
         13    1    3    3    0    0  0.42916831577E+02  0.72228937290E+02  0.11536941884E+03  0.14271992369E+03  0.00000000000E+00 0. -1.
        -13    1    3    3    0    0  0.17710556911E+03  0.32626069697E+03  0.90134008467E+03  0.97479555458E+03  0.00000000000E+00 0.  1.
          1    1    5    5  502    0 -0.24001903769E+03 -0.46085502799E+03 -0.11850836977E+04  0.12939937658E+04  0.00000000000E+00 0. -1.
          3    1    6    6  503    0 -0.65870373970E+01  0.12922547030E+03 -0.68470011042E+01  0.12957427469E+03  0.00000000000E+00 0. -1.
         -1    1    5    5    0  502 -0.26173649025E+02 -0.10163181668E+03 -0.16832104664E+03  0.19835841501E+03  0.00000000000E+00 0.  1.
         -3    1    6    6    0  503  0.52757323417E+02  0.34771740103E+02  0.87971733725E+01  0.63794978981E+02  0.00000000000E+00 0.  1.
<mgrwt>
<rscale>  0 0.27831786E+04</rscale>
<asrwt>0</asrwt>
<pdfrwt beam="1">  1        1 0.24138323E+00 0.27831786E+04</pdfrwt>
<pdfrwt beam="2">  1       -1 0.18988399E+00 0.27831786E+04</pdfrwt>
<totfact> 0.89962523E-01</totfact>
</mgrwt>
</event>
<event>
12    1  0.4967442E-008  0.1806478E+04  0.7818608E-02  0.8702862E-01
         -1   -1    0    0    0  501 -0.00000000000E+00  0.00000000000E+00  0.69303159910E+03  0.69303159910E+03  0.00000000000E+00 0.  1.
          1   -1    0    0  501    0  0.00000000000E+00 -0.00000000000E+00 -0.11772055791E+04  0.11772055791E+04  0.00000000000E+00 0. -1.
         23    2    1    2    0    0 -0.23134405695E+03 -0.22554240302E+03 -0.79100429441E+03  0.85956005425E+03  0.93628226747E+02 0.  0.
        254    2    1    2    0    0  0.23134405695E+03  0.22554240302E+03  0.30683031442E+03  0.10106771239E+04  0.90715707503E+03 0.  0.
         23    2    4    4    0    0  0.44855883671E+03  0.44707166927E+03  0.20238687343E+03  0.67084429611E+03  0.89406463046E+02 0.  0.
         23    2    4    4    0    0 -0.21721477977E+03 -0.22152926625E+03  0.10444344099E+03  0.33983282784E+03  0.91216457695E+02 0.  0.
         13    1    3    3    0    0 -0.22839348098E+03 -0.22476283102E+03 -0.71531873172E+03  0.78381298810E+03  0.00000000000E+00 0.  1.
        -13    1    3    3    0    0 -0.29505759665E+01 -0.77957200136E+00 -0.75685562690E+02  0.75747066152E+02  0.00000000000E+00 0. -1.
          2    1    5    5  502    0  0.32748149827E+03  0.33439286665E+03  0.10774200942E+03  0.48028227280E+03  0.00000000000E+00 0.  1.
          3    1    6    6  503    0 -0.65701102286E+02 -0.16626236583E+02  0.31684981693E+02  0.74813131531E+02  0.00000000000E+00 0. -1.
         -2    1    5    5    0  502  0.12107733844E+03  0.11267880262E+03  0.94644864012E+02  0.19056202331E+03  0.00000000000E+00 0. -1.
         -3    1    6    6    0  503 -0.15151367748E+03 -0.20490302967E+03  0.72758459299E+02  0.26501969631E+03  0.00000000000E+00 0.  1.
<mgrwt>
<rscale>  0 0.18064780E+04</rscale>
<asrwt>0</asrwt>
<pdfrwt beam="1">  1        1 0.18110855E+00 0.18064780E+04</pdfrwt>
<pdfrwt beam="2">  1       -1 0.10662025E+00 0.18064780E+04</pdfrwt>
<totfact> 0.86041747E+00</totfact>
</mgrwt>
</event>
<event>
12    1  0.4967442E-008  0.1527392E+04  0.7818608E-02  0.8866439E-01
         -2   -1    0    0    0  501 -0.00000000000E+00  0.00000000000E+00  0.53064311371E+03  0.53064311371E+03  0.00000000000E+00 0.  1.
          2   -1    0    0  501    0  0.00000000000E+00 -0.00000000000E+00 -0.10991032132E+04  0.10991032132E+04  0.00000000000E+00 0. -1.
         23    2    1    2    0    0  0.45710818773E+03 -0.22027996068E+03 -0.91866502332E+02  0.52391481137E+03  0.92607337499E+02 0.  0.
        254    2    1    2    0    0 -0.45710818773E+03  0.22027996068E+03 -0.47659359720E+03  0.11058315156E+04  0.85921518120E+03 0.  0.
         23    2    4    4    0    0  0.21021863482E+03  0.10686803732E+03  0.32119155897E+02  0.25454651932E+03  0.90275348216E+02 0.  0.
         23    2    4    4    0    0 -0.66732682255E+03  0.11341192336E+03 -0.50871275309E+03  0.85128499627E+03  0.87807330305E+02 0.  0.
         13    1    3    3    0    0  0.44493381961E+03 -0.19244145551E+03 -0.80145472472E+02  0.49134826181E+03  0.00000000000E+00 0.  1.
        -13    1    3    3    0    0  0.12174368121E+02 -0.27838505168E+02 -0.11721029860E+02  0.32566549558E+02  0.00000000000E+00 0. -1.
          2    1    5    5  502    0  0.51277365320E+02  0.18198235671E+02 -0.30126933930E+02  0.62194663145E+02  0.00000000000E+00 0. -1.
          3    1    6    6  503    0 -0.79060542202E+02  0.25022922150E+02 -0.98144425210E+02  0.12848752533E+03  0.00000000000E+00 0. -1.
         -2    1    5    5    0  502  0.15894126950E+03  0.88669801646E+02  0.62246089827E+02  0.19235185617E+03  0.00000000000E+00 0.  1.
         -3    1    6    6    0  503 -0.58826628035E+03  0.88389001214E+02 -0.41056832788E+03  0.72279747093E+03  0.00000000000E+00 0.  1.
<mgrwt>
<rscale>  0 0.15273920E+04</rscale>
<asrwt>0</asrwt>
<pdfrwt beam="1">  1        2 0.16909280E+00 0.15273920E+04</pdfrwt>
<pdfrwt beam="2">  1       -2 0.81637403E-01 0.15273920E+04</pdfrwt>
<totfact> 0.27780456E+01</totfact>
</mgrwt>
</event>
<event>
12    1  0.4967442E-008  0.1146807E+04  0.7818608E-02  0.9160734E-01
         -3   -1    0    0    0  501 -0.00000000000E+00  0.00000000000E+00  0.50800220572E+03  0.50800220572E+03  0.00000000000E+00 0.  1.
          3   -1    0    0  501    0  0.00000000000E+00 -0.00000000000E+00 -0.64722488122E+03  0.64722488122E+03  0.00000000000E+00 0. -1.
         23    2    1    2    0    0 -0.16001694879E+03  0.89772668967E+02 -0.13095760097E+03  0.24277607349E+03  0.90143067461E+02 0.  0.
        254    2    1    2    0    0  0.16001694879E+03 -0.89772668967E+02 -0.82650745294E+01  0.91245101346E+03  0.89377513084E+03 0.  0.
         23    2    4    4    0    0  0.44030992446E+03 -0.10613223590E+03 -0.25530169871E+03  0.52791257782E+03  0.91519677590E+02 0.  0.
         23    2    4    4    0    0 -0.28029297567E+03  0.16359566932E+02  0.24703662418E+03  0.38453843563E+03  0.89503782895E+02 0.  0.
         11    1    3    3    0    0 -0.99839371474E+02  0.80185779872E+02 -0.41643393885E+02  0.13465448988E+03  0.00000000000E+00 0. -1.
        -11    1    3    3    0    0 -0.60177577320E+02  0.95868890950E+01 -0.89314207090E+02  0.10812158361E+03  0.00000000000E+00 0.  1.
          2    1    5    5  502    0  0.25088912663E+03 -0.84530322514E+02 -0.10368590044E+03  0.28432638857E+03  0.00000000000E+00 0. -1.
          1    1    6    6  503    0 -0.14656657291E+03  0.33783809044E+02  0.81660669080E+02  0.17114780431E+03  0.00000000000E+00 0. -1.
         -2    1    5    5    0  502  0.18942079783E+03 -0.21601913385E+02 -0.15161579827E+03  0.24358618925E+03  0.00000000000E+00 0.  1.
         -1    1    6    6    0  503 -0.13372640276E+03 -0.17424242112E+02  0.16537595510E+03  0.21339063132E+03  0.00000000000E+00 0.  1.
<mgrwt>
<rscale>  0 0.11468072E+04</rscale>
<asrwt>0</asrwt>
<pdfrwt beam="1">  1        3 0.99573059E-01 0.11468072E+04</pdfrwt>
<pdfrwt beam="2">  1       -3 0.78154186E-01 0.11468072E+04</pdfrwt>
<totfact> 0.35131987E+00</totfact>
</mgrwt>
</event>
<event>
12    1  0.4967442E-008  0.2045925E+04  0.7818608E-02  0.8585445E-01
         -1   -1    0    0    0  501 -0.00000000000E+00  0.00000000000E+00  0.11695940661E+04  0.11695940661E+04  0.00000000000E+00 0.  1.
          1   -1    0    0  501    0  0.00000000000E+00 -0.00000000000E+00 -0.89471419204E+03  0.89471419204E+03  0.00000000000E+00 0. -1.
         23    2    1    2    0    0 -0.47055508063E+03  0.50813758321E+02 -0.56676001511E+03  0.74426731217E+03  0.93342355263E+02 0.  0.
        254    2    1    2    0    0  0.47055508063E+03 -0.50813758321E+02  0.84163988917E+03  0.13200409460E+04  0.90008125970E+03 0.  0.
         23    2    4    4    0    0  0.45377182580E+03 -0.25860520828E+02  0.10185212685E+04  0.11191112819E+04  0.91906749573E+02 0.  0.
         23    2    4    4    0    0  0.16783254836E+02 -0.24953237493E+02 -0.17688137928E+03  0.20092966405E+03  0.90450903002E+02 0.  0.
         11    1    3    3    0    0 -0.17808626185E+03 -0.23170794085E+02 -0.18710679926E+03  0.25934640288E+03  0.00000000000E+00 0.  1.
        -11    1    3    3    0    0 -0.29246881878E+03  0.73984552407E+02 -0.37965321585E+03  0.48492090929E+03  0.00000000000E+00 0. -1.
          1    1    5    5  502    0  0.30865791332E+03  0.56325987779E+01  0.59509669299E+03  0.67040398838E+03  0.00000000000E+00 0. -1.
          3    1    6    6  503    0  0.14260109171E+02 -0.17639591425E+01  0.67128603624E+01  0.15859532139E+02  0.00000000000E+00 0. -1.
         -1    1    5    5    0  502  0.14511391247E+03 -0.31493119606E+02  0.42342457546E+03  0.44870729355E+03  0.00000000000E+00 0.  1.
         -3    1    6    6    0  503  0.25231456651E+01 -0.23189278351E+02 -0.18359423964E+03  0.18507013191E+03  0.00000000000E+00 0.  1.
<mgrwt>
<rscale>  0 0.20459251E+04</rscale>
<asrwt>0</asrwt>
<pdfrwt beam="1">  1        1 0.13764834E+00 0.20459251E+04</pdfrwt>
<pdfrwt beam="2">  1       -1 0.17993755E+00 0.20459251E+04</pdfrwt>
<totfact> 0.35378321E+00</totfact>
</mgrwt>
</event>
<event>
12    1  0.4967442E-008  0.1436816E+04  0.7818608E-02  0.8927592E-01
         -2   -1    0    0    0  501 -0.00000000000E+00  0.00000000000E+00  0.29430815005E+03  0.29430815005E+03  0.00000000000E+00 0.  1.
          2   -1    0    0  501    0  0.00000000000E+00 -0.00000000000E+00 -0.17536375325E+04  0.17536375325E+04  0.00000000000E+00 0. -1.
         23    2    1    2    0    0 -0.87237145791E+02 -0.64313526178E+02  0.15240310967E+03  0.20672573235E+03  0.88103753182E+02 0.  0.
        254    2    1    2    0    0  0.87237145791E+02  0.64313526178E+02 -0.16117324921E+04  0.18412199502E+04  0.88355120372E+03 0.  0.
         23    2    4    4    0    0 -0.13922391910E+03  0.41948228406E+03 -0.67662773014E+03  0.81208349037E+03  0.79409217639E+02 0.  0.
         23    2    4    4    0    0  0.22646106489E+03 -0.35516875788E+03 -0.93510476193E+03  0.10291364598E+04  0.85272953445E+02 0.  0.
         11    1    3    3    0    0  0.70678773862E-01 -0.24248238830E+00 -0.10831644845E+02  0.10834589205E+02  0.00000000000E+00 0. -1.
        -11    1    3    3    0    0 -0.87307824565E+02 -0.64071043790E+02  0.16323475451E+03  0.19589114315E+03  0.00000000000E+00 0.  1.
          1    1    5    5  502    0 -0.23376427738E+02  0.19165094493E+02 -0.68387234923E+02  0.74770128535E+02  0.00000000000E+00 0. -1.
          3    1    6    6  503    0  0.10627405433E+02 -0.71269044400E+02 -0.18611260124E+03  0.19957484505E+03  0.00000000000E+00 0. -1.
         -1    1    5    5    0  502 -0.11584749136E+03  0.40031718957E+03 -0.60824049522E+03  0.73731336184E+03  0.00000000000E+00 0.  1.
         -3    1    6    6    0  503  0.21583365946E+03 -0.28389971348E+03 -0.74899216069E+03  0.82956161474E+03  0.00000000000E+00 0.  1.
<mgrwt>
<rscale>  0 0.14368157E+04</rscale>
<asrwt>0</asrwt>
<pdfrwt beam="1">  1        2 0.26979039E+00 0.14368157E+04</pdfrwt>
<pdfrwt beam="2">  1       -2 0.45278176E-01 0.14368157E+04</pdfrwt>
<totfact> 0.41109673E+01</totfact>
</mgrwt>
</event>
<event>
12    1  0.4967442E-008  0.1248659E+04  0.7818608E-02  0.9071300E-01
          1   -1    0    0  501    0  0.00000000000E+00  0.00000000000E+00  0.22734086590E+03  0.22734086590E+03  0.00000000000E+00 0. -1.
         -1   -1    0    0    0  501 -0.00000000000E+00 -0.00000000000E+00 -0.17145509250E+04  0.17145509250E+04  0.00000000000E+00 0.  1.
         23    2    1    2    0    0  0.31760234120E+02 -0.45484789501E+02  0.81725875435E+02  0.13355006469E+03  0.89882826585E+02 0.  0.
        254    2    1    2    0    0 -0.31760234120E+02  0.45484789501E+02 -0.15689359345E+04  0.18083417262E+04  0.89747548910E+03 0.  0.
         23    2    4    4    0    0 -0.83443551975E+02  0.36889099414E+03 -0.29134778603E+03  0.48624345267E+03  0.92226736444E+02 0.  0.
         23    2    4    4    0    0  0.51683317855E+02 -0.32340620464E+03 -0.12775881485E+04  0.13220982735E+04  0.91921864406E+02 0.  0.
         13    1    3    3    0    0 -0.19166755119E+02 -0.40509079542E+02  0.66449055683E+02  0.80148780579E+02  0.00000000000E+00 0. -1.
        -13    1    3    3    0    0  0.50926989239E+02 -0.49757099589E+01  0.15276819752E+02  0.53401284107E+02  0.00000000000E+00 0.  1.
          4    1    5    5  502    0 -0.47526644646E+02  0.24626426671E+03 -0.24416906061E+03  0.35003342864E+03  0.00000000000E+00 0. -1.
          3    1    6    6  503    0  0.71808261049E+02 -0.18822365636E+03 -0.83063074764E+03  0.85471165319E+03  0.00000000000E+00 0. -1.
         -4    1    5    5    0  502 -0.35916907329E+02  0.12262672743E+03 -0.47178725419E+02  0.13621002403E+03  0.00000000000E+00 0.  1.
         -3    1    6    6    0  503 -0.20124943194E+02 -0.13518254828E+03 -0.44695740086E+03  0.46738662035E+03  0.00000000000E+00 0.  1.
<mgrwt>
<rscale>  0 0.12486593E+04</rscale>
<asrwt>0</asrwt>
<pdfrwt beam="1">  1        1 0.34975518E-01 0.12486593E+04</pdfrwt>
<pdfrwt beam="2">  1       -1 0.26377706E+00 0.12486593E+04</pdfrwt>
<totfact> 0.70592670E+00</totfact>
</mgrwt>
</event>
<event>
12    1  0.4967442E-008  0.3060252E+04  0.7818608E-02  0.8226732E-01
         -2   -1    0    0    0  501 -0.00000000000E+00  0.00000000000E+00  0.37066815544E+04  0.37066815544E+04  0.00000000000E+00 0.  1.
          2   -1    0    0  501    0  0.00000000000E+00 -0.00000000000E+00 -0.63163922258E+03  0.63163922258E+03  0.00000000000E+00 0. -1.
         23    2    1    2    0    0 -0.12685782542E+04 -0.42652075182E+03  0.19857519543E+04  0.23968176080E+04  0.10155335067E+03 0.  0.
        254    2    1    2    0    0  0.12685782542E+04  0.42652075182E+03  0.10892903775E+04  0.19415031690E+04  0.88975855720E+03 0.  0.
         23    2    4    4    0    0 -0.11599467599E+03 -0.16005648883E+02  0.58197454567E+02  0.15694051628E+03  0.86789609278E+02 0.  0.
         23    2    4    4    0    0  0.13845729301E+04  0.44252640070E+03  0.10310929229E+04  0.17845626527E+04  0.92948542550E+02 0.  0.
         13    1    3    3    0    0 -0.10083969204E+04 -0.37653469048E+03  0.16270480382E+04  0.19508787868E+04  0.00000000000E+00 0.  1.
        -13    1    3    3    0    0 -0.26018133373E+03 -0.49986061341E+02  0.35870391619E+03  0.44593882118E+03  0.00000000000E+00 0. -1.
          1    1    5    5  502    0 -0.54854288613E+02  0.96118041718E+01 -0.15508833383E+02  0.57809200579E+02  0.00000000000E+00 0. -1.
          1    1    6    6  503    0  0.12394495946E+04  0.41443729913E+03  0.95231265939E+03  0.16170630704E+04  0.00000000000E+00 0. -1.
         -1    1    5    5    0  502 -0.61140387380E+02 -0.25617453054E+02  0.73706287951E+02  0.99131315705E+02  0.00000000000E+00 0.  1.
         -1    1    6    6    0  503  0.14512333558E+03  0.28089101575E+02  0.78780263496E+02  0.16749958231E+03  0.00000000000E+00 0.  1.
<mgrwt>
<rscale>  0 0.30602519E+04</rscale>
<asrwt>0</asrwt>
<pdfrwt beam="1">  1        2 0.97175268E-01 0.30602519E+04</pdfrwt>
<pdfrwt beam="2">  1       -2 0.57025869E+00 0.30602519E+04</pdfrwt>
<totfact> 0.26717296E-02</totfact>
</mgrwt>
</event>
<event>
12    1  0.4967442E-008  0.2450197E+04  0.7818608E-02  0.8420946E-01
          1   -1    0    0  501    0  0.00000000000E+00  0.00000000000E+00  0.22305478690E+04  0.22305478690E+04  0.00000000000E+00 0. -1.
         -1   -1    0    0    0  501 -0.00000000000E+00 -0.00000000000E+00 -0.67286913005E+03  0.67286913005E+03  0.00000000000E+00 0.  1.
         23    2    1    2    0    0  0.50149697356E+03 -0.91562419015E+03  0.41105327243E+03  0.11254508699E+04  0.88362863486E+02 0.  0.
        254    2    1    2    0    0 -0.50149697356E+03  0.91562419015E+03  0.11466254665E+04  0.17779661292E+04  0.86979694408E+03 0.  0.
         23    2    4    4    0    0 -0.47010980539E+02  0.73772571514E+03  0.31233091871E+03  0.80715356267E+03  0.86585263684E+02 0.  0.
         23    2    4    4    0    0 -0.45448599303E+03  0.17789847501E+03  0.83429454781E+03  0.97081256650E+03  0.90687714183E+02 0.  0.
         11    1    3    3    0    0  0.16922635200E+03 -0.39340411678E+03  0.18483696213E+03  0.46644298674E+03  0.00000000000E+00 0. -1.
        -11    1    3    3    0    0  0.33227062157E+03 -0.52222007337E+03  0.22621631030E+03  0.65900788313E+03  0.00000000000E+00 0.  1.
          1    1    5    5  502    0  0.11398061514E+02  0.35052754309E+03  0.11821050341E+03  0.37009890217E+03  0.00000000000E+00 0. -1.
          1    1    6    6  503    0 -0.43716879394E+03  0.14933406462E+03  0.76065976612E+03  0.88995533429E+03  0.00000000000E+00 0. -1.
         -1    1    5    5    0  502 -0.58409042053E+02  0.38719817205E+03  0.19412041531E+03  0.43705466051E+03  0.00000000000E+00 0.  1.
         -1    1    6    6    0  503 -0.17317199088E+02  0.28564410393E+02  0.73634781690E+02  0.80857232205E+02  0.00000000000E+00 0.  1.
<mgrwt>
<rscale>  0 0.24501974E+04</rscale>
<asrwt>0</asrwt>
<pdfrwt beam="1">  1        1 0.34316121E+00 0.24501974E+04</pdfrwt>
<pdfrwt beam="2">  1       -1 0.10351833E+00 0.24501974E+04</pdfrwt>
<totfact> 0.16298705E+00</totfact>
</mgrwt>
</event>
<event>
12    1  0.4967442E-008  0.1336609E+04  0.7818608E-02  0.9001027E-01
          1   -1    0    0  501    0  0.00000000000E+00  0.00000000000E+00  0.52144322015E+03  0.52144322015E+03  0.00000000000E+00 0. -1.
         -1   -1    0    0    0  501 -0.00000000000E+00 -0.00000000000E+00 -0.85652885087E+03  0.85652885087E+03  0.00000000000E+00 0.  1.
         23    2    1    2    0    0 -0.53694600686E+00 -0.12963712106E+03  0.25774931566E+03  0.30269483239E+03  0.91560801467E+02 0.  0.
        254    2    1    2    0    0  0.53694600686E+00  0.12963712106E+03 -0.59283494638E+03  0.10752772386E+04  0.88767212121E+03 0.  0.
         23    2    4    4    0    0  0.67603126751E+02  0.23531859094E+03  0.15877645045E+03  0.30788361333E+03  0.98169935077E+02 0.  0.
         23    2    4    4    0    0 -0.67066180744E+02 -0.10568146989E+03 -0.75161139683E+03  0.76739362529E+03  0.91141859783E+02 0.  0.
         11    1    3    3    0    0 -0.40478484258E+02 -0.54933969538E+02  0.15618450900E+03  0.17044016413E+03  0.00000000000E+00 0. -1.
        -11    1    3    3    0    0  0.39941538252E+02 -0.74703151517E+02  0.10156480666E+03  0.13225466826E+03  0.00000000000E+00 0.  1.
          3    1    6    6  502    0  0.24615554569E+01 -0.36496442329E+02 -0.72189553538E+02  0.80928247219E+02  0.00000000000E+00 0. -1.
          3    1    5    5  503    0  0.79985065371E+01  0.48484133159E+02 -0.88068265769E+01  0.49922414499E+02  0.00000000000E+00 0. -1.
         -3    1    5    5    0  503  0.59604620214E+02  0.18683445778E+03  0.16758327703E+03  0.25796119884E+03  0.00000000000E+00 0.  1.
         -3    1    6    6    0  502 -0.69527736201E+02 -0.69185027559E+02 -0.67942184329E+03  0.68646537807E+03  0.00000000000E+00 0.  1.
<mgrwt>
<rscale>  0 0.13366094E+04</rscale>
<asrwt>0</asrwt>
<pdfrwt beam="1">  1        1 0.80222035E-01 0.13366094E+04</pdfrwt>
<pdfrwt beam="2">  1       -1 0.13177367E+00 0.13366094E+04</pdfrwt>
<totfact> 0.20079006E+01</totfact>
</mgrwt>
</event>
<event>
12    1  0.4967442E-008  0.1439506E+04  0.7818608E-02  0.8925708E-01
         -1   -1    0    0    0  501 -0.00000000000E+00  0.00000000000E+00  0.92595617342E+03  0.92595617342E+03  0.00000000000E+00 0.  1.
          1   -1    0    0  501    0  0.00000000000E+00 -0.00000000000E+00 -0.55946990492E+03  0.55946990492E+03  0.00000000000E+00 0. -1.
         23    2    1    2    0    0 -0.30216119662E+03 -0.62764612710E+02  0.42939635272E+03  0.53698987346E+03  0.93467166019E+02 0.  0.
        254    2    1    2    0    0  0.30216119662E+03  0.62764612710E+02 -0.62910084213E+02  0.94843620487E+03  0.89461319612E+03 0.  0.
         23    2    4    4    0    0  0.58874829744E+03 -0.45672417584E+02  0.70942649775E+02  0.60186751617E+03  0.92201518411E+02 0.  0.
         23    2    4    4    0    0 -0.28658710082E+03  0.10843703029E+03 -0.13385273399E+03  0.34656868870E+03  0.91118306052E+02 0.  0.
         11    1    3    3    0    0 -0.57843400347E+02  0.12618243840E+02  0.41094505376E+02  0.72068282992E+02  0.00000000000E+00 0. -1.
        -11    1    3    3    0    0 -0.24431779627E+03 -0.75382856550E+02  0.38830184734E+03  0.46492159047E+03  0.00000000000E+00 0.  1.
          4    1    5    5  502    0  0.51000850755E+03 -0.69943654183E+02  0.52667462357E+02  0.51746947168E+03  0.00000000000E+00 0. -1.
          3    1    6    6  503    0 -0.12255613115E+03  0.39439731640E+02 -0.10533619483E+03  0.16634666109E+03  0.00000000000E+00 0. -1.
         -4    1    5    5    0  502  0.78739789894E+02  0.24271236599E+02  0.18275187419E+02  0.84398044490E+02  0.00000000000E+00 0.  1.
         -3    1    6    6    0  503 -0.16403096967E+03  0.68997298654E+02 -0.28516539163E+02  0.18022202762E+03  0.00000000000E+00 0.  1.
<mgrwt>
<rscale>  0 0.14395063E+04</rscale>
<asrwt>0</asrwt>
<pdfrwt beam="1">  1        1 0.86072293E-01 0.14395063E+04</pdfrwt>
<pdfrwt beam="2">  1       -1 0.14245480E+00 0.14395063E+04</pdfrwt>
<totfact> 0.14739866E+01</totfact>
</mgrwt>
</event>
<event>
12    1  0.4967442E-008  0.2178133E+04  0.7818608E-02  0.8527585E-01
         -2   -1    0    0    0  501 -0.00000000000E+00  0.00000000000E+00  0.14402922964E+04  0.14402922964E+04  0.00000000000E+00 0.  1.
          2   -1    0    0  501    0  0.00000000000E+00 -0.00000000000E+00 -0.82348950438E+03  0.82348950438E+03  0.00000000000E+00 0. -1.
         23    2    1    2    0    0  0.40896432633E+02  0.47736104676E+03 -0.53745260774E+03  0.72518798861E+03  0.86580748943E+02 0.  0.
        254    2    1    2    0    0 -0.40896432633E+02 -0.47736104676E+03  0.11542553997E+04  0.15385938121E+04  0.89745156069E+03 0.  0.
         23    2    4    4    0    0  0.13893770129E+02  0.20507092759E+03  0.41612828493E+02  0.22907801609E+03  0.92184531059E+02 0.  0.
         23    2    4    4    0    0 -0.54790202763E+02 -0.68243197435E+03  0.11126425712E+04  0.13095157960E+04  0.90237258696E+02 0.  0.
         11    1    3    3    0    0  0.25964335569E+02  0.43663528281E+03 -0.51706218613E+03  0.67725757378E+03  0.00000000000E+00 0. -1.
        -11    1    3    3    0    0  0.14932097064E+02  0.40725763951E+02 -0.20390421608E+02  0.47930414827E+02  0.00000000000E+00 0.  1.
          4    1    5    5  502    0 -0.24019316321E+02  0.18366176650E+02  0.22332410133E+02  0.37589633460E+02  0.00000000000E+00 0. -1.
          1    1    6    6  503    0  0.70972551256E+01 -0.32786714886E+01  0.71424319012E+01  0.10589383859E+02  0.00000000000E+00 0. -1.
         -4    1    5    5    0  502  0.37913086451E+02  0.18670475094E+03  0.19280418360E+02  0.19148838263E+03  0.00000000000E+00 0.  1.
         -1    1    6    6    0  503 -0.61887457888E+02 -0.67915330286E+03  0.11055001393E+04  0.12989264122E+04  0.00000000000E+00 0.  1.
<mgrwt>
<rscale>  0 0.21781328E+04</rscale>
<asrwt>0</asrwt>
<pdfrwt beam="1">  1        2 0.12669069E+00 0.21781328E+04</pdfrwt>
<pdfrwt beam="2">  1       -2 0.22158343E+00 0.21781328E+04</pdfrwt>
<totfact> 0.29292140E+00</totfact>
</mgrwt>
</event>
<event>
12    1  0.5723293E-008  0.1796321E+04  0.7818608E-02  0.8708258E-01
         -1   -1    0    0    0  501 -0.00000000000E+00  0.00000000000E+00  0.91779131883E+03  0.91779131883E+03  0.00000000000E+00 0.  1.
          1   -1    0    0  501    0  0.00000000000E+00 -0.00000000000E+00 -0.87894970115E+03  0.87894970115E+03  0.00000000000E+00 0. -1.
         23    2    1    2    0    0  0.44676317905E+03 -0.22369556662E+03 -0.42996599979E+03  0.66600543351E+03  0.95160032633E+02 0.  0.
        254    2    1    2    0    0 -0.44676317905E+03  0.22369556662E+03  0.46880761746E+03  0.11307355865E+04  0.89952506337E+03 0.  0.
         23    2    4    4    0    0 -0.17859990443E+03 -0.23473076932E+03 -0.12069441027E+03  0.33203408705E+03  0.93182800805E+02 0.  0.
         23    2    4    4    0    0 -0.26816327463E+03  0.45842633593E+03  0.58950202773E+03  0.79870149942E+03  0.91352050540E+02 0.  0.
         13    1    3    3    0    0  0.42075729038E+03 -0.18699527645E+03 -0.36797290912E+03  0.58941326136E+03  0.00000000000E+00 0. -1.
        -13    1    3    3    0    0  0.26005888672E+02 -0.36700290165E+02 -0.61993090668E+02  0.76592172148E+02  0.00000000000E+00 0.  1.
          3    1    5    5  502    0 -0.25297104979E+02 -0.79087085903E+01  0.10429404227E+02  0.28482690610E+02  0.00000000000E+00 0. -1.
          3    1    6    6  503    0 -0.28456424432E+02  0.12441202473E+03  0.14766455219E+03  0.19517412729E+03  0.00000000000E+00 0. -1.
         -3    1    5    5    0  502 -0.15330279945E+03 -0.22682206073E+03 -0.13112381450E+03  0.30355139644E+03  0.00000000000E+00 0.  1.
         -3    1    6    6    0  503 -0.23970685020E+03  0.33401431121E+03  0.44183747554E+03  0.60352737214E+03  0.00000000000E+00 0.  1.
<mgrwt>
<rscale>  0 0.17963211E+04</rscale>
<asrwt>0</asrwt>
<pdfrwt beam="1">  1        1 0.13522303E+00 0.17963211E+04</pdfrwt>
<pdfrwt beam="2">  1       -1 0.14119866E+00 0.17963211E+04</pdfrwt>
<totfact> 0.73286667E+00</totfact>
</mgrwt>
</event>
<event>
12    1  0.4967442E-008  0.1746498E+04  0.7818608E-02  0.8735280E-01
         -1   -1    0    0    0  501 -0.00000000000E+00  0.00000000000E+00  0.10008506826E+04  0.10008506826E+04  0.00000000000E+00 0.  1.
          1   -1    0    0  501    0  0.00000000000E+00 -0.00000000000E+00 -0.76191568521E+03  0.76191568521E+03  0.00000000000E+00 0. -1.
         23    2    1    2    0    0 -0.19879167735E+03 -0.76388136455E+02 -0.52086830122E+03  0.57059452604E+03  0.94451297245E+02 0.  0.
        254    2    1    2    0    0  0.19879167735E+03  0.76388136455E+02  0.75980329862E+03  0.11921718418E+04  0.89365506174E+03 0.  0.
         23    2    4    4    0    0 -0.30151447061E+03 -0.15154469453E+03  0.38496731732E+03  0.52024830817E+03  0.92637445596E+02 0.  0.
         23    2    4    4    0    0  0.50030614796E+03  0.22793283098E+03  0.37483598130E+03  0.67192353362E+03  0.93378825338E+02 0.  0.
         13    1    3    3    0    0 -0.17517579979E+03 -0.97271423918E+02 -0.46716223022E+03  0.50831962394E+03  0.00000000000E+00 0. -1.
        -13    1    3    3    0    0 -0.23615877559E+02  0.20883287463E+02 -0.53706071003E+02  0.62274902093E+02  0.00000000000E+00 0.  1.
          2    1    5    5  502    0 -0.92954601992E+02 -0.48038449474E+02  0.18853192458E+03  0.21562128199E+03  0.00000000000E+00 0. -1.
          4    1    6    6  503    0  0.57341587133E+02  0.37311086147E+02  0.14504138789E+02  0.69932430291E+02  0.00000000000E+00 0. -1.
         -2    1    5    5    0  502 -0.20855986862E+03 -0.10350624506E+03  0.19643539274E+03  0.30462702618E+03  0.00000000000E+00 0.  1.
         -4    1    6    6    0  503  0.44296456083E+03  0.19062174484E+03  0.36033184251E+03  0.60199110332E+03  0.00000000000E+00 0.  1.
<mgrwt>
<rscale>  0 0.17464980E+04</rscale>
<asrwt>0</asrwt>
<pdfrwt beam="1">  1        1 0.11721780E+00 0.17464980E+04</pdfrwt>
<pdfrwt beam="2">  1       -1 0.15397703E+00 0.17464980E+04</pdfrwt>
<totfact> 0.73606103E+00</totfact>
</mgrwt>
</event>
<event>
12    1  0.4967442E-008  0.1691725E+04  0.7818608E-02  0.8766098E-01
         -2   -1    0    0    0  501 -0.00000000000E+00  0.00000000000E+00  0.94353316339E+03  0.94353316339E+03  0.00000000000E+00 0.  1.
          2   -1    0    0  501    0  0.00000000000E+00 -0.00000000000E+00 -0.75830203636E+03  0.75830203636E+03  0.00000000000E+00 0. -1.
         23    2    1    2    0    0 -0.28945308043E+03  0.33506273358E+02  0.59603343022E+03  0.66970226293E+03  0.91320944517E+02 0.  0.
        254    2    1    2    0    0  0.28945308043E+03 -0.33506273358E+02 -0.41080230320E+03  0.10321329368E+04  0.90090738193E+03 0.  0.
         23    2    4    4    0    0  0.56199148757E+03  0.14515236678E+03 -0.36059244481E+03  0.68920240894E+03  0.89829881187E+02 0.  0.
         23    2    4    4    0    0 -0.27253840714E+03 -0.17865864014E+03 -0.50209858386E+02  0.34293052787E+03  0.94256161618E+02 0.  0.
         13    1    3    3    0    0 -0.18976335279E+03 -0.66628458989E+01  0.44965965785E+03  0.48810688530E+03  0.00000000000E+00 0.  1.
        -13    1    3    3    0    0 -0.99689727642E+02  0.40169119257E+02  0.14637377237E+03  0.18159537763E+03  0.00000000000E+00 0. -1.
          1    1    6    6  502    0 -0.13001323161E+03 -0.48750963397E+02 -0.56681647588E+02  0.14997635146E+03  0.00000000000E+00 0. -1.
          1    1    5    5  503    0  0.16386014305E+03  0.38329928687E+02 -0.15401829022E+03  0.22812488605E+03  0.00000000000E+00 0.  1.
         -1    1    5    5    0  503  0.39813134453E+03  0.10682243809E+03 -0.20657415459E+03  0.46107752289E+03  0.00000000000E+00 0. -1.
         -1    1    6    6    0  502 -0.14252517553E+03 -0.12990767674E+03  0.64717892023E+01  0.19295417641E+03  0.00000000000E+00 0.  1.
<mgrwt>
<rscale>  0 0.16917247E+04</rscale>
<asrwt>0</asrwt>
<pdfrwt beam="1">  1        2 0.11666185E+00 0.16917247E+04</pdfrwt>
<pdfrwt beam="2">  1       -2 0.14515895E+00 0.16917247E+04</pdfrwt>
<totfact> 0.11495633E+01</totfact>
</mgrwt>
</event>
<event>
12    1  0.4967442E-008  0.1744971E+04  0.7818608E-02  0.8736123E-01
          2   -1    0    0  501    0  0.00000000000E+00  0.00000000000E+00  0.10827792450E+04  0.10827792450E+04  0.00000000000E+00 0.  1.
         -2   -1    0    0    0  501 -0.00000000000E+00 -0.00000000000E+00 -0.70303429741E+03  0.70303429741E+03  0.00000000000E+00 0. -1.
         23    2    1    2    0    0 -0.15694055057E+03  0.61600847681E+03  0.71901868911E+02  0.64606506857E+03  0.90185443154E+02 0.  0.
        254    2    1    2    0    0  0.15694055057E+03 -0.61600847681E+03  0.30784307866E+03  0.11397484738E+04  0.89451799457E+03 0.  0.
         23    2    4    4    0    0  0.20368039130E+02 -0.59213558680E+03  0.57191683122E+03  0.82854548237E+03  0.91429450070E+02 0.  0.
         23    2    4    4    0    0  0.13657251144E+03 -0.23872890002E+02 -0.26407375256E+03  0.31120299146E+03  0.88827863566E+02 0.  0.
         13    1    3    3    0    0 -0.13192154707E+03  0.38529826792E+03  0.74357622860E+02  0.41398925822E+03  0.00000000000E+00 0. -1.
        -13    1    3    3    0    0 -0.25019003502E+02  0.23071020889E+03 -0.24557539486E+01  0.23207581035E+03  0.00000000000E+00 0.  1.
          4    1    5    5  502    0  0.56349978071E+02 -0.40089902261E+03  0.38044951630E+03  0.55555124049E+03  0.00000000000E+00 0. -1.
          1    1    6    6  503    0  0.41894755583E+02 -0.84146129563E+01 -0.16698985532E+02  0.45878452179E+02  0.00000000000E+00 0. -1.
         -4    1    5    5    0  502 -0.35981938941E+02 -0.19123656420E+03  0.19146731492E+03  0.27299424188E+03  0.00000000000E+00 0.  1.
         -1    1    6    6    0  503  0.94677755858E+02 -0.15458277046E+02 -0.24737476703E+03  0.26532453928E+03  0.00000000000E+00 0.  1.
<mgrwt>
<rscale>  0 0.17449710E+04</rscale>
<asrwt>0</asrwt>
<pdfrwt beam="1">  1        2 0.16658142E+00 0.17449710E+04</pdfrwt>
<pdfrwt beam="2">  1       -2 0.10815912E+00 0.17449710E+04</pdfrwt>
<totfact> 0.14492410E+01</totfact>
</mgrwt>
</event>
<event>
12    1  0.4967442E-008  0.2506512E+04  0.7818608E-02  0.8400669E-01
          1   -1    0    0  501    0  0.00000000000E+00  0.00000000000E+00  0.13550154397E+04  0.13550154397E+04  0.00000000000E+00 0. -1.
         -1   -1    0    0    0  501 -0.00000000000E+00 -0.00000000000E+00 -0.11591384384E+04  0.11591384384E+04  0.00000000000E+00 0.  1.
         23    2    1    2    0    0  0.51679366356E+02 -0.95994910796E+03  0.60120072816E+03  0.11374014157E+04  0.89814353989E+02 0.  0.
        254    2    1    2    0    0 -0.51679366356E+02  0.95994910796E+03 -0.40532372693E+03  0.13767524624E+04  0.89832453617E+03 0.  0.
         23    2    4    4    0    0 -0.11516424206E+03 -0.70999327895E+02  0.12916498510E+03  0.21012417929E+03  0.95733328245E+02 0.  0.
         23    2    4    4    0    0  0.63484875708E+02  0.10309484359E+04 -0.53448871202E+03  0.11666282831E+04  0.91969346970E+02 0.  0.
         13    1    3    3    0    0  0.20310365995E+02 -0.15622785996E+03  0.13667330235E+03  0.20856473041E+03  0.00000000000E+00 0.  1.
        -13    1    3    3    0    0  0.31369000361E+02 -0.80372124801E+03  0.46452742581E+03  0.92883668533E+03  0.00000000000E+00 0. -1.
          4    1    5    5  502    0 -0.34636301133E+02  0.18499372565E+02  0.58705867243E+02  0.70627749435E+02  0.00000000000E+00 0. -1.
          3    1    6    6  503    0  0.30308061270E+02  0.93202964464E+03 -0.48623387183E+03  0.10516754324E+04  0.00000000000E+00 0.  1.
         -4    1    5    5    0  502 -0.80527940931E+02 -0.89498700459E+02  0.70459117853E+02  0.13949642986E+03  0.00000000000E+00 0.  1.
         -3    1    6    6    0  503  0.33176814438E+02  0.98918791217E+02 -0.48254840196E+02  0.11495285066E+03  0.00000000000E+00 0. -1.
<mgrwt>
<rscale>  0 0.25065119E+04</rscale>
<asrwt>0</asrwt>
<pdfrwt beam="1">  1        1 0.20846391E+00 0.25065119E+04</pdfrwt>
<pdfrwt beam="2">  1       -1 0.17832899E+00 0.25065119E+04</pdfrwt>
<totfact> 0.15703475E+00</totfact>
</mgrwt>
</event>
<event>
12    1  0.4967442E-008  0.2325515E+04  0.7818608E-02  0.8467928E-01
          2   -1    0    0  501    0  0.00000000000E+00  0.00000000000E+00  0.11145811674E+04  0.11145811674E+04  0.00000000000E+00 0.  1.
         -2   -1    0    0    0  501 -0.00000000000E+00 -0.00000000000E+00 -0.12130164101E+04  0.12130164101E+04  0.00000000000E+00 0. -1.
         23    2    1    2    0    0  0.53402265753E+03  0.51241652634E+03 -0.70178712760E+03  0.10226909188E+04  0.75104245020E+02 0.  0.
        254    2    1    2    0    0 -0.53402265753E+03 -0.51241652634E+03  0.60335188490E+03  0.13049066587E+04  0.88938011884E+03 0.  0.
         23    2    4    4    0    0 -0.68745616954E+03 -0.63351387655E+03  0.53399564568E+03  0.10806065329E+04  0.92861792754E+02 0.  0.
         23    2    4    4    0    0  0.15343351202E+03  0.12109735021E+03  0.69356239219E+02  0.22430012582E+03  0.85404026161E+02 0.  0.
         11    1    3    3    0    0 -0.70830504599E+00  0.65650806689E+01 -0.16424528602E+01  0.68043832656E+01  0.00000000000E+00 0.  1.
        -11    1    3    3    0    0  0.53473096257E+03  0.50585144567E+03 -0.70014467474E+03  0.10158865355E+04  0.00000000000E+00 0. -1.
          4    1    5    5  502    0 -0.20693474540E+03 -0.18900020375E+03  0.21009190674E+03  0.35025943978E+03  0.00000000000E+00 0.  1.
          3    1    6    6  503    0  0.11119654166E+02 -0.89145274355E+00  0.31037696025E+02  0.32981509536E+02  0.00000000000E+00 0. -1.
         -4    1    5    5    0  502 -0.48052142414E+03 -0.44451367280E+03  0.32390373894E+03  0.73034709314E+03  0.00000000000E+00 0. -1.
         -3    1    6    6    0  503  0.14231385785E+03  0.12198880296E+03  0.38318543194E+02  0.19131861628E+03  0.00000000000E+00 0.  1.
<mgrwt>
<rscale>  0 0.23255152E+04</rscale>
<asrwt>0</asrwt>
<pdfrwt beam="1">  1        2 0.17147403E+00 0.23255152E+04</pdfrwt>
<pdfrwt beam="2">  1       -2 0.18661791E+00 0.23255152E+04</pdfrwt>
<totfact> 0.31537506E+00</totfact>
</mgrwt>
</event>
<event>
12    1  0.4967442E-008  0.1519026E+04  0.7818608E-02  0.8871898E-01
          2   -1    0    0  501    0  0.00000000000E+00  0.00000000000E+00  0.35525608186E+03  0.35525608186E+03  0.00000000000E+00 0. -1.
         -2   -1    0    0    0  501 -0.00000000000E+00 -0.00000000000E+00 -0.16237865844E+04  0.16237865844E+04  0.00000000000E+00 0.  1.
         23    2    1    2    0    0 -0.33328631507E+03 -0.27722149124E+03 -0.82901015776E+03  0.94000821133E+03  0.91793641884E+02 0.  0.
        254    2    1    2    0    0  0.33328631507E+03  0.27722149124E+03 -0.43952034473E+03  0.10390344549E+04  0.83575291922E+03 0.  0.
         23    2    4    4    0    0 -0.24820817524E+03 -0.49171446973E+02 -0.12826290198E+03  0.29737816629E+03  0.89203544243E+02 0.  0.
         23    2    4    4    0    0  0.58149449031E+03  0.32639293821E+03 -0.31125744275E+03  0.74165628859E+03  0.92220726325E+02 0.  0.
         11    1    3    3    0    0 -0.27833506636E+03 -0.21188683361E+03 -0.72851535350E+03  0.80814668205E+03  0.00000000000E+00 0. -1.
        -11    1    3    3    0    0 -0.54951248706E+02 -0.65334657629E+02 -0.10049480426E+03  0.13186152929E+03  0.00000000000E+00 0.  1.
          4    1    5    5  502    0 -0.89756940772E+02  0.25119168582E+02 -0.48196564860E+02  0.10492945207E+03  0.00000000000E+00 0. -1.
          3    1    6    6  503    0  0.16596196138E+03  0.51341008480E+02 -0.99623887905E+02  0.20026030764E+03  0.00000000000E+00 0. -1.
         -4    1    5    5    0  502 -0.15845123447E+03 -0.74290615555E+02 -0.80066337120E+02  0.19244871422E+03  0.00000000000E+00 0.  1.
         -3    1    6    6    0  503  0.41553252893E+03  0.27505192973E+03 -0.21163355484E+03  0.54139598094E+03  0.00000000000E+00 0.  1.
<mgrwt>
<rscale>  0 0.15190261E+04</rscale>
<asrwt>0</asrwt>
<pdfrwt beam="1">  1        2 0.54654783E-01 0.15190261E+04</pdfrwt>
<pdfrwt beam="2">  1       -2 0.24981332E+00 0.15190261E+04</pdfrwt>
<totfact> 0.56524162E+00</totfact>
</mgrwt>
</event>
<event>
12    1  0.4967442E-008  0.1275154E+04  0.7818608E-02  0.9049504E-01
         -1   -1    0    0    0  501 -0.00000000000E+00  0.00000000000E+00  0.10932338935E+04  0.10932338935E+04  0.00000000000E+00 0.  1.
          1   -1    0    0  501    0  0.00000000000E+00 -0.00000000000E+00 -0.37183640264E+03  0.37183640264E+03  0.00000000000E+00 0. -1.
         23    2    1    2    0    0  0.25231250600E+03  0.34164083891E+02  0.37649126489E+03  0.46373691834E+03  0.92073185992E+02 0.  0.
        254    2    1    2    0    0 -0.25231250600E+03 -0.34164083891E+02  0.34490622596E+03  0.10013333778E+04  0.90491957846E+03 0.  0.
         23    2    4    4    0    0 -0.28268809489E+03  0.34204847699E+03  0.40688225051E+03  0.60837787853E+03  0.87525754507E+02 0.  0.
         23    2    4    4    0    0  0.30375588893E+02 -0.37621256088E+03 -0.61976024551E+02  0.39295549927E+03  0.90080127750E+02 0.  0.
         13    1    3    3    0    0  0.11823877777E+03 -0.29807849282E+02  0.15965801739E+03  0.20089698596E+03  0.00000000000E+00 0. -1.
        -13    1    3    3    0    0  0.13407372822E+03  0.63971933173E+02  0.21683324750E+03  0.26283993238E+03  0.00000000000E+00 0.  1.
          2    1    6    6  502    0  0.34178529932E+01 -0.21026049902E+03 -0.77495991424E+02  0.22411333708E+03  0.00000000000E+00 0. -1.
          2    1    5    5  503    0 -0.26510510284E+03  0.30239918084E+03  0.33047643188E+03  0.52051959824E+03  0.00000000000E+00 0. -1.
         -2    1    5    5    0  503 -0.17582992046E+02  0.39649296153E+02  0.76405818637E+02  0.87858280294E+02  0.00000000000E+00 0.  1.
         -2    1    6    6    0  502  0.26957735899E+02 -0.16595206186E+03  0.15519966873E+02  0.16884216219E+03  0.00000000000E+00 0.  1.
<mgrwt>
<rscale>  0 0.12751536E+04</rscale>
<asrwt>0</asrwt>
<pdfrwt beam="1">  1        1 0.57205601E-01 0.12751536E+04</pdfrwt>
<pdfrwt beam="2">  1       -1 0.16818983E+00 0.12751536E+04</pdfrwt>
<totfact> 0.16512479E+01</totfact>
</mgrwt>
</event>
<event>
12    1  0.4967442E-008  0.3076155E+04  0.7818608E-02  0.8222313E-01
          2   -1    0    0  501    0  0.00000000000E+00  0.00000000000E+00  0.53344646776E+03  0.53344646776E+03  0.00000000000E+00 0. -1.
         -2   -1    0    0    0  501 -0.00000000000E+00 -0.00000000000E+00 -0.44347130942E+04  0.44347130942E+04  0.00000000000E+00 0.  1.
         23    2    1    2    0    0  0.32603997837E+03  0.13541852462E+04 -0.20955835389E+04  0.25179858825E+04  0.93074095064E+02 0.  0.
        254    2    1    2    0    0 -0.32603997837E+03 -0.13541852462E+04 -0.18056830875E+04  0.24501736795E+04  0.89595753172E+03 0.  0.
         23    2    4    4    0    0 -0.23522656815E+03 -0.82707805802E+02 -0.36813311478E+02  0.26796514213E+03  0.90983394038E+02 0.  0.
         23    2    4    4    0    0 -0.90813410224E+02 -0.12714774404E+04 -0.17688697761E+04  0.21822085374E+04  0.90729593165E+02 0.  0.
         11    1    3    3    0    0  0.29526296590E+03  0.12319472751E+04 -0.19504557476E+04  0.23257583561E+04  0.00000000000E+00 0. -1.
        -11    1    3    3    0    0  0.30777012467E+02  0.12223797114E+03 -0.14512779136E+03  0.19222752641E+03  0.00000000000E+00 0.  1.
          2    1    5    5  502    0 -0.14232236217E+03 -0.60833319459E+01 -0.38367681094E+02  0.14752877907E+03  0.00000000000E+00 0. -1.
          1    1    6    6  503    0 -0.35595516007E+02 -0.96199841011E+03 -0.12971455934E+04  0.16153311340E+04  0.00000000000E+00 0. -1.
         -2    1    5    5    0  502 -0.92904205981E+02 -0.76624473856E+02  0.15543696158E+01  0.12043636306E+03  0.00000000000E+00 0.  1.
         -1    1    6    6    0  503 -0.55217894218E+02 -0.30947903028E+03 -0.47172418263E+03  0.56687740342E+03  0.00000000000E+00 0.  1.
<mgrwt>
<rscale>  0 0.30761548E+04</rscale>
<asrwt>0</asrwt>
<pdfrwt beam="1">  1        2 0.82068687E-01 0.30761548E+04</pdfrwt>
<pdfrwt beam="2">  1       -2 0.68226356E+00 0.30761548E+04</pdfrwt>
<totfact> 0.12616052E-02</totfact>
</mgrwt>
</event>
<event>
12    1  0.4967442E-008  0.2117974E+04  0.7818608E-02  0.8553367E-01
          2   -1    0    0  501    0  0.00000000000E+00  0.00000000000E+00  0.20661251689E+04  0.20661251689E+04  0.00000000000E+00 0. -1.
         -2   -1    0    0    0  501 -0.00000000000E+00 -0.00000000000E+00 -0.54278095934E+03  0.54278095934E+03  0.00000000000E+00 0.  1.
         23    2    1    2    0    0  0.51809411541E+03  0.29209643886E+03  0.14062664415E+04  0.15295855310E+04  0.91130401190E+02 0.  0.
        254    2    1    2    0    0 -0.51809411541E+03 -0.29209643886E+03  0.11707776803E+03  0.10793205973E+04  0.89301954395E+03 0.  0.
         23    2    4    4    0    0 -0.64796135381E+03  0.84658374836E+02  0.11998532775E+03  0.67061006325E+03  0.91106649561E+02 0.  0.
         23    2    4    4    0    0  0.12986723840E+03 -0.37675481370E+03 -0.29075597195E+01  0.40871053401E+03  0.90698166748E+02 0.  0.
         11    1    3    3    0    0  0.11230466283E+03  0.27611969053E+02  0.22831391123E+03  0.25593358551E+03  0.00000000000E+00 0.  1.
        -11    1    3    3    0    0  0.40578945258E+03  0.26448446981E+03  0.11779525303E+04  0.12736519455E+04  0.00000000000E+00 0. -1.
          4    1    5    5  502    0 -0.48663820367E+03  0.96164078118E+02  0.67766665149E+02  0.50065616155E+03  0.00000000000E+00 0. -1.
          1    1    6    6  503    0  0.46941936649E+02 -0.21187866024E+03  0.36313106469E+02  0.22003352877E+03  0.00000000000E+00 0. -1.
         -4    1    5    5    0  502 -0.16132315014E+03 -0.11505703282E+02  0.52218662603E+02  0.16995390170E+03  0.00000000000E+00 0.  1.
         -1    1    6    6    0  503  0.82925301749E+02 -0.16487615346E+03 -0.39220666188E+02  0.18867700524E+03  0.00000000000E+00 0.  1.
<mgrwt>
<rscale>  0 0.21179739E+04</rscale>
<asrwt>0</asrwt>
<pdfrwt beam="1">  1        2 0.31786541E+00 0.21179739E+04</pdfrwt>
<pdfrwt beam="2">  1       -2 0.83504764E-01 0.21179739E+04</pdfrwt>
<totfact> 0.70847887E+00</totfact>
</mgrwt>
</event>
<event>
12    1  0.4967442E-008  0.2090245E+04  0.7818608E-02  0.8565553E-01
         -2   -1    0    0    0  501 -0.00000000000E+00  0.00000000000E+00  0.63223646852E+03  0.63223646852E+03  0.00000000000E+00 0.  1.
          2   -1    0    0  501    0  0.00000000000E+00 -0.00000000000E+00 -0.17276455905E+04  0.17276455905E+04  0.00000000000E+00 0. -1.
         23    2    1    2    0    0  0.82104988082E+03 -0.67443382788E+02 -0.25231610781E+03  0.86651839479E+03  0.92299477690E+02 0.  0.
        254    2    1    2    0    0 -0.82104988082E+03  0.67443382788E+02 -0.84309301420E+03  0.14933636643E+04  0.91687386617E+03 0.  0.
         23    2    4    4    0    0 -0.94926293251E+02  0.11058628956E+03 -0.73257781404E+03  0.75218174627E+03  0.88694967223E+02 0.  0.
         23    2    4    4    0    0 -0.72612358756E+03 -0.43142906772E+02 -0.11051520015E+03  0.74118191798E+03  0.89555855504E+02 0.  0.
         13    1    3    3    0    0  0.32223931275E+03 -0.41488048862E+01 -0.13974549254E+03  0.35126085741E+03  0.00000000000E+00 0.  1.
        -13    1    3    3    0    0  0.49881056807E+03 -0.63294577902E+02 -0.11257061527E+03  0.51525753738E+03  0.00000000000E+00 0. -1.
          1    1    6    6  502    0 -0.12493239838E+03 -0.10936093758E+02  0.14626896311E+02  0.12626024081E+03  0.00000000000E+00 0. -1.
          1    1    5    5  503    0 -0.10354685767E+03  0.11864730244E+03 -0.65223139745E+03  0.67097312161E+03  0.00000000000E+00 0. -1.
         -1    1    5    5    0  503  0.86205644198E+01 -0.80610128830E+01 -0.80346416597E+02  0.81208624663E+02  0.00000000000E+00 0.  1.
         -1    1    6    6    0  502 -0.60119118918E+03 -0.32206813013E+02 -0.12514209646E+03  0.61492167717E+03  0.00000000000E+00 0.  1.
<mgrwt>
<rscale>  0 0.20902445E+04</rscale>
<asrwt>0</asrwt>
<pdfrwt beam="1">  1        2 0.26579162E+00 0.20902445E+04</pdfrwt>
<pdfrwt beam="2">  1       -2 0.97267151E-01 0.20902445E+04</pdfrwt>
<totfact> 0.76986649E+00</totfact>
</mgrwt>
</event>
<event>
12    1  0.4967442E-008  0.1126227E+04  0.7818608E-02  0.9180000E-01
          1   -1    0    0  501    0  0.00000000000E+00  0.00000000000E+00  0.14836661586E+04  0.14836661586E+04  0.00000000000E+00 0. -1.
         -1   -1    0    0    0  501 -0.00000000000E+00 -0.00000000000E+00 -0.21372506458E+03  0.21372506458E+03  0.00000000000E+00 0.  1.
         23    2    1    2    0    0  0.28161167886E+02 -0.17774650850E+02  0.51687818609E+03  0.52564794554E+03  0.89630986849E+02 0.  0.
        254    2    1    2    0    0 -0.28161167886E+02  0.17774650850E+02  0.75306290796E+03  0.11717432777E+04  0.89708950270E+03 0.  0.
         23    2    4    4    0    0 -0.44997666603E+03 -0.65268003344E+01  0.31447545947E+03  0.55664761879E+03  0.91870331489E+02 0.  0.
         23    2    4    4    0    0  0.42181549814E+03  0.24301451184E+02  0.43858744849E+03  0.61509565889E+03  0.86399332222E+02 0.  0.
         13    1    3    3    0    0  0.33093581134E+02 -0.35490040390E+02  0.49361421028E+03  0.49599366596E+03  0.00000000000E+00 0. -1.
        -13    1    3    3    0    0 -0.49324132476E+01  0.17715389540E+02  0.23263975809E+02  0.29654279580E+02  0.00000000000E+00 0.  1.
          3    1    5    5  502    0 -0.28903358781E+03  0.21760205880E+02  0.15668886908E+03  0.32949252365E+03  0.00000000000E+00 0. -1.
          3    1    6    6  503    0  0.36734740840E+03  0.10218864052E+02  0.41435423967E+03  0.55383930845E+03  0.00000000000E+00 0. -1.
         -3    1    5    5    0  502 -0.16094307821E+03 -0.28287006215E+02  0.15778659039E+03  0.22715509515E+03  0.00000000000E+00 0.  1.
         -3    1    6    6    0  503  0.54468089736E+02  0.14082587132E+02  0.24233208813E+02  0.61256350440E+02  0.00000000000E+00 0.  1.
<mgrwt>
<rscale>  0 0.11262267E+04</rscale>
<asrwt>0</asrwt>
<pdfrwt beam="1">  1        1 0.22825632E+00 0.11262267E+04</pdfrwt>
<pdfrwt beam="2">  1       -1 0.32880780E-01 0.11262267E+04</pdfrwt>
<totfact> 0.57937432E+01</totfact>
</mgrwt>
</event>
<event>
12    1  0.4967442E-008  0.2430042E+04  0.7818608E-02  0.8428341E-01
         -1   -1    0    0    0  501 -0.00000000000E+00  0.00000000000E+00  0.87381067070E+03  0.87381067070E+03  0.00000000000E+00 0.  1.
          1   -1    0    0  501    0  0.00000000000E+00 -0.00000000000E+00 -0.16894692801E+04  0.16894692801E+04  0.00000000000E+00 0. -1.
         23    2    1    2    0    0 -0.93636047059E+03 -0.46407127844E+03 -0.37816978420E+03  0.11152312208E+04  0.92710343350E+02 0.  0.
        254    2    1    2    0    0  0.93636047059E+03  0.46407127844E+03 -0.43748882520E+03  0.14480487300E+04  0.90184010224E+03 0.  0.
         23    2    4    4    0    0  0.38410278292E+03 -0.25434098217E+03 -0.16240165011E+03  0.49667187586E+03  0.89913142830E+02 0.  0.
         23    2    4    4    0    0  0.55225768766E+03  0.71841226061E+03 -0.27508717509E+03  0.95137685416E+03  0.91324886870E+02 0.  0.
         13    1    3    3    0    0 -0.35666003605E+03 -0.16316501286E+03 -0.18816241869E+03  0.43501068785E+03  0.00000000000E+00 0. -1.
        -13    1    3    3    0    0 -0.57970043454E+03 -0.30090626558E+03 -0.19000736551E+03  0.68022053293E+03  0.00000000000E+00 0.  1.
          3    1    6    6  502    0  0.90936982206E+01  0.41070791626E+02 -0.19098148676E+02  0.46197884746E+02  0.00000000000E+00 0. -1.
          3    1    5    5  503    0  0.81528236721E+02 -0.39865099638E+02 -0.69572027219E+02  0.11435185404E+03  0.00000000000E+00 0. -1.
         -3    1    5    5    0  503  0.30257454620E+03 -0.21447588253E+03 -0.92829622895E+02  0.38232002182E+03  0.00000000000E+00 0.  1.
         -3    1    6    6    0  502  0.54316398944E+03  0.67734146898E+03 -0.25598902641E+03  0.90517896942E+03  0.00000000000E+00 0.  1.
<mgrwt>
<rscale>  0 0.24300422E+04</rscale>
<asrwt>0</asrwt>
<pdfrwt beam="1">  1        1 0.25991835E+00 0.24300422E+04</pdfrwt>
<pdfrwt beam="2">  1       -1 0.13443241E+00 0.24300422E+04</pdfrwt>
<totfact> 0.20166329E+00</totfact>
</mgrwt>
</event>
<event>
12    1  0.4967442E-008  0.1741380E+04  0.7818608E-02  0.8738109E-01
          2   -1    0    0  501    0  0.00000000000E+00  0.00000000000E+00  0.19985316198E+04  0.19985316198E+04  0.00000000000E+00 0.  1.
         -2   -1    0    0    0  501 -0.00000000000E+00 -0.00000000000E+00 -0.37932918286E+03  0.37932918286E+03  0.00000000000E+00 0. -1.
         23    2    1    2    0    0  0.38312230232E+03  0.49890117942E+03  0.39218738254E+03  0.74692762918E+03  0.91677995426E+02 0.  0.
        254    2    1    2    0    0 -0.38312230232E+03 -0.49890117942E+03  0.12270150544E+04  0.16309331734E+04  0.87102926889E+03 0.  0.
         23    2    4    4    0    0 -0.21614493954E+03 -0.15732466217E+03 -0.58420776060E+02  0.28747263960E+03  0.88078642264E+02 0.  0.
         23    2    4    4    0    0 -0.16697736278E+03 -0.34157651725E+03  0.12854358304E+04  0.13434605338E+04  0.89358687691E+02 0.  0.
         13    1    3    3    0    0  0.19545996098E+03  0.21860430143E+03  0.22978864999E+03  0.37255235956E+03  0.00000000000E+00 0.  1.
        -13    1    3    3    0    0  0.18766234134E+03  0.28029687800E+03  0.16239873256E+03  0.37437526963E+03  0.00000000000E+00 0. -1.
          3    1    5    5  502    0 -0.17235530054E+03 -0.10888403063E+03 -0.79551901721E+02  0.21883918026E+03  0.00000000000E+00 0. -1.
          3    1    6    6  503    0 -0.66020324972E+02 -0.14000464875E+03  0.37856407425E+03  0.40898746104E+03  0.00000000000E+00 0. -1.
         -3    1    5    5    0  502 -0.43789639002E+02 -0.48440631547E+02  0.21131125661E+02  0.68633459335E+02  0.00000000000E+00 0.  1.
         -3    1    6    6    0  503 -0.10095703781E+03 -0.20157186850E+03  0.90687175617E+03  0.93447307280E+03  0.00000000000E+00 0.  1.
<mgrwt>
<rscale>  0 0.17413803E+04</rscale>
<asrwt>0</asrwt>
<pdfrwt beam="1">  1        2 0.30746640E+00 0.17413803E+04</pdfrwt>
<pdfrwt beam="2">  1       -2 0.58358337E-01 0.17413803E+04</pdfrwt>
<totfact> 0.17435927E+01</totfact>
</mgrwt>
</event>
<event>
12    1  0.4967442E-008  0.1682648E+04  0.7818608E-02  0.8771323E-01
         -1   -1    0    0    0  501 -0.00000000000E+00  0.00000000000E+00  0.23278377034E+03  0.23278377034E+03  0.00000000000E+00 0.  1.
          1   -1    0    0  501    0  0.00000000000E+00 -0.00000000000E+00 -0.30407036249E+04  0.30407036249E+04  0.00000000000E+00 0. -1.
         23    2    1    2    0    0  0.45077519164E+03  0.18814092917E+03 -0.17319440264E+04  0.18017649642E+04  0.90175346748E+02 0.  0.
        254    2    1    2    0    0 -0.45077519164E+03 -0.18814092917E+03 -0.10759758282E+04  0.14717224310E+04  0.87729564487E+03 0.  0.
         23    2    4    4    0    0 -0.59092842833E+03 -0.40128276485E+03 -0.88314902962E+03  0.11395120046E+04  0.91165428831E+02 0.  0.
         23    2    4    4    0    0  0.14015323668E+03  0.21314183568E+03 -0.19282679856E+03  0.33221042639E+03  0.90051214811E+02 0.  0.
         13    1    3    3    0    0  0.44964409250E+03  0.17348168346E+03 -0.16853469001E+04  0.17529032712E+04  0.00000000000E+00 0. -1.
        -13    1    3    3    0    0  0.11310991373E+01  0.14659245706E+02 -0.46597126267E+02  0.48861693035E+02  0.00000000000E+00 0.  1.
          1    1    5    5  502    0 -0.26046650424E+03 -0.13747582742E+03 -0.31443673333E+03  0.43082811215E+03  0.00000000000E+00 0. -1.
          3    1    6    6  503    0  0.44112419172E+02  0.80558720557E+02 -0.12473425555E+03  0.15490076659E+03  0.00000000000E+00 0. -1.
         -1    1    5    5    0  502 -0.33046192409E+03 -0.26380693743E+03 -0.56871229629E+03  0.70868389248E+03  0.00000000000E+00 0.  1.
         -3    1    6    6    0  503  0.96040817512E+02  0.13258311512E+03 -0.68092543009E+02  0.17730965980E+03  0.00000000000E+00 0.  1.
<mgrwt>
<rscale>  0 0.16826485E+04</rscale>
<asrwt>0</asrwt>
<pdfrwt beam="1">  1        1 0.46780054E+00 0.16826485E+04</pdfrwt>
<pdfrwt beam="2">  1       -1 0.35812889E-01 0.16826485E+04</pdfrwt>
<totfact> 0.39778388E+00</totfact>
</mgrwt>
</event>
<event>
12    1  0.4967442E-008  0.1436106E+04  0.7818608E-02  0.8928090E-01
         -1   -1    0    0    0  501 -0.00000000000E+00  0.00000000000E+00  0.71107353857E+03  0.71107353857E+03  0.00000000000E+00 0.  1.
          1   -1    0    0  501    0  0.00000000000E+00 -0.00000000000E+00 -0.72510102605E+03  0.72510102605E+03  0.00000000000E+00 0. -1.
         23    2    1    2    0    0 -0.25099859460E+03  0.25945367400E+03  0.14615488439E+03  0.40029402799E+03  0.92507054711E+02 0.  0.
        254    2    1    2    0    0  0.25099859460E+03 -0.25945367400E+03 -0.16018237187E+03  0.10358805366E+04  0.95763959320E+03 0.  0.
         23    2    4    4    0    0 -0.26262935508E+03 -0.38903083085E+03 -0.12671001599E+02  0.47858242636E+03  0.92527936509E+02 0.  0.
         23    2    4    4    0    0  0.51362794968E+03  0.12957715685E+03 -0.14751137028E+03  0.55729811027E+03  0.90651360033E+02 0.  0.
         13    1    3    3    0    0 -0.15068742394E+03  0.16027524051E+03  0.13651165413E+03  0.25890207448E+03  0.00000000000E+00 0.  1.
        -13    1    3    3    0    0 -0.10031117066E+03  0.99178433493E+02  0.96432302542E+01  0.14139195351E+03  0.00000000000E+00 0. -1.
          4    1    5    5  502    0 -0.12161031764E+03 -0.25484361624E+03 -0.25359579319E+02  0.28350916451E+03  0.00000000000E+00 0.  1.
          3    1    6    6  503    0  0.33996218732E+03  0.41936757172E+02 -0.84313619065E+02  0.35276304621E+03  0.00000000000E+00 0. -1.
         -4    1    5    5    0  502 -0.14101903744E+03 -0.13418721461E+03  0.12688577720E+02  0.19507326185E+03  0.00000000000E+00 0. -1.
         -3    1    6    6    0  503  0.17366576236E+03  0.87640399676E+02 -0.63197751210E+02  0.20453506406E+03  0.00000000000E+00 0.  1.
<mgrwt>
<rscale>  0 0.14361061E+04</rscale>
<asrwt>0</asrwt>
<pdfrwt beam="1">  1        1 0.11155400E+00 0.14361061E+04</pdfrwt>
<pdfrwt beam="2">  1       -1 0.10939593E+00 0.14361061E+04</pdfrwt>
<totfact> 0.19412082E+01</totfact>
</mgrwt>
</event>
<event>
12    1  0.4967442E-008  0.1852938E+04  0.7818608E-02  0.8678643E-01
         -1   -1    0    0    0  501 -0.00000000000E+00  0.00000000000E+00  0.97141119060E+03  0.97141119060E+03  0.00000000000E+00 0.  1.
          1   -1    0    0  501    0  0.00000000000E+00 -0.00000000000E+00 -0.88360599331E+03  0.88360599331E+03  0.00000000000E+00 0. -1.
         23    2    1    2    0    0  0.56037033726E+03  0.31133726951E+03 -0.25671175951E+03  0.69792330200E+03  0.10124326022E+03 0.  0.
        254    2    1    2    0    0 -0.56037033726E+03 -0.31133726951E+03  0.34451695680E+03  0.11570938819E+04  0.89957129109E+03 0.  0.
         23    2    4    4    0    0 -0.17993467866E+03  0.11445526544E+03 -0.24116852811E+03  0.33422038265E+03  0.89802610502E+02 0.  0.
         23    2    4    4    0    0 -0.38043565860E+03 -0.42579253495E+03  0.58568548492E+03  0.82287349926E+03  0.89792735704E+02 0.  0.
         13    1    3    3    0    0  0.22223549175E+02  0.40863782555E+02 -0.22785717505E+02  0.51796947641E+02  0.00000000000E+00 0. -1.
        -13    1    3    3    0    0  0.53814678808E+03  0.27047348695E+03 -0.23392604201E+03  0.64612635436E+03  0.00000000000E+00 0.  1.
          4    1    5    5  502    0 -0.82645201800E+02  0.94307960352E+02 -0.17325787735E+03  0.21387499347E+03  0.00000000000E+00 0. -1.
          1    1    6    6  503    0 -0.24002500987E+03 -0.28182866925E+03  0.31769095864E+03  0.48781856194E+03  0.00000000000E+00 0. -1.
         -4    1    5    5    0  502 -0.97289476859E+02  0.20147305090E+02 -0.67910650761E+02  0.12034538918E+03  0.00000000000E+00 0.  1.
         -1    1    6    6    0  503 -0.14041064873E+03 -0.14396386570E+03  0.26799452628E+03  0.33505493731E+03  0.00000000000E+00 0.  1.
<mgrwt>
<rscale>  0 0.18529379E+04</rscale>
<asrwt>0</asrwt>
<pdfrwt beam="1">  1        1 0.13593938E+00 0.18529379E+04</pdfrwt>
<pdfrwt beam="2">  1       -1 0.14944787E+00 0.18529379E+04</pdfrwt>
<totfact> 0.62145287E+00</totfact>
</mgrwt>
</event>
<event>
12    1  0.4967442E-008  0.2863312E+04  0.7818608E-02  0.8283878E-01
          2   -1    0    0  501    0  0.00000000000E+00  0.00000000000E+00  0.16950451531E+04  0.16950451531E+04  0.00000000000E+00 0. -1.
         -2   -1    0    0    0  501 -0.00000000000E+00 -0.00000000000E+00 -0.12091946121E+04  0.12091946121E+04  0.00000000000E+00 0.  1.
         23    2    1    2    0    0 -0.58758253072E+03 -0.10063465475E+04 -0.34216687930E+03  0.12179799787E+04  0.91708511252E+02 0.  0.
        254    2    1    2    0    0  0.58758253072E+03  0.10063465475E+04  0.82801742027E+03  0.16862597866E+04  0.89435597802E+03 0.  0.
         23    2    4    4    0    0  0.76498083533E+03  0.57089257851E+03  0.38267183874E+03  0.10323126453E+04  0.90097984575E+02 0.  0.
         23    2    4    4    0    0 -0.17739830461E+03  0.43545396902E+03  0.44534558153E+03  0.65394714129E+03  0.90685494974E+02 0.  0.
         11    1    3    3    0    0 -0.11053160169E+03 -0.14572709698E+03 -0.80185133389E+02  0.19970798027E+03  0.00000000000E+00 0. -1.
        -11    1    3    3    0    0 -0.47705092903E+03 -0.86061945055E+03 -0.26198174591E+03  0.10182719984E+04  0.00000000000E+00 0.  1.
          4    1    5    5  502    0  0.74332733417E+03  0.53346522711E+03  0.35769845308E+03  0.98237918219E+03  0.00000000000E+00 0.  1.
          3    1    6    6  503    0 -0.12714412977E+03  0.26758701792E+03  0.22274828083E+03  0.37065514769E+03  0.00000000000E+00 0. -1.
         -4    1    5    5    0  502  0.21653501160E+02  0.37427351399E+02  0.24973385658E+02  0.49933463093E+02  0.00000000000E+00 0. -1.
         -3    1    6    6    0  503 -0.50254174844E+02  0.16786695110E+03  0.22259730070E+03  0.28329199360E+03  0.00000000000E+00 0.  1.
<mgrwt>
<rscale>  0 0.28633124E+04</rscale>
<asrwt>0</asrwt>
<pdfrwt beam="1">  1        2 0.26077618E+00 0.28633124E+04</pdfrwt>
<pdfrwt beam="2">  1       -2 0.18602994E+00 0.28633124E+04</pdfrwt>
<totfact> 0.14087800E+00</totfact>
</mgrwt>
</event>
<event>
12    1  0.4967442E-008  0.1216896E+04  0.7818608E-02  0.9098195E-01
         -1   -1    0    0    0  501 -0.00000000000E+00  0.00000000000E+00  0.25256970817E+03  0.25256970817E+03  0.00000000000E+00 0.  1.
          1   -1    0    0  501    0  0.00000000000E+00 -0.00000000000E+00 -0.14657694703E+04  0.14657694703E+04  0.00000000000E+00 0. -1.
         23    2    1    2    0    0 -0.24240832697E+03  0.15862036920E+03 -0.31943201964E+03  0.44058329145E+03  0.90302840642E+02 0.  0.
        254    2    1    2    0    0  0.24240832697E+03 -0.15862036920E+03 -0.89376774253E+03  0.12777558871E+04  0.86597754638E+03 0.  0.
         23    2    4    4    0    0 -0.13926724238E+02 -0.47779826387E+03 -0.55899542289E+03  0.74128572564E+03  0.92431107505E+02 0.  0.
         23    2    4    4    0    0  0.25633505120E+03  0.31917789466E+03 -0.33477231965E+03  0.53647016142E+03  0.90252651902E+02 0.  0.
         13    1    3    3    0    0 -0.13929404340E+03  0.10274375054E+03 -0.12494894287E+03  0.21347446481E+03  0.00000000000E+00 0.  1.
        -13    1    3    3    0    0 -0.10311428356E+03  0.55876618664E+02 -0.19448307677E+03  0.22710882664E+03  0.00000000000E+00 0. -1.
          4    1    5    5  502    0 -0.29656886666E+02 -0.57887138886E+02 -0.96865343571E+02  0.11667624677E+03  0.00000000000E+00 0. -1.
          3    1    6    6  503    0  0.36533778854E+02  0.98699914568E+02 -0.11173704384E+03  0.15349774298E+03  0.00000000000E+00 0. -1.
         -4    1    5    5    0  502  0.15730162428E+02 -0.41991112498E+03 -0.46213007932E+03  0.62460947888E+03  0.00000000000E+00 0.  1.
         -3    1    6    6    0  503  0.21980127235E+03  0.22047798010E+03 -0.22303527580E+03  0.38297241844E+03  0.00000000000E+00 0.  1.
<mgrwt>
<rscale>  0 0.12168960E+04</rscale>
<asrwt>0</asrwt>
<pdfrwt beam="1">  1        1 0.22550300E+00 0.12168960E+04</pdfrwt>
<pdfrwt beam="2">  1       -1 0.38856878E-01 0.12168960E+04</pdfrwt>
<totfact> 0.43860475E+01</totfact>
</mgrwt>
</event>
<event>
12    1  0.4967442E-008  0.2234914E+04  0.7818608E-02  0.8504035E-01
         -2   -1    0    0    0  501 -0.00000000000E+00  0.00000000000E+00  0.11567842367E+04  0.11567842367E+04  0.00000000000E+00 0.  1.
          2   -1    0    0  501    0  0.00000000000E+00 -0.00000000000E+00 -0.10794671190E+04  0.10794671190E+04  0.00000000000E+00 0. -1.
         23    2    1    2    0    0  0.84138236538E+03 -0.92186694966E+02  0.43513245480E+03  0.95594059025E+03  0.89774647755E+02 0.  0.
        254    2    1    2    0    0 -0.84138236538E+03  0.92186694966E+02 -0.35781533708E+03  0.12803107655E+04  0.89148256816E+03 0.  0.
         23    2    4    4    0    0  0.11211749740E+03  0.16926675103E+03 -0.20959769447E+03  0.30809718193E+03  0.98848944156E+02 0.  0.
         23    2    4    4    0    0 -0.95349986278E+03 -0.77080056064E+02 -0.14821764261E+03  0.97221358358E+03  0.90152421800E+02 0.  0.
         13    1    3    3    0    0  0.56905132640E+03 -0.47046146760E+02  0.24850135768E+03  0.62272439872E+03  0.00000000000E+00 0.  1.
        -13    1    3    3    0    0  0.27233103898E+03 -0.45140548206E+02  0.18663109713E+03  0.33321619153E+03  0.00000000000E+00 0. -1.
          2    1    5    5  502    0  0.32175132772E+02  0.20659137395E+01 -0.66667902563E+02  0.74054820238E+02  0.00000000000E+00 0. -1.
          4    1    6    6  503    0 -0.58146359182E+03 -0.17265328234E+02 -0.12282349894E+03  0.59454487809E+03  0.00000000000E+00 0. -1.
         -2    1    5    5    0  502  0.79942364627E+02  0.16720083729E+03 -0.14292979190E+03  0.23404236169E+03  0.00000000000E+00 0.  1.
         -4    1    6    6    0  503 -0.37203627096E+03 -0.59814727831E+02 -0.25394143669E+02  0.37766870549E+03  0.00000000000E+00 0.  1.
<mgrwt>
<rscale>  0 0.22349144E+04</rscale>
<asrwt>0</asrwt>
<pdfrwt beam="1">  1        2 0.16607187E+00 0.22349144E+04</pdfrwt>
<pdfrwt beam="2">  1       -2 0.17796680E+00 0.22349144E+04</pdfrwt>
<totfact> 0.38297108E+00</totfact>
</mgrwt>
</event>
<event>
12    1  0.4967442E-008  0.1411106E+04  0.7818608E-02  0.8945819E-01
          1   -1    0    0  501    0  0.00000000000E+00  0.00000000000E+00  0.22458711587E+04  0.22458711587E+04  0.00000000000E+00 0. -1.
         -1   -1    0    0    0  501 -0.00000000000E+00 -0.00000000000E+00 -0.22165327989E+03  0.22165327989E+03  0.00000000000E+00 0.  1.
         23    2    1    2    0    0 -0.32560458758E+03 -0.21975054538E+03  0.82304477346E+03  0.91640420110E+03  0.89918357520E+02 0.  0.
        254    2    1    2    0    0  0.32560458758E+03  0.21975054538E+03  0.12011731053E+04  0.15511202375E+04  0.89936005721E+03 0.  0.
         23    2    4    4    0    0  0.35994919933E+03  0.52069447158E+03  0.63087814775E+03  0.89909011273E+03  0.98334300559E+02 0.  0.
         23    2    4    4    0    0 -0.34344611748E+02 -0.30094392620E+03  0.57029495760E+03  0.65203012477E+03  0.90333525669E+02 0.  0.
         11    1    3    3    0    0 -0.45771418130E+02  0.21448939607E+01  0.96963859235E+02  0.10724557467E+03  0.00000000000E+00 0.  1.
        -11    1    3    3    0    0 -0.27983316945E+03 -0.22189543934E+03  0.72608091422E+03  0.80915862643E+03  0.00000000000E+00 0. -1.
          1    1    5    5  502    0  0.69882043915E+02  0.70766944994E+02  0.14701771572E+03  0.17749836422E+03  0.00000000000E+00 0.  1.
          3    1    6    6  503    0 -0.18281418034E+02 -0.26133757445E+03  0.53822462518E+03  0.59859609523E+03  0.00000000000E+00 0. -1.
         -1    1    5    5    0  502  0.29006715542E+03  0.44992752659E+03  0.48386043202E+03  0.72159174850E+03  0.00000000000E+00 0. -1.
         -3    1    6    6    0  503 -0.16063193714E+02 -0.39606351753E+02  0.32070332420E+02  0.53434029541E+02  0.00000000000E+00 0.  1.
<mgrwt>
<rscale>  0 0.14111055E+04</rscale>
<asrwt>0</asrwt>
<pdfrwt beam="1">  1        1 0.34551862E+00 0.14111055E+04</pdfrwt>
<pdfrwt beam="2">  1       -1 0.34100506E-01 0.14111055E+04</pdfrwt>
<totfact> 0.16085669E+01</totfact>
</mgrwt>
</event>
<event>
12    1  0.4967442E-008  0.1415994E+04  0.7818608E-02  0.8942322E-01
          1   -1    0    0  501    0  0.00000000000E+00  0.00000000000E+00  0.18910326998E+04  0.18910326998E+04  0.00000000000E+00 0. -1.
         -1   -1    0    0    0  501 -0.00000000000E+00 -0.00000000000E+00 -0.26507214066E+03  0.26507214066E+03  0.00000000000E+00 0.  1.
         23    2    1    2    0    0 -0.36237839838E+03  0.19891490723E+03  0.32740349905E+03  0.53399738291E+03  0.84112483204E+02 0.  0.
        254    2    1    2    0    0  0.36237839838E+03 -0.19891490723E+03  0.12985570601E+04  0.16221074576E+04  0.87982777951E+03 0.  0.
         23    2    4    4    0    0 -0.12729100414E+03 -0.35366582666E+03  0.27838309635E+03  0.47646752613E+03  0.90783470098E+02 0.  0.
         23    2    4    4    0    0  0.48966940252E+03  0.15475091943E+03  0.10201739638E+04  0.11456399314E+04  0.89509582379E+02 0.  0.
         11    1    3    3    0    0 -0.16322919411E+03  0.10669868586E+03  0.20402162276E+03  0.28222898846E+03  0.00000000000E+00 0. -1.
        -11    1    3    3    0    0 -0.19914920427E+03  0.92216221373E+02  0.12338187629E+03  0.25176839445E+03  0.00000000000E+00 0.  1.
          2    1    5    5  502    0 -0.43025406167E+02 -0.20411558517E+03  0.10921557093E+03  0.23546209593E+03  0.00000000000E+00 0. -1.
          3    1    6    6  503    0  0.35989690738E+03  0.71115587993E+02  0.71159737871E+03  0.80059605307E+03  0.00000000000E+00 0. -1.
         -2    1    5    5    0  502 -0.84265597969E+02 -0.14955024149E+03  0.16916752542E+03  0.24100543021E+03  0.00000000000E+00 0.  1.
         -3    1    6    6    0  503  0.12977249513E+03  0.83635331437E+02  0.30857658504E+03  0.34504387836E+03  0.00000000000E+00 0.  1.
<mgrwt>
<rscale>  0 0.14159945E+04</rscale>
<asrwt>0</asrwt>
<pdfrwt beam="1">  1        1 0.29092810E+00 0.14159945E+04</pdfrwt>
<pdfrwt beam="2">  1       -1 0.40780331E-01 0.14159945E+04</pdfrwt>
<totfact> 0.20238304E+01</totfact>
</mgrwt>
</event>
<event>
12    1  0.4967442E-008  0.2010124E+04  0.7818608E-02  0.8601902E-01
         -1   -1    0    0    0  501 -0.00000000000E+00  0.00000000000E+00  0.33696954243E+03  0.33696954243E+03  0.00000000000E+00 0.  1.
          1   -1    0    0  501    0  0.00000000000E+00 -0.00000000000E+00 -0.29977472676E+04  0.29977472676E+04  0.00000000000E+00 0. -1.
         23    2    1    2    0    0 -0.33171988490E+03 -0.11123293349E+03 -0.22626330611E+04  0.22913029489E+04  0.90277278275E+02 0.  0.
        254    2    1    2    0    0  0.33171988490E+03  0.11123293349E+03 -0.39814466408E+03  0.10434138611E+04  0.89876719151E+03 0.  0.
         23    2    4    4    0    0  0.86139295980E+01  0.10171138189E+03 -0.62372153630E+03  0.63859771952E+03  0.91428045735E+02 0.  0.
         23    2    4    4    0    0  0.32310595530E+03  0.95215515988E+01  0.22557687221E+03  0.40481614161E+03  0.92212065008E+02 0.  0.
         13    1    3    3    0    0 -0.33212629259E+03 -0.10419859235E+03 -0.22505949735E+04  0.22773543764E+04  0.00000000000E+00 0. -1.
        -13    1    3    3    0    0  0.40640769632E+00 -0.70343411418E+01 -0.12038087596E+02  0.13948572525E+02  0.00000000000E+00 0.  1.
          4    1    5    5  502    0  0.45388629866E+02  0.37203152413E+02 -0.35444671467E+03  0.35927242562E+03  0.00000000000E+00 0. -1.
          4    1    6    6  503    0  0.29678141550E+03 -0.17284342628E+02  0.18836549654E+03  0.35193680878E+03  0.00000000000E+00 0. -1.
         -4    1    5    5    0  502 -0.36774700268E+02  0.64508229479E+02 -0.26927482162E+03  0.27932529390E+03  0.00000000000E+00 0.  1.
         -4    1    6    6    0  503  0.26324539800E+02  0.26805894227E+02  0.37211375670E+02  0.52879332828E+02  0.00000000000E+00 0.  1.
<mgrwt>
<rscale>  0 0.20101239E+04</rscale>
<asrwt>0</asrwt>
<pdfrwt beam="1">  1        1 0.46119189E+00 0.20101239E+04</pdfrwt>
<pdfrwt beam="2">  1       -1 0.51841468E-01 0.20101239E+04</pdfrwt>
<totfact> 0.20867460E+00</totfact>
</mgrwt>
</event>
<event>
12    1  0.4967442E-008  0.3319196E+04  0.7818608E-02  0.8158028E-01
         -2   -1    0    0    0  501 -0.00000000000E+00  0.00000000000E+00  0.28029723721E+04  0.28029723721E+04  0.00000000000E+00 0.  1.
          2   -1    0    0  501    0  0.00000000000E+00 -0.00000000000E+00 -0.98262306224E+03  0.98262306224E+03  0.00000000000E+00 0. -1.
         23    2    1    2    0    0 -0.93175526052E+03 -0.82900045418E+03  0.18677580832E+04  0.22475846221E+04  0.87788138672E+02 0.  0.
        254    2    1    2    0    0  0.93175526052E+03  0.82900045418E+03 -0.47408773334E+02  0.15380108123E+04  0.89878809988E+03 0.  0.
         23    2    4    4    0    0  0.29932516773E+03  0.17516398815E+03  0.38414588689E+03  0.52631685229E+03  0.95725585999E+02 0.  0.
         23    2    4    4    0    0  0.63243009279E+03  0.65383646603E+03 -0.43155466022E+03  0.10116939600E+04  0.99072182850E+02 0.  0.
         11    1    3    3    0    0 -0.48231323693E+03 -0.40885506570E+03  0.87252867948E+03  0.10775410989E+04  0.00000000000E+00 0. -1.
        -11    1    3    3    0    0 -0.44944202359E+03 -0.42014538848E+03  0.99522940376E+03  0.11700435232E+04  0.00000000000E+00 0.  1.
          1    1    5    5  502    0  0.32160000932E+02 -0.24013869454E+01  0.71199772528E+02  0.78162906338E+02  0.00000000000E+00 0. -1.
          1    1    6    6  503    0  0.16693153299E+03  0.12218320670E+03 -0.73699348336E+02  0.21960525188E+03  0.00000000000E+00 0. -1.
         -1    1    5    5    0  502  0.26716516680E+03  0.17756537509E+03  0.31294611436E+03  0.44815394595E+03  0.00000000000E+00 0.  1.
         -1    1    6    6    0  503  0.46549855979E+03  0.53165325933E+03 -0.35785531189E+03  0.79208870815E+03  0.00000000000E+00 0.  1.
<mgrwt>
<rscale>  0 0.33191959E+04</rscale>
<asrwt>0</asrwt>
<pdfrwt beam="1">  1        2 0.15117278E+00 0.33191959E+04</pdfrwt>
<pdfrwt beam="2">  1       -2 0.43122651E+00 0.33191959E+04</pdfrwt>
<totfact> 0.99492252E-02</totfact>
</mgrwt>
</event>
<event>
12    1  0.4967442E-008  0.1770362E+04  0.7818608E-02  0.8722221E-01
          1   -1    0    0  501    0  0.00000000000E+00  0.00000000000E+00  0.12003242617E+04  0.12003242617E+04  0.00000000000E+00 0. -1.
         -1   -1    0    0    0  501 -0.00000000000E+00 -0.00000000000E+00 -0.65277788176E+03  0.65277788176E+03  0.00000000000E+00 0.  1.
         23    2    1    2    0    0 -0.58984745422E+03 -0.22433113007E+03  0.94992318275E+01  0.63739028834E+03  0.89059918553E+02 0.  0.
        254    2    1    2    0    0  0.58984745422E+03  0.22433113007E+03  0.53804714809E+03  0.12157118551E+04  0.88894100250E+03 0.  0.
         23    2    4    4    0    0  0.71306431894E+03  0.33933093659E+03  0.18775620533E+03  0.81641126400E+03  0.87571410100E+02 0.  0.
         23    2    4    4    0    0 -0.12321686472E+03 -0.11499980652E+03  0.35029094276E+03  0.39930059112E+03  0.91268100847E+02 0.  0.
         11    1    3    3    0    0 -0.33279879819E+02  0.16627986879E+01  0.15290525297E+02  0.36662180296E+02  0.00000000000E+00 0. -1.
        -11    1    3    3    0    0 -0.55656757440E+03 -0.22599392875E+03 -0.57912934690E+01  0.60072810804E+03  0.00000000000E+00 0.  1.
          1    1    5    5  502    0  0.69625591697E+03  0.32737680204E+03  0.19639062515E+03  0.79405110041E+03  0.00000000000E+00 0.  1.
          3    1    6    6  503    0  0.14092486436E+02 -0.38370897649E+01  0.34226549915E+02  0.37212607419E+02  0.00000000000E+00 0. -1.
         -1    1    5    5    0  502  0.16808401975E+02  0.11954134552E+02 -0.86344198182E+01  0.22360163583E+02  0.00000000000E+00 0. -1.
         -3    1    6    6    0  503 -0.13730935116E+03 -0.11116271676E+03  0.31606439285E+03  0.36208798370E+03  0.00000000000E+00 0.  1.
<mgrwt>
<rscale>  0 0.17703617E+04</rscale>
<asrwt>0</asrwt>
<pdfrwt beam="1">  1        1 0.18466527E+00 0.17703617E+04</pdfrwt>
<pdfrwt beam="2">  1       -1 0.10042737E+00 0.17703617E+04</pdfrwt>
<totfact> 0.95366113E+00</totfact>
</mgrwt>
</event>
<event>
12    1  0.4967442E-008  0.1509871E+04  0.7818608E-02  0.8877915E-01
          2   -1    0    0  501    0  0.00000000000E+00  0.00000000000E+00  0.18057998190E+04  0.18057998190E+04  0.00000000000E+00 0. -1.
         -2   -1    0    0    0  501 -0.00000000000E+00 -0.00000000000E+00 -0.31560959922E+03  0.31560959922E+03  0.00000000000E+00 0.  1.
         23    2    1    2    0    0 -0.24592700994E+03  0.37542134541E+03  0.24579286723E+03  0.52002273395E+03  0.92672700620E+02 0.  0.
        254    2    1    2    0    0  0.24592700994E+03 -0.37542134541E+03  0.12443973526E+04  0.16013866843E+04  0.90249280371E+03 0.  0.
         23    2    4    4    0    0  0.39187148729E+03 -0.11311618603E+03  0.12224095199E+03  0.43604712214E+03  0.93998448337E+02 0.  0.
         23    2    4    4    0    0 -0.14594447735E+03 -0.26230515938E+03  0.11221564006E+04  0.11653395621E+04  0.93153210747E+02 0.  0.
         11    1    3    3    0    0 -0.17741311643E+01 -0.52808598688E+01  0.57329909136E+01  0.79938856108E+01  0.00000000000E+00 0. -1.
        -11    1    3    3    0    0 -0.24415287877E+03  0.38070220527E+03  0.24005987632E+03  0.51202884834E+03  0.00000000000E+00 0.  1.
          2    1    5    5  502    0  0.19855779717E+03 -0.46036595781E+02  0.10865037035E+03  0.23097504183E+03  0.00000000000E+00 0.  1.
          1    1    6    6  503    0  0.94644357107E+00 -0.56824181578E+02  0.29704129341E+03  0.30242918735E+03  0.00000000000E+00 0. -1.
         -2    1    5    5    0  502  0.19331369012E+03 -0.67079590244E+02  0.13590581640E+02  0.20507208031E+03  0.00000000000E+00 0. -1.
         -1    1    6    6    0  503 -0.14689092092E+03 -0.20548097780E+03  0.82511510714E+03  0.86291037479E+03  0.00000000000E+00 0.  1.
<mgrwt>
<rscale>  0 0.15098712E+04</rscale>
<asrwt>0</asrwt>
<pdfrwt beam="1">  1        2 0.27781535E+00 0.15098712E+04</pdfrwt>
<pdfrwt beam="2">  1       -2 0.48555324E-01 0.15098712E+04</pdfrwt>
<totfact> 0.33218914E+01</totfact>
</mgrwt>
</event>
<event>
12    1  0.4967442E-008  0.1834264E+04  0.7818608E-02  0.8688288E-01
          1   -1    0    0  501    0  0.00000000000E+00  0.00000000000E+00  0.19319719491E+04  0.19319719491E+04  0.00000000000E+00 0.  1.
         -1   -1    0    0    0  501 -0.00000000000E+00 -0.00000000000E+00 -0.43537424263E+03  0.43537424263E+03  0.00000000000E+00 0. -1.
         23    2    1    2    0    0  0.33762216678E+03 -0.34494701482E+03  0.12214010845E+04  0.13165924058E+04  0.92832015884E+02 0.  0.
        254    2    1    2    0    0 -0.33762216678E+03  0.34494701482E+03  0.27519662198E+03  0.10507537860E+04  0.89183696236E+03 0.  0.
         23    2    4    4    0    0 -0.60129549245E+03  0.94381707558E+02  0.27887425150E+03  0.67572448084E+03  0.91479778611E+02 0.  0.
         23    2    4    4    0    0  0.26367332566E+03  0.25056530727E+03 -0.36776295225E+01  0.37502930513E+03  0.91251623963E+02 0.  0.
         13    1    3    3    0    0  0.51198870525E+01 -0.28353901049E+02  0.11836859246E+03  0.12182479480E+03  0.00000000000E+00 0. -1.
        -13    1    3    3    0    0  0.33250227973E+03 -0.31659311378E+03  0.11030324920E+04  0.11947676110E+04  0.00000000000E+00 0.  1.
          3    1    6    6  502    0  0.16750717469E+03  0.16111613367E+03 -0.46236324463E+02  0.23697016648E+03  0.00000000000E+00 0. -1.
          3    1    5    5  503    0 -0.48880581856E+03  0.61093950387E+02  0.25964463769E+03  0.55684731921E+03  0.00000000000E+00 0. -1.
         -3    1    5    5    0  503 -0.11248967389E+03  0.33287757172E+02  0.19229613807E+02  0.11887716162E+03  0.00000000000E+00 0.  1.
         -3    1    6    6    0  502  0.96166150968E+02  0.89449173592E+02  0.42558694940E+02  0.13805913864E+03  0.00000000000E+00 0.  1.
<mgrwt>
<rscale>  0 0.18342637E+04</rscale>
<asrwt>0</asrwt>
<pdfrwt beam="1">  1        1 0.29722645E+00 0.18342637E+04</pdfrwt>
<pdfrwt beam="2">  1       -1 0.66980654E-01 0.18342637E+04</pdfrwt>
<totfact> 0.70411152E+00</totfact>
</mgrwt>
</event>
<event>
12    1  0.4967442E-008  0.1558472E+04  0.7818608E-02  0.8846474E-01
          1   -1    0    0  501    0  0.00000000000E+00  0.00000000000E+00  0.56962127874E+03  0.56962127874E+03  0.00000000000E+00 0. -1.
         -1   -1    0    0    0  501 -0.00000000000E+00 -0.00000000000E+00 -0.10659869720E+04  0.10659869720E+04  0.00000000000E+00 0.  1.
         23    2    1    2    0    0 -0.37968099457E+03 -0.22699025327E+03  0.11537287128E+03  0.46629523070E+03  0.91859185890E+02 0.  0.
        254    2    1    2    0    0  0.37968099457E+03  0.22699025327E+03 -0.61173856456E+03  0.11693130200E+04  0.89296508038E+03 0.  0.
         23    2    4    4    0    0  0.24599600537E+03  0.56339337496E+03 -0.42870620958E+03  0.75498461347E+03  0.91030889487E+02 0.  0.
         23    2    4    4    0    0  0.13368498919E+03 -0.33640312169E+03 -0.18303235498E+03  0.41432840658E+03  0.84430142168E+02 0.  0.
         13    1    3    3    0    0 -0.29807133785E+03 -0.21685437058E+03  0.82477046804E+02  0.37772318400E+03  0.00000000000E+00 0. -1.
        -13    1    3    3    0    0 -0.81609656720E+02 -0.10135882690E+02  0.32895824479E+02  0.88572046697E+02  0.00000000000E+00 0.  1.
          2    1    5    5  502    0  0.10499722154E+03  0.22507431477E+03 -0.22779432769E+03  0.33700611185E+03  0.00000000000E+00 0.  1.
          4    1    6    6  503    0  0.11852722612E+03 -0.24969580119E+03 -0.17217452140E+03  0.32563900608E+03  0.00000000000E+00 0. -1.
         -2    1    5    5    0  502  0.14099878384E+03  0.33831906019E+03 -0.20091188189E+03  0.41797850162E+03  0.00000000000E+00 0. -1.
         -4    1    6    6    0  503  0.15157763075E+02 -0.86707320499E+02 -0.10857833582E+02  0.88689400492E+02  0.00000000000E+00 0.  1.
<mgrwt>
<rscale>  0 0.15584722E+04</rscale>
<asrwt>0</asrwt>
<pdfrwt beam="1">  1        1 0.87634043E-01 0.15584722E+04</pdfrwt>
<pdfrwt beam="2">  1       -1 0.16399800E+00 0.15584722E+04</pdfrwt>
<totfact> 0.96874034E+00</totfact>
</mgrwt>
</event>
<event>
12    1  0.4967442E-008  0.1697997E+04  0.7818608E-02  0.8762508E-01
         -1   -1    0    0    0  501 -0.00000000000E+00  0.00000000000E+00  0.87621440230E+03  0.87621440230E+03  0.00000000000E+00 0.  1.
          1   -1    0    0  501    0  0.00000000000E+00 -0.00000000000E+00 -0.82262764486E+03  0.82262764486E+03  0.00000000000E+00 0. -1.
         23    2    1    2    0    0  0.36134177437E+03  0.36525715261E+03  0.34300801403E+03  0.62220746281E+03  0.74208918896E+02 0.  0.
        254    2    1    2    0    0 -0.36134177437E+03 -0.36525715261E+03 -0.28942125659E+03  0.10766345844E+04  0.90077560970E+03 0.  0.
         23    2    4    4    0    0  0.21638591407E+03 -0.37461535633E+03 -0.51127188353E+02  0.44493870268E+03  0.90536902701E+02 0.  0.
         23    2    4    4    0    0 -0.57772768845E+03  0.93582037124E+01 -0.23829406823E+03  0.63169588168E+03  0.91644781642E+02 0.  0.
         13    1    3    3    0    0  0.13411722288E+03  0.10769306594E+03  0.15001737143E+03  0.22823329655E+03  0.00000000000E+00 0. -1.
        -13    1    3    3    0    0  0.22722455150E+03  0.25756408668E+03  0.19299064260E+03  0.39397416626E+03  0.00000000000E+00 0.  1.
          2    1    5    5  502    0  0.86591842938E+02 -0.23738305822E+03 -0.19669464593E+02  0.25344772919E+03  0.00000000000E+00 0. -1.
          4    1    6    6  503    0 -0.43094579665E+03  0.39086341653E+02 -0.15074231363E+03  0.45821967098E+03  0.00000000000E+00 0. -1.
         -2    1    5    5    0  502  0.12979407113E+03 -0.13723229810E+03 -0.31457723760E+02  0.19149097349E+03  0.00000000000E+00 0.  1.
         -4    1    6    6    0  503 -0.14678189180E+03 -0.29728137940E+02 -0.87551754608E+02  0.17347621070E+03  0.00000000000E+00 0.  1.
<mgrwt>
<rscale>  0 0.16979967E+04</rscale>
<asrwt>0</asrwt>
<pdfrwt beam="1">  1        1 0.12655810E+00 0.16979967E+04</pdfrwt>
<pdfrwt beam="2">  1       -1 0.13480221E+00 0.16979967E+04</pdfrwt>
<totfact> 0.93018850E+00</totfact>
</mgrwt>
</event>
<event>
12    1  0.4967442E-008  0.2221452E+04  0.7818608E-02  0.8509552E-01
         -2   -1    0    0    0  501 -0.00000000000E+00  0.00000000000E+00  0.14760037523E+04  0.14760037523E+04  0.00000000000E+00 0.  1.
          2   -1    0    0  501    0  0.00000000000E+00 -0.00000000000E+00 -0.83584661959E+03  0.83584661959E+03  0.00000000000E+00 0. -1.
         23    2    1    2    0    0  0.20296718379E+03 -0.72646843927E+03 -0.29267333300E+03  0.81308241389E+03  0.80580772931E+02 0.  0.
        254    2    1    2    0    0 -0.20296718379E+03  0.72646843927E+03  0.93283046573E+03  0.14987679580E+04  0.89843232536E+03 0.  0.
         23    2    4    4    0    0 -0.47649991559E+03  0.44150479812E+03  0.86881299400E+03  0.10884799633E+04  0.89297007636E+02 0.  0.
         23    2    4    4    0    0  0.27353273180E+03  0.28496364115E+03  0.64017471731E+02  0.41028799475E+03  0.90628747145E+02 0.  0.
         13    1    3    3    0    0  0.88241341078E+02 -0.25929800040E+03 -0.68360512098E+02  0.28230328886E+03  0.00000000000E+00 0.  1.
        -13    1    3    3    0    0  0.11472584272E+03 -0.46717043887E+03 -0.22431282090E+03  0.53077912502E+03  0.00000000000E+00 0. -1.
          4    1    5    5  502    0 -0.15963936861E+03  0.12351697108E+03  0.21009404527E+03  0.29134288735E+03  0.00000000000E+00 0. -1.
          3    1    6    6  503    0  0.15712296249E+03  0.16386779885E+03  0.81941040007E+02  0.24135992807E+03  0.00000000000E+00 0. -1.
         -4    1    5    5    0  502 -0.31686054699E+03  0.31798782705E+03  0.65871894874E+03  0.79713707592E+03  0.00000000000E+00 0.  1.
         -3    1    6    6    0  503  0.11640976930E+03  0.12109584230E+03 -0.17923568276E+02  0.16892806668E+03  0.00000000000E+00 0.  1.
<mgrwt>
<rscale>  0 0.22214524E+04</rscale>
<asrwt>0</asrwt>
<pdfrwt beam="1">  1        2 0.12859179E+00 0.22214524E+04</pdfrwt>
<pdfrwt beam="2">  1       -2 0.22707750E+00 0.22214524E+04</pdfrwt>
<totfact> 0.26415880E+00</totfact>
</mgrwt>
</event>
<event>
12    1  0.4967442E-008  0.1446014E+04  0.7818608E-02  0.8921168E-01
         -4   -1    0    0    0  501 -0.00000000000E+00  0.00000000000E+00  0.48774032028E+03  0.48774032028E+03  0.00000000000E+00 0. -1.
          4   -1    0    0  501    0  0.00000000000E+00 -0.00000000000E+00 -0.10717571916E+04  0.10717571916E+04  0.00000000000E+00 0.  1.
         23    2    1    2    0    0  0.30182312127E+03 -0.15425233301E+03 -0.47665095739E+03  0.59229923168E+03  0.93441243006E+02 0.  0.
        254    2    1    2    0    0 -0.30182312127E+03  0.15425233301E+03 -0.10736591394E+03  0.96719828021E+03  0.89947434371E+03 0.  0.
         23    2    4    4    0    0 -0.57916628561E+03 -0.14546568560E+02  0.62704403946E+02  0.58966680252E+03  0.90165995084E+02 0.  0.
         23    2    4    4    0    0  0.27734316434E+03  0.16879890157E+03 -0.17007031788E+03  0.37753147769E+03  0.90519631262E+02 0.  0.
         13    1    3    3    0    0  0.15020650458E+03 -0.97088605991E+02 -0.32183998264E+03  0.36819718339E+03  0.00000000000E+00 0.  1.
        -13    1    3    3    0    0  0.15161661670E+03 -0.57163727024E+02 -0.15481097475E+03  0.22410204829E+03  0.00000000000E+00 0. -1.
          2    1    5    5  502    0 -0.91039694022E+02 -0.35548003366E+02  0.90798688696E+01  0.98154625207E+02  0.00000000000E+00 0. -1.
          1    1    6    6  503    0  0.37733552687E+02  0.50113725806E+02 -0.42038071300E+01  0.62871921451E+02  0.00000000000E+00 0. -1.
         -2    1    5    5    0  502 -0.48812659159E+03  0.21001434805E+02  0.53624535076E+02  0.49151217731E+03  0.00000000000E+00 0.  1.
         -1    1    6    6    0  503  0.23960961165E+03  0.11868517577E+03 -0.16586651075E+03  0.31465955624E+03  0.00000000000E+00 0.  1.
<mgrwt>
<rscale>  0 0.14460141E+04</rscale>
<asrwt>0</asrwt>
<pdfrwt beam="1">  1        4 0.16488572E+00 0.14460141E+04</pdfrwt>
<pdfrwt beam="2">  1       -4 0.75036973E-01 0.14460141E+04</pdfrwt>
<totfact> 0.71603665E-01</totfact>
</mgrwt>
</event>
<event>
12    1  0.4967442E-008  0.1361619E+04  0.7818608E-02  0.8982079E-01
          1   -1    0    0  501    0  0.00000000000E+00  0.00000000000E+00  0.13041423977E+04  0.13041423977E+04  0.00000000000E+00 0. -1.
         -1   -1    0    0    0  501 -0.00000000000E+00 -0.00000000000E+00 -0.35540696887E+03  0.35540696887E+03  0.00000000000E+00 0.  1.
         23    2    1    2    0    0  0.18012359869E+03 -0.11702640661E+03 -0.13480032342E+03  0.26921074566E+03  0.90352685278E+02 0.  0.
        254    2    1    2    0    0 -0.18012359869E+03  0.11702640661E+03  0.10835357523E+04  0.13903386210E+04  0.84430566963E+03 0.  0.
         23    2    4    4    0    0  0.59688669603E+02  0.43924448987E+03  0.64953729232E+03  0.79167496556E+03  0.91389812458E+02 0.  0.
         23    2    4    4    0    0 -0.23981226829E+03 -0.32221808326E+03  0.43399845997E+03  0.59866365539E+03  0.93322515102E+02 0.  0.
         11    1    3    3    0    0  0.33565977838E+02 -0.49629668839E+02 -0.77642263406E+02  0.98071912208E+02  0.00000000000E+00 0. -1.
        -11    1    3    3    0    0  0.14655762085E+03 -0.67396737772E+02 -0.57158060016E+02  0.17113883345E+03  0.00000000000E+00 0.  1.
          2    1    5    5  502    0  0.69796941859E+02  0.26582318992E+03  0.44820702597E+03  0.52575956437E+03  0.00000000000E+00 0. -1.
          1    1    6    6  503    0 -0.22573345837E+03 -0.29305158404E+03  0.42804188638E+03  0.56573375508E+03  0.00000000000E+00 0. -1.
         -2    1    5    5    0  502 -0.10108272256E+02  0.17342129995E+03  0.20133026635E+03  0.26591540120E+03  0.00000000000E+00 0.  1.
         -1    1    6    6    0  503 -0.14078809922E+02 -0.29166499224E+02  0.59565735875E+01  0.32929900314E+02  0.00000000000E+00 0.  1.
<mgrwt>
<rscale>  0 0.13616186E+04</rscale>
<asrwt>0</asrwt>
<pdfrwt beam="1">  1        1 0.20063729E+00 0.13616186E+04</pdfrwt>
<pdfrwt beam="2">  1       -1 0.54677996E-01 0.13616186E+04</pdfrwt>
<totfact> 0.29688224E+01</totfact>
</mgrwt>
</event>
<event>
12    1  0.4967442E-008  0.1320453E+04  0.7818608E-02  0.9013501E-01
         -2   -1    0    0    0  501 -0.00000000000E+00  0.00000000000E+00  0.66894293869E+03  0.66894293869E+03  0.00000000000E+00 0.  1.
          2   -1    0    0  501    0  0.00000000000E+00 -0.00000000000E+00 -0.65162343402E+03  0.65162343402E+03  0.00000000000E+00 0. -1.
         23    2    1    2    0    0  0.19640338582E+03  0.18806115020E+03  0.21644460170E+03  0.35924866072E+03  0.90939806732E+02 0.  0.
        254    2    1    2    0    0 -0.19640338582E+03 -0.18806115020E+03 -0.19912509702E+03  0.96131771199E+03  0.90029975727E+03 0.  0.
         23    2    4    4    0    0 -0.39700387953E+03 -0.40923756406E+03 -0.27378639814E+03  0.63956664592E+03  0.94863262506E+02 0.  0.
         23    2    4    4    0    0  0.20060049371E+03  0.22117641385E+03  0.74661301118E+02  0.32175106607E+03  0.93754330623E+02 0.  0.
         13    1    3    3    0    0  0.11559912480E+03  0.73253004902E+02  0.61133245671E+02  0.14988807194E+03  0.00000000000E+00 0.  1.
        -13    1    3    3    0    0  0.80804261021E+02  0.11480814530E+03  0.15531135602E+03  0.20936058879E+03  0.00000000000E+00 0. -1.
          4    1    5    5  502    0 -0.21959703574E+03 -0.29175793259E+03 -0.17737504775E+03  0.40596484688E+03  0.00000000000E+00 0. -1.
          3    1    6    6  503    0  0.74732371757E+02  0.15118416962E+03  0.33213937131E+02  0.17188585210E+03  0.00000000000E+00 0. -1.
         -4    1    5    5    0  502 -0.17740684379E+03 -0.11747963147E+03 -0.96411350382E+02  0.23360179904E+03  0.00000000000E+00 0.  1.
         -3    1    6    6    0  503  0.12586812195E+03  0.69992244230E+02  0.41447363988E+02  0.14986521397E+03  0.00000000000E+00 0.  1.
<mgrwt>
<rscale>  0 0.13204528E+04</rscale>
<asrwt>0</asrwt>
<pdfrwt beam="1">  1        2 0.10024976E+00 0.13204528E+04</pdfrwt>
<pdfrwt beam="2">  1       -2 0.10291430E+00 0.13204528E+04</pdfrwt>
<totfact> 0.33846184E+01</totfact>
</mgrwt>
</event>
<event>
12    1  0.4967442E-008  0.1770549E+04  0.7818608E-02  0.8722120E-01
          2   -1    0    0  501    0  0.00000000000E+00  0.00000000000E+00  0.27236290321E+04  0.27236290321E+04  0.00000000000E+00 0. -1.
         -2   -1    0    0    0  501 -0.00000000000E+00 -0.00000000000E+00 -0.28774522833E+03  0.28774522833E+03  0.00000000000E+00 0.  1.
         23    2    1    2    0    0 -0.31428730291E+03  0.59661677407E+02  0.18552760747E+04  0.18851637709E+04  0.97247647546E+02 0.  0.
        254    2    1    2    0    0  0.31428730291E+03 -0.59661677407E+02  0.58060772908E+03  0.11262104896E+04  0.91044423624E+03 0.  0.
         23    2    4    4    0    0  0.58005453609E+03 -0.22843450098E+03  0.31680711262E+03  0.70541215557E+03  0.92703702978E+02 0.  0.
         23    2    4    4    0    0 -0.26576723318E+03  0.16877282358E+03  0.26380061646E+03  0.42079833403E+03  0.91454822024E+02 0.  0.
         13    1    3    3    0    0 -0.44146413239E+02  0.39173515458E+02  0.22939213758E+03  0.23686330002E+03  0.00000000000E+00 0.  1.
        -13    1    3    3    0    0 -0.27014088968E+03  0.20488161948E+02  0.16258839372E+04  0.16483004708E+04  0.00000000000E+00 0. -1.
          1    1    5    5  502    0  0.45032319343E+01 -0.43970408311E+01 -0.58484737499E+01  0.85917234084E+01  0.00000000000E+00 0. -1.
          3    1    6    6  503    0 -0.43523294483E+02  0.23172842630E+02  0.92061452766E+02  0.10443451960E+03  0.00000000000E+00 0. -1.
         -1    1    5    5    0  502  0.57555130416E+03 -0.22403746015E+03  0.32265558637E+03  0.69682043216E+03  0.00000000000E+00 0.  1.
         -3    1    6    6    0  503 -0.22224393869E+03  0.14559998095E+03  0.17173916370E+03  0.31636381444E+03  0.00000000000E+00 0.  1.
<mgrwt>
<rscale>  0 0.17705494E+04</rscale>
<asrwt>0</asrwt>
<pdfrwt beam="1">  1        2 0.41901983E+00 0.17705494E+04</pdfrwt>
<pdfrwt beam="2">  1       -2 0.44268499E-01 0.17705494E+04</pdfrwt>
<totfact> 0.11799470E+01</totfact>
</mgrwt>
</event>
<event>
12    1  0.4967442E-008  0.1884978E+04  0.7818608E-02  0.8662370E-01
         -2   -1    0    0    0  501 -0.00000000000E+00  0.00000000000E+00  0.12123976179E+04  0.12123976179E+04  0.00000000000E+00 0.  1.
          2   -1    0    0  501    0  0.00000000000E+00 -0.00000000000E+00 -0.73266815940E+03  0.73266815940E+03  0.00000000000E+00 0. -1.
         23    2    1    2    0    0  0.32951817264E+03  0.53416602410E+03 -0.19383588572E+03  0.66365672437E+03  0.94616752193E+02 0.  0.
        254    2    1    2    0    0 -0.32951817264E+03 -0.53416602410E+03  0.67356534419E+03  0.12814090529E+04  0.89129306099E+03 0.  0.
         23    2    4    4    0    0  0.41728379473E+02  0.58172772300E+02 -0.15438628192E+03  0.19336356069E+03  0.91809658898E+02 0.  0.
         23    2    4    4    0    0 -0.37124655211E+03 -0.59233879640E+03  0.82795162611E+03  0.10880454922E+04  0.98233628473E+02 0.  0.
         13    1    3    3    0    0  0.37510064626E+01  0.19568437571E+01  0.69638016477E+01  0.81482403229E+01  0.00000000000E+00 0.  1.
        -13    1    3    3    0    0  0.32576716618E+03  0.53220918035E+03 -0.20079968737E+03  0.65550848404E+03  0.00000000000E+00 0. -1.
          4    1    5    5  502    0  0.17750768327E+02 -0.13625344090E+02 -0.93727068843E+02  0.96361315951E+02  0.00000000000E+00 0.  1.
          3    1    6    6  503    0 -0.28669170927E+03 -0.48936708276E+03  0.61283643028E+03  0.83500944195E+03  0.00000000000E+00 0. -1.
         -4    1    5    5    0  502  0.23977611146E+02  0.71798116390E+02 -0.60659213080E+02  0.97002244742E+02  0.00000000000E+00 0. -1.
         -3    1    6    6    0  503 -0.84554842850E+02 -0.10297171364E+03  0.21511519583E+03  0.25303605027E+03  0.00000000000E+00 0.  1.
<mgrwt>
<rscale>  0 0.18849776E+04</rscale>
<asrwt>0</asrwt>
<pdfrwt beam="1">  1        2 0.11271818E+00 0.18849776E+04</pdfrwt>
<pdfrwt beam="2">  1       -2 0.18652271E+00 0.18849776E+04</pdfrwt>
<totfact> 0.59258057E+00</totfact>
</mgrwt>
</event>
<event>
12    1  0.4967442E-008  0.1480019E+04  0.7818608E-02  0.8897850E-01
          2   -1    0    0  501    0  0.00000000000E+00  0.00000000000E+00  0.84517314976E+03  0.84517314976E+03  0.00000000000E+00 0. -1.
         -2   -1    0    0    0  501 -0.00000000000E+00 -0.00000000000E+00 -0.64793095155E+03  0.64793095155E+03  0.00000000000E+00 0.  1.
         23    2    1    2    0    0 -0.49940105947E+02  0.45845184096E+02 -0.39819959766E+03  0.41346024198E+03  0.88264698691E+02 0.  0.
        254    2    1    2    0    0  0.49940105947E+02 -0.45845184096E+02  0.59544179587E+03  0.10796438593E+04  0.89804461784E+03 0.  0.
         23    2    4    4    0    0 -0.35446858961E+03 -0.21760643496E+03  0.16084924364E+03  0.45472698828E+03  0.88902267332E+02 0.  0.
         23    2    4    4    0    0  0.40440869556E+03  0.17176125087E+03  0.43459255223E+03  0.62491687105E+03  0.92747446977E+02 0.  0.
         13    1    3    3    0    0  0.16235819454E+02  0.21282919300E+02 -0.38446684445E+02  0.46847753757E+02  0.00000000000E+00 0. -1.
        -13    1    3    3    0    0 -0.66175925401E+02  0.24562264796E+02 -0.35975291322E+03  0.36661248822E+03  0.00000000000E+00 0.  1.
          1    1    6    6  502    0  0.20455331120E+03  0.49690417774E+02  0.24935127852E+03  0.32632384964E+03  0.00000000000E+00 0. -1.
          1    1    5    5  503    0 -0.21221094312E+03 -0.11992879845E+03  0.47707175717E+02  0.24837949934E+03  0.00000000000E+00 0. -1.
         -1    1    5    5    0  503 -0.14225764649E+03 -0.97677636517E+02  0.11314206792E+03  0.20634748894E+03  0.00000000000E+00 0.  1.
         -1    1    6    6    0  502  0.19985538435E+03  0.12207083309E+03  0.18524127371E+03  0.29859302141E+03  0.00000000000E+00 0.  1.
<mgrwt>
<rscale>  0 0.14800187E+04</rscale>
<asrwt>0</asrwt>
<pdfrwt beam="1">  1        2 0.13002664E+00 0.14800187E+04</pdfrwt>
<pdfrwt beam="2">  1       -2 0.99681686E-01 0.14800187E+04</pdfrwt>
<totfact> 0.25765640E+01</totfact>
</mgrwt>
</event>
<event>
12    1  0.4967442E-008  0.1211818E+04  0.7818608E-02  0.9102575E-01
          1   -1    0    0  501    0  0.00000000000E+00  0.00000000000E+00  0.12327791741E+04  0.12327791741E+04  0.00000000000E+00 0. -1.
         -1   -1    0    0    0  501 -0.00000000000E+00 -0.00000000000E+00 -0.29780341197E+03  0.29780341197E+03  0.00000000000E+00 0.  1.
         23    2    1    2    0    0  0.20794471107E+03  0.59601319691E+02  0.29330233889E+02  0.23687784350E+03  0.91964829973E+02 0.  0.
        254    2    1    2    0    0 -0.20794471107E+03 -0.59601319691E+02  0.90564552828E+03  0.12937047426E+04  0.89815634385E+03 0.  0.
         23    2    4    4    0    0  0.27220811055E+03  0.10159912194E+03  0.65181599133E+03  0.71989029234E+03  0.94648346174E+02 0.  0.
         23    2    4    4    0    0 -0.48015282162E+03 -0.16120044163E+03  0.25382953696E+03  0.57381445027E+03  0.91111333081E+02 0.  0.
         11    1    3    3    0    0  0.10868138362E+03  0.77743961199E+02  0.24512680141E+02  0.13585521019E+03  0.00000000000E+00 0. -1.
        -11    1    3    3    0    0  0.99263327448E+02 -0.18142641508E+02  0.48175537479E+01  0.10102263331E+03  0.00000000000E+00 0.  1.
          3    1    6    6  502    0 -0.73084831531E+02  0.19442260662E+01  0.15655999035E+02  0.74768194579E+02  0.00000000000E+00 0. -1.
          3    1    5    5  503    0  0.47554999224E+02 -0.12326638497E+02  0.15924459734E+03  0.16665012976E+03  0.00000000000E+00 0. -1.
         -3    1    5    5    0  503  0.22465311133E+03  0.11392576043E+03  0.49257139399E+03  0.55324016258E+03  0.00000000000E+00 0.  1.
         -3    1    6    6    0  502 -0.40706799009E+03 -0.16314466769E+03  0.23817353792E+03  0.49904625569E+03  0.00000000000E+00 0.  1.
<mgrwt>
<rscale>  0 0.12118182E+04</rscale>
<asrwt>0</asrwt>
<pdfrwt beam="1">  1        1 0.18965833E+00 0.12118182E+04</pdfrwt>
<pdfrwt beam="2">  1       -1 0.45815910E-01 0.12118182E+04</pdfrwt>
<totfact> 0.47340331E+01</totfact>
</mgrwt>
</event>
<event>
12    1  0.4967442E-008  0.2451634E+04  0.7818608E-02  0.8420422E-01
          2   -1    0    0  501    0  0.00000000000E+00  0.00000000000E+00  0.19060598635E+04  0.19060598635E+04  0.00000000000E+00 0. -1.
         -2   -1    0    0    0  501 -0.00000000000E+00 -0.00000000000E+00 -0.78834227158E+03  0.78834227158E+03  0.00000000000E+00 0.  1.
         23    2    1    2    0    0 -0.18671964037E+03  0.35515065092E+03 -0.60473696868E+03  0.72948631505E+03  0.73805647523E+02 0.  0.
        254    2    1    2    0    0  0.18671964037E+03 -0.35515065092E+03  0.17224545606E+04  0.19649158200E+04  0.85618237399E+03 0.  0.
         23    2    4    4    0    0  0.20103859401E+03  0.12931069431E+03  0.11303173288E+03  0.28156495216E+03  0.96772298225E+02 0.  0.
         23    2    4    4    0    0 -0.14318953641E+02 -0.48446134523E+03  0.16094228277E+04  0.16833508679E+04  0.92306438150E+02 0.  0.
         11    1    3    3    0    0 -0.70387008278E+02  0.66834756949E+02 -0.14160043001E+03  0.17167381119E+03  0.00000000000E+00 0. -1.
        -11    1    3    3    0    0 -0.11633263209E+03  0.28831589397E+03 -0.46313653867E+03  0.55781250386E+03  0.00000000000E+00 0.  1.
          3    1    5    5  502    0  0.29821533729E+02  0.46972735173E+02  0.65076812174E+02  0.85619817837E+02  0.00000000000E+00 0. -1.
          3    1    6    6  503    0 -0.64661532996E+01 -0.37766704793E+03  0.11077803554E+04  0.11704065645E+04  0.00000000000E+00 0. -1.
         -3    1    5    5    0  502  0.17121706028E+03  0.82337959133E+02  0.47954920710E+02  0.19594513433E+03  0.00000000000E+00 0.  1.
         -3    1    6    6    0  503 -0.78528003417E+01 -0.10679429730E+03  0.50164247227E+03  0.51294430341E+03  0.00000000000E+00 0.  1.
<mgrwt>
<rscale>  0 0.24516342E+04</rscale>
<asrwt>0</asrwt>
<pdfrwt beam="1">  1        2 0.29323998E+00 0.24516342E+04</pdfrwt>
<pdfrwt beam="2">  1       -2 0.12128343E+00 0.24516342E+04</pdfrwt>
<totfact> 0.34890913E+00</totfact>
</mgrwt>
</event>
<event>
12    1  0.4967442E-008  0.1278866E+04  0.7818608E-02  0.9046494E-01
         -2   -1    0    0    0  501 -0.00000000000E+00  0.00000000000E+00  0.32891352483E+03  0.32891352483E+03  0.00000000000E+00 0.  1.
          2   -1    0    0  501    0  0.00000000000E+00 -0.00000000000E+00 -0.12431068941E+04  0.12431068941E+04  0.00000000000E+00 0. -1.
         23    2    1    2    0    0 -0.33502230251E+02  0.61178848210E+02  0.13745652255E+03  0.19155190691E+03  0.11372153072E+03 0.  0.
        254    2    1    2    0    0  0.33502230251E+02 -0.61178848210E+02 -0.10516498918E+04  0.13804685120E+04  0.89154953130E+03 0.  0.
         23    2    4    4    0    0  0.26317766451E+03 -0.36199028388E+03 -0.78507719898E+03  0.90839088204E+03  0.92348998396E+02 0.  0.
         23    2    4    4    0    0 -0.22967543426E+03  0.30081143567E+03 -0.26657269283E+03  0.47207762995E+03  0.92509260114E+02 0.  0.
         13    1    3    3    0    0 -0.34728378551E+02  0.73767954926E+02  0.15187181126E+03  0.17237406564E+03  0.00000000000E+00 0.  1.
        -13    1    3    3    0    0  0.12261482997E+01 -0.12589106716E+02 -0.14415288703E+02  0.19177841274E+02  0.00000000000E+00 0. -1.
          2    1    5    5  502    0  0.63263755792E+02 -0.93977110983E+02 -0.28642896821E+03  0.30801875595E+03  0.00000000000E+00 0. -1.
          4    1    6    6  503    0 -0.24522334666E+02  0.78139260005E+02 -0.89554825975E+02  0.12135549311E+03  0.00000000000E+00 0. -1.
         -2    1    5    5    0  502  0.19991390871E+03 -0.26801317289E+03 -0.49864823077E+03  0.60037212609E+03  0.00000000000E+00 0.  1.
         -4    1    6    6    0  503 -0.20515309959E+03  0.22267217566E+03 -0.17701786685E+03  0.35072213684E+03  0.00000000000E+00 0.  1.
<mgrwt>
<rscale>  0 0.12788662E+04</rscale>
<asrwt>0</asrwt>
<pdfrwt beam="1">  1        2 0.19124721E+00 0.12788662E+04</pdfrwt>
<pdfrwt beam="2">  1       -2 0.50602082E-01 0.12788662E+04</pdfrwt>
<totfact> 0.64701548E+01</totfact>
</mgrwt>
</event>
<event>
12    1  0.4967442E-008  0.1857414E+04  0.7818608E-02  0.8676350E-01
         -2   -1    0    0    0  501 -0.00000000000E+00  0.00000000000E+00  0.36684486879E+03  0.36684486879E+03  0.00000000000E+00 0.  1.
          2   -1    0    0  501    0  0.00000000000E+00 -0.00000000000E+00 -0.23511201327E+04  0.23511201327E+04  0.00000000000E+00 0. -1.
         23    2    1    2    0    0  0.33612623281E+03  0.26195889664E+02  0.14923341083E+03  0.38001202379E+03  0.92040525306E+02 0.  0.
        254    2    1    2    0    0 -0.33612623281E+03 -0.26195889664E+02 -0.21335086748E+04  0.23379529777E+04  0.89470542174E+03 0.  0.
         23    2    4    4    0    0  0.18289004125E+03 -0.22673096839E+03 -0.33624173726E+03  0.45430412303E+03  0.92076224485E+02 0.  0.
         23    2    4    4    0    0 -0.51901627406E+03  0.20053507872E+03 -0.17972669375E+04  0.18836488547E+04  0.91500560487E+02 0.  0.
         11    1    3    3    0    0  0.17807543882E+03  0.31430217822E+02  0.12548164721E+03  0.22010080484E+03  0.00000000000E+00 0. -1.
        -11    1    3    3    0    0  0.15805079399E+03 -0.52343281575E+01  0.23751763621E+02  0.15991121895E+03  0.00000000000E+00 0.  1.
          3    1    6    6  502    0 -0.40129449138E+03  0.16717688195E+03 -0.12690084933E+04  0.13414052090E+04  0.00000000000E+00 0. -1.
          3    1    5    5  503    0  0.99325885392E+02 -0.18194291662E+03 -0.19787821910E+03  0.28657398000E+03  0.00000000000E+00 0. -1.
         -3    1    5    5    0  503  0.83564155855E+02 -0.44788051766E+02 -0.13836351816E+03  0.16773014304E+03  0.00000000000E+00 0.  1.
         -3    1    6    6    0  502 -0.11772178267E+03  0.33358196777E+02 -0.52825844420E+03  0.54224364568E+03  0.00000000000E+00 0.  1.
<mgrwt>
<rscale>  0 0.18574136E+04</rscale>
<asrwt>0</asrwt>
<pdfrwt beam="1">  1        2 0.36171079E+00 0.18574136E+04</pdfrwt>
<pdfrwt beam="2">  1       -2 0.56437672E-01 0.18574136E+04</pdfrwt>
<totfact> 0.11743999E+01</totfact>
</mgrwt>
</event>
<event>
12    1  0.4967442E-008  0.1237916E+04  0.7818608E-02  0.9080301E-01
         -2   -1    0    0    0  501 -0.00000000000E+00  0.00000000000E+00  0.44874603811E+03  0.44874603811E+03  0.00000000000E+00 0.  1.
          2   -1    0    0  501    0  0.00000000000E+00 -0.00000000000E+00 -0.85373250109E+03  0.85373250109E+03  0.00000000000E+00 0. -1.
         23    2    1    2    0    0  0.15263657717E+03 -0.19343652960E+03  0.48694321974E+02  0.26705287736E+03  0.90722029507E+02 0.  0.
        254    2    1    2    0    0 -0.15263657717E+03  0.19343652960E+03 -0.45368078495E+03  0.10354256618E+04  0.89753241217E+03 0.  0.
         23    2    4    4    0    0 -0.49382578997E+03 -0.34056017047E+02 -0.18452629001E+03  0.53596786040E+03  0.90486863850E+02 0.  0.
         23    2    4    4    0    0  0.34118921280E+03  0.22749254665E+03 -0.26915449493E+03  0.49945780145E+03  0.94079836164E+02 0.  0.
         13    1    3    3    0    0  0.91904045680E+02 -0.49589664694E+02  0.34440308808E+01  0.10448612255E+03  0.00000000000E+00 0. -1.
        -13    1    3    3    0    0  0.60732531494E+02 -0.14384686490E+03  0.45250291093E+02  0.16256675481E+03  0.00000000000E+00 0.  1.
          4    1    5    5  502    0 -0.27891763247E+03 -0.67641287243E+01 -0.57581928930E+02  0.28487976004E+03  0.00000000000E+00 0.  1.
          3    1    6    6  503    0  0.18791799535E+03  0.13640286917E+03 -0.97117913870E+02  0.25169585791E+03  0.00000000000E+00 0. -1.
         -4    1    5    5    0  502 -0.21490815751E+03 -0.27291888323E+02 -0.12694436108E+03  0.25108810036E+03  0.00000000000E+00 0. -1.
         -3    1    6    6    0  503  0.15327121745E+03  0.91089677471E+02 -0.17203658106E+03  0.24776194354E+03  0.00000000000E+00 0.  1.
<mgrwt>
<rscale>  0 0.12379161E+04</rscale>
<asrwt>0</asrwt>
<pdfrwt beam="1">  1        2 0.13134346E+00 0.12379161E+04</pdfrwt>
<pdfrwt beam="2">  1       -2 0.69037852E-01 0.12379161E+04</pdfrwt>
<totfact> 0.59519218E+01</totfact>
</mgrwt>
</event>
<event>
12    1  0.4967442E-008  0.2813734E+04  0.7818608E-02  0.8299017E-01
          2   -1    0    0  501    0  0.00000000000E+00  0.00000000000E+00  0.19794246407E+04  0.19794246407E+04  0.00000000000E+00 0. -1.
         -2   -1    0    0    0  501 -0.00000000000E+00 -0.00000000000E+00 -0.99992411032E+03  0.99992411032E+03  0.00000000000E+00 0.  1.
         23    2    1    2    0    0 -0.59829427086E+03 -0.79004867143E+03 -0.38564133558E+03  0.10675007590E+04  0.93304302647E+02 0.  0.
        254    2    1    2    0    0  0.59829427086E+03  0.79004867143E+03  0.13651418659E+04  0.19118479920E+04  0.89967632661E+03 0.  0.
         23    2    4    4    0    0 -0.21809115413E+03  0.10165920603E+03  0.18959068248E+03  0.32103607600E+03  0.96027025013E+02 0.  0.
         23    2    4    4    0    0  0.81638542499E+03  0.68838946541E+03  0.11755511834E+04  0.15908119160E+04  0.91633776442E+02 0.  0.
         11    1    3    3    0    0 -0.53930410911E+03 -0.66243579953E+03 -0.31790457043E+03  0.91144578912E+03  0.00000000000E+00 0.  1.
        -11    1    3    3    0    0 -0.58990161747E+02 -0.12761287190E+03 -0.67736765152E+02  0.15605496984E+03  0.00000000000E+00 0. -1.
          1    1    5    5  502    0 -0.19717253855E+03  0.59239369662E+02  0.17842957569E+03  0.27243976647E+03  0.00000000000E+00 0. -1.
          3    1    6    6  503    0  0.79797523018E+03  0.67116239958E+03  0.11650188856E+04  0.15634872684E+04  0.00000000000E+00 0. -1.
         -1    1    5    5    0  502 -0.20918615582E+02  0.42419836365E+02  0.11161106789E+02  0.48596309529E+02  0.00000000000E+00 0.  1.
         -3    1    6    6    0  503  0.18410194808E+02  0.17227065823E+02  0.10532297851E+02  0.27324647623E+02  0.00000000000E+00 0.  1.
<mgrwt>
<rscale>  0 0.28137338E+04</rscale>
<asrwt>0</asrwt>
<pdfrwt beam="1">  1        2 0.30452687E+00 0.28137338E+04</pdfrwt>
<pdfrwt beam="2">  1       -2 0.15383448E+00 0.28137338E+04</pdfrwt>
<totfact> 0.16703628E+00</totfact>
</mgrwt>
</event>
<event>
12    1  0.4967442E-008  0.2885751E+04  0.7818608E-02  0.8277130E-01
          1   -1    0    0  501    0  0.00000000000E+00  0.00000000000E+00  0.29748936517E+04  0.29748936517E+04  0.00000000000E+00 0. -1.
         -1   -1    0    0    0  501 -0.00000000000E+00 -0.00000000000E+00 -0.69981969542E+03  0.69981969542E+03  0.00000000000E+00 0.  1.
         23    2    1    2    0    0 -0.56637510898E+03  0.45890243151E+03 -0.34607195387E+03  0.81156048401E+03  0.86558744464E+02 0.  0.
        254    2    1    2    0    0  0.56637510898E+03 -0.45890243151E+03  0.26211459102E+04  0.28631528631E+04  0.89211335016E+03 0.  0.
         23    2    4    4    0    0  0.66574131942E+01 -0.35911058269E+03  0.19212574072E+04  0.19566912126E+04  0.91682849862E+02 0.  0.
         23    2    4    4    0    0  0.55971769578E+03 -0.99791848820E+02  0.69988850298E+03  0.90646165055E+03  0.92663343607E+02 0.  0.
         11    1    3    3    0    0 -0.28922390183E+03  0.21651255703E+03 -0.21674662033E+03  0.42131609294E+03  0.00000000000E+00 0.  1.
        -11    1    3    3    0    0 -0.27715120715E+03  0.24238987447E+03 -0.12932533354E+03  0.39024439108E+03  0.00000000000E+00 0. -1.
          2    1    5    5  502    0  0.10113948865E+02 -0.27277969921E+03  0.16366886482E+04  0.16592952683E+04  0.00000000000E+00 0.  1.
          1    1    6    6  503    0  0.22134878734E+03 -0.72000382470E+01  0.32233860021E+03  0.39108732963E+03  0.00000000000E+00 0. -1.
         -2    1    5    5    0  502 -0.34565356710E+01 -0.86330883483E+02  0.28456875905E+03  0.29739594434E+03  0.00000000000E+00 0. -1.
         -1    1    6    6    0  503  0.33836890844E+03 -0.92591810573E+02  0.37754990277E+03  0.51537432092E+03  0.00000000000E+00 0.  1.
<mgrwt>
<rscale>  0 0.28857506E+04</rscale>
<asrwt>0</asrwt>
<pdfrwt beam="1">  1        1 0.45767594E+00 0.28857506E+04</pdfrwt>
<pdfrwt beam="2">  1       -1 0.10766457E+00 0.28857506E+04</pdfrwt>
<totfact> 0.42988094E-01</totfact>
</mgrwt>
</event>
<event>
12    1  0.4967442E-008  0.1623637E+04  0.7818608E-02  0.8806157E-01
          1   -1    0    0  501    0  0.00000000000E+00  0.00000000000E+00  0.11368494747E+04  0.11368494747E+04  0.00000000000E+00 0. -1.
         -1   -1    0    0    0  501 -0.00000000000E+00 -0.00000000000E+00 -0.57971586176E+03  0.57971586176E+03  0.00000000000E+00 0.  1.
         23    2    1    2    0    0 -0.12501132935E+03 -0.21770013320E+03 -0.33369757938E+03  0.43214037932E+03  0.11122073769E+03 0.  0.
        254    2    1    2    0    0  0.12501132935E+03  0.21770013320E+03  0.89083119234E+03  0.12844249572E+04  0.89058748973E+03 0.  0.
         23    2    4    4    0    0  0.23324104332E+03  0.30163617036E+03  0.10088144820E+04  0.10819008703E+04  0.86122415740E+02 0.  0.
         23    2    4    4    0    0 -0.10822971396E+03 -0.83936037158E+02 -0.11798328966E+03  0.20252408686E+03  0.91307282304E+02 0.  0.
         11    1    3    3    0    0 -0.17815234759E+02 -0.11764509863E+03 -0.96148302383E+02  0.15297793263E+03  0.00000000000E+00 0. -1.
        -11    1    3    3    0    0 -0.10719609460E+03 -0.10005503457E+03 -0.23754927700E+03  0.27916244669E+03  0.00000000000E+00 0.  1.
          4    1    5    5  502    0  0.21638821192E+03  0.22729035467E+03  0.83855816816E+03  0.89535722757E+03  0.00000000000E+00 0. -1.
          3    1    6    6  503    0 -0.11357589417E+03 -0.82035042873E+02 -0.12879836175E+03  0.19031092976E+03  0.00000000000E+00 0. -1.
         -4    1    5    5    0  502  0.16852831403E+02  0.74345815689E+02  0.17025631384E+03  0.18654364272E+03  0.00000000000E+00 0.  1.
         -3    1    6    6    0  503  0.53461802065E+01 -0.19009942851E+01  0.10815072092E+02  0.12213157103E+02  0.00000000000E+00 0.  1.
<mgrwt>
<rscale>  0 0.16236375E+04</rscale>
<asrwt>0</asrwt>
<pdfrwt beam="1">  1        1 0.17489992E+00 0.16236375E+04</pdfrwt>
<pdfrwt beam="2">  1       -1 0.89187056E-01 0.16236375E+04</pdfrwt>
<totfact> 0.14043423E+01</totfact>
</mgrwt>
</event>
<event>
12    1  0.4967442E-008  0.1852720E+04  0.7818608E-02  0.8678755E-01
          2   -1    0    0  501    0  0.00000000000E+00  0.00000000000E+00  0.12991425622E+04  0.12991425622E+04  0.00000000000E+00 0. -1.
         -2   -1    0    0    0  501 -0.00000000000E+00 -0.00000000000E+00 -0.66054556143E+03  0.66054556143E+03  0.00000000000E+00 0.  1.
         23    2    1    2    0    0  0.42340369169E+03  0.51789854245E+03  0.14768180712E+02  0.67576676224E+03  0.94620459604E+02 0.  0.
        254    2    1    2    0    0 -0.42340369169E+03 -0.51789854245E+03  0.62382882007E+03  0.12839213614E+04  0.90100059883E+03 0.  0.
         23    2    4    4    0    0  0.65922276789E+02 -0.43953932967E+03 -0.34994317186E+02  0.45460772153E+03  0.88898871415E+02 0.  0.
         23    2    4    4    0    0 -0.48932596848E+03 -0.78359212788E+02  0.65882313726E+03  0.82931363987E+03  0.90183798017E+02 0.  0.
         11    1    3    3    0    0  0.38840987384E+03  0.43318508808E+03  0.31180284651E+02  0.58265234984E+03  0.00000000000E+00 0.  1.
        -11    1    3    3    0    0  0.34993817851E+02  0.84713454380E+02 -0.16412103938E+02  0.93114412399E+02  0.00000000000E+00 0. -1.
          2    1    5    5  502    0 -0.41745337927E+01 -0.25872125892E+03 -0.31316499440E+02  0.26064312707E+03  0.00000000000E+00 0. -1.
          4    1    6    6  503    0 -0.23963165511E+03 -0.21982771560E+02  0.38877648566E+03  0.45722393658E+03  0.00000000000E+00 0. -1.
         -2    1    5    5    0  502  0.70096810582E+02 -0.18081807074E+03 -0.36778177463E+01  0.19396459446E+03  0.00000000000E+00 0.  1.
         -4    1    6    6    0  503 -0.24969431337E+03 -0.56376441228E+02  0.27004665160E+03  0.37208970329E+03  0.00000000000E+00 0.  1.
<mgrwt>
<rscale>  0 0.18527200E+04</rscale>
<asrwt>0</asrwt>
<pdfrwt beam="1">  1        2 0.19986809E+00 0.18527200E+04</pdfrwt>
<pdfrwt beam="2">  1       -2 0.10162239E+00 0.18527200E+04</pdfrwt>
<totfact> 0.12370790E+01</totfact>
</mgrwt>
</event>
<event>
12    1  0.4967442E-008  0.1782348E+04  0.7818608E-02  0.8715743E-01
          1   -1    0    0  501    0  0.00000000000E+00  0.00000000000E+00  0.27805038996E+04  0.27805038996E+04  0.00000000000E+00 0. -1.
         -1   -1    0    0    0  501 -0.00000000000E+00 -0.00000000000E+00 -0.28562845569E+03  0.28562845569E+03  0.00000000000E+00 0.  1.
         23    2    1    2    0    0  0.88150485788E+02 -0.55723721721E+03  0.32830243923E+03  0.65904192341E+03  0.90939215031E+02 0.  0.
        254    2    1    2    0    0 -0.88150485788E+02  0.55723721721E+03  0.21665730047E+04  0.24070904319E+04  0.88417302503E+03 0.  0.
         23    2    4    4    0    0 -0.41002690884E+03  0.96474124208E+02  0.58923395201E+03  0.73031932992E+03  0.93489843477E+02 0.  0.
         23    2    4    4    0    0  0.32187642306E+03  0.46076309300E+03  0.15773390527E+04  0.16767711019E+04  0.87497323737E+02 0.  0.
         13    1    3    3    0    0  0.26209146665E+01 -0.65246894579E+01 -0.59207247458E+01  0.91921568593E+01  0.00000000000E+00 0. -1.
        -13    1    3    3    0    0  0.85529571122E+02 -0.55071252775E+03  0.33422316397E+03  0.64984976655E+03  0.00000000000E+00 0.  1.
          2    1    5    5  502    0  0.85770088917E+00 -0.40572323817E+01 -0.89690809856E+00  0.42427855887E+01  0.00000000000E+00 0. -1.
          2    1    6    6  503    0  0.14689327013E+02 -0.21246582373E+00  0.48006047676E+02  0.50203606278E+02  0.00000000000E+00 0. -1.
         -2    1    5    5    0  502 -0.41088460973E+03  0.10053135659E+03  0.59013086011E+03  0.72607654433E+03  0.00000000000E+00 0.  1.
         -2    1    6    6    0  503  0.30718709604E+03  0.46097555882E+03  0.15293330050E+04  0.16265674957E+04  0.00000000000E+00 0.  1.
<mgrwt>
<rscale>  0 0.17823479E+04</rscale>
<asrwt>0</asrwt>
<pdfrwt beam="1">  1        1 0.42776981E+00 0.17823479E+04</pdfrwt>
<pdfrwt beam="2">  1       -1 0.43942841E-01 0.17823479E+04</pdfrwt>
<totfact> 0.41724325E+00</totfact>
</mgrwt>
</event>
<event>
12    1  0.4967442E-008  0.4285113E+04  0.7818608E-02  0.7949377E-01
          1   -1    0    0  501    0  0.00000000000E+00  0.00000000000E+00  0.16241583258E+04  0.16241583258E+04  0.00000000000E+00 0. -1.
         -1   -1    0    0    0  501 -0.00000000000E+00 -0.00000000000E+00 -0.28264162959E+04  0.28264162959E+04  0.00000000000E+00 0.  1.
         23    2    1    2    0    0 -0.10529443836E+04 -0.12697679568E+04 -0.18357730211E+04  0.24696918890E+04  0.91175118615E+02 0.  0.
        254    2    1    2    0    0  0.10529443836E+04  0.12697679568E+04  0.63351505104E+03  0.19808827327E+04  0.89529466767E+03 0.  0.
         23    2    4    4    0    0  0.22301206788E+03  0.27255587086E+03  0.57324641373E+03  0.67894991421E+03  0.91326064163E+02 0.  0.
         23    2    4    4    0    0  0.82993231571E+03  0.99721208593E+03  0.60268637304E+02  0.13019328185E+04  0.90427663507E+02 0.  0.
         11    1    3    3    0    0 -0.14647522661E+02 -0.32997876653E+02 -0.27861226628E+02  0.45603264498E+02  0.00000000000E+00 0.  1.
        -11    1    3    3    0    0 -0.10382968609E+04 -0.12367700801E+04 -0.18079117945E+04  0.24240886245E+04  0.00000000000E+00 0. -1.
          4    1    5    5  502    0  0.19316599955E+03  0.20579720324E+03  0.50703519736E+03  0.58030189006E+03  0.00000000000E+00 0. -1.
          3    1    6    6  503    0  0.80252329502E+03  0.95452811787E+03  0.41210328525E+02  0.12477443080E+04  0.00000000000E+00 0. -1.
         -4    1    5    5    0  502  0.29846068334E+02  0.66758667612E+02  0.66211216375E+02  0.98648024157E+02  0.00000000000E+00 0.  1.
         -3    1    6    6    0  503  0.27409020693E+02  0.42683968059E+02  0.19058308779E+02  0.54188510573E+02  0.00000000000E+00 0.  1.
<mgrwt>
<rscale>  0 0.42851126E+04</rscale>
<asrwt>0</asrwt>
<pdfrwt beam="1">  1        1 0.24987052E+00 0.42851126E+04</pdfrwt>
<pdfrwt beam="2">  1       -1 0.43483327E+00 0.42851126E+04</pdfrwt>
<totfact> 0.16915173E-02</totfact>
</mgrwt>
</event>
<event>
12    1  0.4967442E-008  0.1798564E+04  0.7818608E-02  0.8707063E-01
          2   -1    0    0  501    0  0.00000000000E+00  0.00000000000E+00  0.99089698584E+03  0.99089698584E+03  0.00000000000E+00 0. -1.
         -2   -1    0    0    0  501 -0.00000000000E+00 -0.00000000000E+00 -0.81613784588E+03  0.81613784588E+03  0.00000000000E+00 0.  1.
         23    2    1    2    0    0  0.24517586340E+03 -0.27039748519E+03  0.63401672741E+03  0.73630787662E+03  0.83343113364E+02 0.  0.
        254    2    1    2    0    0 -0.24517586340E+03  0.27039748519E+03 -0.45925758744E+03  0.10707269551E+04  0.89571908363E+03 0.  0.
         23    2    4    4    0    0 -0.20018387870E+03 -0.28723377591E+03 -0.32857940917E+03  0.48875800059E+03  0.91340723064E+02 0.  0.
         23    2    4    4    0    0 -0.44991984698E+02  0.55763126110E+03 -0.13067817827E+03  0.58196895452E+03  0.92920265312E+02 0.  0.
         11    1    3    3    0    0 -0.10911903171E+01 -0.13730054209E+02  0.55516463055E+02  0.57199499604E+02  0.00000000000E+00 0.  1.
        -11    1    3    3    0    0  0.24626705372E+03 -0.25666743098E+03  0.57850026435E+03  0.67910837701E+03  0.00000000000E+00 0. -1.
          1    1    5    5  502    0 -0.66397867037E+02 -0.35004430715E+02 -0.52523773456E+02  0.91611864378E+02  0.00000000000E+00 0. -1.
          3    1    6    6  503    0 -0.14858987072E+01  0.10283692431E+02  0.10773283764E+02  0.14967493713E+02  0.00000000000E+00 0. -1.
         -1    1    5    5    0  502 -0.13378601166E+03 -0.25222934519E+03 -0.27605563572E+03  0.39714613621E+03  0.00000000000E+00 0.  1.
         -3    1    6    6    0  503 -0.43506085991E+02  0.54734756867E+03 -0.14145146203E+03  0.56700146080E+03  0.00000000000E+00 0.  1.
<mgrwt>
<rscale>  0 0.17985645E+04</rscale>
<asrwt>0</asrwt>
<pdfrwt beam="1">  1        2 0.15244569E+00 0.17985645E+04</pdfrwt>
<pdfrwt beam="2">  1       -2 0.12555967E+00 0.17985645E+04</pdfrwt>
<totfact> 0.11429644E+01</totfact>
</mgrwt>
</event>
<event>
12    1  0.4967442E-008  0.2891311E+04  0.7818608E-02  0.8275467E-01
         -2   -1    0    0    0  501 -0.00000000000E+00  0.00000000000E+00  0.12516628833E+04  0.12516628833E+04  0.00000000000E+00 0. -1.
          2   -1    0    0  501    0  0.00000000000E+00 -0.00000000000E+00 -0.16697147356E+04  0.16697147356E+04  0.00000000000E+00 0.  1.
         23    2    1    2    0    0  0.62598188493E+03  0.62184098263E+03 -0.11824651830E+04  0.14781444293E+04  0.90263596860E+02 0.  0.
        254    2    1    2    0    0 -0.62598188493E+03 -0.62184098263E+03  0.76441333063E+03  0.14432331897E+04  0.84856041139E+03 0.  0.
         23    2    4    4    0    0 -0.77371992048E+03 -0.56395296094E+03  0.41317809628E+03  0.10467287568E+04  0.90771655838E+02 0.  0.
         23    2    4    4    0    0  0.14773803555E+03 -0.57888021690E+02  0.35123523435E+03  0.39650443290E+03  0.93123709400E+02 0.  0.
         13    1    3    3    0    0  0.41571824907E+03  0.42646304786E+03 -0.72720057814E+03  0.93995376198E+03  0.00000000000E+00 0.  1.
        -13    1    3    3    0    0  0.21026363586E+03  0.19537793477E+03 -0.45526460481E+03  0.53819066729E+03  0.00000000000E+00 0. -1.
          1    1    5    5  502    0 -0.49008373870E+03 -0.30328720338E+03  0.23798385070E+03  0.62353950305E+03  0.00000000000E+00 0. -1.
          3    1    6    6  503    0  0.24714675629E+02 -0.55522546540E+02  0.12404949125E+03  0.13813705022E+03  0.00000000000E+00 0. -1.
         -1    1    5    5    0  502 -0.28363618179E+03 -0.26066575756E+03  0.17519424558E+03  0.42318925372E+03  0.00000000000E+00 0.  1.
         -3    1    6    6    0  503  0.12302335992E+03 -0.23654751501E+01  0.22718574311E+03  0.25836738268E+03  0.00000000000E+00 0.  1.
<mgrwt>
<rscale>  0 0.28913111E+04</rscale>
<asrwt>0</asrwt>
<pdfrwt beam="1">  1        2 0.25687919E+00 0.28913111E+04</pdfrwt>
<pdfrwt beam="2">  1       -2 0.19256352E+00 0.28913111E+04</pdfrwt>
<totfact> 0.13121158E+00</totfact>
</mgrwt>
</event>
<event>
12    1  0.4967442E-008  0.1545754E+04  0.7818608E-02  0.8854584E-01
         -1   -1    0    0    0  501 -0.00000000000E+00  0.00000000000E+00  0.29251361419E+03  0.29251361419E+03  0.00000000000E+00 0.  1.
          1   -1    0    0  501    0  0.00000000000E+00 -0.00000000000E+00 -0.20420895709E+04  0.20420895709E+04  0.00000000000E+00 0. -1.
         23    2    1    2    0    0  0.92468389543E+02  0.25830448313E+03 -0.12309780598E+04  0.12647152468E+04  0.94477842795E+02 0.  0.
        254    2    1    2    0    0 -0.92468389543E+02 -0.25830448313E+03 -0.51859789691E+03  0.10698879383E+04  0.89467581431E+03 0.  0.
         23    2    4    4    0    0 -0.11327893270E+03  0.22423289525E+03  0.94725448801E+02  0.28388391804E+03  0.92220715497E+02 0.  0.
         23    2    4    4    0    0  0.20810543153E+02 -0.48253737838E+03 -0.61332334571E+03  0.78600402023E+03  0.91440653936E+02 0.  0.
         11    1    3    3    0    0  0.93192206663E+02  0.22540168766E+03 -0.91229287315E+03  0.94433521304E+03  0.00000000000E+00 0. -1.
        -11    1    3    3    0    0 -0.72381712040E+00  0.32902795465E+02 -0.31868518662E+03  0.32038003376E+03  0.00000000000E+00 0.  1.
          2    1    5    5  502    0 -0.57807792502E+02  0.98664236370E+02 -0.45983636406E+01  0.11444438545E+03  0.00000000000E+00 0. -1.
          1    1    6    6  503    0 -0.22543568827E+02 -0.33223536295E+02 -0.51801289972E+02  0.65539221098E+02  0.00000000000E+00 0. -1.
         -2    1    5    5    0  502 -0.55471140194E+02  0.12556865888E+03  0.99323812441E+02  0.16943953259E+03  0.00000000000E+00 0.  1.
         -1    1    6    6    0  503  0.43354111980E+02 -0.44931384208E+03 -0.56152205573E+03  0.72046479913E+03  0.00000000000E+00 0.  1.
<mgrwt>
<rscale>  0 0.15457542E+04</rscale>
<asrwt>0</asrwt>
<pdfrwt beam="1">  1        1 0.31416762E+00 0.15457542E+04</pdfrwt>
<pdfrwt beam="2">  1       -1 0.45002095E-01 0.15457542E+04</pdfrwt>
<totfact> 0.13176926E+01</totfact>
</mgrwt>
</event>
<event>
12    1  0.4967442E-008  0.3445727E+04  0.7818608E-02  0.8126774E-01
         -2   -1    0    0    0  501 -0.00000000000E+00  0.00000000000E+00  0.21327798034E+04  0.21327798034E+04  0.00000000000E+00 0.  1.
          2   -1    0    0  501    0  0.00000000000E+00 -0.00000000000E+00 -0.13917319666E+04  0.13917319666E+04  0.00000000000E+00 0. -1.
         23    2    1    2    0    0 -0.80623663651E+03 -0.98513405290E+03  0.13480404462E+04  0.18559250555E+04  0.82086239284E+02 0.  0.
        254    2    1    2    0    0  0.80623663651E+03  0.98513405290E+03 -0.60699260937E+03  0.16685867146E+04  0.89175948549E+03 0.  0.
         23    2    4    4    0    0  0.30134640836E+03  0.62503762689E+03 -0.75006277912E+03  0.10257803854E+04  0.90274766596E+02 0.  0.
         23    2    4    4    0    0  0.50489022815E+03  0.36009642600E+03  0.14307016975E+03  0.64280632922E+03  0.90262533228E+02 0.  0.
         13    1    3    3    0    0 -0.77111119800E+02 -0.12753559347E+03  0.13540149746E+03  0.20135793481E+03  0.00000000000E+00 0. -1.
        -13    1    3    3    0    0 -0.72912551671E+03 -0.85759845942E+03  0.12126389487E+04  0.16545671207E+04  0.00000000000E+00 0.  1.
          2    1    5    5  502    0  0.22767534504E+03  0.45137383635E+03 -0.48605667986E+03  0.70130271561E+03  0.00000000000E+00 0. -1.
          1    1    6    6  503    0  0.21497190554E+03  0.10299770700E+03  0.70450089818E+02  0.24856520870E+03  0.00000000000E+00 0. -1.
         -2    1    5    5    0  502  0.73671063322E+02  0.17366379055E+03 -0.26400609926E+03  0.32447766974E+03  0.00000000000E+00 0.  1.
         -1    1    6    6    0  503  0.28991832261E+03  0.25709871900E+03  0.72620079929E+02  0.39424112052E+03  0.00000000000E+00 0.  1.
<mgrwt>
<rscale>  0 0.34457265E+04</rscale>
<asrwt>0</asrwt>
<pdfrwt beam="1">  1        2 0.21411261E+00 0.34457265E+04</pdfrwt>
<pdfrwt beam="2">  1       -2 0.32811997E+00 0.34457265E+04</pdfrwt>
<totfact> 0.25741701E-01</totfact>
</mgrwt>
</event>
<event>
12    1  0.4967442E-008  0.2547282E+04  0.7818608E-02  0.8386332E-01
          1   -1    0    0  501    0  0.00000000000E+00  0.00000000000E+00  0.22968471626E+04  0.22968471626E+04  0.00000000000E+00 0. -1.
         -1   -1    0    0    0  501 -0.00000000000E+00 -0.00000000000E+00 -0.70625585657E+03  0.70625585657E+03  0.00000000000E+00 0.  1.
         23    2    1    2    0    0  0.10062218835E+03  0.96025941814E+03  0.13187421351E+04  0.16367927703E+04  0.88242727675E+02 0.  0.
        254    2    1    2    0    0 -0.10062218835E+03 -0.96025941814E+03  0.27184917096E+03  0.13663102489E+04  0.92772773467E+03 0.  0.
         23    2    4    4    0    0 -0.33232282160E+03 -0.23541589632E+03 -0.20386149114E+03  0.46433530268E+03  0.90491235754E+02 0.  0.
         23    2    4    4    0    0  0.23170063325E+03 -0.72484352182E+03  0.47571066209E+03  0.90197494625E+03  0.90414905089E+02 0.  0.
         11    1    3    3    0    0  0.69116465554E+02  0.45491864118E+03  0.56295605780E+03  0.72708154901E+03  0.00000000000E+00 0.  1.
        -11    1    3    3    0    0  0.31505722794E+02  0.50534077696E+03  0.75578607730E+03  0.90971122125E+03  0.00000000000E+00 0. -1.
          4    1    5    5  502    0 -0.18663291813E+03 -0.12926108595E+03 -0.63115407315E+02  0.23563494883E+03  0.00000000000E+00 0. -1.
          3    1    6    6  503    0  0.28032593035E+02 -0.25686097193E+02  0.20677409124E+02  0.43279985090E+02  0.00000000000E+00 0. -1.
         -4    1    5    5    0  502 -0.14568990347E+03 -0.10615481037E+03 -0.14074608382E+03  0.22870035385E+03  0.00000000000E+00 0.  1.
         -3    1    6    6    0  503  0.20366804022E+03 -0.69915742463E+03  0.45503325297E+03  0.85869496116E+03  0.00000000000E+00 0.  1.
<mgrwt>
<rscale>  0 0.25472823E+04</rscale>
<asrwt>0</asrwt>
<pdfrwt beam="1">  1        1 0.35336110E+00 0.25472823E+04</pdfrwt>
<pdfrwt beam="2">  1       -1 0.10865475E+00 0.25472823E+04</pdfrwt>
<totfact> 0.12998576E+00</totfact>
</mgrwt>
</event>
<event>
12    1  0.4967442E-008  0.1635911E+04  0.7818608E-02  0.8798785E-01
         -2   -1    0    0    0  501 -0.00000000000E+00  0.00000000000E+00  0.80301466464E+03  0.80301466464E+03  0.00000000000E+00 0.  1.
          2   -1    0    0  501    0  0.00000000000E+00 -0.00000000000E+00 -0.83317436968E+03  0.83317436968E+03  0.00000000000E+00 0. -1.
         23    2    1    2    0    0 -0.27617090294E+03  0.13183758747E+03 -0.48182747186E+03  0.57781728130E+03  0.89797443342E+02 0.  0.
        254    2    1    2    0    0  0.27617090294E+03 -0.13183758747E+03  0.45166776682E+03  0.10583717530E+04  0.90691536479E+03 0.  0.
         23    2    4    4    0    0  0.39234225363E+02  0.31635336995E+03 -0.54237150644E+02  0.33624017373E+03  0.92179210247E+02 0.  0.
         23    2    4    4    0    0  0.23693667758E+03 -0.44819095742E+03  0.50590491746E+03  0.72213157928E+03  0.92304435374E+02 0.  0.
         13    1    3    3    0    0 -0.33446265390E+02  0.22001640611E+02 -0.20236097843E+02  0.44857825561E+02  0.00000000000E+00 0.  1.
        -13    1    3    3    0    0 -0.24272463755E+03  0.10983594686E+03 -0.46159137402E+03  0.53295945574E+03  0.00000000000E+00 0. -1.
          1    1    5    5  502    0 -0.21481153812E+02  0.52318944915E+02 -0.30551485681E+02  0.64281453340E+02  0.00000000000E+00 0. -1.
          1    1    6    6  503    0  0.62152229681E+02 -0.51482658627E+02  0.97236299085E+02  0.12636558730E+03  0.00000000000E+00 0. -1.
         -1    1    5    5    0  502  0.60715379176E+02  0.26403442504E+03 -0.23685664963E+02  0.27195872039E+03  0.00000000000E+00 0.  1.
         -1    1    6    6    0  503  0.17478444789E+03 -0.39670829879E+03  0.40866861838E+03  0.59576599199E+03  0.00000000000E+00 0.  1.
<mgrwt>
<rscale>  0 0.16359110E+04</rscale>
<asrwt>0</asrwt>
<pdfrwt beam="1">  1        2 0.12818067E+00 0.16359110E+04</pdfrwt>
<pdfrwt beam="2">  1       -2 0.12354072E+00 0.16359110E+04</pdfrwt>
<totfact> 0.15400629E+01</totfact>
</mgrwt>
</event>
<event>
12    1  0.4967442E-008  0.1315033E+04  0.7818608E-02  0.9017728E-01
         -1   -1    0    0    0  501 -0.00000000000E+00  0.00000000000E+00  0.28116805173E+03  0.28116805173E+03  0.00000000000E+00 0.  1.
          1   -1    0    0  501    0  0.00000000000E+00 -0.00000000000E+00 -0.15376136475E+04  0.15376136475E+04  0.00000000000E+00 0. -1.
         23    2    1    2    0    0 -0.19786583248E+03 -0.14767864574E+03 -0.67085130011E+03  0.71981246998E+03  0.84431362762E+02 0.  0.
        254    2    1    2    0    0  0.19786583248E+03  0.14767864574E+03 -0.58559429564E+03  0.10989692292E+04  0.89657839459E+03 0.  0.
         23    2    4    4    0    0  0.39013731544E+03 -0.47027045255E+02  0.43511159672E+02  0.40625560273E+03  0.93443704180E+02 0.  0.
         23    2    4    4    0    0 -0.19227148296E+03  0.19470569099E+03 -0.62910545531E+03  0.69271362650E+03  0.95915927613E+02 0.  0.
         13    1    3    3    0    0 -0.62452172973E+02 -0.32395420338E+02 -0.30524011316E+03  0.31324313855E+03  0.00000000000E+00 0.  1.
        -13    1    3    3    0    0 -0.13541365950E+03 -0.11528322540E+03 -0.36561118695E+03  0.40656933143E+03  0.00000000000E+00 0. -1.
          2    1    5    5  502    0  0.15010712242E+03 -0.60042502045E+02  0.36663196802E+02  0.16577527033E+03  0.00000000000E+00 0. -1.
          3    1    6    6  503    0 -0.83357152169E+02  0.15056703520E+03 -0.35714550201E+03  0.39644893305E+03  0.00000000000E+00 0. -1.
         -2    1    5    5    0  502  0.24003019302E+03  0.13015456790E+02  0.68479628693E+01  0.24048033240E+03  0.00000000000E+00 0.  1.
         -3    1    6    6    0  503 -0.10891433079E+03  0.44138655789E+02 -0.27195995330E+03  0.29626469345E+03  0.00000000000E+00 0.  1.
<mgrwt>
<rscale>  0 0.13150328E+04</rscale>
<asrwt>0</asrwt>
<pdfrwt beam="1">  1        1 0.23655594E+00 0.13150328E+04</pdfrwt>
<pdfrwt beam="2">  1       -1 0.43256624E-01 0.13150328E+04</pdfrwt>
<totfact> 0.31871776E+01</totfact>
</mgrwt>
</event>
<event>
12    1  0.4967442E-008  0.1222468E+04  0.7818608E-02  0.9093414E-01
          2   -1    0    0  501    0  0.00000000000E+00  0.00000000000E+00  0.64568831146E+03  0.64568831146E+03  0.00000000000E+00 0. -1.
         -2   -1    0    0    0  501 -0.00000000000E+00 -0.00000000000E+00 -0.57861861781E+03  0.57861861781E+03  0.00000000000E+00 0.  1.
         23    2    1    2    0    0 -0.27471062144E+02  0.25621686959E+03 -0.47717277263E+02  0.27738983748E+03  0.90919964088E+02 0.  0.
        254    2    1    2    0    0  0.27471062144E+02 -0.25621686959E+03  0.11478697091E+03  0.94691709178E+03  0.90392155993E+03 0.  0.
         23    2    4    4    0    0  0.35408566887E+03  0.77429890477E+02  0.25322200577E+03  0.45145026335E+03  0.91180629708E+02 0.  0.
         23    2    4    4    0    0 -0.32661460673E+03 -0.33364676007E+03 -0.13843503485E+03  0.49546682843E+03  0.91246136165E+02 0.  0.
         13    1    3    3    0    0  0.27915008340E+02  0.63960986901E+02  0.65276991732E+01  0.70091842553E+02  0.00000000000E+00 0. -1.
        -13    1    3    3    0    0 -0.55386070483E+02  0.19225588269E+03 -0.54244976436E+02  0.20729799493E+03  0.00000000000E+00 0.  1.
          2    1    5    5  502    0  0.25910220928E+03  0.50730680522E+02  0.13209024600E+03  0.29522091709E+03  0.00000000000E+00 0.  1.
          3    1    6    6  503    0 -0.25236313744E+03 -0.26109191764E+03 -0.14601069008E+03  0.39137611605E+03  0.00000000000E+00 0. -1.
         -2    1    5    5    0  502  0.94983459599E+02  0.26699209955E+02  0.12113175977E+03  0.15622934626E+03  0.00000000000E+00 0. -1.
         -3    1    6    6    0  503 -0.74251469290E+02 -0.72554842428E+02  0.75756552290E+01  0.10409071238E+03  0.00000000000E+00 0.  1.
<mgrwt>
<rscale>  0 0.12224685E+04</rscale>
<asrwt>0</asrwt>
<pdfrwt beam="1">  1        2 0.99336663E-01 0.12224685E+04</pdfrwt>
<pdfrwt beam="2">  1       -2 0.89018249E-01 0.12224685E+04</pdfrwt>
<totfact> 0.48436318E+01</totfact>
</mgrwt>
</event>
<event>
12    1  0.4967442E-008  0.1966254E+04  0.7818608E-02  0.8622563E-01
         -4   -1    0    0    0  501 -0.00000000000E+00  0.00000000000E+00  0.16034629817E+04  0.16034629817E+04  0.00000000000E+00 0.  1.
          4   -1    0    0  501    0  0.00000000000E+00 -0.00000000000E+00 -0.60278183132E+03  0.60278183132E+03  0.00000000000E+00 0. -1.
         23    2    1    2    0    0 -0.20416136576E+03 -0.44877204273E+03 -0.27563323224E+03  0.57161854834E+03  0.87726144848E+02 0.  0.
        254    2    1    2    0    0  0.20416136576E+03  0.44877204273E+03  0.12763143826E+04  0.16346262647E+04  0.89439723404E+03 0.  0.
         23    2    4    4    0    0  0.49118971320E+03  0.22588888609E+03  0.10808886835E+04  0.12120633894E+04  0.92109666203E+02 0.  0.
         23    2    4    4    0    0 -0.28702834743E+03  0.22288315664E+03  0.19542569912E+03  0.42256287526E+03  0.91137291665E+02 0.  0.
         11    1    3    3    0    0 -0.10545893234E+02 -0.65750481649E+02 -0.66832891509E+02  0.94344989738E+02  0.00000000000E+00 0.  1.
        -11    1    3    3    0    0 -0.19361547253E+03 -0.38302156108E+03 -0.20880034073E+03  0.47727355861E+03  0.00000000000E+00 0. -1.
          4    1    5    5  502    0  0.59696559469E+02  0.26398747891E+01  0.83902863149E+02  0.10300649783E+03  0.00000000000E+00 0. -1.
          3    1    6    6  503    0 -0.13987836635E+02  0.27852982780E+02  0.45256181379E+02  0.54950615797E+02  0.00000000000E+00 0. -1.
         -4    1    5    5    0  502  0.43149315373E+03  0.22324901130E+03  0.99698582034E+03  0.11090568916E+04  0.00000000000E+00 0.  1.
         -3    1    6    6    0  503 -0.27304051080E+03  0.19503017386E+03  0.15016951774E+03  0.36761225947E+03  0.00000000000E+00 0.  1.
<mgrwt>
<rscale>  0 0.19662536E+04</rscale>
<asrwt>0</asrwt>
<pdfrwt beam="1">  1        4 0.92735667E-01 0.19662536E+04</pdfrwt>
<pdfrwt beam="2">  1       -4 0.24668661E+00 0.19662536E+04</pdfrwt>
<totfact> 0.12183744E-01</totfact>
</mgrwt>
</event>
<event>
12    1  0.4967442E-008  0.1264800E+04  0.7818608E-02  0.9057954E-01
          1   -1    0    0  501    0  0.00000000000E+00  0.00000000000E+00  0.70092272234E+03  0.70092272234E+03  0.00000000000E+00 0. -1.
         -1   -1    0    0    0  501 -0.00000000000E+00 -0.00000000000E+00 -0.57057631698E+03  0.57057631698E+03  0.00000000000E+00 0.  1.
         23    2    1    2    0    0  0.56199461489E+01 -0.51708411601E+02 -0.27494643366E+03  0.29432576075E+03  0.91251128408E+02 0.  0.
        254    2    1    2    0    0 -0.56199461489E+01  0.51708411601E+02  0.40529283902E+03  0.97717327857E+03  0.88763730620E+03 0.  0.
         23    2    4    4    0    0 -0.17710646491E+01 -0.40877065655E+03  0.21182826603E+03  0.46943306761E+03  0.91649355379E+02 0.  0.
         23    2    4    4    0    0 -0.38488814998E+01  0.46047906816E+03  0.19346457298E+03  0.50774021096E+03  0.91190979429E+02 0.  0.
         11    1    3    3    0    0  0.25571349865E+02  0.18700868035E+02 -0.75498519508E+02  0.81875776925E+02  0.00000000000E+00 0.  1.
        -11    1    3    3    0    0 -0.19951403716E+02 -0.70409279636E+02 -0.19944791415E+03  0.21244998383E+03  0.00000000000E+00 0. -1.
          4    1    5    5  502    0 -0.36773856051E+02 -0.12864500276E+03  0.94047184217E+02  0.16354426338E+03  0.00000000000E+00 0.  1.
          1    1    6    6  503    0 -0.17403633972E+02  0.40791305907E+03  0.19702632805E+03  0.45333798008E+03  0.00000000000E+00 0. -1.
         -4    1    5    5    0  502  0.35002791402E+02 -0.28012565379E+03  0.11778108182E+03  0.30588880423E+03  0.00000000000E+00 0. -1.
         -1    1    6    6    0  503  0.13554752472E+02  0.52566009088E+02 -0.35617550719E+01  0.54402230885E+02  0.00000000000E+00 0.  1.
<mgrwt>
<rscale>  0 0.12648002E+04</rscale>
<asrwt>0</asrwt>
<pdfrwt beam="1">  1        1 0.10783427E+00 0.12648002E+04</pdfrwt>
<pdfrwt beam="2">  1       -1 0.87780972E-01 0.12648002E+04</pdfrwt>
<totfact> 0.34199052E+01</totfact>
</mgrwt>
</event>
<event>
12    1  0.4967442E-008  0.1579390E+04  0.7818608E-02  0.8833311E-01
          2   -1    0    0  501    0  0.00000000000E+00  0.00000000000E+00  0.58800063501E+03  0.58800063501E+03  0.00000000000E+00 0. -1.
         -2   -1    0    0    0  501 -0.00000000000E+00 -0.00000000000E+00 -0.10605736832E+04  0.10605736832E+04  0.00000000000E+00 0.  1.
         23    2    1    2    0    0 -0.29942007722E+03 -0.41717356023E+03 -0.26226069942E+02  0.52243209853E+03  0.92527449065E+02 0.  0.
        254    2    1    2    0    0  0.29942007722E+03  0.41717356023E+03 -0.44634697821E+03  0.11261422197E+04  0.89737646054E+03 0.  0.
         23    2    4    4    0    0  0.44082787515E+02 -0.13838409777E+03 -0.47734084032E+03  0.50722876739E+03  0.91286877249E+02 0.  0.
         23    2    4    4    0    0  0.25533728970E+03  0.55555765800E+03  0.30993862108E+02  0.61891345226E+03  0.90839413413E+02 0.  0.
         11    1    3    3    0    0 -0.10483612460E+03 -0.10007731313E+03  0.24367330969E+02  0.14696886896E+03  0.00000000000E+00 0.  1.
        -11    1    3    3    0    0 -0.19458395262E+03 -0.31709624711E+03 -0.50593400911E+02  0.37546322957E+03  0.00000000000E+00 0. -1.
          4    1    5    5  502    0 -0.23744925009E+02 -0.12117977041E+02 -0.10277240451E+03  0.10617360293E+03  0.00000000000E+00 0. -1.
          1    1    6    6  503    0  0.14268795678E+03  0.33275873777E+03 -0.25449126212E+02  0.36295438914E+03  0.00000000000E+00 0. -1.
         -4    1    5    5    0  502  0.67827712524E+02 -0.12626612073E+03 -0.37456843581E+03  0.40105516446E+03  0.00000000000E+00 0.  1.
         -1    1    6    6    0  503  0.11264933293E+03  0.22279892023E+03  0.56442988320E+02  0.25595906312E+03  0.00000000000E+00 0.  1.
<mgrwt>
<rscale>  0 0.15793898E+04</rscale>
<asrwt>0</asrwt>
<pdfrwt beam="1">  1        2 0.90461638E-01 0.15793898E+04</pdfrwt>
<pdfrwt beam="2">  1       -2 0.16316518E+00 0.15793898E+04</pdfrwt>
<totfact> 0.11643647E+01</totfact>
</mgrwt>
</event>
<event>
12    1  0.4967442E-008  0.1761239E+04  0.7818608E-02  0.8727188E-01
         -2   -1    0    0    0  501 -0.00000000000E+00  0.00000000000E+00  0.16512174957E+04  0.16512174957E+04  0.00000000000E+00 0.  1.
          2   -1    0    0  501    0  0.00000000000E+00 -0.00000000000E+00 -0.46964776020E+03  0.46964776020E+03  0.00000000000E+00 0. -1.
         23    2    1    2    0    0  0.48608988722E+03  0.68121010175E+02  0.92034777872E+03  0.10463789548E+04  0.83336863038E+02 0.  0.
        254    2    1    2    0    0 -0.48608988722E+03 -0.68121010175E+02  0.26122195677E+03  0.10744863011E+04  0.91943463612E+03 0.  0.
         23    2    4    4    0    0 -0.17890454972E+01 -0.23453507564E+03 -0.24452033233E+03  0.34913836154E+03  0.84246662754E+02 0.  0.
         23    2    4    4    0    0 -0.48430084172E+03  0.16641406546E+03  0.50574228910E+03  0.72534793958E+03  0.90074546830E+02 0.  0.
         13    1    3    3    0    0 -0.23296555463E+01 -0.13895607457E+01  0.76439680709E+00  0.28182399666E+01  0.00000000000E+00 0. -1.
        -13    1    3    3    0    0  0.48841954277E+03  0.69510570920E+02  0.91958338191E+03  0.10435607148E+04  0.00000000000E+00 0.  1.
          4    1    5    5  502    0 -0.36276649213E+02 -0.14207105168E+03 -0.11523264841E+03  0.18649059564E+03  0.00000000000E+00 0.  1.
          1    1    6    6  503    0 -0.13798095198E+03  0.12099056802E+02  0.10614740112E+03  0.17450616335E+03  0.00000000000E+00 0. -1.
         -4    1    5    5    0  502  0.34487603716E+02 -0.92464023956E+02 -0.12928768392E+03  0.16264776589E+03  0.00000000000E+00 0. -1.
         -1    1    6    6    0  503 -0.34631988974E+03  0.15431500866E+03  0.39959488799E+03  0.55084177623E+03  0.00000000000E+00 0.  1.
<mgrwt>
<rscale>  0 0.17612389E+04</rscale>
<asrwt>0</asrwt>
<pdfrwt beam="1">  1        2 0.72253503E-01 0.17612389E+04</pdfrwt>
<pdfrwt beam="2">  1       -2 0.25403346E+00 0.17612389E+04</pdfrwt>
<totfact> 0.38062244E+00</totfact>
</mgrwt>
</event>
<event>
12    1  0.4967442E-008  0.2013917E+04  0.7818608E-02  0.8600141E-01
          1   -1    0    0  501    0  0.00000000000E+00  0.00000000000E+00  0.13313220955E+04  0.13313220955E+04  0.00000000000E+00 0. -1.
         -1   -1    0    0    0  501 -0.00000000000E+00 -0.00000000000E+00 -0.76162313240E+03  0.76162313240E+03  0.00000000000E+00 0.  1.
         23    2    1    2    0    0 -0.20064057582E+02  0.72460568511E+03  0.58742991180E+03  0.93676059273E+03  0.83609458257E+02 0.  0.
        254    2    1    2    0    0  0.20064057582E+02 -0.72460568511E+03 -0.17730948734E+02  0.11561846351E+04  0.90055125267E+03 0.  0.
         23    2    4    4    0    0 -0.18876988497E+02  0.16153540274E+03  0.15952260829E+03  0.24665175717E+03  0.94549456509E+02 0.  0.
         23    2    4    4    0    0  0.38941046079E+02 -0.88614108786E+03 -0.17725355702E+03  0.90953287797E+03  0.95230247139E+02 0.  0.
         13    1    3    3    0    0 -0.94272247678E+01  0.44297061756E+03  0.41040453068E+03  0.60394016210E+03  0.00000000000E+00 0. -1.
        -13    1    3    3    0    0 -0.10636832814E+02  0.28163506755E+03  0.17702538112E+03  0.33282043063E+03  0.00000000000E+00 0.  1.
          4    1    5    5  502    0 -0.24663633789E+02  0.12865107900E+02 -0.93091699933E+00  0.27832938031E+02  0.00000000000E+00 0. -1.
          1    1    6    6  503    0  0.62939248431E+02 -0.36439969647E+03 -0.71899915810E+02  0.37672016892E+03  0.00000000000E+00 0. -1.
         -4    1    5    5    0  502  0.57866452923E+01  0.14867029484E+03  0.16045352529E+03  0.21881881914E+03  0.00000000000E+00 0.  1.
         -1    1    6    6    0  503 -0.23998202353E+02 -0.52174139139E+03 -0.10535364121E+03  0.53281270905E+03  0.00000000000E+00 0.  1.
<mgrwt>
<rscale>  0 0.20139173E+04</rscale>
<asrwt>0</asrwt>
<pdfrwt beam="1">  1        1 0.20481878E+00 0.20139173E+04</pdfrwt>
<pdfrwt beam="2">  1       -1 0.11717279E+00 0.20139173E+04</pdfrwt>
<totfact> 0.52234710E+00</totfact>
</mgrwt>
</event>
<event>
12    1  0.4967442E-008  0.1444949E+04  0.7818608E-02  0.8921910E-01
          2   -1    0    0  501    0  0.00000000000E+00  0.00000000000E+00  0.32540844213E+03  0.32540844213E+03  0.00000000000E+00 0. -1.
         -2   -1    0    0    0  501 -0.00000000000E+00 -0.00000000000E+00 -0.16040441919E+04  0.16040441919E+04  0.00000000000E+00 0.  1.
         23    2    1    2    0    0 -0.71090907481E+00  0.43532229304E+03 -0.39252514445E+03  0.59336031060E+03  0.92165421684E+02 0.  0.
        254    2    1    2    0    0  0.71090907481E+00 -0.43532229304E+03 -0.88611060531E+03  0.13360923234E+04  0.90024701478E+03 0.  0.
         23    2    4    4    0    0 -0.33319568734E+03 -0.52163189722E+03 -0.67661173850E+03  0.92143338998E+03  0.90093536061E+02 0.  0.
         23    2    4    4    0    0  0.33390659641E+03  0.86309604176E+02 -0.20949886680E+03  0.41465893343E+03  0.95442616154E+02 0.  0.
         13    1    3    3    0    0 -0.19988166895E+02  0.22701349643E+02 -0.41068284745E+02  0.51004726284E+02  0.00000000000E+00 0. -1.
        -13    1    3    3    0    0  0.19277257820E+02  0.41262094340E+03 -0.35145685971E+03  0.54235558431E+03  0.00000000000E+00 0.  1.
          1    1    5    5  502    0 -0.11252744019E+02 -0.39590103603E+02 -0.20645940466E+02  0.46046231214E+02  0.00000000000E+00 0. -1.
          3    1    6    6  503    0  0.10496734338E+03  0.74004628110E+02 -0.80847343878E+02  0.15176007766E+03  0.00000000000E+00 0. -1.
         -1    1    5    5    0  502 -0.32194294332E+03 -0.48204179362E+03 -0.65596579803E+03  0.87538715877E+03  0.00000000000E+00 0.  1.
         -3    1    6    6    0  503  0.22893925303E+03  0.12304976066E+02 -0.12865152293E+03  0.26289885577E+03  0.00000000000E+00 0.  1.
<mgrwt>
<rscale>  0 0.14449492E+04</rscale>
<asrwt>0</asrwt>
<pdfrwt beam="1">  1        2 0.50062837E-01 0.14449492E+04</pdfrwt>
<pdfrwt beam="2">  1       -2 0.24677603E+00 0.14449492E+04</pdfrwt>
<totfact> 0.65476649E+00</totfact>
</mgrwt>
</event>
<event>
12    1  0.4967442E-008  0.2328321E+04  0.7818608E-02  0.8466838E-01
          1   -1    0    0  501    0  0.00000000000E+00  0.00000000000E+00  0.10371515358E+04  0.10371515358E+04  0.00000000000E+00 0. -1.
         -1   -1    0    0    0  501 -0.00000000000E+00 -0.00000000000E+00 -0.13067227735E+04  0.13067227735E+04  0.00000000000E+00 0.  1.
         23    2    1    2    0    0  0.32993600044E+03 -0.97350850320E+03 -0.25802231515E+03  0.10641896820E+04  0.96682955659E+02 0.  0.
        254    2    1    2    0    0 -0.32993600044E+03  0.97350850320E+03 -0.11548922539E+02  0.12796846273E+04  0.76215667515E+03 0.  0.
         23    2    4    4    0    0 -0.50407689405E+03  0.75777217693E+03  0.17749443660E+03  0.93179273336E+03  0.91767290857E+02 0.  0.
         23    2    4    4    0    0  0.17414089361E+03  0.21573632627E+03 -0.18904335914E+03  0.34789189391E+03  0.91783249658E+02 0.  0.
         13    1    3    3    0    0  0.31965064648E+03 -0.86953429831E+03 -0.21405822352E+03  0.95083508285E+03  0.00000000000E+00 0.  1.
        -13    1    3    3    0    0  0.10285353960E+02 -0.10397420489E+03 -0.43964091625E+02  0.11335459912E+03  0.00000000000E+00 0. -1.
          1    1    5    5  502    0 -0.49976279328E+03  0.72988983611E+03  0.18227732430E+03  0.90317608768E+03  0.00000000000E+00 0. -1.
          3    1    6    6  503    0  0.14839035878E+03  0.14560124908E+03 -0.17527597699E+03  0.27192111066E+03  0.00000000000E+00 0. -1.
         -1    1    5    5    0  502 -0.43141007695E+01  0.27882340822E+02 -0.47828877012E+01  0.28616645679E+02  0.00000000000E+00 0.  1.
         -3    1    6    6    0  503  0.25750534829E+02  0.70135077196E+02 -0.13767382141E+02  0.75970783254E+02  0.00000000000E+00 0.  1.
<mgrwt>
<rscale>  0 0.23283209E+04</rscale>
<asrwt>0</asrwt>
<pdfrwt beam="1">  1        1 0.15956177E+00 0.23283209E+04</pdfrwt>
<pdfrwt beam="2">  1       -1 0.20103427E+00 0.23283209E+04</pdfrwt>
<totfact> 0.18899870E+00</totfact>
</mgrwt>
</event>
<event>
12    1  0.4967442E-008  0.2490522E+04  0.7818608E-02  0.8406370E-01
          1   -1    0    0  501    0  0.00000000000E+00  0.00000000000E+00  0.39907364744E+03  0.39907364744E+03  0.00000000000E+00 0. -1.
         -1   -1    0    0    0  501 -0.00000000000E+00 -0.00000000000E+00 -0.38856855142E+04  0.38856855142E+04  0.00000000000E+00 0.  1.
         23    2    1    2    0    0  0.60451082548E+03 -0.65335601921E+03 -0.47289881965E+03  0.10120612931E+04  0.91254268300E+02 0.  0.
        254    2    1    2    0    0 -0.60451082548E+03  0.65335601921E+03 -0.30137130471E+04  0.32726978685E+04  0.91420871919E+03 0.  0.
         23    2    4    4    0    0  0.98584919171E+02 -0.13041926583E+03 -0.77084473743E+03  0.79327930876E+03  0.91445510045E+02 0.  0.
         23    2    4    4    0    0 -0.70309574465E+03  0.78377528504E+03 -0.22428683096E+04  0.24794185597E+04  0.91710502256E+02 0.  0.
         13    1    3    3    0    0 -0.86772345533E+00 -0.12884649632E+02 -0.11475195410E+02  0.17275625888E+02  0.00000000000E+00 0.  1.
        -13    1    3    3    0    0  0.60537854894E+03 -0.64047136958E+03 -0.46142362424E+03  0.99478566725E+03  0.00000000000E+00 0. -1.
          2    1    5    5  502    0  0.67218287916E+02 -0.24383982945E+02 -0.21614670661E+03  0.22766702799E+03  0.00000000000E+00 0. -1.
          1    1    6    6  503    0 -0.28289451914E+03  0.24977466234E+03 -0.80893266133E+03  0.89263023782E+03  0.00000000000E+00 0. -1.
         -2    1    5    5    0  502  0.31366631254E+02 -0.10603528288E+03 -0.55469803081E+03  0.56561228077E+03  0.00000000000E+00 0.  1.
         -1    1    6    6    0  503 -0.42020122551E+03  0.53400062270E+03 -0.14339356483E+04  0.15867883219E+04  0.00000000000E+00 0.  1.
<mgrwt>
<rscale>  0 0.24905218E+04</rscale>
<asrwt>0</asrwt>
<pdfrwt beam="1">  1        1 0.61395944E-01 0.24905218E+04</pdfrwt>
<pdfrwt beam="2">  1       -1 0.59779779E+00 0.24905218E+04</pdfrwt>
<totfact> 0.23663369E-02</totfact>
</mgrwt>
</event>
<event>
12    1  0.4967442E-008  0.2041572E+04  0.7818608E-02  0.8587427E-01
          2   -1    0    0  501    0  0.00000000000E+00  0.00000000000E+00  0.66577199615E+03  0.66577199615E+03  0.00000000000E+00 0. -1.
         -2   -1    0    0    0  501 -0.00000000000E+00 -0.00000000000E+00 -0.15651066619E+04  0.15651066619E+04  0.00000000000E+00 0.  1.
         23    2    1    2    0    0 -0.60576231398E+03  0.52502759882E+03 -0.57951785054E+03  0.99357153361E+03  0.93495950450E+02 0.  0.
        254    2    1    2    0    0  0.60576231398E+03 -0.52502759882E+03 -0.31981681524E+03  0.12373071245E+04  0.88659131757E+03 0.  0.
         23    2    4    4    0    0  0.29297664401E+03 -0.31525000919E+03 -0.61060822239E+03  0.75283150689E+03  0.93246953267E+02 0.  0.
         23    2    4    4    0    0  0.31278566997E+03 -0.20977758964E+03  0.29079140714E+03  0.48447561758E+03  0.91189194026E+02 0.  0.
         13    1    3    3    0    0 -0.45011367045E+02  0.42581447910E+02 -0.79101191034E+02  0.10047985516E+03  0.00000000000E+00 0. -1.
        -13    1    3    3    0    0 -0.56075094694E+03  0.48244615091E+03 -0.50041665951E+03  0.89309167846E+03  0.00000000000E+00 0.  1.
          2    1    5    5  502    0  0.56040761817E+01  0.15852954890E+01  0.15575187875E+01  0.60286562692E+01  0.00000000000E+00 0. -1.
          4    1    6    6  503    0  0.32435195603E+02 -0.80657382258E+01  0.69153416719E+00  0.33430170003E+02  0.00000000000E+00 0. -1.
         -2    1    5    5    0  502  0.28737256783E+03 -0.31683530467E+03 -0.61216574117E+03  0.74680285062E+03  0.00000000000E+00 0.  1.
         -4    1    6    6    0  503  0.28035047437E+03 -0.20171185141E+03  0.29009987298E+03  0.45104544758E+03  0.00000000000E+00 0.  1.
<mgrwt>
<rscale>  0 0.20415721E+04</rscale>
<asrwt>0</asrwt>
<pdfrwt beam="1">  1        2 0.10242646E+00 0.20415721E+04</pdfrwt>
<pdfrwt beam="2">  1       -2 0.24078564E+00 0.20415721E+04</pdfrwt>
<totfact> 0.29590110E+00</totfact>
</mgrwt>
</event>
<event>
12    1  0.4967442E-008  0.2658222E+04  0.7818608E-02  0.8348689E-01
         -2   -1    0    0    0  501 -0.00000000000E+00  0.00000000000E+00  0.48849856213E+03  0.48849856213E+03  0.00000000000E+00 0.  1.
          2   -1    0    0  501    0  0.00000000000E+00 -0.00000000000E+00 -0.36162577525E+04  0.36162577525E+04  0.00000000000E+00 0. -1.
         23    2    1    2    0    0 -0.66255991922E+03 -0.93959613245E+02 -0.28746407171E+04  0.29529055285E+04  0.90982153405E+02 0.  0.
        254    2    1    2    0    0  0.66255991922E+03  0.93959613245E+02 -0.25311847325E+03  0.11518507861E+04  0.90270549821E+03 0.  0.
         23    2    4    4    0    0  0.21982113587E+03 -0.29671836106E+03  0.17335376334E+03  0.41769844946E+03  0.89762741998E+02 0.  0.
         23    2    4    4    0    0  0.44273878335E+03  0.39067797430E+03 -0.42647223658E+03  0.73415233666E+03  0.91946587523E+02 0.  0.
         11    1    3    3    0    0 -0.25200211109E+03  0.44661717431E+01 -0.99379957908E+03  0.10252622172E+04  0.00000000000E+00 0.  1.
        -11    1    3    3    0    0 -0.41055780813E+03 -0.98425784988E+02 -0.18808411380E+04  0.19276433112E+04  0.00000000000E+00 0. -1.
          4    1    5    5  502    0  0.12407082269E+03 -0.17849518273E+03  0.14920540933E+03  0.26365954084E+03  0.00000000000E+00 0. -1.
          1    1    6    6  503    0  0.27114925663E+03  0.23094628333E+03 -0.31093192601E+03  0.47279675102E+03  0.00000000000E+00 0. -1.
         -4    1    5    5    0  502  0.95750313181E+02 -0.11822317833E+03  0.24148354011E+02  0.15403890862E+03  0.00000000000E+00 0.  1.
         -1    1    6    6    0  503  0.17158952672E+03  0.15973169097E+03 -0.11554031057E+03  0.26135558564E+03  0.00000000000E+00 0.  1.
<mgrwt>
<rscale>  0 0.26582225E+04</rscale>
<asrwt>0</asrwt>
<pdfrwt beam="1">  1        2 0.55634735E+00 0.26582225E+04</pdfrwt>
<pdfrwt beam="2">  1       -2 0.75153624E-01 0.26582225E+04</pdfrwt>
<totfact> 0.94099217E-01</totfact>
</mgrwt>
</event>
<event>
12    1  0.4967442E-008  0.1846710E+04  0.7818608E-02  0.8681847E-01
         -1   -1    0    0    0  501 -0.00000000000E+00  0.00000000000E+00  0.35298970769E+03  0.35298970769E+03  0.00000000000E+00 0.  1.
          1   -1    0    0  501    0  0.00000000000E+00 -0.00000000000E+00 -0.24153239814E+04  0.24153239814E+04  0.00000000000E+00 0. -1.
         23    2    1    2    0    0  0.45106347162E+03  0.51332313712E+03 -0.93756370303E+03  0.11635766752E+04  0.89028552817E+02 0.  0.
        254    2    1    2    0    0 -0.45106347162E+03 -0.51332313712E+03 -0.11247705707E+04  0.16047370139E+04  0.91821193015E+03 0.  0.
         23    2    4    4    0    0  0.86942055674E+02  0.10830305358E+03 -0.60538019866E+03  0.62845183060E+03  0.95802118933E+02 0.  0.
         23    2    4    4    0    0 -0.53800552729E+03 -0.62162619070E+03 -0.51939037201E+03  0.97628518332E+03  0.86587136925E+02 0.  0.
         11    1    3    3    0    0  0.38756500802E+03  0.46099054138E+03 -0.77624491651E+03  0.98248413987E+03  0.00000000000E+00 0. -1.
        -11    1    3    3    0    0  0.63498463597E+02  0.52332595740E+02 -0.16131878651E+03  0.18109253529E+03  0.00000000000E+00 0.  1.
          2    1    5    5  502    0  0.80030536540E+02  0.67073417875E+02 -0.25448548630E+03  0.27507561307E+03  0.00000000000E+00 0. -1.
          1    1    6    6  503    0 -0.41109449311E+02 -0.38388402405E+02 -0.62992283475E+02  0.84449298631E+02  0.00000000000E+00 0. -1.
         -2    1    5    5    0  502  0.69115191343E+01  0.41229635701E+02 -0.35089471236E+03  0.35337621754E+03  0.00000000000E+00 0.  1.
         -1    1    6    6    0  503 -0.49689607798E+03 -0.58323778829E+03 -0.45639808853E+03  0.89183588469E+03  0.00000000000E+00 0.  1.
<mgrwt>
<rscale>  0 0.18467101E+04</rscale>
<asrwt>0</asrwt>
<pdfrwt beam="1">  1        1 0.37158830E+00 0.18467101E+04</pdfrwt>
<pdfrwt beam="2">  1       -1 0.54306109E-01 0.18467101E+04</pdfrwt>
<totfact> 0.49937431E+00</totfact>
</mgrwt>
</event>
<event>
12    1  0.4967442E-008  0.1444762E+04  0.7818608E-02  0.8922040E-01
          2   -1    0    0  501    0  0.00000000000E+00  0.00000000000E+00  0.27341490212E+04  0.27341490212E+04  0.00000000000E+00 0. -1.
         -2   -1    0    0    0  501 -0.00000000000E+00 -0.00000000000E+00 -0.19085812402E+03  0.19085812402E+03  0.00000000000E+00 0.  1.
         23    2    1    2    0    0  0.32165595434E+03 -0.19519307167E+03  0.27534693898E+03  0.47471292600E+03  0.89294664539E+02 0.  0.
        254    2    1    2    0    0 -0.32165595434E+03  0.19519307167E+03  0.22679439582E+04  0.24502942193E+04  0.84782608773E+03 0.  0.
         23    2    4    4    0    0 -0.21509404845E+03  0.33642614607E+03  0.40543379515E+03  0.57684154640E+03  0.94454253253E+02 0.  0.
         23    2    4    4    0    0 -0.10656190589E+03 -0.14123307440E+03  0.18625101631E+04  0.18734526729E+04  0.97870264907E+02 0.  0.
         11    1    3    3    0    0  0.24629630012E+03 -0.11242260168E+03  0.16249559581E+03  0.31576182081E+03  0.00000000000E+00 0.  1.
        -11    1    3    3    0    0  0.75359654216E+02 -0.82770469984E+02  0.11285134318E+03  0.15895110519E+03  0.00000000000E+00 0. -1.
          4    1    5    5  502    0 -0.17937525709E+03  0.32488374898E+03  0.38201572531E+03  0.53259829853E+03  0.00000000000E+00 0. -1.
          1    1    6    6  503    0 -0.80760420310E+02 -0.15347539952E+03  0.15684451205E+04  0.15780041317E+04  0.00000000000E+00 0. -1.
         -4    1    5    5    0  502 -0.35718791361E+02  0.11542397090E+02  0.23418069834E+02  0.44243247865E+02  0.00000000000E+00 0.  1.
         -1    1    6    6    0  503 -0.25801485576E+02  0.12242325119E+02  0.29406504263E+03  0.29544854117E+03  0.00000000000E+00 0.  1.
<mgrwt>
<rscale>  0 0.14447623E+04</rscale>
<asrwt>0</asrwt>
<pdfrwt beam="1">  1        2 0.42063828E+00 0.14447623E+04</pdfrwt>
<pdfrwt beam="2">  1       -2 0.29362790E-01 0.14447623E+04</pdfrwt>
<totfact> 0.26375038E+01</totfact>
</mgrwt>
</event>
<event>
12    1  0.4967442E-008  0.1657549E+04  0.7818608E-02  0.8785953E-01
          2   -1    0    0  501    0  0.00000000000E+00  0.00000000000E+00  0.23143900384E+04  0.23143900384E+04  0.00000000000E+00 0. -1.
         -2   -1    0    0    0  501 -0.00000000000E+00 -0.00000000000E+00 -0.29678109920E+03  0.29678109920E+03  0.00000000000E+00 0.  1.
         23    2    1    2    0    0 -0.24394356888E+03  0.17620854158E+03  0.14733864395E+04  0.15067562783E+04  0.94281318889E+02 0.  0.
        254    2    1    2    0    0  0.24394356888E+03 -0.17620854158E+03  0.54422249968E+03  0.11044148593E+04  0.91268622065E+03 0.  0.
         23    2    4    4    0    0  0.21974695800E+03 -0.35449478884E+03 -0.92195702891E+02  0.43674622829E+03  0.91060086911E+02 0.  0.
         23    2    4    4    0    0  0.24196610880E+02  0.17828624726E+03  0.63641820257E+03  0.66766863101E+03  0.91552227337E+02 0.  0.
         11    1    3    3    0    0 -0.22150165846E+03  0.14665818145E+03  0.13945080709E+04  0.14195859842E+04  0.00000000000E+00 0. -1.
        -11    1    3    3    0    0 -0.22441910418E+02  0.29550360127E+02  0.78878368641E+02  0.87170294059E+02  0.00000000000E+00 0.  1.
          2    1    5    5  502    0  0.14705658591E+02 -0.59503242722E+02  0.12488444070E+02  0.62552805887E+02  0.00000000000E+00 0.  1.
          1    1    6    6  503    0  0.28416451371E+02  0.16998602284E+03  0.63533353335E+03  0.65829434243E+03  0.00000000000E+00 0. -1.
         -2    1    5    5    0  502  0.20504129941E+03 -0.29499154612E+03 -0.10468414696E+03  0.37419342240E+03  0.00000000000E+00 0. -1.
         -1    1    6    6    0  503 -0.42198404913E+01  0.83002244162E+01  0.10846692210E+01  0.93742885837E+01  0.00000000000E+00 0.  1.
<mgrwt>
<rscale>  0 0.16575491E+04</rscale>
<asrwt>0</asrwt>
<pdfrwt beam="1">  1        2 0.35605999E+00 0.16575491E+04</pdfrwt>
<pdfrwt beam="2">  1       -2 0.45658632E-01 0.16575491E+04</pdfrwt>
<totfact> 0.19340084E+01</totfact>
</mgrwt>
</event>
<event>
12    1  0.4967442E-008  0.1239725E+04  0.7818608E-02  0.9078779E-01
         -1   -1    0    0    0  501 -0.00000000000E+00  0.00000000000E+00  0.14244617085E+03  0.14244617085E+03  0.00000000000E+00 0.  1.
          1   -1    0    0  501    0  0.00000000000E+00 -0.00000000000E+00 -0.26973665510E+04  0.26973665510E+04  0.00000000000E+00 0. -1.
         23    2    1    2    0    0  0.27133963214E+03  0.51970175104E+02 -0.75644305190E+03  0.81028063145E+03  0.89568498093E+02 0.  0.
        254    2    1    2    0    0 -0.27133963214E+03 -0.51970175104E+02 -0.17984773283E+04  0.20295320904E+04  0.89897369857E+03 0.  0.
         23    2    4    4    0    0 -0.10756607060E+03 -0.44868590645E+03 -0.11874449458E+04  0.12771756886E+04  0.90899604838E+02 0.  0.
         23    2    4    4    0    0 -0.16377356153E+03  0.39671573135E+03 -0.61103238252E+03  0.75235640184E+03  0.92056677877E+02 0.  0.
         13    1    3    3    0    0  0.26227601559E+03  0.60720316825E+02 -0.65662024361E+03  0.70966598449E+03  0.00000000000E+00 0.  1.
        -13    1    3    3    0    0  0.90636165461E+01 -0.87501417218E+01 -0.99822808297E+02  0.10061464695E+03  0.00000000000E+00 0. -1.
          1    1    5    5  502    0 -0.81849347893E+01 -0.26477466931E+02 -0.28638524692E+02  0.39852409075E+02  0.00000000000E+00 0. -1.
          3    1    6    6  503    0 -0.68810605514E+02  0.68012845524E+02 -0.13976158053E+03  0.16998219312E+03  0.00000000000E+00 0. -1.
         -1    1    5    5    0  502 -0.99381135815E+02 -0.42220843952E+03 -0.11588064211E+04  0.12373232795E+04  0.00000000000E+00 0.  1.
         -3    1    6    6    0  503 -0.94962956020E+02  0.32870288582E+03 -0.47127080199E+03  0.58237420871E+03  0.00000000000E+00 0.  1.
<mgrwt>
<rscale>  0 0.12397250E+04</rscale>
<asrwt>0</asrwt>
<pdfrwt beam="1">  1        1 0.41497942E+00 0.12397250E+04</pdfrwt>
<pdfrwt beam="2">  1       -1 0.21914798E-01 0.12397250E+04</pdfrwt>
<totfact> 0.17188678E+01</totfact>
</mgrwt>
</event>
<event>
12    1  0.4967442E-008  0.2274395E+04  0.7818608E-02  0.8488086E-01
         -1   -1    0    0    0  501 -0.00000000000E+00  0.00000000000E+00  0.10481103627E+04  0.10481103627E+04  0.00000000000E+00 0.  1.
          1   -1    0    0  501    0  0.00000000000E+00 -0.00000000000E+00 -0.12338569046E+04  0.12338569046E+04  0.00000000000E+00 0. -1.
         23    2    1    2    0    0  0.63292236448E+03  0.47444556551E+03  0.46221635352E+03  0.92087701660E+03  0.93173001122E+02 0.  0.
        254    2    1    2    0    0 -0.63292236448E+03 -0.47444556551E+03 -0.64796289535E+03  0.13610902507E+04  0.89834372188E+03 0.  0.
         23    2    4    4    0    0  0.12884407340E+01 -0.53148271574E+03 -0.19195980735E+03  0.57260345521E+03  0.92469519691E+02 0.  0.
         23    2    4    4    0    0 -0.63421080522E+03  0.57037150223E+02 -0.45600308800E+03  0.78848679547E+03  0.91082536235E+02 0.  0.
         11    1    3    3    0    0  0.71313923389E+02  0.88624720560E+02  0.47874196534E+02  0.12341780851E+03  0.00000000000E+00 0. -1.
        -11    1    3    3    0    0  0.56160844109E+03  0.38582084495E+03  0.41434215699E+03  0.79745920809E+03  0.00000000000E+00 0.  1.
          1    1    5    5  502    0 -0.29621732441E+02 -0.36790307752E+03 -0.16361762194E+03  0.40373363458E+03  0.00000000000E+00 0. -1.
          1    1    6    6  503    0 -0.46399223589E+03  0.30513046840E+02 -0.37856697715E+03  0.59961053792E+03  0.00000000000E+00 0. -1.
         -1    1    5    5    0  502  0.30910173175E+02 -0.16357963822E+03 -0.28342185404E+02  0.16886982063E+03  0.00000000000E+00 0.  1.
         -1    1    6    6    0  503 -0.17021856933E+03  0.26524103383E+02 -0.77436110854E+02  0.18887625755E+03  0.00000000000E+00 0.  1.
<mgrwt>
<rscale>  0 0.22743950E+04</rscale>
<asrwt>0</asrwt>
<pdfrwt beam="1">  1        1 0.18982414E+00 0.22743950E+04</pdfrwt>
<pdfrwt beam="2">  1       -1 0.16124775E+00 0.22743950E+04</pdfrwt>
<totfact> 0.26152454E+00</totfact>
</mgrwt>
</event>
<event>
12    1  0.4967442E-008  0.1401015E+04  0.7818608E-02  0.8953084E-01
          2   -1    0    0  501    0  0.00000000000E+00  0.00000000000E+00  0.23822643014E+04  0.23822643014E+04  0.00000000000E+00 0. -1.
         -2   -1    0    0    0  501 -0.00000000000E+00 -0.00000000000E+00 -0.20598496026E+03  0.20598496026E+03  0.00000000000E+00 0.  1.
         23    2    1    2    0    0  0.19372747158E+03 -0.20737150390E+02 -0.65551173972E+01  0.21686425082E+03  0.95009320964E+02 0.  0.
        254    2    1    2    0    0 -0.19372747158E+03  0.20737150390E+02  0.21828344585E+04  0.23713850108E+04  0.90594714725E+03 0.  0.
         23    2    4    4    0    0  0.27538314215E+03 -0.24275633231E+03  0.99641106937E+03  0.10656435895E+04  0.89413247564E+02 0.  0.
         23    2    4    4    0    0 -0.46911061373E+03  0.26349348270E+03  0.11864233892E+04  0.13057414213E+04  0.88693955123E+02 0.  0.
         13    1    3    3    0    0  0.11478334514E+03  0.26715760762E+02  0.23111497328E+02  0.12009616773E+03  0.00000000000E+00 0. -1.
        -13    1    3    3    0    0  0.78944126432E+02 -0.47452911152E+02 -0.29666614725E+02  0.96768083086E+02  0.00000000000E+00 0.  1.
          2    1    5    5  502    0 -0.21383926547E+01 -0.46076619428E+01  0.62201417306E+02  0.62408489700E+02  0.00000000000E+00 0. -1.
          4    1    6    6  503    0 -0.10662079664E+03  0.10020001801E+03  0.27879867985E+03  0.31485987641E+03  0.00000000000E+00 0. -1.
         -2    1    5    5    0  502  0.27752153481E+03 -0.23814867037E+03  0.93420965207E+03  0.10032350998E+04  0.00000000000E+00 0.  1.
         -4    1    6    6    0  503 -0.36248981709E+03  0.16329346469E+03  0.90762470931E+03  0.99088154491E+03  0.00000000000E+00 0.  1.
<mgrwt>
<rscale>  0 0.14010148E+04</rscale>
<asrwt>0</asrwt>
<pdfrwt beam="1">  1        2 0.36650218E+00 0.14010148E+04</pdfrwt>
<pdfrwt beam="2">  1       -2 0.31689995E-01 0.14010148E+04</pdfrwt>
<totfact> 0.36745889E+01</totfact>
</mgrwt>
</event>
<event>
12    1  0.4967442E-008  0.1546076E+04  0.7818608E-02  0.8854378E-01
          2   -1    0    0  501    0  0.00000000000E+00  0.00000000000E+00  0.32366097670E+04  0.32366097670E+04  0.00000000000E+00 0. -1.
         -2   -1    0    0    0  501 -0.00000000000E+00 -0.00000000000E+00 -0.18463385417E+03  0.18463385417E+03  0.00000000000E+00 0.  1.
         23    2    1    2    0    0  0.22771533219E+03 -0.42917432964E+03  0.13162133648E+04  0.14059965318E+04  0.91453529272E+02 0.  0.
        254    2    1    2    0    0 -0.22771533219E+03  0.42917432964E+03  0.17357625480E+04  0.20152470894E+04  0.90127927433E+03 0.  0.
         23    2    4    4    0    0 -0.55759395348E+03  0.33171389371E+03  0.12639768279E+04  0.14236621425E+04  0.90726789224E+02 0.  0.
         23    2    4    4    0    0  0.32987862129E+03  0.97460435926E+02  0.47178572007E+03  0.59158494682E+03  0.95249893869E+02 0.  0.
         13    1    3    3    0    0  0.20269252221E+03 -0.41376068549E+03  0.11824575216E+04  0.12690500202E+04  0.00000000000E+00 0. -1.
        -13    1    3    3    0    0  0.25022809982E+02 -0.15413644149E+02  0.13375584318E+03  0.13694651157E+03  0.00000000000E+00 0.  1.
          1    1    5    5  502    0 -0.43054455738E+03  0.22031717931E+03  0.98893841676E+03  0.11008666893E+04  0.00000000000E+00 0. -1.
          1    1    6    6  503    0  0.24657637136E+03  0.29618566434E+02  0.30705344263E+03  0.39491642537E+03  0.00000000000E+00 0. -1.
         -1    1    5    5    0  502 -0.12704939610E+03  0.11139671440E+03  0.27503841119E+03  0.32279545328E+03  0.00000000000E+00 0.  1.
         -1    1    6    6    0  503  0.83302249927E+02  0.67841869492E+02  0.16473227744E+03  0.19666852145E+03  0.00000000000E+00 0.  1.
<mgrwt>
<rscale>  0 0.15460760E+04</rscale>
<asrwt>0</asrwt>
<pdfrwt beam="1">  1        2 0.49793992E+00 0.15460760E+04</pdfrwt>
<pdfrwt beam="2">  1       -2 0.28405211E-01 0.15460760E+04</pdfrwt>
<totfact> 0.13537541E+01</totfact>
</mgrwt>
</event>
<event>
12    1  0.4967442E-008  0.1555042E+04  0.7818608E-02  0.8848654E-01
         -2   -1    0    0    0  501 -0.00000000000E+00  0.00000000000E+00  0.13651598616E+03  0.13651598616E+03  0.00000000000E+00 0.  1.
          2   -1    0    0  501    0  0.00000000000E+00 -0.00000000000E+00 -0.44283354617E+04  0.44283354617E+04  0.00000000000E+00 0. -1.
         23    2    1    2    0    0  0.20271566011E+03  0.20244311861E+03 -0.26578637301E+04  0.26746958100E+04  0.87642530524E+02 0.  0.
        254    2    1    2    0    0 -0.20271566011E+03 -0.20244311861E+03 -0.16339557455E+04  0.18901556379E+04  0.90598018860E+03 0.  0.
         23    2    4    4    0    0 -0.25843361162E+03 -0.38776553192E+03 -0.16097757909E+04  0.16782808091E+04  0.89990766411E+02 0.  0.
         23    2    4    4    0    0  0.55717951513E+02  0.18532241331E+03 -0.24179954630E+02  0.21187482879E+03  0.82809334435E+02 0.  0.
         11    1    3    3    0    0  0.69194089240E+02  0.75307335510E+02 -0.13546983876E+04  0.13585531783E+04  0.00000000000E+00 0. -1.
        -11    1    3    3    0    0  0.13352157087E+03  0.12713578310E+03 -0.13031653425E+04  0.13161426317E+04  0.00000000000E+00 0.  1.
          1    1    6    6  502    0  0.76631081431E+02  0.15476521553E+03 -0.12958608901E+02  0.17318348687E+03  0.00000000000E+00 0. -1.
          1    1    5    5  503    0 -0.19850446212E+03 -0.31917938470E+03 -0.14001366982E+04  0.14497111005E+04  0.00000000000E+00 0. -1.
         -1    1    5    5    0  503 -0.59929149498E+02 -0.68586147222E+02 -0.20963909264E+03  0.22856970865E+03  0.00000000000E+00 0.  1.
         -1    1    6    6    0  502 -0.20913129918E+02  0.30557197786E+02 -0.11221345729E+02  0.38691341919E+02  0.00000000000E+00 0.  1.
<mgrwt>
<rscale>  0 0.15550416E+04</rscale>
<asrwt>0</asrwt>
<pdfrwt beam="1">  1        2 0.68128233E+00 0.15550416E+04</pdfrwt>
<pdfrwt beam="2">  1       -2 0.21002461E-01 0.15550416E+04</pdfrwt>
<totfact> 0.28083036E+00</totfact>
</mgrwt>
</event>
<event>
12    1  0.4967442E-008  0.1466470E+04  0.7818608E-02  0.8907061E-01
          2   -1    0    0  501    0  0.00000000000E+00  0.00000000000E+00  0.18247065177E+04  0.18247065177E+04  0.00000000000E+00 0. -1.
         -2   -1    0    0    0  501 -0.00000000000E+00 -0.00000000000E+00 -0.29464118916E+03  0.29464118916E+03  0.00000000000E+00 0.  1.
         23    2    1    2    0    0  0.25506051646E+03  0.34451163983E+03  0.87105726391E+03  0.97512600971E+03  0.91574236379E+02 0.  0.
        254    2    1    2    0    0 -0.25506051646E+03 -0.34451163983E+03  0.65900806464E+03  0.11442216971E+04  0.83138891377E+03 0.  0.
         23    2    4    4    0    0  0.21987023470E+03 -0.27704421997E+03  0.51985568092E+03  0.63527574771E+03  0.90713431793E+02 0.  0.
         23    2    4    4    0    0 -0.47493075116E+03 -0.67467419858E+02  0.13915238371E+03  0.50894594944E+03  0.97731890513E+02 0.  0.
         13    1    3    3    0    0  0.38318736099E+02  0.40113542778E+02  0.57728995483E+02  0.80062842629E+02  0.00000000000E+00 0.  1.
        -13    1    3    3    0    0  0.21674178036E+03  0.30439809705E+03  0.81332826843E+03  0.89506316708E+03  0.00000000000E+00 0. -1.
          1    1    5    5  502    0  0.10192932446E+03 -0.11931711866E+03  0.31013306504E+03  0.34757543070E+03  0.00000000000E+00 0. -1.
          1    1    6    6  503    0 -0.10941734017E+03 -0.17472435875E+02 -0.94909872411E+01  0.11120934845E+03  0.00000000000E+00 0. -1.
         -1    1    5    5    0  502  0.11794091023E+03 -0.15772710131E+03  0.20972261588E+03  0.28770031701E+03  0.00000000000E+00 0.  1.
         -1    1    6    6    0  503 -0.36551341099E+03 -0.49994983982E+02  0.14864337095E+03  0.39773660099E+03  0.00000000000E+00 0.  1.
<mgrwt>
<rscale>  0 0.14664702E+04</rscale>
<asrwt>0</asrwt>
<pdfrwt beam="1">  1        2 0.28072407E+00 0.14664702E+04</pdfrwt>
<pdfrwt beam="2">  1       -2 0.45329415E-01 0.14664702E+04</pdfrwt>
<totfact> 0.37375545E+01</totfact>
</mgrwt>
</event>
<event>
12    1  0.4967442E-008  0.3221666E+04  0.7818608E-02  0.8183119E-01
          1   -1    0    0  501    0  0.00000000000E+00  0.00000000000E+00  0.15181656818E+04  0.15181656818E+04  0.00000000000E+00 0. -1.
         -1   -1    0    0    0  501 -0.00000000000E+00 -0.00000000000E+00 -0.17091567269E+04  0.17091567269E+04  0.00000000000E+00 0.  1.
         23    2    1    2    0    0 -0.10887544912E+04  0.37233851049E+03 -0.10159698857E+04  0.15392060995E+04  0.11374664689E+03 0.  0.
        254    2    1    2    0    0  0.10887544912E+04 -0.37233851049E+03  0.82497884056E+03  0.16881163092E+04  0.91930641121E+03 0.  0.
         23    2    4    4    0    0  0.38984409843E+03  0.29867270147E+03  0.28498663840E+03  0.57520475727E+03  0.91974589082E+02 0.  0.
         23    2    4    4    0    0  0.69891039276E+03 -0.67101121196E+03  0.53999220216E+03  0.11129115520E+04  0.90822686879E+02 0.  0.
         13    1    3    3    0    0 -0.80201479994E+03  0.26160104487E+03 -0.67734379514E+03  0.10818768242E+04  0.00000000000E+00 0.  1.
        -13    1    3    3    0    0 -0.28673969125E+03  0.11073746562E+03 -0.33862609054E+03  0.45732927528E+03  0.00000000000E+00 0. -1.
          2    1    5    5  502    0  0.28496330858E+03  0.20293542095E+03  0.15480992432E+03  0.38256108660E+03  0.00000000000E+00 0. -1.
          4    1    6    6  503    0  0.97935020727E+02 -0.54458788232E+02  0.57707335968E+02  0.12604429588E+03  0.00000000000E+00 0.  1.
         -2    1    5    5    0  502  0.10488078985E+03  0.95737280519E+02  0.13017671408E+03  0.19264367067E+03  0.00000000000E+00 0.  1.
         -4    1    6    6    0  503  0.60097537203E+03 -0.61655242372E+03  0.48228486619E+03  0.98686725609E+03  0.00000000000E+00 0. -1.
<mgrwt>
<rscale>  0 0.32216661E+04</rscale>
<asrwt>0</asrwt>
<pdfrwt beam="1">  1        1 0.23356395E+00 0.32216661E+04</pdfrwt>
<pdfrwt beam="2">  1       -1 0.26294719E+00 0.32216661E+04</pdfrwt>
<totfact> 0.30467654E-01</totfact>
</mgrwt>
</event>
<event>
12    1  0.4967442E-008  0.1474353E+04  0.7818608E-02  0.8901689E-01
         -4   -1    0    0    0  501 -0.00000000000E+00  0.00000000000E+00  0.14695675471E+04  0.14695675471E+04  0.00000000000E+00 0.  1.
          4   -1    0    0  501    0  0.00000000000E+00 -0.00000000000E+00 -0.36978847951E+03  0.36978847951E+03  0.00000000000E+00 0. -1.
         23    2    1    2    0    0  0.21046447503E+03  0.37138720910E+03  0.14129542860E+03  0.45850179826E+03  0.89642325589E+02 0.  0.
        254    2    1    2    0    0 -0.21046447503E+03 -0.37138720910E+03  0.95848363903E+03  0.13808542284E+04  0.89768800785E+03 0.  0.
         23    2    4    4    0    0 -0.20741902533E+03 -0.13735943899E+03 -0.10704910416E+03  0.28603976262E+03  0.92026993582E+02 0.  0.
         23    2    4    4    0    0 -0.30454496940E+01 -0.23402777011E+03  0.10655327432E+04  0.10948144658E+04  0.92089172562E+02 0.  0.
         11    1    3    3    0    0  0.98401623333E+01  0.23542785316E+02 -0.12611762681E+02  0.28463100553E+02  0.00000000000E+00 0.  1.
        -11    1    3    3    0    0  0.20062431269E+03  0.34784442378E+03  0.15390719128E+03  0.43003869771E+03  0.00000000000E+00 0. -1.
          4    1    5    5  502    0 -0.85267264147E+02 -0.32464407719E+02 -0.82812016290E+02  0.12321637126E+03  0.00000000000E+00 0.  1.
          3    1    6    6  503    0 -0.29762488201E+02 -0.28531220841E+02  0.24934987754E+03  0.25273543024E+03  0.00000000000E+00 0. -1.
         -4    1    5    5    0  502 -0.12215176118E+03 -0.10489503127E+03 -0.24237087869E+02  0.16282339136E+03  0.00000000000E+00 0. -1.
         -3    1    6    6    0  503  0.26717038507E+02 -0.20549654927E+03  0.81618286565E+03  0.84207903554E+03  0.00000000000E+00 0.  1.
<mgrwt>
<rscale>  0 0.14743529E+04</rscale>
<asrwt>0</asrwt>
<pdfrwt beam="1">  1        4 0.56890536E-01 0.14743529E+04</pdfrwt>
<pdfrwt beam="2">  1       -4 0.22608731E+00 0.14743529E+04</pdfrwt>
<totfact> 0.50818174E-01</totfact>
</mgrwt>
</event>
<event>
12    1  0.4967442E-008  0.1725587E+04  0.7818608E-02  0.8746904E-01
          2   -1    0    0  501    0  0.00000000000E+00  0.00000000000E+00  0.22452675280E+04  0.22452675280E+04  0.00000000000E+00 0. -1.
         -2   -1    0    0    0  501 -0.00000000000E+00 -0.00000000000E+00 -0.33154730113E+03  0.33154730113E+03  0.00000000000E+00 0.  1.
         23    2    1    2    0    0  0.34273895294E+03  0.25077534612E+03  0.10662650786E+02  0.43445246356E+03  0.90977947285E+02 0.  0.
        254    2    1    2    0    0 -0.34273895294E+03 -0.25077534612E+03  0.19030575761E+04  0.21423623656E+04  0.88754160659E+03 0.  0.
         23    2    4    4    0    0 -0.36033293621E+03  0.23403313877E+03  0.12319900226E+04  0.13079562707E+04  0.91317333286E+02 0.  0.
         23    2    4    4    0    0  0.17593983274E+02 -0.48480848488E+03  0.67106755357E+03  0.83440609493E+03  0.10272806113E+03 0.  0.
         13    1    3    3    0    0  0.10657418792E+03  0.83107275874E+02  0.45800269619E+02  0.14269737745E+03  0.00000000000E+00 0. -1.
        -13    1    3    3    0    0  0.23616476501E+03  0.16766807024E+03 -0.35137618833E+02  0.29175508611E+03  0.00000000000E+00 0.  1.
          4    1    5    5  502    0 -0.30674834705E+03  0.16606772721E+03  0.10502408521E+04  0.11066521070E+04  0.00000000000E+00 0. -1.
          1    1    6    6  503    0  0.33029327685E+02 -0.47737280609E+03  0.65230661123E+03  0.80899916411E+03  0.00000000000E+00 0. -1.
         -4    1    5    5    0  502 -0.53584589161E+02  0.67965411557E+02  0.18174917046E+03  0.20130416371E+03  0.00000000000E+00 0.  1.
         -1    1    6    6    0  503 -0.15435344410E+02 -0.74356787955E+01  0.18760942335E+02  0.25406930817E+02  0.00000000000E+00 0.  1.
<mgrwt>
<rscale>  0 0.17255867E+04</rscale>
<asrwt>0</asrwt>
<pdfrwt beam="1">  1        2 0.34542576E+00 0.17255867E+04</pdfrwt>
<pdfrwt beam="2">  1       -2 0.51007279E-01 0.17255867E+04</pdfrwt>
<totfact> 0.16807421E+01</totfact>
</mgrwt>
</event>
<event>
12    1  0.4967442E-008  0.1500494E+04  0.7818608E-02  0.8884125E-01
          1   -1    0    0  501    0  0.00000000000E+00  0.00000000000E+00  0.63290640656E+03  0.63290640656E+03  0.00000000000E+00 0. -1.
         -1   -1    0    0    0  501 -0.00000000000E+00 -0.00000000000E+00 -0.88934201666E+03  0.88934201666E+03  0.00000000000E+00 0.  1.
         23    2    1    2    0    0 -0.46478341651E+03  0.12233973433E+03 -0.10702672871E+03  0.50110217279E+03  0.93048546825E+02 0.  0.
        254    2    1    2    0    0  0.46478341651E+03 -0.12233973433E+03 -0.14940888140E+03  0.10211462504E+04  0.88849649187E+03 0.  0.
         23    2    4    4    0    0  0.56734819506E+03 -0.34749682716E+03 -0.28031871566E+03  0.72756803700E+03  0.90214448927E+02 0.  0.
         23    2    4    4    0    0 -0.10256477855E+03  0.22515709283E+03  0.13090983426E+03  0.29357821342E+03  0.88518542898E+02 0.  0.
         11    1    3    3    0    0 -0.37189219774E+03  0.65003990589E+02 -0.10524752370E+03  0.39192648134E+03  0.00000000000E+00 0. -1.
        -11    1    3    3    0    0 -0.92891218768E+02  0.57335743736E+02 -0.17792050138E+01  0.10917569145E+03  0.00000000000E+00 0.  1.
          2    1    5    5  502    0  0.22104437774E+03 -0.18381661958E+03 -0.10187063155E+03  0.30500293792E+03  0.00000000000E+00 0. -1.
          2    1    6    6  503    0 -0.83353043275E+02  0.18888575022E+03  0.65949041887E+02  0.21673678180E+03  0.00000000000E+00 0. -1.
         -2    1    5    5    0  502  0.34630381732E+03 -0.16368020757E+03 -0.17844808412E+03  0.42256509909E+03  0.00000000000E+00 0.  1.
         -2    1    6    6    0  503 -0.19211735279E+02  0.36271342610E+02  0.64960792377E+02  0.76841431620E+02  0.00000000000E+00 0.  1.
<mgrwt>
<rscale>  0 0.15004936E+04</rscale>
<asrwt>0</asrwt>
<pdfrwt beam="1">  1        1 0.97370216E-01 0.15004936E+04</pdfrwt>
<pdfrwt beam="2">  1       -1 0.13682185E+00 0.15004936E+04</pdfrwt>
<totfact> 0.13639786E+01</totfact>
</mgrwt>
</event>
<event>
12    1  0.4967442E-008  0.1487347E+04  0.7818608E-02  0.8892911E-01
         -2   -1    0    0    0  501 -0.00000000000E+00  0.00000000000E+00  0.40194232046E+03  0.40194232046E+03  0.00000000000E+00 0.  1.
          2   -1    0    0  501    0  0.00000000000E+00 -0.00000000000E+00 -0.13759440278E+04  0.13759440278E+04  0.00000000000E+00 0. -1.
         23    2    1    2    0    0  0.15321117667E+02  0.22320040470E+03  0.17295493626E+03  0.29727710186E+03  0.91690283058E+02 0.  0.
        254    2    1    2    0    0 -0.15321117667E+02 -0.22320040470E+03 -0.11469566436E+04  0.14806092464E+04  0.90919802074E+03 0.  0.
         23    2    4    4    0    0 -0.31472645319E+03  0.18962274276E+03 -0.28161006363E+03  0.47198877727E+03  0.91976372071E+02 0.  0.
         23    2    4    4    0    0  0.29940533553E+03 -0.41282314746E+03 -0.86534657999E+03  0.10086204691E+04  0.91782575972E+02 0.  0.
         11    1    3    3    0    0 -0.29201676245E+02  0.14467634891E+03  0.80739548605E+02  0.16823453432E+03  0.00000000000E+00 0.  1.
        -11    1    3    3    0    0  0.44522793912E+02  0.78524055783E+02  0.92215387658E+02  0.12904256753E+03  0.00000000000E+00 0. -1.
          4    1    5    5  502    0 -0.12989624223E+03  0.43654844094E+02 -0.63670919825E+02  0.15110514614E+03  0.00000000000E+00 0. -1.
          3    1    6    6  503    0 -0.35018079770E+01 -0.77307904609E+01 -0.32477718420E+01  0.90871228778E+01  0.00000000000E+00 0. -1.
         -4    1    5    5    0  502 -0.18483021097E+03  0.14596789867E+03 -0.21793914380E+03  0.32088363113E+03  0.00000000000E+00 0.  1.
         -3    1    6    6    0  503  0.30290714350E+03 -0.40509235700E+03 -0.86209880815E+03  0.99953334627E+03  0.00000000000E+00 0.  1.
<mgrwt>
<rscale>  0 0.14873468E+04</rscale>
<asrwt>0</asrwt>
<pdfrwt beam="1">  1        2 0.21168369E+00 0.14873468E+04</pdfrwt>
<pdfrwt beam="2">  1       -2 0.61837283E-01 0.14873468E+04</pdfrwt>
<totfact> 0.35092217E+01</totfact>
</mgrwt>
</event>
<event>
12    1  0.4967442E-008  0.2939134E+04  0.7818608E-02  0.8261328E-01
         -2   -1    0    0    0  501 -0.00000000000E+00  0.00000000000E+00  0.10546866005E+04  0.10546866005E+04  0.00000000000E+00 0. -1.
          2   -1    0    0  501    0  0.00000000000E+00 -0.00000000000E+00 -0.20476484950E+04  0.20476484950E+04  0.00000000000E+00 0.  1.
         23    2    1    2    0    0 -0.89654435628E+03 -0.62988960328E+03 -0.12402693803E+04  0.16575044691E+04  0.92196714789E+02 0.  0.
        254    2    1    2    0    0  0.89654435628E+03  0.62988960328E+03  0.24730748593E+03  0.14448306264E+04  0.90874740785E+03 0.  0.
         23    2    4    4    0    0  0.53296556345E+03  0.25598598861E+03 -0.31200768173E+03  0.67458934007E+03  0.90226748183E+02 0.  0.
         23    2    4    4    0    0  0.36357879283E+03  0.37390361467E+03  0.55931516765E+03  0.77024128633E+03  0.91895216060E+02 0.  0.
         11    1    3    3    0    0 -0.62009798334E+03 -0.48193493963E+03 -0.86003373043E+03  0.11646633902E+04  0.00000000000E+00 0.  1.
        -11    1    3    3    0    0 -0.27644637294E+03 -0.14795466366E+03 -0.38023564992E+03  0.49284107893E+03  0.00000000000E+00 0. -1.
          3    1    6    6  502    0  0.29395008171E+03  0.33842330691E+03  0.44391429661E+03  0.63086994534E+03  0.00000000000E+00 0.  1.
          3    1    5    5  503    0  0.82137379186E+02  0.17385371073E+02 -0.73167924678E+02  0.11136581786E+03  0.00000000000E+00 0. -1.
         -3    1    5    5    0  503  0.45082818427E+03  0.23860061754E+03 -0.23883975705E+03  0.56322352220E+03  0.00000000000E+00 0.  1.
         -3    1    6    6    0  502  0.69628711120E+02  0.35480307759E+02  0.11540087104E+03  0.13937134098E+03  0.00000000000E+00 0. -1.
<mgrwt>
<rscale>  0 0.29391342E+04</rscale>
<asrwt>0</asrwt>
<pdfrwt beam="1">  1        2 0.31502285E+00 0.29391342E+04</pdfrwt>
<pdfrwt beam="2">  1       -2 0.16225948E+00 0.29391342E+04</pdfrwt>
<totfact> 0.13108598E+00</totfact>
</mgrwt>
</event>
<event>
12    1  0.4967442E-008  0.2775120E+04  0.7818608E-02  0.8311035E-01
         -2   -1    0    0    0  501 -0.00000000000E+00  0.00000000000E+00  0.12589703173E+04  0.12589703173E+04  0.00000000000E+00 0.  1.
          2   -1    0    0  501    0  0.00000000000E+00 -0.00000000000E+00 -0.15292833422E+04  0.15292833422E+04  0.00000000000E+00 0. -1.
         23    2    1    2    0    0 -0.57669294790E+03  0.83278730195E+03  0.59638219704E+03  0.11787211374E+04  0.87191446625E+02 0.  0.
        254    2    1    2    0    0  0.57669294790E+03 -0.83278730195E+03 -0.86669522190E+03  0.16095325221E+04  0.90184526690E+03 0.  0.
         23    2    4    4    0    0  0.66971464450E+03 -0.19838400915E+03 -0.51546943627E+03  0.87283356493E+03  0.90861279973E+02 0.  0.
         23    2    4    4    0    0 -0.93021696596E+02 -0.63440329280E+03 -0.35122578563E+03  0.73669895712E+03  0.90803232235E+02 0.  0.
         13    1    3    3    0    0 -0.35989835353E+03  0.56117501029E+03  0.35214386589E+03  0.75395591339E+03  0.00000000000E+00 0. -1.
        -13    1    3    3    0    0 -0.21679459437E+03  0.27161229165E+03  0.24423833115E+03  0.42476522401E+03  0.00000000000E+00 0.  1.
          2    1    5    5  502    0  0.66419288662E+03 -0.19895981767E+03 -0.51915056169E+03  0.86617233008E+03  0.00000000000E+00 0. -1.
          4    1    6    6  503    0 -0.94666430142E+02 -0.63148698864E+03 -0.33686416655E+03  0.72195222593E+03  0.00000000000E+00 0. -1.
         -2    1    5    5    0  502  0.55217578740E+01  0.57580852442E+00  0.36811254141E+01  0.66612348547E+01  0.00000000000E+00 0.  1.
         -4    1    6    6    0  503  0.16447335459E+01 -0.29163041605E+01 -0.14361619080E+02  0.14746731197E+02  0.00000000000E+00 0.  1.
<mgrwt>
<rscale>  0 0.27751197E+04</rscale>
<asrwt>0</asrwt>
<pdfrwt beam="1">  1        2 0.23527436E+00 0.27751197E+04</pdfrwt>
<pdfrwt beam="2">  1       -2 0.19368774E+00 0.27751197E+04</pdfrwt>
<totfact> 0.15604464E+00</totfact>
</mgrwt>
</event>
<event>
12    1  0.4967442E-008  0.1773903E+04  0.7818608E-02  0.8720302E-01
          2   -1    0    0  501    0  0.00000000000E+00  0.00000000000E+00  0.36261068769E+04  0.36261068769E+04  0.00000000000E+00 0. -1.
         -2   -1    0    0    0  501 -0.00000000000E+00 -0.00000000000E+00 -0.21694980294E+03  0.21694980294E+03  0.00000000000E+00 0.  1.
         23    2    1    2    0    0  0.49649991448E+03  0.37519782378E+03  0.17072214870E+04  0.18194942795E+04  0.93105614685E+02 0.  0.
        254    2    1    2    0    0 -0.49649991448E+03 -0.37519782378E+03  0.17019355870E+04  0.20235624003E+04  0.90051900245E+03 0.  0.
         23    2    4    4    0    0 -0.24952695300E+03 -0.11234490052E+02  0.28451655535E+01  0.26621109912E+03  0.92034451647E+02 0.  0.
         23    2    4    4    0    0 -0.24697296148E+03 -0.36396333373E+03  0.16990904214E+04  0.17573513012E+04  0.88940337819E+02 0.  0.
         11    1    3    3    0    0  0.44845426144E+03  0.29840342079E+03  0.14631052033E+04  0.15591127804E+04  0.00000000000E+00 0.  1.
        -11    1    3    3    0    0  0.48045653039E+02  0.76794402992E+02  0.24411628365E+03  0.26038149906E+03  0.00000000000E+00 0. -1.
          1    1    5    5  502    0 -0.17607513230E+03  0.45689606761E+01 -0.38730328817E+02  0.18034235771E+03  0.00000000000E+00 0. -1.
          1    1    6    6  503    0 -0.10377943862E+03 -0.20016768456E+03  0.10040911588E+04  0.10290949077E+04  0.00000000000E+00 0. -1.
         -1    1    5    5    0  502 -0.73451820701E+02 -0.15803450728E+02  0.41575494371E+02  0.85868741410E+02  0.00000000000E+00 0.  1.
         -1    1    6    6    0  503 -0.14319352286E+03 -0.16379564917E+03  0.69499926257E+03  0.72825639348E+03  0.00000000000E+00 0.  1.
<mgrwt>
<rscale>  0 0.17739032E+04</rscale>
<asrwt>0</asrwt>
<pdfrwt beam="1">  1        2 0.55786255E+00 0.17739032E+04</pdfrwt>
<pdfrwt beam="2">  1       -2 0.33376895E-01 0.17739032E+04</pdfrwt>
<totfact> 0.52989624E+00</totfact>
</mgrwt>
</event>
<event>
12    1  0.4967442E-008  0.1882510E+04  0.7818608E-02  0.8663611E-01
          1   -1    0    0  501    0  0.00000000000E+00  0.00000000000E+00  0.14284926510E+04  0.14284926510E+04  0.00000000000E+00 0. -1.
         -1   -1    0    0    0  501 -0.00000000000E+00 -0.00000000000E+00 -0.62020715118E+03  0.62020715118E+03  0.00000000000E+00 0.  1.
         23    2    1    2    0    0  0.28270766428E+03 -0.39107078665E+03  0.89473884024E+03  0.10206065358E+04  0.90664904880E+02 0.  0.
        254    2    1    2    0    0 -0.28270766428E+03  0.39107078665E+03 -0.86453340391E+02  0.10280932665E+04  0.90368224551E+03 0.  0.
         23    2    4    4    0    0 -0.20293473823E+01 -0.23739715822E+03 -0.20136508988E+03  0.32430275754E+03  0.90900220822E+02 0.  0.
         23    2    4    4    0    0 -0.28067831690E+03  0.62846794487E+03  0.11491174949E+03  0.70379050891E+03  0.91455426073E+02 0.  0.
         13    1    3    3    0    0  0.48329185923E+02 -0.32174121326E+02  0.68502209780E+02  0.89796642698E+02  0.00000000000E+00 0.  1.
        -13    1    3    3    0    0  0.23437847835E+03 -0.35889666533E+03  0.82623663046E+03  0.93080989306E+03  0.00000000000E+00 0. -1.
          2    1    5    5  502    0  0.36889064850E+02 -0.18657253375E+03 -0.15217369933E+03  0.24357123849E+03  0.00000000000E+00 0. -1.
          1    1    6    6  503    0 -0.28384155623E+03  0.62736638459E+03  0.10923513562E+03  0.69719934338E+03  0.00000000000E+00 0. -1.
         -2    1    5    5    0  502 -0.38918412232E+02 -0.50824624474E+02 -0.49191390546E+02  0.80731519046E+02  0.00000000000E+00 0.  1.
         -1    1    6    6    0  503  0.31632393359E+01  0.11015602884E+01  0.56766138644E+01  0.65911655366E+01  0.00000000000E+00 0.  1.
<mgrwt>
<rscale>  0 0.18825104E+04</rscale>
<asrwt>0</asrwt>
<pdfrwt beam="1">  1        1 0.21976810E+00 0.18825104E+04</pdfrwt>
<pdfrwt beam="2">  1       -1 0.95416485E-01 0.18825104E+04</pdfrwt>
<totfact> 0.72892581E+00</totfact>
</mgrwt>
</event>
<event>
12    1  0.4967442E-008  0.2406011E+04  0.7818608E-02  0.8437257E-01
          2   -1    0    0  501    0  0.00000000000E+00  0.00000000000E+00  0.15313261336E+04  0.15313261336E+04  0.00000000000E+00 0. -1.
         -2   -1    0    0    0  501 -0.00000000000E+00 -0.00000000000E+00 -0.94507771140E+03  0.94507771140E+03  0.00000000000E+00 0.  1.
         23    2    1    2    0    0  0.36349760474E+03  0.91460658740E+03 -0.73651978508E+02  0.99131014873E+03  0.92927276206E+02 0.  0.
        254    2    1    2    0    0 -0.36349760474E+03 -0.91460658740E+03  0.65990040072E+03  0.14850936963E+04  0.89520893066E+03 0.  0.
         23    2    4    4    0    0  0.18024940422E+03  0.59798081018E+02  0.11084092424E+03  0.23822536125E+03  0.91651263177E+02 0.  0.
         23    2    4    4    0    0 -0.54374700896E+03 -0.97440466842E+03  0.54905947648E+03  0.12468683350E+04  0.89939249751E+02 0.  0.
         11    1    3    3    0    0  0.14638766837E+03  0.26359561966E+03 -0.40808613485E+02  0.30426525120E+03  0.00000000000E+00 0. -1.
        -11    1    3    3    0    0  0.21710993637E+03  0.65101096774E+03 -0.32843365022E+02  0.68704489753E+03  0.00000000000E+00 0.  1.
          2    1    5    5  502    0  0.14304209667E+03  0.84567265608E+02  0.87507171030E+02  0.18780353781E+03  0.00000000000E+00 0. -1.
          3    1    6    6  503    0 -0.54178526287E+03 -0.95605866011E+03  0.54902699418E+03  0.12284177111E+04  0.00000000000E+00 0. -1.
         -2    1    5    5    0  502  0.37207307545E+02 -0.24769184589E+02  0.23333753213E+02  0.50421823439E+02  0.00000000000E+00 0.  1.
         -3    1    6    6    0  503 -0.19617460888E+01 -0.18346008307E+02  0.32482300605E-01  0.18450623935E+02  0.00000000000E+00 0.  1.
<mgrwt>
<rscale>  0 0.24060110E+04</rscale>
<asrwt>0</asrwt>
<pdfrwt beam="1">  1        2 0.23558864E+00 0.24060110E+04</pdfrwt>
<pdfrwt beam="2">  1       -2 0.14539657E+00 0.24060110E+04</pdfrwt>
<totfact> 0.35643114E+00</totfact>
</mgrwt>
</event>
<event>
12    1  0.4967442E-008  0.1461167E+04  0.7818608E-02  0.8910695E-01
         -2   -1    0    0    0  501 -0.00000000000E+00  0.00000000000E+00  0.94954516973E+03  0.94954516973E+03  0.00000000000E+00 0.  1.
          2   -1    0    0  501    0  0.00000000000E+00 -0.00000000000E+00 -0.56211360692E+03  0.56211360692E+03  0.00000000000E+00 0. -1.
         23    2    1    2    0    0 -0.95096885497E+01  0.34441297493E+02  0.58120905170E+03  0.59252947062E+03  0.10959276718E+03 0.  0.
        254    2    1    2    0    0  0.95096885497E+01 -0.34441297493E+02 -0.19377748890E+03  0.91912930603E+03  0.89775961641E+03 0.  0.
         23    2    4    4    0    0  0.38840609363E+03  0.89667911838E+02 -0.28693229704E+03  0.49965967842E+03  0.91815157622E+02 0.  0.
         23    2    4    4    0    0 -0.37889640508E+03 -0.12410920933E+03  0.93154808144E+02  0.41946962761E+03  0.91166707657E+02 0.  0.
         11    1    3    3    0    0  0.91361679267E+01  0.64228221598E+02  0.49794637202E+03  0.50215468077E+03  0.00000000000E+00 0.  1.
        -11    1    3    3    0    0 -0.18645856476E+02 -0.29786924105E+02  0.83262679689E+02  0.90374789850E+02  0.00000000000E+00 0. -1.
          4    1    5    5  502    0  0.62147844698E+02  0.38305238007E+02 -0.87041956909E+02  0.11360434905E+03  0.00000000000E+00 0.  1.
          1    1    6    6  503    0 -0.21271595200E+03 -0.57304799783E+02  0.62365952825E+01  0.22038786590E+03  0.00000000000E+00 0. -1.
         -4    1    5    5    0  502  0.32625824893E+03  0.51362673832E+02 -0.19989034013E+03  0.38605532937E+03  0.00000000000E+00 0. -1.
         -1    1    6    6    0  503 -0.16618045308E+03 -0.66804409549E+02  0.86918212861E+02  0.19908176172E+03  0.00000000000E+00 0.  1.
<mgrwt>
<rscale>  0 0.14611670E+04</rscale>
<asrwt>0</asrwt>
<pdfrwt beam="1">  1        2 0.86479016E-01 0.14611670E+04</pdfrwt>
<pdfrwt beam="2">  1       -2 0.14608387E+00 0.14611670E+04</pdfrwt>
<totfact> 0.16689542E+01</totfact>
</mgrwt>
</event>
<event>
12    1  0.4967442E-008  0.1229070E+04  0.7818608E-02  0.9087785E-01
          1   -1    0    0  501    0  0.00000000000E+00  0.00000000000E+00  0.60385151076E+03  0.60385151076E+03  0.00000000000E+00 0. -1.
         -1   -1    0    0    0  501 -0.00000000000E+00 -0.00000000000E+00 -0.62540744890E+03  0.62540744890E+03  0.00000000000E+00 0.  1.
         23    2    1    2    0    0  0.24572759892E+03 -0.46613025805E+02  0.13180977593E+03  0.29714077385E+03  0.91454881833E+02 0.  0.
        254    2    1    2    0    0 -0.24572759892E+03  0.46613025805E+02 -0.15336571407E+03  0.93211818581E+03  0.88474202060E+03 0.  0.
         23    2    4    4    0    0 -0.35318552887E+03  0.36609412857E+03 -0.24529849342E+03  0.57127847533E+03  0.86155770104E+02 0.  0.
         23    2    4    4    0    0  0.10745792995E+03 -0.31948110277E+03  0.91932779352E+02  0.36083971048E+03  0.90212410480E+02 0.  0.
         13    1    3    3    0    0  0.22647953198E+03 -0.66712686381E+02  0.12932687899E+03  0.26920067340E+03  0.00000000000E+00 0. -1.
        -13    1    3    3    0    0  0.19248066940E+02  0.20099660577E+02  0.24828969403E+01  0.27940100455E+02  0.00000000000E+00 0.  1.
          3    1    6    6  502    0 -0.99630038985E+01 -0.58998410882E+02  0.35570716587E+02  0.69608546974E+02  0.00000000000E+00 0. -1.
          3    1    5    5  503    0 -0.12307482466E+03  0.18598174053E+03 -0.12094699511E+03  0.25370217954E+03  0.00000000000E+00 0. -1.
         -3    1    5    5    0  503 -0.23011070420E+03  0.18011238805E+03 -0.12435149831E+03  0.31757629579E+03  0.00000000000E+00 0.  1.
         -3    1    6    6    0  502  0.11742093385E+03 -0.26048269189E+03  0.56362062765E+02  0.29123116351E+03  0.00000000000E+00 0.  1.
<mgrwt>
<rscale>  0 0.12290699E+04</rscale>
<asrwt>0</asrwt>
<pdfrwt beam="1">  1        1 0.92900233E-01 0.12290699E+04</pdfrwt>
<pdfrwt beam="2">  1       -1 0.96216530E-01 0.12290699E+04</pdfrwt>
<totfact> 0.34889636E+01</totfact>
</mgrwt>
</event>
<event>
12    1  0.8240122E-008  0.1399434E+04  0.7818608E-02  0.8954228E-01
         -1   -1    0    0    0  501 -0.00000000000E+00  0.00000000000E+00  0.20175465426E+03  0.20175465426E+03  0.00000000000E+00 0.  1.
          1   -1    0    0  501    0  0.00000000000E+00 -0.00000000000E+00 -0.24267292091E+04  0.24267292091E+04  0.00000000000E+00 0. -1.
         23    2    1    2    0    0  0.23676673474E+03  0.30799295689E+03 -0.44231669121E+03  0.59579630524E+03  0.91711688698E+02 0.  0.
        254    2    1    2    0    0 -0.23676673474E+03 -0.30799295689E+03 -0.17826578637E+04  0.20326875582E+04  0.89612024974E+03 0.  0.
         23    2    4    4    0    0  0.19640868810E+03 -0.25901039831E+03 -0.14167186019E+04  0.14560910972E+04  0.86295581118E+02 0.  0.
         23    2    4    4    0    0 -0.43317542284E+03 -0.48982558579E+02 -0.36593926178E+03  0.57659646092E+03  0.92258860958E+02 0.  0.
         11    1    3    3    0    0  0.44562207628E+02  0.21760496741E+02 -0.90548511907E+02  0.10323924920E+03  0.00000000000E+00 0.  1.
        -11    1    3    3    0    0  0.19220452711E+03  0.28623246015E+03 -0.35176817930E+03  0.49255705604E+03  0.00000000000E+00 0. -1.
          1    1    6    6  502    0 -0.55974463536E+01  0.12367291830E+02 -0.12820932513E+02  0.18672375944E+02  0.00000000000E+00 0. -1.
          1    1    5    5  503    0  0.25352483280E+02 -0.53972623884E+02 -0.14768311771E+03  0.15926737203E+03  0.00000000000E+00 0. -1.
         -1    1    5    5    0  503  0.17105620482E+03 -0.20503777443E+03 -0.12690354842E+04  0.12968237252E+04  0.00000000000E+00 0.  1.
         -1    1    6    6    0  502 -0.42757797649E+03 -0.61349850409E+02 -0.35311832927E+03  0.55792408497E+03  0.00000000000E+00 0.  1.
<mgrwt>
<rscale>  0 0.13994340E+04</rscale>
<asrwt>0</asrwt>
<pdfrwt beam="1">  1        1 0.37334297E+00 0.13994340E+04</pdfrwt>
<pdfrwt beam="2">  1       -1 0.31039176E-01 0.13994340E+04</pdfrwt>
<totfact> 0.14311102E+01</totfact>
</mgrwt>
</event>
<event>
12    1  0.4967442E-008  0.3143084E+04  0.7818608E-02  0.8204012E-01
          2   -1    0    0  501    0  0.00000000000E+00  0.00000000000E+00  0.11407672682E+04  0.11407672682E+04  0.00000000000E+00 0. -1.
         -2   -1    0    0    0  501 -0.00000000000E+00 -0.00000000000E+00 -0.21649849120E+04  0.21649849120E+04  0.00000000000E+00 0.  1.
         23    2    1    2    0    0  0.73632479580E+03 -0.53054233606E+03  0.71869542195E+03  0.11612357599E+04  0.91082409406E+02 0.  0.
        254    2    1    2    0    0 -0.73632479580E+03  0.53054233606E+03 -0.17429130658E+04  0.21445164203E+04  0.85881042546E+03 0.  0.
         23    2    4    4    0    0 -0.27526100491E+03  0.15243059356E+03 -0.31034158842E+02  0.32930398438E+03  0.92055898442E+02 0.  0.
         23    2    4    4    0    0 -0.46106379089E+03  0.37811174250E+03 -0.17118789069E+04  0.18152124359E+04  0.94437738570E+02 0.  0.
         11    1    3    3    0    0  0.22843448039E+02 -0.39096430787E+02  0.44169597191E+02  0.63255887747E+02  0.00000000000E+00 0.  1.
        -11    1    3    3    0    0  0.71348134776E+03 -0.49144590527E+03  0.67452582476E+03  0.10979798722E+04  0.00000000000E+00 0. -1.
          1    1    6    6  502    0 -0.19116631324E+03  0.11157760227E+03 -0.72092932051E+03  0.75414402193E+03  0.00000000000E+00 0. -1.
          1    1    5    5  503    0 -0.16883342126E+03  0.13722668299E+03 -0.59185063403E+00  0.21756892459E+03  0.00000000000E+00 0. -1.
         -1    1    5    5    0  503 -0.10642758365E+03  0.15203910567E+02 -0.30442308208E+02  0.11173505979E+03  0.00000000000E+00 0.  1.
         -1    1    6    6    0  502 -0.26989747765E+03  0.26653414023E+03 -0.99094958641E+03  0.10610684140E+04  0.00000000000E+00 0.  1.
<mgrwt>
<rscale>  0 0.31430838E+04</rscale>
<asrwt>0</asrwt>
<pdfrwt beam="1">  1        2 0.17550266E+00 0.31430838E+04</pdfrwt>
<pdfrwt beam="2">  1       -2 0.33307460E+00 0.31430838E+04</pdfrwt>
<totfact> 0.34553648E-01</totfact>
</mgrwt>
</event>
<event>
12    1  0.4967442E-008  0.1673406E+04  0.7818608E-02  0.8776679E-01
          4   -1    0    0  501    0  0.00000000000E+00  0.00000000000E+00  0.81591075603E+03  0.81591075603E+03  0.00000000000E+00 0. -1.
         -4   -1    0    0    0  501 -0.00000000000E+00 -0.00000000000E+00 -0.85802485228E+03  0.85802485228E+03  0.00000000000E+00 0.  1.
         23    2    1    2    0    0 -0.16813506127E+03  0.30691680371E+02  0.54816753022E+03  0.58055722978E+03  0.85718596507E+02 0.  0.
        254    2    1    2    0    0  0.16813506127E+03 -0.30691680371E+02 -0.59028162648E+03  0.10933783785E+04  0.90434092134E+03 0.  0.
         23    2    4    4    0    0  0.19684961851E+03  0.62881399991E+02  0.19401562381E+03  0.29774084968E+03  0.91124686649E+02 0.  0.
         23    2    4    4    0    0 -0.28714557242E+02 -0.93573080361E+02 -0.78429725029E+03  0.79563752885E+03  0.91304180307E+02 0.  0.
         13    1    3    3    0    0 -0.10866299953E+03 -0.47816549537E+01  0.22317669499E+03  0.24827071692E+03  0.00000000000E+00 0.  1.
        -13    1    3    3    0    0 -0.59472061738E+02  0.35473335324E+02  0.32499083523E+03  0.33228651286E+03  0.00000000000E+00 0. -1.
          2    1    5    5  502    0  0.32470795272E+02 -0.80149958142E-01 -0.40936773983E+01  0.32727926366E+02  0.00000000000E+00 0. -1.
          3    1    6    6  503    0 -0.41864372382E+01 -0.55681975672E+02 -0.15549174596E+03  0.16521407850E+03  0.00000000000E+00 0. -1.
         -2    1    5    5    0  502  0.16437882324E+03  0.62961549949E+02  0.19810930121E+03  0.26501292332E+03  0.00000000000E+00 0.  1.
         -3    1    6    6    0  503 -0.24528120004E+02 -0.37891104690E+02 -0.62880550433E+03  0.63042345035E+03  0.00000000000E+00 0.  1.
<mgrwt>
<rscale>  0 0.16734058E+04</rscale>
<asrwt>0</asrwt>
<pdfrwt beam="1">  1        4 0.12552473E+00 0.16734058E+04</pdfrwt>
<pdfrwt beam="2">  1       -4 0.13200382E+00 0.16734058E+04</pdfrwt>
<totfact> 0.37519454E-01</totfact>
</mgrwt>
</event>
<event>
12    1  0.4967442E-008  0.2412631E+04  0.7818608E-02  0.8434790E-01
          2   -1    0    0  501    0  0.00000000000E+00  0.00000000000E+00  0.16214989000E+04  0.16214989000E+04  0.00000000000E+00 0.  1.
         -2   -1    0    0    0  501 -0.00000000000E+00 -0.00000000000E+00 -0.89743923944E+03  0.89743923944E+03  0.00000000000E+00 0. -1.
         23    2    1    2    0    0  0.32068079656E+02  0.40966022209E+02  0.13932316011E+04  0.13973213456E+04  0.93306332743E+02 0.  0.
        254    2    1    2    0    0 -0.32068079656E+02 -0.40966022209E+02 -0.66917194058E+03  0.11216167938E+04  0.89862482129E+03 0.  0.
         23    2    4    4    0    0 -0.18016334479E+03  0.33515471219E+03 -0.57843888596E+03  0.69817153758E+03  0.89802222626E+02 0.  0.
         23    2    4    4    0    0  0.14809526513E+03 -0.37612073439E+03 -0.90733054627E+02  0.42344525626E+03  0.87603558436E+02 0.  0.
         13    1    3    3    0    0 -0.14090091269E+02 -0.14049147404E+02  0.92838986867E+02  0.94947283781E+02  0.00000000000E+00 0. -1.
        -13    1    3    3    0    0  0.46158170925E+02  0.55015169613E+02  0.13003926143E+04  0.13023740618E+04  0.00000000000E+00 0.  1.
          2    1    5    5  502    0 -0.10253999821E+03  0.25769181174E+03 -0.45675848902E+03  0.53436676390E+03  0.00000000000E+00 0. -1.
          3    1    6    6  503    0  0.80418701262E+02 -0.29078708379E+03 -0.88861682741E+02  0.31451660412E+03  0.00000000000E+00 0. -1.
         -2    1    5    5    0  502 -0.77623346583E+02  0.77462900449E+02 -0.12168039694E+03  0.16380477368E+03  0.00000000000E+00 0.  1.
         -3    1    6    6    0  503  0.67676563871E+02 -0.85333650607E+02 -0.18713718856E+01  0.10892865214E+03  0.00000000000E+00 0.  1.
<mgrwt>
<rscale>  0 0.24126307E+04</rscale>
<asrwt>0</asrwt>
<pdfrwt beam="1">  1        2 0.24946137E+00 0.24126307E+04</pdfrwt>
<pdfrwt beam="2">  1       -2 0.13806758E+00 0.24126307E+04</pdfrwt>
<totfact> 0.36288676E+00</totfact>
</mgrwt>
</event>
<event>
12    1  0.4967442E-008  0.2049275E+04  0.7818608E-02  0.8583923E-01
          2   -1    0    0  501    0  0.00000000000E+00  0.00000000000E+00  0.13164931203E+04  0.13164931203E+04  0.00000000000E+00 0. -1.
         -2   -1    0    0    0  501 -0.00000000000E+00 -0.00000000000E+00 -0.79748358090E+03  0.79748358090E+03  0.00000000000E+00 0.  1.
         23    2    1    2    0    0 -0.84142317591E+02  0.64298212037E+03 -0.19504719277E+03  0.68322206679E+03  0.90791235402E+02 0.  0.
        254    2    1    2    0    0  0.84142317591E+02 -0.64298212037E+03  0.71405673217E+03  0.14307546344E+04  0.10567288538E+04 0.  0.
         23    2    4    4    0    0 -0.46862648407E+03 -0.17509258583E+03  0.28671252325E+03  0.58364680913E+03  0.90395418217E+02 0.  0.
         23    2    4    4    0    0  0.55276880166E+03 -0.46788953454E+03  0.42734420892E+03  0.84710782528E+03  0.10244330203E+03 0.  0.
         13    1    3    3    0    0 -0.49658831608E+02  0.53125012854E+03 -0.12904872649E+03  0.54895015479E+03  0.00000000000E+00 0. -1.
        -13    1    3    3    0    0 -0.34483485983E+02  0.11173199182E+03 -0.65998466278E+02  0.13427191201E+03  0.00000000000E+00 0.  1.
          2    1    5    5  502    0 -0.41064895346E+02  0.49359245300E+01  0.42789882244E+02  0.59511872792E+02  0.00000000000E+00 0. -1.
          3    1    6    6  503    0  0.28187203900E+03 -0.27824216050E+03  0.28021507530E+03  0.48517113957E+03  0.00000000000E+00 0. -1.
         -2    1    5    5    0  502 -0.42756158872E+03 -0.18002851036E+03  0.24392264100E+03  0.52413493634E+03  0.00000000000E+00 0.  1.
         -3    1    6    6    0  503  0.27089676266E+03 -0.18964737404E+03  0.14712913363E+03  0.36193668571E+03  0.00000000000E+00 0.  1.
<mgrwt>
<rscale>  0 0.20492747E+04</rscale>
<asrwt>0</asrwt>
<pdfrwt beam="1">  1        2 0.20253740E+00 0.20492747E+04</pdfrwt>
<pdfrwt beam="2">  1       -2 0.12268978E+00 0.20492747E+04</pdfrwt>
<totfact> 0.75190671E+00</totfact>
</mgrwt>
</event>
<event>
12    1  0.4967442E-008  0.1357396E+04  0.7818608E-02  0.8985248E-01
          2   -1    0    0  501    0  0.00000000000E+00  0.00000000000E+00  0.15036195879E+04  0.15036195879E+04  0.00000000000E+00 0. -1.
         -2   -1    0    0    0  501 -0.00000000000E+00 -0.00000000000E+00 -0.30634813713E+03  0.30634813713E+03  0.00000000000E+00 0.  1.
         23    2    1    2    0    0 -0.26887732540E+03  0.22685121314E+03  0.51574240571E+03  0.63103369506E+03  0.91960895125E+02 0.  0.
        254    2    1    2    0    0  0.26887732540E+03 -0.22685121314E+03  0.68152904502E+03  0.11789340299E+04  0.89534748489E+03 0.  0.
         23    2    4    4    0    0  0.57675493088E+03 -0.24846066631E+03  0.50265097095E+03  0.80938537727E+03  0.89820584167E+02 0.  0.
         23    2    4    4    0    0 -0.30787760548E+03  0.21609453162E+02  0.17887807407E+03  0.36954865266E+03  0.96505196133E+02 0.  0.
         13    1    3    3    0    0 -0.19875629848E+03  0.14306365110E+03  0.41791010760E+03  0.48437602385E+03  0.00000000000E+00 0. -1.
        -13    1    3    3    0    0 -0.70121026926E+02  0.83787562043E+02  0.97832298118E+02  0.14665767121E+03  0.00000000000E+00 0.  1.
          4    1    5    5  502    0  0.41690146689E+03 -0.18774710535E+03  0.31338907119E+03  0.55431806628E+03  0.00000000000E+00 0. -1.
          1    1    6    6  503    0 -0.14834578486E+03  0.29585354015E+02  0.13779299428E+03  0.20461836264E+03  0.00000000000E+00 0. -1.
         -4    1    5    5    0  502  0.15985346399E+03 -0.60713560952E+02  0.18926189976E+03  0.25506731098E+03  0.00000000000E+00 0.  1.
         -1    1    6    6    0  503 -0.15953182062E+03 -0.79759008529E+01  0.41085079786E+02  0.16493029002E+03  0.00000000000E+00 0.  1.
<mgrwt>
<rscale>  0 0.13573961E+04</rscale>
<asrwt>0</asrwt>
<pdfrwt beam="1">  1        2 0.23132609E+00 0.13573961E+04</pdfrwt>
<pdfrwt beam="2">  1       -2 0.47130483E-01 0.13573961E+04</pdfrwt>
<totfact> 0.52616671E+01</totfact>
</mgrwt>
</event>
<event>
12    1  0.4967442E-008  0.1894303E+04  0.7818608E-02  0.8657697E-01
         -2   -1    0    0    0  501 -0.00000000000E+00  0.00000000000E+00  0.64807594338E+03  0.64807594338E+03  0.00000000000E+00 0.  1.
          2   -1    0    0  501    0  0.00000000000E+00 -0.00000000000E+00 -0.13842455252E+04  0.13842455252E+04  0.00000000000E+00 0. -1.
         23    2    1    2    0    0 -0.92046157603E+02 -0.54944929157E+03  0.21849530610E+03  0.60546858816E+03  0.92114023485E+02 0.  0.
        254    2    1    2    0    0  0.92046157603E+02  0.54944929157E+03 -0.95466488794E+03  0.14268528804E+04  0.90230653053E+03 0.  0.
         23    2    4    4    0    0 -0.12212486355E+03 -0.17782612595E+03 -0.44222427724E+02  0.23856378576E+03  0.91762973983E+02 0.  0.
         23    2    4    4    0    0  0.21417102116E+03  0.72727541752E+03 -0.91044246021E+03  0.11882890947E+04  0.91250972384E+02 0.  0.
         11    1    3    3    0    0 -0.67418359588E+02 -0.34735225882E+03  0.91351060069E+02  0.36543651034E+03  0.00000000000E+00 0. -1.
        -11    1    3    3    0    0 -0.24627798015E+02 -0.20209703276E+03  0.12714424603E+03  0.24003207782E+03  0.00000000000E+00 0.  1.
          4    1    5    5  502    0 -0.99645701463E+02 -0.82738153751E+02  0.40495725696E+01  0.12958112109E+03  0.00000000000E+00 0. -1.
          3    1    6    6  503    0  0.20421579968E+03  0.58507848785E+03 -0.76709705376E+03  0.98613326669E+03  0.00000000000E+00 0. -1.
         -4    1    5    5    0  502 -0.22479162089E+02 -0.95087972200E+02 -0.48272000294E+02  0.10898266467E+03  0.00000000000E+00 0.  1.
         -3    1    6    6    0  503  0.99552214725E+01  0.14219692967E+03 -0.14334540646E+03  0.20215582800E+03  0.00000000000E+00 0.  1.
<mgrwt>
<rscale>  0 0.18943033E+04</rscale>
<asrwt>0</asrwt>
<pdfrwt beam="1">  1        2 0.21296085E+00 0.18943033E+04</pdfrwt>
<pdfrwt beam="2">  1       -2 0.99703992E-01 0.18943033E+04</pdfrwt>
<totfact> 0.11517557E+01</totfact>
</mgrwt>
</event>
<event>
12    1  0.4967442E-008  0.1294221E+04  0.7818608E-02  0.9034161E-01
          1   -1    0    0  501    0  0.00000000000E+00  0.00000000000E+00  0.15744021005E+04  0.15744021005E+04  0.00000000000E+00 0. -1.
         -1   -1    0    0    0  501 -0.00000000000E+00 -0.00000000000E+00 -0.26597522993E+03  0.26597522993E+03  0.00000000000E+00 0.  1.
         23    2    1    2    0    0 -0.43553308809E+02  0.17421590068E+02  0.79357557882E+03  0.80006017232E+03  0.90186903325E+02 0.  0.
        254    2    1    2    0    0  0.43553308809E+02 -0.17421590068E+02  0.51485129175E+03  0.10403171581E+04  0.90276660013E+03 0.  0.
         23    2    4    4    0    0 -0.23149518539E+03  0.28109603783E+03  0.49929133554E+03  0.62446542870E+03  0.89778786736E+02 0.  0.
         23    2    4    4    0    0  0.27504849420E+03 -0.29851762790E+03  0.15559956212E+02  0.41585172940E+03  0.89028648668E+02 0.  0.
         13    1    3    3    0    0 -0.43485364700E+02 -0.27616108855E+02  0.54572099154E+03  0.54814690277E+03  0.00000000000E+00 0.  1.
        -13    1    3    3    0    0 -0.67944109011E-01  0.45037698923E+02  0.24785458728E+03  0.25191326955E+03  0.00000000000E+00 0. -1.
          4    1    5    5  502    0 -0.94591963270E+02  0.13087228392E+03  0.29492314000E+03  0.33623630488E+03  0.00000000000E+00 0. -1.
          4    1    6    6  503    0  0.22482481493E+03 -0.22675725358E+03 -0.23006286529E+02  0.32014737025E+03  0.00000000000E+00 0. -1.
         -4    1    5    5    0  502 -0.13690322212E+03  0.15022375391E+03  0.20436819554E+03  0.28822912381E+03  0.00000000000E+00 0.  1.
         -4    1    6    6    0  503  0.50223679272E+02 -0.71760374314E+02  0.38566242741E+02  0.95704359151E+02  0.00000000000E+00 0.  1.
<mgrwt>
<rscale>  0 0.12942209E+04</rscale>
<asrwt>0</asrwt>
<pdfrwt beam="1">  1        1 0.24221570E+00 0.12942209E+04</pdfrwt>
<pdfrwt beam="2">  1       -1 0.40919267E-01 0.12942209E+04</pdfrwt>
<totfact> 0.33367147E+01</totfact>
</mgrwt>
</event>
<event>
12    1  0.4967442E-008  0.1373667E+04  0.7818608E-02  0.8973103E-01
          1   -1    0    0  501    0  0.00000000000E+00  0.00000000000E+00  0.68911576599E+03  0.68911576599E+03  0.00000000000E+00 0. -1.
         -1   -1    0    0    0  501 -0.00000000000E+00 -0.00000000000E+00 -0.68455887873E+03  0.68455887873E+03  0.00000000000E+00 0.  1.
         23    2    1    2    0    0  0.10158004288E+03 -0.37151658756E+03 -0.52080406823E+02  0.39919896409E+03  0.91128284370E+02 0.  0.
        254    2    1    2    0    0 -0.10158004288E+03  0.37151658756E+03  0.56637294086E+02  0.97447568063E+03  0.89333755609E+03 0.  0.
         23    2    4    4    0    0  0.25842613037E+03  0.26419322737E+03  0.32758550905E+03  0.50241465826E+03  0.92336866132E+02 0.  0.
         23    2    4    4    0    0 -0.36000617325E+03  0.10732336019E+03 -0.27094821496E+03  0.47206102237E+03  0.91136848937E+02 0.  0.
         11    1    3    3    0    0  0.32740608191E+02 -0.18494555859E+03 -0.67869150721E+02  0.19970735762E+03  0.00000000000E+00 0. -1.
        -11    1    3    3    0    0  0.68839434691E+02 -0.18657102897E+03  0.15788743898E+02  0.19949160647E+03  0.00000000000E+00 0.  1.
          1    1    5    5  502    0  0.83569548587E+02  0.15112705745E+03  0.14680467685E+03  0.22666025256E+03  0.00000000000E+00 0. -1.
          3    1    6    6  503    0 -0.52902073284E+02 -0.10220884979E+02 -0.16719855221E+02  0.56414975016E+02  0.00000000000E+00 0. -1.
         -1    1    5    5    0  502  0.17485658178E+03  0.11306616993E+03  0.18078083220E+03  0.27575440570E+03  0.00000000000E+00 0.  1.
         -3    1    6    6    0  503 -0.30710409996E+03  0.11754424517E+03 -0.25422835974E+03  0.41564604736E+03  0.00000000000E+00 0.  1.
<mgrwt>
<rscale>  0 0.13736671E+04</rscale>
<asrwt>0</asrwt>
<pdfrwt beam="1">  1        1 0.10601781E+00 0.13736671E+04</pdfrwt>
<pdfrwt beam="2">  1       -1 0.10531675E+00 0.13736671E+04</pdfrwt>
<totfact> 0.23056192E+01</totfact>
</mgrwt>
</event>
<event>
12    1  0.4967442E-008  0.1710720E+04  0.7818608E-02  0.8755274E-01
          2   -1    0    0  501    0  0.00000000000E+00  0.00000000000E+00  0.76949001878E+03  0.76949001878E+03  0.00000000000E+00 0. -1.
         -2   -1    0    0    0  501 -0.00000000000E+00 -0.00000000000E+00 -0.95081296359E+03  0.95081296359E+03  0.00000000000E+00 0.  1.
         23    2    1    2    0    0  0.55993464631E+03  0.25614891435E+03 -0.13705457740E+03  0.63736724408E+03  0.91180985819E+02 0.  0.
        254    2    1    2    0    0 -0.55993464631E+03 -0.25614891435E+03 -0.44268367410E+02  0.10829357383E+04  0.88974774541E+03 0.  0.
         23    2    4    4    0    0  0.22875133496E+03 -0.10660524981E+01  0.20740919157E+02  0.24639813349E+03  0.89182648247E+02 0.  0.
         23    2    4    4    0    0 -0.78868598127E+03 -0.25508286185E+03 -0.65009286566E+02  0.83653760480E+03  0.92065810441E+02 0.  0.
         11    1    3    3    0    0  0.27542181799E+02  0.46487772198E+01  0.11343569070E+02  0.30147296183E+02  0.00000000000E+00 0.  1.
        -11    1    3    3    0    0  0.53239246451E+03  0.25150013713E+03 -0.14839814647E+03  0.60721994789E+03  0.00000000000E+00 0. -1.
          2    1    5    5  502    0  0.71399678869E+02  0.30750517409E+02 -0.20995732934E+02  0.80525333063E+02  0.00000000000E+00 0. -1.
          4    1    6    6  503    0 -0.17206326205E+03 -0.76791813754E+02  0.18142088493E+02  0.18929311710E+03  0.00000000000E+00 0. -1.
         -2    1    5    5    0  502  0.15735165609E+03 -0.31816569907E+02  0.41736652091E+02  0.16587280043E+03  0.00000000000E+00 0.  1.
         -4    1    6    6    0  503 -0.61662271922E+03 -0.17829104810E+03 -0.83151375059E+02  0.64724448770E+03  0.00000000000E+00 0.  1.
<mgrwt>
<rscale>  0 0.17107204E+04</rscale>
<asrwt>0</asrwt>
<pdfrwt beam="1">  1        2 0.11838308E+00 0.17107204E+04</pdfrwt>
<pdfrwt beam="2">  1       -2 0.14627892E+00 0.17107204E+04</pdfrwt>
<totfact> 0.11035289E+01</totfact>
</mgrwt>
</event>
<event>
12    1  0.4967442E-008  0.1645368E+04  0.7818608E-02  0.8793151E-01
          2   -1    0    0  501    0  0.00000000000E+00  0.00000000000E+00  0.57693398144E+03  0.57693398144E+03  0.00000000000E+00 0. -1.
         -2   -1    0    0    0  501 -0.00000000000E+00 -0.00000000000E+00 -0.11731134994E+04  0.11731134994E+04  0.00000000000E+00 0.  1.
         23    2    1    2    0    0  0.51866704890E+03 -0.38934765404E+02  0.46437857263E+02  0.53020036557E+03  0.91785235703E+02 0.  0.
        254    2    1    2    0    0 -0.51866704890E+03  0.38934765404E+02 -0.64261737521E+03  0.12198471153E+04  0.89696068481E+03 0.  0.
         23    2    4    4    0    0 -0.14536203301E+03  0.26581469882E+03 -0.70168916285E+03  0.76967748839E+03  0.90819492034E+02 0.  0.
         23    2    4    4    0    0 -0.37330501589E+03 -0.22687993341E+03  0.59071787633E+02  0.45016962686E+03  0.91280215705E+02 0.  0.
         11    1    3    3    0    0  0.25138266782E+03 -0.53743047899E+02  0.52803090631E+02  0.26243042365E+03  0.00000000000E+00 0.  1.
        -11    1    3    3    0    0  0.26728438109E+03  0.14808282495E+02 -0.63652333680E+01  0.26776994192E+03  0.00000000000E+00 0. -1.
          1    1    5    5  502    0 -0.27417974535E+02  0.64772186394E+02 -0.27079976852E+03  0.27978508911E+03  0.00000000000E+00 0.  1.
          3    1    6    6  503    0 -0.34168183652E+03 -0.18908651323E+03  0.76432981429E+02  0.39792233858E+03  0.00000000000E+00 0. -1.
         -1    1    5    5    0  502 -0.11794405847E+03  0.20104251242E+03 -0.43088939432E+03  0.48989239928E+03  0.00000000000E+00 0. -1.
         -3    1    6    6    0  503 -0.31623179376E+02 -0.37793420179E+02 -0.17361193795E+02  0.52247288281E+02  0.00000000000E+00 0.  1.
<mgrwt>
<rscale>  0 0.16453681E+04</rscale>
<asrwt>0</asrwt>
<pdfrwt beam="1">  1        2 0.88759075E-01 0.16453681E+04</pdfrwt>
<pdfrwt beam="2">  1       -2 0.18047900E+00 0.16453681E+04</pdfrwt>
<totfact> 0.89330107E+00</totfact>
</mgrwt>
</event>
<event>
12    1  0.4967442E-008  0.3624052E+04  0.7818608E-02  0.8085004E-01
          2   -1    0    0  501    0  0.00000000000E+00  0.00000000000E+00  0.13773138041E+04  0.13773138041E+04  0.00000000000E+00 0. -1.
         -2   -1    0    0    0  501 -0.00000000000E+00 -0.00000000000E+00 -0.23839436550E+04  0.23839436550E+04  0.00000000000E+00 0.  1.
         23    2    1    2    0    0  0.92754138602E+02 -0.15882670696E+04  0.14555757879E+03  0.16005368594E+04  0.96620985121E+02 0.  0.
        254    2    1    2    0    0 -0.92754138602E+02  0.15882670696E+04 -0.11521874297E+04  0.21607205997E+04  0.89999001230E+03 0.  0.
         23    2    4    4    0    0 -0.34857583575E+03  0.73952675687E+03 -0.93042939271E+03  0.12422206366E+04  0.94912158477E+02 0.  0.
         23    2    4    4    0    0  0.25582169715E+03  0.84874031275E+03 -0.22175803695E+03  0.91849996308E+03  0.93062860550E+02 0.  0.
         11    1    3    3    0    0  0.10116753154E+03 -0.15024989805E+04  0.12013441956E+03  0.15106853857E+04  0.00000000000E+00 0.  1.
        -11    1    3    3    0    0 -0.84133929371E+01 -0.85768089146E+02  0.25423159229E+02  0.89851473675E+02  0.00000000000E+00 0. -1.
          2    1    5    5  502    0 -0.34441429300E+03  0.67192076937E+03 -0.86230589193E+03  0.11461545170E+04  0.00000000000E+00 0.  1.
          3    1    6    6  503    0  0.13055241731E+03  0.28083280520E+03 -0.82681850097E+02  0.32054217581E+03  0.00000000000E+00 0. -1.
         -2    1    5    5    0  502 -0.41615427493E+01  0.67605987508E+02 -0.68123500778E+02  0.96066119643E+02  0.00000000000E+00 0. -1.
         -3    1    6    6    0  503  0.12526927984E+03  0.56790750755E+03 -0.13907618686E+03  0.59795778727E+03  0.00000000000E+00 0.  1.
<mgrwt>
<rscale>  0 0.36240522E+04</rscale>
<asrwt>0</asrwt>
<pdfrwt beam="1">  1        2 0.21189443E+00 0.36240522E+04</pdfrwt>
<pdfrwt beam="2">  1       -2 0.36676056E+00 0.36240522E+04</pdfrwt>
<totfact> 0.14762157E-01</totfact>
</mgrwt>
</event>
<event>
12    1  0.4967442E-008  0.1251400E+04  0.7818608E-02  0.9069019E-01
          4   -1    0    0  501    0  0.00000000000E+00  0.00000000000E+00  0.30169572692E+03  0.30169572692E+03  0.00000000000E+00 0. -1.
         -4   -1    0    0    0  501 -0.00000000000E+00 -0.00000000000E+00 -0.12976672122E+04  0.12976672122E+04  0.00000000000E+00 0.  1.
         23    2    1    2    0    0  0.20334288837E+03 -0.29762440791E+01  0.30460420741E+02  0.22485542385E+03  0.90966675893E+02 0.  0.
        254    2    1    2    0    0 -0.20334288837E+03  0.29762440791E+01 -0.10264319060E+04  0.13745075153E+04  0.89126385746E+03 0.  0.
         23    2    4    4    0    0 -0.50263897868E+02 -0.32332119256E+03 -0.93001452046E+03  0.99006762987E+03  0.90795652233E+02 0.  0.
         23    2    4    4    0    0 -0.15307899050E+03  0.32629743663E+03 -0.96417385583E+02  0.38443988544E+03  0.92706627511E+02 0.  0.
         11    1    3    3    0    0  0.12112946658E+03 -0.16652254858E+02  0.60302586765E+02  0.13633065406E+03  0.00000000000E+00 0. -1.
        -11    1    3    3    0    0  0.82213421784E+02  0.13676010779E+02 -0.29842166024E+02  0.88524769784E+02  0.00000000000E+00 0.  1.
          2    1    5    5  502    0 -0.56728215797E+02 -0.12198622040E+03 -0.30388697183E+03  0.33233419939E+03  0.00000000000E+00 0. -1.
          3    1    6    6  503    0 -0.21161039377E+02  0.13872333510E+03 -0.15128487735E+02  0.14114115073E+03  0.00000000000E+00 0. -1.
         -2    1    5    5    0  502  0.64643179286E+01 -0.20133497215E+03 -0.62612754863E+03  0.65773343048E+03  0.00000000000E+00 0.  1.
         -3    1    6    6    0  503 -0.13191795112E+03  0.18757410153E+03 -0.81288897849E+02  0.24329873470E+03  0.00000000000E+00 0.  1.
<mgrwt>
<rscale>  0 0.12514003E+04</rscale>
<asrwt>0</asrwt>
<pdfrwt beam="1">  1        4 0.46414727E-01 0.12514003E+04</pdfrwt>
<pdfrwt beam="2">  1       -4 0.19964111E+00 0.12514003E+04</pdfrwt>
<totfact> 0.11710161E+00</totfact>
</mgrwt>
</event>
<event>
12    1  0.4967442E-008  0.1749890E+04  0.7818608E-02  0.8733411E-01
         -1   -1    0    0    0  501 -0.00000000000E+00  0.00000000000E+00  0.13018125350E+04  0.13018125350E+04  0.00000000000E+00 0.  1.
          1   -1    0    0  501    0  0.00000000000E+00 -0.00000000000E+00 -0.58804816658E+03  0.58804816658E+03  0.00000000000E+00 0. -1.
         23    2    1    2    0    0  0.43733375726E+03 -0.12167482832E+03 -0.22592903237E+03  0.51525489958E+03  0.91531987747E+02 0.  0.
        254    2    1    2    0    0 -0.43733375726E+03  0.12167482832E+03  0.93969340076E+03  0.13746058020E+04  0.89467974399E+03 0.  0.
         23    2    4    4    0    0 -0.39957397043E+03 -0.88601178012E+02  0.13574720636E+02  0.41961414474E+03  0.91554523834E+02 0.  0.
         23    2    4    4    0    0 -0.37759786827E+02  0.21027600633E+03  0.92611868013E+03  0.95499165723E+03  0.93120649515E+02 0.  0.
         11    1    3    3    0    0  0.20422229339E+03 -0.20345136613E+02 -0.68950549632E+02  0.21650599990E+03  0.00000000000E+00 0.  1.
        -11    1    3    3    0    0  0.23311146387E+03 -0.10132969171E+03 -0.15697848274E+03  0.29874889967E+03  0.00000000000E+00 0. -1.
          2    1    5    5  502    0  0.70539515962E+00 -0.64990874535E+01 -0.81217386520E+01  0.10425850507E+02  0.00000000000E+00 0. -1.
          3    1    6    6  503    0 -0.12573657795E+02  0.20850890155E+02  0.29571500814E+02  0.38305745666E+02  0.00000000000E+00 0. -1.
         -2    1    5    5    0  502 -0.40027936559E+03 -0.82102090559E+02  0.21696459288E+02  0.40918829423E+03  0.00000000000E+00 0.  1.
         -3    1    6    6    0  503 -0.25186129032E+02  0.18942511618E+03  0.89654717931E+03  0.91668591157E+03  0.00000000000E+00 0.  1.
<mgrwt>
<rscale>  0 0.17498897E+04</rscale>
<asrwt>0</asrwt>
<pdfrwt beam="1">  1        1 0.90468949E-01 0.17498897E+04</pdfrwt>
<pdfrwt beam="2">  1       -1 0.20027885E+00 0.17498897E+04</pdfrwt>
<totfact> 0.50054622E+00</totfact>
</mgrwt>
</event>
<event>
12    1  0.4967442E-008  0.1612387E+04  0.7818608E-02  0.8812974E-01
         -1   -1    0    0    0  501 -0.00000000000E+00  0.00000000000E+00  0.27494691226E+03  0.27494691226E+03  0.00000000000E+00 0.  1.
          1   -1    0    0  501    0  0.00000000000E+00 -0.00000000000E+00 -0.23639035516E+04  0.23639035516E+04  0.00000000000E+00 0. -1.
         23    2    1    2    0    0 -0.36278074929E+03 -0.34632843050E+02 -0.45970288880E+02  0.37818461553E+03  0.90005722534E+02 0.  0.
        254    2    1    2    0    0  0.36278074929E+03  0.34632843050E+02 -0.20429863505E+04  0.22606658483E+04  0.89666467745E+03 0.  0.
         23    2    4    4    0    0  0.51481830127E+03 -0.28073116191E+03 -0.14413266394E+04  0.15587998150E+04  0.92663441568E+02 0.  0.
         23    2    4    4    0    0 -0.15203755198E+03  0.31536400496E+03 -0.60165971109E+03  0.70186603330E+03  0.89730975216E+02 0.  0.
         13    1    3    3    0    0 -0.39314453510E+02 -0.25962181283E+02 -0.26411931350E+02  0.54011584215E+02  0.00000000000E+00 0. -1.
        -13    1    3    3    0    0 -0.32346629578E+03 -0.86706617664E+01 -0.19558357530E+02  0.32417303131E+03  0.00000000000E+00 0.  1.
          2    1    5    5  502    0  0.32300102323E+03 -0.17204282452E+03 -0.77756297338E+03  0.85937917827E+03  0.00000000000E+00 0. -1.
          1    1    6    6  503    0 -0.15735198749E+03  0.27660911513E+03 -0.49719760564E+03  0.59032000609E+03  0.00000000000E+00 0. -1.
         -2    1    5    5    0  502  0.19181727804E+03 -0.10868833738E+03 -0.66376366600E+03  0.69942063677E+03  0.00000000000E+00 0.  1.
         -1    1    6    6    0  503  0.53144355008E+01  0.38754889822E+02 -0.10446210546E+03  0.11154602721E+03  0.00000000000E+00 0.  1.
<mgrwt>
<rscale>  0 0.16123870E+04</rscale>
<asrwt>0</asrwt>
<pdfrwt beam="1">  1        1 0.36367747E+00 0.16123870E+04</pdfrwt>
<pdfrwt beam="2">  1       -1 0.42299525E-01 0.16123870E+04</pdfrwt>
<totfact> 0.88736620E+00</totfact>
</mgrwt>
</event>
<event>
12    1  0.4967442E-008  0.3020599E+04  0.7818608E-02  0.8237873E-01
          1   -1    0    0  501    0  0.00000000000E+00  0.00000000000E+00  0.24279000776E+04  0.24279000776E+04  0.00000000000E+00 0. -1.
         -1   -1    0    0    0  501 -0.00000000000E+00 -0.00000000000E+00 -0.93949660745E+03  0.93949660745E+03  0.00000000000E+00 0.  1.
         23    2    1    2    0    0  0.54462179521E+03  0.32017106005E+03  0.20394106466E+04  0.21369873779E+04  0.91634385148E+02 0.  0.
        254    2    1    2    0    0 -0.54462179521E+03 -0.32017106005E+03 -0.55100717641E+03  0.12304093071E+04  0.90065295600E+03 0.  0.
         23    2    4    4    0    0 -0.35029264387E+03 -0.52940327662E+03 -0.45874602909E+02  0.64295744380E+03  0.91197750504E+02 0.  0.
         23    2    4    4    0    0 -0.19432915135E+03  0.20923221657E+03 -0.50513257350E+03  0.58745186335E+03  0.91645160432E+02 0.  0.
         11    1    3    3    0    0  0.36339768145E+03  0.22905933595E+03  0.12422127557E+04  0.13143890538E+04  0.00000000000E+00 0. -1.
        -11    1    3    3    0    0  0.18122411376E+03  0.91111724099E+02  0.79719789084E+03  0.82259832411E+03  0.00000000000E+00 0.  1.
          3    1    6    6  502    0 -0.16642129514E+03  0.21447368518E+03 -0.45995867730E+03  0.53409455524E+03  0.00000000000E+00 0. -1.
          3    1    5    5  503    0 -0.22094441918E+03 -0.40570363619E+03 -0.42944706216E+02  0.46395702880E+03  0.00000000000E+00 0. -1.
         -3    1    5    5    0  503 -0.12934822469E+03 -0.12369964043E+03 -0.29298966930E+01  0.17900041499E+03  0.00000000000E+00 0.  1.
         -3    1    6    6    0  502 -0.27907856203E+02 -0.52414686123E+01 -0.45173896195E+02  0.53357308107E+02  0.00000000000E+00 0.  1.
<mgrwt>
<rscale>  0 0.30205985E+04</rscale>
<asrwt>0</asrwt>
<pdfrwt beam="1">  1        1 0.37352309E+00 0.30205985E+04</pdfrwt>
<pdfrwt beam="2">  1       -1 0.14453794E+00 0.30205985E+04</pdfrwt>
<totfact> 0.49736835E-01</totfact>
</mgrwt>
</event>
<event>
12    1  0.4967442E-008  0.1687461E+04  0.7818608E-02  0.8768548E-01
          3   -1    0    0  501    0  0.00000000000E+00  0.00000000000E+00  0.87403033711E+03  0.87403033711E+03  0.00000000000E+00 0. -1.
         -3   -1    0    0    0  501 -0.00000000000E+00 -0.00000000000E+00 -0.81448122570E+03  0.81448122570E+03  0.00000000000E+00 0.  1.
         23    2    1    2    0    0  0.35960612983E+03 -0.43540741382E+03  0.22666640896E+03  0.61513326529E+03  0.90083786019E+02 0.  0.
        254    2    1    2    0    0 -0.35960612983E+03  0.43540741382E+03 -0.16711729756E+03  0.10733782975E+04  0.89739433575E+03 0.  0.
         23    2    4    4    0    0 -0.30187434244E+03 -0.35309000686E+02 -0.42075563352E+03  0.52744528869E+03  0.93746388042E+02 0.  0.
         23    2    4    4    0    0 -0.57731787389E+02  0.47071641450E+03  0.25363833597E+03  0.54593300883E+03  0.93827194892E+02 0.  0.
         11    1    3    3    0    0  0.48067217351E+02 -0.11529418404E+03  0.42079089599E+02  0.13180992390E+03  0.00000000000E+00 0.  1.
        -11    1    3    3    0    0  0.31153891247E+03 -0.32011322977E+03  0.18458731936E+03  0.48332334139E+03  0.00000000000E+00 0. -1.
          1    1    6    6  502    0  0.53158744047E+01  0.44692475588E+02 -0.21068105253E+01  0.45056792445E+02  0.00000000000E+00 0. -1.
          1    1    5    5  503    0 -0.26431766539E+02  0.22551327836E+02 -0.30163067887E+02  0.46010991447E+02  0.00000000000E+00 0. -1.
         -1    1    5    5    0  503 -0.27544257590E+03 -0.57860328522E+02 -0.39059256563E+03  0.48143429724E+03  0.00000000000E+00 0.  1.
         -1    1    6    6    0  502 -0.63047661793E+02  0.42602393891E+03  0.25574514649E+03  0.50087621638E+03  0.00000000000E+00 0.  1.
<mgrwt>
<rscale>  0 0.16874612E+04</rscale>
<asrwt>0</asrwt>
<pdfrwt beam="1">  1        3 0.13446620E+00 0.16874612E+04</pdfrwt>
<pdfrwt beam="2">  1       -3 0.12530480E+00 0.16874612E+04</pdfrwt>
<totfact> 0.54186255E-01</totfact>
</mgrwt>
</event>
<event>
12    1  0.4967442E-008  0.1772040E+04  0.7818608E-02  0.8721311E-01
          1   -1    0    0  501    0  0.00000000000E+00  0.00000000000E+00  0.44032049788E+03  0.44032049788E+03  0.00000000000E+00 0. -1.
         -1   -1    0    0    0  501 -0.00000000000E+00 -0.00000000000E+00 -0.17828632254E+04  0.17828632254E+04  0.00000000000E+00 0.  1.
         23    2    1    2    0    0 -0.51044468966E+02 -0.15744772268E+03 -0.12821982399E+04  0.12963388870E+04  0.95220061843E+02 0.  0.
        254    2    1    2    0    0  0.51044468966E+02  0.15744772268E+03 -0.60344487557E+02  0.92684483628E+03  0.90994756452E+03 0.  0.
         23    2    4    4    0    0 -0.23585132084E+03  0.44291710164E+03 -0.27564447114E+02  0.51049478009E+03  0.89686773163E+02 0.  0.
         23    2    4    4    0    0  0.28689578981E+03 -0.28546937897E+03 -0.32780040443E+02  0.41635005619E+03  0.92037371226E+02 0.  0.
         11    1    3    3    0    0 -0.69891215203E+02 -0.81266857884E+02 -0.88455338309E+03  0.89102400174E+03  0.00000000000E+00 0.  1.
        -11    1    3    3    0    0  0.18846746237E+02 -0.76180864792E+02 -0.39764485683E+03  0.40531488521E+03  0.00000000000E+00 0. -1.
          4    1    6    6  502    0  0.28541915677E+03 -0.28471435399E+03 -0.20189554247E+02  0.40365081013E+03  0.00000000000E+00 0. -1.
          4    1    5    5  503    0 -0.57455778390E+01  0.46938397345E+02 -0.22775126920E+02  0.52487438652E+02  0.00000000000E+00 0. -1.
         -4    1    5    5    0  503 -0.23010574300E+03  0.39597870430E+03 -0.47893201948E+01  0.45800734143E+03  0.00000000000E+00 0.  1.
         -4    1    6    6    0  502  0.14766330400E+01 -0.75502497488E+00 -0.12590486196E+02  0.12699246060E+02  0.00000000000E+00 0.  1.
<mgrwt>
<rscale>  0 0.17720398E+04</rscale>
<asrwt>0</asrwt>
<pdfrwt beam="1">  1        1 0.67741614E-01 0.17720398E+04</pdfrwt>
<pdfrwt beam="2">  1       -1 0.27428665E+00 0.17720398E+04</pdfrwt>
<totfact> 0.24188845E+00</totfact>
</mgrwt>
</event>
<event>
12    1  0.4967442E-008  0.1751840E+04  0.7818608E-02  0.8732338E-01
          2   -1    0    0  501    0  0.00000000000E+00  0.00000000000E+00  0.33000772363E+04  0.33000772363E+04  0.00000000000E+00 0. -1.
         -2   -1    0    0    0  501 -0.00000000000E+00 -0.00000000000E+00 -0.23249020919E+03  0.23249020919E+03  0.00000000000E+00 0.  1.
         23    2    1    2    0    0  0.45623190183E+03 -0.20731210871E+03  0.19337658507E+04  0.19997016145E+04  0.90721128279E+02 0.  0.
        254    2    1    2    0    0 -0.45623190183E+03  0.20731210871E+03  0.11338211764E+04  0.15328658310E+04  0.90166586773E+03 0.  0.
         23    2    4    4    0    0 -0.53598877843E+03 -0.16948937342E+03  0.92330990956E+03  0.10848350701E+04  0.91407450119E+02 0.  0.
         23    2    4    4    0    0  0.79756876599E+02  0.37680148213E+03  0.21051126683E+03  0.44803076085E+03  0.89866862143E+02 0.  0.
         13    1    3    3    0    0  0.30083019370E+03 -0.11895289129E+03  0.10793643354E+04  0.11267989902E+04  0.00000000000E+00 0.  1.
        -13    1    3    3    0    0  0.15540170813E+03 -0.88359217411E+02  0.85440151533E+03  0.87290262435E+03  0.00000000000E+00 0. -1.
          2    1    5    5  502    0 -0.79819968258E+02 -0.25890098884E+02  0.20896704529E+03  0.22518603547E+03  0.00000000000E+00 0. -1.
          1    1    6    6  503    0  0.78132836097E+02  0.37400626819E+03  0.18898612935E+03  0.42626422066E+03  0.00000000000E+00 0.  1.
         -2    1    5    5    0  502 -0.45616881017E+03 -0.14359927454E+03  0.71434286427E+03  0.85964903464E+03  0.00000000000E+00 0.  1.
         -1    1    6    6    0  503  0.16240405022E+01  0.27952139311E+01  0.21525137485E+02  0.21766540199E+02  0.00000000000E+00 0. -1.
<mgrwt>
<rscale>  0 0.17518398E+04</rscale>
<asrwt>0</asrwt>
<pdfrwt beam="1">  1        2 0.50770416E+00 0.17518398E+04</pdfrwt>
<pdfrwt beam="2">  1       -2 0.35767727E-01 0.17518398E+04</pdfrwt>
<totfact> 0.78097352E+00</totfact>
</mgrwt>
</event>
<event>
12    1  0.4967442E-008  0.1719410E+04  0.7818608E-02  0.8750371E-01
          1   -1    0    0  501    0  0.00000000000E+00  0.00000000000E+00  0.15941071349E+04  0.15941071349E+04  0.00000000000E+00 0. -1.
         -1   -1    0    0    0  501 -0.00000000000E+00 -0.00000000000E+00 -0.46364054375E+03  0.46364054375E+03  0.00000000000E+00 0.  1.
         23    2    1    2    0    0  0.42382917452E+03  0.33066787799E+03  0.78448838233E+03  0.95535509050E+03  0.91153234877E+02 0.  0.
        254    2    1    2    0    0 -0.42382917452E+03 -0.33066787799E+03  0.34597820884E+03  0.11023925882E+04  0.89810694395E+03 0.  0.
         23    2    4    4    0    0 -0.23047224553E+03  0.15972486279E+03  0.46764056256E+03  0.55348804153E+03  0.95035933303E+02 0.  0.
         23    2    4    4    0    0 -0.19335692900E+03 -0.49039274078E+03 -0.12166235371E+03  0.54890454665E+03  0.92857583539E+02 0.  0.
         13    1    3    3    0    0  0.10900435832E+03  0.12250357242E+03  0.18773303520E+03  0.24926445373E+03  0.00000000000E+00 0.  1.
        -13    1    3    3    0    0  0.31482481620E+03  0.20816430557E+03  0.59675534713E+03  0.70609063677E+03  0.00000000000E+00 0. -1.
          2    1    5    5  502    0 -0.13005761309E+03  0.35395948128E+02  0.24163156334E+03  0.27668333573E+03  0.00000000000E+00 0. -1.
          4    1    6    6  503    0 -0.13431909350E+03 -0.30996843107E+03 -0.12168346997E+03  0.35906672640E+03  0.00000000000E+00 0. -1.
         -2    1    5    5    0  502 -0.10041463243E+03  0.12432891467E+03  0.22600899922E+03  0.27680470581E+03  0.00000000000E+00 0.  1.
         -4    1    6    6    0  503 -0.59037835495E+02 -0.18042430971E+03  0.21116252939E-01  0.18983782025E+03  0.00000000000E+00 0.  1.
<mgrwt>
<rscale>  0 0.17194100E+04</rscale>
<asrwt>0</asrwt>
<pdfrwt beam="1">  1        1 0.24524725E+00 0.17194100E+04</pdfrwt>
<pdfrwt beam="2">  1       -1 0.71329315E-01 0.17194100E+04</pdfrwt>
<totfact> 0.10619975E+01</totfact>
</mgrwt>
</event>
<event>
12    1  0.4967442E-008  0.1939372E+04  0.7818608E-02  0.8635503E-01
          1   -1    0    0  501    0  0.00000000000E+00  0.00000000000E+00  0.19386259084E+04  0.19386259084E+04  0.00000000000E+00 0. -1.
         -1   -1    0    0    0  501 -0.00000000000E+00 -0.00000000000E+00 -0.48502943332E+03  0.48502943332E+03  0.00000000000E+00 0.  1.
         23    2    1    2    0    0  0.99695670562E+02 -0.37928841820E+03 -0.23718636107E+03  0.46720367896E+03  0.90680631044E+02 0.  0.
        254    2    1    2    0    0 -0.99695670562E+02  0.37928841820E+03  0.16907828362E+04  0.19564516628E+04  0.90286077487E+03 0.  0.
         23    2    4    4    0    0 -0.32103917172E+03  0.28887801427E+03  0.28003906948E+03  0.52269112129E+03  0.90925634046E+02 0.  0.
         23    2    4    4    0    0  0.22134350116E+03  0.90410403927E+02  0.14107437667E+04  0.14337605415E+04  0.91128088054E+02 0.  0.
         11    1    3    3    0    0 -0.27177001269E+01 -0.34407632058E+02  0.29753670906E+01  0.34642803685E+02  0.00000000000E+00 0. -1.
        -11    1    3    3    0    0  0.10241337069E+03 -0.34488078614E+03 -0.24016172816E+03  0.43256087528E+03  0.00000000000E+00 0.  1.
          2    1    5    5  502    0 -0.55306655643E+01  0.12265883706E+02  0.33325300617E+02  0.35939057109E+02  0.00000000000E+00 0. -1.
          4    1    6    6  503    0  0.16647113387E+03  0.21949007974E+02  0.89772500478E+03  0.91329326154E+03  0.00000000000E+00 0.  1.
         -2    1    5    5    0  502 -0.31550850615E+03  0.27661213057E+03  0.24671376886E+03  0.48675206418E+03  0.00000000000E+00 0.  1.
         -4    1    6    6    0  503  0.54872367284E+02  0.68461395953E+02  0.51301876194E+03  0.52046727998E+03  0.00000000000E+00 0. -1.
<mgrwt>
<rscale>  0 0.19393717E+04</rscale>
<asrwt>0</asrwt>
<pdfrwt beam="1">  1        1 0.29825014E+00 0.19393717E+04</pdfrwt>
<pdfrwt beam="2">  1       -1 0.74619913E-01 0.19393717E+04</pdfrwt>
<totfact> 0.55265269E+00</totfact>
</mgrwt>
</event>
<event>
12    1  0.4967442E-008  0.1230905E+04  0.7818608E-02  0.9086228E-01
         -2   -1    0    0    0  501 -0.00000000000E+00  0.00000000000E+00  0.38418711460E+03  0.38418711460E+03  0.00000000000E+00 0.  1.
          2   -1    0    0  501    0  0.00000000000E+00 -0.00000000000E+00 -0.98593025922E+03  0.98593025922E+03  0.00000000000E+00 0. -1.
         23    2    1    2    0    0  0.18425953332E+03 -0.18930142289E+03 -0.18867505729E+03  0.34431829947E+03  0.11476153441E+03 0.  0.
        254    2    1    2    0    0 -0.18425953332E+03  0.18930142289E+03 -0.41306808733E+03  0.10257990744E+04  0.90102824142E+03 0.  0.
         23    2    4    4    0    0 -0.12204222194E+03 -0.34414850283E+03 -0.75401660189E+02  0.38499470886E+03  0.95932369679E+02 0.  0.
         23    2    4    4    0    0 -0.62217311371E+02  0.53344992572E+03 -0.33766642714E+03  0.64080436549E+03  0.90398018386E+02 0.  0.
         13    1    3    3    0    0  0.44952788703E+02 -0.64164816198E+02 -0.12308936288E+03  0.14590705296E+03  0.00000000000E+00 0. -1.
        -13    1    3    3    0    0  0.13930674461E+03 -0.12513660669E+03 -0.65585694404E+02  0.19841124651E+03  0.00000000000E+00 0.  1.
          2    1    5    5  502    0 -0.91498268295E+02 -0.25743881736E+03 -0.12304358391E+02  0.27349236739E+03  0.00000000000E+00 0. -1.
          3    1    6    6  503    0 -0.56928451197E+02  0.26568401442E+03 -0.21372190843E+03  0.34569625138E+03  0.00000000000E+00 0. -1.
         -2    1    5    5    0  502 -0.30543953649E+02 -0.86709685468E+02 -0.63097301798E+02  0.11150234147E+03  0.00000000000E+00 0.  1.
         -3    1    6    6    0  503 -0.52888601737E+01  0.26776591130E+03 -0.12394451871E+03  0.29510811412E+03  0.00000000000E+00 0.  1.
<mgrwt>
<rscale>  0 0.12309049E+04</rscale>
<asrwt>0</asrwt>
<pdfrwt beam="1">  1        2 0.15168158E+00 0.12309049E+04</pdfrwt>
<pdfrwt beam="2">  1       -2 0.59105710E-01 0.12309049E+04</pdfrwt>
<totfact> 0.67723495E+01</totfact>
</mgrwt>
</event>
<event>
12    1  0.4967442E-008  0.1658915E+04  0.7818608E-02  0.8785150E-01
         -1   -1    0    0    0  501 -0.00000000000E+00  0.00000000000E+00  0.17154919123E+04  0.17154919123E+04  0.00000000000E+00 0.  1.
          1   -1    0    0  501    0  0.00000000000E+00 -0.00000000000E+00 -0.40105088999E+03  0.40105088999E+03  0.00000000000E+00 0. -1.
         23    2    1    2    0    0  0.14051737540E+03  0.38442509649E+03 -0.60953516494E+02  0.42400956710E+03  0.92417499531E+02 0.  0.
        254    2    1    2    0    0 -0.14051737540E+03 -0.38442509649E+03  0.13753945388E+04  0.16925332352E+04  0.89745798076E+03 0.  0.
         23    2    4    4    0    0 -0.39328044046E+03 -0.48495738665E+03  0.62486211756E+03  0.88838594361E+03  0.94465587106E+02 0.  0.
         23    2    4    4    0    0  0.25276306505E+03  0.10053229016E+03  0.75053242125E+03  0.80414729158E+03  0.96736977288E+02 0.  0.
         13    1    3    3    0    0  0.25886867893E+02  0.45831647606E+02 -0.39657831171E+02  0.65904578178E+02  0.00000000000E+00 0. -1.
        -13    1    3    3    0    0  0.11463050751E+03  0.33859344888E+03 -0.21295685323E+02  0.35810498892E+03  0.00000000000E+00 0.  1.
          3    1    5    5  502    0 -0.29131219435E+03 -0.36405526133E+03  0.52100167453E+03  0.69917220535E+03  0.00000000000E+00 0. -1.
          3    1    6    6  503    0  0.14673103209E+03  0.17784291330E+02  0.30803262165E+03  0.34165826903E+03  0.00000000000E+00 0. -1.
         -3    1    5    5    0  502 -0.10196824611E+03 -0.12090212532E+03  0.10386044303E+03  0.18921373826E+03  0.00000000000E+00 0.  1.
         -3    1    6    6    0  503  0.10603203296E+03  0.82747998830E+02  0.44249979961E+03  0.46248902255E+03  0.00000000000E+00 0.  1.
<mgrwt>
<rscale>  0 0.16589148E+04</rscale>
<asrwt>0</asrwt>
<pdfrwt beam="1">  1        1 0.61700138E-01 0.16589148E+04</pdfrwt>
<pdfrwt beam="2">  1       -1 0.26392183E+00 0.16589148E+04</pdfrwt>
<totfact> 0.32322088E+00</totfact>
</mgrwt>
</event>
<event>
12    1  0.4967442E-008  0.1286565E+04  0.7818608E-02  0.9040287E-01
         -2   -1    0    0    0  501 -0.00000000000E+00  0.00000000000E+00  0.24531396287E+03  0.24531396287E+03  0.00000000000E+00 0.  1.
          2   -1    0    0  501    0  0.00000000000E+00 -0.00000000000E+00 -0.16868687907E+04  0.16868687907E+04  0.00000000000E+00 0. -1.
         23    2    1    2    0    0  0.29777454470E+03 -0.13181790580E+02 -0.25597014055E+03  0.40357266269E+03  0.92232001746E+02 0.  0.
        254    2    1    2    0    0 -0.29777454470E+03  0.13181790580E+02 -0.11855846873E+04  0.15286100909E+04  0.91771145802E+03 0.  0.
         23    2    4    4    0    0 -0.19310208587E+03 -0.13444639659E+03 -0.12811741531E+04  0.13057392454E+04  0.90462794151E+02 0.  0.
         23    2    4    4    0    0 -0.10467245882E+03  0.14762818717E+03  0.95589465795E+02  0.22287084556E+03  0.88225067567E+02 0.  0.
         11    1    3    3    0    0  0.12037285678E+03  0.11685532883E+02 -0.50719371303E+02  0.13114355095E+03  0.00000000000E+00 0.  1.
        -11    1    3    3    0    0  0.17740168791E+03 -0.24867323462E+02 -0.20525076924E+03  0.27242911174E+03  0.00000000000E+00 0. -1.
          2    1    5    5  502    0 -0.89853663990E+02 -0.47212000860E+02 -0.33746544391E+03  0.35239974431E+03  0.00000000000E+00 0. -1.
          4    1    6    6  503    0 -0.19841487452E+02  0.13181736649E+02 -0.15953669081E+02  0.28669885988E+02  0.00000000000E+00 0. -1.
         -2    1    5    5    0  502 -0.10324842188E+03 -0.87234395730E+02 -0.94370870922E+03  0.95333950106E+03  0.00000000000E+00 0.  1.
         -4    1    6    6    0  503 -0.84830971372E+02  0.13444645052E+03  0.11154313488E+03  0.19420095957E+03  0.00000000000E+00 0.  1.
<mgrwt>
<rscale>  0 0.12865651E+04</rscale>
<asrwt>0</asrwt>
<pdfrwt beam="1">  1        2 0.25951828E+00 0.12865651E+04</pdfrwt>
<pdfrwt beam="2">  1       -2 0.37740609E-01 0.12865651E+04</pdfrwt>
<totfact> 0.64805905E+01</totfact>
</mgrwt>
</event>
<event>
12    1  0.4967442E-008  0.1262377E+04  0.7818608E-02  0.9059944E-01
          1   -1    0    0  501    0  0.00000000000E+00  0.00000000000E+00  0.10220453002E+04  0.10220453002E+04  0.00000000000E+00 0. -1.
         -1   -1    0    0    0  501 -0.00000000000E+00 -0.00000000000E+00 -0.38980546701E+03  0.38980546701E+03  0.00000000000E+00 0.  1.
         23    2    1    2    0    0 -0.21330629478E+03  0.17575091876E+03  0.31635318530E+02  0.29285736913E+03  0.91524228693E+02 0.  0.
        254    2    1    2    0    0  0.21330629478E+03 -0.17575091876E+03  0.60060451469E+03  0.11189933981E+04  0.90279149370E+03 0.  0.
         23    2    4    4    0    0 -0.63783120981E+02  0.33211175067E+03  0.15460846234E+03  0.38300484803E+03  0.91773828116E+02 0.  0.
         23    2    4    4    0    0  0.27708941576E+03 -0.50786266943E+03  0.44599605235E+03  0.73598855007E+03  0.89797727141E+02 0.  0.
         11    1    3    3    0    0 -0.74549156602E+02  0.60156474333E+02 -0.32580595999E+02  0.10118237687E+03  0.00000000000E+00 0.  1.
        -11    1    3    3    0    0 -0.13875713818E+03  0.11559444442E+03  0.64215914529E+02  0.19167499225E+03  0.00000000000E+00 0. -1.
          2    1    5    5  502    0  0.12716191062E+02  0.68266449026E+02  0.62034767884E+02  0.93114563867E+02  0.00000000000E+00 0. -1.
          1    1    6    6  503    0  0.23523412943E+03 -0.38087173834E+03  0.30507673963E+03  0.54172889325E+03  0.00000000000E+00 0. -1.
         -2    1    5    5    0  502 -0.76499312043E+02  0.26384530165E+03  0.92573694454E+02  0.28989028416E+03  0.00000000000E+00 0.  1.
         -1    1    6    6    0  503  0.41855286330E+02 -0.12699093109E+03  0.14091931272E+03  0.19425965683E+03  0.00000000000E+00 0.  1.
<mgrwt>
<rscale>  0 0.12623769E+04</rscale>
<asrwt>0</asrwt>
<pdfrwt beam="1">  1        1 0.15723774E+00 0.12623769E+04</pdfrwt>
<pdfrwt beam="2">  1       -1 0.59970072E-01 0.12623769E+04</pdfrwt>
<totfact> 0.40399750E+01</totfact>
</mgrwt>
</event>
<event>
12    1  0.4967442E-008  0.2413083E+04  0.7818608E-02  0.8434622E-01
         -1   -1    0    0    0  501 -0.00000000000E+00  0.00000000000E+00  0.64734896712E+03  0.64734896712E+03  0.00000000000E+00 0.  1.
          1   -1    0    0  501    0  0.00000000000E+00 -0.00000000000E+00 -0.22487758283E+04  0.22487758283E+04  0.00000000000E+00 0. -1.
         23    2    1    2    0    0 -0.72591721745E+03  0.38633502353E+03  0.68389652119E+02  0.83018613404E+03  0.91221245585E+02 0.  0.
        254    2    1    2    0    0  0.72591721745E+03 -0.38633502353E+03 -0.16698165133E+04  0.20659386614E+04  0.89644007468E+03 0.  0.
         23    2    4    4    0    0 -0.45845670751E+02 -0.72325486267E+02  0.63502373922E+02  0.14067039093E+03  0.91775845952E+02 0.  0.
         23    2    4    4    0    0  0.77176288820E+03 -0.31400953727E+03 -0.17333188873E+04  0.19252682705E+04  0.89686137654E+02 0.  0.
         11    1    3    3    0    0 -0.55650069284E+03  0.29938349473E+03  0.13730532383E+02  0.63206963665E+03  0.00000000000E+00 0.  1.
        -11    1    3    3    0    0 -0.16941652460E+03  0.86951528799E+02  0.54659119736E+02  0.19811649739E+03  0.00000000000E+00 0. -1.
          1    1    5    5  502    0 -0.29627437828E+02 -0.92242830197E+02  0.61826378609E+02  0.11493052635E+03  0.00000000000E+00 0. -1.
          3    1    6    6  503    0  0.45636746152E+03 -0.22506883427E+03 -0.11092588424E+04  0.12204025645E+04  0.00000000000E+00 0. -1.
         -1    1    5    5    0  502 -0.16218232924E+02  0.19917343930E+02  0.16759953138E+01  0.25739864581E+02  0.00000000000E+00 0.  1.
         -3    1    6    6    0  503  0.31539542667E+03 -0.88940702998E+02 -0.62406004487E+03  0.70486570595E+03  0.00000000000E+00 0.  1.
<mgrwt>
<rscale>  0 0.24130833E+04</rscale>
<asrwt>0</asrwt>
<pdfrwt beam="1">  1        1 0.34596551E+00 0.24130833E+04</pdfrwt>
<pdfrwt beam="2">  1       -1 0.99592148E-01 0.24130833E+04</pdfrwt>
<totfact> 0.17371068E+00</totfact>
</mgrwt>
</event>
<event>
12    1  0.4967442E-008  0.2701235E+04  0.7818608E-02  0.8334605E-01
         -2   -1    0    0    0  501 -0.00000000000E+00  0.00000000000E+00  0.76640594893E+03  0.76640594893E+03  0.00000000000E+00 0.  1.
          2   -1    0    0  501    0  0.00000000000E+00 -0.00000000000E+00 -0.23801576212E+04  0.23801576212E+04  0.00000000000E+00 0. -1.
         23    2    1    2    0    0  0.91591333220E+03  0.69835214610E+03 -0.10936325076E+04  0.15910107083E+04  0.93220492365E+02 0.  0.
        254    2    1    2    0    0 -0.91591333220E+03 -0.69835214610E+03 -0.52011916472E+03  0.15555528619E+04  0.90698831773E+03 0.  0.
         23    2    4    4    0    0 -0.79378610168E+03 -0.48798702409E+03  0.40965965521E+02  0.93721382954E+03  0.91999136101E+02 0.  0.
         23    2    4    4    0    0 -0.12212723052E+03 -0.21036512201E+03 -0.56108513025E+03  0.61833903233E+03  0.91422593118E+02 0.  0.
         13    1    3    3    0    0  0.13909373814E+03  0.10967944024E+03 -0.12436562873E+03  0.21643349374E+03  0.00000000000E+00 0. -1.
        -13    1    3    3    0    0  0.77681959405E+03  0.58867270586E+03 -0.96926687883E+03  0.13745772145E+04  0.00000000000E+00 0.  1.
          2    1    5    5  502    0 -0.26766102031E+03 -0.17311839842E+03 -0.29019228433E+02  0.32008517192E+03  0.00000000000E+00 0. -1.
          4    1    6    6  503    0  0.48601669884E+01 -0.42553016882E+02 -0.51322547757E+02  0.66845975026E+02  0.00000000000E+00 0. -1.
         -2    1    5    5    0  502 -0.52612508137E+03 -0.31486862568E+03  0.69985193953E+02  0.61712865762E+03  0.00000000000E+00 0.  1.
         -4    1    6    6    0  503 -0.12698739751E+03 -0.16781210512E+03 -0.50976258249E+03  0.55149305731E+03  0.00000000000E+00 0.  1.
<mgrwt>
<rscale>  0 0.27012345E+04</rscale>
<asrwt>0</asrwt>
<pdfrwt beam="1">  1        2 0.36617810E+00 0.27012345E+04</pdfrwt>
<pdfrwt beam="2">  1       -2 0.11790861E+00 0.27012345E+04</pdfrwt>
<totfact> 0.19851888E+00</totfact>
</mgrwt>
</event>
<event>
12    1  0.4967442E-008  0.2763325E+04  0.7818608E-02  0.8314746E-01
         -1   -1    0    0    0  501 -0.00000000000E+00  0.00000000000E+00  0.10982145365E+04  0.10982145365E+04  0.00000000000E+00 0.  1.
          1   -1    0    0  501    0  0.00000000000E+00 -0.00000000000E+00 -0.17382676224E+04  0.17382676224E+04  0.00000000000E+00 0. -1.
         23    2    1    2    0    0 -0.77810281581E+03 -0.54207858521E+02 -0.12617407988E+04  0.14861764875E+04  0.91368620001E+02 0.  0.
        254    2    1    2    0    0  0.77810281581E+03  0.54207858521E+02  0.62168771295E+03  0.13503056714E+04  0.91019080968E+03 0.  0.
         23    2    4    4    0    0  0.47382218447E+03 -0.22105619038E+03 -0.75841692347E+02  0.53593738351E+03  0.90020080791E+02 0.  0.
         23    2    4    4    0    0  0.30428063134E+03  0.27526404891E+03  0.69752940530E+03  0.81436828793E+03  0.91057333105E+02 0.  0.
         13    1    3    3    0    0 -0.39223429273E+02  0.17031464079E+02 -0.77691413024E+02  0.88682037811E+02  0.00000000000E+00 0.  1.
        -13    1    3    3    0    0 -0.73887938653E+03 -0.71239322600E+02 -0.11840493858E+04  0.13974944497E+04  0.00000000000E+00 0. -1.
          2    1    5    5  502    0  0.14075846142E+03 -0.36497650982E+02  0.94573073859E+01  0.14572049839E+03  0.00000000000E+00 0. -1.
          4    1    6    6  503    0  0.63173272958E+02  0.82771360767E+02  0.24980638896E+03  0.27063849051E+03  0.00000000000E+00 0. -1.
         -2    1    5    5    0  502  0.33306372305E+03 -0.18455853940E+03 -0.85298999733E+02  0.39021688512E+03  0.00000000000E+00 0.  1.
         -4    1    6    6    0  503  0.24110735838E+03  0.19249268814E+03  0.44772301634E+03  0.54372979743E+03  0.00000000000E+00 0.  1.
<mgrwt>
<rscale>  0 0.27633246E+04</rscale>
<asrwt>0</asrwt>
<pdfrwt beam="1">  1        1 0.26742579E+00 0.27633246E+04</pdfrwt>
<pdfrwt beam="2">  1       -1 0.16895608E+00 0.27633246E+04</pdfrwt>
<totfact> 0.97620178E-01</totfact>
</mgrwt>
</event>
<event>
12    1  0.4967442E-008  0.1175136E+04  0.7818608E-02  0.9134902E-01
          1   -1    0    0  501    0  0.00000000000E+00  0.00000000000E+00  0.10949331879E+04  0.10949331879E+04  0.00000000000E+00 0. -1.
         -1   -1    0    0    0  501 -0.00000000000E+00 -0.00000000000E+00 -0.31530358930E+03  0.31530358930E+03  0.00000000000E+00 0.  1.
         23    2    1    2    0    0  0.20062114539E+03 -0.42846072204E+02  0.57720978968E+02  0.23209324481E+03  0.91928956225E+02 0.  0.
        254    2    1    2    0    0 -0.20062114539E+03  0.42846072204E+02  0.72190861962E+03  0.11781435324E+04  0.90817701905E+03 0.  0.
         23    2    4    4    0    0 -0.29949732354E+03 -0.34502318691E+03  0.57953979193E+03  0.74359164226E+03  0.91227812036E+02 0.  0.
         23    2    4    4    0    0  0.98876178154E+02  0.38786925911E+03  0.14236882769E+03  0.43455189012E+03  0.91364114085E+02 0.  0.
         13    1    3    3    0    0 -0.79191398555E+01 -0.32241765581E+01 -0.60220251529E+01  0.10458148855E+02  0.00000000000E+00 0. -1.
        -13    1    3    3    0    0  0.20854028524E+03 -0.39621895645E+02  0.63743004121E+02  0.22163509595E+03  0.00000000000E+00 0.  1.
          4    1    5    5  502    0 -0.27737124971E+03 -0.27261366561E+03  0.50436044549E+03  0.63689283228E+03  0.00000000000E+00 0. -1.
          1    1    6    6  503    0  0.10673313860E+03  0.28855639655E+03  0.83329111133E+02  0.31874832961E+03  0.00000000000E+00 0. -1.
         -4    1    5    5    0  502 -0.22126073835E+02 -0.72409521299E+02  0.75179346445E+02  0.10669880997E+03  0.00000000000E+00 0.  1.
         -1    1    6    6    0  503 -0.78569604433E+01  0.99312862557E+02  0.59039716552E+02  0.11580356051E+03  0.00000000000E+00 0.  1.
<mgrwt>
<rscale>  0 0.11751364E+04</rscale>
<asrwt>0</asrwt>
<pdfrwt beam="1">  1        1 0.16845126E+00 0.11751364E+04</pdfrwt>
<pdfrwt beam="2">  1       -1 0.48508245E-01 0.11751364E+04</pdfrwt>
<totfact> 0.53900585E+01</totfact>
</mgrwt>
</event>
<event>
12    1  0.4967442E-008  0.1560532E+04  0.7818608E-02  0.8845168E-01
         -1   -1    0    0    0  501 -0.00000000000E+00  0.00000000000E+00  0.75873766206E+03  0.75873766206E+03  0.00000000000E+00 0.  1.
          1   -1    0    0  501    0  0.00000000000E+00 -0.00000000000E+00 -0.80240554954E+03  0.80240554954E+03  0.00000000000E+00 0. -1.
         23    2    1    2    0    0  0.20820294676E+03 -0.36294858955E+03 -0.31598860204E+03  0.53226215866E+03  0.91509907793E+02 0.  0.
        254    2    1    2    0    0 -0.20820294676E+03  0.36294858955E+03  0.27232071456E+03  0.10288810529E+04  0.89964298687E+03 0.  0.
         23    2    4    4    0    0  0.30694598665E+03  0.30823031989E+03  0.17705723319E+02  0.44488010897E+03  0.91558996839E+02 0.  0.
         23    2    4    4    0    0 -0.51514893341E+03  0.54718269664E+02  0.25461499124E+03  0.58400094397E+03  0.88632929389E+02 0.  0.
         13    1    3    3    0    0  0.16499695754E+03 -0.24367117071E+03 -0.26336665876E+03  0.39491977968E+03  0.00000000000E+00 0. -1.
        -13    1    3    3    0    0  0.43205989218E+02 -0.11927741884E+03 -0.52621943276E+02  0.13734237898E+03  0.00000000000E+00 0.  1.
          4    1    5    5  502    0  0.25630536821E+03  0.20023464177E+03  0.12746901745E+02  0.32549782955E+03  0.00000000000E+00 0. -1.
          1    1    6    6  503    0 -0.46752579200E+03  0.39096747131E+02  0.20039253283E+03  0.51016280640E+03  0.00000000000E+00 0. -1.
         -4    1    5    5    0  502  0.50640618436E+02  0.10799567812E+03  0.49588215748E+01  0.11938227942E+03  0.00000000000E+00 0.  1.
         -1    1    6    6    0  503 -0.47623141404E+02  0.15621522533E+02  0.54222458414E+02  0.73838137570E+02  0.00000000000E+00 0.  1.
<mgrwt>
<rscale>  0 0.15605324E+04</rscale>
<asrwt>0</asrwt>
<pdfrwt beam="1">  1        1 0.12344701E+00 0.15605324E+04</pdfrwt>
<pdfrwt beam="2">  1       -1 0.11672887E+00 0.15605324E+04</pdfrwt>
<totfact> 0.14029159E+01</totfact>
</mgrwt>
</event>
<event>
12    1  0.4967442E-008  0.1346421E+04  0.7818608E-02  0.8993542E-01
          1   -1    0    0  501    0  0.00000000000E+00  0.00000000000E+00  0.17795370765E+04  0.17795370765E+04  0.00000000000E+00 0. -1.
         -1   -1    0    0    0  501 -0.00000000000E+00 -0.00000000000E+00 -0.25467989168E+03  0.25467989168E+03  0.00000000000E+00 0.  1.
         23    2    1    2    0    0  0.89637273769E+02 -0.53213305488E+02 -0.11135012282E+03  0.17732512985E+03  0.90437022805E+02 0.  0.
        254    2    1    2    0    0 -0.89637273769E+02  0.53213305488E+02  0.16362073076E+04  0.18568918383E+04  0.87178348742E+03 0.  0.
         23    2    4    4    0    0 -0.42127098860E+03  0.19650819419E+03  0.65466929526E+03  0.80792006380E+03  0.89767628409E+02 0.  0.
         23    2    4    4    0    0  0.33163371483E+03 -0.14329488870E+03  0.98153801234E+03  0.10489717745E+04  0.80066023218E+02 0.  0.
         11    1    3    3    0    0  0.68601031895E+02 -0.79053144282E+02 -0.85625387469E+02  0.13523020438E+03  0.00000000000E+00 0.  1.
        -11    1    3    3    0    0  0.21036241874E+02  0.25839838794E+02 -0.25724735351E+02  0.42094925466E+02  0.00000000000E+00 0. -1.
          3    1    5    5  502    0 -0.94439558428E+02  0.83467260548E+02  0.14675124982E+03  0.19344648641E+03  0.00000000000E+00 0. -1.
          3    1    6    6  503    0  0.40332748658E+02 -0.30516963348E+02  0.22240276334E+03  0.22808113646E+03  0.00000000000E+00 0. -1.
         -3    1    5    5    0  502 -0.32683143017E+03  0.11304093364E+03  0.50791804545E+03  0.61447357739E+03  0.00000000000E+00 0.  1.
         -3    1    6    6    0  503  0.29130096618E+03 -0.11277792535E+03  0.75913524900E+03  0.82089063803E+03  0.00000000000E+00 0.  1.
<mgrwt>
<rscale>  0 0.13464209E+04</rscale>
<asrwt>0</asrwt>
<pdfrwt beam="1">  1        1 0.27377493E+00 0.13464209E+04</pdfrwt>
<pdfrwt beam="2">  1       -1 0.39181523E-01 0.13464209E+04</pdfrwt>
<totfact> 0.26063828E+01</totfact>
</mgrwt>
</event>
<event>
12    1  0.4967442E-008  0.2158782E+04  0.7818608E-02  0.8535783E-01
          2   -1    0    0  501    0  0.00000000000E+00  0.00000000000E+00  0.28146125766E+04  0.28146125766E+04  0.00000000000E+00 0. -1.
         -2   -1    0    0    0  501 -0.00000000000E+00 -0.00000000000E+00 -0.41394133678E+03  0.41394133678E+03  0.00000000000E+00 0.  1.
         23    2    1    2    0    0 -0.24380450758E+03  0.50128402686E+03  0.20211302715E+04  0.20986028503E+04  0.91869665610E+02 0.  0.
        254    2    1    2    0    0  0.24380450758E+03 -0.50128402686E+03  0.37954096834E+03  0.11299510631E+04  0.90664863361E+03 0.  0.
         23    2    4    4    0    0  0.42109090761E+03  0.77876678819E+02  0.24938300278E+03  0.50478249886E+03  0.96078923298E+02 0.  0.
         23    2    4    4    0    0 -0.17728640003E+03 -0.57916070567E+03  0.13015796556E+03  0.62516856422E+03  0.83887109040E+02 0.  0.
         11    1    3    3    0    0 -0.35562890836E+02  0.97670804494E+02  0.26397174259E+03  0.28369946447E+03  0.00000000000E+00 0.  1.
        -11    1    3    3    0    0 -0.20824161675E+03  0.40361322236E+03  0.17571585289E+04  0.18149033859E+04  0.00000000000E+00 0. -1.
          4    1    5    5  502    0  0.27867636195E+03  0.20661436036E+02  0.19969750306E+03  0.34346251961E+03  0.00000000000E+00 0. -1.
          4    1    6    6  503    0 -0.13124546434E+03 -0.41900832720E+03  0.55522748441E+02  0.44257894863E+03  0.00000000000E+00 0. -1.
         -4    1    5    5    0  502  0.14241454567E+03  0.57215242783E+02  0.49685499725E+02  0.16131997926E+03  0.00000000000E+00 0.  1.
         -4    1    6    6    0  503 -0.46040935690E+02 -0.16015237847E+03  0.74635217115E+02  0.18258961560E+03  0.00000000000E+00 0.  1.
<mgrwt>
<rscale>  0 0.21587816E+04</rscale>
<asrwt>0</asrwt>
<pdfrwt beam="1">  1        2 0.43301731E+00 0.21587816E+04</pdfrwt>
<pdfrwt beam="2">  1       -2 0.63683284E-01 0.21587816E+04</pdfrwt>
<totfact> 0.47444196E+00</totfact>
</mgrwt>
</event>
<event>
12    1  0.4967442E-008  0.2167903E+04  0.7818608E-02  0.8531908E-01
         -1   -1    0    0    0  501 -0.00000000000E+00  0.00000000000E+00  0.95264171396E+03  0.95264171396E+03  0.00000000000E+00 0.  1.
          1   -1    0    0  501    0  0.00000000000E+00 -0.00000000000E+00 -0.12333601439E+04  0.12333601439E+04  0.00000000000E+00 0. -1.
         23    2    1    2    0    0  0.70434723378E+03  0.52066730881E+03 -0.28429189994E+03  0.92948481715E+03  0.12617713242E+03 0.  0.
        254    2    1    2    0    0 -0.70434723378E+03 -0.52066730881E+03  0.35734699593E+01  0.12565170408E+04  0.90090112210E+03 0.  0.
         23    2    4    4    0    0 -0.30679487212E+03 -0.34886859172E+03 -0.42763437216E+03  0.63790390536E+03  0.90652348951E+02 0.  0.
         23    2    4    4    0    0 -0.39755236167E+03 -0.17179871709E+03  0.43120784212E+03  0.61861313539E+03  0.95808813336E+02 0.  0.
         13    1    3    3    0    0  0.32067651243E+03  0.26544682040E+03 -0.73377653065E+02  0.42270524016E+03  0.00000000000E+00 0.  1.
        -13    1    3    3    0    0  0.38367072135E+03  0.25522048841E+03 -0.21091424687E+03  0.50677957700E+03  0.00000000000E+00 0. -1.
          2    1    5    5  502    0 -0.41635037422E+02 -0.95952309190E+01 -0.37241335408E+02  0.56678583791E+02  0.00000000000E+00 0. -1.
          4    1    6    6  503    0 -0.83612582047E+02 -0.35371276006E+02  0.41210020339E+02  0.99701839598E+02  0.00000000000E+00 0. -1.
         -2    1    5    5    0  502 -0.26515983469E+03 -0.33927336080E+03 -0.39039303675E+03  0.58122532157E+03  0.00000000000E+00 0.  1.
         -4    1    6    6    0  503 -0.31393977962E+03 -0.13642744108E+03  0.38999782178E+03  0.51891129579E+03  0.00000000000E+00 0.  1.
<mgrwt>
<rscale>  0 0.21679025E+04</rscale>
<asrwt>0</asrwt>
<pdfrwt beam="1">  1        1 0.18974771E+00 0.21679025E+04</pdfrwt>
<pdfrwt beam="2">  1       -1 0.14656026E+00 0.21679025E+04</pdfrwt>
<totfact> 0.34304353E+00</totfact>
</mgrwt>
</event>
<event>
12    1  0.4967442E-008  0.1544077E+04  0.7818608E-02  0.8855660E-01
         -1   -1    0    0    0  501 -0.00000000000E+00  0.00000000000E+00  0.67578909661E+03  0.67578909661E+03  0.00000000000E+00 0.  1.
          1   -1    0    0  501    0  0.00000000000E+00 -0.00000000000E+00 -0.88199607337E+03  0.88199607337E+03  0.00000000000E+00 0. -1.
         23    2    1    2    0    0 -0.31784091933E+03 -0.30419726015E+03 -0.10257461740E+03  0.46290143582E+03  0.10098199870E+03 0.  0.
        254    2    1    2    0    0  0.31784091933E+03  0.30419726015E+03 -0.10363235936E+03  0.10948837342E+04  0.99723212059E+03 0.  0.
         23    2    4    4    0    0  0.99448763348E+02  0.48844650851E+02  0.43247143392E+03  0.45571204665E+03  0.91466233432E+02 0.  0.
         23    2    4    4    0    0  0.21839215598E+03  0.25535260930E+03 -0.53610379328E+03  0.63917168751E+03  0.90736321665E+02 0.  0.
         11    1    3    3    0    0 -0.31806490791E+03 -0.29473958261E+03 -0.83483738589E+02  0.44159511071E+03  0.00000000000E+00 0.  1.
        -11    1    3    3    0    0  0.22398857716E+00 -0.94576775422E+01 -0.19090878815E+02  0.21306325101E+02  0.00000000000E+00 0. -1.
          4    1    5    5  502    0 -0.51493609471E+01  0.43553060769E+01  0.16439564752E+03  0.16453392821E+03  0.00000000000E+00 0.  1.
          1    1    6    6  503    0  0.21609458664E+03  0.24255621298E+03 -0.53528200186E+03  0.62614471837E+03  0.00000000000E+00 0. -1.
         -4    1    5    5    0  502  0.10459812429E+03  0.44489344774E+02  0.26807578640E+03  0.29117811844E+03  0.00000000000E+00 0. -1.
         -1    1    6    6    0  503  0.22975693454E+01  0.12796396321E+02 -0.82179141960E+00  0.13026969135E+02  0.00000000000E+00 0.  1.
<mgrwt>
<rscale>  0 0.15440768E+04</rscale>
<asrwt>0</asrwt>
<pdfrwt beam="1">  1        1 0.13569170E+00 0.15440768E+04</pdfrwt>
<pdfrwt beam="2">  1       -1 0.10396755E+00 0.15440768E+04</pdfrwt>
<totfact> 0.15817230E+01</totfact>
</mgrwt>
</event>
<event>
12    1  0.4967442E-008  0.1585747E+04  0.7818608E-02  0.8829353E-01
         -4   -1    0    0    0  501 -0.00000000000E+00  0.00000000000E+00  0.39632764758E+03  0.39632764758E+03  0.00000000000E+00 0.  1.
          4   -1    0    0  501    0  0.00000000000E+00 -0.00000000000E+00 -0.15861826588E+04  0.15861826588E+04  0.00000000000E+00 0. -1.
         23    2    1    2    0    0  0.19847877036E+03 -0.48366661717E+03 -0.55075645189E+03  0.76530969746E+03  0.95073891746E+02 0.  0.
        254    2    1    2    0    0 -0.19847877036E+03  0.48366661717E+03 -0.63909855929E+03  0.12172006089E+04  0.89431713330E+03 0.  0.
         23    2    4    4    0    0  0.19370004560E+03 -0.14761696416E+03 -0.29165285423E+03  0.39151629819E+03  0.94409473015E+02 0.  0.
         23    2    4    4    0    0 -0.39217881596E+03  0.63128358133E+03 -0.34744570505E+03  0.82568431068E+03  0.93342804750E+02 0.  0.
         11    1    3    3    0    0  0.13900152373E+03 -0.32671465229E+03 -0.30711290325E+03  0.46944885021E+03  0.00000000000E+00 0.  1.
        -11    1    3    3    0    0  0.59477246627E+02 -0.15695196488E+03 -0.24364354864E+03  0.29586084726E+03  0.00000000000E+00 0. -1.
          2    1    5    5  502    0  0.81384016446E+02 -0.29489756860E+02 -0.49806876426E+02  0.99868557774E+02  0.00000000000E+00 0. -1.
          3    1    6    6  503    0 -0.90912965348E+02  0.13288285577E+03 -0.34925816510E+02  0.16475082180E+03  0.00000000000E+00 0. -1.
         -2    1    5    5    0  502  0.11231602915E+03 -0.11812720730E+03 -0.24184597781E+03  0.29164774042E+03  0.00000000000E+00 0.  1.
         -3    1    6    6    0  503 -0.30126585061E+03  0.49840072557E+03 -0.31251988854E+03  0.66093348888E+03  0.00000000000E+00 0.  1.
<mgrwt>
<rscale>  0 0.15857466E+04</rscale>
<asrwt>0</asrwt>
<pdfrwt beam="1">  1        4 0.24402810E+00 0.15857466E+04</pdfrwt>
<pdfrwt beam="2">  1       -4 0.60973484E-01 0.15857466E+04</pdfrwt>
<totfact> 0.33512403E-01</totfact>
</mgrwt>
</event>
<event>
12    1  0.4967442E-008  0.1599761E+04  0.7818608E-02  0.8820695E-01
          3   -1    0    0  501    0  0.00000000000E+00  0.00000000000E+00  0.22958985152E+04  0.22958985152E+04  0.00000000000E+00 0. -1.
         -3   -1    0    0    0  501 -0.00000000000E+00 -0.00000000000E+00 -0.27867454535E+03  0.27867454535E+03  0.00000000000E+00 0.  1.
         23    2    1    2    0    0 -0.32251523726E+03  0.22806724974E+03  0.13007431283E+04  0.13624335224E+04  0.90893719804E+02 0.  0.
        254    2    1    2    0    0  0.32251523726E+03 -0.22806724974E+03  0.71648084150E+03  0.12121395382E+04  0.89437504161E+03 0.  0.
         23    2    4    4    0    0 -0.22844926186E+03 -0.86918630705E+02 -0.34465284477E+02  0.26605075510E+03  0.99253387081E+02 0.  0.
         23    2    4    4    0    0  0.55096449913E+03 -0.14114861904E+03  0.75094612598E+03  0.94608878306E+03  0.87630413398E+02 0.  0.
         11    1    3    3    0    0 -0.30722836675E+03  0.21621468959E+03  0.12803352830E+04  0.13343149921E+04  0.00000000000E+00 0. -1.
        -11    1    3    3    0    0 -0.15286870514E+02  0.11852560150E+02  0.20407845375E+02  0.28118530279E+02  0.00000000000E+00 0.  1.
          1    1    5    5  502    0 -0.33638365131E+02 -0.57251744290E+02 -0.27627473511E+01  0.66460022614E+02  0.00000000000E+00 0. -1.
          1    1    6    6  503    0  0.56494279580E+02 -0.42904326103E+02  0.10453426451E+03  0.12633209126E+03  0.00000000000E+00 0. -1.
         -1    1    5    5    0  502 -0.19481089673E+03 -0.29666886415E+02 -0.31702537126E+02  0.19959073249E+03  0.00000000000E+00 0.  1.
         -1    1    6    6    0  503  0.49447021954E+03 -0.98244292935E+02  0.64641186146E+03  0.81975669180E+03  0.00000000000E+00 0.  1.
<mgrwt>
<rscale>  0 0.15997606E+04</rscale>
<asrwt>0</asrwt>
<pdfrwt beam="1">  1        3 0.35321514E+00 0.15997606E+04</pdfrwt>
<pdfrwt beam="2">  1       -3 0.42873009E-01 0.15997606E+04</pdfrwt>
<totfact> 0.27116260E-01</totfact>
</mgrwt>
</event>
<event>
12    1  0.4967442E-008  0.1459776E+04  0.7818608E-02  0.8911651E-01
         -2   -1    0    0    0  501 -0.00000000000E+00  0.00000000000E+00  0.26637124550E+03  0.26637124550E+03  0.00000000000E+00 0.  1.
          2   -1    0    0  501    0  0.00000000000E+00 -0.00000000000E+00 -0.19999783756E+04  0.19999783756E+04  0.00000000000E+00 0. -1.
         23    2    1    2    0    0 -0.13859396970E+02 -0.11282211307E+03 -0.12136805324E+04  0.12223297158E+04  0.90269527130E+02 0.  0.
        254    2    1    2    0    0  0.13859396970E+02  0.11282211307E+03 -0.51992659776E+03  0.10440199053E+04  0.89818315697E+03 0.  0.
         23    2    4    4    0    0  0.51308601982E+02 -0.38396672228E+03 -0.25661931559E+03  0.47326878830E+03  0.89815680126E+02 0.  0.
         23    2    4    4    0    0 -0.37449205012E+02  0.49678883534E+03 -0.26330728217E+03  0.57075111696E+03  0.90689154788E+02 0.  0.
         11    1    3    3    0    0 -0.21756387673E+02 -0.10688779181E+03 -0.69105674483E+03  0.69961258209E+03  0.00000000000E+00 0.  1.
        -11    1    3    3    0    0  0.78969907035E+01 -0.59343212623E+01 -0.52262378752E+03  0.52271713375E+03  0.00000000000E+00 0. -1.
          2    1    5    5  502    0 -0.17353563731E+02 -0.61662457930E+02 -0.68636867240E+02  0.93885166223E+02  0.00000000000E+00 0. -1.
          1    1    6    6  503    0  0.24290207490E+02  0.13395536420E+03 -0.95226495026E+02  0.16613891517E+03  0.00000000000E+00 0. -1.
         -2    1    5    5    0  502  0.68662165713E+02 -0.32230426435E+03 -0.18798244835E+03  0.37938362208E+03  0.00000000000E+00 0.  1.
         -1    1    6    6    0  503 -0.61739412502E+02  0.36283347114E+03 -0.16808078714E+03  0.40461220179E+03  0.00000000000E+00 0.  1.
<mgrwt>
<rscale>  0 0.14597763E+04</rscale>
<asrwt>0</asrwt>
<pdfrwt beam="1">  1        2 0.30768898E+00 0.14597763E+04</pdfrwt>
<pdfrwt beam="2">  1       -2 0.40980192E-01 0.14597763E+04</pdfrwt>
<totfact> 0.36531989E+01</totfact>
</mgrwt>
</event>
<event>
12    1  0.4967442E-008  0.1625511E+04  0.7818608E-02  0.8805027E-01
         -2   -1    0    0    0  501 -0.00000000000E+00  0.00000000000E+00  0.22510773889E+03  0.22510773889E+03  0.00000000000E+00 0.  1.
          2   -1    0    0  501    0  0.00000000000E+00 -0.00000000000E+00 -0.29344696709E+04  0.29344696709E+04  0.00000000000E+00 0. -1.
         23    2    1    2    0    0 -0.54083184922E+03 -0.77534550428E+02 -0.77843594093E+03  0.95554436180E+03  0.92692057822E+02 0.  0.
        254    2    1    2    0    0  0.54083184922E+03  0.77534550428E+02 -0.19309259911E+04  0.22040330480E+04  0.91146903292E+03 0.  0.
         23    2    4    4    0    0  0.37204553738E+03  0.17559376783E+03 -0.19428803654E+04  0.19881630437E+04  0.93579490370E+02 0.  0.
         23    2    4    4    0    0  0.16878631185E+03 -0.98059217404E+02  0.11954374358E+02  0.21587000423E+03  0.91392135737E+02 0.  0.
         13    1    3    3    0    0 -0.58042783009E+02 -0.76228360628E+01 -0.41434885159E+02  0.71721140518E+02  0.00000000000E+00 0. -1.
        -13    1    3    3    0    0 -0.48278906622E+03 -0.69911714365E+02 -0.73700105577E+03  0.88382322128E+03  0.00000000000E+00 0.  1.
          1    1    5    5  502    0  0.23696954584E+03  0.89890478526E+02 -0.98880325644E+03  0.10207677227E+04  0.00000000000E+00 0. -1.
          3    1    6    6  503    0 -0.56719622035E+00 -0.34621001713E+02 -0.65462440532E-01  0.34625709473E+02  0.00000000000E+00 0. -1.
         -1    1    5    5    0  502  0.13507599154E+03  0.85703289306E+02 -0.95407710898E+03  0.96739532104E+03  0.00000000000E+00 0.  1.
         -3    1    6    6    0  503  0.16935350807E+03 -0.63438215691E+02  0.12019836798E+02  0.18124429476E+03  0.00000000000E+00 0.  1.
<mgrwt>
<rscale>  0 0.16255114E+04</rscale>
<asrwt>0</asrwt>
<pdfrwt beam="1">  1        2 0.45145688E+00 0.16255114E+04</pdfrwt>
<pdfrwt beam="2">  1       -2 0.34631959E-01 0.16255114E+04</pdfrwt>
<totfact> 0.14384799E+01</totfact>
</mgrwt>
</event>
<event>
12    1  0.4967442E-008  0.1290890E+04  0.7818608E-02  0.9036820E-01
          3   -1    0    0  501    0  0.00000000000E+00  0.00000000000E+00  0.12300215671E+04  0.12300215671E+04  0.00000000000E+00 0. -1.
         -3   -1    0    0    0  501 -0.00000000000E+00 -0.00000000000E+00 -0.33869288349E+03  0.33869288349E+03  0.00000000000E+00 0.  1.
         23    2    1    2    0    0  0.23399414365E+03  0.19786543371E+03  0.12884938859E+03  0.34480808427E+03  0.91577622368E+02 0.  0.
        254    2    1    2    0    0 -0.23399414365E+03 -0.19786543371E+03  0.76247929504E+03  0.12239063663E+04  0.90701054520E+03 0.  0.
         23    2    4    4    0    0 -0.37959633010E+03  0.12758199275E+03  0.37134207546E+02  0.41144541110E+03  0.86820724769E+02 0.  0.
         23    2    4    4    0    0  0.14560218645E+03 -0.32544742645E+03  0.72534508749E+03  0.81246095524E+03  0.82772481904E+02 0.  0.
         11    1    3    3    0    0  0.21587127987E+03  0.19678694475E+03  0.13955688040E+03  0.32373080478E+03  0.00000000000E+00 0.  1.
        -11    1    3    3    0    0  0.18122863779E+02  0.10784889584E+01 -0.10707491805E+02  0.21077279491E+02  0.00000000000E+00 0. -1.
          2    1    5    5  502    0 -0.75815191782E+02  0.33608631404E+02  0.42982097906E+02  0.93407409504E+02  0.00000000000E+00 0.  1.
          4    1    6    6  503    0  0.56406516097E+02 -0.14435765108E+03  0.40697499881E+03  0.43548763030E+03  0.00000000000E+00 0. -1.
         -2    1    5    5    0  502 -0.30378113832E+03  0.93973361342E+02 -0.58478903603E+01  0.31803800160E+03  0.00000000000E+00 0. -1.
         -4    1    6    6    0  503  0.89195670352E+02 -0.18108977537E+03  0.31837008868E+03  0.37697332494E+03  0.00000000000E+00 0.  1.
<mgrwt>
<rscale>  0 0.12908905E+04</rscale>
<asrwt>0</asrwt>
<pdfrwt beam="1">  1        3 0.18923409E+00 0.12908905E+04</pdfrwt>
<pdfrwt beam="2">  1       -3 0.52106598E-01 0.12908905E+04</pdfrwt>
<totfact> 0.16186538E+00</totfact>
</mgrwt>
</event>
<event>
12    1  0.4967442E-008  0.2481023E+04  0.7818608E-02  0.8409777E-01
          2   -1    0    0  501    0  0.00000000000E+00  0.00000000000E+00  0.10997370413E+04  0.10997370413E+04  0.00000000000E+00 0. -1.
         -2   -1    0    0    0  501 -0.00000000000E+00 -0.00000000000E+00 -0.13993065922E+04  0.13993065922E+04  0.00000000000E+00 0.  1.
         23    2    1    2    0    0 -0.10249534530E+04  0.34048983898E+03 -0.31149667593E+02  0.10843217856E+04  0.91216893972E+02 0.  0.
        254    2    1    2    0    0  0.10249534530E+04 -0.34048983898E+03 -0.26841988335E+03  0.14147218479E+04  0.87345621636E+03 0.  0.
         23    2    4    4    0    0  0.14436102025E+03 -0.45465991145E+03 -0.11455646635E+02  0.48593756284E+03  0.91914873098E+02 0.  0.
         23    2    4    4    0    0  0.88059243273E+03  0.11417007247E+03 -0.25696423671E+03  0.92878428505E+03  0.90176444692E+02 0.  0.
         11    1    3    3    0    0 -0.92772689467E+03  0.30669819541E+03 -0.55028736925E+02  0.97865680197E+03  0.00000000000E+00 0.  1.
        -11    1    3    3    0    0 -0.97226558313E+02  0.33791643572E+02  0.23879069332E+02  0.10566498365E+03  0.00000000000E+00 0. -1.
          4    1    5    5  502    0  0.13077190452E+03 -0.45312233862E+03 -0.74017496736E+01  0.47167354247E+03  0.00000000000E+00 0. -1.
          1    1    6    6  503    0  0.65955764514E+03  0.10648896213E+03 -0.15824399369E+03  0.68658382435E+03  0.00000000000E+00 0. -1.
         -4    1    5    5    0  502  0.13589115735E+02 -0.15375728276E+01 -0.40538969614E+01  0.14264020374E+02  0.00000000000E+00 0.  1.
         -1    1    6    6    0  503  0.22103478759E+03  0.76811103319E+01 -0.98720243022E+02  0.24220046070E+03  0.00000000000E+00 0.  1.
<mgrwt>
<rscale>  0 0.24810234E+04</rscale>
<asrwt>0</asrwt>
<pdfrwt beam="1">  1        2 0.16919031E+00 0.24810234E+04</pdfrwt>
<pdfrwt beam="2">  1       -2 0.21527794E+00 0.24810234E+04</pdfrwt>
<totfact> 0.20617765E+00</totfact>
</mgrwt>
</event>
<event>
12    1  0.4967442E-008  0.1841011E+04  0.7818608E-02  0.8684789E-01
          2   -1    0    0  501    0  0.00000000000E+00  0.00000000000E+00  0.13255976549E+04  0.13255976549E+04  0.00000000000E+00 0. -1.
         -2   -1    0    0    0  501 -0.00000000000E+00 -0.00000000000E+00 -0.63920606497E+03  0.63920606497E+03  0.00000000000E+00 0.  1.
         23    2    1    2    0    0  0.41419757921E+03  0.22886344639E+03 -0.28570165950E+03  0.55918219312E+03  0.84387055603E+02 0.  0.
        254    2    1    2    0    0 -0.41419757921E+03 -0.22886344639E+03  0.97209324946E+03  0.14056215268E+04  0.89825858148E+03 0.  0.
         23    2    4    4    0    0  0.15372635248E+03  0.22100775281E+03  0.29352482640E+03  0.40883245027E+03  0.92254704126E+02 0.  0.
         23    2    4    4    0    0 -0.56792393169E+03 -0.44987119919E+03  0.67856842306E+03  0.99678907651E+03  0.90618266595E+02 0.  0.
         13    1    3    3    0    0  0.24625152690E+03  0.16470559574E+03 -0.13950424756E+03  0.32745867351E+03  0.00000000000E+00 0.  1.
        -13    1    3    3    0    0  0.16794605231E+03  0.64157850642E+02 -0.14619741193E+03  0.23172351961E+03  0.00000000000E+00 0. -1.
          2    1    5    5  502    0  0.80896979100E+02  0.90404164628E+02  0.70490394936E+02  0.14030726990E+03  0.00000000000E+00 0. -1.
          2    1    6    6  503    0 -0.33668239842E+03 -0.26066016638E+03  0.45841662350E+03  0.62565530481E+03  0.00000000000E+00 0. -1.
         -2    1    5    5    0  502  0.72829373376E+02  0.13060358818E+03  0.22303443147E+03  0.26852518037E+03  0.00000000000E+00 0.  1.
         -2    1    6    6    0  503 -0.23124153327E+03 -0.18921103282E+03  0.22015179955E+03  0.37113377170E+03  0.00000000000E+00 0.  1.
<mgrwt>
<rscale>  0 0.18410107E+04</rscale>
<asrwt>0</asrwt>
<pdfrwt beam="1">  1        2 0.20393810E+00 0.18410107E+04</pdfrwt>
<pdfrwt beam="2">  1       -2 0.98339395E-01 0.18410107E+04</pdfrwt>
<totfact> 0.12918871E+01</totfact>
</mgrwt>
</event>
<event>
12    1  0.4967442E-008  0.1619553E+04  0.7818608E-02  0.8808625E-01
         -1   -1    0    0    0  501 -0.00000000000E+00  0.00000000000E+00  0.41930027632E+03  0.41930027632E+03  0.00000000000E+00 0. -1.
          1   -1    0    0  501    0  0.00000000000E+00 -0.00000000000E+00 -0.15638857208E+04  0.15638857208E+04  0.00000000000E+00 0.  1.
         23    2    1    2    0    0 -0.17659115298E+03  0.58523559033E+03 -0.71293306230E+03  0.94353937828E+03  0.91147548182E+02 0.  0.
        254    2    1    2    0    0  0.17659115298E+03 -0.58523559033E+03 -0.43165238215E+03  0.10396466188E+04  0.72170366598E+03 0.  0.
         23    2    4    4    0    0  0.21792500654E+03 -0.54637759357E+03 -0.59747158370E+03  0.84337446864E+03  0.91040748011E+02 0.  0.
         23    2    4    4    0    0 -0.41333853559E+02 -0.38857996763E+02  0.16581920155E+03  0.19627215017E+03  0.88364687340E+02 0.  0.
         11    1    3    3    0    0 -0.12014180270E+03  0.29483929939E+03 -0.31687319700E+03  0.44919137146E+03  0.00000000000E+00 0. -1.
        -11    1    3    3    0    0 -0.56449350283E+02  0.29039629094E+03 -0.39605986530E+03  0.49434800682E+03  0.00000000000E+00 0.  1.
          4    1    5    5  502    0  0.86471942998E+02 -0.19075017482E+03 -0.27480002590E+03  0.34551133173E+03  0.00000000000E+00 0. -1.
          1    1    6    6  503    0  0.11999956523E+02  0.19360803932E+01 -0.46819047771E+01  0.13025651469E+02  0.00000000000E+00 0. -1.
         -4    1    5    5    0  502  0.13145306354E+03 -0.35562741875E+03 -0.32267155779E+03  0.49786313691E+03  0.00000000000E+00 0.  1.
         -1    1    6    6    0  503 -0.53333810082E+02 -0.40794077156E+02  0.17050110633E+03  0.18324649870E+03  0.00000000000E+00 0.  1.
<mgrwt>
<rscale>  0 0.16195527E+04</rscale>
<asrwt>0</asrwt>
<pdfrwt beam="1">  1        1 0.24059781E+00 0.16195527E+04</pdfrwt>
<pdfrwt beam="2">  1       -1 0.64507734E-01 0.16195527E+04</pdfrwt>
<totfact> 0.13793164E+01</totfact>
</mgrwt>
</event>
<event>
12    1  0.4967442E-008  0.1225085E+04  0.7818608E-02  0.9091179E-01
         -2   -1    0    0    0  501 -0.00000000000E+00  0.00000000000E+00  0.24409080491E+03  0.24409080491E+03  0.00000000000E+00 0. -1.
          2   -1    0    0  501    0  0.00000000000E+00 -0.00000000000E+00 -0.15371659743E+04  0.15371659743E+04  0.00000000000E+00 0.  1.
         23    2    1    2    0    0  0.14655518189E+03  0.11857134461E+03 -0.18404015366E+02  0.20979095660E+03  0.90199515468E+02 0.  0.
        254    2    1    2    0    0 -0.14655518189E+03 -0.11857134461E+03 -0.12746711541E+04  0.15714658226E+04  0.89954471574E+03 0.  0.
         23    2    4    4    0    0 -0.38362850713E+03  0.14129590968E+03 -0.25821978005E+03  0.49236279625E+03  0.92780939555E+02 0.  0.
         23    2    4    4    0    0  0.23707332525E+03 -0.25986725429E+03 -0.10164513740E+04  0.10791030264E+04  0.86920621428E+02 0.  0.
         13    1    3    3    0    0 -0.10010579253E+02  0.19491019255E+02  0.64679696339E+01  0.22846141025E+02  0.00000000000E+00 0.  1.
        -13    1    3    3    0    0  0.15656576114E+03  0.99080325357E+02 -0.24871985000E+02  0.18694481558E+03  0.00000000000E+00 0. -1.
          4    1    5    5  502    0 -0.37049183015E+03  0.13409052127E+03 -0.26608328508E+03  0.47544166698E+03  0.00000000000E+00 0. -1.
          1    1    6    6  503    0  0.13283323169E+03 -0.15552238486E+03 -0.71220392588E+03  0.74099008879E+03  0.00000000000E+00 0. -1.
         -4    1    5    5    0  502 -0.13136676984E+02  0.72053884133E+01  0.78635050326E+01  0.16921129270E+02  0.00000000000E+00 0.  1.
         -1    1    6    6    0  503  0.10424009356E+03 -0.10434486943E+03 -0.30424744814E+03  0.33811293762E+03  0.00000000000E+00 0.  1.
<mgrwt>
<rscale>  0 0.12250846E+04</rscale>
<asrwt>0</asrwt>
<pdfrwt beam="1">  1        2 0.23648707E+00 0.12250846E+04</pdfrwt>
<pdfrwt beam="2">  1       -2 0.37552432E-01 0.12250846E+04</pdfrwt>
<totfact> 0.79665516E+01</totfact>
</mgrwt>
</event>
<event>
12    1  0.4967442E-008  0.1396431E+04  0.7818608E-02  0.8956406E-01
         -1   -1    0    0    0  501 -0.00000000000E+00  0.00000000000E+00  0.85320045769E+03  0.85320045769E+03  0.00000000000E+00 0.  1.
          1   -1    0    0  501    0  0.00000000000E+00 -0.00000000000E+00 -0.57138341718E+03  0.57138341718E+03  0.00000000000E+00 0. -1.
         23    2    1    2    0    0  0.34502754268E+03  0.13241020078E+03  0.25363918884E+03  0.45747892546E+03  0.91529572535E+02 0.  0.
        254    2    1    2    0    0 -0.34502754268E+03 -0.13241020078E+03  0.28177851664E+02  0.96710494941E+03  0.89326453269E+03 0.  0.
         23    2    4    4    0    0 -0.40013429850E+03  0.28667361509E+03  0.13941622358E+03  0.51956481941E+03  0.90672486152E+02 0.  0.
         23    2    4    4    0    0  0.55106755824E+02 -0.41908381588E+03 -0.11123837192E+03  0.44754013000E+03  0.96177925238E+02 0.  0.
         11    1    3    3    0    0  0.68191102414E+02  0.37342012329E+02  0.13580968209E+02  0.78923349085E+02  0.00000000000E+00 0. -1.
        -11    1    3    3    0    0  0.27683644027E+03  0.95068188454E+02  0.24005822063E+03  0.37855557638E+03  0.00000000000E+00 0.  1.
          1    1    5    5  502    0 -0.34958198367E+03  0.20769651207E+03  0.11758023473E+03  0.42328538368E+03  0.00000000000E+00 0. -1.
          3    1    6    6  503    0  0.82013552682E+02 -0.33109600369E+03 -0.79853149853E+02  0.35032458096E+03  0.00000000000E+00 0. -1.
         -1    1    5    5    0  502 -0.50552314830E+02  0.78977103024E+02  0.21835988851E+02  0.96279435737E+02  0.00000000000E+00 0.  1.
         -3    1    6    6    0  503 -0.26906796857E+02 -0.87987812186E+02 -0.31385222063E+02  0.97215549036E+02  0.00000000000E+00 0.  1.
<mgrwt>
<rscale>  0 0.13964306E+04</rscale>
<asrwt>0</asrwt>
<pdfrwt beam="1">  1        1 0.87905141E-01 0.13964306E+04</pdfrwt>
<pdfrwt beam="2">  1       -1 0.13126161E+00 0.13964306E+04</pdfrwt>
<totfact> 0.17739448E+01</totfact>
</mgrwt>
</event>
<event>
12    1  0.4967442E-008  0.1925565E+04  0.7818608E-02  0.8642235E-01
         -2   -1    0    0    0  501 -0.00000000000E+00  0.00000000000E+00  0.41493985479E+03  0.41493985479E+03  0.00000000000E+00 0.  1.
          2   -1    0    0  501    0  0.00000000000E+00 -0.00000000000E+00 -0.22339387469E+04  0.22339387469E+04  0.00000000000E+00 0. -1.
         23    2    1    2    0    0 -0.42506865340E+03 -0.57458290978E+03 -0.39916260962E+03  0.82316758150E+03  0.86285560790E+02 0.  0.
        254    2    1    2    0    0  0.42506865340E+03  0.57458290978E+03 -0.14198362825E+04  0.18257110202E+04  0.89802938695E+03 0.  0.
         23    2    4    4    0    0 -0.24620156261E+03  0.27773942009E+03 -0.67515624392E+03  0.77576680433E+03  0.90685093027E+02 0.  0.
         23    2    4    4    0    0  0.67127021601E+03  0.29684348969E+03 -0.74468003855E+03  0.10499442158E+04  0.95471127980E+02 0.  0.
         13    1    3    3    0    0 -0.40269335287E+03 -0.54669014835E+03 -0.39871907111E+03  0.78740647217E+03  0.00000000000E+00 0.  1.
        -13    1    3    3    0    0 -0.22375300535E+02 -0.27892761432E+02 -0.44353850702E+00  0.35761109333E+02  0.00000000000E+00 0. -1.
          3    1    5    5  502    0 -0.17562005899E+03  0.21661456773E+03 -0.42079182616E+03  0.50480693046E+03  0.00000000000E+00 0.  1.
          3    1    6    6  503    0  0.76900381852E+02  0.48641164775E+02 -0.55294041125E+02  0.10647564334E+03  0.00000000000E+00 0. -1.
         -3    1    5    5    0  502 -0.70581503615E+02  0.61124852356E+02 -0.25436441775E+03  0.27095987387E+03  0.00000000000E+00 0. -1.
         -3    1    6    6    0  503  0.59436983416E+03  0.24820232492E+03 -0.68938599742E+03  0.94346857250E+03  0.00000000000E+00 0.  1.
<mgrwt>
<rscale>  0 0.19255651E+04</rscale>
<asrwt>0</asrwt>
<pdfrwt beam="1">  1        2 0.34368288E+00 0.19255651E+04</pdfrwt>
<pdfrwt beam="2">  1       -2 0.63836901E-01 0.19255651E+04</pdfrwt>
<totfact> 0.10482994E+01</totfact>
</mgrwt>
</event>
<event>
12    1  0.4967442E-008  0.1514268E+04  0.7818608E-02  0.8875020E-01
         -2   -1    0    0    0  501 -0.00000000000E+00  0.00000000000E+00  0.52737757388E+03  0.52737757388E+03  0.00000000000E+00 0.  1.
          2   -1    0    0  501    0  0.00000000000E+00 -0.00000000000E+00 -0.10869855801E+04  0.10869855801E+04  0.00000000000E+00 0. -1.
         23    2    1    2    0    0  0.12220824636E+03  0.27961149557E+03 -0.56776698250E+03  0.65056238680E+03  0.88060370035E+02 0.  0.
        254    2    1    2    0    0 -0.12220824636E+03 -0.27961149557E+03  0.81589762371E+01  0.96380076722E+03  0.91418154984E+03 0.  0.
         23    2    4    4    0    0 -0.92826268971E+02  0.29476597714E+03  0.16305993781E+03  0.36138830082E+03  0.92245667439E+02 0.  0.
         23    2    4    4    0    0 -0.29381977384E+02 -0.57437747271E+03 -0.15490096157E+03  0.60241246640E+03  0.90186972626E+02 0.  0.
         13    1    3    3    0    0  0.53871652385E+02  0.60515846961E+02 -0.21448580912E+03  0.22927818252E+03  0.00000000000E+00 0.  1.
        -13    1    3    3    0    0  0.68336593970E+02  0.21909564861E+03 -0.35328117338E+03  0.42128420428E+03  0.00000000000E+00 0. -1.
          1    1    5    5  502    0 -0.71647791906E+02  0.18263049490E+03  0.53861053847E+02  0.20344118775E+03  0.00000000000E+00 0. -1.
          3    1    6    6  503    0 -0.82777986414E+01 -0.33257157492E+03 -0.44069306410E+02  0.33558080721E+03  0.00000000000E+00 0. -1.
         -1    1    5    5    0  502 -0.21178477065E+02  0.11213548224E+03  0.10919888396E+03  0.15794711306E+03  0.00000000000E+00 0.  1.
         -3    1    6    6    0  503 -0.21104178743E+02 -0.24180589779E+03 -0.11083165516E+03  0.26683165920E+03  0.00000000000E+00 0.  1.
<mgrwt>
<rscale>  0 0.15142679E+04</rscale>
<asrwt>0</asrwt>
<pdfrwt beam="1">  1        2 0.16722855E+00 0.15142679E+04</pdfrwt>
<pdfrwt beam="2">  1       -2 0.81135012E-01 0.15142679E+04</pdfrwt>
<totfact> 0.28690378E+01</totfact>
</mgrwt>
</event>
<event>
12    1  0.4967442E-008  0.1296621E+04  0.7818608E-02  0.9032249E-01
          2   -1    0    0  501    0  0.00000000000E+00  0.00000000000E+00  0.25802945199E+04  0.25802945199E+04  0.00000000000E+00 0. -1.
         -2   -1    0    0    0  501 -0.00000000000E+00 -0.00000000000E+00 -0.16289084638E+03  0.16289084638E+03  0.00000000000E+00 0.  1.
         23    2    1    2    0    0  0.84487428941E-02 -0.24531776686E+03  0.11277684304E+04  0.11578226092E+04  0.92253753369E+02 0.  0.
        254    2    1    2    0    0 -0.84487428941E-02  0.24531776686E+03  0.12896352432E+04  0.15853627571E+04  0.88883924554E+03 0.  0.
         23    2    4    4    0    0  0.16409911860E+03 -0.20662615904E+03  0.94682354193E+03  0.98754558726E+03  0.95648194129E+02 0.  0.
         23    2    4    4    0    0 -0.16410756735E+03  0.45194392589E+03  0.34281170124E+03  0.59781716986E+03  0.93171348913E+02 0.  0.
         11    1    3    3    0    0  0.25332236744E+02 -0.39536302552E+02  0.33998539637E+03  0.34321263261E+03  0.00000000000E+00 0.  1.
        -11    1    3    3    0    0 -0.25323788001E+02 -0.20578146430E+03  0.78778303402E+03  0.81460997661E+03  0.00000000000E+00 0. -1.
          3    1    6    6  502    0 -0.69127776528E+02  0.83735958831E+02  0.91709905291E+02  0.14213045774E+03  0.00000000000E+00 0. -1.
          3    1    5    5  503    0  0.10642046140E+03 -0.65960244294E+02  0.50528025200E+03  0.52056142912E+03  0.00000000000E+00 0. -1.
         -3    1    5    5    0  503  0.57678657205E+02 -0.14066591474E+03  0.44154328993E+03  0.46698415814E+03  0.00000000000E+00 0.  1.
         -3    1    6    6    0  502 -0.94979790817E+02  0.36820796706E+03  0.25110179595E+03  0.45568671212E+03  0.00000000000E+00 0.  1.
<mgrwt>
<rscale>  0 0.12966208E+04</rscale>
<asrwt>0</asrwt>
<pdfrwt beam="1">  1        2 0.39696836E+00 0.12966208E+04</pdfrwt>
<pdfrwt beam="2">  1       -2 0.25060132E-01 0.12966208E+04</pdfrwt>
<totfact> 0.44017524E+01</totfact>
</mgrwt>
</event>
<event>
12    1  0.4967442E-008  0.1366417E+04  0.7818608E-02  0.8978493E-01
          3   -1    0    0  501    0  0.00000000000E+00  0.00000000000E+00  0.12616320580E+04  0.12616320580E+04  0.00000000000E+00 0. -1.
         -3   -1    0    0    0  501 -0.00000000000E+00 -0.00000000000E+00 -0.36997615580E+03  0.36997615580E+03  0.00000000000E+00 0.  1.
         23    2    1    2    0    0 -0.37773993911E+03 -0.41990447627E+02  0.26866436157E+03  0.47357723477E+03  0.87431108997E+02 0.  0.
        254    2    1    2    0    0  0.37773993911E+03  0.41990447627E+02  0.62299154060E+03  0.11580309790E+04  0.89914772390E+03 0.  0.
         23    2    4    4    0    0  0.33260004970E+03  0.42828941417E+03  0.22620299138E+03  0.59478499784E+03  0.92448823625E+02 0.  0.
         23    2    4    4    0    0  0.45139889413E+02 -0.38629896655E+03  0.39678854921E+03  0.56324598117E+03  0.92414183681E+02 0.  0.
         13    1    3    3    0    0 -0.72566229951E+02 -0.29323647722E+02  0.91774252558E+02  0.12061611616E+03  0.00000000000E+00 0.  1.
        -13    1    3    3    0    0 -0.30517370916E+03 -0.12666799905E+02  0.17689010902E+03  0.35296111861E+03  0.00000000000E+00 0. -1.
          2    1    5    5  502    0  0.22568258927E+03  0.30700035707E+03  0.11307383264E+03  0.39745130767E+03  0.00000000000E+00 0. -1.
          4    1    6    6  503    0 -0.12802301334E+02 -0.16884326069E+03  0.12549540288E+03  0.21076299900E+03  0.00000000000E+00 0. -1.
         -2    1    5    5    0  502  0.10691746043E+03  0.12128905710E+03  0.11312915874E+03  0.19733369017E+03  0.00000000000E+00 0.  1.
         -4    1    6    6    0  503  0.57942190746E+02 -0.21745570586E+03  0.27129314633E+03  0.35248298217E+03  0.00000000000E+00 0.  1.
<mgrwt>
<rscale>  0 0.13664169E+04</rscale>
<asrwt>0</asrwt>
<pdfrwt beam="1">  1        3 0.19409724E+00 0.13664169E+04</pdfrwt>
<pdfrwt beam="2">  1       -3 0.56919409E-01 0.13664169E+04</pdfrwt>
<totfact> 0.12463758E+00</totfact>
</mgrwt>
</event>
<event>
12    1  0.4967442E-008  0.1703644E+04  0.7818608E-02  0.8759289E-01
         -2   -1    0    0    0  501 -0.00000000000E+00  0.00000000000E+00  0.71807738411E+03  0.71807738411E+03  0.00000000000E+00 0.  1.
          2   -1    0    0  501    0  0.00000000000E+00 -0.00000000000E+00 -0.10104771582E+04  0.10104771582E+04  0.00000000000E+00 0. -1.
         23    2    1    2    0    0  0.94879437328E+02  0.30005973474E+03  0.42630046944E+03  0.53729030970E+03  0.88942872726E+02 0.  0.
        254    2    1    2    0    0 -0.94879437328E+02 -0.30005973474E+03 -0.71870024358E+03  0.11912642327E+04  0.89640531003E+03 0.  0.
         23    2    4    4    0    0 -0.36169386034E+03  0.94839912315E+02 -0.87097223012E+02  0.39480226218E+03  0.92010012440E+02 0.  0.
         23    2    4    4    0    0  0.26681442301E+03 -0.39489964705E+03 -0.63160302057E+03  0.79646197048E+03  0.91069354077E+02 0.  0.
         13    1    3    3    0    0  0.44030073526E+02  0.40598498417E+02  0.10806893258E+03  0.12355476372E+03  0.00000000000E+00 0. -1.
        -13    1    3    3    0    0  0.50849363802E+02  0.25946123632E+03  0.31823153686E+03  0.41373554598E+03  0.00000000000E+00 0.  1.
          1    1    6    6  502    0  0.13159861409E+03 -0.18961340332E+03 -0.38076253512E+03  0.44525447343E+03  0.00000000000E+00 0. -1.
          1    1    5    5  503    0 -0.14163277230E+03 -0.58578868142E+01 -0.16510291762E+02  0.14271211148E+03  0.00000000000E+00 0. -1.
         -1    1    5    5    0  503 -0.22006108804E+03  0.10069779913E+03 -0.70586931249E+02  0.25209015070E+03  0.00000000000E+00 0.  1.
         -1    1    6    6    0  502  0.13521580892E+03 -0.20528624373E+03 -0.25084048545E+03  0.35120749705E+03  0.00000000000E+00 0.  1.
<mgrwt>
<rscale>  0 0.17036441E+04</rscale>
<asrwt>0</asrwt>
<pdfrwt beam="1">  1        2 0.15545802E+00 0.17036441E+04</pdfrwt>
<pdfrwt beam="2">  1       -2 0.11047344E+00 0.17036441E+04</pdfrwt>
<totfact> 0.15342455E+01</totfact>
</mgrwt>
</event>
<event>
12    1  0.4967442E-008  0.1543853E+04  0.7818608E-02  0.8855804E-01
         -2   -1    0    0    0  501 -0.00000000000E+00  0.00000000000E+00  0.31740242453E+03  0.31740242453E+03  0.00000000000E+00 0.  1.
          2   -1    0    0  501    0  0.00000000000E+00 -0.00000000000E+00 -0.18773335968E+04  0.18773335968E+04  0.00000000000E+00 0. -1.
         23    2    1    2    0    0  0.36742888125E+03 -0.55796095393E+02 -0.99287226237E+03  0.10640862973E+04  0.91472026700E+02 0.  0.
        254    2    1    2    0    0 -0.36742888125E+03  0.55796095393E+02 -0.56705890994E+03  0.11306497241E+04  0.90481810558E+03 0.  0.
         23    2    4    4    0    0 -0.36106807690E+03  0.26076661058E+03 -0.72514035296E+03  0.85602015933E+03  0.92588337998E+02 0.  0.
         23    2    4    4    0    0 -0.63608043438E+01 -0.20497051519E+03  0.15808144302E+03  0.27462956475E+03  0.91532962813E+02 0.  0.
         13    1    3    3    0    0  0.10682720316E+01 -0.11655848715E+00  0.20935006302E+01  0.23531969537E+01  0.00000000000E+00 0.  1.
        -13    1    3    3    0    0  0.36636060922E+03 -0.55679536906E+02 -0.99496576300E+03  0.10617331003E+04  0.00000000000E+00 0. -1.
          3    1    6    6  502    0 -0.31315864272E+02 -0.18302633796E+03  0.15382822447E+03  0.24112744843E+03  0.00000000000E+00 0. -1.
          3    1    5    5  503    0 -0.25861877636E+03  0.22770250538E+03 -0.58989771414E+03  0.68316280314E+03  0.00000000000E+00 0. -1.
         -3    1    5    5    0  503 -0.10244930054E+03  0.33064105205E+02 -0.13524263882E+03  0.17285735619E+03  0.00000000000E+00 0.  1.
         -3    1    6    6    0  502  0.24955059929E+02 -0.21944177227E+02  0.42532185510E+01  0.33502116325E+02  0.00000000000E+00 0.  1.
<mgrwt>
<rscale>  0 0.15438526E+04</rscale>
<asrwt>0</asrwt>
<pdfrwt beam="1">  1        2 0.28882055E+00 0.15438526E+04</pdfrwt>
<pdfrwt beam="2">  1       -2 0.48831143E-01 0.15438526E+04</pdfrwt>
<totfact> 0.29895411E+01</totfact>
</mgrwt>
</event>
<event>
12    1  0.4967442E-008  0.1760426E+04  0.7818608E-02  0.8727632E-01
         -2   -1    0    0    0  501 -0.00000000000E+00  0.00000000000E+00  0.33581022364E+03  0.33581022364E+03  0.00000000000E+00 0.  1.
          2   -1    0    0  501    0  0.00000000000E+00 -0.00000000000E+00 -0.23071806593E+04  0.23071806593E+04  0.00000000000E+00 0. -1.
         23    2    1    2    0    0 -0.25660569353E+03 -0.16882151905E+03  0.12118062547E+03  0.34200171152E+03  0.89068734387E+02 0.  0.
        254    2    1    2    0    0  0.25660569353E+03  0.16882151905E+03 -0.20925510611E+04  0.23009891714E+04  0.90632998199E+03 0.  0.
         23    2    4    4    0    0 -0.27269114538E+03 -0.29726832359E+02 -0.29374865497E+03  0.41320328819E+03  0.95940292609E+02 0.  0.
         23    2    4    4    0    0  0.52929683891E+03  0.19854835141E+03 -0.17988024062E+04  0.18877858832E+04  0.92026370771E+02 0.  0.
         11    1    3    3    0    0 -0.22188207368E+03 -0.10178053300E+03  0.87367271945E+02  0.25927586028E+03  0.00000000000E+00 0.  1.
        -11    1    3    3    0    0 -0.34723619852E+02 -0.67040986051E+02  0.33813353529E+02  0.82725851239E+02  0.00000000000E+00 0. -1.
          2    1    5    5  502    0 -0.27802140513E+03 -0.27873431851E+02 -0.26913734266E+03  0.38795326926E+03  0.00000000000E+00 0. -1.
          4    1    6    6  503    0  0.30320566231E+02  0.17293696619E+02 -0.56625589218E+02  0.66519666518E+02  0.00000000000E+00 0.  1.
         -2    1    5    5    0  502  0.53302597527E+01 -0.18534005076E+01 -0.24611312312E+02  0.25250018934E+02  0.00000000000E+00 0.  1.
         -4    1    6    6    0  503  0.49897627268E+03  0.18125465479E+03 -0.17421768169E+04  0.18212662167E+04  0.00000000000E+00 0. -1.
<mgrwt>
<rscale>  0 0.17604259E+04</rscale>
<asrwt>0</asrwt>
<pdfrwt beam="1">  1        2 0.35495088E+00 0.17604259E+04</pdfrwt>
<pdfrwt beam="2">  1       -2 0.51663110E-01 0.17604259E+04</pdfrwt>
<totfact> 0.15061698E+01</totfact>
</mgrwt>
</event>
<event>
12    1  0.4967442E-008  0.2261278E+04  0.7818608E-02  0.8493347E-01
          1   -1    0    0  501    0  0.00000000000E+00  0.00000000000E+00  0.46066331941E+03  0.46066331941E+03  0.00000000000E+00 0. -1.
         -1   -1    0    0    0  501 -0.00000000000E+00 -0.00000000000E+00 -0.27750077630E+04  0.27750077630E+04  0.00000000000E+00 0.  1.
         23    2    1    2    0    0 -0.43008129987E+03 -0.83897198320E+02 -0.21909257655E+04  0.22360064440E+04  0.86950809110E+02 0.  0.
        254    2    1    2    0    0  0.43008129987E+03  0.83897198320E+02 -0.12341867806E+03  0.99966463840E+03  0.88999357009E+03 0.  0.
         23    2    4    4    0    0  0.39489658881E+03 -0.30779390059E+03  0.12648434589E+03  0.52437065395E+03  0.91026874495E+02 0.  0.
         23    2    4    4    0    0  0.35184711059E+02  0.39169109891E+03 -0.24990302394E+03  0.47529398445E+03  0.93770834573E+02 0.  0.
         11    1    3    3    0    0 -0.43379776230E+02 -0.13551154325E+02 -0.39303367413E+03  0.39565250886E+03  0.00000000000E+00 0. -1.
        -11    1    3    3    0    0 -0.38670152364E+03 -0.70346043995E+02 -0.17978920914E+04  0.18403539351E+04  0.00000000000E+00 0.  1.
          3    1    5    5  502    0  0.21095105936E+03 -0.21327409231E+03  0.51373158426E+02  0.30434419545E+03  0.00000000000E+00 0. -1.
          3    1    6    6  503    0  0.32154439426E+02  0.37134193093E+03 -0.20380193569E+03  0.42481050673E+03  0.00000000000E+00 0. -1.
         -3    1    5    5    0  502  0.18394552944E+03 -0.94519808281E+02  0.75111187460E+02  0.22002645850E+03  0.00000000000E+00 0.  1.
         -3    1    6    6    0  503  0.30302716332E+01  0.20349167983E+02 -0.46101088255E+02  0.50483477713E+02  0.00000000000E+00 0.  1.
<mgrwt>
<rscale>  0 0.22612778E+04</rscale>
<asrwt>0</asrwt>
<pdfrwt beam="1">  1        1 0.70871281E-01 0.22612778E+04</pdfrwt>
<pdfrwt beam="2">  1       -1 0.42692427E+00 0.22612778E+04</pdfrwt>
<totfact> 0.21015690E-01</totfact>
</mgrwt>
</event>
<event>
12    1  0.4967442E-008  0.2097046E+04  0.7818608E-02  0.8562546E-01
         -2   -1    0    0    0  501 -0.00000000000E+00  0.00000000000E+00  0.70770094704E+03  0.70770094704E+03  0.00000000000E+00 0. -1.
          2   -1    0    0  501    0  0.00000000000E+00 -0.00000000000E+00 -0.15534824503E+04  0.15534824503E+04  0.00000000000E+00 0.  1.
         23    2    1    2    0    0  0.75041588418E+03  0.17250525058E+03  0.33630549920E+02  0.77581786246E+03  0.88770947480E+02 0.  0.
        254    2    1    2    0    0 -0.75041588418E+03 -0.17250525058E+03 -0.87941205320E+03  0.14853655349E+04  0.91654959073E+03 0.  0.
         23    2    4    4    0    0 -0.51934601664E+03  0.19947638004E+03 -0.80680017348E+02  0.56990970784E+03  0.93684036484E+02 0.  0.
         23    2    4    4    0    0 -0.23106986754E+03 -0.37198163062E+03 -0.79873203585E+03  0.91545582707E+03  0.91229869132E+02 0.  0.
         11    1    3    3    0    0  0.70032577290E+01 -0.54306063714E+01  0.63835595126E+01  0.10921855906E+02  0.00000000000E+00 0.  1.
        -11    1    3    3    0    0  0.74341262645E+03  0.17793585695E+03  0.27246990407E+02  0.76489600655E+03  0.00000000000E+00 0. -1.
          1    1    5    5  502    0 -0.23442626501E+03  0.11666377468E+03  0.21296831252E+01  0.26185997327E+03  0.00000000000E+00 0. -1.
          3    1    6    6  503    0 -0.23685202723E+03 -0.33928342398E+03 -0.74809332392E+03  0.85490101526E+03  0.00000000000E+00 0. -1.
         -1    1    5    5    0  502 -0.28491975163E+03  0.82812605360E+02 -0.82809700473E+02  0.30804973457E+03  0.00000000000E+00 0.  1.
         -3    1    6    6    0  503  0.57821596920E+01 -0.32698206635E+02 -0.50638711931E+02  0.60554811814E+02  0.00000000000E+00 0.  1.
<mgrwt>
<rscale>  0 0.20970465E+04</rscale>
<asrwt>0</asrwt>
<pdfrwt beam="1">  1        2 0.23899730E+00 0.20970465E+04</pdfrwt>
<pdfrwt beam="2">  1       -2 0.10887707E+00 0.20970465E+04</pdfrwt>
<totfact> 0.73534830E+00</totfact>
</mgrwt>
</event>
<event>
12    1  0.4967442E-008  0.2733218E+04  0.7818608E-02  0.8324307E-01
          1   -1    0    0  501    0  0.00000000000E+00  0.00000000000E+00  0.20710471582E+04  0.20710471582E+04  0.00000000000E+00 0. -1.
         -1   -1    0    0    0  501 -0.00000000000E+00 -0.00000000000E+00 -0.90177594161E+03  0.90177594161E+03  0.00000000000E+00 0.  1.
         23    2    1    2    0    0  0.94160598472E+02  0.42895511209E+03  0.17565636051E+04  0.18129710060E+04  0.92084000841E+02 0.  0.
        254    2    1    2    0    0 -0.94160598472E+02 -0.42895511209E+03 -0.58729238852E+03  0.11598520938E+04  0.89859658548E+03 0.  0.
         23    2    4    4    0    0 -0.46762966556E+03 -0.30408025767E+03 -0.47920864174E+03  0.74110941809E+03  0.91977932415E+02 0.  0.
         23    2    4    4    0    0  0.37346906709E+03 -0.12487485443E+03 -0.10808374679E+03  0.41874267573E+03  0.92684728094E+02 0.  0.
         13    1    3    3    0    0  0.42079380432E+02  0.33205458601E+03  0.14186840390E+04  0.14576334673E+04  0.00000000000E+00 0. -1.
        -13    1    3    3    0    0  0.52081218040E+02  0.96900526086E+02  0.33787956606E+03  0.35533753867E+03  0.00000000000E+00 0.  1.
          4    1    5    5  502    0 -0.86958201157E+02 -0.10238110829E+03 -0.10556400047E+03  0.17084313939E+03  0.00000000000E+00 0. -1.
          1    1    6    6  503    0  0.23359121758E+03 -0.54601339324E+02 -0.24091553093E+02  0.24109451697E+03  0.00000000000E+00 0. -1.
         -4    1    5    5    0  502 -0.38067146440E+03 -0.20169914938E+03 -0.37364464127E+03  0.57026627869E+03  0.00000000000E+00 0.  1.
         -1    1    6    6    0  503  0.13987784951E+03 -0.70273515104E+02 -0.83992193696E+02  0.17764815876E+03  0.00000000000E+00 0.  1.
<mgrwt>
<rscale>  0 0.27332183E+04</rscale>
<asrwt>0</asrwt>
<pdfrwt beam="1">  1        1 0.31862264E+00 0.27332183E+04</pdfrwt>
<pdfrwt beam="2">  1       -1 0.13873476E+00 0.27332183E+04</pdfrwt>
<totfact> 0.99640294E-01</totfact>
</mgrwt>
</event>
<event>
12    1  0.4967442E-008  0.1960526E+04  0.7818608E-02  0.8625302E-01
          2   -1    0    0  501    0  0.00000000000E+00  0.00000000000E+00  0.11413115591E+04  0.11413115591E+04  0.00000000000E+00 0. -1.
         -2   -1    0    0    0  501 -0.00000000000E+00 -0.00000000000E+00 -0.84193953972E+03  0.84193953972E+03  0.00000000000E+00 0.  1.
         23    2    1    2    0    0  0.40733701441E+03  0.29382582188E+03  0.71069419440E+03  0.87528314841E+03  0.93687219046E+02 0.  0.
        254    2    1    2    0    0 -0.40733701441E+03 -0.29382582188E+03 -0.41132217504E+03  0.11079679504E+04  0.89785855817E+03 0.  0.
         23    2    4    4    0    0 -0.52637073546E+02 -0.39969733241E+03 -0.56221703625E+03  0.69770836834E+03  0.90445300284E+02 0.  0.
         23    2    4    4    0    0 -0.35469994086E+03  0.10587151053E+03  0.15089486121E+03  0.41025958205E+03  0.92319232729E+02 0.  0.
         13    1    3    3    0    0  0.36776343862E+03  0.29213581380E+03  0.67237501841E+03  0.82017159538E+03  0.00000000000E+00 0. -1.
        -13    1    3    3    0    0  0.39573575788E+02  0.16900080846E+01  0.38319175998E+02  0.55111553028E+02  0.00000000000E+00 0.  1.
          2    1    5    5  502    0  0.55904823999E+01 -0.12239250658E+03 -0.11348918984E+03  0.16700591418E+03  0.00000000000E+00 0. -1.
          4    1    6    6  503    0 -0.23907881814E+03  0.92641208764E+02  0.61928406966E+02  0.26377301309E+03  0.00000000000E+00 0. -1.
         -2    1    5    5    0  502 -0.58227555946E+02 -0.27730482583E+03 -0.44872784642E+03  0.53070245416E+03  0.00000000000E+00 0.  1.
         -4    1    6    6    0  503 -0.11562112273E+03  0.13230301766E+02  0.88966454245E+02  0.14648656896E+03  0.00000000000E+00 0.  1.
<mgrwt>
<rscale>  0 0.19605258E+04</rscale>
<asrwt>0</asrwt>
<pdfrwt beam="1">  1        2 0.17558639E+00 0.19605258E+04</pdfrwt>
<pdfrwt beam="2">  1       -2 0.12952916E+00 0.19605258E+04</pdfrwt>
<totfact> 0.83963894E+00</totfact>
</mgrwt>
</event>
<event>
12    1  0.4967442E-008  0.1288533E+04  0.7818608E-02  0.9038709E-01
          2   -1    0    0  501    0  0.00000000000E+00  0.00000000000E+00  0.18179724954E+04  0.18179724954E+04  0.00000000000E+00 0. -1.
         -2   -1    0    0    0  501 -0.00000000000E+00 -0.00000000000E+00 -0.22831983173E+03  0.22831983173E+03  0.00000000000E+00 0.  1.
         23    2    1    2    0    0  0.23667472242E+03  0.88041003961E+02  0.74050375076E+03  0.78753925773E+03  0.90034076725E+02 0.  0.
        254    2    1    2    0    0 -0.23667472242E+03 -0.88041003961E+02  0.84914891289E+03  0.12587530694E+04  0.89422551452E+03 0.  0.
         23    2    4    4    0    0  0.32112400848E+02  0.26920911118E+03 -0.12558997366E+02  0.28359616814E+03  0.82245403141E+02 0.  0.
         23    2    4    4    0    0 -0.26878712327E+03 -0.35725011514E+03  0.86170791026E+03  0.97515690125E+03  0.92283785421E+02 0.  0.
         13    1    3    3    0    0  0.20204486230E+03  0.61794844061E+02  0.49478780797E+03  0.53801087726E+03  0.00000000000E+00 0. -1.
        -13    1    3    3    0    0  0.34629860123E+02  0.26246159900E+02  0.24571594278E+03  0.24952838047E+03  0.00000000000E+00 0.  1.
          4    1    5    5  502    0  0.56724209323E+02  0.22505751865E+03 -0.17798087537E+02  0.23277734972E+03  0.00000000000E+00 0. -1.
          1    1    6    6  503    0 -0.25231454928E+03 -0.28028775642E+03  0.73203415038E+03  0.82346697293E+03  0.00000000000E+00 0. -1.
         -4    1    5    5    0  502 -0.24611808475E+02  0.44151592530E+02  0.52390901713E+01  0.50818818416E+02  0.00000000000E+00 0.  1.
         -1    1    6    6    0  503 -0.16472573982E+02 -0.76962358722E+02  0.12967375988E+03  0.15168992832E+03  0.00000000000E+00 0.  1.
<mgrwt>
<rscale>  0 0.12885328E+04</rscale>
<asrwt>0</asrwt>
<pdfrwt beam="1">  1        2 0.27968807E+00 0.12885328E+04</pdfrwt>
<pdfrwt beam="2">  1       -2 0.35126129E-01 0.12885328E+04</pdfrwt>
<totfact> 0.62945615E+01</totfact>
</mgrwt>
</event>
<event>
12    1  0.4967442E-008  0.2518958E+04  0.7818608E-02  0.8396263E-01
          4   -1    0    0  501    0  0.00000000000E+00  0.00000000000E+00  0.15156685984E+04  0.15156685984E+04  0.00000000000E+00 0. -1.
         -4   -1    0    0    0  501 -0.00000000000E+00 -0.00000000000E+00 -0.10465926944E+04  0.10465926944E+04  0.00000000000E+00 0.  1.
         23    2    1    2    0    0  0.80544892024E+03  0.33537248513E+03 -0.47030624313E+03  0.99632464448E+03  0.10125298987E+03 0.  0.
        254    2    1    2    0    0 -0.80544892024E+03 -0.33537248513E+03  0.93938214717E+03  0.15659366484E+04  0.89916411258E+03 0.  0.
         23    2    4    4    0    0 -0.40401949509E+03 -0.61221490057E+03  0.43188820668E+03  0.85619985601E+03  0.92260140184E+02 0.  0.
         23    2    4    4    0    0 -0.40142942515E+03  0.27684241544E+03  0.50749394049E+03  0.70973679235E+03  0.91590984363E+02 0.  0.
         13    1    3    3    0    0  0.12781529718E+03  0.59441796746E+02 -0.36044735563E+02  0.14549673658E+03  0.00000000000E+00 0. -1.
        -13    1    3    3    0    0  0.67763362306E+03  0.27593068839E+03 -0.43426150757E+03  0.85082790790E+03  0.00000000000E+00 0.  1.
          2    1    5    5  502    0 -0.37672029877E+02 -0.39919376737E+02  0.61006878626E+02  0.82064472909E+02  0.00000000000E+00 0.  1.
          3    1    6    6  503    0 -0.31894440259E+03  0.18754441075E+03  0.42135092342E+03  0.56074507453E+03  0.00000000000E+00 0. -1.
         -2    1    5    5    0  502 -0.36634746521E+03 -0.57229552384E+03  0.37088132805E+03  0.77413538310E+03  0.00000000000E+00 0. -1.
         -3    1    6    6    0  503 -0.82485022563E+02  0.89298004684E+02  0.86143017076E+02  0.14899171782E+03  0.00000000000E+00 0.  1.
<mgrwt>
<rscale>  0 0.25189583E+04</rscale>
<asrwt>0</asrwt>
<pdfrwt beam="1">  1        4 0.23317978E+00 0.25189583E+04</pdfrwt>
<pdfrwt beam="2">  1       -4 0.16101426E+00 0.25189583E+04</pdfrwt>
<totfact> 0.35140146E-02</totfact>
</mgrwt>
</event>
<event>
12    1  0.4967442E-008  0.1672203E+04  0.7818608E-02  0.8777379E-01
          1   -1    0    0  501    0  0.00000000000E+00  0.00000000000E+00  0.40245510946E+03  0.40245510946E+03  0.00000000000E+00 0.  1.
         -1   -1    0    0    0  501 -0.00000000000E+00 -0.00000000000E+00 -0.17370028413E+04  0.17370028413E+04  0.00000000000E+00 0. -1.
         23    2    1    2    0    0  0.52997180575E+03  0.16306806247E+03 -0.74682532394E+03  0.93451391419E+03  0.90038233243E+02 0.  0.
        254    2    1    2    0    0 -0.52997180575E+03 -0.16306806247E+03 -0.58772240788E+03  0.12049440365E+04  0.89387426106E+03 0.  0.
         23    2    4    4    0    0 -0.12483313392E+03  0.34972257022E+03 -0.13897232914E+03  0.40708591136E+03  0.92284578952E+02 0.  0.
         23    2    4    4    0    0 -0.40513867183E+03 -0.51279063269E+03 -0.44875007874E+03  0.79785812518E+03  0.90052086917E+02 0.  0.
         11    1    3    3    0    0  0.25567200952E+03  0.40280780204E+02 -0.38884520122E+03  0.46710952486E+03  0.00000000000E+00 0.  1.
        -11    1    3    3    0    0  0.27429979623E+03  0.12278728226E+03 -0.35798012272E+03  0.46740438933E+03  0.00000000000E+00 0. -1.
          2    1    5    5  502    0  0.55684928591E+01  0.84768576659E+02 -0.50430343430E+02  0.98792404769E+02  0.00000000000E+00 0. -1.
          3    1    6    6  503    0 -0.14436910217E+03 -0.21572223903E+03 -0.13135870645E+03  0.29091860001E+03  0.00000000000E+00 0. -1.
         -2    1    5    5    0  502 -0.13040162678E+03  0.26495399356E+03 -0.88541985709E+02  0.30829350659E+03  0.00000000000E+00 0.  1.
         -3    1    6    6    0  503 -0.26076956967E+03 -0.29706839367E+03 -0.31739137229E+03  0.50693952517E+03  0.00000000000E+00 0.  1.
<mgrwt>
<rscale>  0 0.16722029E+04</rscale>
<asrwt>0</asrwt>
<pdfrwt beam="1">  1        1 0.61916170E-01 0.16722029E+04</pdfrwt>
<pdfrwt beam="2">  1       -1 0.26723121E+00 0.16722029E+04</pdfrwt>
<totfact> 0.30586421E+00</totfact>
</mgrwt>
</event>
<event>
12    1  0.4967442E-008  0.1331457E+04  0.7818608E-02  0.9004985E-01
         -1   -1    0    0    0  501 -0.00000000000E+00  0.00000000000E+00  0.12965922831E+03  0.12965922831E+03  0.00000000000E+00 0.  1.
          1   -1    0    0  501    0  0.00000000000E+00 -0.00000000000E+00 -0.34181490137E+04  0.34181490137E+04  0.00000000000E+00 0. -1.
         23    2    1    2    0    0  0.52874142891E+02  0.29589258565E+03 -0.40373049109E+03  0.51177727675E+03  0.92571995423E+02 0.  0.
        254    2    1    2    0    0 -0.52874142891E+02 -0.29589258565E+03 -0.28847592943E+04  0.30360309652E+04  0.89738494453E+03 0.  0.
         23    2    4    4    0    0 -0.66521137752E+02 -0.60828975142E+03 -0.19667050442E+04  0.20617198961E+04  0.91206992578E+02 0.  0.
         23    2    4    4    0    0  0.13646994860E+02  0.31239716577E+03 -0.91805425005E+03  0.97431106914E+03  0.93167718429E+02 0.  0.
         13    1    3    3    0    0  0.67349015715E+02  0.28387663462E+03 -0.35478568826E+03  0.45934161383E+03  0.00000000000E+00 0.  1.
        -13    1    3    3    0    0 -0.14474872824E+02  0.12015951033E+02 -0.48944802830E+02  0.52435662926E+02  0.00000000000E+00 0. -1.
          4    1    5    5  502    0 -0.88870195273E+02 -0.52318849059E+03 -0.16902937312E+04  0.17716424600E+04  0.00000000000E+00 0. -1.
          1    1    6    6  503    0  0.43270986407E+01  0.28041920384E+03 -0.70612599593E+03  0.75978126839E+03  0.00000000000E+00 0. -1.
         -4    1    5    5    0  502  0.22349057522E+02 -0.85101260835E+02 -0.27641131304E+03  0.29007743612E+03  0.00000000000E+00 0.  1.
         -1    1    6    6    0  503  0.93198962195E+01  0.31977961927E+02 -0.21192825412E+03  0.21452980074E+03  0.00000000000E+00 0.  1.
<mgrwt>
<rscale>  0 0.13314572E+04</rscale>
<asrwt>0</asrwt>
<pdfrwt beam="1">  1        1 0.52586900E+00 0.13314572E+04</pdfrwt>
<pdfrwt beam="2">  1       -1 0.19947577E-01 0.13314572E+04</pdfrwt>
<totfact> 0.59232365E+00</totfact>
</mgrwt>
</event>
<event>
12    1  0.4967442E-008  0.1701712E+04  0.7818608E-02  0.8760389E-01
          2   -1    0    0  501    0  0.00000000000E+00  0.00000000000E+00  0.21532995764E+04  0.21532995764E+04  0.00000000000E+00 0. -1.
         -2   -1    0    0    0  501 -0.00000000000E+00 -0.00000000000E+00 -0.33620756868E+03  0.33620756868E+03  0.00000000000E+00 0.  1.
         23    2    1    2    0    0  0.26947224165E+03 -0.35454184623E+03  0.12838450957E+04  0.13620069925E+04  0.92139069138E+02 0.  0.
        254    2    1    2    0    0 -0.26947224165E+03  0.35454184623E+03  0.53324691202E+03  0.11275001526E+04  0.88802540233E+03 0.  0.
         23    2    4    4    0    0 -0.11206149229E+03  0.57698480275E+03  0.58650493410E+03  0.83502799038E+03  0.88399470173E+02 0.  0.
         23    2    4    4    0    0 -0.15741074936E+03 -0.22244295652E+03 -0.53258022084E+02  0.29247216222E+03  0.91894155647E+02 0.  0.
         13    1    3    3    0    0  0.27137618088E+03 -0.35789789479E+03  0.12559528792E+04  0.13338491555E+04  0.00000000000E+00 0. -1.
        -13    1    3    3    0    0 -0.19039392308E+01  0.33560485606E+01  0.27892216507E+02  0.28157837066E+02  0.00000000000E+00 0.  1.
          2    1    5    5  502    0 -0.70088532108E+02  0.17751777039E+03  0.15872978225E+03  0.24823397211E+03  0.00000000000E+00 0. -1.
          3    1    6    6  503    0 -0.18056482975E+02 -0.10141129911E+03 -0.19170019937E+02  0.10477489122E+03  0.00000000000E+00 0. -1.
         -2    1    5    5    0  502 -0.41972960185E+02  0.39946703236E+03  0.42777515185E+03  0.58679401827E+03  0.00000000000E+00 0.  1.
         -3    1    6    6    0  503 -0.13935426638E+03 -0.12103165740E+03 -0.34088002147E+02  0.18769727101E+03  0.00000000000E+00 0.  1.
<mgrwt>
<rscale>  0 0.17017116E+04</rscale>
<asrwt>0</asrwt>
<pdfrwt beam="1">  1        2 0.33127685E+00 0.17017116E+04</pdfrwt>
<pdfrwt beam="2">  1       -2 0.51724243E-01 0.17017116E+04</pdfrwt>
<totfact> 0.18431434E+01</totfact>
</mgrwt>
</event>
<event>
12    1  0.4967442E-008  0.1431789E+04  0.7818608E-02  0.8931124E-01
          2   -1    0    0  501    0  0.00000000000E+00  0.00000000000E+00  0.38277846751E+03  0.38277846751E+03  0.00000000000E+00 0. -1.
         -2   -1    0    0    0  501 -0.00000000000E+00 -0.00000000000E+00 -0.13389082335E+04  0.13389082335E+04  0.00000000000E+00 0.  1.
         23    2    1    2    0    0 -0.26407620873E+03 -0.24403939162E+03 -0.54928235185E+03  0.66277481551E+03  0.90927912897E+02 0.  0.
        254    2    1    2    0    0  0.26407620873E+03  0.24403939162E+03 -0.40684741418E+03  0.10589118855E+04  0.90910840619E+03 0.  0.
         23    2    4    4    0    0 -0.30778052456E+03 -0.45547179533E+02 -0.79594773365E+02  0.33319565829E+03  0.88772866857E+02 0.  0.
         23    2    4    4    0    0  0.57185673330E+03  0.28958657115E+03 -0.32725264081E+03  0.72571622724E+03  0.93216124976E+02 0.  0.
         13    1    3    3    0    0 -0.16047192404E+03 -0.14109572446E+03 -0.24389344935E+03  0.32425800916E+03  0.00000000000E+00 0.  1.
        -13    1    3    3    0    0 -0.10360428469E+03 -0.10294366716E+03 -0.30538890250E+03  0.33851680635E+03  0.00000000000E+00 0. -1.
          4    1    5    5  502    0 -0.87299923030E+02 -0.24341060964E+02  0.15856058132E+02  0.92006404067E+02  0.00000000000E+00 0. -1.
          1    1    6    6  503    0  0.18641171749E+03  0.11292519873E+03 -0.15794401350E+03  0.26916117909E+03  0.00000000000E+00 0. -1.
         -4    1    5    5    0  502 -0.22048060154E+03 -0.21206118569E+02 -0.95450831497E+02  0.24118925422E+03  0.00000000000E+00 0.  1.
         -1    1    6    6    0  503  0.38544501580E+03  0.17666137242E+03 -0.16930862731E+03  0.45655504815E+03  0.00000000000E+00 0.  1.
<mgrwt>
<rscale>  0 0.14317894E+04</rscale>
<asrwt>0</asrwt>
<pdfrwt beam="1">  1        2 0.58888996E-01 0.14317894E+04</pdfrwt>
<pdfrwt beam="2">  1       -2 0.20598588E+00 0.14317894E+04</pdfrwt>
<totfact> 0.98554849E+00</totfact>
</mgrwt>
</event>
<event>
12    1  0.4967442E-008  0.1365543E+04  0.7818608E-02  0.8979145E-01
         -1   -1    0    0    0  501 -0.00000000000E+00  0.00000000000E+00  0.38344039311E+03  0.38344039311E+03  0.00000000000E+00 0.  1.
          1   -1    0    0  501    0  0.00000000000E+00 -0.00000000000E+00 -0.12157744912E+04  0.12157744912E+04  0.00000000000E+00 0. -1.
         23    2    1    2    0    0 -0.34753886959E+03  0.12816407951E+03 -0.18260093812E+03  0.42330121368E+03  0.92905961853E+02 0.  0.
        254    2    1    2    0    0  0.34753886959E+03 -0.12816407951E+03 -0.64973315997E+03  0.11759136706E+04  0.90741968485E+03 0.  0.
         23    2    4    4    0    0  0.36757768368E+03 -0.19895016794E+03 -0.84556587448E+03  0.94767404678E+03  0.91705659610E+02 0.  0.
         23    2    4    4    0    0 -0.20038814092E+02  0.70786088436E+02  0.19583271451E+03  0.22823962385E+03  0.91272391420E+02 0.  0.
         11    1    3    3    0    0 -0.27972289546E+03  0.12232802093E+03 -0.18159653877E+03  0.35522717498E+03  0.00000000000E+00 0.  1.
        -11    1    3    3    0    0 -0.67815974127E+02  0.58360585809E+01 -0.10043993446E+01  0.68074038698E+02  0.00000000000E+00 0. -1.
          2    1    5    5  502    0  0.23962879493E+03 -0.17226467493E+03 -0.62755344950E+03  0.69348425330E+03  0.00000000000E+00 0. -1.
          3    1    6    6  503    0  0.16734232914E+02  0.37535829124E+01 -0.89873544602E+00  0.17173574506E+02  0.00000000000E+00 0. -1.
         -2    1    5    5    0  502  0.12794888875E+03 -0.26685493013E+02 -0.21801242497E+03  0.25418979349E+03  0.00000000000E+00 0.  1.
         -3    1    6    6    0  503 -0.36773047007E+02  0.67032505523E+02  0.19673144995E+03  0.21106604934E+03  0.00000000000E+00 0.  1.
<mgrwt>
<rscale>  0 0.13655432E+04</rscale>
<asrwt>0</asrwt>
<pdfrwt beam="1">  1        1 0.18704223E+00 0.13655432E+04</pdfrwt>
<pdfrwt beam="2">  1       -1 0.58990829E-01 0.13655432E+04</pdfrwt>
<totfact> 0.29629769E+01</totfact>
</mgrwt>
</event>
<event>
12    1  0.4967442E-008  0.2444014E+04  0.7818608E-02  0.8423207E-01
         -2   -1    0    0    0  501 -0.00000000000E+00  0.00000000000E+00  0.93653136339E+03  0.93653136339E+03  0.00000000000E+00 0.  1.
          2   -1    0    0  501    0  0.00000000000E+00 -0.00000000000E+00 -0.15945019543E+04  0.15945019543E+04  0.00000000000E+00 0. -1.
         23    2    1    2    0    0  0.90715502396E+03 -0.37417570600E+03 -0.68705080059E+03  0.12011147679E+04  0.87750706752E+02 0.  0.
        254    2    1    2    0    0 -0.90715502396E+03  0.37417570600E+03  0.29080209682E+02  0.13299185498E+04  0.89716218943E+03 0.  0.
         23    2    4    4    0    0 -0.38328779322E+03  0.61901387266E+03  0.98244876378E+02  0.74039474890E+03  0.91894621664E+02 0.  0.
         23    2    4    4    0    0 -0.52386723074E+03 -0.24483816667E+03 -0.69164666696E+02  0.58952380093E+03  0.91498401299E+02 0.  0.
         11    1    3    3    0    0  0.56694001545E+03 -0.20388171352E+03 -0.38108009669E+03  0.71288903367E+03  0.00000000000E+00 0. -1.
        -11    1    3    3    0    0  0.34021500851E+03 -0.17029399248E+03 -0.30597070390E+03  0.48822573420E+03  0.00000000000E+00 0.  1.
          3    1    6    6  502    0 -0.45210509010E+03 -0.18114103647E+03 -0.37518574717E+02  0.48848616258E+03  0.00000000000E+00 0. -1.
          3    1    5    5  503    0 -0.38667434278E+03  0.61906032362E+03  0.99758949335E+02  0.73668485773E+03  0.00000000000E+00 0. -1.
         -3    1    5    5    0  503  0.33865495585E+01 -0.46450951908E-01 -0.15140729577E+01  0.37098911741E+01  0.00000000000E+00 0.  1.
         -3    1    6    6    0  502 -0.71762140643E+02 -0.63697130194E+02 -0.31646091978E+02  0.10103763834E+03  0.00000000000E+00 0.  1.
<mgrwt>
<rscale>  0 0.24440140E+04</rscale>
<asrwt>0</asrwt>
<pdfrwt beam="1">  1        2 0.24530799E+00 0.24440140E+04</pdfrwt>
<pdfrwt beam="2">  1       -2 0.14408175E+00 0.24440140E+04</pdfrwt>
<totfact> 0.33534713E+00</totfact>
</mgrwt>
</event>
<event>
12    1  0.4967442E-008  0.2622838E+04  0.7818608E-02  0.8360485E-01
         -2   -1    0    0    0  501 -0.00000000000E+00  0.00000000000E+00  0.46047667670E+03  0.46047667670E+03  0.00000000000E+00 0.  1.
          2   -1    0    0  501    0  0.00000000000E+00 -0.00000000000E+00 -0.37348673105E+04  0.37348673105E+04  0.00000000000E+00 0. -1.
         23    2    1    2    0    0  0.93578904762E+03  0.18207284847E+03 -0.40353237284E+03  0.10392190219E+04  0.91028214241E+02 0.  0.
        254    2    1    2    0    0 -0.93578904762E+03 -0.18207284847E+03 -0.28708582610E+04  0.31561249653E+04  0.90024773156E+03 0.  0.
         23    2    4    4    0    0 -0.90297280648E+03  0.18747430467E+03 -0.19547510747E+04  0.21632401278E+04  0.89719463841E+02 0.  0.
         23    2    4    4    0    0 -0.32816241136E+02 -0.36954715314E+03 -0.91610718627E+03  0.99288483752E+03  0.94477085992E+02 0.  0.
         11    1    3    3    0    0  0.34097175780E+03  0.50557353169E+02 -0.19065351335E+03  0.39391185274E+03  0.00000000000E+00 0. -1.
        -11    1    3    3    0    0  0.59481728982E+03  0.13151549530E+03 -0.21287885949E+03  0.64530716917E+03  0.00000000000E+00 0.  1.
          1    1    5    5  502    0 -0.17008287437E+03  0.45669231850E+02 -0.45737509121E+03  0.49010798499E+03  0.00000000000E+00 0. -1.
          3    1    6    6  503    0 -0.21730792854E+02 -0.27916671491E+03 -0.57092605002E+03  0.63589530322E+03  0.00000000000E+00 0. -1.
         -1    1    5    5    0  502 -0.73288993211E+03  0.14180507282E+03 -0.14973759835E+04  0.16731321428E+04  0.00000000000E+00 0.  1.
         -3    1    6    6    0  503 -0.11085448281E+02 -0.90380438234E+02 -0.34518113625E+03  0.35698953431E+03  0.00000000000E+00 0.  1.
<mgrwt>
<rscale>  0 0.26228376E+04</rscale>
<asrwt>0</asrwt>
<pdfrwt beam="1">  1        2 0.57459494E+00 0.26228376E+04</pdfrwt>
<pdfrwt beam="2">  1       -2 0.70842569E-01 0.26228376E+04</pdfrwt>
<totfact> 0.88026059E-01</totfact>
</mgrwt>
</event>
<event>
12    1  0.4967442E-008  0.1667976E+04  0.7818608E-02  0.8779843E-01
         -2   -1    0    0    0  501 -0.00000000000E+00  0.00000000000E+00  0.27555732055E+03  0.27555732055E+03  0.00000000000E+00 0.  1.
          2   -1    0    0  501    0  0.00000000000E+00 -0.00000000000E+00 -0.25241056800E+04  0.25241056800E+04  0.00000000000E+00 0. -1.
         23    2    1    2    0    0  0.49894338412E+03 -0.20635503879E+02 -0.13181832054E+04  0.14125694011E+04  0.91515164747E+02 0.  0.
        254    2    1    2    0    0 -0.49894338412E+03  0.20635503879E+02 -0.93036515397E+03  0.13870935994E+04  0.89948819285E+03 0.  0.
         23    2    4    4    0    0 -0.29614701059E+03 -0.30197017228E+03 -0.89503455532E+03  0.99375771776E+03  0.87054635542E+02 0.  0.
         23    2    4    4    0    0 -0.20279637354E+03  0.32260567616E+03 -0.35330598650E+02  0.39333588159E+03  0.90906947678E+02 0.  0.
         11    1    3    3    0    0  0.11188224200E+03  0.45976485310E+01 -0.20272063974E+03  0.23159108839E+03  0.00000000000E+00 0.  1.
        -11    1    3    3    0    0  0.38706114213E+03 -0.25233152410E+02 -0.11154625657E+04  0.11809783127E+04  0.00000000000E+00 0. -1.
          3    1    5    5  502    0 -0.82056130846E+01 -0.43245766567E+02 -0.75376879349E+02  0.87288042437E+02  0.00000000000E+00 0. -1.
          3    1    6    6  503    0 -0.13296583615E+03  0.14959123106E+03  0.13117641268E+02  0.20057298548E+03  0.00000000000E+00 0. -1.
         -3    1    5    5    0  502 -0.28794139750E+03 -0.25872440571E+03 -0.81965767597E+03  0.90646967533E+03  0.00000000000E+00 0.  1.
         -3    1    6    6    0  503 -0.69830537387E+02  0.17301444510E+03 -0.48448239917E+02  0.19276289611E+03  0.00000000000E+00 0.  1.
<mgrwt>
<rscale>  0 0.16679758E+04</rscale>
<asrwt>0</asrwt>
<pdfrwt beam="1">  1        2 0.38832394E+00 0.16679758E+04</pdfrwt>
<pdfrwt beam="2">  1       -2 0.42393435E-01 0.16679758E+04</pdfrwt>
<totfact> 0.16991069E+01</totfact>
</mgrwt>
</event>
<event>
12    1  0.4967442E-008  0.1336781E+04  0.7818608E-02  0.9000896E-01
         -2   -1    0    0    0  501 -0.00000000000E+00  0.00000000000E+00  0.30248502220E+03  0.30248502220E+03  0.00000000000E+00 0.  1.
          2   -1    0    0  501    0  0.00000000000E+00 -0.00000000000E+00 -0.14769179334E+04  0.14769179334E+04  0.00000000000E+00 0. -1.
         23    2    1    2    0    0  0.55847807000E+02 -0.13337803697E+02 -0.78965456062E+03  0.79631431958E+03  0.85236705157E+02 0.  0.
        254    2    1    2    0    0 -0.55847807000E+02  0.13337803697E+02 -0.38477835058E+03  0.98308863603E+03  0.90283554020E+03 0.  0.
         23    2    4    4    0    0  0.30376217089E+03 -0.13494025778E+03 -0.46204308368E+03  0.57626067332E+03  0.90067878875E+02 0.  0.
         23    2    4    4    0    0 -0.35960997789E+03  0.14827806147E+03  0.77264733093E+02  0.40682796271E+03  0.90738263992E+02 0.  0.
         13    1    3    3    0    0  0.53819189973E+02 -0.12457657962E+02 -0.79150528458E+03  0.79343072412E+03  0.00000000000E+00 0. -1.
        -13    1    3    3    0    0  0.20286170277E+01 -0.88014573545E+00  0.18507239674E+01  0.28835954578E+01  0.00000000000E+00 0.  1.
          2    1    5    5  502    0  0.23977876165E+03 -0.71551420038E+02 -0.37633522849E+03  0.45193103949E+03  0.00000000000E+00 0. -1.
          2    1    6    6  503    0 -0.28176037171E+03  0.12974522926E+03  0.95857671178E+02  0.32467125636E+03  0.00000000000E+00 0. -1.
         -2    1    5    5    0  502  0.63983409239E+02 -0.63388837737E+02 -0.85707855182E+02  0.12432963383E+03  0.00000000000E+00 0.  1.
         -2    1    6    6    0  503 -0.77849606177E+02  0.18532832211E+02 -0.18592938084E+02  0.82156706350E+02  0.00000000000E+00 0.  1.
<mgrwt>
<rscale>  0 0.13367805E+04</rscale>
<asrwt>0</asrwt>
<pdfrwt beam="1">  1        2 0.22721814E+00 0.13367805E+04</pdfrwt>
<pdfrwt beam="2">  1       -2 0.46536157E-01 0.13367805E+04</pdfrwt>
<totfact> 0.55972115E+01</totfact>
</mgrwt>
</event>
<event>
12    1  0.4967442E-008  0.3087238E+04  0.7818608E-02  0.8219249E-01
          2   -1    0    0  501    0  0.00000000000E+00  0.00000000000E+00  0.22680275988E+04  0.22680275988E+04  0.00000000000E+00 0.  1.
         -2   -1    0    0    0  501 -0.00000000000E+00 -0.00000000000E+00 -0.10505864322E+04  0.10505864322E+04  0.00000000000E+00 0. -1.
         23    2    1    2    0    0  0.11375425169E+04  0.27597190271E+03 -0.28241371583E+03  0.12076278548E+04  0.91891566986E+02 0.  0.
        254    2    1    2    0    0 -0.11375425169E+04 -0.27597190271E+03  0.14998548824E+04  0.21109861762E+04  0.91462259922E+03 0.  0.
         23    2    4    4    0    0 -0.95549106035E+03 -0.56828610925E+03  0.12506238464E+04  0.16760881324E+04  0.96432120909E+02 0.  0.
         23    2    4    4    0    0 -0.18205145651E+03  0.29231420655E+03  0.24923103601E+03  0.43489804381E+03  0.91814329094E+02 0.  0.
         11    1    3    3    0    0  0.10063363957E+03  0.14420753277E+02 -0.49931482186E+02  0.11326182257E+03  0.00000000000E+00 0.  1.
        -11    1    3    3    0    0  0.10369088773E+04  0.26155114943E+03 -0.23248223365E+03  0.10943660322E+04  0.00000000000E+00 0. -1.
          4    1    5    5  502    0 -0.18732778767E+03 -0.86255278374E+02  0.18765716267E+03  0.27883128193E+03  0.00000000000E+00 0. -1.
          3    1    6    6  503    0 -0.24486534288E+02  0.11555029227E+03  0.10200248676E+03  0.15606398595E+03  0.00000000000E+00 0. -1.
         -4    1    5    5    0  502 -0.76816327268E+03 -0.48203083088E+03  0.10629666837E+04  0.13972568505E+04  0.00000000000E+00 0.  1.
         -3    1    6    6    0  503 -0.15756492222E+03  0.17676391427E+03  0.14722854925E+03  0.27883405785E+03  0.00000000000E+00 0.  1.
<mgrwt>
<rscale>  0 0.30872376E+04</rscale>
<asrwt>0</asrwt>
<pdfrwt beam="1">  1        2 0.34892732E+00 0.30872376E+04</pdfrwt>
<pdfrwt beam="2">  1       -2 0.16162868E+00 0.30872376E+04</pdfrwt>
<totfact> 0.98429194E-01</totfact>
</mgrwt>
</event>
<event>
12    1  0.4967442E-008  0.1984396E+04  0.7818608E-02  0.8613951E-01
          2   -1    0    0  501    0  0.00000000000E+00  0.00000000000E+00  0.12128829728E+04  0.12128829728E+04  0.00000000000E+00 0. -1.
         -2   -1    0    0    0  501 -0.00000000000E+00 -0.00000000000E+00 -0.81166711747E+03  0.81166711747E+03  0.00000000000E+00 0.  1.
         23    2    1    2    0    0  0.66922214459E+03 -0.32048959727E+03  0.39360199667E+03  0.84473783119E+03  0.89931145247E+02 0.  0.
        254    2    1    2    0    0 -0.66922214459E+03  0.32048959727E+03  0.76138586717E+01  0.11798122591E+04  0.91723886481E+03 0.  0.
         23    2    4    4    0    0 -0.55853007534E+03  0.43906709700E+03  0.34443563439E+03  0.79474772391E+03  0.90842048029E+02 0.  0.
         23    2    4    4    0    0 -0.11069206925E+03 -0.11857749973E+03 -0.33682177572E+03  0.38506453519E+03  0.92262831253E+02 0.  0.
         11    1    3    3    0    0  0.66260615605E+03 -0.32339516665E+03  0.38033362740E+03  0.82962944739E+03  0.00000000000E+00 0. -1.
        -11    1    3    3    0    0  0.66159885419E+01  0.29055693747E+01  0.13268369279E+02  0.15108383801E+02  0.00000000000E+00 0.  1.
          1    1    5    5  502    0 -0.14896031665E+02  0.36322201705E+02  0.25183511383E+02  0.46641219342E+02  0.00000000000E+00 0. -1.
          1    1    6    6  503    0 -0.56871410567E+02 -0.23049500922E+02 -0.20293393953E+03  0.21200901076E+03  0.00000000000E+00 0. -1.
         -1    1    5    5    0  502 -0.54363404368E+03  0.40274489530E+03  0.31925212301E+03  0.74810650457E+03  0.00000000000E+00 0.  1.
         -1    1    6    6    0  503 -0.53820658681E+02 -0.95527998805E+02 -0.13388783619E+03  0.17305552443E+03  0.00000000000E+00 0.  1.
<mgrwt>
<rscale>  0 0.19843964E+04</rscale>
<asrwt>0</asrwt>
<pdfrwt beam="1">  1        2 0.18659738E+00 0.19843964E+04</pdfrwt>
<pdfrwt beam="2">  1       -2 0.12487186E+00 0.19843964E+04</pdfrwt>
<totfact> 0.83224420E+00</totfact>
</mgrwt>
</event>
<event>
12    1  0.4967442E-008  0.1089240E+04  0.7818608E-02  0.9215744E-01
          1   -1    0    0  501    0  0.00000000000E+00  0.00000000000E+00  0.11935804163E+04  0.11935804163E+04  0.00000000000E+00 0. -1.
         -1   -1    0    0    0  501 -0.00000000000E+00 -0.00000000000E+00 -0.24850505543E+03  0.24850505543E+03  0.00000000000E+00 0.  1.
         23    2    1    2    0    0 -0.66593206208E+01  0.29066207126E+02  0.34786910428E+03  0.36060839693E+03  0.90201503744E+02 0.  0.
        254    2    1    2    0    0  0.66593206208E+01 -0.29066207126E+02  0.59720625663E+03  0.10814770748E+04  0.90113714799E+03 0.  0.
         23    2    4    4    0    0 -0.10660065050E+03 -0.75618301839E+02  0.80623251526E+03  0.82213843759E+03  0.93909081780E+02 0.  0.
         23    2    4    4    0    0  0.11325997112E+03  0.46552094712E+02 -0.20902625863E+03  0.25933863724E+03  0.92572314390E+02 0.  0.
         13    1    3    3    0    0 -0.31260640156E+01  0.18595284079E+02  0.34899152840E+03  0.34950056332E+03  0.00000000000E+00 0. -1.
        -13    1    3    3    0    0 -0.35332566052E+01  0.10470923047E+02 -0.11224241179E+01  0.11107833614E+02  0.00000000000E+00 0.  1.
          4    1    5    5  502    0 -0.36174752763E+02 -0.78770745517E+02  0.35481033570E+03  0.36524487321E+03  0.00000000000E+00 0. -1.
          1    1    6    6  503    0  0.97205956472E+02  0.48004712602E+02 -0.94905523869E+02  0.14408507510E+03  0.00000000000E+00 0. -1.
         -4    1    5    5    0  502 -0.70425897737E+02  0.31524436783E+01  0.45142217956E+03  0.45689356438E+03  0.00000000000E+00 0.  1.
         -1    1    6    6    0  503  0.16054014648E+02 -0.14526178901E+01 -0.11412073476E+03  0.11525356214E+03  0.00000000000E+00 0.  1.
<mgrwt>
<rscale>  0 0.10892397E+04</rscale>
<asrwt>0</asrwt>
<pdfrwt beam="1">  1        1 0.18362775E+00 0.10892397E+04</pdfrwt>
<pdfrwt beam="2">  1       -1 0.38231548E-01 0.10892397E+04</pdfrwt>
<totfact> 0.71201570E+01</totfact>
</mgrwt>
</event>
<event>
12    1  0.4967442E-008  0.1880080E+04  0.7818608E-02  0.8664836E-01
         -2   -1    0    0    0  501 -0.00000000000E+00  0.00000000000E+00  0.12078430751E+04  0.12078430751E+04  0.00000000000E+00 0.  1.
          2   -1    0    0  501    0  0.00000000000E+00 -0.00000000000E+00 -0.73161439810E+03  0.73161439810E+03  0.00000000000E+00 0. -1.
         23    2    1    2    0    0  0.10942681642E+03  0.70234931724E+03  0.24768851287E+03  0.75945522489E+03  0.10076630197E+03 0.  0.
        254    2    1    2    0    0 -0.10942681642E+03 -0.70234931724E+03  0.22854016414E+03  0.11800022483E+04  0.91373185774E+03 0.  0.
         23    2    4    4    0    0  0.27289201573E+02  0.14725323364E+03 -0.15491669199E+03  0.23350667086E+03  0.89988713387E+02 0.  0.
         23    2    4    4    0    0 -0.13671601799E+03 -0.84960255088E+03  0.38345685614E+03  0.94649557747E+03  0.91098592843E+02 0.  0.
         11    1    3    3    0    0  0.60424095910E+02  0.54499455192E+03  0.15255409323E+03  0.56915980563E+03  0.00000000000E+00 0. -1.
        -11    1    3    3    0    0  0.49002720510E+02  0.15735476533E+03  0.95134419641E+02  0.19029541925E+03  0.00000000000E+00 0.  1.
          4    1    5    5  502    0  0.56644401714E+02  0.10755476629E+03 -0.13077949511E+03  0.17854941148E+03  0.00000000000E+00 0. -1.
          1    1    6    6  503    0 -0.14616325881E+03 -0.83142970291E+03  0.36834003913E+03  0.92103932246E+03  0.00000000000E+00 0. -1.
         -4    1    5    5    0  502 -0.29355200141E+02  0.39698467349E+02 -0.24137196881E+02  0.54957259379E+02  0.00000000000E+00 0.  1.
         -1    1    6    6    0  503  0.94472408173E+01 -0.18172847977E+02  0.15116817011E+02  0.25456255011E+02  0.00000000000E+00 0.  1.
<mgrwt>
<rscale>  0 0.18800802E+04</rscale>
<asrwt>0</asrwt>
<pdfrwt beam="1">  1        2 0.11255606E+00 0.18800802E+04</pdfrwt>
<pdfrwt beam="2">  1       -2 0.18582201E+00 0.18800802E+04</pdfrwt>
<totfact> 0.60045182E+00</totfact>
</mgrwt>
</event>
<event>
12    1  0.4967442E-008  0.4399254E+04  0.7818608E-02  0.7928516E-01
         -2   -1    0    0    0  501 -0.00000000000E+00  0.00000000000E+00  0.30633021883E+04  0.30633021883E+04  0.00000000000E+00 0.  1.
          2   -1    0    0  501    0  0.00000000000E+00 -0.00000000000E+00 -0.15794584377E+04  0.15794584377E+04  0.00000000000E+00 0. -1.
         23    2    1    2    0    0 -0.56006425885E+03  0.16021673517E+04 -0.60432708925E+03  0.18039724545E+04  0.92158498685E+02 0.  0.
        254    2    1    2    0    0  0.56006425885E+03 -0.16021673517E+04  0.20881708399E+04  0.28387881715E+04  0.90423925442E+03 0.  0.
         23    2    4    4    0    0 -0.14398758737E+03 -0.35233035317E+03  0.87202602223E+03  0.95575813216E+03  0.90416373819E+02 0.  0.
         23    2    4    4    0    0  0.70405184622E+03 -0.12498369985E+04  0.12161448177E+04  0.18830300393E+04  0.94933590086E+02 0.  0.
         11    1    3    3    0    0 -0.48982773668E+03  0.13303366521E+04 -0.53063594513E+03  0.15137045041E+04  0.00000000000E+00 0. -1.
        -11    1    3    3    0    0 -0.70236522161E+02  0.27183069956E+03 -0.73691144121E+02  0.29026795033E+03  0.00000000000E+00 0.  1.
          2    1    5    5  502    0  0.54877095385E+01 -0.35107860927E+01  0.24153314676E+01  0.69479781999E+01  0.00000000000E+00 0. -1.
          4    1    6    6  503    0  0.13651956631E+03 -0.23899722036E+03  0.28395584202E+03  0.39545945879E+03  0.00000000000E+00 0. -1.
         -2    1    5    5    0  502 -0.14947529691E+03 -0.34881956708E+03  0.86961069076E+03  0.94881015396E+03  0.00000000000E+00 0.  1.
         -4    1    6    6    0  503  0.56753227991E+03 -0.10108397781E+04  0.93218897566E+03  0.14875705806E+04  0.00000000000E+00 0.  1.
<mgrwt>
<rscale>  0 0.43992538E+04</rscale>
<asrwt>0</asrwt>
<pdfrwt beam="1">  1        2 0.24299361E+00 0.43992538E+04</pdfrwt>
<pdfrwt beam="2">  1       -2 0.47127726E+00 0.43992538E+04</pdfrwt>
<totfact> 0.22045718E-02</totfact>
</mgrwt>
</event>
<event>
12    1  0.4967442E-008  0.2079677E+04  0.7818608E-02  0.8570249E-01
          1   -1    0    0  501    0  0.00000000000E+00  0.00000000000E+00  0.61754689260E+03  0.61754689260E+03  0.00000000000E+00 0. -1.
         -1   -1    0    0    0  501 -0.00000000000E+00 -0.00000000000E+00 -0.17509012325E+04  0.17509012325E+04  0.00000000000E+00 0.  1.
         23    2    1    2    0    0 -0.21712421269E+02 -0.90317688985E+02 -0.14174427611E+04  0.14234384362E+04  0.91674895453E+02 0.  0.
        254    2    1    2    0    0  0.21712421269E+02  0.90317688985E+02  0.28408842120E+03  0.94500968890E+03  0.89649783428E+03 0.  0.
         23    2    4    4    0    0 -0.32767994283E+03  0.10592596090E+03 -0.14444937256E+03  0.38454736186E+03  0.91742019572E+02 0.  0.
         23    2    4    4    0    0  0.34939236410E+03 -0.15608271911E+02  0.42853779377E+03  0.56046232704E+03  0.90303582961E+02 0.  0.
         13    1    3    3    0    0 -0.94441079719E+01 -0.52348050987E+02 -0.26399589892E+03  0.26930158608E+03  0.00000000000E+00 0. -1.
        -13    1    3    3    0    0 -0.12268313298E+02 -0.37969637997E+02 -0.11534468622E+04  0.11541368501E+04  0.00000000000E+00 0.  1.
          2    1    5    5  502    0 -0.24956730966E+03  0.64458671963E+02 -0.65385731052E+02  0.26592114671E+03  0.00000000000E+00 0. -1.
          3    1    6    6  503    0  0.19161262579E+03  0.21784443584E+02  0.18059661409E+03  0.26420654301E+03  0.00000000000E+00 0. -1.
         -2    1    5    5    0  502 -0.78112633172E+02  0.41467288933E+02 -0.79063641511E+02  0.11862621515E+03  0.00000000000E+00 0.  1.
         -3    1    6    6    0  503  0.15777973831E+03 -0.37392715495E+02  0.24794117967E+03  0.29625578403E+03  0.00000000000E+00 0.  1.
<mgrwt>
<rscale>  0 0.20796765E+04</rscale>
<asrwt>0</asrwt>
<pdfrwt beam="1">  1        1 0.95007216E-01 0.20796765E+04</pdfrwt>
<pdfrwt beam="2">  1       -1 0.26936942E+00 0.20796765E+04</pdfrwt>
<totfact> 0.15783876E+00</totfact>
</mgrwt>
</event>
<event>
12    1  0.4967442E-008  0.1025633E+04  0.7818608E-02  0.9280870E-01
          1   -1    0    0  501    0  0.00000000000E+00  0.00000000000E+00  0.61855983025E+03  0.61855983025E+03  0.00000000000E+00 0. -1.
         -1   -1    0    0    0  501 -0.00000000000E+00 -0.00000000000E+00 -0.42514986686E+03  0.42514986686E+03  0.00000000000E+00 0.  1.
         23    2    1    2    0    0  0.58397153410E+02  0.44318050000E+02  0.27604733451E+01  0.12172213054E+03  0.97130529531E+02 0.  0.
        254    2    1    2    0    0 -0.58397153410E+02 -0.44318050000E+02  0.19064949005E+03  0.92198756657E+03  0.89907704218E+03 0.  0.
         23    2    4    4    0    0 -0.30904460470E+03 -0.13077887854E+03  0.43006199100E+03  0.55310667649E+03  0.91443953894E+02 0.  0.
         23    2    4    4    0    0  0.25064745129E+03  0.86460828545E+02 -0.23941250096E+03  0.36888089008E+03  0.91951866448E+02 0.  0.
         13    1    3    3    0    0  0.34698171808E+02  0.23278834208E+02  0.49797795676E+02  0.65005289809E+02  0.00000000000E+00 0. -1.
        -13    1    3    3    0    0  0.23698981602E+02  0.21039215791E+02 -0.47037322331E+02  0.56716840728E+02  0.00000000000E+00 0.  1.
          4    1    5    5  502    0 -0.22972405343E+02 -0.16400899054E+02  0.58583467558E+01  0.28827783885E+02  0.00000000000E+00 0.  1.
          1    1    6    6  503    0  0.24211530744E+03  0.60845003839E+02 -0.23219205870E+03  0.34093267475E+03  0.00000000000E+00 0. -1.
         -4    1    5    5    0  502 -0.28607219936E+03 -0.11437797949E+03  0.42420364425E+03  0.52427889260E+03  0.00000000000E+00 0. -1.
         -1    1    6    6    0  503  0.85321438534E+01  0.25615824706E+02 -0.72204422597E+01  0.27948215337E+02  0.00000000000E+00 0.  1.
<mgrwt>
<rscale>  0 0.10256327E+04</rscale>
<asrwt>0</asrwt>
<pdfrwt beam="1">  1        1 0.95163051E-01 0.10256327E+04</pdfrwt>
<pdfrwt beam="2">  1       -1 0.65407672E-01 0.10256327E+04</pdfrwt>
<totfact> 0.77746682E+01</totfact>
</mgrwt>
</event>
<event>
12    1  0.4967442E-008  0.1696618E+04  0.7818608E-02  0.8763296E-01
          1   -1    0    0  501    0  0.00000000000E+00  0.00000000000E+00  0.18264985873E+04  0.18264985873E+04  0.00000000000E+00 0. -1.
         -1   -1    0    0    0  501 -0.00000000000E+00 -0.00000000000E+00 -0.39399322224E+03  0.39399322224E+03  0.00000000000E+00 0.  1.
         23    2    1    2    0    0  0.10079266839E+03  0.56037326410E+03  0.55515346475E+03  0.80048814503E+03  0.91698112253E+02 0.  0.
        254    2    1    2    0    0 -0.10079266839E+03 -0.56037326410E+03  0.87735190026E+03  0.14200036645E+04  0.96046170827E+03 0.  0.
         23    2    4    4    0    0  0.39201397199E+03 -0.59030756232E+02  0.29634120687E+03  0.50341690329E+03  0.91928685432E+02 0.  0.
         23    2    4    4    0    0 -0.49280664039E+03 -0.50134250787E+03  0.58101069339E+03  0.91658676117E+03  0.91406618485E+02 0.  0.
         11    1    3    3    0    0  0.40697102816E+02  0.34897188314E+03  0.39440421520E+03  0.52819723055E+03  0.00000000000E+00 0. -1.
        -11    1    3    3    0    0  0.60095565579E+02  0.21140138097E+03  0.16074924955E+03  0.27229091448E+03  0.00000000000E+00 0.  1.
          1    1    5    5  502    0  0.31522105259E+03 -0.65434052151E+02  0.27513800900E+03  0.42349362589E+03  0.00000000000E+00 0. -1.
          3    1    6    6  503    0 -0.47812274036E+03 -0.45394637138E+03  0.54060475781E+03  0.85259730653E+03  0.00000000000E+00 0. -1.
         -1    1    5    5    0  502  0.76792919405E+02  0.64032959196E+01  0.21203197873E+02  0.79923277394E+02  0.00000000000E+00 0.  1.
         -3    1    6    6    0  503 -0.14683900029E+02 -0.47396136493E+02  0.40405935578E+02  0.63989454635E+02  0.00000000000E+00 0.  1.
<mgrwt>
<rscale>  0 0.16966179E+04</rscale>
<asrwt>0</asrwt>
<pdfrwt beam="1">  1        1 0.28099978E+00 0.16966179E+04</pdfrwt>
<pdfrwt beam="2">  1       -1 0.60614343E-01 0.16966179E+04</pdfrwt>
<totfact> 0.10269547E+01</totfact>
</mgrwt>
</event>
<event>
12    1  0.4967442E-008  0.1599620E+04  0.7818608E-02  0.8820781E-01
          2   -1    0    0  501    0  0.00000000000E+00  0.00000000000E+00  0.85729332107E+03  0.85729332107E+03  0.00000000000E+00 0. -1.
         -2   -1    0    0    0  501 -0.00000000000E+00 -0.00000000000E+00 -0.74618124341E+03  0.74618124341E+03  0.00000000000E+00 0.  1.
         23    2    1    2    0    0  0.40294289951E+03  0.27677247361E+03  0.22666008728E+03  0.54656905665E+03  0.91634906617E+02 0.  0.
        254    2    1    2    0    0 -0.40294289951E+03 -0.27677247361E+03 -0.11554800962E+03  0.10569055078E+04  0.92990963407E+03 0.  0.
         23    2    4    4    0    0 -0.94930848130E+02 -0.48671292941E+03 -0.34386503830E+03  0.61028846244E+03  0.91145494895E+02 0.  0.
         23    2    4    4    0    0 -0.30801205138E+03  0.20994045581E+03  0.22831702867E+03  0.44661704539E+03  0.91606227250E+02 0.  0.
         11    1    3    3    0    0  0.24827384088E+03  0.11681889468E+03  0.13693898501E+03  0.30665752858E+03  0.00000000000E+00 0. -1.
        -11    1    3    3    0    0  0.15466905862E+03  0.15995357892E+03  0.89721102274E+02  0.23991152807E+03  0.00000000000E+00 0.  1.
          2    1    5    5  502    0 -0.76243351724E+02 -0.17191326136E+03 -0.11222009968E+03  0.21899901572E+03  0.00000000000E+00 0. -1.
          1    1    6    6  503    0 -0.25917980884E+03  0.20004354998E+03  0.22380991962E+03  0.39658854663E+03  0.00000000000E+00 0. -1.
         -2    1    5    5    0  502 -0.18687496406E+02 -0.31479966805E+03 -0.23164493862E+03  0.39128944672E+03  0.00000000000E+00 0.  1.
         -1    1    6    6    0  503 -0.48832242536E+02  0.98969058291E+01  0.45071090579E+01  0.50028498759E+02  0.00000000000E+00 0.  1.
<mgrwt>
<rscale>  0 0.15996202E+04</rscale>
<asrwt>0</asrwt>
<pdfrwt beam="1">  1        2 0.13189128E+00 0.15996202E+04</pdfrwt>
<pdfrwt beam="2">  1       -2 0.11479711E+00 0.15996202E+04</pdfrwt>
<totfact> 0.17815175E+01</totfact>
</mgrwt>
</event>
<event>
12    1  0.4967442E-008  0.1577121E+04  0.7818608E-02  0.8834728E-01
         -2   -1    0    0    0  501 -0.00000000000E+00  0.00000000000E+00  0.41310903819E+03  0.41310903819E+03  0.00000000000E+00 0. -1.
          2   -1    0    0  501    0  0.00000000000E+00 -0.00000000000E+00 -0.15052390543E+04  0.15052390543E+04  0.00000000000E+00 0.  1.
         23    2    1    2    0    0 -0.40550634941E+03  0.26588599738E+03 -0.10881041155E+03  0.50500239551E+03  0.89760519109E+02 0.  0.
        254    2    1    2    0    0  0.40550634941E+03 -0.26588599738E+03 -0.98331960458E+03  0.14133456970E+04  0.89190686253E+03 0.  0.
         23    2    4    4    0    0  0.13917198615E+03 -0.14932809374E+03 -0.10721570634E+04  0.10951889956E+04  0.90831967306E+02 0.  0.
         23    2    4    4    0    0  0.26633436326E+03 -0.11655790363E+03  0.88837458814E+02  0.31815670135E+03  0.93871479005E+02 0.  0.
         11    1    3    3    0    0 -0.66661295039E+02  0.16041655905E+02 -0.37047634124E+02  0.77933241782E+02  0.00000000000E+00 0. -1.
        -11    1    3    3    0    0 -0.33884505437E+03  0.24984434147E+03 -0.71762777423E+02  0.42706915372E+03  0.00000000000E+00 0.  1.
          2    1    5    5  502    0  0.88067976906E+02 -0.55667664261E+02 -0.71127240935E+03  0.71886250264E+03  0.00000000000E+00 0. -1.
          3    1    6    6  503    0  0.26574870731E+03 -0.12601225643E+03  0.79079225245E+02  0.30455703583E+03  0.00000000000E+00 0. -1.
         -2    1    5    5    0  502  0.51104009248E+02 -0.93660429483E+02 -0.36088465404E+03  0.37632649300E+03  0.00000000000E+00 0.  1.
         -3    1    6    6    0  503  0.58565594726E+00  0.94543527981E+01  0.97582335687E+01  0.13599665514E+02  0.00000000000E+00 0.  1.
<mgrwt>
<rscale>  0 0.15771212E+04</rscale>
<asrwt>0</asrwt>
<pdfrwt beam="1">  1        2 0.23157524E+00 0.15771212E+04</pdfrwt>
<pdfrwt beam="2">  1       -2 0.63555237E-01 0.15771212E+04</pdfrwt>
<totfact> 0.27744456E+01</totfact>
</mgrwt>
</event>
<event>
12    1  0.4967442E-008  0.2171031E+04  0.7818608E-02  0.8530583E-01
         -3   -1    0    0    0  501 -0.00000000000E+00  0.00000000000E+00  0.16647935201E+04  0.16647935201E+04  0.00000000000E+00 0.  1.
          3   -1    0    0  501    0  0.00000000000E+00 -0.00000000000E+00 -0.70780151406E+03  0.70780151406E+03  0.00000000000E+00 0. -1.
         23    2    1    2    0    0  0.45015161706E+03 -0.45937561536E+03  0.10813165319E+04  0.12614125943E+04  0.90850738654E+02 0.  0.
        254    2    1    2    0    0 -0.45015161706E+03  0.45937561536E+03 -0.12432452588E+03  0.11111824398E+04  0.89755634498E+03 0.  0.
         23    2    4    4    0    0  0.57588502667E+02  0.53503349312E+03 -0.20728171724E+03  0.58327724098E+03  0.87574854537E+02 0.  0.
         23    2    4    4    0    0 -0.50774011973E+03 -0.75657877762E+02  0.82957191364E+02  0.52790519880E+03  0.90982743824E+02 0.  0.
         11    1    3    3    0    0  0.16227569314E+03 -0.18253664088E+03  0.49520196799E+03  0.55215759973E+03  0.00000000000E+00 0. -1.
        -11    1    3    3    0    0  0.28787592392E+03 -0.27683897448E+03  0.58611456390E+03  0.70925499461E+03  0.00000000000E+00 0.  1.
          2    1    5    5  502    0  0.23109293476E+02  0.16646967629E+03 -0.10886626828E+03  0.20024499230E+03  0.00000000000E+00 0.  1.
          3    1    6    6  503    0 -0.20929134650E+03 -0.64568922320E+02  0.43053143930E+01  0.21906745349E+03  0.00000000000E+00 0. -1.
         -2    1    5    5    0  502  0.34479209192E+02  0.36856381682E+03 -0.98415448959E+02  0.38303224868E+03  0.00000000000E+00 0. -1.
         -3    1    6    6    0  503 -0.29844877323E+03 -0.11088955442E+02  0.78651876971E+02  0.30883774531E+03  0.00000000000E+00 0.  1.
<mgrwt>
<rscale>  0 0.21710305E+04</rscale>
<asrwt>0</asrwt>
<pdfrwt beam="1">  1        3 0.10889254E+00 0.21710305E+04</pdfrwt>
<pdfrwt beam="2">  1       -3 0.25612208E+00 0.21710305E+04</pdfrwt>
<totfact> 0.11531984E-01</totfact>
</mgrwt>
</event>
<event>
12    1  0.4967442E-008  0.2545355E+04  0.7818608E-02  0.8387003E-01
          2   -1    0    0  501    0  0.00000000000E+00  0.00000000000E+00  0.32549496277E+04  0.32549496277E+04  0.00000000000E+00 0. -1.
         -2   -1    0    0    0  501 -0.00000000000E+00 -0.00000000000E+00 -0.49761390270E+03  0.49761390270E+03  0.00000000000E+00 0.  1.
         23    2    1    2    0    0 -0.72626613976E+03 -0.82779251635E+03  0.13959203919E+04  0.17803372593E+04  0.91126618834E+02 0.  0.
        254    2    1    2    0    0  0.72626613976E+03  0.82779251635E+03  0.13614153331E+04  0.19722262711E+04  0.90748101860E+03 0.  0.
         23    2    4    4    0    0  0.11373123870E+03  0.33820229474E+03  0.10685252286E+04  0.11303059749E+04  0.92357165009E+02 0.  0.
         23    2    4    4    0    0  0.61253490106E+03  0.48959022161E+03  0.29289010450E+03  0.84192029613E+03  0.90263955219E+02 0.  0.
         11    1    3    3    0    0 -0.53624009698E+03 -0.57815731826E+03  0.94093825334E+03  0.12276742739E+04  0.00000000000E+00 0.  1.
        -11    1    3    3    0    0 -0.19002604278E+03 -0.24963519809E+03  0.45498213853E+03  0.55266298541E+03  0.00000000000E+00 0. -1.
          2    1    5    5  502    0  0.65735874784E+01  0.15746280115E+03  0.42024721448E+03  0.44882676734E+03  0.00000000000E+00 0. -1.
          3    1    6    6  503    0  0.34054612188E+03  0.22502906254E+03  0.17951555066E+03  0.44590982613E+03  0.00000000000E+00 0. -1.
         -2    1    5    5    0  502  0.10715765122E+03  0.18073949358E+03  0.64827801414E+03  0.68147920759E+03  0.00000000000E+00 0.  1.
         -3    1    6    6    0  503  0.27198877918E+03  0.26456115907E+03  0.11337455384E+03  0.39601047000E+03  0.00000000000E+00 0.  1.
<mgrwt>
<rscale>  0 0.25453551E+04</rscale>
<asrwt>0</asrwt>
<pdfrwt beam="1">  1        2 0.50076147E+00 0.25453551E+04</pdfrwt>
<pdfrwt beam="2">  1       -2 0.76555987E-01 0.25453551E+04</pdfrwt>
<totfact> 0.16182606E+00</totfact>
</mgrwt>
</event>
<event>
12    1  0.4967442E-008  0.1767964E+04  0.7818608E-02  0.8723524E-01
         -2   -1    0    0    0  501 -0.00000000000E+00  0.00000000000E+00  0.60832385040E+03  0.60832385040E+03  0.00000000000E+00 0.  1.
          2   -1    0    0  501    0  0.00000000000E+00 -0.00000000000E+00 -0.12845533248E+04  0.12845533248E+04  0.00000000000E+00 0. -1.
         23    2    1    2    0    0 -0.43945619763E+02 -0.52852968795E+03  0.15338951410E+03  0.55959254416E+03  0.91327016254E+02 0.  0.
        254    2    1    2    0    0  0.43945619763E+02  0.52852968795E+03 -0.82961898851E+03  0.13332846310E+04  0.89894682420E+03 0.  0.
         23    2    4    4    0    0  0.28238139951E+03  0.63884380368E+03 -0.78098963305E+03  0.10513871397E+04  0.87232162791E+02 0.  0.
         23    2    4    4    0    0 -0.23843577974E+03 -0.11031411572E+03 -0.48629355463E+02  0.28189749139E+03  0.89891914248E+02 0.  0.
         11    1    3    3    0    0 -0.15407924849E+02 -0.23267646176E+03  0.20731850443E+02  0.23410585133E+03  0.00000000000E+00 0. -1.
        -11    1    3    3    0    0 -0.28537694914E+02 -0.29585322619E+03  0.13265766366E+03  0.32548669283E+03  0.00000000000E+00 0.  1.
          4    1    5    5  502    0  0.28881040986E+03  0.62703653342E+03 -0.76839436140E+03  0.10329647437E+04  0.00000000000E+00 0. -1.
          3    1    6    6  503    0 -0.22828181312E+03 -0.11607260265E+03 -0.62655150113E+02  0.26364958396E+03  0.00000000000E+00 0. -1.
         -4    1    5    5    0  502 -0.64290103558E+01  0.11807270263E+02 -0.12595271655E+02  0.18422395970E+02  0.00000000000E+00 0.  1.
         -3    1    6    6    0  503 -0.10153966621E+02  0.57584869231E+01  0.14025794650E+02  0.18247907424E+02  0.00000000000E+00 0.  1.
<mgrwt>
<rscale>  0 0.17679643E+04</rscale>
<asrwt>0</asrwt>
<pdfrwt beam="1">  1        2 0.19762359E+00 0.17679643E+04</pdfrwt>
<pdfrwt beam="2">  1       -2 0.93588286E-01 0.17679643E+04</pdfrwt>
<totfact> 0.15421175E+01</totfact>
</mgrwt>
</event>
<event>
12    1  0.4967442E-008  0.1307172E+04  0.7818608E-02  0.9023897E-01
          2   -1    0    0  501    0  0.00000000000E+00  0.00000000000E+00  0.19369246995E+04  0.19369246995E+04  0.00000000000E+00 0. -1.
         -2   -1    0    0    0  501 -0.00000000000E+00 -0.00000000000E+00 -0.22054264193E+03  0.22054264193E+03  0.00000000000E+00 0.  1.
         23    2    1    2    0    0 -0.28046642375E+03 -0.96080589316E+02  0.31587267166E+03  0.44257186409E+03  0.90561667849E+02 0.  0.
        254    2    1    2    0    0  0.28046642375E+03  0.96080589316E+02  0.14005093859E+04  0.17148954773E+04  0.94421769929E+03 0.  0.
         23    2    4    4    0    0 -0.26853667556E+02 -0.38943027446E+03  0.47707610163E+03  0.62342655307E+03  0.93177262203E+02 0.  0.
         23    2    4    4    0    0  0.30732009131E+03  0.48551086378E+03  0.92343328426E+03  0.10914689243E+04  0.91700298587E+02 0.  0.
         11    1    3    3    0    0  0.55172611463E+01  0.91214813799E+00  0.29450696942E-01  0.55922314085E+01  0.00000000000E+00 0. -1.
        -11    1    3    3    0    0 -0.28598368490E+03 -0.96992737454E+02  0.31584322097E+03  0.43697963268E+03  0.00000000000E+00 0.  1.
          2    1    5    5  502    0  0.13445231641E+02 -0.14562521125E+03  0.23958037862E+03  0.28068885661E+03  0.00000000000E+00 0. -1.
          1    1    6    6  503    0  0.23599419650E+03  0.33267465792E+03  0.71699447986E+03  0.82489197653E+03  0.00000000000E+00 0. -1.
         -2    1    5    5    0  502 -0.40298899197E+02 -0.24380506321E+03  0.23749572302E+03  0.34273769646E+03  0.00000000000E+00 0.  1.
         -1    1    6    6    0  503  0.71325894807E+02  0.15283620586E+03  0.20643880440E+03  0.26657694772E+03  0.00000000000E+00 0.  1.
<mgrwt>
<rscale>  0 0.13071717E+04</rscale>
<asrwt>0</asrwt>
<pdfrwt beam="1">  1        2 0.29798840E+00 0.13071717E+04</pdfrwt>
<pdfrwt beam="2">  1       -2 0.33929639E-01 0.13071717E+04</pdfrwt>
<totfact> 0.57719141E+01</totfact>
</mgrwt>
</event>
<event>
12    1  0.6352956E-008  0.2279018E+04  0.7818608E-02  0.8486240E-01
          2   -1    0    0  501    0  0.00000000000E+00  0.00000000000E+00  0.13388478812E+04  0.13388478812E+04  0.00000000000E+00 0. -1.
         -2   -1    0    0    0  501 -0.00000000000E+00 -0.00000000000E+00 -0.96984963408E+03  0.96984963408E+03  0.00000000000E+00 0.  1.
         23    2    1    2    0    0  0.57618446812E+01  0.86810144409E+03  0.52880335663E+03  0.10205592850E+04  0.90966742189E+02 0.  0.
        254    2    1    2    0    0 -0.57618446812E+01 -0.86810144409E+03 -0.15980510950E+03  0.12881382303E+04  0.93815196594E+03 0.  0.
         23    2    4    4    0    0  0.37518218990E+02 -0.54142415534E+02 -0.41456123493E+03  0.42898001205E+03  0.88452333598E+02 0.  0.
         23    2    4    4    0    0 -0.43280063672E+02 -0.81395902856E+03  0.25475612543E+03  0.85915821822E+03  0.94072825043E+02 0.  0.
         13    1    3    3    0    0 -0.20740568508E+02  0.72165641531E+03  0.41093993520E+03  0.83071642771E+03  0.00000000000E+00 0. -1.
        -13    1    3    3    0    0  0.26502413189E+02  0.14644502878E+03  0.11786342144E+03  0.18984285731E+03  0.00000000000E+00 0.  1.
          3    1    6    6  502    0 -0.11338488000E+02 -0.73198234443E+03  0.21830806116E+03  0.76392743336E+03  0.00000000000E+00 0. -1.
          3    1    5    5  503    0  0.39866236692E+01 -0.46411137824E+01 -0.29723395623E+03  0.29729691866E+03  0.00000000000E+00 0. -1.
         -3    1    5    5    0  503  0.33531595321E+02 -0.49501301751E+02 -0.11732727870E+03  0.13168309340E+03  0.00000000000E+00 0.  1.
         -3    1    6    6    0  502 -0.31941575672E+02 -0.81976684127E+02  0.36448064271E+02  0.95230784865E+02  0.00000000000E+00 0.  1.
<mgrwt>
<rscale>  0 0.22790183E+04</rscale>
<asrwt>0</asrwt>
<pdfrwt beam="1">  1        2 0.20597660E+00 0.22790183E+04</pdfrwt>
<pdfrwt beam="2">  1       -2 0.14920763E+00 0.22790183E+04</pdfrwt>
<totfact> 0.43312557E+00</totfact>
</mgrwt>
</event>
<event>
12    1  0.4967442E-008  0.2801373E+04  0.7818608E-02  0.8302842E-01
         -2   -1    0    0    0  501 -0.00000000000E+00  0.00000000000E+00  0.18303307017E+04  0.18303307017E+04  0.00000000000E+00 0. -1.
          2   -1    0    0  501    0  0.00000000000E+00 -0.00000000000E+00 -0.10718949482E+04  0.10718949482E+04  0.00000000000E+00 0.  1.
         23    2    1    2    0    0 -0.57844664323E+03 -0.85022528815E+03 -0.40480250260E+03  0.11087915036E+04  0.89833026359E+02 0.  0.
        254    2    1    2    0    0  0.57844664323E+03  0.85022528815E+03  0.11632382561E+04  0.17934341464E+04  0.89766320932E+03 0.  0.
         23    2    4    4    0    0  0.45513466158E+03 -0.20890741590E+02  0.53487404742E+03  0.70840597250E+03  0.90359238691E+02 0.  0.
         23    2    4    4    0    0  0.12331198166E+03  0.87111602974E+03  0.62836420865E+03  0.10850281739E+04  0.91627383058E+02 0.  0.
         13    1    3    3    0    0 -0.54919157728E+03 -0.77560023724E+03 -0.35537515458E+03  0.10146224012E+04  0.00000000000E+00 0.  1.
        -13    1    3    3    0    0 -0.29255065951E+02 -0.74625050911E+02 -0.49427348023E+02  0.94169102363E+02  0.00000000000E+00 0. -1.
          3    1    5    5  502    0  0.45425291895E+03 -0.20069163698E+02  0.50905194938E+03  0.68255576539E+03  0.00000000000E+00 0. -1.
          3    1    6    6  503    0  0.11500335853E+03  0.55749641745E+03  0.43594383490E+03  0.71699027548E+03  0.00000000000E+00 0. -1.
         -3    1    5    5    0  502  0.88174263136E+00 -0.82157789141E+00  0.25822098042E+02  0.25850207109E+02  0.00000000000E+00 0.  1.
         -3    1    6    6    0  503  0.83086231276E+01  0.31361961229E+03  0.19242037375E+03  0.36803789841E+03  0.00000000000E+00 0.  1.
<mgrwt>
<rscale>  0 0.28013727E+04</rscale>
<asrwt>0</asrwt>
<pdfrwt beam="1">  1        2 0.16490692E+00 0.28013727E+04</pdfrwt>
<pdfrwt beam="2">  1       -2 0.28158934E+00 0.28013727E+04</pdfrwt>
<totfact> 0.81262854E-01</totfact>
</mgrwt>
</event>
<event>
12    1  0.4967442E-008  0.1332438E+04  0.7818608E-02  0.9004229E-01
         -1   -1    0    0    0  501 -0.00000000000E+00  0.00000000000E+00  0.20344482752E+03  0.20344482752E+03  0.00000000000E+00 0.  1.
          1   -1    0    0  501    0  0.00000000000E+00 -0.00000000000E+00 -0.21816630925E+04  0.21816630925E+04  0.00000000000E+00 0. -1.
         23    2    1    2    0    0 -0.21649279318E+03  0.30081761891E+01 -0.39619273359E+02  0.23800707909E+03  0.90551114036E+02 0.  0.
        254    2    1    2    0    0  0.21649279318E+03 -0.30081761891E+01 -0.19385989916E+04  0.21471008409E+04  0.89721669187E+03 0.  0.
         23    2    4    4    0    0  0.42508951852E+03  0.13313714763E+03 -0.17836657464E+04  0.18405628227E+04  0.88212305038E+02 0.  0.
         23    2    4    4    0    0 -0.20859672534E+03 -0.13614532381E+03 -0.15493324524E+03  0.30653801820E+03  0.88955624333E+02 0.  0.
         11    1    3    3    0    0 -0.11775917622E+02  0.25259337598E+02  0.19239217540E+01  0.27935780760E+02  0.00000000000E+00 0. -1.
        -11    1    3    3    0    0 -0.20471687556E+03 -0.22251161409E+02 -0.41543195113E+02  0.21007129833E+03  0.00000000000E+00 0.  1.
          4    1    5    5  502    0  0.15762089262E+03  0.70347020353E+02 -0.84831960107E+03  0.86570156210E+03  0.00000000000E+00 0. -1.
          3    1    6    6  503    0  0.16045669419E+00  0.76955163477E+01  0.25288887035E+01  0.81019748384E+01  0.00000000000E+00 0. -1.
         -4    1    5    5    0  502  0.26746862590E+03  0.62790127272E+02 -0.93534614530E+03  0.97486126062E+03  0.00000000000E+00 0.  1.
         -3    1    6    6    0  503 -0.20875718204E+03 -0.14384084016E+03 -0.15746213394E+03  0.29843604336E+03  0.00000000000E+00 0.  1.
<mgrwt>
<rscale>  0 0.13324385E+04</rscale>
<asrwt>0</asrwt>
<pdfrwt beam="1">  1        1 0.33564047E+00 0.13324385E+04</pdfrwt>
<pdfrwt beam="2">  1       -1 0.31299205E-01 0.13324385E+04</pdfrwt>
<totfact> 0.20852702E+01</totfact>
</mgrwt>
</event>
<event>
12    1  0.4967442E-008  0.1886749E+04  0.7818608E-02  0.8661480E-01
         -2   -1    0    0    0  501 -0.00000000000E+00  0.00000000000E+00  0.15141582946E+04  0.15141582946E+04  0.00000000000E+00 0.  1.
          2   -1    0    0  501    0  0.00000000000E+00 -0.00000000000E+00 -0.58775589346E+03  0.58775589346E+03  0.00000000000E+00 0. -1.
         23    2    1    2    0    0 -0.61402541221E+03 -0.93428151272E+02  0.78619690402E+03  0.10062780068E+04  0.93454955529E+02 0.  0.
        254    2    1    2    0    0  0.61402541221E+03  0.93428151272E+02  0.14020549708E+03  0.10956361813E+04  0.89163054792E+03 0.  0.
         23    2    4    4    0    0  0.15655319234E+03 -0.35177829293E+03 -0.99839377252E+02  0.40787999336E+03  0.90229254274E+02 0.  0.
         23    2    4    4    0    0  0.45747221987E+03  0.44520644420E+03  0.24004487433E+03  0.68775618790E+03  0.88867442825E+02 0.  0.
         13    1    3    3    0    0 -0.48076968518E+02 -0.30503406168E+02  0.51759691579E+02  0.76947503937E+02  0.00000000000E+00 0. -1.
        -13    1    3    3    0    0 -0.56594844369E+03 -0.62924745103E+02  0.73443721244E+03  0.92933050282E+03  0.00000000000E+00 0.  1.
          4    1    5    5  502    0  0.76580162633E+01  0.15929580940E+01 -0.12266267278E+02  0.14547990978E+02  0.00000000000E+00 0. -1.
          3    1    6    6  503    0  0.99878313035E+02  0.58692990657E+02  0.22423045474E+02  0.11799719291E+03  0.00000000000E+00 0. -1.
         -4    1    5    5    0  502  0.14889517608E+03 -0.35337125102E+03 -0.87573109974E+02  0.39333200238E+03  0.00000000000E+00 0.  1.
         -3    1    6    6    0  503  0.35759390683E+03  0.38651345354E+03  0.21762182885E+03  0.56975899498E+03  0.00000000000E+00 0.  1.
<mgrwt>
<rscale>  0 0.18867490E+04</rscale>
<asrwt>0</asrwt>
<pdfrwt beam="1">  1        2 0.90423984E-01 0.18867490E+04</pdfrwt>
<pdfrwt beam="2">  1       -2 0.23294743E+00 0.18867490E+04</pdfrwt>
<totfact> 0.39047997E+00</totfact>
</mgrwt>
</event>
<event>
12    1  0.4967442E-008  0.2069965E+04  0.7818608E-02  0.8574591E-01
          1   -1    0    0  501    0  0.00000000000E+00  0.00000000000E+00  0.12280030223E+04  0.12280030223E+04  0.00000000000E+00 0. -1.
         -1   -1    0    0    0  501 -0.00000000000E+00 -0.00000000000E+00 -0.87230150806E+03  0.87230150806E+03  0.00000000000E+00 0.  1.
         23    2    1    2    0    0  0.70772094840E+03 -0.77902941530E+02  0.59188841872E+03  0.93010139758E+03  0.88424546665E+02 0.  0.
        254    2    1    2    0    0 -0.70772094840E+03  0.77902941530E+02 -0.23618690452E+03  0.11702031327E+04  0.89813880270E+03 0.  0.
         23    2    4    4    0    0 -0.64080789868E+03  0.14123083361E+03 -0.52905369952E+03  0.84745670538E+03  0.87773225679E+02 0.  0.
         23    2    4    4    0    0 -0.66913049718E+02 -0.63327892078E+02  0.29286679500E+03  0.32274642737E+03  0.99531495665E+02 0.  0.
         13    1    3    3    0    0  0.43324706348E+03 -0.90909297470E+02  0.36609839052E+03  0.57445239134E+03  0.00000000000E+00 0. -1.
        -13    1    3    3    0    0  0.27447388492E+03  0.13006355940E+02  0.22579002820E+03  0.35564900623E+03  0.00000000000E+00 0.  1.
          4    1    5    5  502    0 -0.60270446993E+03  0.14325409007E+03 -0.47199676613E+03  0.77881664057E+03  0.00000000000E+00 0. -1.
          4    1    6    6  503    0 -0.39360293194E+02 -0.61306898040E+02  0.28479310922E+03  0.29396408537E+03  0.00000000000E+00 0. -1.
         -4    1    5    5    0  502 -0.38103428755E+02 -0.20232564587E+01 -0.57056933390E+02  0.68640064812E+02  0.00000000000E+00 0.  1.
         -4    1    6    6    0  503 -0.27552756524E+02 -0.20209940380E+01  0.80736857779E+01  0.28782342000E+02  0.00000000000E+00 0.  1.
<mgrwt>
<rscale>  0 0.20699651E+04</rscale>
<asrwt>0</asrwt>
<pdfrwt beam="1">  1        1 0.18892354E+00 0.20699651E+04</pdfrwt>
<pdfrwt beam="2">  1       -1 0.13420023E+00 0.20699651E+04</pdfrwt>
<totfact> 0.43969295E+00</totfact>
</mgrwt>
</event>
<event>
12    1  0.4967442E-008  0.1384954E+04  0.7818608E-02  0.8964782E-01
         -2   -1    0    0    0  501 -0.00000000000E+00  0.00000000000E+00  0.16319287229E+03  0.16319287229E+03  0.00000000000E+00 0.  1.
          2   -1    0    0  501    0  0.00000000000E+00 -0.00000000000E+00 -0.29383892441E+04  0.29383892441E+04  0.00000000000E+00 0. -1.
         23    2    1    2    0    0 -0.41435019425E+02 -0.53020654874E+02 -0.16947700370E+04  0.16985675070E+04  0.91422353998E+02 0.  0.
        254    2    1    2    0    0  0.41435019425E+02  0.53020654874E+02 -0.10804263348E+04  0.14030146094E+04  0.89252500166E+03 0.  0.
         23    2    4    4    0    0  0.38950594815E+03  0.16387391959E+03 -0.27124691936E+03  0.51052667657E+03  0.92157750948E+02 0.  0.
         23    2    4    4    0    0 -0.34807092873E+03 -0.11085326472E+03 -0.80917941547E+03  0.89248793285E+03  0.91222618617E+02 0.  0.
         11    1    3    3    0    0 -0.33987441417E+02 -0.33188585491E+02 -0.16240043933E+04  0.16246990176E+04  0.00000000000E+00 0. -1.
        -11    1    3    3    0    0 -0.74475780081E+01 -0.19832069382E+02 -0.70765643685E+02  0.73868489360E+02  0.00000000000E+00 0.  1.
          4    1    6    6  502    0 -0.28097215825E+03 -0.10800055694E+03 -0.72352306396E+03  0.78364220030E+03  0.00000000000E+00 0. -1.
          4    1    5    5  503    0  0.11738117067E+03  0.94723526353E+02 -0.11066131558E+03  0.18707435003E+03  0.00000000000E+00 0. -1.
         -4    1    5    5    0  503  0.27212477748E+03  0.69150393237E+02 -0.16058560378E+03  0.32345232654E+03  0.00000000000E+00 0.  1.
         -4    1    6    6    0  502 -0.67098770472E+02 -0.28527077750E+01 -0.85656351508E+02  0.10884573255E+03  0.00000000000E+00 0.  1.
<mgrwt>
<rscale>  0 0.13849537E+04</rscale>
<asrwt>0</asrwt>
<pdfrwt beam="1">  1        2 0.45205985E+00 0.13849537E+04</pdfrwt>
<pdfrwt beam="2">  1       -2 0.25106598E-01 0.13849537E+04</pdfrwt>
<totfact> 0.26614051E+01</totfact>
</mgrwt>
</event>
<event>
12    1  0.4967442E-008  0.2353704E+04  0.7818608E-02  0.8457042E-01
          2   -1    0    0  501    0  0.00000000000E+00  0.00000000000E+00  0.36942219208E+04  0.36942219208E+04  0.00000000000E+00 0. -1.
         -2   -1    0    0    0  501 -0.00000000000E+00 -0.00000000000E+00 -0.37490447580E+03  0.37490447580E+03  0.00000000000E+00 0.  1.
         23    2    1    2    0    0  0.76542028259E+03 -0.58852197596E+03  0.91794431400E+03  0.13354082414E+04  0.92016750118E+02 0.  0.
        254    2    1    2    0    0 -0.76542028259E+03  0.58852197596E+03  0.24013731310E+04  0.27337181552E+04  0.87999756409E+03 0.  0.
         23    2    4    4    0    0 -0.45834155648E+03 -0.15787729511E+03  0.94856272634E+03  0.10691526733E+04  0.91180975526E+02 0.  0.
         23    2    4    4    0    0 -0.30707872611E+03  0.74639927106E+03  0.14528104047E+04  0.16645654819E+04  0.93332501953E+02 0.  0.
         11    1    3    3    0    0  0.62112554128E+03 -0.44775027659E+03  0.68531100902E+03  0.10275837812E+04  0.00000000000E+00 0.  1.
        -11    1    3    3    0    0  0.14429474131E+03 -0.14077169937E+03  0.23263330498E+03  0.30782446020E+03  0.00000000000E+00 0. -1.
          2    1    5    5  502    0 -0.22076904527E+03 -0.89184818317E+02  0.37051669492E+03  0.44042652552E+03  0.00000000000E+00 0.  1.
          3    1    6    6  503    0 -0.27472835488E+02  0.16107030898E+03  0.27183843430E+03  0.31716641608E+03  0.00000000000E+00 0. -1.
         -2    1    5    5    0  502 -0.23757251121E+03 -0.68692476791E+02  0.57804603142E+03  0.62872614777E+03  0.00000000000E+00 0. -1.
         -3    1    6    6    0  503 -0.27960589062E+03  0.58532896208E+03  0.11809719704E+04  0.13473990659E+04  0.00000000000E+00 0.  1.
<mgrwt>
<rscale>  0 0.23537037E+04</rscale>
<asrwt>0</asrwt>
<pdfrwt beam="1">  1        2 0.56834181E+00 0.23537037E+04</pdfrwt>
<pdfrwt beam="2">  1       -2 0.57677614E-01 0.23537037E+04</pdfrwt>
<totfact> 0.15025559E+00</totfact>
</mgrwt>
</event>
<event>
12    1  0.4967442E-008  0.1445800E+04  0.7818608E-02  0.8921318E-01
         -2   -1    0    0    0  501 -0.00000000000E+00  0.00000000000E+00  0.35321140708E+03  0.35321140708E+03  0.00000000000E+00 0.  1.
          2   -1    0    0  501    0  0.00000000000E+00 -0.00000000000E+00 -0.14795224421E+04  0.14795224421E+04  0.00000000000E+00 0. -1.
         23    2    1    2    0    0 -0.17933904191E+03  0.18249467360E+03  0.10100020402E+03  0.29010515309E+03  0.92158346294E+02 0.  0.
        254    2    1    2    0    0  0.17933904191E+03 -0.18249467360E+03 -0.12273112391E+04  0.15426286961E+04  0.89885683994E+03 0.  0.
         23    2    4    4    0    0 -0.24462746759E+03  0.19460193173E+03 -0.25403781168E+03  0.41301308571E+03  0.91280279736E+02 0.  0.
         23    2    4    4    0    0  0.42396650951E+03 -0.37709660534E+03 -0.97327342739E+03  0.11296156104E+04  0.82588206668E+02 0.  0.
         11    1    3    3    0    0 -0.18267065969E+03  0.14356264774E+03  0.79838492666E+02  0.24566845269E+03  0.00000000000E+00 0.  1.
        -11    1    3    3    0    0  0.33316177793E+01  0.38932025865E+02  0.21161711352E+02  0.44436700398E+02  0.00000000000E+00 0. -1.
          1    1    5    5  502    0 -0.19161341506E+03  0.14901336691E+03 -0.24067776457E+03  0.34182813036E+03  0.00000000000E+00 0. -1.
          3    1    6    6  503    0  0.16362217835E+03 -0.13773683984E+03 -0.29115856434E+03  0.36127131617E+03  0.00000000000E+00 0. -1.
         -1    1    5    5    0  502 -0.53014052537E+02  0.45588564829E+02 -0.13360047110E+02  0.71184955351E+02  0.00000000000E+00 0.  1.
         -3    1    6    6    0  503  0.26034433116E+03 -0.23935976550E+03 -0.68211486304E+03  0.76834429424E+03  0.00000000000E+00 0.  1.
<mgrwt>
<rscale>  0 0.14457997E+04</rscale>
<asrwt>0</asrwt>
<pdfrwt beam="1">  1        2 0.22761883E+00 0.14457997E+04</pdfrwt>
<pdfrwt beam="2">  1       -2 0.54340218E-01 0.14457997E+04</pdfrwt>
<totfact> 0.40311158E+01</totfact>
</mgrwt>
</event>
<event>
12    1  0.4967442E-008  0.1511189E+04  0.7818608E-02  0.8877046E-01
          2   -1    0    0  501    0  0.00000000000E+00  0.00000000000E+00  0.26620448430E+04  0.26620448430E+04  0.00000000000E+00 0. -1.
         -2   -1    0    0    0  501 -0.00000000000E+00 -0.00000000000E+00 -0.21446786614E+03  0.21446786614E+03  0.00000000000E+00 0.  1.
         23    2    1    2    0    0 -0.12634389726E+03  0.24742184998E+03  0.40058080007E+02  0.29529343321E+03  0.91723550413E+02 0.  0.
        254    2    1    2    0    0  0.12634389726E+03 -0.24742184998E+03  0.24075188969E+04  0.25812192759E+04  0.88846235681E+03 0.  0.
         23    2    4    4    0    0  0.35782934234E+03 -0.33924211430E+03  0.21595220872E+04  0.22169517353E+04  0.90621748750E+02 0.  0.
         23    2    4    4    0    0 -0.23148544508E+03  0.91820264318E+02  0.24799680969E+03  0.36426754062E+03  0.95770304957E+02 0.  0.
         13    1    3    3    0    0 -0.89431378189E+02  0.82125458001E+02  0.32795485984E+02  0.12577005271E+03  0.00000000000E+00 0.  1.
        -13    1    3    3    0    0 -0.36912519074E+02  0.16529639198E+03  0.72625940228E+01  0.16952338051E+03  0.00000000000E+00 0. -1.
          4    1    5    5  502    0  0.25098757394E+03 -0.17796050858E+03  0.13562073916E+04  0.13906700522E+04  0.00000000000E+00 0. -1.
          3    1    6    6  503    0 -0.20553089366E+03  0.10033110032E+03  0.24743543715E+03  0.33694743432E+03  0.00000000000E+00 0. -1.
         -4    1    5    5    0  502  0.10684176841E+03 -0.16128160572E+03  0.80331469556E+03  0.82628168316E+03  0.00000000000E+00 0.  1.
         -3    1    6    6    0  503 -0.25954551424E+02 -0.85108360013E+01  0.56137253705E+00  0.27320106299E+02  0.00000000000E+00 0.  1.
<mgrwt>
<rscale>  0 0.15111890E+04</rscale>
<asrwt>0</asrwt>
<pdfrwt beam="1">  1        2 0.40954534E+00 0.15111890E+04</pdfrwt>
<pdfrwt beam="2">  1       -2 0.32995058E-01 0.15111890E+04</pdfrwt>
<totfact> 0.23239539E+01</totfact>
</mgrwt>
</event>
<event>
12    1  0.4967442E-008  0.1828388E+04  0.7818608E-02  0.8691347E-01
          2   -1    0    0  501    0  0.00000000000E+00  0.00000000000E+00  0.12933213856E+04  0.12933213856E+04  0.00000000000E+00 0. -1.
         -2   -1    0    0    0  501 -0.00000000000E+00 -0.00000000000E+00 -0.64620528588E+03  0.64620528588E+03  0.00000000000E+00 0.  1.
         23    2    1    2    0    0  0.25703037124E+03 -0.25027969666E+03  0.97912455530E+03  0.10479922478E+04  0.10439501149E+03 0.  0.
        254    2    1    2    0    0 -0.25703037124E+03  0.25027969666E+03 -0.33200845559E+03  0.89153442364E+03  0.74558666542E+03 0.  0.
         23    2    4    4    0    0 -0.37979344462E+03 -0.11235841179E+03 -0.55338503353E+02  0.41047221922E+03  0.92507402525E+02 0.  0.
         23    2    4    4    0    0  0.12276307339E+03  0.36263810845E+03 -0.27666995224E+03  0.48106220441E+03  0.91090132066E+02 0.  0.
         13    1    3    3    0    0  0.25778387230E+03 -0.23406511856E+03  0.86073994051E+03  0.92849999986E+03  0.00000000000E+00 0. -1.
        -13    1    3    3    0    0 -0.75350106580E+00 -0.16214578099E+02  0.11838461479E+03  0.11949224798E+03  0.00000000000E+00 0.  1.
          4    1    5    5  502    0 -0.12408507105E+03  0.27823775909E+01 -0.36650844440E+02  0.12941456982E+03  0.00000000000E+00 0. -1.
          3    1    6    6  503    0 -0.54303004906E+01  0.54256731979E+02 -0.14327830546E+02  0.56378789067E+02  0.00000000000E+00 0. -1.
         -4    1    5    5    0  502 -0.25570837357E+03 -0.11514078938E+03 -0.18687658914E+02  0.28105764941E+03  0.00000000000E+00 0.  1.
         -3    1    6    6    0  503  0.12819337388E+03  0.30838137647E+03 -0.26234212169E+03  0.42468341535E+03  0.00000000000E+00 0.  1.
<mgrwt>
<rscale>  0 0.18283885E+04</rscale>
<asrwt>0</asrwt>
<pdfrwt beam="1">  1        2 0.19897252E+00 0.18283885E+04</pdfrwt>
<pdfrwt beam="2">  1       -2 0.99416198E-01 0.18283885E+04</pdfrwt>
<totfact> 0.13161578E+01</totfact>
</mgrwt>
</event>
<event>
12    1  0.5153801E-008  0.1795086E+04  0.7818608E-02  0.8708917E-01
          1   -1    0    0  501    0  0.00000000000E+00  0.00000000000E+00  0.19249230980E+04  0.19249230980E+04  0.00000000000E+00 0. -1.
         -1   -1    0    0    0  501 -0.00000000000E+00 -0.00000000000E+00 -0.41850155745E+03  0.41850155745E+03  0.00000000000E+00 0.  1.
         23    2    1    2    0    0  0.44875220945E+03  0.41228602707E+03  0.96989977379E+03  0.11493832964E+04  0.94963557003E+02 0.  0.
        254    2    1    2    0    0 -0.44875220945E+03 -0.41228602707E+03  0.53652176671E+03  0.11940413590E+04  0.87551176312E+03 0.  0.
         23    2    4    4    0    0  0.10459334398E+03 -0.20772802272E+03  0.54276124380E+03  0.59745276301E+03  0.90935896249E+02 0.  0.
         23    2    4    4    0    0 -0.55334555343E+03 -0.20455800435E+03 -0.62394770852E+01  0.59658859604E+03  0.88564909584E+02 0.  0.
         13    1    3    3    0    0  0.35959642895E+03  0.37136461357E+03  0.84479180064E+03  0.99040115829E+03  0.00000000000E+00 0. -1.
        -13    1    3    3    0    0  0.89155780494E+02  0.40921413502E+02  0.12510797316E+03  0.15898213807E+03  0.00000000000E+00 0.  1.
          2    1    5    5  502    0  0.11974468291E+03 -0.19385014576E+03  0.51258550938E+03  0.56094614049E+03  0.00000000000E+00 0. -1.
          3    1    6    6  503    0 -0.53833095303E+03 -0.19656906670E+03 -0.21835997626E+02  0.57351235712E+03  0.00000000000E+00 0. -1.
         -2    1    5    5    0  502 -0.15151338931E+02 -0.13877876962E+02  0.30175734411E+02  0.36506622517E+02  0.00000000000E+00 0.  1.
         -3    1    6    6    0  503 -0.15014600396E+02 -0.79889376436E+01  0.15596520540E+02  0.23076238920E+02  0.00000000000E+00 0.  1.
<mgrwt>
<rscale>  0 0.17950859E+04</rscale>
<asrwt>0</asrwt>
<pdfrwt beam="1">  1        1 0.29614201E+00 0.17950859E+04</pdfrwt>
<pdfrwt beam="2">  1       -1 0.64384856E-01 0.17950859E+04</pdfrwt>
<totfact> 0.77384661E+00</totfact>
</mgrwt>
</event>
<event>
12    1  0.5938587E-008  0.2026150E+04  0.7818608E-02  0.8594491E-01
          1   -1    0    0  501    0  0.00000000000E+00  0.00000000000E+00  0.14784617493E+04  0.14784617493E+04  0.00000000000E+00 0. -1.
         -1   -1    0    0    0  501 -0.00000000000E+00 -0.00000000000E+00 -0.69418191197E+03  0.69418191197E+03  0.00000000000E+00 0.  1.
         23    2    1    2    0    0  0.53396290234E+02 -0.17661525103E+03 -0.51056574602E+03  0.55053504341E+03  0.91473178078E+02 0.  0.
        254    2    1    2    0    0 -0.53396290234E+02  0.17661525103E+03  0.12948455834E+04  0.16221086179E+04  0.95946191831E+03 0.  0.
         23    2    4    4    0    0  0.33142785434E+03 -0.22601983357E+03  0.57087861217E+03  0.70419814537E+03  0.95201104567E+02 0.  0.
         23    2    4    4    0    0 -0.38482414457E+03  0.40263508461E+03  0.72396697120E+03  0.91791047250E+03  0.90701855197E+02 0.  0.
         11    1    3    3    0    0  0.23474814162E+02 -0.10998411873E+03 -0.41664238480E+03  0.43155353097E+03  0.00000000000E+00 0.  1.
        -11    1    3    3    0    0  0.29921476072E+02 -0.66631132301E+02 -0.93923361214E+02  0.11898151245E+03  0.00000000000E+00 0. -1.
          2    1    5    5  502    0  0.42878427979E+02 -0.48041851129E+02  0.15363245292E+03  0.16658184065E+03  0.00000000000E+00 0. -1.
          4    1    6    6  503    0 -0.35908117890E+02  0.32071564169E+02  0.28028436011E+02  0.55709706370E+02  0.00000000000E+00 0. -1.
         -2    1    5    5    0  502  0.28854942636E+03 -0.17797798244E+03  0.41724615925E+03  0.53761630471E+03  0.00000000000E+00 0.  1.
         -4    1    6    6    0  503 -0.34891602668E+03  0.37056352044E+03  0.69593853519E+03  0.86220076613E+03  0.00000000000E+00 0.  1.
<mgrwt>
<rscale>  0 0.20261504E+04</rscale>
<asrwt>0</asrwt>
<pdfrwt beam="1">  1        1 0.22745565E+00 0.20261504E+04</pdfrwt>
<pdfrwt beam="2">  1       -1 0.10679722E+00 0.20261504E+04</pdfrwt>
<totfact> 0.51277024E+00</totfact>
</mgrwt>
</event>
<event>
12    1  0.5009253E-008  0.1939279E+04  0.7818608E-02  0.8635548E-01
          2   -1    0    0  501    0  0.00000000000E+00  0.00000000000E+00  0.80838358269E+03  0.80838358269E+03  0.00000000000E+00 0.  1.
         -2   -1    0    0    0  501 -0.00000000000E+00 -0.00000000000E+00 -0.11630625113E+04  0.11630625113E+04  0.00000000000E+00 0. -1.
         23    2    1    2    0    0  0.45614220300E+03 -0.49825334249E+03 -0.48465526273E+03  0.83666570422E+03  0.93790587319E+02 0.  0.
        254    2    1    2    0    0 -0.45614220300E+03  0.49825334249E+03  0.12997633408E+03  0.11347803898E+04  0.90250240056E+03 0.  0.
         23    2    4    4    0    0  0.10534529022E+03 -0.18125954519E+03 -0.37351063672E+02  0.23325334803E+03  0.95180720302E+02 0.  0.
         23    2    4    4    0    0 -0.56148749322E+03  0.67951288768E+03  0.16732739775E+03  0.90152704178E+03  0.88014654815E+02 0.  0.
         11    1    3    3    0    0  0.10652786211E+03 -0.12459584734E+03 -0.16891637818E+03  0.23538278059E+03  0.00000000000E+00 0.  1.
        -11    1    3    3    0    0  0.34961434089E+03 -0.37365749515E+03 -0.31573888455E+03  0.60128292364E+03  0.00000000000E+00 0. -1.
          1    1    5    5  502    0  0.10738162361E+03 -0.17934518871E+03 -0.13749004837E+02  0.20948638366E+03  0.00000000000E+00 0. -1.
          3    1    6    6  503    0 -0.43988240585E+03  0.57893589368E+03  0.12128182917E+03  0.73713810243E+03  0.00000000000E+00 0. -1.
         -1    1    5    5    0  502 -0.20363333901E+01 -0.19143564762E+01 -0.23602058835E+02  0.23766964375E+02  0.00000000000E+00 0.  1.
         -3    1    6    6    0  503 -0.12160508737E+03  0.10057699401E+03  0.46045568575E+02  0.16438893935E+03  0.00000000000E+00 0.  1.
<mgrwt>
<rscale>  0 0.19392789E+04</rscale>
<asrwt>0</asrwt>
<pdfrwt beam="1">  1        2 0.12436671E+00 0.19392789E+04</pdfrwt>
<pdfrwt beam="2">  1       -2 0.17893269E+00 0.19392789E+04</pdfrwt>
<totfact> 0.58465419E+00</totfact>
</mgrwt>
</event>
<event>
12    1  0.4967442E-008  0.1866558E+04  0.7818608E-02  0.8671684E-01
          1   -1    0    0  501    0  0.00000000000E+00  0.00000000000E+00  0.75906239517E+03  0.75906239517E+03  0.00000000000E+00 0. -1.
         -1   -1    0    0    0  501 -0.00000000000E+00 -0.00000000000E+00 -0.11474805478E+04  0.11474805478E+04  0.00000000000E+00 0.  1.
         23    2    1    2    0    0 -0.41142397222E+02 -0.49581289032E+03  0.36974393055E+03  0.62640773820E+03  0.90293749737E+02 0.  0.
        254    2    1    2    0    0  0.41142397222E+02  0.49581289032E+03 -0.75816208322E+03  0.12801352048E+04  0.90355590813E+03 0.  0.
         23    2    4    4    0    0  0.44739284959E+03  0.32397609167E+03 -0.54671839780E+03  0.78283283285E+03  0.93836921644E+02 0.  0.
         23    2    4    4    0    0 -0.40625045236E+03  0.17183679865E+03 -0.21144368542E+03  0.49730237196E+03  0.89632034663E+02 0.  0.
         13    1    3    3    0    0  0.37151426973E+01 -0.38478866136E+03  0.26403937838E+03  0.46668287898E+03  0.00000000000E+00 0.  1.
        -13    1    3    3    0    0 -0.44857539919E+02 -0.11102422896E+03  0.10570455217E+03  0.15972485922E+03  0.00000000000E+00 0. -1.
          2    1    5    5  502    0  0.82922047888E+02  0.23376682232E+02 -0.10752070551E+03  0.13777966980E+03  0.00000000000E+00 0.  1.
          4    1    6    6  503    0 -0.40875535481E+03  0.16527672251E+03 -0.21364914057E+03  0.48994212960E+03  0.00000000000E+00 0.  1.
         -2    1    5    5    0  502  0.36447080170E+03  0.30059940944E+03 -0.43919769229E+03  0.64505316305E+03  0.00000000000E+00 0. -1.
         -4    1    6    6    0  503  0.25049024461E+01  0.65600761428E+01  0.22054551464E+01  0.73602423647E+01  0.00000000000E+00 0. -1.
<mgrwt>
<rscale>  0 0.18665576E+04</rscale>
<asrwt>0</asrwt>
<pdfrwt beam="1">  1        1 0.11677883E+00 0.18665576E+04</pdfrwt>
<pdfrwt beam="2">  1       -1 0.17653547E+00 0.18665576E+04</pdfrwt>
<totfact> 0.49713484E+00</totfact>
</mgrwt>
</event>
<event>
12    1  0.4967442E-008  0.1036082E+04  0.7818608E-02  0.9269833E-01
         -2   -1    0    0    0  501 -0.00000000000E+00  0.00000000000E+00  0.96744155202E+02  0.96744155202E+02  0.00000000000E+00 0.  1.
          2   -1    0    0  501    0  0.00000000000E+00 -0.00000000000E+00 -0.27739803336E+04  0.27739803336E+04  0.00000000000E+00 0. -1.
         23    2    1    2    0    0  0.17827486834E+02 -0.92529286478E+02 -0.25676809479E+03  0.28879048712E+03  0.92685504831E+02 0.  0.
        254    2    1    2    0    0 -0.17827486834E+02  0.92529286478E+02 -0.24204680836E+04  0.25819340017E+04  0.89377735323E+03 0.  0.
         23    2    4    4    0    0 -0.27853225957E+03 -0.30025950193E+03 -0.11329508243E+04  0.12081416757E+04  0.91064539047E+02 0.  0.
         23    2    4    4    0    0  0.26070477274E+03  0.39278878841E+03 -0.12875172594E+04  0.13737923260E+04  0.85759261658E+02 0.  0.
         11    1    3    3    0    0  0.25726058233E+01 -0.38183475831E+02 -0.21548902213E+03  0.21886094852E+03  0.00000000000E+00 0. -1.
        -11    1    3    3    0    0  0.15254881011E+02 -0.54345810646E+02 -0.41279072661E+02  0.69929538603E+02  0.00000000000E+00 0.  1.
          4    1    5    5  502    0 -0.12923761702E+03 -0.12905562439E+03 -0.37895796799E+03  0.42067428890E+03  0.00000000000E+00 0. -1.
          4    1    6    6  503    0  0.99852958954E+02  0.83858598344E+02 -0.37862635316E+03  0.40045073759E+03  0.00000000000E+00 0. -1.
         -4    1    5    5    0  502 -0.14929464255E+03 -0.17120387755E+03 -0.75399285628E+03  0.78746738682E+03  0.00000000000E+00 0.  1.
         -4    1    6    6    0  503  0.16085181379E+03  0.30893019006E+03 -0.90889090622E+03  0.97334158842E+03  0.00000000000E+00 0.  1.
<mgrwt>
<rscale>  0 0.10360818E+04</rscale>
<asrwt>0</asrwt>
<pdfrwt beam="1">  1        2 0.42676623E+00 0.10360818E+04</pdfrwt>
<pdfrwt beam="2">  1       -2 0.14883715E-01 0.10360818E+04</pdfrwt>
<totfact> 0.86439524E+01</totfact>
</mgrwt>
</event>
<event>
12    1  0.6327771E-008  0.1875727E+04  0.7818608E-02  0.8667034E-01
          2   -1    0    0  501    0  0.00000000000E+00  0.00000000000E+00  0.24141113416E+04  0.24141113416E+04  0.00000000000E+00 0. -1.
         -2   -1    0    0    0  501 -0.00000000000E+00 -0.00000000000E+00 -0.36435264572E+03  0.36435264572E+03  0.00000000000E+00 0.  1.
         23    2    1    2    0    0  0.13903721393E+03 -0.27271728368E+02 -0.25240232945E+03  0.30154138628E+03  0.84529152960E+02 0.  0.
        254    2    1    2    0    0 -0.13903721393E+03  0.27271728368E+02  0.23021610254E+04  0.24769226011E+04  0.90284278309E+03 0.  0.
         23    2    4    4    0    0 -0.62900836108E+02 -0.20627202762E+03  0.92845417988E+02  0.25208166879E+03  0.91761819598E+02 0.  0.
         23    2    4    4    0    0 -0.76136377819E+02  0.23354375599E+03  0.22093156074E+04  0.22248409323E+04  0.92207846637E+02 0.  0.
         13    1    3    3    0    0  0.12958049815E+03 -0.40423909082E+02 -0.25091017711E+03  0.28527375432E+03  0.00000000000E+00 0.  1.
        -13    1    3    3    0    0  0.94567157791E+01  0.13152180714E+02 -0.14921523399E+01  0.16267631956E+02  0.00000000000E+00 0. -1.
          1    1    6    6  502    0  0.94061913192E+01 -0.31300423405E+01  0.56137731828E+02  0.57006302590E+02  0.00000000000E+00 0. -1.
          1    1    5    5  503    0 -0.31175279768E+00  0.65045732821E+01 -0.63709012768E+01  0.91101617146E+01  0.00000000000E+00 0. -1.
         -1    1    5    5    0  503 -0.62589083311E+02 -0.21277660090E+03  0.99216319264E+02  0.24297150707E+03  0.00000000000E+00 0.  1.
         -1    1    6    6    0  502 -0.85542569138E+02  0.23667379833E+03  0.21531778755E+04  0.21678346297E+04  0.00000000000E+00 0.  1.
<mgrwt>
<rscale>  0 0.18757269E+04</rscale>
<asrwt>0</asrwt>
<pdfrwt beam="1">  1        2 0.37140174E+00 0.18757269E+04</pdfrwt>
<pdfrwt beam="2">  1       -2 0.56054255E-01 0.18757269E+04</pdfrwt>
<totfact> 0.10948901E+01</totfact>
</mgrwt>
</event>
<event>
12    1  0.4967442E-008  0.1496441E+04  0.7818608E-02  0.8886823E-01
         -1   -1    0    0    0  501 -0.00000000000E+00  0.00000000000E+00  0.46367137051E+03  0.46367137051E+03  0.00000000000E+00 0.  1.
          1   -1    0    0  501    0  0.00000000000E+00 -0.00000000000E+00 -0.12073936176E+04  0.12073936176E+04  0.00000000000E+00 0. -1.
         23    2    1    2    0    0  0.15310356608E+03  0.27730805495E+03 -0.63858915906E+03  0.71850642104E+03  0.90082760409E+02 0.  0.
        254    2    1    2    0    0 -0.15310356608E+03 -0.27730805495E+03 -0.10513308800E+03  0.95255856704E+03  0.89217397304E+03 0.  0.
         23    2    4    4    0    0  0.19988058269E+03 -0.26729542910E+03 -0.36624434381E+03  0.50400384220E+03  0.92118726741E+02 0.  0.
         23    2    4    4    0    0 -0.35298414877E+03 -0.10012625843E+02  0.26111125581E+03  0.44855472485E+03  0.91237006265E+02 0.  0.
         13    1    3    3    0    0  0.87096080985E+02  0.12412865331E+03 -0.21354637013E+03  0.26190781220E+03  0.00000000000E+00 0.  1.
        -13    1    3    3    0    0  0.66007485091E+02  0.15317940164E+03 -0.42504278893E+03  0.45659860884E+03  0.00000000000E+00 0. -1.
          2    1    5    5  502    0  0.20041109541E+03 -0.26600922590E+03 -0.33382810080E+03  0.47155775502E+03  0.00000000000E+00 0. -1.
          2    1    6    6  503    0 -0.12498753570E+03 -0.12437623412E+01  0.41057651512E+02  0.13156428760E+03  0.00000000000E+00 0.  1.
         -2    1    5    5    0  502 -0.53051271819E+00 -0.12862031991E+01 -0.32416243010E+02  0.32446087180E+02  0.00000000000E+00 0.  1.
         -2    1    6    6    0  503 -0.22799661307E+03 -0.87688635016E+01  0.22005360430E+03  0.31699043725E+03  0.00000000000E+00 0. -1.
<mgrwt>
<rscale>  0 0.14964409E+04</rscale>
<asrwt>0</asrwt>
<pdfrwt beam="1">  1        1 0.18575286E+00 0.14964409E+04</pdfrwt>
<pdfrwt beam="2">  1       -1 0.71334058E-01 0.14964409E+04</pdfrwt>
<totfact> 0.20265774E+01</totfact>
</mgrwt>
</event>
<event>
12    1  0.4967442E-008  0.1392655E+04  0.7818608E-02  0.8959152E-01
          1   -1    0    0  501    0  0.00000000000E+00  0.00000000000E+00  0.48663184822E+03  0.48663184822E+03  0.00000000000E+00 0. -1.
         -1   -1    0    0    0  501 -0.00000000000E+00 -0.00000000000E+00 -0.99638369281E+03  0.99638369281E+03  0.00000000000E+00 0.  1.
         23    2    1    2    0    0 -0.30898606594E+03 -0.19106350556E+03  0.39942318074E+02  0.37784829884E+03  0.95897320413E+02 0.  0.
        254    2    1    2    0    0  0.30898606594E+03  0.19106350556E+03 -0.54969416267E+03  0.11051672422E+04  0.88727296174E+03 0.  0.
         23    2    4    4    0    0  0.27416088098E+01  0.49421334163E+03 -0.39285363402E+03  0.63764321171E+03  0.89445761340E+02 0.  0.
         23    2    4    4    0    0  0.30624445713E+03 -0.30314983607E+03 -0.15684052865E+03  0.46752403048E+03  0.91072921417E+02 0.  0.
         13    1    3    3    0    0 -0.97242879956E+02 -0.49053386677E+02 -0.30938654713E+02  0.11322372897E+03  0.00000000000E+00 0.  1.
        -13    1    3    3    0    0 -0.21174318598E+03 -0.14201011888E+03  0.70880972788E+02  0.26462456987E+03  0.00000000000E+00 0. -1.
          2    1    5    5  502    0 -0.24715931832E+02  0.53804160354E+02 -0.30147093322E+02  0.66442548066E+02  0.00000000000E+00 0. -1.
          1    1    6    6  503    0  0.33052537544E+02 -0.13672553412E+02 -0.37867561344E+02  0.52089933356E+02  0.00000000000E+00 0. -1.
         -2    1    5    5    0  502  0.27457540642E+02  0.44040918128E+03 -0.36270654069E+03  0.57120066365E+03  0.00000000000E+00 0.  1.
         -1    1    6    6    0  503  0.27319191958E+03 -0.28947728266E+03 -0.11897296731E+03  0.41543409712E+03  0.00000000000E+00 0.  1.
<mgrwt>
<rscale>  0 0.13926551E+04</rscale>
<asrwt>0</asrwt>
<pdfrwt beam="1">  1        1 0.74866439E-01 0.13926551E+04</pdfrwt>
<pdfrwt beam="2">  1       -1 0.15328980E+00 0.13926551E+04</pdfrwt>
<totfact> 0.14767163E+01</totfact>
</mgrwt>
</event>
<event>
12    1  0.4967442E-008  0.2584925E+04  0.7818608E-02  0.8373340E-01
         -2   -1    0    0    0  501 -0.00000000000E+00  0.00000000000E+00  0.14015776838E+04  0.14015776838E+04  0.00000000000E+00 0.  1.
          2   -1    0    0  501    0  0.00000000000E+00 -0.00000000000E+00 -0.11918416668E+04  0.11918416668E+04  0.00000000000E+00 0. -1.
         23    2    1    2    0    0  0.11204338275E+04 -0.15735326253E+03 -0.20781826147E+01  0.11347929042E+04  0.87284624177E+02 0.  0.
        254    2    1    2    0    0 -0.11204338275E+04  0.15735326253E+03  0.21181419958E+03  0.14586264464E+04  0.89587602051E+03 0.  0.
         23    2    4    4    0    0 -0.12176050984E+04  0.26708533855E+03  0.10329098110E+03  0.12539821612E+04  0.88912766116E+02 0.  0.
         23    2    4    4    0    0  0.97171270981E+02 -0.10973207601E+03  0.10852321848E+03  0.20464428524E+03  0.92836469780E+02 0.  0.
         11    1    3    3    0    0  0.18051802625E+02  0.81369501116E+01 -0.31995332147E+01  0.20057780234E+02  0.00000000000E+00 0.  1.
        -11    1    3    3    0    0  0.11023820248E+04 -0.16549021265E+03  0.11213506000E+01  0.11147351240E+04  0.00000000000E+00 0. -1.
          1    1    5    5  502    0 -0.89777204642E+03  0.23537012813E+03  0.66757326310E+02  0.93051076574E+03  0.00000000000E+00 0. -1.
          3    1    6    6  503    0  0.55168280207E+02 -0.96751072911E+02  0.11513289207E+03  0.16018705343E+03  0.00000000000E+00 0. -1.
         -1    1    5    5    0  502 -0.31983305202E+03  0.31715210419E+02  0.36533654788E+02  0.32347139544E+03  0.00000000000E+00 0.  1.
         -3    1    6    6    0  503  0.42002990774E+02 -0.12981003104E+02 -0.66096735841E+01  0.44457231813E+02  0.00000000000E+00 0.  1.
<mgrwt>
<rscale>  0 0.25849245E+04</rscale>
<asrwt>0</asrwt>
<pdfrwt beam="1">  1        2 0.18336026E+00 0.25849245E+04</pdfrwt>
<pdfrwt beam="2">  1       -2 0.21562734E+00 0.25849245E+04</pdfrwt>
<totfact> 0.17876068E+00</totfact>
</mgrwt>
</event>
<event>
12    1  0.4967442E-008  0.1398170E+04  0.7818608E-02  0.8955144E-01
          2   -1    0    0  501    0  0.00000000000E+00  0.00000000000E+00  0.10745591588E+04  0.10745591588E+04  0.00000000000E+00 0. -1.
         -2   -1    0    0    0  501 -0.00000000000E+00 -0.00000000000E+00 -0.45480950597E+03  0.45480950597E+03  0.00000000000E+00 0.  1.
         23    2    1    2    0    0  0.27818359609E+03 -0.94098619021E+02  0.47106978361E+03  0.56237894020E+03  0.90125846000E+02 0.  0.
        254    2    1    2    0    0 -0.27818359609E+03  0.94098619021E+02  0.14867986921E+03  0.96698972455E+03  0.90924296019E+03 0.  0.
         23    2    4    4    0    0 -0.13051716631E+03  0.37005596851E+03 -0.23268089266E+03  0.46502325784E+03  0.90166967310E+02 0.  0.
         23    2    4    4    0    0 -0.14766642977E+03 -0.27595734948E+03  0.38136076186E+03  0.50196646672E+03  0.92609231734E+02 0.  0.
         13    1    3    3    0    0  0.51345720141E+02  0.10542004364E+02  0.48069156915E+02  0.71120747179E+02  0.00000000000E+00 0.  1.
        -13    1    3    3    0    0  0.22683787595E+03 -0.10464062339E+03  0.42300062670E+03  0.49125819302E+03  0.00000000000E+00 0. -1.
          4    1    5    5  502    0 -0.33197164740E+01  0.51844696491E+02 -0.21266758240E+01  0.51994382598E+02  0.00000000000E+00 0. -1.
          1    1    6    6  503    0 -0.86689407528E+02 -0.76034014205E+02  0.10924415749E+03  0.15884114908E+03  0.00000000000E+00 0. -1.
         -4    1    5    5    0  502 -0.12719744984E+03  0.31821127201E+03 -0.23055421683E+03  0.41302887524E+03  0.00000000000E+00 0.  1.
         -1    1    6    6    0  503 -0.60977022245E+02 -0.19992333528E+03  0.27211660437E+03  0.34312531764E+03  0.00000000000E+00 0.  1.
<mgrwt>
<rscale>  0 0.13981698E+04</rscale>
<asrwt>0</asrwt>
<pdfrwt beam="1">  1        2 0.16531679E+00 0.13981698E+04</pdfrwt>
<pdfrwt beam="2">  1       -2 0.69970693E-01 0.13981698E+04</pdfrwt>
<totfact> 0.40927827E+01</totfact>
</mgrwt>
</event>
<event>
12    1  0.4967442E-008  0.2612396E+04  0.7818608E-02  0.8364003E-01
          2   -1    0    0  501    0  0.00000000000E+00  0.00000000000E+00  0.31193390837E+04  0.31193390837E+04  0.00000000000E+00 0. -1.
         -2   -1    0    0    0  501 -0.00000000000E+00 -0.00000000000E+00 -0.54695990557E+03  0.54695990557E+03  0.00000000000E+00 0.  1.
         23    2    1    2    0    0 -0.75591035289E+03 -0.86545670787E+03  0.11555942461E+04  0.16322525847E+04  0.91840425876E+02 0.  0.
        254    2    1    2    0    0  0.75591035289E+03  0.86545670787E+03  0.14167849320E+04  0.20340464046E+04  0.89980523312E+03 0.  0.
         23    2    4    4    0    0 -0.53668083331E+02  0.43788546478E+03  0.16314508982E+03  0.47901190102E+03  0.90620845005E+02 0.  0.
         23    2    4    4    0    0  0.80957843622E+03  0.42757124308E+03  0.12536398422E+04  0.15550345035E+04  0.91022200500E+02 0.  0.
         13    1    3    3    0    0 -0.71815455094E+03 -0.79378123837E+03  0.10532078936E+04  0.15016928716E+04  0.00000000000E+00 0. -1.
        -13    1    3    3    0    0 -0.37755801951E+02 -0.71675469500E+02  0.10238635255E+03  0.13055971315E+03  0.00000000000E+00 0.  1.
          2    1    6    6  502    0  0.27720164412E+03  0.16668728826E+03  0.51103112674E+03  0.60479601194E+03  0.00000000000E+00 0. -1.
          2    1    5    5  503    0 -0.60279418849E+02  0.34523228237E+03  0.16207207061E+03  0.38611694239E+03  0.00000000000E+00 0.  1.
         -2    1    5    5    0  503  0.66113355174E+01  0.92653182413E+02  0.10730192048E+01  0.92894958630E+02  0.00000000000E+00 0. -1.
         -2    1    6    6    0  502  0.53237679210E+03  0.26088395482E+03  0.74260871545E+03  0.95023849159E+03  0.00000000000E+00 0.  1.
<mgrwt>
<rscale>  0 0.26123961E+04</rscale>
<asrwt>0</asrwt>
<pdfrwt beam="1">  1        2 0.47989831E+00 0.26123961E+04</pdfrwt>
<pdfrwt beam="2">  1       -2 0.84147679E-01 0.26123961E+04</pdfrwt>
<totfact> 0.15933191E+00</totfact>
</mgrwt>
</event>
<event>
12    1  0.4967442E-008  0.3194823E+04  0.7818608E-02  0.8190186E-01
         -1   -1    0    0    0  501 -0.00000000000E+00  0.00000000000E+00  0.92831438659E+03  0.92831438659E+03  0.00000000000E+00 0.  1.
          1   -1    0    0  501    0  0.00000000000E+00 -0.00000000000E+00 -0.27487716524E+04  0.27487716524E+04  0.00000000000E+00 0. -1.
         23    2    1    2    0    0 -0.11351750709E+04 -0.74663110105E+02  0.23506810940E+03  0.11651823304E+04  0.90530798499E+02 0.  0.
        254    2    1    2    0    0  0.11351750709E+04  0.74663110105E+02 -0.20555253752E+04  0.25119037085E+04  0.88897618154E+03 0.  0.
         23    2    4    4    0    0  0.12460798696E+04 -0.27664956188E+02 -0.16523494002E+04  0.20718396803E+04  0.93705544286E+02 0.  0.
         23    2    4    4    0    0 -0.11090479873E+03  0.10232806629E+03 -0.40317597495E+03  0.44006402826E+03  0.91293891686E+02 0.  0.
         11    1    3    3    0    0 -0.38406523310E+03 -0.55480749227E+02  0.49018575200E+02  0.39113557435E+03  0.00000000000E+00 0. -1.
        -11    1    3    3    0    0 -0.75110983780E+03 -0.19182360879E+02  0.18604953420E+03  0.77404675608E+03  0.00000000000E+00 0.  1.
          4    1    5    5  502    0  0.14693127907E+02 -0.13711190868E+01 -0.41680243077E+02  0.44215502238E+02  0.00000000000E+00 0.  1.
          1    1    6    6  503    0 -0.10809804041E+03  0.83973324062E+02 -0.39786217328E+03  0.42075053705E+03  0.00000000000E+00 0. -1.
         -4    1    5    5    0  502  0.12313867417E+04 -0.26293837102E+02 -0.16106691572E+04  0.20276241780E+04  0.00000000000E+00 0. -1.
         -1    1    6    6    0  503 -0.28067583162E+01  0.18354742231E+02 -0.53138016631E+01  0.19313491210E+02  0.00000000000E+00 0.  1.
<mgrwt>
<rscale>  0 0.31948235E+04</rscale>
<asrwt>0</asrwt>
<pdfrwt beam="1">  1        1 0.42288795E+00 0.31948235E+04</pdfrwt>
<pdfrwt beam="2">  1       -1 0.14281760E+00 0.31948235E+04</pdfrwt>
<totfact> 0.30158251E-01</totfact>
</mgrwt>
</event>
<event>
12    1  0.4967442E-008  0.1854339E+04  0.7818608E-02  0.8677925E-01
         -1   -1    0    0    0  501 -0.00000000000E+00  0.00000000000E+00  0.41452305969E+03  0.41452305969E+03  0.00000000000E+00 0.  1.
          1   -1    0    0  501    0  0.00000000000E+00 -0.00000000000E+00 -0.20738135067E+04  0.20738135067E+04  0.00000000000E+00 0. -1.
         23    2    1    2    0    0  0.51154934958E+03 -0.32925143061E+03 -0.16021850679E+03  0.63634541836E+03  0.95792901328E+02 0.  0.
        254    2    1    2    0    0 -0.51154934958E+03  0.32925143061E+03 -0.14990719402E+04  0.18519911480E+04  0.90142403385E+03 0.  0.
         23    2    4    4    0    0 -0.28076255685E+03 -0.21087779936E+03 -0.10399450813E+04  0.11007892812E+04  0.83391905449E+02 0.  0.
         23    2    4    4    0    0 -0.23078679273E+03  0.54012922996E+03 -0.45912685892E+03  0.75120186682E+03  0.92220623387E+02 0.  0.
         13    1    3    3    0    0  0.17041947692E+03 -0.11445002543E+03 -0.10136896413E+03  0.22894818916E+03  0.00000000000E+00 0. -1.
        -13    1    3    3    0    0  0.34112987266E+03 -0.21480140518E+03 -0.58849542659E+02  0.40739722920E+03  0.00000000000E+00 0.  1.
          3    1    5    5  502    0 -0.17240132210E+03 -0.78755027263E+02 -0.57544700378E+03  0.60585792422E+03  0.00000000000E+00 0. -1.
          3    1    6    6  503    0 -0.58608402096E+02  0.21268358864E+03 -0.13019317840E+03  0.25616306794E+03  0.00000000000E+00 0. -1.
         -3    1    5    5    0  502 -0.10836123475E+03 -0.13212277209E+03 -0.46449807754E+03  0.49493135700E+03  0.00000000000E+00 0.  1.
         -3    1    6    6    0  503 -0.17217839064E+03  0.32744564133E+03 -0.32893368052E+03  0.49503879889E+03  0.00000000000E+00 0.  1.
<mgrwt>
<rscale>  0 0.18543393E+04</rscale>
<asrwt>0</asrwt>
<pdfrwt beam="1">  1        1 0.31904824E+00 0.18543393E+04</pdfrwt>
<pdfrwt beam="2">  1       -1 0.63772777E-01 0.18543393E+04</pdfrwt>
<totfact> 0.62194004E+00</totfact>
</mgrwt>
</event>
<event>
12    1  0.4967442E-008  0.2121831E+04  0.7818608E-02  0.8551687E-01
         -2   -1    0    0    0  501 -0.00000000000E+00  0.00000000000E+00  0.37201458550E+03  0.37201458550E+03  0.00000000000E+00 0.  1.
          2   -1    0    0  501    0  0.00000000000E+00 -0.00000000000E+00 -0.30255303728E+04  0.30255303728E+04  0.00000000000E+00 0. -1.
         23    2    1    2    0    0  0.25739904405E+03 -0.43011579001E+03  0.40184605981E+02  0.51111710002E+03  0.91498779662E+02 0.  0.
        254    2    1    2    0    0 -0.25739904405E+03  0.43011579001E+03 -0.26937003933E+04  0.28864278582E+04  0.90784916784E+03 0.  0.
         23    2    4    4    0    0 -0.26190445494E+03  0.36350957125E+03 -0.45514982211E+03  0.64494056802E+03  0.89743098973E+02 0.  0.
         23    2    4    4    0    0  0.45054108834E+01  0.66606218760E+02 -0.22385505711E+04  0.22414872902E+04  0.93273391436E+02 0.  0.
         11    1    3    3    0    0  0.65604536227E+01  0.26489552601E+01  0.67774722909E+01  0.97974816336E+01  0.00000000000E+00 0. -1.
        -11    1    3    3    0    0  0.25083859043E+03 -0.43276474527E+03  0.33407133690E+02  0.50131961838E+03  0.00000000000E+00 0.  1.
          4    1    5    5  502    0 -0.16994359989E+03  0.23297500801E+03 -0.35114888880E+03  0.45438279413E+03  0.00000000000E+00 0. -1.
          3    1    6    6  503    0  0.46155688843E+02  0.15541234254E+02 -0.99872972820E+03  0.99991647029E+03  0.00000000000E+00 0. -1.
         -4    1    5    5    0  502 -0.91960855046E+02  0.13053456324E+03 -0.10400093331E+03  0.19055777389E+03  0.00000000000E+00 0.  1.
         -3    1    6    6    0  503 -0.41650277960E+02  0.51064984506E+02 -0.12398208429E+04  0.12415708199E+04  0.00000000000E+00 0.  1.
<mgrwt>
<rscale>  0 0.21218307E+04</rscale>
<asrwt>0</asrwt>
<pdfrwt beam="1">  1        2 0.46546623E+00 0.21218307E+04</pdfrwt>
<pdfrwt beam="2">  1       -2 0.57233011E-01 0.21218307E+04</pdfrwt>
<totfact> 0.44237261E+00</totfact>
</mgrwt>
</event>
<event>
12    1  0.4967442E-008  0.1137488E+04  0.7818608E-02  0.9169405E-01
         -1   -1    0    0    0  501 -0.00000000000E+00  0.00000000000E+00  0.28147460130E+03  0.28147460130E+03  0.00000000000E+00 0.  1.
          1   -1    0    0  501    0  0.00000000000E+00 -0.00000000000E+00 -0.11491961285E+04  0.11491961285E+04  0.00000000000E+00 0. -1.
         23    2    1    2    0    0  0.10264065481E+03  0.15235493356E+03 -0.82017047857E+02  0.21800049061E+03  0.83965992918E+02 0.  0.
        254    2    1    2    0    0 -0.10264065481E+03 -0.15235493356E+03 -0.78570447933E+03  0.12126702392E+04  0.90525711836E+03 0.  0.
         23    2    4    4    0    0 -0.34174525144E+03 -0.13145794324E+03 -0.86491633464E+03  0.94417067332E+03  0.96472725181E+02 0.  0.
         23    2    4    4    0    0  0.23910459663E+03 -0.20896990317E+02  0.79211855308E+02  0.26849956586E+03  0.90607982593E+02 0.  0.
         13    1    3    3    0    0  0.29976649304E+02  0.65673307087E+02  0.90907235164E+01  0.72761418494E+02  0.00000000000E+00 0.  1.
        -13    1    3    3    0    0  0.72664005507E+02  0.86681626473E+02 -0.91107771374E+02  0.14523907212E+03  0.00000000000E+00 0. -1.
          1    1    5    5  502    0 -0.27682800268E+03 -0.87500657606E+02 -0.75714333292E+03  0.81089835043E+03  0.00000000000E+00 0. -1.
          3    1    6    6  503    0  0.90807724615E+02  0.15355342245E+00  0.76428436405E+02  0.11869023683E+03  0.00000000000E+00 0. -1.
         -1    1    5    5    0  502 -0.64917248767E+02 -0.43957285638E+02 -0.10777300171E+03  0.13327232288E+03  0.00000000000E+00 0.  1.
         -3    1    6    6    0  503  0.14829687202E+03 -0.21050543739E+02  0.27834189031E+01  0.14980932902E+03  0.00000000000E+00 0.  1.
<mgrwt>
<rscale>  0 0.11374876E+04</rscale>
<asrwt>0</asrwt>
<pdfrwt beam="1">  1        1 0.17679940E+00 0.11374876E+04</pdfrwt>
<pdfrwt beam="2">  1       -1 0.43303785E-01 0.11374876E+04</pdfrwt>
<totfact> 0.60881839E+01</totfact>
</mgrwt>
</event>
<event>
12    1  0.4967442E-008  0.1195701E+04  0.7818608E-02  0.9116628E-01
          2   -1    0    0  501    0  0.00000000000E+00  0.00000000000E+00  0.89082792200E+03  0.89082792200E+03  0.00000000000E+00 0. -1.
         -2   -1    0    0    0  501 -0.00000000000E+00 -0.00000000000E+00 -0.40122833378E+03  0.40122833378E+03  0.00000000000E+00 0.  1.
         23    2    1    2    0    0 -0.82396994302E+02 -0.23241113597E+03  0.16669641492E+03  0.31303424400E+03  0.96946079734E+02 0.  0.
        254    2    1    2    0    0  0.82396994302E+02  0.23241113597E+03  0.32290317329E+03  0.97902201178E+03  0.89073758168E+03 0.  0.
         23    2    4    4    0    0 -0.28047253273E+03  0.34890953192E+03  0.36354120760E+03  0.58382524693E+03  0.91032995379E+02 0.  0.
         23    2    4    4    0    0  0.36286952703E+03 -0.11649839594E+03 -0.40638034307E+02  0.39519676485E+03  0.96347616543E+02 0.  0.
         11    1    3    3    0    0 -0.16477090756E+02 -0.14185518477E+03  0.50069515601E+02  0.15133190133E+03  0.00000000000E+00 0. -1.
        -11    1    3    3    0    0 -0.65919903545E+02 -0.90555951199E+02  0.11662689932E+03  0.16170234267E+03  0.00000000000E+00 0.  1.
          2    1    5    5  502    0 -0.60377990398E+02  0.60824062481E+02  0.11848756715E+03  0.14623396278E+03  0.00000000000E+00 0. -1.
          3    1    6    6  503    0  0.95721836773E+02 -0.31241086344E+02 -0.54381446964E+02  0.11443783153E+03  0.00000000000E+00 0. -1.
         -2    1    5    5    0  502 -0.22009454233E+03  0.28808546944E+03  0.24505364045E+03  0.43759128415E+03  0.00000000000E+00 0.  1.
         -3    1    6    6    0  503  0.26714769025E+03 -0.85257309600E+02  0.13743412657E+02  0.28075893332E+03  0.00000000000E+00 0.  1.
<mgrwt>
<rscale>  0 0.11957013E+04</rscale>
<asrwt>0</asrwt>
<pdfrwt beam="1">  1        2 0.13705045E+00 0.11957013E+04</pdfrwt>
<pdfrwt beam="2">  1       -2 0.61727436E-01 0.11957013E+04</pdfrwt>
<totfact> 0.71609756E+01</totfact>
</mgrwt>
</event>
<event>
12    1  0.4967442E-008  0.1676526E+04  0.7818608E-02  0.8774867E-01
         -1   -1    0    0    0  501 -0.00000000000E+00  0.00000000000E+00  0.58700895667E+03  0.58700895667E+03  0.00000000000E+00 0.  1.
          1   -1    0    0  501    0  0.00000000000E+00 -0.00000000000E+00 -0.11970595505E+04  0.11970595505E+04  0.00000000000E+00 0. -1.
         23    2    1    2    0    0  0.12787594938E+03  0.15805930028E+03 -0.81471368527E+03  0.84475425944E+03  0.92284175424E+02 0.  0.
        254    2    1    2    0    0 -0.12787594938E+03 -0.15805930028E+03  0.20466309149E+03  0.93931424769E+03  0.89391793475E+03 0.  0.
         23    2    4    4    0    0 -0.38262855818E+03  0.25762483457E+02  0.39739421741E+03  0.55959809857E+03  0.90330220874E+02 0.  0.
         23    2    4    4    0    0  0.25475260879E+03 -0.18382178374E+03 -0.19273112593E+03  0.37971614912E+03  0.91376841376E+02 0.  0.
         13    1    3    3    0    0 -0.65071515014E+01  0.43883282993E+02 -0.22092568345E+03  0.22533584525E+03  0.00000000000E+00 0.  1.
        -13    1    3    3    0    0  0.13438310089E+03  0.11417601729E+03 -0.59378800182E+03  0.61941841419E+03  0.00000000000E+00 0. -1.
          1    1    5    5  502    0 -0.17864571870E+03  0.45193912698E+02  0.23194522786E+03  0.29623533092E+03  0.00000000000E+00 0. -1.
          3    1    6    6  503    0  0.97558286482E+02 -0.12006729859E+03 -0.67107718842E+02  0.16863339343E+03  0.00000000000E+00 0. -1.
         -1    1    5    5    0  502 -0.20398283947E+03 -0.19431429240E+02  0.16544898955E+03  0.26336276765E+03  0.00000000000E+00 0.  1.
         -3    1    6    6    0  503  0.15719432231E+03 -0.63754485151E+02 -0.12562340708E+03  0.21108275569E+03  0.00000000000E+00 0.  1.
<mgrwt>
<rscale>  0 0.16765258E+04</rscale>
<asrwt>0</asrwt>
<pdfrwt beam="1">  1        1 0.18416301E+00 0.16765258E+04</pdfrwt>
<pdfrwt beam="2">  1       -1 0.90309071E-01 0.16765258E+04</pdfrwt>
<totfact> 0.12276320E+01</totfact>
</mgrwt>
</event>
<event>
12    1  0.4967442E-008  0.1842425E+04  0.7818608E-02  0.8684058E-01
         -1   -1    0    0    0  501 -0.00000000000E+00  0.00000000000E+00  0.95165955926E+03  0.95165955926E+03  0.00000000000E+00 0.  1.
          1   -1    0    0  501    0  0.00000000000E+00 -0.00000000000E+00 -0.89173968707E+03  0.89173968707E+03  0.00000000000E+00 0. -1.
         23    2    1    2    0    0  0.63265156474E+03 -0.10541002866E+03 -0.26319627297E+03  0.69904903679E+03  0.89654900695E+02 0.  0.
        254    2    1    2    0    0 -0.63265156474E+03  0.10541002866E+03  0.32311614516E+03  0.11443502095E+04  0.89093999926E+03 0.  0.
         23    2    4    4    0    0  0.19951767967E+03  0.35742992155E+02 -0.43432854036E+02  0.22778023131E+03  0.94406329121E+02 0.  0.
         23    2    4    4    0    0 -0.83216924441E+03  0.69667036506E+02  0.36654899919E+03  0.91656997822E+03  0.91559864879E+02 0.  0.
         13    1    3    3    0    0  0.19273411221E+03 -0.30499096552E+02 -0.36491088839E+02  0.19851506861E+03  0.00000000000E+00 0.  1.
        -13    1    3    3    0    0  0.43991745253E+03 -0.74910932109E+02 -0.22670518413E+03  0.50053396818E+03  0.00000000000E+00 0. -1.
          3    1    6    6  502    0 -0.17162302953E+03 -0.19028799522E+01  0.11263776720E+03  0.20529333115E+03  0.00000000000E+00 0. -1.
          3    1    5    5  503    0  0.25940576508E+01 -0.13442362839E+02 -0.18888939859E+02  0.23328486938E+02  0.00000000000E+00 0. -1.
         -3    1    5    5    0  503  0.19692362201E+03  0.49185354994E+02 -0.24543914177E+02  0.20445174437E+03  0.00000000000E+00 0.  1.
         -3    1    6    6    0  502 -0.66054621488E+03  0.71569916459E+02  0.25391123199E+03  0.71127664707E+03  0.00000000000E+00 0.  1.
<mgrwt>
<rscale>  0 0.18424251E+04</rscale>
<asrwt>0</asrwt>
<pdfrwt beam="1">  1        1 0.13719072E+00 0.18424251E+04</pdfrwt>
<pdfrwt beam="2">  1       -1 0.14640916E+00 0.18424251E+04</pdfrwt>
<totfact> 0.64716270E+00</totfact>
</mgrwt>
</event>
<event>
12    1  0.4967442E-008  0.3544672E+04  0.7818608E-02  0.8103284E-01
         -2   -1    0    0    0  501 -0.00000000000E+00  0.00000000000E+00  0.13918118655E+04  0.13918118655E+04  0.00000000000E+00 0.  1.
          2   -1    0    0  501    0  0.00000000000E+00 -0.00000000000E+00 -0.22568962214E+04  0.22568962214E+04  0.00000000000E+00 0. -1.
         23    2    1    2    0    0  0.36124022934E+02 -0.16151477919E+04 -0.81618545208E+03  0.18120764849E+04  0.86343269493E+02 0.  0.
        254    2    1    2    0    0 -0.36124022934E+02  0.16151477919E+04 -0.48898903846E+02  0.18366316020E+04  0.87224836140E+03 0.  0.
         23    2    4    4    0    0  0.22573138493E+03  0.55486076830E+02  0.23414315365E+02  0.25087052183E+03  0.91402547527E+02 0.  0.
         23    2    4    4    0    0 -0.26185540787E+03  0.15596617150E+04 -0.72313219212E+02  0.15857610801E+04  0.91082828444E+02 0.  0.
         11    1    3    3    0    0 -0.13340418082E+02 -0.23895914893E+03 -0.94106831152E+02  0.25716830536E+03  0.00000000000E+00 0.  1.
        -11    1    3    3    0    0  0.49464441015E+02 -0.13761886429E+04 -0.72207862093E+03  0.15549081795E+04  0.00000000000E+00 0. -1.
          2    1    5    5  502    0  0.23212510669E+03  0.43655012818E+02  0.23992505301E+02  0.23740991051E+03  0.00000000000E+00 0. -1.
          3    1    6    6  503    0 -0.25660921092E+03  0.13379957831E+04 -0.63222362979E+02  0.13638467912E+04  0.00000000000E+00 0. -1.
         -2    1    5    5    0  502 -0.63937217539E+01  0.11831064012E+02 -0.57818993592E+00  0.13460611320E+02  0.00000000000E+00 0.  1.
         -3    1    6    6    0  503 -0.52461969505E+01  0.22166593191E+03 -0.90908562331E+01  0.22191428890E+03  0.00000000000E+00 0.  1.
<mgrwt>
<rscale>  0 0.35446720E+04</rscale>
<asrwt>0</asrwt>
<pdfrwt beam="1">  1        2 0.34721480E+00 0.35446720E+04</pdfrwt>
<pdfrwt beam="2">  1       -2 0.21412491E+00 0.35446720E+04</pdfrwt>
<totfact> 0.42301243E-01</totfact>
</mgrwt>
</event>
<event>
12    1  0.4967442E-008  0.1683826E+04  0.7818608E-02  0.8770643E-01
          2   -1    0    0  501    0  0.00000000000E+00  0.00000000000E+00  0.27115418515E+04  0.27115418515E+04  0.00000000000E+00 0. -1.
         -2   -1    0    0    0  501 -0.00000000000E+00 -0.00000000000E+00 -0.26140750022E+03  0.26140750022E+03  0.00000000000E+00 0.  1.
         23    2    1    2    0    0  0.16121072401E+03 -0.43313732834E+03  0.19761996120E+03  0.51071667221E+03  0.90449032483E+02 0.  0.
        254    2    1    2    0    0 -0.16121072401E+03  0.43313732834E+03  0.22525143901E+04  0.24622326795E+04  0.88043844063E+03 0.  0.
         23    2    4    4    0    0 -0.20521740227E+03  0.62010851896E+03  0.20977798997E+04  0.21989511226E+04  0.89759537887E+02 0.  0.
         23    2    4    4    0    0  0.44006678258E+02 -0.18697119062E+03  0.15473449035E+03  0.26328155684E+03  0.92084753439E+02 0.  0.
         13    1    3    3    0    0  0.61904232359E+02 -0.13529583826E+03  0.10915173936E+03  0.18452967252E+03  0.00000000000E+00 0.  1.
        -13    1    3    3    0    0  0.99306491648E+02 -0.29784149008E+03  0.88468221844E+02  0.32618699970E+03  0.00000000000E+00 0. -1.
          2    1    5    5  502    0 -0.20838797813E+03  0.62165252643E+03  0.20827011677E+04  0.21834654948E+04  0.00000000000E+00 0. -1.
          3    1    6    6  503    0 -0.18963664035E+02 -0.11544943221E+03  0.74436785041E+02  0.13866876692E+03  0.00000000000E+00 0. -1.
         -2    1    5    5    0  502  0.31705758688E+01 -0.15440074740E+01  0.15078732016E+02  0.15485627841E+02  0.00000000000E+00 0.  1.
         -3    1    6    6    0  503  0.62970342293E+02 -0.71521758406E+02  0.80297705304E+02  0.12461278992E+03  0.00000000000E+00 0.  1.
<mgrwt>
<rscale>  0 0.16838259E+04</rscale>
<asrwt>0</asrwt>
<pdfrwt beam="1">  1        2 0.41716027E+00 0.16838259E+04</pdfrwt>
<pdfrwt beam="2">  1       -2 0.40216540E-01 0.16838259E+04</pdfrwt>
<totfact> 0.14615025E+01</totfact>
</mgrwt>
</event>
<event>
12    1  0.4967442E-008  0.2233386E+04  0.7818608E-02  0.8504659E-01
         -2   -1    0    0    0  501 -0.00000000000E+00  0.00000000000E+00  0.63135584896E+03  0.63135584896E+03  0.00000000000E+00 0.  1.
          2   -1    0    0  501    0  0.00000000000E+00 -0.00000000000E+00 -0.19751200048E+04  0.19751200048E+04  0.00000000000E+00 0. -1.
         23    2    1    2    0    0 -0.66950023164E+03  0.84557963711E+02  0.18821878950E+03  0.70683941335E+03  0.93888413289E+02 0.  0.
        254    2    1    2    0    0  0.66950023164E+03 -0.84557963711E+02 -0.15319829454E+04  0.18996364404E+04  0.89792329937E+03 0.  0.
         23    2    4    4    0    0 -0.18312617871E+02 -0.82788870892E+02  0.75876272534E+02  0.14860252861E+03  0.95583228966E+02 0.  0.
         23    2    4    4    0    0  0.68781284951E+03 -0.17690928195E+01 -0.16078592179E+04  0.17510339118E+04  0.88424262135E+02 0.  0.
         13    1    3    3    0    0 -0.24142415436E+02  0.13015401384E+02 -0.79250556235E+01  0.28549315279E+02  0.00000000000E+00 0. -1.
        -13    1    3    3    0    0 -0.64535781620E+03  0.71542562327E+02  0.19614384512E+03  0.67829009807E+03  0.00000000000E+00 0.  1.
          1    1    5    5  502    0  0.13397998978E+02 -0.87671905393E+02  0.75566270873E+02  0.11651665403E+03  0.00000000000E+00 0. -1.
          3    1    6    6  503    0  0.27070899349E+03 -0.69130102529E+01 -0.52765264121E+03  0.59308385465E+03  0.00000000000E+00 0. -1.
         -1    1    5    5    0  502 -0.31710616849E+02  0.48830345018E+01  0.31000166087E+00  0.32085874585E+02  0.00000000000E+00 0.  1.
         -3    1    6    6    0  503  0.41710385602E+03  0.51439174333E+01 -0.10802065767E+04  0.11579500572E+04  0.00000000000E+00 0.  1.
<mgrwt>
<rscale>  0 0.22333863E+04</rscale>
<asrwt>0</asrwt>
<pdfrwt beam="1">  1        2 0.30386462E+00 0.22333863E+04</pdfrwt>
<pdfrwt beam="2">  1       -2 0.97131668E-01 0.22333863E+04</pdfrwt>
<totfact> 0.55624190E+00</totfact>
</mgrwt>
</event>
<event>
12    1  0.4967442E-008  0.2371049E+04  0.7818608E-02  0.8450423E-01
          2   -1    0    0  501    0  0.00000000000E+00  0.00000000000E+00  0.28234619843E+04  0.28234619843E+04  0.00000000000E+00 0. -1.
         -2   -1    0    0    0  501 -0.00000000000E+00 -0.00000000000E+00 -0.49778193757E+03  0.49778193757E+03  0.00000000000E+00 0.  1.
         23    2    1    2    0    0 -0.34947498048E+03 -0.88875972635E+03  0.81745286622E+03  0.12603689908E+04  0.90962582331E+02 0.  0.
        254    2    1    2    0    0  0.34947498048E+03  0.88875972635E+03  0.15082271805E+04  0.20608749310E+04  0.10297716447E+04 0.  0.
         23    2    4    4    0    0  0.64101512130E+03  0.37924577318E+03  0.11306459571E+04  0.13571146831E+04  0.93124865590E+02 0.  0.
         23    2    4    4    0    0 -0.29154014082E+03  0.50951395317E+03  0.37758122332E+03  0.70376024786E+03  0.90059891574E+02 0.  0.
         11    1    3    3    0    0 -0.52298755543E+02 -0.23793487067E+03  0.22016215470E+03  0.32835885381E+03  0.00000000000E+00 0. -1.
        -11    1    3    3    0    0 -0.29717622493E+03 -0.65082485568E+03  0.59729071152E+03  0.93201013702E+03  0.00000000000E+00 0.  1.
          1    1    5    5  502    0  0.90611598389E+01  0.23626225503E+02  0.33380073084E+02  0.41887139174E+02  0.00000000000E+00 0. -1.
          3    1    6    6  503    0 -0.22983804952E+02  0.20827540149E+02  0.44481910430E+02  0.54228056154E+02  0.00000000000E+00 0. -1.
         -1    1    5    5    0  502  0.63195396146E+03  0.35561954768E+03  0.10972658841E+04  0.13152275440E+04  0.00000000000E+00 0.  1.
         -3    1    6    6    0  503 -0.26855633587E+03  0.48868641302E+03  0.33309931289E+03  0.64953219170E+03  0.00000000000E+00 0.  1.
<mgrwt>
<rscale>  0 0.23710490E+04</rscale>
<asrwt>0</asrwt>
<pdfrwt beam="1">  1        2 0.43437876E+00 0.23710490E+04</pdfrwt>
<pdfrwt beam="2">  1       -2 0.76581838E-01 0.23710490E+04</pdfrwt>
<totfact> 0.30755303E+00</totfact>
</mgrwt>
</event>
<event>
12    1  0.4967442E-008  0.1825047E+04  0.7818608E-02  0.8693092E-01
         -2   -1    0    0    0  501 -0.00000000000E+00  0.00000000000E+00  0.10614395963E+04  0.10614395963E+04  0.00000000000E+00 0.  1.
          2   -1    0    0  501    0  0.00000000000E+00 -0.00000000000E+00 -0.78449948083E+03  0.78449948083E+03  0.00000000000E+00 0. -1.
         23    2    1    2    0    0 -0.12845751282E+03 -0.43572048276E+03 -0.41854359504E+03  0.62422009073E+03  0.90101659359E+02 0.  0.
        254    2    1    2    0    0  0.12845751282E+03  0.43572048276E+03  0.69548371049E+03  0.12217189864E+04  0.89584932799E+03 0.  0.
         23    2    4    4    0    0 -0.27412528194E+03  0.39232747607E+03  0.10211637111E+03  0.49787994655E+03  0.91603325521E+02 0.  0.
         23    2    4    4    0    0  0.40258279477E+03  0.43393006697E+02  0.59336733938E+03  0.72383903985E+03  0.88894862019E+02 0.  0.
         11    1    3    3    0    0  0.68851424520E+01 -0.51740363434E+02 -0.24627087952E+02  0.57714502994E+02  0.00000000000E+00 0.  1.
        -11    1    3    3    0    0 -0.13534265528E+03 -0.38398011933E+03 -0.39391650709E+03  0.56650558773E+03  0.00000000000E+00 0. -1.
          2    1    5    5  502    0 -0.13596533818E+03  0.23143924996E+03  0.98056518600E+02  0.28577225276E+03  0.00000000000E+00 0. -1.
          2    1    6    6  503    0  0.22260788030E+02 -0.16366023560E+02  0.24405588679E+02  0.36864917871E+02  0.00000000000E+00 0.  1.
         -2    1    5    5    0  502 -0.13815994376E+03  0.16088822611E+03  0.40598525152E+01  0.21210769379E+03  0.00000000000E+00 0.  1.
         -2    1    6    6    0  503  0.38032200674E+03  0.59759030258E+02  0.56896175070E+03  0.68697412197E+03  0.00000000000E+00 0. -1.
<mgrwt>
<rscale>  0 0.18250466E+04</rscale>
<asrwt>0</asrwt>
<pdfrwt beam="1">  1        2 0.12069223E+00 0.18250466E+04</pdfrwt>
<pdfrwt beam="2">  1       -2 0.16329840E+00 0.18250466E+04</pdfrwt>
<totfact> 0.79307331E+00</totfact>
</mgrwt>
</event>
<event>
12    1  0.4967442E-008  0.2754358E+04  0.7818608E-02  0.8317580E-01
         -2   -1    0    0    0  501 -0.00000000000E+00  0.00000000000E+00  0.11210995230E+04  0.11210995230E+04  0.00000000000E+00 0. -1.
          2   -1    0    0  501    0  0.00000000000E+00 -0.00000000000E+00 -0.16917514690E+04  0.16917514690E+04  0.00000000000E+00 0.  1.
         23    2    1    2    0    0  0.32195806543E+03  0.63153827852E+02  0.95229240709E+03  0.10115552796E+04  0.93476484776E+02 0.  0.
        254    2    1    2    0    0 -0.32195806543E+03 -0.63153827852E+02 -0.15229443530E+04  0.18012957124E+04  0.90424628244E+03 0.  0.
         23    2    4    4    0    0 -0.16444494291E+03  0.30456579471E+03 -0.12694540341E+04  0.13189283082E+04  0.90861845104E+02 0.  0.
         23    2    4    4    0    0 -0.15751312252E+03 -0.36771962256E+03 -0.25349031890E+03  0.48236740421E+03  0.91612588018E+02 0.  0.
         11    1    3    3    0    0  0.28869329404E+03  0.45808779091E+02  0.90590662759E+03  0.95189762064E+03  0.00000000000E+00 0. -1.
        -11    1    3    3    0    0  0.33264771390E+02  0.17345048761E+02  0.46385779493E+02  0.59657658949E+02  0.00000000000E+00 0.  1.
          2    1    5    5  502    0 -0.17567162554E+03  0.29370108991E+03 -0.12142264766E+04  0.12615335060E+04  0.00000000000E+00 0. -1.
          3    1    6    6  503    0 -0.16891422697E+03 -0.33871675614E+03 -0.22616925875E+03  0.44092356545E+03  0.00000000000E+00 0. -1.
         -2    1    5    5    0  502  0.11226682629E+02  0.10864704796E+02 -0.55227557567E+02  0.57394802273E+02  0.00000000000E+00 0.  1.
         -3    1    6    6    0  503  0.11401104452E+02 -0.29002866418E+02 -0.27321060155E+02  0.41443838760E+02  0.00000000000E+00 0.  1.
<mgrwt>
<rscale>  0 0.27543578E+04</rscale>
<asrwt>0</asrwt>
<pdfrwt beam="1">  1        2 0.26026946E+00 0.27543578E+04</pdfrwt>
<pdfrwt beam="2">  1       -2 0.17247685E+00 0.27543578E+04</pdfrwt>
<totfact> 0.17721603E+00</totfact>
</mgrwt>
</event>
<event>
12    1  0.4967442E-008  0.3195831E+04  0.7818608E-02  0.8189919E-01
         -2   -1    0    0    0  501 -0.00000000000E+00  0.00000000000E+00  0.12773428136E+04  0.12773428136E+04  0.00000000000E+00 0.  1.
          2   -1    0    0  501    0  0.00000000000E+00 -0.00000000000E+00 -0.19989416485E+04  0.19989416485E+04  0.00000000000E+00 0. -1.
         23    2    1    2    0    0  0.77389988447E+03 -0.12373679553E+04 -0.51488288621E+03  0.15501890652E+04  0.89337917916E+02 0.  0.
        254    2    1    2    0    0 -0.77389988447E+03  0.12373679553E+04 -0.20671594869E+03  0.17260953970E+04  0.89814995856E+03 0.  0.
         23    2    4    4    0    0 -0.33919142963E+03  0.82481341741E+03 -0.52596943383E+03  0.10394926926E+04  0.92375392574E+02 0.  0.
         23    2    4    4    0    0 -0.43470845484E+03  0.41255453784E+03  0.31925348514E+03  0.68660270436E+03  0.10162577656E+03 0.  0.
         11    1    3    3    0    0  0.35639060375E+03 -0.62844597764E+03 -0.22065005281E+03  0.75541052088E+03  0.00000000000E+00 0.  1.
        -11    1    3    3    0    0  0.41750928071E+03 -0.60892197762E+03 -0.29423283340E+03  0.79477854435E+03  0.00000000000E+00 0. -1.
          2    1    5    5  502    0 -0.84520583833E+02  0.15217087393E+03 -0.68309106469E+02  0.18699154524E+03  0.00000000000E+00 0. -1.
          2    1    6    6  503    0 -0.19801910832E+03  0.14932170045E+03  0.17888842200E+03  0.30579340250E+03  0.00000000000E+00 0. -1.
         -2    1    5    5    0  502 -0.25467084580E+03  0.67264254349E+03 -0.45766032736E+03  0.85250114736E+03  0.00000000000E+00 0.  1.
         -2    1    6    6    0  503 -0.23668934651E+03  0.26323283739E+03  0.14036506314E+03  0.38080930186E+03  0.00000000000E+00 0.  1.
<mgrwt>
<rscale>  0 0.31958309E+04</rscale>
<asrwt>0</asrwt>
<pdfrwt beam="1">  1        2 0.30752948E+00 0.31958309E+04</pdfrwt>
<pdfrwt beam="2">  1       -2 0.19651428E+00 0.31958309E+04</pdfrwt>
<totfact> 0.79036085E-01</totfact>
</mgrwt>
</event>
<event>
12    1  0.4967442E-008  0.2189722E+04  0.7818608E-02  0.8522718E-01
          2   -1    0    0  501    0  0.00000000000E+00  0.00000000000E+00  0.13383350740E+04  0.13383350740E+04  0.00000000000E+00 0. -1.
         -2   -1    0    0    0  501 -0.00000000000E+00 -0.00000000000E+00 -0.89568040676E+03  0.89568040676E+03  0.00000000000E+00 0.  1.
         23    2    1    2    0    0 -0.90258580018E+03  0.59812405542E+02  0.32226354684E+03  0.96436764031E+03  0.88952242846E+02 0.  0.
        254    2    1    2    0    0  0.90258580018E+03 -0.59812405542E+02  0.12039112043E+03  0.12696478405E+04  0.88276438895E+03 0.  0.
         23    2    4    4    0    0 -0.12622512434E+02 -0.73575451989E+02 -0.25066591883E+03  0.27731837314E+03  0.92192202830E+02 0.  0.
         23    2    4    4    0    0  0.91520831262E+03  0.13763046446E+02  0.37105703926E+03  0.99232946733E+03  0.96118512376E+02 0.  0.
         13    1    3    3    0    0 -0.79382328590E+03  0.39982598981E+02  0.25396687095E+03  0.83441787433E+03  0.00000000000E+00 0. -1.
        -13    1    3    3    0    0 -0.10876251429E+03  0.19829806561E+02  0.68296675888E+02  0.12994976599E+03  0.00000000000E+00 0.  1.
          2    1    5    5  502    0  0.21269464508E+02 -0.24405820894E+02 -0.18795162142E+03  0.19071928641E+03  0.00000000000E+00 0. -1.
          4    1    6    6  503    0  0.42491083968E+03  0.12663427359E+01  0.12099658440E+03  0.44180425387E+03  0.00000000000E+00 0.  1.
         -2    1    5    5    0  502 -0.33891976941E+02 -0.49169631094E+02 -0.62714297410E+02  0.86599086731E+02  0.00000000000E+00 0.  1.
         -4    1    6    6    0  503  0.49029747294E+03  0.12496703710E+02  0.25006045487E+03  0.55052521347E+03  0.00000000000E+00 0. -1.
<mgrwt>
<rscale>  0 0.21897219E+04</rscale>
<asrwt>0</asrwt>
<pdfrwt beam="1">  1        2 0.20589770E+00 0.21897219E+04</pdfrwt>
<pdfrwt beam="2">  1       -2 0.13779699E+00 0.21897219E+04</pdfrwt>
<totfact> 0.53775409E+00</totfact>
</mgrwt>
</event>
<event>
12    1  0.4967442E-008  0.2059263E+04  0.7818608E-02  0.8579404E-01
          1   -1    0    0  501    0  0.00000000000E+00  0.00000000000E+00  0.58144349343E+03  0.58144349343E+03  0.00000000000E+00 0. -1.
         -1   -1    0    0    0  501 -0.00000000000E+00 -0.00000000000E+00 -0.18232924418E+04  0.18232924418E+04  0.00000000000E+00 0.  1.
         23    2    1    2    0    0  0.29177221238E+03  0.74214936885E+03 -0.80931687725E+03  0.11397867962E+04  0.90572751316E+02 0.  0.
        254    2    1    2    0    0 -0.29177221238E+03 -0.74214936885E+03 -0.43253207115E+03  0.12649491391E+04  0.88153027309E+03 0.  0.
         23    2    4    4    0    0  0.92963723969E+02  0.43454972989E+02  0.15481259314E+03  0.20754485021E+03  0.92613914734E+02 0.  0.
         23    2    4    4    0    0 -0.38473593634E+03 -0.78560434184E+03 -0.58734466429E+03  0.10574042889E+04  0.89073862003E+02 0.  0.
         11    1    3    3    0    0  0.12829530653E+03  0.32498458620E+03 -0.29140847477E+03  0.45496545596E+03  0.00000000000E+00 0.  1.
        -11    1    3    3    0    0  0.16347690585E+03  0.41716478265E+03 -0.51790840248E+03  0.68482134019E+03  0.00000000000E+00 0. -1.
          2    1    5    5  502    0  0.47539541657E+02 -0.88390874265E+01  0.13555418056E+02  0.50218391513E+02  0.00000000000E+00 0. -1.
          4    1    6    6  503    0 -0.78362008415E+01 -0.12144638161E+01 -0.84518280830E+00  0.79746661352E+01  0.00000000000E+00 0. -1.
         -2    1    5    5    0  502  0.45424182312E+02  0.52294060415E+02  0.14125717508E+03  0.15732645870E+03  0.00000000000E+00 0.  1.
         -4    1    6    6    0  503 -0.37689973550E+03 -0.78438987802E+03 -0.58649948148E+03  0.10494296228E+04  0.00000000000E+00 0.  1.
<mgrwt>
<rscale>  0 0.20592635E+04</rscale>
<asrwt>0</asrwt>
<pdfrwt beam="1">  1        1 0.89452846E-01 0.20592635E+04</pdfrwt>
<pdfrwt beam="2">  1       -1 0.28050653E+00 0.20592635E+04</pdfrwt>
<totfact> 0.14613631E+00</totfact>
</mgrwt>
</event>
<event>
12    1  0.4967442E-008  0.2459141E+04  0.7818608E-02  0.8417688E-01
         -2   -1    0    0    0  501 -0.00000000000E+00  0.00000000000E+00  0.77407528056E+03  0.77407528056E+03  0.00000000000E+00 0.  1.
          2   -1    0    0  501    0  0.00000000000E+00 -0.00000000000E+00 -0.19530967569E+04  0.19530967569E+04  0.00000000000E+00 0. -1.
         23    2    1    2    0    0  0.16086416907E+02 -0.82913714799E+03  0.22557774042E+03  0.86411695718E+03  0.89920051867E+02 0.  0.
        254    2    1    2    0    0 -0.16086416907E+02  0.82913714799E+03 -0.14045992168E+04  0.18630550803E+04  0.90019336227E+03 0.  0.
         23    2    4    4    0    0  0.88022704989E+02 -0.14900940383E+03 -0.80891653790E+02  0.21135641630E+03  0.90422762812E+02 0.  0.
         23    2    4    4    0    0 -0.10410912190E+03  0.97814655181E+03 -0.13237075630E+04  0.16516986640E+04  0.91089946088E+02 0.  0.
         11    1    3    3    0    0  0.18711635960E+01 -0.21612834087E+03  0.10030569632E+03  0.23827755601E+03  0.00000000000E+00 0. -1.
        -11    1    3    3    0    0  0.14215253311E+02 -0.61300880711E+03  0.12527204410E+03  0.62583940117E+03  0.00000000000E+00 0.  1.
          1    1    5    5  502    0  0.73454907382E+02 -0.52860771482E+02 -0.68130173776E+02  0.11327667526E+03  0.00000000000E+00 0. -1.
          1    1    6    6  503    0 -0.72306813344E+01  0.26037718982E+02 -0.16685178712E+02  0.31759105010E+02  0.00000000000E+00 0. -1.
         -1    1    5    5    0  502  0.14567797607E+02 -0.96148632344E+02 -0.12761480015E+02  0.98079741032E+02  0.00000000000E+00 0.  1.
         -1    1    6    6    0  503 -0.96878440562E+02  0.95210883283E+03 -0.13070223842E+04  0.16199395590E+04  0.00000000000E+00 0.  1.
<mgrwt>
<rscale>  0 0.24591412E+04</rscale>
<asrwt>0</asrwt>
<pdfrwt beam="1">  1        2 0.30047642E+00 0.24591412E+04</pdfrwt>
<pdfrwt beam="2">  1       -2 0.11908851E+00 0.24591412E+04</pdfrwt>
<totfact> 0.34359232E+00</totfact>
</mgrwt>
</event>
<event>
12    1  0.4967442E-008  0.2017740E+04  0.7818608E-02  0.8598371E-01
         -2   -1    0    0    0  501 -0.00000000000E+00  0.00000000000E+00  0.63003236378E+03  0.63003236378E+03  0.00000000000E+00 0. -1.
          2   -1    0    0  501    0  0.00000000000E+00 -0.00000000000E+00 -0.16155018939E+04  0.16155018939E+04  0.00000000000E+00 0.  1.
         23    2    1    2    0    0  0.57496264639E+03 -0.48842946802E+01  0.23293499412E+03  0.62690261988E+03  0.90234595621E+02 0.  0.
        254    2    1    2    0    0 -0.57496264639E+03  0.48842946802E+01 -0.12184045243E+04  0.16186316378E+04  0.89713593905E+03 0.  0.
         23    2    4    4    0    0 -0.64855663872E+03  0.31833806794E+03 -0.88146936780E+03  0.11432980226E+04  0.90428330059E+02 0.  0.
         23    2    4    4    0    0  0.73593992327E+02 -0.31345377326E+03 -0.33693515649E+03  0.47533361529E+03  0.93527549244E+02 0.  0.
         13    1    3    3    0    0  0.37320891624E+03 -0.31059133987E+02  0.11505628591E+03  0.39177482549E+03  0.00000000000E+00 0. -1.
        -13    1    3    3    0    0  0.20175373015E+03  0.26174839307E+02  0.11787870821E+03  0.23512779439E+03  0.00000000000E+00 0.  1.
          2    1    5    5  502    0 -0.46867193328E+03  0.18471393478E+03 -0.62421510744E+03  0.80213285627E+03  0.00000000000E+00 0. -1.
          1    1    6    6  503    0  0.42644255996E+02 -0.60125922027E+02 -0.40260788898E+02  0.83991607865E+02  0.00000000000E+00 0. -1.
         -2    1    5    5    0  502 -0.17988470544E+03  0.13362413316E+03 -0.25725426035E+03  0.34116516628E+03  0.00000000000E+00 0.  1.
         -1    1    6    6    0  503  0.30949736332E+02 -0.25332785123E+03 -0.29667436759E+03  0.39134200742E+03  0.00000000000E+00 0.  1.
<mgrwt>
<rscale>  0 0.20177398E+04</rscale>
<asrwt>0</asrwt>
<pdfrwt beam="1">  1        2 0.24853875E+00 0.20177398E+04</pdfrwt>
<pdfrwt beam="2">  1       -2 0.96928058E-01 0.20177398E+04</pdfrwt>
<totfact> 0.90173410E+00</totfact>
</mgrwt>
</event>
<event>
12    1  0.4967442E-008  0.1157450E+04  0.7818608E-02  0.9150938E-01
          2   -1    0    0  501    0  0.00000000000E+00  0.00000000000E+00  0.61862460812E+03  0.61862460812E+03  0.00000000000E+00 0. -1.
         -2   -1    0    0    0  501 -0.00000000000E+00 -0.00000000000E+00 -0.54139889147E+03  0.54139889147E+03  0.00000000000E+00 0.  1.
         23    2    1    2    0    0 -0.14429056213E+03 -0.14703737365E+03  0.92933903084E+02  0.24204421394E+03  0.86654114658E+02 0.  0.
        254    2    1    2    0    0  0.14429056213E+03  0.14703737365E+03 -0.15708186435E+02  0.91797928566E+03  0.89442689260E+03 0.  0.
         23    2    4    4    0    0  0.24472560896E+03 -0.32974168120E+03  0.20930005467E+02  0.42090057330E+03  0.89994596927E+02 0.  0.
         23    2    4    4    0    0 -0.10043504682E+03  0.47677905485E+03 -0.36638191902E+02  0.49707871236E+03  0.91320443512E+02 0.  0.
         11    1    3    3    0    0 -0.95658699402E+02 -0.96607105257E+02  0.10392864884E+03  0.17112768218E+03  0.00000000000E+00 0. -1.
        -11    1    3    3    0    0 -0.48631862732E+02 -0.50430268389E+02 -0.10994745754E+02  0.70916531759E+02  0.00000000000E+00 0.  1.
          2    1    5    5  502    0  0.11256734409E+03 -0.86336068704E+02 -0.99649144740E+01  0.14221330189E+03  0.00000000000E+00 0. -1.
          3    1    6    6  503    0 -0.10159142190E+03  0.27588795566E+03 -0.76000405517E+01  0.29409648365E+03  0.00000000000E+00 0. -1.
         -2    1    5    5    0  502  0.13215826487E+03 -0.24340561250E+03  0.30894919941E+02  0.27868727141E+03  0.00000000000E+00 0.  1.
         -3    1    6    6    0  503  0.11563750748E+01  0.20089109919E+03 -0.29038151350E+02  0.20298222871E+03  0.00000000000E+00 0.  1.
<mgrwt>
<rscale>  0 0.11574501E+04</rscale>
<asrwt>0</asrwt>
<pdfrwt beam="1">  1        2 0.95173017E-01 0.11574501E+04</pdfrwt>
<pdfrwt beam="2">  1       -2 0.83292137E-01 0.11574501E+04</pdfrwt>
<totfact> 0.59690417E+01</totfact>
</mgrwt>
</event>
<event>
12    1  0.4967442E-008  0.2670419E+04  0.7818608E-02  0.8344667E-01
         -2   -1    0    0    0  501 -0.00000000000E+00  0.00000000000E+00  0.63154288715E+03  0.63154288715E+03  0.00000000000E+00 0.  1.
          2   -1    0    0  501    0  0.00000000000E+00 -0.00000000000E+00 -0.28229023968E+04  0.28229023968E+04  0.00000000000E+00 0. -1.
         23    2    1    2    0    0  0.80835329729E+03  0.32843184033E+03  0.57908977077E+02  0.87995694564E+03  0.98327257476E+02 0.  0.
        254    2    1    2    0    0 -0.80835329729E+03 -0.32843184033E+03 -0.22492684868E+04  0.25744883383E+04  0.89859832616E+03 0.  0.
         23    2    4    4    0    0 -0.92083157887E+03 -0.58623922806E+02 -0.18670584127E+04  0.20845779755E+04  0.90502256818E+02 0.  0.
         23    2    4    4    0    0  0.11247828159E+03 -0.26980791753E+03 -0.38221007409E+03  0.48991036288E+03  0.92086626258E+02 0.  0.
         11    1    3    3    0    0  0.11972002809E+03  0.83009740028E+02 -0.82076072092E+01  0.14591390229E+03  0.00000000000E+00 0. -1.
        -11    1    3    3    0    0  0.68863326920E+03  0.24542210031E+03  0.66116584286E+02  0.73404304335E+03  0.00000000000E+00 0.  1.
          2    1    5    5  502    0 -0.39064870809E+03 -0.64441342404E+02 -0.75103560901E+03  0.84900741207E+03  0.00000000000E+00 0. -1.
          1    1    6    6  503    0  0.24525140613E+02 -0.16528925006E+03 -0.17721795626E+03  0.24357385477E+03  0.00000000000E+00 0. -1.
         -2    1    5    5    0  502 -0.53018287078E+03  0.58174195981E+01 -0.11160228037E+04  0.12355705634E+04  0.00000000000E+00 0.  1.
         -1    1    6    6    0  503  0.87953140972E+02 -0.10451866747E+03 -0.20499211783E+03  0.24633650812E+03  0.00000000000E+00 0.  1.
<mgrwt>
<rscale>  0 0.26704186E+04</rscale>
<asrwt>0</asrwt>
<pdfrwt beam="1">  1        2 0.43429267E+00 0.26704186E+04</pdfrwt>
<pdfrwt beam="2">  1       -2 0.97160445E-01 0.26704186E+04</pdfrwt>
<totfact> 0.17408483E+00</totfact>
</mgrwt>
</event>
<event>
12    1  0.4967442E-008  0.1661111E+04  0.7818608E-02  0.8783860E-01
          1   -1    0    0  501    0  0.00000000000E+00  0.00000000000E+00  0.64706425533E+03  0.64706425533E+03  0.00000000000E+00 0. -1.
         -1   -1    0    0    0  501 -0.00000000000E+00 -0.00000000000E+00 -0.10660806397E+04  0.10660806397E+04  0.00000000000E+00 0.  1.
         23    2    1    2    0    0  0.83514790295E+02 -0.57622506757E+03 -0.13898791378E+03  0.60567380302E+03  0.92266282003E+02 0.  0.
        254    2    1    2    0    0 -0.83514790295E+02  0.57622506757E+03 -0.28002847054E+03  0.11074710920E+04  0.89948108737E+03 0.  0.
         23    2    4    4    0    0  0.38624664889E+03  0.26836085092E+03 -0.24267893694E+03  0.53719279284E+03  0.92081540784E+02 0.  0.
         23    2    4    4    0    0 -0.46976143919E+03  0.30786421665E+03 -0.37349533595E+02  0.57027829913E+03  0.91466743452E+02 0.  0.
         13    1    3    3    0    0  0.83948201973E+02 -0.48762700504E+03 -0.85362035780E+02  0.50210962330E+03  0.00000000000E+00 0. -1.
        -13    1    3    3    0    0 -0.43341167775E+00 -0.88598062531E+02 -0.53625878001E+02  0.10356417972E+03  0.00000000000E+00 0.  1.
          1    1    5    5  502    0  0.14755588168E+03  0.66894298239E+02 -0.12001285719E+03  0.20162011617E+03  0.00000000000E+00 0. -1.
          3    1    6    6  503    0 -0.26629371957E+03  0.22696480404E+03 -0.15618342020E+02  0.35024177358E+03  0.00000000000E+00 0. -1.
         -1    1    5    5    0  502  0.23869076721E+03  0.20146655268E+03 -0.12266607976E+03  0.33557267667E+03  0.00000000000E+00 0.  1.
         -3    1    6    6    0  503 -0.20346771962E+03  0.80899412608E+02 -0.21731191575E+02  0.22003652554E+03  0.00000000000E+00 0.  1.
<mgrwt>
<rscale>  0 0.16611113E+04</rscale>
<asrwt>0</asrwt>
<pdfrwt beam="1">  1        1 0.99548349E-01 0.16611113E+04</pdfrwt>
<pdfrwt beam="2">  1       -1 0.16401240E+00 0.16611113E+04</pdfrwt>
<totfact> 0.79790731E+00</totfact>
</mgrwt>
</event>
<event>
12    1  0.4967442E-008  0.1638412E+04  0.7818608E-02  0.8797291E-01
          2   -1    0    0  501    0  0.00000000000E+00  0.00000000000E+00  0.36382609946E+04  0.36382609946E+04  0.00000000000E+00 0. -1.
         -2   -1    0    0    0  501 -0.00000000000E+00 -0.00000000000E+00 -0.18445590383E+03  0.18445590383E+03  0.00000000000E+00 0.  1.
         23    2    1    2    0    0 -0.24765228119E+03 -0.10859250948E+03  0.20649672856E+04  0.20846113585E+04  0.91600434897E+02 0.  0.
        254    2    1    2    0    0  0.24765228119E+03  0.10859250948E+03  0.13888378052E+04  0.17381055400E+04  0.10094634384E+04 0.  0.
         23    2    4    4    0    0  0.49601175051E+03  0.31465679235E+03  0.46490123403E+03  0.75492317821E+03  0.93484191118E+02 0.  0.
         23    2    4    4    0    0 -0.24835946932E+03 -0.20606428287E+03  0.92393657112E+03  0.98318236176E+03  0.94041769087E+02 0.  0.
         11    1    3    3    0    0 -0.23609939905E+03 -0.11995612224E+03  0.20078678087E+04  0.20252569058E+04  0.00000000000E+00 0. -1.
        -11    1    3    3    0    0 -0.11552882145E+02  0.11363612756E+02  0.57099476975E+02  0.59354452668E+02  0.00000000000E+00 0.  1.
          2    1    5    5  502    0  0.45866059463E+03  0.26665856309E+03  0.43979144542E+03  0.68912469539E+03  0.00000000000E+00 0. -1.
          3    1    6    6  503    0 -0.21333340222E+03 -0.20946194101E+03  0.85533756513E+03  0.90608376851E+03  0.00000000000E+00 0. -1.
         -2    1    5    5    0  502  0.37351155882E+02  0.47998229263E+02  0.25109788609E+02  0.65798482825E+02  0.00000000000E+00 0.  1.
         -3    1    6    6    0  503 -0.35026067100E+02  0.33976581379E+01  0.68599005994E+02  0.77098593247E+02  0.00000000000E+00 0.  1.
<mgrwt>
<rscale>  0 0.16384123E+04</rscale>
<asrwt>0</asrwt>
<pdfrwt beam="1">  1        2 0.55973241E+00 0.16384123E+04</pdfrwt>
<pdfrwt beam="2">  1       -2 0.28377834E-01 0.16384123E+04</pdfrwt>
<totfact> 0.71356930E+00</totfact>
</mgrwt>
</event>
<event>
12    1  0.4967442E-008  0.1715507E+04  0.7818608E-02  0.8752569E-01
         -1   -1    0    0    0  501 -0.00000000000E+00  0.00000000000E+00  0.44126501942E+03  0.44126501942E+03  0.00000000000E+00 0.  1.
          1   -1    0    0  501    0  0.00000000000E+00 -0.00000000000E+00 -0.16673451056E+04  0.16673451056E+04  0.00000000000E+00 0. -1.
         23    2    1    2    0    0 -0.18340625611E+03  0.58229236204E+03 -0.37828541613E+03  0.72486468035E+03  0.98115743332E+02 0.  0.
        254    2    1    2    0    0  0.18340625611E+03 -0.58229236204E+03 -0.84779467000E+03  0.13837454446E+04  0.90735516938E+03 0.  0.
         23    2    4    4    0    0  0.28609701363E+03 -0.65231760535E+03 -0.24098324329E+03  0.75766658016E+03  0.92822215487E+02 0.  0.
         23    2    4    4    0    0 -0.10269075752E+03  0.70025243313E+02 -0.60681142671E+03  0.62607886447E+03  0.91135671235E+02 0.  0.
         13    1    3    3    0    0 -0.99416888510E+02  0.45296969817E+03 -0.29467422407E+03  0.54945260352E+03  0.00000000000E+00 0.  1.
        -13    1    3    3    0    0 -0.83989367601E+02  0.12932266387E+03 -0.83611192063E+02  0.17541207683E+03  0.00000000000E+00 0. -1.
          4    1    5    5  502    0  0.76653727647E+02 -0.24035850059E+03 -0.12314579950E+03  0.28073633662E+03  0.00000000000E+00 0. -1.
          1    1    6    6  503    0 -0.20356188677E+02  0.50310633381E+02 -0.11662287419E+03  0.12863292359E+03  0.00000000000E+00 0. -1.
         -4    1    5    5    0  502  0.20944328598E+03 -0.41195910477E+03 -0.11783744379E+03  0.47693024354E+03  0.00000000000E+00 0.  1.
         -1    1    6    6    0  503 -0.82334568840E+02  0.19714609932E+02 -0.49018855252E+03  0.49744594088E+03  0.00000000000E+00 0.  1.
<mgrwt>
<rscale>  0 0.17155070E+04</rscale>
<asrwt>0</asrwt>
<pdfrwt beam="1">  1        1 0.25651463E+00 0.17155070E+04</pdfrwt>
<pdfrwt beam="2">  1       -1 0.67886927E-01 0.17155070E+04</pdfrwt>
<totfact> 0.10475588E+01</totfact>
</mgrwt>
</event>
<event>
12    1  0.4967442E-008  0.1603274E+04  0.7818608E-02  0.8818539E-01
          2   -1    0    0  501    0  0.00000000000E+00  0.00000000000E+00  0.29896354202E+04  0.29896354202E+04  0.00000000000E+00 0. -1.
         -2   -1    0    0    0  501 -0.00000000000E+00 -0.00000000000E+00 -0.21494998364E+03  0.21494998364E+03  0.00000000000E+00 0.  1.
         23    2    1    2    0    0 -0.28008295539E+03  0.14037651124E+03  0.65710543274E+02  0.33197227626E+03  0.87952770862E+02 0.  0.
        254    2    1    2    0    0  0.28008295539E+03 -0.14037651124E+03  0.27089748933E+04  0.28726131276E+04  0.90288935173E+03 0.  0.
         23    2    4    4    0    0  0.51192083549E+03 -0.80084780266E+02  0.24595423840E+04  0.25151618004E+04  0.90629076902E+02 0.  0.
         23    2    4    4    0    0 -0.23183788010E+03 -0.60291730972E+02  0.24943250929E+03  0.35745132720E+03  0.90393468513E+02 0.  0.
         11    1    3    3    0    0 -0.19930149341E+03  0.59698429870E+02  0.20062201216E+02  0.20901550115E+03  0.00000000000E+00 0. -1.
        -11    1    3    3    0    0 -0.80781461980E+02  0.80678081367E+02  0.45648342058E+02  0.12295677511E+03  0.00000000000E+00 0.  1.
          1    1    5    5  502    0  0.27735162466E+03 -0.86207200773E+02  0.14340630877E+04  0.14631789175E+04  0.00000000000E+00 0. -1.
          1    1    6    6  503    0 -0.99773738624E+02 -0.27920249227E+02  0.17249922467E+03  0.20122207073E+03  0.00000000000E+00 0. -1.
         -1    1    5    5    0  502  0.23456921084E+03  0.61224205075E+01  0.10254792963E+04  0.10519828829E+04  0.00000000000E+00 0.  1.
         -1    1    6    6    0  503 -0.13206414148E+03 -0.32371481745E+02  0.76933284622E+02  0.15622925647E+03  0.00000000000E+00 0.  1.
<mgrwt>
<rscale>  0 0.16032743E+04</rscale>
<asrwt>0</asrwt>
<pdfrwt beam="1">  1        2 0.45994388E+00 0.16032743E+04</pdfrwt>
<pdfrwt beam="2">  1       -2 0.33069230E-01 0.16032743E+04</pdfrwt>
<totfact> 0.14548192E+01</totfact>
</mgrwt>
</event>
<event>
12    1  0.4967442E-008  0.1285349E+04  0.7818608E-02  0.9041265E-01
          2   -1    0    0  501    0  0.00000000000E+00  0.00000000000E+00  0.57948662077E+03  0.57948662077E+03  0.00000000000E+00 0. -1.
         -2   -1    0    0    0  501 -0.00000000000E+00 -0.00000000000E+00 -0.71275198584E+03  0.71275198584E+03  0.00000000000E+00 0.  1.
         23    2    1    2    0    0  0.56101626749E+02  0.23304093603E+03 -0.24971908767E+03  0.35859703162E+03  0.93684245987E+02 0.  0.
        254    2    1    2    0    0 -0.56101626749E+02 -0.23304093603E+03  0.11645372260E+03  0.93364157500E+03  0.89480145880E+03 0.  0.
         23    2    4    4    0    0 -0.21676601981E+03 -0.52656186412E+03  0.87941120366E+02  0.58340671261E+03  0.91514193274E+02 0.  0.
         23    2    4    4    0    0  0.16066439306E+03  0.29352092809E+03  0.28512602237E+02  0.35023486239E+03  0.99417845104E+02 0.  0.
         11    1    3    3    0    0  0.65462159682E+02  0.78913569589E+02 -0.10968273801E+03  0.15014309452E+03  0.00000000000E+00 0. -1.
        -11    1    3    3    0    0 -0.93605329325E+01  0.15412736644E+03 -0.14003634966E+03  0.20845393710E+03  0.00000000000E+00 0.  1.
          4    1    5    5  502    0 -0.22194404154E+03 -0.51805000783E+03  0.94527426160E+02  0.57146338683E+03  0.00000000000E+00 0. -1.
          1    1    6    6  503    0  0.42246718904E+02  0.10990022924E+03 -0.34760284220E+02  0.12276450222E+03  0.00000000000E+00 0. -1.
         -4    1    5    5    0  502  0.51780217320E+01 -0.85118562867E+01 -0.65863057943E+01  0.11943325773E+02  0.00000000000E+00 0.  1.
         -1    1    6    6    0  503  0.11841767416E+03  0.18362069885E+03  0.63272886457E+02  0.22747036018E+03  0.00000000000E+00 0.  1.
<mgrwt>
<rscale>  0 0.12853486E+04</rscale>
<asrwt>0</asrwt>
<pdfrwt beam="1">  1        2 0.89151788E-01 0.12853486E+04</pdfrwt>
<pdfrwt beam="2">  1       -2 0.10965415E+00 0.12853486E+04</pdfrwt>
<totfact> 0.33598934E+01</totfact>
</mgrwt>
</event>
<event>
12    1  0.4967442E-008  0.1695997E+04  0.7818608E-02  0.8763651E-01
         -2   -1    0    0    0  501 -0.00000000000E+00  0.00000000000E+00  0.25355780089E+03  0.25355780089E+03  0.00000000000E+00 0.  1.
          2   -1    0    0  501    0  0.00000000000E+00 -0.00000000000E+00 -0.28360457726E+04  0.28360457726E+04  0.00000000000E+00 0. -1.
         23    2    1    2    0    0  0.78729107613E+02 -0.34152503363E+03 -0.33563052075E+02  0.36447486169E+03  0.94222212672E+02 0.  0.
        254    2    1    2    0    0 -0.78729107613E+02  0.34152503363E+03 -0.25489249196E+04  0.27251287118E+04  0.89803709774E+03 0.  0.
         23    2    4    4    0    0 -0.12142290411E+03  0.60412372069E+03 -0.21359983745E+04  0.22249289277E+04  0.90059348828E+02 0.  0.
         23    2    4    4    0    0  0.42693796498E+02 -0.26259868706E+03 -0.41292654516E+03  0.50019978403E+03  0.94396300445E+02 0.  0.
         13    1    3    3    0    0  0.28644754306E+02 -0.20864422112E+03 -0.62232086824E+02  0.21960365568E+03  0.00000000000E+00 0. -1.
        -13    1    3    3    0    0  0.50084353308E+02 -0.13288081250E+03  0.28669034749E+02  0.14487120601E+03  0.00000000000E+00 0.  1.
          4    1    5    5  502    0 -0.10450722857E+03  0.54502133500E+03 -0.18092211808E+04  0.18924194296E+04  0.00000000000E+00 0. -1.
          1    1    6    6  503    0  0.60752777420E+02 -0.19312321404E+03 -0.35189643309E+03  0.40597854055E+03  0.00000000000E+00 0. -1.
         -4    1    5    5    0  502 -0.16915675541E+02  0.59102385688E+02 -0.32677719364E+03  0.33250949814E+03  0.00000000000E+00 0.  1.
         -1    1    6    6    0  503 -0.18058980922E+02 -0.69475473016E+02 -0.61030112070E+02  0.94221243475E+02  0.00000000000E+00 0.  1.
<mgrwt>
<rscale>  0 0.16959971E+04</rscale>
<asrwt>0</asrwt>
<pdfrwt beam="1">  1        2 0.43631472E+00 0.16959971E+04</pdfrwt>
<pdfrwt beam="2">  1       -2 0.39008893E-01 0.16959971E+04</pdfrwt>
<totfact> 0.13047633E+01</totfact>
</mgrwt>
</event>
<event>
12    1  0.4967442E-008  0.2686254E+04  0.7818608E-02  0.8339479E-01
          2   -1    0    0  501    0  0.00000000000E+00  0.00000000000E+00  0.17229263877E+04  0.17229263877E+04  0.00000000000E+00 0. -1.
         -2   -1    0    0    0  501 -0.00000000000E+00 -0.00000000000E+00 -0.10470499486E+04  0.10470499486E+04  0.00000000000E+00 0.  1.
         23    2    1    2    0    0  0.12902653428E+03  0.28822798442E+03  0.14933945636E+04  0.15291277477E+04  0.91000707219E+02 0.  0.
        254    2    1    2    0    0 -0.12902653428E+03 -0.28822798442E+03 -0.81751812451E+03  0.12408485887E+04  0.87843390106E+03 0.  0.
         23    2    4    4    0    0 -0.75871856624E+02  0.20390543872E+03  0.45252363293E+02  0.24087387938E+03  0.92943438793E+02 0.  0.
         23    2    4    4    0    0 -0.53154677653E+02 -0.49213342314E+03 -0.86277048780E+03  0.99997470928E+03  0.10274131914E+03 0.  0.
         13    1    3    3    0    0  0.42761047320E+02  0.16844282322E+03  0.64576414149E+03  0.66873972389E+03  0.00000000000E+00 0. -1.
        -13    1    3    3    0    0  0.86265486957E+02  0.11978516120E+03  0.84763042209E+03  0.86038802382E+03  0.00000000000E+00 0.  1.
          1    1    5    5  502    0 -0.32847606403E+02  0.87712657822E+02 -0.26959076099E+02  0.97464185077E+02  0.00000000000E+00 0. -1.
          3    1    6    6  503    0 -0.56702153087E+02 -0.46852785185E+03 -0.76117021617E+03  0.89560793884E+03  0.00000000000E+00 0. -1.
         -1    1    5    5    0  502 -0.43024250222E+02  0.11619278090E+03  0.72211439392E+02  0.14340969430E+03  0.00000000000E+00 0.  1.
         -3    1    6    6    0  503  0.35474754336E+01 -0.23605571288E+02 -0.10160027163E+03  0.10436677045E+03  0.00000000000E+00 0.  1.
<mgrwt>
<rscale>  0 0.26862539E+04</rscale>
<asrwt>0</asrwt>
<pdfrwt beam="1">  1        2 0.26506560E+00 0.26862539E+04</pdfrwt>
<pdfrwt beam="2">  1       -2 0.16108461E+00 0.26862539E+04</pdfrwt>
<totfact> 0.20686422E+00</totfact>
</mgrwt>
</event>
<event>
12    1  0.4967442E-008  0.3368926E+04  0.7818608E-02  0.8145575E-01
          2   -1    0    0  501    0  0.00000000000E+00  0.00000000000E+00  0.19037486772E+04  0.19037486772E+04  0.00000000000E+00 0. -1.
         -2   -1    0    0    0  501 -0.00000000000E+00 -0.00000000000E+00 -0.14904357631E+04  0.14904357631E+04  0.00000000000E+00 0.  1.
         23    2    1    2    0    0 -0.38348849115E+03 -0.38662045578E+02 -0.13338589315E+04  0.13914334017E+04  0.91373331444E+02 0.  0.
        254    2    1    2    0    0  0.38348849115E+03  0.38662045578E+02  0.17471718457E+04  0.20027510385E+04  0.89991337777E+03 0.  0.
         23    2    4    4    0    0 -0.73416495980E+02  0.75686064520E+02  0.14335459669E+04  0.14404384329E+04  0.93222729895E+02 0.  0.
         23    2    4    4    0    0  0.45690498713E+03 -0.37024018942E+02  0.31362587874E+03  0.56231260568E+03  0.87757218755E+02 0.  0.
         13    1    3    3    0    0 -0.31946118768E+03 -0.42318794796E+02 -0.97458569052E+03  0.10264811732E+04  0.00000000000E+00 0. -1.
        -13    1    3    3    0    0 -0.64027303467E+02  0.36567492188E+01 -0.35927324099E+03  0.36495222851E+03  0.00000000000E+00 0.  1.
          2    1    6    6  502    0  0.41527769272E+03 -0.58447173764E+02  0.27369453306E+03  0.50077972365E+03  0.00000000000E+00 0. -1.
          2    1    5    5  503    0 -0.28758131270E+02  0.84059919640E+02  0.11329223274E+04  0.11364005017E+04  0.00000000000E+00 0. -1.
         -2    1    5    5    0  503 -0.44658364711E+02 -0.83738551206E+01  0.30062363949E+03  0.30403793120E+03  0.00000000000E+00 0.  1.
         -2    1    6    6    0  502  0.41627294403E+02  0.21423154822E+02  0.39931345687E+02  0.61532882024E+02  0.00000000000E+00 0.  1.
<mgrwt>
<rscale>  0 0.33689257E+04</rscale>
<asrwt>0</asrwt>
<pdfrwt beam="1">  1        2 0.29288441E+00 0.33689257E+04</pdfrwt>
<pdfrwt beam="2">  1       -2 0.22929781E+00 0.33689257E+04</pdfrwt>
<totfact> 0.54213568E-01</totfact>
</mgrwt>
</event>
<event>
12    1  0.4967442E-008  0.3206324E+04  0.7818608E-02  0.8187149E-01
         -2   -1    0    0    0  501 -0.00000000000E+00  0.00000000000E+00  0.81278267642E+03  0.81278267642E+03  0.00000000000E+00 0.  1.
          2   -1    0    0  501    0  0.00000000000E+00 -0.00000000000E+00 -0.31621340469E+04  0.31621340469E+04  0.00000000000E+00 0. -1.
         23    2    1    2    0    0  0.12890943649E+04  0.53082404794E+03 -0.16492805491E+04  0.21614582680E+04  0.90758267424E+02 0.  0.
        254    2    1    2    0    0 -0.12890943649E+04 -0.53082404794E+03 -0.70007082138E+03  0.18134584554E+04  0.92465883600E+03 0.  0.
         23    2    4    4    0    0  0.15601302602E+02 -0.18434823165E+03  0.11211569708E+03  0.23558287240E+03  0.93282844504E+02 0.  0.
         23    2    4    4    0    0 -0.13046956675E+04 -0.34647581628E+03 -0.81218651846E+03  0.15778755830E+04  0.88137044316E+02 0.  0.
         11    1    3    3    0    0  0.11947440896E+04  0.46867361312E+03 -0.15337876031E+04  0.19998931988E+04  0.00000000000E+00 0. -1.
        -11    1    3    3    0    0  0.94350275287E+02  0.62150434814E+02 -0.11549294598E+03  0.16156506914E+03  0.00000000000E+00 0.  1.
          4    1    5    5  502    0 -0.28101601544E+02 -0.92575760214E+02  0.20833795113E+02  0.98964733149E+02  0.00000000000E+00 0. -1.
          1    1    6    6  503    0 -0.82013981194E+02 -0.17655284853E+02 -0.76469146693E+02  0.11351445983E+03  0.00000000000E+00 0. -1.
         -4    1    5    5    0  502  0.43702904146E+02 -0.91772471441E+02  0.91281901968E+02  0.13661813925E+03  0.00000000000E+00 0.  1.
         -1    1    6    6    0  503 -0.12226816863E+04 -0.32882053143E+03 -0.73571737177E+03  0.14643611231E+04  0.00000000000E+00 0.  1.
<mgrwt>
<rscale>  0 0.32063236E+04</rscale>
<asrwt>0</asrwt>
<pdfrwt beam="1">  1        2 0.48648217E+00 0.32063236E+04</pdfrwt>
<pdfrwt beam="2">  1       -2 0.12504349E+00 0.32063236E+04</pdfrwt>
<totfact> 0.55285142E-01</totfact>
</mgrwt>
</event>
<event>
12    1  0.4967442E-008  0.2526295E+04  0.7818608E-02  0.8393677E-01
         -2   -1    0    0    0  501 -0.00000000000E+00  0.00000000000E+00  0.74560105264E+03  0.74560105264E+03  0.00000000000E+00 0.  1.
          2   -1    0    0  501    0  0.00000000000E+00 -0.00000000000E+00 -0.21399397537E+04  0.21399397537E+04  0.00000000000E+00 0. -1.
         23    2    1    2    0    0 -0.94769834961E+03 -0.36443829017E+03 -0.13334284174E+03  0.10278748080E+04  0.88311257516E+02 0.  0.
        254    2    1    2    0    0  0.94769834961E+03  0.36443829017E+03 -0.12609958593E+04  0.18576659984E+04  0.91096925038E+03 0.  0.
         23    2    4    4    0    0  0.13752009261E+03 -0.12474571603E+03 -0.75107628939E+03  0.77877059791E+03  0.88852586598E+02 0.  0.
         23    2    4    4    0    0  0.81017825700E+03  0.48918400620E+03 -0.50991956992E+03  0.10788954005E+04  0.91145583152E+02 0.  0.
         11    1    3    3    0    0 -0.78780103009E+03 -0.33701458071E+03 -0.11729391171E+03  0.86485094227E+03  0.00000000000E+00 0.  1.
        -11    1    3    3    0    0 -0.15989731952E+03 -0.27423709465E+02 -0.16048930029E+02  0.16302386569E+03  0.00000000000E+00 0. -1.
          3    1    5    5  502    0  0.10010708402E+03 -0.69271125656E+02 -0.61735000580E+03  0.62923838629E+03  0.00000000000E+00 0. -1.
          3    1    6    6  503    0  0.33188203170E+03  0.16662052888E+03 -0.16161301572E+03  0.40500228452E+03  0.00000000000E+00 0. -1.
         -3    1    5    5    0  502  0.37413008593E+02 -0.55474590371E+02 -0.13372628359E+03  0.14953221162E+03  0.00000000000E+00 0.  1.
         -3    1    6    6    0  503  0.47829622530E+03  0.32256347731E+03 -0.34830655419E+03  0.67389311595E+03  0.00000000000E+00 0.  1.
<mgrwt>
<rscale>  0 0.25262948E+04</rscale>
<asrwt>0</asrwt>
<pdfrwt beam="1">  1        2 0.32922150E+00 0.25262948E+04</pdfrwt>
<pdfrwt beam="2">  1       -2 0.11470786E+00 0.25262948E+04</pdfrwt>
<totfact> 0.29466912E+00</totfact>
</mgrwt>
</event>
<event>
12    1  0.4967442E-008  0.2039516E+04  0.7818608E-02  0.8588365E-01
          2   -1    0    0  501    0  0.00000000000E+00  0.00000000000E+00  0.12351070493E+04  0.12351070493E+04  0.00000000000E+00 0. -1.
         -2   -1    0    0    0  501 -0.00000000000E+00 -0.00000000000E+00 -0.84195612464E+03  0.84195612464E+03  0.00000000000E+00 0.  1.
         23    2    1    2    0    0 -0.65338463304E+02 -0.76362132601E+03 -0.13828358654E+03  0.78413646665E+03  0.91438524234E+02 0.  0.
        254    2    1    2    0    0  0.65338463304E+02  0.76362132601E+03  0.53143451120E+03  0.12929267073E+04  0.89546087933E+03 0.  0.
         23    2    4    4    0    0  0.38127098200E+03  0.74056565308E+03  0.45974834406E+03  0.95580964887E+03  0.91643312698E+02 0.  0.
         23    2    4    4    0    0 -0.31593251869E+03  0.23055672924E+02  0.71686167141E+02  0.33711705843E+03  0.90355321376E+02 0.  0.
         11    1    3    3    0    0 -0.48814305795E+02 -0.46297408505E+03 -0.12818724235E+03  0.48286624337E+03  0.00000000000E+00 0.  1.
        -11    1    3    3    0    0 -0.16524157509E+02 -0.30064724095E+03 -0.10096344183E+02  0.30127022329E+03  0.00000000000E+00 0. -1.
          2    1    5    5  502    0  0.31768037239E+03  0.64848802881E+03  0.36470030158E+03  0.80898940196E+03  0.00000000000E+00 0. -1.
          1    1    6    6  503    0 -0.18057147236E+03  0.13369410295E+01  0.84611898177E+02  0.19941669276E+03  0.00000000000E+00 0. -1.
         -2    1    5    5    0  502  0.63590609608E+02  0.92077624267E+02  0.95048042484E+02  0.14682024690E+03  0.00000000000E+00 0.  1.
         -1    1    6    6    0  503 -0.13536104634E+03  0.21718731895E+02 -0.12925731036E+02  0.13770036566E+03  0.00000000000E+00 0.  1.
<mgrwt>
<rscale>  0 0.20395156E+04</rscale>
<asrwt>0</asrwt>
<pdfrwt beam="1">  1        2 0.19001647E+00 0.20395156E+04</pdfrwt>
<pdfrwt beam="2">  1       -2 0.12953171E+00 0.20395156E+04</pdfrwt>
<totfact> 0.73277100E+00</totfact>
</mgrwt>
</event>
<event>
12    1  0.4967442E-008  0.2427267E+04  0.7818608E-02  0.8429365E-01
         -1   -1    0    0    0  501 -0.00000000000E+00  0.00000000000E+00  0.11427921159E+04  0.11427921159E+04  0.00000000000E+00 0.  1.
          1   -1    0    0  501    0  0.00000000000E+00 -0.00000000000E+00 -0.12888668161E+04  0.12888668161E+04  0.00000000000E+00 0. -1.
         23    2    1    2    0    0 -0.47004987012E+03 -0.44327823828E+03 -0.88453015337E+03  0.10992633542E+04  0.92432963858E+02 0.  0.
        254    2    1    2    0    0  0.47004987012E+03  0.44327823828E+03  0.73845545313E+03  0.13323955777E+04  0.90139838162E+03 0.  0.
         23    2    4    4    0    0  0.69248798890E+03  0.14415361890E+03  0.57929156162E+03  0.91855068705E+03  0.88525536959E+02 0.  0.
         23    2    4    4    0    0 -0.22243811878E+03  0.29912461938E+03  0.15916389151E+03  0.41384489069E+03  0.83547558827E+02 0.  0.
         11    1    3    3    0    0 -0.25631228650E+03 -0.19764441798E+03 -0.49701912212E+03  0.59311660904E+03  0.00000000000E+00 0. -1.
        -11    1    3    3    0    0 -0.21373758363E+03 -0.24563382030E+03 -0.38751103125E+03  0.50614674519E+03  0.00000000000E+00 0.  1.
          2    1    5    5  502    0  0.55461413973E+03  0.11378040966E+03  0.50673386625E+03  0.75981710748E+03  0.00000000000E+00 0.  1.
          4    1    6    6  503    0 -0.95064761920E+02  0.70905124555E+02  0.69907629754E+02  0.13766598107E+03  0.00000000000E+00 0. -1.
         -2    1    5    5    0  502  0.13787384918E+03  0.30373209244E+02  0.72557695370E+02  0.15873357957E+03  0.00000000000E+00 0. -1.
         -4    1    6    6    0  503 -0.12737335686E+03  0.22821949482E+03  0.89256261754E+02  0.27617890961E+03  0.00000000000E+00 0.  1.
<mgrwt>
<rscale>  0 0.24272675E+04</rscale>
<asrwt>0</asrwt>
<pdfrwt beam="1">  1        1 0.19828720E+00 0.24272675E+04</pdfrwt>
<pdfrwt beam="2">  1       -1 0.17581417E+00 0.24272675E+04</pdfrwt>
<totfact> 0.18379496E+00</totfact>
</mgrwt>
</event>
<event>
12    1  0.4967442E-008  0.1212250E+04  0.7818608E-02  0.9102201E-01
          2   -1    0    0  501    0  0.00000000000E+00  0.00000000000E+00  0.86487577123E+03  0.86487577123E+03  0.00000000000E+00 0. -1.
         -2   -1    0    0    0  501 -0.00000000000E+00 -0.00000000000E+00 -0.42478628465E+03  0.42478628465E+03  0.00000000000E+00 0.  1.
         23    2    1    2    0    0  0.36280465114E+02 -0.14541347910E+03 -0.10735026364E+03  0.20602114833E+03  0.91974357306E+02 0.  0.
        254    2    1    2    0    0 -0.36280465114E+02  0.14541347910E+03  0.54743975021E+03  0.10836409075E+04  0.92310670258E+03 0.  0.
         23    2    4    4    0    0  0.28047411543E+03 -0.26050630425E+03  0.34605809403E+03  0.52392516319E+03  0.90620683076E+02 0.  0.
         23    2    4    4    0    0 -0.31675458054E+03  0.40591978335E+03  0.20138165619E+03  0.55971574436E+03  0.87308694995E+02 0.  0.
         11    1    3    3    0    0 -0.13556185965E+02 -0.10758596987E+03 -0.44122427208E+02  0.11706963600E+03  0.00000000000E+00 0.  1.
        -11    1    3    3    0    0  0.49836651078E+02 -0.37827509229E+02 -0.63227836429E+02  0.88951512323E+02  0.00000000000E+00 0. -1.
          2    1    5    5  502    0  0.11031982894E+03 -0.46628429000E+02  0.96183474763E+02  0.15360968676E+03  0.00000000000E+00 0.  1.
          3    1    6    6  503    0 -0.20529961781E+03  0.32533923090E+03  0.14853637865E+03  0.41237919930E+03  0.00000000000E+00 0. -1.
         -2    1    5    5    0  502  0.17015428649E+03 -0.21387787525E+03  0.24987461927E+03  0.37031547644E+03  0.00000000000E+00 0. -1.
         -3    1    6    6    0  503 -0.11145496273E+03  0.80580552457E+02  0.52845277540E+02  0.14733654506E+03  0.00000000000E+00 0.  1.
<mgrwt>
<rscale>  0 0.12122498E+04</rscale>
<asrwt>0</asrwt>
<pdfrwt beam="1">  1        2 0.13305781E+00 0.12122498E+04</pdfrwt>
<pdfrwt beam="2">  1       -2 0.65351736E-01 0.12122498E+04</pdfrwt>
<totfact> 0.65960289E+01</totfact>
</mgrwt>
</event>
<event>
12    1  0.4967442E-008  0.1754698E+04  0.7818608E-02  0.8730768E-01
          1   -1    0    0  501    0  0.00000000000E+00  0.00000000000E+00  0.22608783566E+04  0.22608783566E+04  0.00000000000E+00 0. -1.
         -1   -1    0    0    0  501 -0.00000000000E+00 -0.00000000000E+00 -0.34046122567E+03  0.34046122567E+03  0.00000000000E+00 0.  1.
         23    2    1    2    0    0  0.19558876184E+03 -0.29222093035E+03 -0.87521515213E+02  0.37406174396E+03  0.92812374059E+02 0.  0.
        254    2    1    2    0    0 -0.19558876184E+03  0.29222093035E+03  0.20079386461E+04  0.22272778383E+04  0.89738560631E+03 0.  0.
         23    2    4    4    0    0  0.49657475278E+02 -0.29276466070E+03  0.49744680742E+03  0.58651507817E+03  0.91485514214E+02 0.  0.
         23    2    4    4    0    0 -0.24524623712E+03  0.58498559105E+03  0.15104918387E+04  0.16407627601E+04  0.90349220271E+02 0.  0.
         11    1    3    3    0    0  0.76294327626E+01 -0.66053595042E+02  0.24286955087E+01  0.66537089087E+02  0.00000000000E+00 0. -1.
        -11    1    3    3    0    0  0.18795932908E+03 -0.22616733531E+03 -0.89950210722E+02  0.30752465488E+03  0.00000000000E+00 0.  1.
          2    1    5    5  502    0 -0.10808891362E+02 -0.76742784774E+01  0.47544606566E+01  0.14083024489E+02  0.00000000000E+00 0. -1.
          4    1    6    6  503    0 -0.18401971711E+03  0.45231965648E+03  0.10577744324E+04  0.11650506761E+04  0.00000000000E+00 0.  1.
         -2    1    5    5    0  502  0.60466366640E+02 -0.28509038222E+03  0.49269234676E+03  0.57243205368E+03  0.00000000000E+00 0.  1.
         -4    1    6    6    0  503 -0.61226520012E+02  0.13266593456E+03  0.45271740628E+03  0.47571208404E+03  0.00000000000E+00 0. -1.
<mgrwt>
<rscale>  0 0.17546982E+04</rscale>
<asrwt>0</asrwt>
<pdfrwt beam="1">  1        1 0.34782743E+00 0.17546982E+04</pdfrwt>
<pdfrwt beam="2">  1       -1 0.52378652E-01 0.17546982E+04</pdfrwt>
<totfact> 0.68898813E+00</totfact>
</mgrwt>
</event>
<event>
12    1  0.4967442E-008  0.2756705E+04  0.7818608E-02  0.8316837E-01
         -2   -1    0    0    0  501 -0.00000000000E+00  0.00000000000E+00  0.75546861754E+03  0.75546861754E+03  0.00000000000E+00 0.  1.
          2   -1    0    0  501    0  0.00000000000E+00 -0.00000000000E+00 -0.25148040946E+04  0.25148040946E+04  0.00000000000E+00 0. -1.
         23    2    1    2    0    0 -0.48837192013E+03  0.41895342124E+03  0.45394740867E+03  0.79266005710E+03  0.90623477807E+02 0.  0.
        254    2    1    2    0    0  0.48837192013E+03 -0.41895342124E+03 -0.22132828857E+04  0.24776126550E+04  0.90879823645E+03 0.  0.
         23    2    4    4    0    0  0.13303716240E+03  0.18550144413E+03 -0.12980223235E+04  0.13210012034E+04  0.89847397106E+02 0.  0.
         23    2    4    4    0    0  0.35533475773E+03 -0.60445486537E+03 -0.91526056228E+03  0.11566114517E+04  0.91758808481E+02 0.  0.
         11    1    3    3    0    0 -0.92319060943E+02  0.96328594549E+02  0.54197414115E+02  0.14401168994E+03  0.00000000000E+00 0. -1.
        -11    1    3    3    0    0 -0.39605285919E+03  0.32262482669E+03  0.39974999456E+03  0.64864836716E+03  0.00000000000E+00 0.  1.
          4    1    5    5  502    0  0.27895309996E+02 -0.43187287340E+01 -0.13784915602E+03  0.14070959296E+03  0.00000000000E+00 0. -1.
          1    1    6    6  503    0  0.33305557470E+02 -0.34837996961E+02 -0.33994465018E+02  0.58979401850E+02  0.00000000000E+00 0. -1.
         -4    1    5    5    0  502  0.10514185241E+03  0.18982017287E+03 -0.11601731674E+04  0.11802916104E+04  0.00000000000E+00 0.  1.
         -1    1    6    6    0  503  0.32202920026E+03 -0.56961686841E+03 -0.88126609726E+03  0.10976320498E+04  0.00000000000E+00 0.  1.
<mgrwt>
<rscale>  0 0.27567050E+04</rscale>
<asrwt>0</asrwt>
<pdfrwt beam="1">  1        2 0.38689294E+00 0.27567050E+04</pdfrwt>
<pdfrwt beam="2">  1       -2 0.11622594E+00 0.27567050E+04</pdfrwt>
<totfact> 0.17119082E+00</totfact>
</mgrwt>
</event>
<event>
12    1  0.4967442E-008  0.1589339E+04  0.7818608E-02  0.8827124E-01
          1   -1    0    0  501    0  0.00000000000E+00  0.00000000000E+00  0.11638667341E+04  0.11638667341E+04  0.00000000000E+00 0. -1.
         -1   -1    0    0    0  501 -0.00000000000E+00 -0.00000000000E+00 -0.54258744854E+03  0.54258744854E+03  0.00000000000E+00 0.  1.
         23    2    1    2    0    0 -0.35458803536E+03  0.21719673450E+03  0.57256524239E+03  0.71319826707E+03  0.88959063877E+02 0.  0.
        254    2    1    2    0    0  0.35458803536E+03 -0.21719673450E+03  0.48714043197E+02  0.99325591561E+03  0.90070925364E+03 0.  0.
         23    2    4    4    0    0  0.37569537846E+03 -0.52992596868E+03 -0.25059231125E+02  0.65603166984E+03  0.88210186988E+02 0.  0.
         23    2    4    4    0    0 -0.21107343099E+02  0.31272923418E+03  0.73773274322E+02  0.33722424577E+03  0.10016287778E+03 0.  0.
         13    1    3    3    0    0 -0.98448141522E+02  0.58952610208E+02  0.96581210227E+02  0.14998458917E+03  0.00000000000E+00 0.  1.
        -13    1    3    3    0    0 -0.25613989384E+03  0.15824412429E+03  0.47598403217E+03  0.56321367790E+03  0.00000000000E+00 0. -1.
          4    1    5    5  502    0  0.22476118375E+03 -0.26386238036E+03  0.18216743139E+02  0.34709191178E+03  0.00000000000E+00 0.  1.
          1    1    6    6  503    0  0.13615087253E+00  0.29875890882E+03  0.50979329580E+02  0.30307721158E+03  0.00000000000E+00 0. -1.
         -4    1    5    5    0  502  0.15093419471E+03 -0.26606358832E+03 -0.43275974264E+02  0.30893975806E+03  0.00000000000E+00 0. -1.
         -1    1    6    6    0  503 -0.21243493972E+02  0.13970325363E+02  0.22793944742E+02  0.34147034187E+02  0.00000000000E+00 0.  1.
<mgrwt>
<rscale>  0 0.15893388E+04</rscale>
<asrwt>0</asrwt>
<pdfrwt beam="1">  1        1 0.17905642E+00 0.15893388E+04</pdfrwt>
<pdfrwt beam="2">  1       -1 0.83474992E-01 0.15893388E+04</pdfrwt>
<totfact> 0.15536156E+01</totfact>
</mgrwt>
</event>
<event>
12    1  0.4967442E-008  0.1465493E+04  0.7818608E-02  0.8907729E-01
          1   -1    0    0  501    0  0.00000000000E+00  0.00000000000E+00  0.74650159464E+03  0.74650159464E+03  0.00000000000E+00 0. -1.
         -1   -1    0    0    0  501 -0.00000000000E+00 -0.00000000000E+00 -0.71924496568E+03  0.71924496568E+03  0.00000000000E+00 0.  1.
         23    2    1    2    0    0 -0.32083744939E+03 -0.23353068896E+03  0.24888047792E+03  0.47713619836E+03  0.90797620397E+02 0.  0.
        254    2    1    2    0    0  0.32083744939E+03  0.23353068896E+03 -0.22162384897E+03  0.98861036196E+03  0.87792941956E+03 0.  0.
         23    2    4    4    0    0  0.26683128674E+03  0.39675038260E+03  0.19845235572E+03  0.52566819887E+03  0.91290284992E+02 0.  0.
         23    2    4    4    0    0  0.54006162647E+02 -0.16321969364E+03 -0.42007620469E+03  0.46294216309E+03  0.91071920055E+02 0.  0.
         11    1    3    3    0    0 -0.16050150726E+03 -0.11653900666E+03  0.71190283764E+02  0.21073711208E+03  0.00000000000E+00 0. -1.
        -11    1    3    3    0    0 -0.16033594213E+03 -0.11699168231E+03  0.17769019416E+03  0.26639908628E+03  0.00000000000E+00 0.  1.
          2    1    5    5  502    0  0.17037628548E+03  0.28860658941E+03  0.17751675091E+03  0.37925458331E+03  0.00000000000E+00 0.  1.
          3    1    6    6  503    0 -0.96148064034E+01  0.75967011194E+01 -0.24845768685E+02  0.27703187391E+02  0.00000000000E+00 0. -1.
         -2    1    5    5    0  502  0.96455001261E+02  0.10814379319E+03  0.20935604814E+02  0.14641361557E+03  0.00000000000E+00 0. -1.
         -3    1    6    6    0  503  0.63620969050E+02 -0.17081639476E+03 -0.39523043601E+03  0.43523897570E+03  0.00000000000E+00 0.  1.
<mgrwt>
<rscale>  0 0.14654931E+04</rscale>
<asrwt>0</asrwt>
<pdfrwt beam="1">  1        1 0.11484640E+00 0.14654931E+04</pdfrwt>
<pdfrwt beam="2">  1       -1 0.11065307E+00 0.14654931E+04</pdfrwt>
<totfact> 0.18017335E+01</totfact>
</mgrwt>
</event>
<event>
12    1  0.4967442E-008  0.1935967E+04  0.7818608E-02  0.8637157E-01
          1   -1    0    0  501    0  0.00000000000E+00  0.00000000000E+00  0.12563113944E+04  0.12563113944E+04  0.00000000000E+00 0. -1.
         -1   -1    0    0    0  501 -0.00000000000E+00 -0.00000000000E+00 -0.74582817494E+03  0.74582817494E+03  0.00000000000E+00 0.  1.
         23    2    1    2    0    0 -0.37836216980E+03 -0.46347370056E+03  0.60955459862E+03  0.85903715353E+03  0.91772652753E+02 0.  0.
        254    2    1    2    0    0  0.37836216980E+03  0.46347370056E+03 -0.99071379138E+02  0.11431024158E+04  0.96896965498E+03 0.  0.
         23    2    4    4    0    0  0.47597322956E+03 -0.22685672607E+02  0.23436483170E+03  0.53880078475E+03  0.91182543889E+02 0.  0.
         23    2    4    4    0    0 -0.97611059768E+02  0.48615937317E+03 -0.33343621084E+03  0.60430163108E+03  0.90121581858E+02 0.  0.
         13    1    3    3    0    0 -0.23063351508E+03 -0.34343381399E+03  0.39124842362E+03  0.56939786780E+03  0.00000000000E+00 0. -1.
        -13    1    3    3    0    0 -0.14772865472E+03 -0.12003988657E+03  0.21830617500E+03  0.28963928572E+03  0.00000000000E+00 0.  1.
          4    1    5    5  502    0  0.37999140779E+03 -0.33960563894E+02  0.14805196741E+03  0.40922631263E+03  0.00000000000E+00 0. -1.
          1    1    6    6  503    0 -0.11089018326E+03  0.39083602915E+03 -0.28720407608E+03  0.49752951244E+03  0.00000000000E+00 0. -1.
         -4    1    5    5    0  502  0.95981821777E+02  0.11274891287E+02  0.86312864288E+02  0.12957447213E+03  0.00000000000E+00 0.  1.
         -1    1    6    6    0  503  0.13279123491E+02  0.95323344014E+02 -0.46232134754E+02  0.10677211864E+03  0.00000000000E+00 0.  1.
<mgrwt>
<rscale>  0 0.19359674E+04</rscale>
<asrwt>0</asrwt>
<pdfrwt beam="1">  1        1 0.19327868E+00 0.19359674E+04</pdfrwt>
<pdfrwt beam="2">  1       -1 0.11474280E+00 0.19359674E+04</pdfrwt>
<totfact> 0.62598742E+00</totfact>
</mgrwt>
</event>
<event>
12    1  0.4967442E-008  0.1332285E+04  0.7818608E-02  0.9004347E-01
          3   -1    0    0  501    0  0.00000000000E+00  0.00000000000E+00  0.43735120621E+03  0.43735120621E+03  0.00000000000E+00 0. -1.
         -3   -1    0    0    0  501 -0.00000000000E+00 -0.00000000000E+00 -0.10146215985E+04  0.10146215985E+04  0.00000000000E+00 0.  1.
         23    2    1    2    0    0  0.99389358059E+02 -0.31860934387E+03 -0.19762157231E+02  0.34444361387E+03  0.82829353388E+02 0.  0.
        254    2    1    2    0    0 -0.99389358059E+02  0.31860934387E+03 -0.55750823508E+03  0.11075291909E+04  0.89689203247E+03 0.  0.
         23    2    4    4    0    0 -0.43020446587E+03 -0.12000014215E+02 -0.42776750728E+03  0.61356395724E+03  0.90861468960E+02 0.  0.
         23    2    4    4    0    0  0.33081510781E+03  0.33060935808E+03 -0.12974072780E+03  0.49396523361E+03  0.91803117386E+02 0.  0.
         11    1    3    3    0    0  0.76630979573E+02 -0.30793529894E+03 -0.10021848994E+02  0.31748526394E+03  0.00000000000E+00 0. -1.
        -11    1    3    3    0    0  0.22758378486E+02 -0.10674044932E+02 -0.97403082370E+01  0.26958349932E+02  0.00000000000E+00 0.  1.
          1    1    5    5  502    0 -0.29107073485E+03 -0.25491536598E+02 -0.34091382505E+03  0.44899245788E+03  0.00000000000E+00 0. -1.
          3    1    6    6  503    0  0.27101523349E+03  0.28820975594E+03 -0.75461398623E+02  0.40275121711E+03  0.00000000000E+00 0. -1.
         -1    1    5    5    0  502 -0.13913373102E+03  0.13491522382E+02 -0.86853682235E+02  0.16457149936E+03  0.00000000000E+00 0.  1.
         -3    1    6    6    0  503  0.59799874318E+02  0.42399602142E+02 -0.54279329176E+02  0.91214016500E+02  0.00000000000E+00 0.  1.
<mgrwt>
<rscale>  0 0.13322852E+04</rscale>
<asrwt>0</asrwt>
<pdfrwt beam="1">  1        3 0.67284802E-01 0.13322852E+04</pdfrwt>
<pdfrwt beam="2">  1       -3 0.15609563E+00 0.13322852E+04</pdfrwt>
<totfact> 0.15837625E+00</totfact>
</mgrwt>
</event>
<event>
12    1  0.4967442E-008  0.1560727E+04  0.7818608E-02  0.8845045E-01
          1   -1    0    0  501    0  0.00000000000E+00  0.00000000000E+00  0.24645243874E+04  0.24645243874E+04  0.00000000000E+00 0. -1.
         -1   -1    0    0    0  501 -0.00000000000E+00 -0.00000000000E+00 -0.24709304489E+03  0.24709304489E+03  0.00000000000E+00 0.  1.
         23    2    1    2    0    0 -0.18085293995E+03 -0.43181726214E+02 -0.80910459783E+02  0.22112440047E+03  0.88187587624E+02 0.  0.
        254    2    1    2    0    0  0.18085293995E+03  0.43181726214E+02  0.22983418023E+04  0.24904930318E+04  0.94106750771E+03 0.  0.
         23    2    4    4    0    0  0.44538775872E+03  0.50308112034E+02  0.20950463238E+04  0.21444337697E+04  0.92064824807E+02 0.  0.
         23    2    4    4    0    0 -0.26453481877E+03 -0.71263858204E+01  0.20329547848E+03  0.34605926212E+03  0.91643361005E+02 0.  0.
         11    1    3    3    0    0 -0.11255644391E+03 -0.31755497992E+02 -0.94742352223E+02  0.15051072395E+03  0.00000000000E+00 0.  1.
        -11    1    3    3    0    0 -0.68296496041E+02 -0.11426228221E+02  0.13831892440E+02  0.70613676517E+02  0.00000000000E+00 0. -1.
          2    1    5    5  502    0  0.10228274792E+03 -0.21607030837E+02  0.58129385431E+03  0.59061931002E+03  0.00000000000E+00 0. -1.
          3    1    6    6  503    0 -0.51218229818E+02  0.24491220583E+02  0.78588587357E+02  0.96949951079E+02  0.00000000000E+00 0. -1.
         -2    1    5    5    0  502  0.34310501080E+03  0.71915142871E+02  0.15137524695E+04  0.15538144597E+04  0.00000000000E+00 0.  1.
         -3    1    6    6    0  503 -0.21331658895E+03 -0.31617606404E+02  0.12470689112E+03  0.24910931105E+03  0.00000000000E+00 0.  1.
<mgrwt>
<rscale>  0 0.15607265E+04</rscale>
<asrwt>0</asrwt>
<pdfrwt beam="1">  1        1 0.37915758E+00 0.15607265E+04</pdfrwt>
<pdfrwt beam="2">  1       -1 0.38014316E-01 0.15607265E+04</pdfrwt>
<totfact> 0.92437756E+00</totfact>
</mgrwt>
</event>
<event>
12    1  0.4967442E-008  0.3527846E+04  0.7818608E-02  0.8107222E-01
          2   -1    0    0  501    0  0.00000000000E+00  0.00000000000E+00  0.28435949458E+04  0.28435949458E+04  0.00000000000E+00 0. -1.
         -2   -1    0    0    0  501 -0.00000000000E+00 -0.00000000000E+00 -0.10941870681E+04  0.10941870681E+04  0.00000000000E+00 0.  1.
         23    2    1    2    0    0 -0.85180290098E+03 -0.86335981376E+03 -0.41741160418E+03  0.12863034274E+04  0.96879873907E+02 0.  0.
        254    2    1    2    0    0  0.85180290098E+03  0.86335981376E+03  0.21668194819E+04  0.26514785865E+04  0.92966320637E+03 0.  0.
         23    2    4    4    0    0  0.15611942049E+03  0.53001486808E+03  0.15850495770E+04  0.16810709612E+04  0.91259966234E+02 0.  0.
         23    2    4    4    0    0  0.69568348048E+03  0.33334494568E+03  0.58176990493E+03  0.97040762524E+03  0.90224048961E+02 0.  0.
         13    1    3    3    0    0 -0.25799492344E+03 -0.21903423465E+03 -0.14999781540E+03  0.37018471213E+03  0.00000000000E+00 0.  1.
        -13    1    3    3    0    0 -0.59380797754E+03 -0.64432557911E+03 -0.26741378878E+03  0.91611871530E+03  0.00000000000E+00 0. -1.
          2    1    5    5  502    0  0.13803258784E+03  0.47713328901E+03  0.14922340272E+04  0.15727274280E+04  0.00000000000E+00 0. -1.
          1    1    6    6  503    0  0.57953976404E+03  0.31291130531E+03  0.49983909224E+03  0.82681251879E+03  0.00000000000E+00 0. -1.
         -2    1    5    5    0  502  0.18086832652E+02  0.52881579069E+02  0.92815549756E+02  0.10834353325E+03  0.00000000000E+00 0.  1.
         -1    1    6    6    0  503  0.11614371645E+03  0.20433640368E+02  0.81930812693E+02  0.14359510645E+03  0.00000000000E+00 0.  1.
<mgrwt>
<rscale>  0 0.35278463E+04</rscale>
<asrwt>0</asrwt>
<pdfrwt beam="1">  1        2 0.43747614E+00 0.35278463E+04</pdfrwt>
<pdfrwt beam="2">  1       -2 0.16833647E+00 0.35278463E+04</pdfrwt>
<totfact> 0.39050579E-01</totfact>
</mgrwt>
</event>
<event>
12    1  0.4967442E-008  0.1531473E+04  0.7818608E-02  0.8863789E-01
         -2   -1    0    0    0  501 -0.00000000000E+00  0.00000000000E+00  0.70290472628E+03  0.70290472628E+03  0.00000000000E+00 0.  1.
          2   -1    0    0  501    0  0.00000000000E+00 -0.00000000000E+00 -0.83418527158E+03  0.83418527158E+03  0.00000000000E+00 0. -1.
         23    2    1    2    0    0  0.30814529394E+03  0.58695928121E+01  0.34992557511E+03  0.47519569233E+03  0.91515373555E+02 0.  0.
        254    2    1    2    0    0 -0.30814529394E+03 -0.58695928121E+01 -0.48120612041E+03  0.10618943055E+04  0.89502637475E+03 0.  0.
         23    2    4    4    0    0 -0.11945522877E+03 -0.39830210923E+03 -0.28191169397E+02  0.42682020612E+03  0.92014262054E+02 0.  0.
         23    2    4    4    0    0 -0.18869006517E+03  0.39243251642E+03 -0.45301495102E+03  0.63507409941E+03  0.92137642983E+02 0.  0.
         13    1    3    3    0    0  0.29556052052E+03  0.25278274191E+01  0.35435385992E+03  0.46144237912E+03  0.00000000000E+00 0.  1.
        -13    1    3    3    0    0  0.12584773421E+02  0.33417653929E+01 -0.44282848144E+01  0.13753313215E+02  0.00000000000E+00 0. -1.
          1    1    6    6  502    0 -0.81281717748E+01  0.10512650082E+03 -0.97534161467E+02  0.14363342579E+03  0.00000000000E+00 0. -1.
          1    1    5    5  503    0 -0.10279988187E+03 -0.24934534778E+03 -0.53090989365E+02  0.27488101303E+03  0.00000000000E+00 0. -1.
         -1    1    5    5    0  503 -0.16655346901E+02 -0.14895676146E+03  0.24899819968E+02  0.15193919310E+03  0.00000000000E+00 0.  1.
         -1    1    6    6    0  502 -0.18056189339E+03  0.28730601560E+03 -0.35548078955E+03  0.49144067362E+03  0.00000000000E+00 0.  1.
<mgrwt>
<rscale>  0 0.15314735E+04</rscale>
<asrwt>0</asrwt>
<pdfrwt beam="1">  1        2 0.12833620E+00 0.15314735E+04</pdfrwt>
<pdfrwt beam="2">  1       -2 0.10813919E+00 0.15314735E+04</pdfrwt>
<totfact> 0.21493339E+01</totfact>
</mgrwt>
</event>
<event>
12    1  0.4967442E-008  0.2150525E+04  0.7818608E-02  0.8539308E-01
          2   -1    0    0  501    0  0.00000000000E+00  0.00000000000E+00  0.29276236188E+04  0.29276236188E+04  0.00000000000E+00 0. -1.
         -2   -1    0    0    0  501 -0.00000000000E+00 -0.00000000000E+00 -0.39492415524E+03  0.39492415524E+03  0.00000000000E+00 0.  1.
         23    2    1    2    0    0  0.46340696538E+03 -0.73467479446E+03  0.12891764652E+04  0.15585395226E+04  0.11214462015E+03 0.  0.
        254    2    1    2    0    0 -0.46340696538E+03  0.73467479446E+03  0.12435229984E+04  0.17640082515E+04  0.90049019686E+03 0.  0.
         23    2    4    4    0    0 -0.29985127144E+03  0.18054035600E+03  0.11054737466E+04  0.11629745369E+04  0.89061573897E+02 0.  0.
         23    2    4    4    0    0 -0.16355569394E+03  0.55413443846E+03  0.13804925184E+03  0.60103371463E+03  0.91479447287E+02 0.  0.
         13    1    3    3    0    0  0.34198214491E+02 -0.91827226150E+02  0.20289250601E+03  0.22531561493E+03  0.00000000000E+00 0. -1.
        -13    1    3    3    0    0  0.42920875089E+03 -0.64284756831E+03  0.10862839592E+04  0.13332239076E+04  0.00000000000E+00 0.  1.
          2    1    5    5  502    0 -0.21318316411E+03  0.79364191889E+02  0.72521849133E+03  0.76005762714E+03  0.00000000000E+00 0. -1.
          3    1    6    6  503    0 -0.51139626344E+02  0.33286118643E+03  0.80849944373E+02  0.34633588367E+03  0.00000000000E+00 0. -1.
         -2    1    5    5    0  502 -0.86668107331E+02  0.10117616411E+03  0.38025525525E+03  0.40291690975E+03  0.00000000000E+00 0.  1.
         -3    1    6    6    0  503 -0.11241606760E+03  0.22127325203E+03  0.57199307468E+02  0.25469783096E+03  0.00000000000E+00 0.  1.
<mgrwt>
<rscale>  0 0.21505249E+04</rscale>
<asrwt>0</asrwt>
<pdfrwt beam="1">  1        2 0.45040362E+00 0.21505249E+04</pdfrwt>
<pdfrwt beam="2">  1       -2 0.60757564E-01 0.21505249E+04</pdfrwt>
<totfact> 0.44765245E+00</totfact>
</mgrwt>
</event>
<event>
12    1  0.4967442E-008  0.3128886E+04  0.7818608E-02  0.8207855E-01
         -1   -1    0    0    0  501 -0.00000000000E+00  0.00000000000E+00  0.11242064433E+04  0.11242064433E+04  0.00000000000E+00 0.  1.
          1   -1    0    0  501    0  0.00000000000E+00 -0.00000000000E+00 -0.21770756573E+04  0.21770756573E+04  0.00000000000E+00 0. -1.
         23    2    1    2    0    0 -0.11177504097E+04  0.30574382526E+03 -0.13744465908E+04  0.18000871255E+04  0.91460174905E+02 0.  0.
        254    2    1    2    0    0  0.11177504097E+04 -0.30574382526E+03  0.32157737674E+03  0.15011949750E+04  0.89851492956E+03 0.  0.
         23    2    4    4    0    0  0.11555832039E+04 -0.64001061809E+02  0.40300917123E+03  0.12289148452E+04  0.91359880334E+02 0.  0.
         23    2    4    4    0    0 -0.37832794171E+02 -0.24174276345E+03 -0.81431794483E+02  0.27228012977E+03  0.87375327848E+02 0.  0.
         11    1    3    3    0    0 -0.87505168322E+03  0.27297517362E+03 -0.10555855289E+04  0.13980313668E+04  0.00000000000E+00 0. -1.
        -11    1    3    3    0    0 -0.24269872649E+03  0.32768651639E+02 -0.31886106186E+03  0.40205575874E+03  0.00000000000E+00 0.  1.
          4    1    5    5  502    0  0.68753299491E+03 -0.67706280110E+02  0.27576054023E+03  0.74386130092E+03  0.00000000000E+00 0. -1.
          1    1    6    6  503    0 -0.45479404376E+02 -0.91953048538E+02 -0.64890890920E+02  0.12138602507E+03  0.00000000000E+00 0. -1.
         -4    1    5    5    0  502  0.46805020898E+03  0.37052183013E+01  0.12724863100E+03  0.48505354432E+03  0.00000000000E+00 0.  1.
         -1    1    6    6    0  503  0.76466102043E+01 -0.14978971491E+03 -0.16540903563E+02  0.15089410470E+03  0.00000000000E+00 0.  1.
<mgrwt>
<rscale>  0 0.31288864E+04</rscale>
<asrwt>0</asrwt>
<pdfrwt beam="1">  1        1 0.33493471E+00 0.31288864E+04</pdfrwt>
<pdfrwt beam="2">  1       -1 0.17295484E+00 0.31288864E+04</pdfrwt>
<totfact> 0.44497487E-01</totfact>
</mgrwt>
</event>
<event>
12    1  0.4967442E-008  0.1722268E+04  0.7818608E-02  0.8748765E-01
          1   -1    0    0  501    0  0.00000000000E+00  0.00000000000E+00  0.12707103831E+04  0.12707103831E+04  0.00000000000E+00 0. -1.
         -1   -1    0    0    0  501 -0.00000000000E+00 -0.00000000000E+00 -0.58357239195E+03  0.58357239195E+03  0.00000000000E+00 0.  1.
         23    2    1    2    0    0 -0.43971508247E+03  0.45178692742E+03  0.13369387325E+03  0.65107965930E+03  0.92573697514E+02 0.  0.
        254    2    1    2    0    0  0.43971508247E+03 -0.45178692742E+03  0.55344411788E+03  0.12032031157E+04  0.86251757346E+03 0.  0.
         23    2    4    4    0    0  0.60024261528E+03 -0.77728667220E+02  0.48346382708E+03  0.78014744172E+03  0.92519272691E+02 0.  0.
         23    2    4    4    0    0 -0.16052753281E+03 -0.37405826020E+03  0.69980290803E+02  0.42305567401E+03  0.91597987926E+02 0.  0.
         13    1    3    3    0    0 -0.60282865245E+02  0.91483356942E+02 -0.52965096672E+01  0.10968719822E+03  0.00000000000E+00 0. -1.
        -13    1    3    3    0    0 -0.37943221723E+03  0.36030357048E+03  0.13899038292E+03  0.54139246108E+03  0.00000000000E+00 0.  1.
          2    1    5    5  502    0  0.28431219002E+03  0.50935929798E+01  0.25063597011E+03  0.37904848713E+03  0.00000000000E+00 0. -1.
          1    1    6    6  503    0 -0.12677350081E+03 -0.35670682568E+03  0.70630943204E+02  0.38509740344E+03  0.00000000000E+00 0. -1.
         -2    1    5    5    0  502  0.31593042527E+03 -0.82822260200E+02  0.23282785697E+03  0.40109895459E+03  0.00000000000E+00 0.  1.
         -1    1    6    6    0  503 -0.33754031997E+02 -0.17351434519E+02 -0.65065240072E+00  0.37958270567E+02  0.00000000000E+00 0.  1.
<mgrwt>
<rscale>  0 0.17222677E+04</rscale>
<asrwt>0</asrwt>
<pdfrwt beam="1">  1        1 0.19549390E+00 0.17222677E+04</pdfrwt>
<pdfrwt beam="2">  1       -1 0.89780368E-01 0.17222677E+04</pdfrwt>
<totfact> 0.10953012E+01</totfact>
</mgrwt>
</event>
<event>
12    1  0.4967442E-008  0.1278145E+04  0.7818608E-02  0.9047078E-01
          2   -1    0    0  501    0  0.00000000000E+00  0.00000000000E+00  0.39958339887E+03  0.39958339887E+03  0.00000000000E+00 0. -1.
         -2   -1    0    0    0  501 -0.00000000000E+00 -0.00000000000E+00 -0.10220983898E+04  0.10220983898E+04  0.00000000000E+00 0.  1.
         23    2    1    2    0    0 -0.11239476967E+02  0.17218833861E+03  0.12412831884E+03  0.23122890308E+03  0.91015472782E+02 0.  0.
        254    2    1    2    0    0  0.11239476967E+02 -0.17218833861E+03 -0.74664330980E+03  0.11904528856E+04  0.91100312349E+03 0.  0.
         23    2    4    4    0    0 -0.62531402384E+02 -0.53353781571E+03 -0.41558078277E+03  0.68573640352E+03  0.94626904365E+02 0.  0.
         23    2    4    4    0    0  0.73770879351E+02  0.36134947709E+03 -0.33106252703E+03  0.50471648210E+03  0.95502582510E+02 0.  0.
         11    1    3    3    0    0  0.72941095129E+01  0.17563804249E+03  0.11651737107E+03  0.21089861015E+03  0.00000000000E+00 0. -1.
        -11    1    3    3    0    0 -0.18533586480E+02 -0.34497038762E+01  0.76109477650E+01  0.20330292927E+02  0.00000000000E+00 0.  1.
          2    1    5    5  502    0  0.16835178040E+02 -0.10108908166E+03 -0.10975333776E+03  0.15016064998E+03  0.00000000000E+00 0.  1.
          3    1    6    6  503    0  0.52905772849E+02  0.64822885801E+02 -0.75596777406E+02  0.11276479982E+03  0.00000000000E+00 0. -1.
         -2    1    5    5    0  502 -0.79366580424E+02 -0.43244873404E+03 -0.30582744501E+03  0.53557575354E+03  0.00000000000E+00 0. -1.
         -3    1    6    6    0  503  0.20865106502E+02  0.29652659129E+03 -0.25546574962E+03  0.39195168228E+03  0.00000000000E+00 0.  1.
<mgrwt>
<rscale>  0 0.12781448E+04</rscale>
<asrwt>0</asrwt>
<pdfrwt beam="1">  1        2 0.61474369E-01 0.12781448E+04</pdfrwt>
<pdfrwt beam="2">  1       -2 0.15724590E+00 0.12781448E+04</pdfrwt>
<totfact> 0.20613406E+01</totfact>
</mgrwt>
</event>
<event>
12    1  0.4967442E-008  0.2518935E+04  0.7818608E-02  0.8396271E-01
          1   -1    0    0  501    0  0.00000000000E+00  0.00000000000E+00  0.17930697413E+04  0.17930697413E+04  0.00000000000E+00 0. -1.
         -1   -1    0    0    0  501 -0.00000000000E+00 -0.00000000000E+00 -0.88466050350E+03  0.88466050350E+03  0.00000000000E+00 0.  1.
         23    2    1    2    0    0  0.39622295908E+03 -0.77366372547E+03 -0.31279570883E+03  0.92820381282E+03  0.90404475855E+02 0.  0.
        254    2    1    2    0    0 -0.39622295908E+03  0.77366372547E+03  0.12212049466E+04  0.17495264320E+04  0.90219344993E+03 0.  0.
         23    2    4    4    0    0 -0.57471761759E+03  0.17700996621E+03  0.73712531444E+03  0.95552265059E+03  0.89648973744E+02 0.  0.
         23    2    4    4    0    0  0.17849465851E+03  0.59665375927E+03  0.48407963216E+03  0.79400378136E+03  0.90845269457E+02 0.  0.
         13    1    3    3    0    0  0.30508185869E+03 -0.61123277630E+03 -0.20609382710E+03  0.71355105837E+03  0.00000000000E+00 0.  1.
        -13    1    3    3    0    0  0.91141100385E+02 -0.16243094917E+03 -0.10670188173E+03  0.21465275445E+03  0.00000000000E+00 0. -1.
          2    1    5    5  502    0 -0.25297493340E+03  0.35595665182E+02  0.28226224164E+03  0.38070374488E+03  0.00000000000E+00 0. -1.
          1    1    6    6  503    0  0.18716327582E+03  0.58748890064E+03  0.47161333820E+03  0.77626827899E+03  0.00000000000E+00 0. -1.
         -2    1    5    5    0  502 -0.32174268419E+03  0.14141430103E+03  0.45486307281E+03  0.57481890571E+03  0.00000000000E+00 0.  1.
         -1    1    6    6    0  503 -0.86686173007E+01  0.91648586231E+01  0.12466293954E+02  0.17735502373E+02  0.00000000000E+00 0.  1.
<mgrwt>
<rscale>  0 0.25189347E+04</rscale>
<asrwt>0</asrwt>
<pdfrwt beam="1">  1        1 0.27585688E+00 0.25189347E+04</pdfrwt>
<pdfrwt beam="2">  1       -1 0.13610162E+00 0.25189347E+04</pdfrwt>
<totfact> 0.16477632E+00</totfact>
</mgrwt>
</event>
<event>
12    1  0.4967442E-008  0.1417342E+04  0.7818608E-02  0.8941360E-01
          2   -1    0    0  501    0  0.00000000000E+00  0.00000000000E+00  0.13991016459E+04  0.13991016459E+04  0.00000000000E+00 0. -1.
         -2   -1    0    0    0  501 -0.00000000000E+00 -0.00000000000E+00 -0.35895499151E+03  0.35895499151E+03  0.00000000000E+00 0.  1.
         23    2    1    2    0    0 -0.21441537468E+03 -0.34780248263E+03  0.20970076010E+03  0.46848155602E+03  0.92520482745E+02 0.  0.
        254    2    1    2    0    0  0.21441537468E+03  0.34780248263E+03  0.83044589435E+03  0.12895750814E+04  0.89801057198E+03 0.  0.
         23    2    4    4    0    0 -0.39717099137E+02  0.54255274967E+03  0.77362323627E+03  0.94985470729E+03  0.88261651469E+02 0.  0.
         23    2    4    4    0    0  0.25413247382E+03 -0.19475026704E+03  0.56822658071E+02  0.33972037414E+03  0.98336856665E+02 0.  0.
         13    1    3    3    0    0 -0.30898713223E+01  0.47200629322E+01  0.10095540595E+02  0.11564870894E+02  0.00000000000E+00 0. -1.
        -13    1    3    3    0    0 -0.21132550336E+03 -0.35252254556E+03  0.19960521950E+03  0.45691668513E+03  0.00000000000E+00 0.  1.
          2    1    5    5  502    0 -0.15146742927E+01  0.11867008258E+03  0.23601045492E+03  0.26417005426E+03  0.00000000000E+00 0. -1.
          1    1    6    6  503    0  0.64683902188E+02 -0.89886384037E+01 -0.10105736493E+02  0.66082741564E+02  0.00000000000E+00 0. -1.
         -2    1    5    5    0  502 -0.38202424844E+02  0.42388266709E+03  0.53761278136E+03  0.68568465303E+03  0.00000000000E+00 0.  1.
         -1    1    6    6    0  503  0.18944857163E+03 -0.18576162863E+03  0.66928394564E+02  0.27363763258E+03  0.00000000000E+00 0.  1.
<mgrwt>
<rscale>  0 0.14173419E+04</rscale>
<asrwt>0</asrwt>
<pdfrwt beam="1">  1        2 0.21524640E+00 0.14173419E+04</pdfrwt>
<pdfrwt beam="2">  1       -2 0.55223846E-01 0.14173419E+04</pdfrwt>
<totfact> 0.43409293E+01</totfact>
</mgrwt>
</event>
<event>
12    1  0.4967442E-008  0.2982480E+04  0.7818608E-02  0.8248752E-01
          1   -1    0    0  501    0  0.00000000000E+00  0.00000000000E+00  0.16224319882E+04  0.16224319882E+04  0.00000000000E+00 0. -1.
         -1   -1    0    0    0  501 -0.00000000000E+00 -0.00000000000E+00 -0.13706559812E+04  0.13706559812E+04  0.00000000000E+00 0.  1.
         23    2    1    2    0    0 -0.83985978016E+03 -0.50530270244E+03 -0.82067291254E+03  0.12816898453E+04  0.92355610158E+02 0.  0.
        254    2    1    2    0    0  0.83985978016E+03  0.50530270244E+03  0.10724489196E+04  0.17113981241E+04  0.90445651238E+03 0.  0.
         23    2    4    4    0    0  0.46331900347E+03  0.73611935360E+03  0.60956462711E+03  0.10655828445E+04  0.85799546117E+02 0.  0.
         23    2    4    4    0    0  0.37654077669E+03 -0.23081665117E+03  0.46288429245E+03  0.64581527964E+03  0.88069428613E+02 0.  0.
         11    1    3    3    0    0 -0.11714879983E+03 -0.35845826664E+02 -0.11036976912E+03  0.16489466494E+03  0.00000000000E+00 0. -1.
        -11    1    3    3    0    0 -0.72271098033E+03 -0.46945687577E+03 -0.71030314342E+03  0.11167951803E+04  0.00000000000E+00 0.  1.
          3    1    6    6  502    0  0.14710799122E+03 -0.84911475902E+02  0.24116894014E+03  0.29497996120E+03  0.00000000000E+00 0. -1.
          3    1    5    5  503    0  0.41985325753E+03  0.65691280201E+03  0.51256643426E+03  0.93302493902E+03  0.00000000000E+00 0. -1.
         -3    1    5    5    0  503  0.43465745940E+02  0.79206551591E+02  0.96998192849E+02  0.13255790546E+03  0.00000000000E+00 0.  1.
         -3    1    6    6    0  502  0.22943278547E+03 -0.14590517527E+03  0.22171535231E+03  0.35083531845E+03  0.00000000000E+00 0.  1.
<mgrwt>
<rscale>  0 0.29824796E+04</rscale>
<asrwt>0</asrwt>
<pdfrwt beam="1">  1        1 0.24960492E+00 0.29824796E+04</pdfrwt>
<pdfrwt beam="2">  1       -1 0.21087015E+00 0.29824796E+04</pdfrwt>
<totfact> 0.58219312E-01</totfact>
</mgrwt>
</event>
<event>
12    1  0.4967442E-008  0.2424665E+04  0.7818608E-02  0.8430327E-01
         -1   -1    0    0    0  501 -0.00000000000E+00  0.00000000000E+00  0.12964930170E+04  0.12964930170E+04  0.00000000000E+00 0.  1.
          1   -1    0    0  501    0  0.00000000000E+00 -0.00000000000E+00 -0.11336347625E+04  0.11336347625E+04  0.00000000000E+00 0. -1.
         23    2    1    2    0    0  0.92721437374E+02  0.64725337014E+03  0.88087293904E+03  0.11013913634E+04  0.97936768288E+02 0.  0.
        254    2    1    2    0    0 -0.92721437374E+02 -0.64725337014E+03 -0.71801468452E+03  0.13287364160E+04  0.90689645822E+03 0.  0.
         23    2    4    4    0    0  0.64327197477E+02 -0.10402044775E+03  0.19652220166E+03  0.24931086111E+03  0.92610408914E+02 0.  0.
         23    2    4    4    0    0 -0.15704863485E+03 -0.54323292240E+03 -0.91453688618E+03  0.10794255549E+04  0.94950148498E+02 0.  0.
         11    1    3    3    0    0  0.24023267936E+02  0.35356752064E+02  0.35611860376E+02  0.55636516050E+02  0.00000000000E+00 0. -1.
        -11    1    3    3    0    0  0.68698169438E+02  0.61189661808E+03  0.84526107867E+03  0.10457548474E+04  0.00000000000E+00 0.  1.
          3    1    5    5  502    0  0.12728351311E+02 -0.98745063507E+02  0.10943609373E+03  0.14794883273E+03  0.00000000000E+00 0. -1.
          3    1    6    6  503    0 -0.39827115008E+02 -0.49431562908E+02 -0.13578292774E+03  0.14988889874E+03  0.00000000000E+00 0. -1.
         -3    1    5    5    0  502  0.51598846166E+02 -0.52753842394E+01  0.87086107923E+02  0.10136202838E+03  0.00000000000E+00 0.  1.
         -3    1    6    6    0  503 -0.11722151984E+03 -0.49380135949E+03 -0.77875395844E+03  0.92953665616E+03  0.00000000000E+00 0.  1.
<mgrwt>
<rscale>  0 0.24246646E+04</rscale>
<asrwt>0</asrwt>
<pdfrwt beam="1">  1        1 0.17440535E+00 0.24246646E+04</pdfrwt>
<pdfrwt beam="2">  1       -1 0.19946046E+00 0.24246646E+04</pdfrwt>
<totfact> 0.16239347E+00</totfact>
</mgrwt>
</event>
<event>
12    1  0.4967442E-008  0.1428174E+04  0.7818608E-02  0.8933673E-01
          1   -1    0    0  501    0  0.00000000000E+00  0.00000000000E+00  0.96701591124E+03  0.96701591124E+03  0.00000000000E+00 0. -1.
         -1   -1    0    0    0  501 -0.00000000000E+00 -0.00000000000E+00 -0.52731355483E+03  0.52731355483E+03  0.00000000000E+00 0.  1.
         23    2    1    2    0    0  0.28789504215E+03 -0.19379093613E+03  0.38555098069E+03  0.52650011332E+03  0.90079567038E+02 0.  0.
        254    2    1    2    0    0 -0.28789504215E+03  0.19379093613E+03  0.54151375714E+02  0.96782935274E+03  0.90184411198E+03 0.  0.
         23    2    4    4    0    0  0.19527063691E+03  0.16005243001E+03 -0.26874068538E+03  0.37915341593E+03  0.88251656309E+02 0.  0.
         23    2    4    4    0    0 -0.48316567906E+03  0.33738506126E+02  0.32289206109E+03  0.58867593681E+03  0.87708125337E+02 0.  0.
         11    1    3    3    0    0  0.11358585372E+03 -0.39543153869E+02  0.17689038273E+03  0.21390562098E+03  0.00000000000E+00 0. -1.
        -11    1    3    3    0    0  0.17430918843E+03 -0.15424778226E+03  0.20866059796E+03  0.31259449234E+03  0.00000000000E+00 0.  1.
          4    1    5    5  502    0  0.31594955245E+02  0.12294385439E+02 -0.87112221767E+02  0.93476907798E+02  0.00000000000E+00 0.  1.
          3    1    6    6  503    0 -0.40973861403E+03  0.15563748331E+02  0.23456855532E+03  0.47238794357E+03  0.00000000000E+00 0. -1.
         -4    1    5    5    0  502  0.16367568167E+03  0.14775804457E+03 -0.18162846361E+03  0.28567650813E+03  0.00000000000E+00 0. -1.
         -3    1    6    6    0  503 -0.73427065029E+02  0.18174757795E+02  0.88323505771E+02  0.11628799324E+03  0.00000000000E+00 0.  1.
<mgrwt>
<rscale>  0 0.14281745E+04</rscale>
<asrwt>0</asrwt>
<pdfrwt beam="1">  1        1 0.14877168E+00 0.14281745E+04</pdfrwt>
<pdfrwt beam="2">  1       -1 0.81125162E-01 0.14281745E+04</pdfrwt>
<totfact> 0.23669879E+01</totfact>
</mgrwt>
</event>
<event>
12    1  0.4967442E-008  0.2346915E+04  0.7818608E-02  0.8459650E-01
         -2   -1    0    0    0  501 -0.00000000000E+00  0.00000000000E+00  0.43688171421E+03  0.43688171421E+03  0.00000000000E+00 0.  1.
          2   -1    0    0  501    0  0.00000000000E+00 -0.00000000000E+00 -0.31518886021E+04  0.31518886021E+04  0.00000000000E+00 0. -1.
         23    2    1    2    0    0 -0.87874679004E+03 -0.85810597665E+01 -0.18776592285E+04  0.20751347485E+04  0.91161889647E+02 0.  0.
        254    2    1    2    0    0  0.87874679004E+03  0.85810597665E+01 -0.83734765929E+03  0.15136355678E+04  0.90425216285E+03 0.  0.
         23    2    4    4    0    0  0.99089330059E+03  0.12410200093E+03 -0.86483065143E+03  0.13241826996E+04  0.90867631801E+02 0.  0.
         23    2    4    4    0    0 -0.11214651055E+03 -0.11552094116E+03  0.27482992134E+02  0.18945286820E+03  0.95995555814E+02 0.  0.
         11    1    3    3    0    0 -0.50364571082E+03 -0.58878921472E+01 -0.11806154599E+04  0.12835678921E+04  0.00000000000E+00 0. -1.
        -11    1    3    3    0    0 -0.37510107921E+03 -0.26931676192E+01 -0.69704376863E+03  0.79156685641E+03  0.00000000000E+00 0.  1.
          4    1    6    6  502    0 -0.33425950691E+02  0.40257394685E+01  0.31714760089E+02  0.46252856834E+02  0.00000000000E+00 0. -1.
          4    1    5    5  503    0  0.54146583051E+02 -0.11313103202E+02 -0.35207376145E+02  0.65569795601E+02  0.00000000000E+00 0. -1.
         -4    1    5    5    0  503  0.93674671754E+03  0.13541510413E+03 -0.82962327528E+03  0.12586129040E+04  0.00000000000E+00 0.  1.
         -4    1    6    6    0  502 -0.78720559861E+02 -0.11954668063E+03 -0.42317679544E+01  0.14320001136E+03  0.00000000000E+00 0.  1.
<mgrwt>
<rscale>  0 0.23469150E+04</rscale>
<asrwt>0</asrwt>
<pdfrwt beam="1">  1        2 0.48490595E+00 0.23469150E+04</pdfrwt>
<pdfrwt beam="2">  1       -2 0.67212570E-01 0.23469150E+04</pdfrwt>
<totfact> 0.25586881E+00</totfact>
</mgrwt>
</event>
<event>
12    1  0.4967442E-008  0.1707529E+04  0.7818608E-02  0.8757082E-01
          1   -1    0    0  501    0  0.00000000000E+00  0.00000000000E+00  0.54264965512E+03  0.54264965512E+03  0.00000000000E+00 0. -1.
         -1   -1    0    0    0  501 -0.00000000000E+00 -0.00000000000E+00 -0.13432489737E+04  0.13432489737E+04  0.00000000000E+00 0.  1.
         23    2    1    2    0    0 -0.36233456499E+03  0.76318358809E+02  0.25460995321E+03  0.45801991945E+03  0.88573074133E+02 0.  0.
        254    2    1    2    0    0  0.36233456499E+03 -0.76318358809E+02 -0.10552092718E+04  0.14278787093E+04  0.88784017284E+03 0.  0.
         23    2    4    4    0    0  0.35671806782E+03  0.19383549144E+03 -0.10637181225E+04  0.11425047338E+04  0.94872782690E+02 0.  0.
         23    2    4    4    0    0  0.56164971716E+01 -0.27015385025E+03  0.85088507468E+01  0.28537397557E+03  0.91385215144E+02 0.  0.
         11    1    3    3    0    0 -0.53186369148E+02  0.26189622047E+02  0.88960121408E+01  0.59948521234E+02  0.00000000000E+00 0.  1.
        -11    1    3    3    0    0 -0.30914819584E+03  0.50128736761E+02  0.24571394107E+03  0.39807139822E+03  0.00000000000E+00 0. -1.
          4    1    5    5  502    0  0.20926576606E+03  0.71030791431E+02 -0.48955508543E+03  0.53712355734E+03  0.00000000000E+00 0. -1.
          3    1    6    6  503    0  0.44675793375E+02 -0.12542602129E+03  0.21647612731E+02  0.13489341150E+03  0.00000000000E+00 0. -1.
         -4    1    5    5    0  502  0.14745230176E+03  0.12280470001E+03 -0.57416303707E+03  0.60538117643E+03  0.00000000000E+00 0.  1.
         -3    1    6    6    0  503 -0.39059296204E+02 -0.14472782896E+03 -0.13138761984E+02  0.15048056407E+03  0.00000000000E+00 0.  1.
<mgrwt>
<rscale>  0 0.17075287E+04</rscale>
<asrwt>0</asrwt>
<pdfrwt beam="1">  1        1 0.83484563E-01 0.17075287E+04</pdfrwt>
<pdfrwt beam="2">  1       -1 0.20665369E+00 0.17075287E+04</pdfrwt>
<totfact> 0.50929930E+00</totfact>
</mgrwt>
</event>
<event>
12    1  0.4967442E-008  0.2045113E+04  0.7818608E-02  0.8585814E-01
         -2   -1    0    0    0  501 -0.00000000000E+00  0.00000000000E+00  0.13031348463E+04  0.13031348463E+04  0.00000000000E+00 0.  1.
          2   -1    0    0  501    0  0.00000000000E+00 -0.00000000000E+00 -0.80238971569E+03  0.80238971569E+03  0.00000000000E+00 0. -1.
         23    2    1    2    0    0  0.94697147312E+02 -0.52467950748E+03 -0.44238731765E+03  0.69857884717E+03  0.89720296577E+02 0.  0.
        254    2    1    2    0    0 -0.94697147312E+02  0.52467950748E+03  0.94313244825E+03  0.14069457148E+04  0.89763093428E+03 0.  0.
         23    2    4    4    0    0 -0.39708490530E+03  0.56853365056E+03  0.78498581927E+03  0.10513331138E+04  0.90507711669E+02 0.  0.
         23    2    4    4    0    0  0.30238775799E+03 -0.43854143080E+02  0.15814662899E+03  0.35561260101E+03  0.89935664160E+02 0.  0.
         13    1    3    3    0    0  0.16356043252E+02 -0.27839041564E+03 -0.19079334959E+03  0.33789176657E+03  0.00000000000E+00 0. -1.
        -13    1    3    3    0    0  0.78341104060E+02 -0.24628909185E+03 -0.25159396807E+03  0.36068708061E+03  0.00000000000E+00 0.  1.
          1    1    6    6  502    0  0.79786711070E+02  0.56707793041E+01  0.34746865002E+01  0.80063415163E+02  0.00000000000E+00 0. -1.
          1    1    5    5  503    0 -0.20658086364E+03  0.36513180089E+03  0.50096025005E+03  0.65342027622E+03  0.00000000000E+00 0. -1.
         -1    1    5    5    0  503 -0.19050404166E+03  0.20340184968E+03  0.28402556922E+03  0.39791283758E+03  0.00000000000E+00 0.  1.
         -1    1    6    6    0  502  0.22260104692E+03 -0.49524922384E+02  0.15467194249E+03  0.27554918584E+03  0.00000000000E+00 0.  1.
<mgrwt>
<rscale>  0 0.20451132E+04</rscale>
<asrwt>0</asrwt>
<pdfrwt beam="1">  1        2 0.12344457E+00 0.20451132E+04</pdfrwt>
<pdfrwt beam="2">  1       -2 0.20048228E+00 0.20451132E+04</pdfrwt>
<totfact> 0.41911733E+00</totfact>
</mgrwt>
</event>
<event>
12    1  0.4967442E-008  0.1878706E+04  0.7818608E-02  0.8665529E-01
          1   -1    0    0  501    0  0.00000000000E+00  0.00000000000E+00  0.24366307267E+04  0.24366307267E+04  0.00000000000E+00 0. -1.
         -1   -1    0    0    0  501 -0.00000000000E+00 -0.00000000000E+00 -0.36213302654E+03  0.36213302654E+03  0.00000000000E+00 0.  1.
         23    2    1    2    0    0  0.16356647914E+02  0.18593281585E+03 -0.23483162215E+03  0.31377215689E+03  0.92024582273E+02 0.  0.
        254    2    1    2    0    0 -0.16356647914E+02 -0.18593281585E+03  0.23093293223E+04  0.24849915963E+04  0.89852254457E+03 0.  0.
         23    2    4    4    0    0 -0.95145242403E+02 -0.36641501319E+03  0.22137441319E+04  0.22477166760E+04  0.90854801458E+02 0.  0.
         23    2    4    4    0    0  0.78788594489E+02  0.18048219734E+03  0.95585190374E+02  0.23727492033E+03  0.91549948224E+02 0.  0.
         11    1    3    3    0    0 -0.14796482882E+01  0.53450446885E+02 -0.13409504113E+02  0.55126712507E+02  0.00000000000E+00 0. -1.
        -11    1    3    3    0    0  0.17836296202E+02  0.13248236896E+03 -0.22142211803E+03  0.25864544439E+03  0.00000000000E+00 0.  1.
          4    1    5    5  502    0 -0.26814841480E+02 -0.85891358744E+02  0.33313317439E+03  0.34507111312E+03  0.00000000000E+00 0. -1.
          1    1    6    6  503    0  0.41797399934E+02  0.11378379586E+03  0.10507181643E+03  0.16041777162E+03  0.00000000000E+00 0. -1.
         -4    1    5    5    0  502 -0.68330400923E+02 -0.28052365444E+03  0.18806109575E+04  0.19026455629E+04  0.00000000000E+00 0.  1.
         -1    1    6    6    0  503  0.36991194555E+02  0.66698401474E+02 -0.94866260578E+01  0.76857148709E+02  0.00000000000E+00 0.  1.
<mgrwt>
<rscale>  0 0.18787064E+04</rscale>
<asrwt>0</asrwt>
<pdfrwt beam="1">  1        1 0.37486626E+00 0.18787064E+04</pdfrwt>
<pdfrwt beam="2">  1       -1 0.55712775E-01 0.18787064E+04</pdfrwt>
<totfact> 0.45806985E+00</totfact>
</mgrwt>
</event>
<event>
12    1  0.4967442E-008  0.4397912E+04  0.7818608E-02  0.7928757E-01
         -2   -1    0    0    0  501 -0.00000000000E+00  0.00000000000E+00  0.18250305844E+04  0.18250305844E+04  0.00000000000E+00 0.  1.
          2   -1    0    0  501    0  0.00000000000E+00 -0.00000000000E+00 -0.26494938084E+04  0.26494938084E+04  0.00000000000E+00 0. -1.
         23    2    1    2    0    0  0.33236896400E+03  0.15831762183E+04  0.97640673724E+03  0.18916923998E+04  0.90630858355E+02 0.  0.
        254    2    1    2    0    0 -0.33236896400E+03 -0.15831762183E+04 -0.18008699613E+04  0.25828319930E+04  0.90054007149E+03 0.  0.
         23    2    4    4    0    0  0.10895465974E+03 -0.11343643625E+04 -0.14822533232E+04  0.18718432906E+04  0.89826307642E+02 0.  0.
         23    2    4    4    0    0 -0.44132362374E+03 -0.44881185577E+03 -0.31861663813E+03  0.71098870247E+03  0.88259561537E+02 0.  0.
         11    1    3    3    0    0  0.31924450013E+03  0.15096902761E+04  0.90778209648E+03  0.17902933043E+04  0.00000000000E+00 0.  1.
        -11    1    3    3    0    0  0.13124463868E+02  0.73485942158E+02  0.68624640764E+02  0.10139909549E+03  0.00000000000E+00 0. -1.
          4    1    5    5  502    0  0.10217361862E+03 -0.74514108442E+03 -0.92728674536E+03  0.11939578687E+04  0.00000000000E+00 0. -1.
          4    1    6    6  503    0 -0.39875667239E+03 -0.37714599007E+03 -0.25040375737E+03  0.60328104836E+03  0.00000000000E+00 0. -1.
         -4    1    5    5    0  502  0.67810411164E+01 -0.38922327811E+03 -0.55496657780E+03  0.67788542190E+03  0.00000000000E+00 0.  1.
         -4    1    6    6    0  503 -0.42566951346E+02 -0.71665865704E+02 -0.68212880760E+02  0.10770765412E+03  0.00000000000E+00 0.  1.
<mgrwt>
<rscale>  0 0.43979119E+04</rscale>
<asrwt>0</asrwt>
<pdfrwt beam="1">  1        2 0.40761443E+00 0.43979119E+04</pdfrwt>
<pdfrwt beam="2">  1       -2 0.28077394E+00 0.43979119E+04</pdfrwt>
<totfact> 0.90549059E-02</totfact>
</mgrwt>
</event>
<event>
12    1  0.4967442E-008  0.2829221E+04  0.7818608E-02  0.8294253E-01
         -2   -1    0    0    0  501 -0.00000000000E+00  0.00000000000E+00  0.98623671413E+03  0.98623671413E+03  0.00000000000E+00 0.  1.
          2   -1    0    0  501    0  0.00000000000E+00 -0.00000000000E+00 -0.20290498122E+04  0.20290498122E+04  0.00000000000E+00 0. -1.
         23    2    1    2    0    0 -0.45838073057E+02  0.11895010036E+04 -0.25935896440E+01  0.11939624647E+04  0.92335659114E+02 0.  0.
        254    2    1    2    0    0  0.45838073057E+02 -0.11895010036E+04 -0.10402195084E+04  0.18213240616E+04  0.90451696793E+03 0.  0.
         23    2    4    4    0    0 -0.50685991294E+02 -0.12097569978E+04 -0.11296949045E+04  0.16585455951E+04  0.92096961361E+02 0.  0.
         23    2    4    4    0    0  0.96524064351E+02  0.20255994238E+02  0.89475396136E+02  0.16277846648E+03  0.93615075366E+02 0.  0.
         13    1    3    3    0    0  0.16825842265E+02  0.48610762688E+03 -0.29280107140E+02  0.48727924084E+03  0.00000000000E+00 0. -1.
        -13    1    3    3    0    0 -0.62663915322E+02  0.70339337670E+03  0.26686517496E+02  0.70668322386E+03  0.00000000000E+00 0.  1.
          4    1    5    5  502    0  0.21635481227E+02 -0.27060442115E+03 -0.28004336007E+03  0.39002452527E+03  0.00000000000E+00 0.  1.
          3    1    6    6  503    0  0.30135101183E+02  0.43911378367E+02  0.73066594901E+02  0.90416042624E+02  0.00000000000E+00 0. -1.
         -4    1    5    5    0  502 -0.72321472521E+02 -0.93915257666E+03 -0.84965154444E+03  0.12685210698E+04  0.00000000000E+00 0. -1.
         -3    1    6    6    0  503  0.66388963168E+02 -0.23655384129E+02  0.16408801234E+02  0.72362423859E+02  0.00000000000E+00 0.  1.
<mgrwt>
<rscale>  0 0.28292214E+04</rscale>
<asrwt>0</asrwt>
<pdfrwt beam="1">  1        2 0.31216151E+00 0.28292214E+04</pdfrwt>
<pdfrwt beam="2">  1       -2 0.15172873E+00 0.28292214E+04</pdfrwt>
<totfact> 0.16240507E+00</totfact>
</mgrwt>
</event>
<event>
12    1  0.4967442E-008  0.2892890E+04  0.7818608E-02  0.8274996E-01
         -1   -1    0    0    0  501 -0.00000000000E+00  0.00000000000E+00  0.11466574947E+04  0.11466574947E+04  0.00000000000E+00 0.  1.
          1   -1    0    0  501    0  0.00000000000E+00 -0.00000000000E+00 -0.18246101874E+04  0.18246101874E+04  0.00000000000E+00 0. -1.
         23    2    1    2    0    0  0.10134580438E+03 -0.82504612530E+03  0.72249420183E+03  0.11052003447E+04  0.92183779823E+02 0.  0.
        254    2    1    2    0    0 -0.10134580438E+03  0.82504612530E+03 -0.14004468946E+04  0.18660673374E+04  0.91103442429E+03 0.  0.
         23    2    4    4    0    0 -0.14654191687E+03  0.17688275530E+03 -0.11298477005E+04  0.11565397134E+04  0.90918863514E+02 0.  0.
         23    2    4    4    0    0  0.45196112492E+02  0.64816336999E+03 -0.27059919406E+03  0.70952762401E+03  0.89705532870E+02 0.  0.
         13    1    3    3    0    0  0.34314347213E+02 -0.41940478669E+03  0.30882868632E+03  0.52197031239E+03  0.00000000000E+00 0.  1.
        -13    1    3    3    0    0  0.67031457165E+02 -0.40564133860E+03  0.41366551552E+03  0.58323003229E+03  0.00000000000E+00 0. -1.
          3    1    5    5  502    0 -0.11631558426E+03  0.87767857564E+02 -0.54374436697E+03  0.56293023420E+03  0.00000000000E+00 0. -1.
          3    1    6    6  503    0 -0.19741336111E+02  0.28997908764E+03 -0.14174704775E+03  0.32337256712E+03  0.00000000000E+00 0. -1.
         -3    1    5    5    0  502 -0.30226332612E+02  0.89114897739E+02 -0.58610333355E+03  0.59360947918E+03  0.00000000000E+00 0.  1.
         -3    1    6    6    0  503  0.64937448603E+02  0.35818428236E+03 -0.12885214631E+03  0.38615505690E+03  0.00000000000E+00 0.  1.
<mgrwt>
<rscale>  0 0.28928899E+04</rscale>
<asrwt>0</asrwt>
<pdfrwt beam="1">  1        1 0.28070926E+00 0.28928899E+04</pdfrwt>
<pdfrwt beam="2">  1       -1 0.17640885E+00 0.28928899E+04</pdfrwt>
<totfact> 0.74381583E-01</totfact>
</mgrwt>
</event>
<event>
12    1  0.4967442E-008  0.1703427E+04  0.7818608E-02  0.8759412E-01
         -2   -1    0    0    0  501 -0.00000000000E+00  0.00000000000E+00  0.78851623294E+03  0.78851623294E+03  0.00000000000E+00 0. -1.
          2   -1    0    0  501    0  0.00000000000E+00 -0.00000000000E+00 -0.91997586335E+03  0.91997586335E+03  0.00000000000E+00 0.  1.
         23    2    1    2    0    0 -0.15506321265E+03 -0.29224815430E+03 -0.50944886498E+03  0.61318834892E+03  0.83715121801E+02 0.  0.
        254    2    1    2    0    0  0.15506321265E+03  0.29224815430E+03  0.37798923458E+03  0.10953037474E+04  0.97332463954E+03 0.  0.
         23    2    4    4    0    0  0.44215131378E+03 -0.55507774870E+02  0.43781725541E+03  0.63141794812E+03  0.91792040621E+02 0.  0.
         23    2    4    4    0    0 -0.28708810113E+03  0.34775592917E+03 -0.59828020834E+02  0.46388579925E+03  0.90867368107E+02 0.  0.
         13    1    3    3    0    0 -0.44041933955E+01 -0.20056371561E+01 -0.44459013414E+02  0.44721620874E+02  0.00000000000E+00 0. -1.
        -13    1    3    3    0    0 -0.15065901926E+03 -0.29024251714E+03 -0.46498985157E+03  0.56846672805E+03  0.00000000000E+00 0.  1.
          2    1    5    5  502    0  0.29697928018E+03 -0.79940660334E+02  0.30506937082E+03  0.43319109299E+03  0.00000000000E+00 0.  1.
          3    1    6    6  503    0 -0.21556925284E+02 -0.11117657701E+01 -0.25083241924E+01  0.21730824675E+02  0.00000000000E+00 0. -1.
         -2    1    5    5    0  502  0.14517203360E+03  0.24432885464E+02  0.13274788459E+03  0.19822685513E+03  0.00000000000E+00 0. -1.
         -3    1    6    6    0  503 -0.26553117584E+03  0.34886769494E+03 -0.57319696641E+02  0.44215497457E+03  0.00000000000E+00 0.  1.
<mgrwt>
<rscale>  0 0.17034270E+04</rscale>
<asrwt>0</asrwt>
<pdfrwt beam="1">  1        2 0.14153475E+00 0.17034270E+04</pdfrwt>
<pdfrwt beam="2">  1       -2 0.12131019E+00 0.17034270E+04</pdfrwt>
<totfact> 0.13976226E+01</totfact>
</mgrwt>
</event>
<event>
12    1  0.4967442E-008  0.1268958E+04  0.7818608E-02  0.9054551E-01
         -1   -1    0    0    0  501 -0.00000000000E+00  0.00000000000E+00  0.15061093899E+03  0.15061093899E+03  0.00000000000E+00 0.  1.
          1   -1    0    0  501    0  0.00000000000E+00 -0.00000000000E+00 -0.26728691998E+04  0.26728691998E+04  0.00000000000E+00 0. -1.
         23    2    1    2    0    0  0.76681524485E+02  0.94367209921E+02 -0.12927003260E+04  0.13026066285E+04  0.10452114315E+03 0.  0.
        254    2    1    2    0    0 -0.76681524485E+02 -0.94367209921E+02 -0.12295579348E+04  0.15208735102E+04  0.88682483761E+03 0.  0.
         23    2    4    4    0    0  0.20805566970E+02  0.33481356569E+03 -0.20989305995E+03  0.40626775319E+03  0.92007582738E+02 0.  0.
         23    2    4    4    0    0 -0.97487091455E+02 -0.42918077561E+03 -0.10196648749E+04  0.11146057571E+04  0.94496907275E+02 0.  0.
         13    1    3    3    0    0  0.34989716844E+02  0.85959677318E+02 -0.11490616548E+04  0.11528035535E+04  0.00000000000E+00 0. -1.
        -13    1    3    3    0    0  0.41691807641E+02  0.84075326033E+01 -0.14363867113E+03  0.14980307498E+03  0.00000000000E+00 0.  1.
          4    1    5    5  502    0  0.20229853959E+02  0.14806205634E+03 -0.14591419438E+03  0.20886017246E+03  0.00000000000E+00 0. -1.
          1    1    6    6  503    0 -0.52322804639E+02 -0.34703308064E+03 -0.72671026374E+03  0.80701762209E+03  0.00000000000E+00 0. -1.
         -4    1    5    5    0  502  0.57571301167E+00  0.18675150935E+03 -0.63978865566E+02  0.19740758073E+03  0.00000000000E+00 0.  1.
         -1    1    6    6    0  503 -0.45164286816E+02 -0.82147694963E+02 -0.29295461112E+03  0.30758813496E+03  0.00000000000E+00 0.  1.
<mgrwt>
<rscale>  0 0.12689576E+04</rscale>
<asrwt>0</asrwt>
<pdfrwt beam="1">  1        1 0.41121063E+00 0.12689576E+04</pdfrwt>
<pdfrwt beam="2">  1       -1 0.23170914E-01 0.12689576E+04</pdfrwt>
<totfact> 0.16221395E+01</totfact>
</mgrwt>
</event>
<event>
12    1  0.4967442E-008  0.1382196E+04  0.7818608E-02  0.8966808E-01
          1   -1    0    0  501    0  0.00000000000E+00  0.00000000000E+00  0.24229668471E+04  0.24229668471E+04  0.00000000000E+00 0. -1.
         -1   -1    0    0    0  501 -0.00000000000E+00 -0.00000000000E+00 -0.19712039059E+03  0.19712039059E+03  0.00000000000E+00 0.  1.
         23    2    1    2    0    0 -0.26897420226E+03  0.24545415626E+03  0.39409117373E+03  0.54435504015E+03  0.91758880880E+02 0.  0.
        254    2    1    2    0    0  0.26897420226E+03 -0.24545415626E+03  0.18317552828E+04  0.20757321976E+04  0.90594805348E+03 0.  0.
         23    2    4    4    0    0  0.48818388494E+03 -0.46835081625E+02  0.49213793715E+03  0.70082928126E+03  0.91896147398E+02 0.  0.
         23    2    4    4    0    0 -0.21920968268E+03 -0.19861907464E+03  0.13396173456E+04  0.13749029163E+04  0.90999860922E+02 0.  0.
         11    1    3    3    0    0 -0.17477939910E+03  0.14836843603E+03  0.30819573486E+03  0.38411670380E+03  0.00000000000E+00 0. -1.
        -11    1    3    3    0    0 -0.94194803159E+02  0.97085720236E+02  0.85895438873E+02  0.16023833635E+03  0.00000000000E+00 0.  1.
          4    1    5    5  502    0  0.72553324950E+02  0.20252499476E+02  0.10236755516E+03  0.12709549577E+03  0.00000000000E+00 0. -1.
          3    1    6    6  503    0 -0.11425613372E+03 -0.47937239978E+02  0.46570150872E+03  0.48190283075E+03  0.00000000000E+00 0. -1.
         -4    1    5    5    0  502  0.41563055999E+03 -0.67087581101E+02  0.38977038199E+03  0.57373378549E+03  0.00000000000E+00 0.  1.
         -3    1    6    6    0  503 -0.10495354896E+03 -0.15068183466E+03  0.87391583693E+03  0.89300008554E+03  0.00000000000E+00 0.  1.
<mgrwt>
<rscale>  0 0.13821956E+04</rscale>
<asrwt>0</asrwt>
<pdfrwt beam="1">  1        1 0.37276411E+00 0.13821956E+04</pdfrwt>
<pdfrwt beam="2">  1       -1 0.30326216E-01 0.13821956E+04</pdfrwt>
<totfact> 0.15021110E+01</totfact>
</mgrwt>
</event>
<event>
12    1  0.4967442E-008  0.2058789E+04  0.7818608E-02  0.8579617E-01
          2   -1    0    0  501    0  0.00000000000E+00  0.00000000000E+00  0.12598194589E+04  0.12598194589E+04  0.00000000000E+00 0. -1.
         -2   -1    0    0    0  501 -0.00000000000E+00 -0.00000000000E+00 -0.84111534767E+03  0.84111534767E+03  0.00000000000E+00 0.  1.
         23    2    1    2    0    0 -0.22518676198E+03  0.28497098574E+02  0.98008145229E+03  0.10089829287E+04  0.77238169941E+02 0.  0.
        254    2    1    2    0    0  0.22518676198E+03 -0.28497098574E+02 -0.56137734103E+03  0.10919518779E+04  0.90867663238E+03 0.  0.
         23    2    4    4    0    0 -0.21977787458E+03 -0.13797920317E+03  0.91214649322E+02  0.28930955961E+03  0.89662335276E+02 0.  0.
         23    2    4    4    0    0  0.44496463656E+03  0.10948210459E+03 -0.65259199035E+03  0.80264231829E+03  0.91534289909E+02 0.  0.
         13    1    3    3    0    0 -0.51253615672E+02 -0.25423410104E+01  0.11332653665E+03  0.12440378019E+03  0.00000000000E+00 0.  1.
        -13    1    3    3    0    0 -0.17393314630E+03  0.31039439585E+02  0.86675491564E+03  0.88457914851E+03  0.00000000000E+00 0. -1.
          2    1    5    5  502    0 -0.77292281353E+02 -0.14239693588E+02  0.58037702635E+02  0.97699746967E+02  0.00000000000E+00 0.  1.
          3    1    6    6  503    0  0.37172232493E+03  0.97155329489E+02 -0.48060303451E+03  0.61530148844E+03  0.00000000000E+00 0. -1.
         -2    1    5    5    0  502 -0.14248559323E+03 -0.12373950958E+03  0.33176946687E+02  0.19160981264E+03  0.00000000000E+00 0. -1.
         -3    1    6    6    0  503  0.73242311627E+02  0.12326775106E+02 -0.17198895585E+03  0.18734082985E+03  0.00000000000E+00 0.  1.
<mgrwt>
<rscale>  0 0.20587894E+04</rscale>
<asrwt>0</asrwt>
<pdfrwt beam="1">  1        2 0.19381838E+00 0.20587894E+04</pdfrwt>
<pdfrwt beam="2">  1       -2 0.12940236E+00 0.20587894E+04</pdfrwt>
<totfact> 0.70922420E+00</totfact>
</mgrwt>
</event>
<event>
12    1  0.4967442E-008  0.1444374E+04  0.7818608E-02  0.8922310E-01
          1   -1    0    0  501    0  0.00000000000E+00  0.00000000000E+00  0.21081749560E+04  0.21081749560E+04  0.00000000000E+00 0. -1.
         -1   -1    0    0    0  501 -0.00000000000E+00 -0.00000000000E+00 -0.24739610753E+03  0.24739610753E+03  0.00000000000E+00 0.  1.
         23    2    1    2    0    0  0.20694487135E+03 -0.37667186755E+03  0.68942825895E+03  0.81743225059E+03  0.90422809574E+02 0.  0.
        254    2    1    2    0    0 -0.20694487135E+03  0.37667186755E+03  0.11713505895E+04  0.15381388129E+04  0.89950037726E+03 0.  0.
         23    2    4    4    0    0 -0.48601962173E+02  0.20667959093E+03  0.12558742049E+04  0.12768739832E+04  0.90047468804E+02 0.  0.
         23    2    4    4    0    0 -0.15834290917E+03  0.16999227662E+03 -0.84523615376E+02  0.26126482965E+03  0.84529395246E+02 0.  0.
         11    1    3    3    0    0 -0.12713688363E+01  0.27544304082E+01 -0.41309922088E+00  0.30616852480E+01  0.00000000000E+00 0. -1.
        -11    1    3    3    0    0  0.20821624018E+03 -0.37942629796E+03  0.68984135817E+03  0.81437056534E+03  0.00000000000E+00 0.  1.
          2    1    5    5  502    0 -0.21479846421E+02  0.53591145768E+02  0.60236278004E+03  0.60512338699E+03  0.00000000000E+00 0. -1.
          1    1    6    6  503    0 -0.89723750920E+02  0.14596957423E+03 -0.78033859439E+02  0.18827307641E+03  0.00000000000E+00 0. -1.
         -2    1    5    5    0  502 -0.27122115751E+02  0.15308844516E+03  0.65351142481E+03  0.67175059625E+03  0.00000000000E+00 0.  1.
         -1    1    6    6    0  503 -0.68619158254E+02  0.24022702384E+02 -0.64897559369E+01  0.72991753243E+02  0.00000000000E+00 0.  1.
<mgrwt>
<rscale>  0 0.14443743E+04</rscale>
<asrwt>0</asrwt>
<pdfrwt beam="1">  1        1 0.32433460E+00 0.14443743E+04</pdfrwt>
<pdfrwt beam="2">  1       -1 0.38060941E-01 0.14443743E+04</pdfrwt>
<totfact> 0.16323410E+01</totfact>
</mgrwt>
</event>
<event>
12    1  0.4967442E-008  0.1487063E+04  0.7818608E-02  0.8893102E-01
         -2   -1    0    0    0  501 -0.00000000000E+00  0.00000000000E+00  0.33899296284E+03  0.33899296284E+03  0.00000000000E+00 0.  1.
          2   -1    0    0  501    0  0.00000000000E+00 -0.00000000000E+00 -0.16308279603E+04  0.16308279603E+04  0.00000000000E+00 0. -1.
         23    2    1    2    0    0 -0.22074616346E+03  0.25079989409E+02 -0.96473779708E+03  0.99416877829E+03  0.91075068267E+02 0.  0.
        254    2    1    2    0    0  0.22074616346E+03 -0.25079989409E+02 -0.32709720037E+03  0.97565214484E+03  0.89193422106E+03 0.  0.
         23    2    4    4    0    0 -0.14825937658E+03  0.19538718484E+03  0.17070562411E+03  0.31167315420E+03  0.88559303324E+02 0.  0.
         23    2    4    4    0    0  0.36900554004E+03 -0.22046717424E+03 -0.49780282448E+03  0.66397899064E+03  0.91047155079E+02 0.  0.
         11    1    3    3    0    0 -0.12329106652E+03 -0.29864431068E+02 -0.45924759707E+03  0.47644614254E+03  0.00000000000E+00 0.  1.
        -11    1    3    3    0    0 -0.97455096937E+02  0.54944420477E+02 -0.50549020001E+03  0.51772263575E+03  0.00000000000E+00 0. -1.
          2    1    5    5  502    0 -0.63488787386E+02  0.14979658889E+03  0.12471918744E+03  0.20499931679E+03  0.00000000000E+00 0. -1.
          3    1    6    6  503    0  0.35380146496E+02 -0.58532896535E+02 -0.83770273858E+02  0.10814487286E+03  0.00000000000E+00 0. -1.
         -2    1    5    5    0  502 -0.84770589199E+02  0.45590595946E+02  0.45986436664E+02  0.10667383742E+03  0.00000000000E+00 0.  1.
         -3    1    6    6    0  503  0.33362539355E+03 -0.16193427771E+03 -0.41403255062E+03  0.55583411778E+03  0.00000000000E+00 0.  1.
<mgrwt>
<rscale>  0 0.14870631E+04</rscale>
<asrwt>0</asrwt>
<pdfrwt beam="1">  1        2 0.25089660E+00 0.14870631E+04</pdfrwt>
<pdfrwt beam="2">  1       -2 0.52152764E-01 0.14870631E+04</pdfrwt>
<totfact> 0.35970050E+01</totfact>
</mgrwt>
</event>
<event>
12    1  0.4967442E-008  0.1370220E+04  0.7818608E-02  0.8975661E-01
          2   -1    0    0  501    0  0.00000000000E+00  0.00000000000E+00  0.10258167084E+04  0.10258167084E+04  0.00000000000E+00 0. -1.
         -2   -1    0    0    0  501 -0.00000000000E+00 -0.00000000000E+00 -0.45756298012E+03  0.45756298012E+03  0.00000000000E+00 0.  1.
         23    2    1    2    0    0 -0.27716802107E+03 -0.18274127362E+03 -0.75517651641E+02  0.35257097924E+03  0.91579990738E+02 0.  0.
        254    2    1    2    0    0  0.27716802107E+03  0.18274127362E+03  0.64377137988E+03  0.11308087093E+04  0.86837219116E+03 0.  0.
         23    2    4    4    0    0  0.38052327035E+03 -0.24992189239E+03  0.23587948377E+03  0.52039648693E+03  0.88963257417E+02 0.  0.
         23    2    4    4    0    0 -0.10335524928E+03  0.43266316601E+03  0.40789189611E+03  0.61041222232E+03  0.91364979414E+02 0.  0.
         13    1    3    3    0    0 -0.58044795442E+02 -0.68239288405E+01  0.90017534369E+01  0.59133711601E+02  0.00000000000E+00 0. -1.
        -13    1    3    3    0    0 -0.21912322563E+03 -0.17591734478E+03 -0.84519405078E+02  0.29343726764E+03  0.00000000000E+00 0.  1.
          2    1    5    5  502    0  0.71841594584E+02 -0.42125203303E+02  0.70949856799E+01  0.83582810957E+02  0.00000000000E+00 0. -1.
          1    1    6    6  503    0 -0.60929557853E+02  0.19408633857E+03  0.24493941762E+03  0.31839792107E+03  0.00000000000E+00 0. -1.
         -2    1    5    5    0  502  0.30868167577E+03 -0.20779668909E+03  0.22878449809E+03  0.43681367598E+03  0.00000000000E+00 0.  1.
         -1    1    6    6    0  503 -0.42425691429E+02  0.23857682744E+03  0.16295247849E+03  0.29201430125E+03  0.00000000000E+00 0.  1.
<mgrwt>
<rscale>  0 0.13702201E+04</rscale>
<asrwt>0</asrwt>
<pdfrwt beam="1">  1        2 0.15781795E+00 0.13702201E+04</pdfrwt>
<pdfrwt beam="2">  1       -2 0.70394305E-01 0.13702201E+04</pdfrwt>
<totfact> 0.43438324E+01</totfact>
</mgrwt>
</event>
<event>
12    1  0.4967442E-008  0.2690258E+04  0.7818608E-02  0.8338173E-01
          2   -1    0    0  501    0  0.00000000000E+00  0.00000000000E+00  0.99929665304E+03  0.99929665304E+03  0.00000000000E+00 0. -1.
         -2   -1    0    0    0  501 -0.00000000000E+00 -0.00000000000E+00 -0.18106459229E+04  0.18106459229E+04  0.00000000000E+00 0.  1.
         23    2    1    2    0    0 -0.11204207866E+04 -0.16825247172E+03 -0.75185804883E+03  0.13628063255E+04  0.91098418853E+02 0.  0.
        254    2    1    2    0    0  0.11204207866E+04  0.16825247172E+03 -0.59491221065E+02  0.14471362505E+04  0.89833873838E+03 0.  0.
         23    2    4    4    0    0  0.52808971725E+03  0.51360681616E+03 -0.13025350755E+03  0.75259525070E+03  0.82236999360E+02 0.  0.
         23    2    4    4    0    0  0.59233106934E+03 -0.34535434445E+03  0.70762286485E+02  0.69454099981E+03  0.85171475809E+02 0.  0.
         11    1    3    3    0    0 -0.58416686237E+03 -0.75263122875E+02 -0.44321373915E+03  0.73712541628E+03  0.00000000000E+00 0. -1.
        -11    1    3    3    0    0 -0.53625392422E+03 -0.92989348841E+02 -0.30864430968E+03  0.62568090920E+03  0.00000000000E+00 0.  1.
          4    1    5    5  502    0  0.10684237790E+03  0.75865497427E+02  0.11277225772E+01  0.13104250903E+03  0.00000000000E+00 0. -1.
          3    1    6    6  503    0  0.36215817695E+02 -0.14110423154E+02 -0.14858698610E+02  0.41610941077E+02  0.00000000000E+00 0. -1.
         -4    1    5    5    0  502  0.42124733936E+03  0.43774131874E+03 -0.13138123013E+03  0.62155274167E+03  0.00000000000E+00 0.  1.
         -3    1    6    6    0  503  0.55611525164E+03 -0.33124392129E+03  0.85620985096E+02  0.65293005873E+03  0.00000000000E+00 0.  1.
<mgrwt>
<rscale>  0 0.26902583E+04</rscale>
<asrwt>0</asrwt>
<pdfrwt beam="1">  1        2 0.15373795E+00 0.26902583E+04</pdfrwt>
<pdfrwt beam="2">  1       -2 0.27856091E+00 0.26902583E+04</pdfrwt>
<totfact> 0.95131673E-01</totfact>
</mgrwt>
</event>
<event>
12    1  0.4967442E-008  0.2259304E+04  0.7818608E-02  0.8494142E-01
          2   -1    0    0  501    0  0.00000000000E+00  0.00000000000E+00  0.22501378563E+04  0.22501378563E+04  0.00000000000E+00 0. -1.
         -2   -1    0    0    0  501 -0.00000000000E+00 -0.00000000000E+00 -0.56712682287E+03  0.56712682287E+03  0.00000000000E+00 0.  1.
         23    2    1    2    0    0  0.89207619925E+02 -0.93209326881E+03  0.91057368980E+03  0.13093535734E+04  0.92230550087E+02 0.  0.
        254    2    1    2    0    0 -0.89207619925E+02  0.93209326881E+03  0.77243734359E+03  0.15079111057E+04  0.89463992301E+03 0.  0.
         23    2    4    4    0    0 -0.40503587298E+03  0.29821173490E+03  0.57041784816E+03  0.76598420831E+03  0.91493107088E+02 0.  0.
         23    2    4    4    0    0  0.31582825306E+03  0.63388153391E+03  0.20201949542E+03  0.74192689743E+03  0.89946429261E+02 0.  0.
         11    1    3    3    0    0  0.36024692385E+02 -0.13616612973E+03  0.10525533921E+03  0.17583423950E+03  0.00000000000E+00 0.  1.
        -11    1    3    3    0    0  0.53182927540E+02 -0.79592713908E+03  0.80531835058E+03  0.11335193339E+04  0.00000000000E+00 0. -1.
          4    1    5    5  502    0 -0.26062702921E+02 -0.37516439276E+01  0.23599538084E+02  0.35359263475E+02  0.00000000000E+00 0. -1.
          1    1    6    6  503    0  0.13208522228E+02  0.41976005955E+01 -0.22677573665E+01  0.14043775621E+02  0.00000000000E+00 0. -1.
         -4    1    5    5    0  502 -0.37897317006E+03  0.30196337883E+03  0.54681831008E+03  0.73062494483E+03  0.00000000000E+00 0.  1.
         -1    1    6    6    0  503  0.30261973083E+03  0.62968393332E+03  0.20428725279E+03  0.72788312181E+03  0.00000000000E+00 0.  1.
<mgrwt>
<rscale>  0 0.22593039E+04</rscale>
<asrwt>0</asrwt>
<pdfrwt beam="1">  1        2 0.34617505E+00 0.22593039E+04</pdfrwt>
<pdfrwt beam="2">  1       -2 0.87250282E-01 0.22593039E+04</pdfrwt>
<totfact> 0.49946671E+00</totfact>
</mgrwt>
</event>
<event>
12    1  0.4967442E-008  0.1686941E+04  0.7818608E-02  0.8768847E-01
         -3   -1    0    0    0  501 -0.00000000000E+00  0.00000000000E+00  0.10559404974E+04  0.10559404974E+04  0.00000000000E+00 0.  1.
          3   -1    0    0  501    0  0.00000000000E+00 -0.00000000000E+00 -0.67375275987E+03  0.67375275987E+03  0.00000000000E+00 0. -1.
         23    2    1    2    0    0 -0.32927981095E+03 -0.15703649745E+03 -0.34247440513E+03  0.51658677659E+03  0.12840375444E+03 0.  0.
        254    2    1    2    0    0  0.32927981095E+03  0.15703649745E+03  0.72466214266E+03  0.12131064807E+04  0.90189049059E+03 0.  0.
         23    2    4    4    0    0  0.34743069504E+03  0.35708227875E+03  0.57353274903E+02  0.50981143304E+03  0.91664919508E+02 0.  0.
         23    2    4    4    0    0 -0.18150884090E+02 -0.20004578129E+03  0.66730886776E+03  0.70329504763E+03  0.94736634064E+02 0.  0.
         11    1    3    3    0    0 -0.33317090492E+03 -0.13590768063E+03 -0.29802654491E+03  0.46721897544E+03  0.00000000000E+00 0. -1.
        -11    1    3    3    0    0  0.38910939774E+01 -0.21128816827E+02 -0.44447860215E+02  0.49367801152E+02  0.00000000000E+00 0.  1.
          2    1    5    5  502    0  0.12239551866E+03  0.12762731809E+03  0.64817055582E+02  0.18833652329E+03  0.00000000000E+00 0. -1.
          4    1    6    6  503    0  0.26367429200E+02 -0.21656311232E+02  0.63145147114E+02  0.71774276331E+02  0.00000000000E+00 0. -1.
         -2    1    5    5    0  502  0.22503517638E+03  0.22945496066E+03 -0.74637806788E+01  0.32147490975E+03  0.00000000000E+00 0.  1.
         -4    1    6    6    0  503 -0.44518313290E+02 -0.17838947006E+03  0.60416372064E+03  0.63152077130E+03  0.00000000000E+00 0.  1.
<mgrwt>
<rscale>  0 0.16869414E+04</rscale>
<asrwt>0</asrwt>
<pdfrwt beam="1">  1        3 0.10365427E+00 0.16869414E+04</pdfrwt>
<pdfrwt beam="2">  1       -3 0.16245238E+00 0.16869414E+04</pdfrwt>
<totfact> 0.52393807E-01</totfact>
</mgrwt>
</event>
<event>
12    1  0.4967442E-008  0.1448508E+04  0.7818608E-02  0.8919435E-01
         -1   -1    0    0    0  501 -0.00000000000E+00  0.00000000000E+00  0.39094882457E+03  0.39094882457E+03  0.00000000000E+00 0.  1.
          1   -1    0    0  501    0  0.00000000000E+00 -0.00000000000E+00 -0.13417204075E+04  0.13417204075E+04  0.00000000000E+00 0. -1.
         23    2    1    2    0    0  0.28102605277E+03  0.24309161011E+03 -0.14844158046E+02  0.38279142754E+03  0.90773094735E+02 0.  0.
        254    2    1    2    0    0 -0.28102605277E+03 -0.24309161011E+03 -0.93592742485E+03  0.13498778045E+04  0.89896650063E+03 0.  0.
         23    2    4    4    0    0 -0.42274276277E+03 -0.36939827973E+03 -0.98269090788E+03  0.11353609349E+04  0.90534521644E+02 0.  0.
         23    2    4    4    0    0  0.14171671001E+03  0.12630666962E+03  0.46763483030E+02  0.21451686956E+03  0.88281726841E+02 0.  0.
         13    1    3    3    0    0  0.24102449722E+03  0.24299038994E+03 -0.17513048316E+02  0.34270080934E+03  0.00000000000E+00 0.  1.
        -13    1    3    3    0    0  0.40001555550E+02  0.10122016899E+00  0.26688902701E+01  0.40090618194E+02  0.00000000000E+00 0. -1.
          4    1    5    5  502    0 -0.18905510264E+03 -0.21853388225E+03 -0.54231763259E+03  0.61449760305E+03  0.00000000000E+00 0. -1.
          1    1    6    6  503    0  0.26134279387E+02  0.79611663720E+02  0.28623086000E+02  0.88545460705E+02  0.00000000000E+00 0. -1.
         -4    1    5    5    0  502 -0.23368766013E+03 -0.15086439748E+03 -0.44037327529E+03  0.52086333190E+03  0.00000000000E+00 0.  1.
         -1    1    6    6    0  503  0.11558243062E+03  0.46695005902E+02  0.18140397030E+02  0.12597140885E+03  0.00000000000E+00 0.  1.
<mgrwt>
<rscale>  0 0.14485082E+04</rscale>
<asrwt>0</asrwt>
<pdfrwt beam="1">  1        1 0.20641853E+00 0.14485082E+04</pdfrwt>
<pdfrwt beam="2">  1       -1 0.60145972E-01 0.14485082E+04</pdfrwt>
<totfact> 0.22996918E+01</totfact>
</mgrwt>
</event>
<event>
12    1  0.4967442E-008  0.1219617E+04  0.7818608E-02  0.9095857E-01
         -1   -1    0    0    0  501 -0.00000000000E+00  0.00000000000E+00  0.14755383813E+03  0.14755383813E+03  0.00000000000E+00 0.  1.
          1   -1    0    0  501    0  0.00000000000E+00 -0.00000000000E+00 -0.25202062877E+04  0.25202062877E+04  0.00000000000E+00 0. -1.
         23    2    1    2    0    0  0.24485312730E+03  0.13420978555E+03 -0.69431506802E+03  0.75401155520E+03  0.92166649136E+02 0.  0.
        254    2    1    2    0    0 -0.24485312730E+03 -0.13420978555E+03 -0.16783373815E+04  0.19137485706E+04  0.87615746572E+03 0.  0.
         23    2    4    4    0    0 -0.64614558660E+02  0.13067350847E+03  0.29744285158E+02  0.17348638024E+03  0.89231130355E+02 0.  0.
         23    2    4    4    0    0 -0.18023856864E+03 -0.26488329402E+03 -0.17080816667E+04  0.17402621904E+04  0.91216281599E+02 0.  0.
         11    1    3    3    0    0  0.80054620431E+02  0.92260925069E+02 -0.33246095851E+03  0.35419078119E+03  0.00000000000E+00 0.  1.
        -11    1    3    3    0    0  0.16479850687E+03  0.41948860482E+02 -0.36185410951E+03  0.39982077401E+03  0.00000000000E+00 0. -1.
          2    1    5    5  502    0  0.19490436317E+02  0.49797225444E+02  0.18039642182E+01  0.53506028227E+02  0.00000000000E+00 0. -1.
          1    1    6    6  503    0 -0.32903842514E+02 -0.88567754689E+02 -0.33418346206E+03  0.34728302051E+03  0.00000000000E+00 0. -1.
         -2    1    5    5    0  502 -0.84104994977E+02  0.80876283023E+02  0.27940320939E+02  0.11998035202E+03  0.00000000000E+00 0.  1.
         -1    1    6    6    0  503 -0.14733472613E+03 -0.17631553933E+03 -0.13738982046E+04  0.13929791698E+04  0.00000000000E+00 0.  1.
<mgrwt>
<rscale>  0 0.12196165E+04</rscale>
<asrwt>0</asrwt>
<pdfrwt beam="1">  1        1 0.38772407E+00 0.12196165E+04</pdfrwt>
<pdfrwt beam="2">  1       -1 0.22700589E-01 0.12196165E+04</pdfrwt>
<totfact> 0.21545299E+01</totfact>
</mgrwt>
</event>
<event>
12    1  0.4967442E-008  0.3287566E+04  0.7818608E-02  0.8166066E-01
         -1   -1    0    0    0  501 -0.00000000000E+00  0.00000000000E+00  0.10835129310E+04  0.10835129310E+04  0.00000000000E+00 0.  1.
          1   -1    0    0  501    0  0.00000000000E+00 -0.00000000000E+00 -0.24937610996E+04  0.24937610996E+04  0.00000000000E+00 0. -1.
         23    2    1    2    0    0 -0.63541145556E+03 -0.20369204960E+03 -0.21355140263E+04  0.22392183282E+04  0.91871626948E+02 0.  0.
        254    2    1    2    0    0  0.63541145556E+03  0.20369204960E+03  0.72526585773E+03  0.13380557025E+04  0.90506592555E+03 0.  0.
         23    2    4    4    0    0  0.33964391050E+02  0.34160544946E+03  0.60672545285E+03  0.70268996359E+03  0.88371640465E+02 0.  0.
         23    2    4    4    0    0  0.60144706451E+03 -0.13791339986E+03  0.11854040488E+03  0.63536573887E+03  0.94229068121E+02 0.  0.
         11    1    3    3    0    0 -0.41139684199E+01  0.57121776732E+01 -0.11339834550E+02  0.13347117949E+02  0.00000000000E+00 0.  1.
        -11    1    3    3    0    0 -0.63129748714E+03 -0.20940422727E+03 -0.21241741918E+04  0.22258712102E+04  0.00000000000E+00 0. -1.
          2    1    5    5  502    0  0.84454625010E+01  0.31849269899E+03  0.56452423923E+03  0.64822568741E+03  0.00000000000E+00 0. -1.
          4    1    6    6  503    0  0.26193482278E+03 -0.10809104599E+03  0.50759713804E+02  0.28787162791E+03  0.00000000000E+00 0. -1.
         -2    1    5    5    0  502  0.25518928549E+02  0.23112750467E+02  0.42201213621E+02  0.54464276178E+02  0.00000000000E+00 0.  1.
         -4    1    6    6    0  503  0.33951224172E+03 -0.29822353864E+02  0.67780691078E+02  0.34749411096E+03  0.00000000000E+00 0.  1.
<mgrwt>
<rscale>  0 0.32875659E+04</rscale>
<asrwt>0</asrwt>
<pdfrwt beam="1">  1        1 0.38365555E+00 0.32875659E+04</pdfrwt>
<pdfrwt beam="2">  1       -1 0.16669430E+00 0.32875659E+04</pdfrwt>
<totfact> 0.29572663E-01</totfact>
</mgrwt>
</event>
<event>
12    1  0.4967442E-008  0.4204249E+04  0.7818608E-02  0.7964564E-01
          1   -1    0    0  501    0  0.00000000000E+00  0.00000000000E+00  0.44231489434E+04  0.44231489434E+04  0.00000000000E+00 0. -1.
         -1   -1    0    0    0  501 -0.00000000000E+00 -0.00000000000E+00 -0.99904581138E+03  0.99904581138E+03  0.00000000000E+00 0.  1.
         23    2    1    2    0    0 -0.14384729477E+04  0.87759843980E+03  0.22769885452E+03  0.17023409881E+04  0.82064783068E+02 0.  0.
        254    2    1    2    0    0  0.14384729477E+04 -0.87759843980E+03  0.31964042775E+04  0.37198537667E+04  0.88370147553E+03 0.  0.
         23    2    4    4    0    0  0.10757659986E+04 -0.10214623316E+04  0.23057775760E+04  0.27432387447E+04  0.89948883991E+02 0.  0.
         23    2    4    4    0    0  0.36270694907E+03  0.14386389182E+03  0.89062670145E+03  0.97661502199E+03  0.91147295940E+02 0.  0.
         11    1    3    3    0    0 -0.21561791362E+03  0.16598498030E+03  0.29959034245E+02  0.27375105861E+03  0.00000000000E+00 0. -1.
        -11    1    3    3    0    0 -0.12228550340E+04  0.71161345950E+03  0.19773982027E+03  0.14285899295E+04  0.00000000000E+00 0.  1.
          2    1    5    5  502    0  0.25525701340E+03 -0.25271726365E+03  0.63016864409E+03  0.72535141706E+03  0.00000000000E+00 0. -1.
          3    1    6    6  503    0  0.57600728021E+02  0.25544368275E+02  0.76045827207E+02  0.98758931013E+02  0.00000000000E+00 0. -1.
         -2    1    5    5    0  502  0.82050898518E+03 -0.76874506798E+03  0.16756089319E+04  0.20178873276E+04  0.00000000000E+00 0.  1.
         -3    1    6    6    0  503  0.30510622105E+03  0.11831952355E+03  0.81458087424E+03  0.87785609097E+03  0.00000000000E+00 0.  1.
<mgrwt>
<rscale>  0 0.42042495E+04</rscale>
<asrwt>0</asrwt>
<pdfrwt beam="1">  1        1 0.68048444E+00 0.42042495E+04</pdfrwt>
<pdfrwt beam="2">  1       -1 0.15369936E+00 0.42042495E+04</pdfrwt>
<totfact> 0.96314260E-03</totfact>
</mgrwt>
</event>
<event>
12    1  0.4967442E-008  0.2166212E+04  0.7818608E-02  0.8532624E-01
         -1   -1    0    0    0  501 -0.00000000000E+00  0.00000000000E+00  0.15968414455E+04  0.15968414455E+04  0.00000000000E+00 0.  1.
          1   -1    0    0  501    0  0.00000000000E+00 -0.00000000000E+00 -0.73464944992E+03  0.73464944992E+03  0.00000000000E+00 0. -1.
         23    2    1    2    0    0  0.72041734054E+03  0.48865137289E+03  0.56749142477E+03  0.10428466996E+04  0.87757694827E+02 0.  0.
        254    2    1    2    0    0 -0.72041734054E+03 -0.48865137289E+03  0.29470057079E+03  0.12886441958E+04  0.90331286277E+03 0.  0.
         23    2    4    4    0    0 -0.48195956553E+03  0.10660174730E+03 -0.12428172575E+03  0.51718399314E+03  0.91566260586E+02 0.  0.
         23    2    4    4    0    0 -0.23845777502E+03 -0.59525312020E+03  0.41898229654E+03  0.77146020261E+03  0.91740350076E+02 0.  0.
         13    1    3    3    0    0  0.49085215791E+02  0.14577673803E+02  0.50472117338E+02  0.71897855402E+02  0.00000000000E+00 0. -1.
        -13    1    3    3    0    0  0.67133212475E+03  0.47407369909E+03  0.51701930743E+03  0.97094884425E+03  0.00000000000E+00 0.  1.
          2    1    5    5  502    0 -0.39961895996E+03  0.11745836684E+03 -0.12229960076E+03  0.43410709904E+03  0.00000000000E+00 0. -1.
          4    1    6    6  503    0 -0.20857944318E+03 -0.41896547695E+03  0.32160080334E+03  0.56785960562E+03  0.00000000000E+00 0. -1.
         -2    1    5    5    0  502 -0.82340605570E+02 -0.10856619533E+02 -0.19821249892E+01  0.83076894097E+02  0.00000000000E+00 0.  1.
         -4    1    6    6    0  503 -0.29878331832E+02 -0.17628764325E+03  0.97381493200E+02  0.20360059699E+03  0.00000000000E+00 0.  1.
<mgrwt>
<rscale>  0 0.21662121E+04</rscale>
<asrwt>0</asrwt>
<pdfrwt beam="1">  1        1 0.11302299E+00 0.21662121E+04</pdfrwt>
<pdfrwt beam="2">  1       -1 0.24566791E+00 0.21662121E+04</pdfrwt>
<totfact> 0.17212076E+00</totfact>
</mgrwt>
</event>
<event>
12    1  0.4967442E-008  0.1136075E+04  0.7818608E-02  0.9170727E-01
          2   -1    0    0  501    0  0.00000000000E+00  0.00000000000E+00  0.59296976453E+03  0.59296976453E+03  0.00000000000E+00 0. -1.
         -2   -1    0    0    0  501 -0.00000000000E+00 -0.00000000000E+00 -0.54415346967E+03  0.54415346967E+03  0.00000000000E+00 0.  1.
         23    2    1    2    0    0  0.74708833086E+02 -0.92343779570E+02  0.17096714740E+03  0.22672166494E+03  0.89800693189E+02 0.  0.
        254    2    1    2    0    0 -0.74708833086E+02  0.92343779570E+02 -0.12215085254E+03  0.91040156926E+03  0.89431616511E+03 0.  0.
         23    2    4    4    0    0  0.37379681117E+03 -0.10732651700E+03 -0.15090028835E+02  0.39980125676E+03  0.91489336238E+02 0.  0.
         23    2    4    4    0    0 -0.44850564425E+03  0.19967029657E+03 -0.10706082371E+03  0.51060031251E+03  0.90692441262E+02 0.  0.
         11    1    3    3    0    0  0.37949810646E+01 -0.62971676904E+02  0.39331650736E+02  0.74342536431E+02  0.00000000000E+00 0.  1.
        -11    1    3    3    0    0  0.70913852021E+02 -0.29372102667E+02  0.13163549667E+03  0.15237912851E+03  0.00000000000E+00 0. -1.
          1    1    5    5  502    0  0.96522297426E+02 -0.71066100123E+02 -0.63032150495E+01  0.12002780931E+03  0.00000000000E+00 0. -1.
          3    1    6    6  503    0 -0.11713247564E+03  0.96764327891E+02 -0.41227483102E+02  0.15742635537E+03  0.00000000000E+00 0. -1.
         -1    1    5    5    0  502  0.27727451374E+03 -0.36260416878E+02 -0.87868137857E+01  0.27977344745E+03  0.00000000000E+00 0.  1.
         -3    1    6    6    0  503 -0.33137316862E+03  0.10290596868E+03 -0.65833340603E+02  0.35317395714E+03  0.00000000000E+00 0.  1.
<mgrwt>
<rscale>  0 0.11360749E+04</rscale>
<asrwt>0</asrwt>
<pdfrwt beam="1">  1        2 0.91226117E-01 0.11360749E+04</pdfrwt>
<pdfrwt beam="2">  1       -2 0.83715919E-01 0.11360749E+04</pdfrwt>
<totfact> 0.62206201E+01</totfact>
</mgrwt>
</event>
<event>
12    1  0.4967442E-008  0.2292510E+04  0.7818608E-02  0.8480880E-01
          2   -1    0    0  501    0  0.00000000000E+00  0.00000000000E+00  0.15339831699E+04  0.15339831699E+04  0.00000000000E+00 0. -1.
         -2   -1    0    0    0  501 -0.00000000000E+00 -0.00000000000E+00 -0.85652870455E+03  0.85652870455E+03  0.00000000000E+00 0.  1.
         23    2    1    2    0    0 -0.49262501781E+02  0.26308854957E+03 -0.68214425728E+03  0.73836119864E+03  0.90631633102E+02 0.  0.
        254    2    1    2    0    0  0.49262501781E+02 -0.26308854957E+03  0.13595987226E+04  0.16521506758E+04  0.89969483162E+03 0.  0.
         23    2    4    4    0    0 -0.42243659148E+02  0.32107806123E+03  0.42038431473E+03  0.53856461159E+03  0.91941397868E+02 0.  0.
         23    2    4    4    0    0  0.91506160930E+02 -0.58416661081E+03  0.93921440791E+03  0.11135860642E+04  0.91248078219E+02 0.  0.
         13    1    3    3    0    0  0.23166634203E+02  0.29739609526E+02 -0.76326099229E+02  0.85128201782E+02  0.00000000000E+00 0. -1.
        -13    1    3    3    0    0 -0.72429135984E+02  0.23334894005E+03 -0.60581815805E+03  0.65323299686E+03  0.00000000000E+00 0.  1.
          2    1    5    5  502    0 -0.24479073836E+02  0.22681179336E+03  0.22255903983E+03  0.31870886538E+03  0.00000000000E+00 0. -1.
          3    1    6    6  503    0 -0.68849476206E+00 -0.15199531532E+03  0.18479280578E+03  0.23927271255E+03  0.00000000000E+00 0.  1.
         -2    1    5    5    0  502 -0.17764585312E+02  0.94266267868E+02  0.19782527491E+03  0.21985574621E+03  0.00000000000E+00 0.  1.
         -3    1    6    6    0  503  0.92194655692E+02 -0.43217129548E+03  0.75442160213E+03  0.87431335169E+03  0.00000000000E+00 0. -1.
<mgrwt>
<rscale>  0 0.22925101E+04</rscale>
<asrwt>0</asrwt>
<pdfrwt beam="1">  1        2 0.23599741E+00 0.22925101E+04</pdfrwt>
<pdfrwt beam="2">  1       -2 0.13177365E+00 0.22925101E+04</pdfrwt>
<totfact> 0.46241541E+00</totfact>
</mgrwt>
</event>
<event>
12    1  0.4967442E-008  0.1534733E+04  0.7818608E-02  0.8861679E-01
          1   -1    0    0  501    0  0.00000000000E+00  0.00000000000E+00  0.47956587307E+03  0.47956587307E+03  0.00000000000E+00 0. -1.
         -1   -1    0    0    0  501 -0.00000000000E+00 -0.00000000000E+00 -0.12278833991E+04  0.12278833991E+04  0.00000000000E+00 0.  1.
         23    2    1    2    0    0 -0.13028370063E+03  0.15819730222E+03 -0.74641531506E+03  0.78091985374E+03  0.10343967483E+03 0.  0.
        254    2    1    2    0    0  0.13028370063E+03 -0.15819730222E+03 -0.19022109201E+01  0.92652941838E+03  0.90357784149E+03 0.  0.
         23    2    4    4    0    0 -0.31318163630E+03 -0.20327004082E+03 -0.19827698324E+03  0.43188591179E+03  0.88375516446E+02 0.  0.
         23    2    4    4    0    0  0.44346533694E+03  0.45072738599E+02  0.19637477232E+03  0.49464350659E+03  0.86116726456E+02 0.  0.
         13    1    3    3    0    0 -0.33581761659E+02 -0.10276752366E+02 -0.10322570782E+03  0.10903620091E+03  0.00000000000E+00 0. -1.
        -13    1    3    3    0    0 -0.96701938975E+02  0.16847405459E+03 -0.64318960724E+03  0.67188365283E+03  0.00000000000E+00 0.  1.
          4    1    5    5  502    0 -0.26437554332E+03 -0.20513814819E+03 -0.17772620513E+03  0.37889667686E+03  0.00000000000E+00 0. -1.
          4    1    6    6  503    0  0.18672805798E+03  0.54844693994E+02  0.11021938703E+03  0.22365961051E+03  0.00000000000E+00 0. -1.
         -4    1    5    5    0  502 -0.48806092980E+02  0.18681073662E+01 -0.20550778116E+02  0.52989234928E+02  0.00000000000E+00 0.  1.
         -4    1    6    6    0  503  0.25673727896E+03 -0.97719553950E+01  0.86155385294E+02  0.27098389608E+03  0.00000000000E+00 0.  1.
<mgrwt>
<rscale>  0 0.15347325E+04</rscale>
<asrwt>0</asrwt>
<pdfrwt beam="1">  1        1 0.73779366E-01 0.15347325E+04</pdfrwt>
<pdfrwt beam="2">  1       -1 0.18890514E+00 0.15347325E+04</pdfrwt>
<totfact> 0.81435881E+00</totfact>
</mgrwt>
</event>
<event>
12    1  0.4967442E-008  0.1394997E+04  0.7818608E-02  0.8957448E-01
          1   -1    0    0  501    0  0.00000000000E+00  0.00000000000E+00  0.50642909054E+03  0.50642909054E+03  0.00000000000E+00 0. -1.
         -1   -1    0    0    0  501 -0.00000000000E+00 -0.00000000000E+00 -0.96065634566E+03  0.96065634566E+03  0.00000000000E+00 0.  1.
         23    2    1    2    0    0 -0.13803549118E+03 -0.33289230044E+03  0.50638409217E+02  0.37496582650E+03  0.90355088603E+02 0.  0.
        254    2    1    2    0    0  0.13803549118E+03  0.33289230044E+03 -0.50486566433E+03  0.10921196097E+04  0.89886863465E+03 0.  0.
         23    2    4    4    0    0  0.24097582392E+03  0.16350721998E+01 -0.65592769451E+03  0.70444074182E+03  0.89014589478E+02 0.  0.
         23    2    4    4    0    0 -0.10294033274E+03  0.33125722824E+03  0.15106203018E+03  0.38767886788E+03  0.84540548101E+02 0.  0.
         11    1    3    3    0    0 -0.34982829841E+02 -0.45312772758E+02 -0.21375712381E+02  0.61106193127E+02  0.00000000000E+00 0.  1.
        -11    1    3    3    0    0 -0.10305266134E+03 -0.28757952768E+03  0.72014121597E+02  0.31385963337E+03  0.00000000000E+00 0. -1.
          1    1    5    5  502    0 -0.93828996918E+00 -0.14126343860E+02 -0.28943024803E+02  0.32220066165E+02  0.00000000000E+00 0. -1.
          3    1    6    6  503    0 -0.35477848840E+02  0.32184294593E+02  0.52628920390E+01  0.48189258236E+02  0.00000000000E+00 0. -1.
         -1    1    5    5    0  502  0.24191411389E+03  0.15761416059E+02 -0.62698466971E+03  0.67222067566E+03  0.00000000000E+00 0.  1.
         -3    1    6    6    0  503 -0.67462483903E+02  0.29907293365E+03  0.14579913814E+03  0.33948960964E+03  0.00000000000E+00 0.  1.
<mgrwt>
<rscale>  0 0.13949972E+04</rscale>
<asrwt>0</asrwt>
<pdfrwt beam="1">  1        1 0.77912169E-01 0.13949972E+04</pdfrwt>
<pdfrwt beam="2">  1       -1 0.14779328E+00 0.13949972E+04</pdfrwt>
<totfact> 0.15424070E+01</totfact>
</mgrwt>
</event>
<event>
12    1  0.4967442E-008  0.1947846E+04  0.7818608E-02  0.8631400E-01
          1   -1    0    0  501    0  0.00000000000E+00  0.00000000000E+00  0.15978192729E+04  0.15978192729E+04  0.00000000000E+00 0. -1.
         -1   -1    0    0    0  501 -0.00000000000E+00 -0.00000000000E+00 -0.59363775395E+03  0.59363775395E+03  0.00000000000E+00 0.  1.
         23    2    1    2    0    0  0.26661034533E+03  0.16313295115E+03 -0.38994869695E+03  0.50818217186E+03  0.92172108348E+02 0.  0.
        254    2    1    2    0    0 -0.26661034533E+03 -0.16313295115E+03  0.13941302159E+04  0.16832748550E+04  0.89001221487E+03 0.  0.
         23    2    4    4    0    0 -0.26280361424E+02 -0.45899394516E+03  0.10909013563E+04  0.11870286178E+04  0.87207059747E+02 0.  0.
         23    2    4    4    0    0 -0.24032998390E+03  0.29586099401E+03  0.30322885961E+03  0.49624623718E+03  0.94975563606E+02 0.  0.
         13    1    3    3    0    0  0.14615657690E+03  0.36632322087E+02 -0.19486389722E+03  0.24632419782E+03  0.00000000000E+00 0. -1.
        -13    1    3    3    0    0  0.12045376842E+03  0.12650062907E+03 -0.19508479973E+03  0.26185797404E+03  0.00000000000E+00 0.  1.
          4    1    5    5  502    0 -0.21578815046E+02 -0.37709714537E+03  0.79834055099E+03  0.88318488305E+03  0.00000000000E+00 0. -1.
          3    1    6    6  503    0 -0.18131848368E+03  0.24336637263E+03  0.28242968353E+03  0.41457220118E+03  0.00000000000E+00 0. -1.
         -4    1    5    5    0  502 -0.47015463783E+01 -0.81896799791E+02  0.29256080533E+03  0.30384373479E+03  0.00000000000E+00 0.  1.
         -3    1    6    6    0  503 -0.59011500220E+02  0.52494621377E+02  0.20799176078E+02  0.81674036005E+02  0.00000000000E+00 0.  1.
<mgrwt>
<rscale>  0 0.19478458E+04</rscale>
<asrwt>0</asrwt>
<pdfrwt beam="1">  1        1 0.24581835E+00 0.19478458E+04</pdfrwt>
<pdfrwt beam="2">  1       -1 0.91328886E-01 0.19478458E+04</pdfrwt>
<totfact> 0.61006865E+00</totfact>
</mgrwt>
</event>
<event>
12    1  0.4967442E-008  0.2273366E+04  0.7818608E-02  0.8488497E-01
          2   -1    0    0  501    0  0.00000000000E+00  0.00000000000E+00  0.17732924265E+04  0.17732924265E+04  0.00000000000E+00 0.  1.
         -2   -1    0    0    0  501 -0.00000000000E+00 -0.00000000000E+00 -0.72861568200E+03  0.72861568200E+03  0.00000000000E+00 0. -1.
         23    2    1    2    0    0 -0.29595650886E+03  0.12996481163E+02  0.14497462495E+04  0.14824547369E+04  0.90270124892E+02 0.  0.
        254    2    1    2    0    0  0.29595650886E+03 -0.12996481163E+02 -0.40506950501E+03  0.10194533716E+04  0.88738081410E+03 0.  0.
         23    2    4    4    0    0 -0.22101393020E+03 -0.12631372170E+03 -0.40092450680E+03  0.48416264187E+03  0.94184340477E+02 0.  0.
         23    2    4    4    0    0  0.51697043906E+03  0.11331724054E+03 -0.41449982017E+01  0.53529072968E+03  0.80123357424E+02 0.  0.
         13    1    3    3    0    0 -0.22242168032E+02  0.19968299977E+02  0.25445710061E+03  0.25620668042E+03  0.00000000000E+00 0. -1.
        -13    1    3    3    0    0 -0.27371434083E+03 -0.69718188139E+01  0.11952891489E+04  0.12262480565E+04  0.00000000000E+00 0.  1.
          4    1    5    5  502    0  0.47693881994E+01  0.71289950102E+01 -0.78696681167E+01  0.11640502992E+02  0.00000000000E+00 0. -1.
          3    1    6    6  503    0  0.30286150361E+03  0.67651413313E+02 -0.41877522285E+02  0.31313819787E+03  0.00000000000E+00 0. -1.
         -4    1    5    5    0  502 -0.22578331840E+03 -0.13344271671E+03 -0.39305483869E+03  0.47252213888E+03  0.00000000000E+00 0.  1.
         -3    1    6    6    0  503  0.21410893546E+03  0.45665827229E+02  0.37732524083E+02  0.22215253182E+03  0.00000000000E+00 0.  1.
<mgrwt>
<rscale>  0 0.22733664E+04</rscale>
<asrwt>0</asrwt>
<pdfrwt beam="1">  1        2 0.27281422E+00 0.22733664E+04</pdfrwt>
<pdfrwt beam="2">  1       -2 0.11209472E+00 0.22733664E+04</pdfrwt>
<totfact> 0.50916558E+00</totfact>
</mgrwt>
</event>
<event>
12    1  0.4967442E-008  0.2005989E+04  0.7818608E-02  0.8603826E-01
          1   -1    0    0  501    0  0.00000000000E+00  0.00000000000E+00  0.72493325127E+03  0.72493325127E+03  0.00000000000E+00 0. -1.
         -1   -1    0    0    0  501 -0.00000000000E+00 -0.00000000000E+00 -0.13877116222E+04  0.13877116222E+04  0.00000000000E+00 0.  1.
         23    2    1    2    0    0  0.69007976255E+03  0.24582979825E+03 -0.54929759110E+03  0.92022796605E+03  0.91920060495E+02 0.  0.
        254    2    1    2    0    0 -0.69007976255E+03 -0.24582979825E+03 -0.11348077987E+03  0.11924169075E+04  0.93399027051E+03 0.  0.
         23    2    4    4    0    0 -0.67640743302E+03  0.91414660990E+02  0.20613702517E+03  0.71879142101E+03  0.91021854987E+02 0.  0.
         23    2    4    4    0    0 -0.13672329525E+02 -0.33724445924E+03 -0.31961780504E+03  0.47362548645E+03  0.90800893318E+02 0.  0.
         11    1    3    3    0    0  0.53798439184E+03  0.15512660037E+03 -0.44025094232E+03  0.71225863295E+03  0.00000000000E+00 0.  1.
        -11    1    3    3    0    0  0.15209537071E+03  0.90703197883E+02 -0.10904664878E+03  0.20796933309E+03  0.00000000000E+00 0. -1.
          2    1    5    5  502    0 -0.11820415739E+02  0.83267981097E+01 -0.68243651776E+01  0.15988425659E+02  0.00000000000E+00 0. -1.
          4    1    6    6  503    0 -0.51934114805E+02 -0.21948101900E+03 -0.21308471824E+03  0.31028078756E+03  0.00000000000E+00 0. -1.
         -2    1    5    5    0  502 -0.66458701728E+03  0.83087862880E+02  0.21296139035E+03  0.70280299535E+03  0.00000000000E+00 0.  1.
         -4    1    6    6    0  503  0.38261785280E+02 -0.11776344024E+03 -0.10653308680E+03  0.16334469888E+03  0.00000000000E+00 0.  1.
<mgrwt>
<rscale>  0 0.20059893E+04</rscale>
<asrwt>0</asrwt>
<pdfrwt beam="1">  1        1 0.11152819E+00 0.20059893E+04</pdfrwt>
<pdfrwt beam="2">  1       -1 0.21349409E+00 0.20059893E+04</pdfrwt>
<totfact> 0.29138990E+00</totfact>
</mgrwt>
</event>
<event>
12    1  0.4967442E-008  0.1558041E+04  0.7818608E-02  0.8846748E-01
         -1   -1    0    0    0  501 -0.00000000000E+00  0.00000000000E+00  0.11329425156E+04  0.11329425156E+04  0.00000000000E+00 0.  1.
          1   -1    0    0  501    0  0.00000000000E+00 -0.00000000000E+00 -0.53566087222E+03  0.53566087222E+03  0.00000000000E+00 0. -1.
         23    2    1    2    0    0 -0.32538081192E+02 -0.24536836848E+03 -0.27603854135E+03  0.38210687079E+03  0.92433875931E+02 0.  0.
        254    2    1    2    0    0  0.32538081192E+02  0.24536836848E+03  0.87332018475E+03  0.12864965171E+04  0.91165825852E+03 0.  0.
         23    2    4    4    0    0  0.12535629145E+03  0.48465959152E+03  0.17578971233E+03  0.53768381167E+03  0.87136323712E+02 0.  0.
         23    2    4    4    0    0 -0.92818210261E+02 -0.23929122304E+03  0.69753047241E+03  0.74881270539E+03  0.91083468466E+02 0.  0.
         11    1    3    3    0    0 -0.51424150579E+02 -0.20011595949E+03 -0.25638841060E+03  0.32928081875E+03  0.00000000000E+00 0. -1.
        -11    1    3    3    0    0  0.18886069387E+02 -0.45252408988E+02 -0.19650130747E+02  0.52826052043E+02  0.00000000000E+00 0.  1.
          2    1    5    5  502    0  0.27987291153E+02  0.27664266370E+03  0.85594803548E+02  0.29093112972E+03  0.00000000000E+00 0. -1.
          3    1    6    6  503    0 -0.19737935077E+02  0.23569733352E+01  0.49300183090E+02  0.53156838291E+02  0.00000000000E+00 0. -1.
         -2    1    5    5    0  502  0.97369000300E+02  0.20801692782E+03  0.90194908785E+02  0.24675268195E+03  0.00000000000E+00 0.  1.
         -3    1    6    6    0  503 -0.73080275184E+02 -0.24164819637E+03  0.64823028932E+03  0.69565586710E+03  0.00000000000E+00 0.  1.
<mgrwt>
<rscale>  0 0.15580410E+04</rscale>
<asrwt>0</asrwt>
<pdfrwt beam="1">  1        1 0.82409365E-01 0.15580410E+04</pdfrwt>
<pdfrwt beam="2">  1       -1 0.17429885E+00 0.15580410E+04</pdfrwt>
<totfact> 0.88712366E+00</totfact>
</mgrwt>
</event>
<event>
12    1  0.4967442E-008  0.1165053E+04  0.7818608E-02  0.9144008E-01
          2   -1    0    0  501    0  0.00000000000E+00  0.00000000000E+00  0.38913015423E+03  0.38913015423E+03  0.00000000000E+00 0. -1.
         -2   -1    0    0    0  501 -0.00000000000E+00 -0.00000000000E+00 -0.87203951420E+03  0.87203951420E+03  0.00000000000E+00 0.  1.
         23    2    1    2    0    0  0.18948103748E+03 -0.74627395865E+01  0.15841825600E+02  0.21007132621E+03  0.88995744892E+02 0.  0.
        254    2    1    2    0    0 -0.18948103748E+03  0.74627395865E+01 -0.49875118556E+03  0.10510983422E+04  0.90559164300E+03 0.  0.
         23    2    4    4    0    0 -0.35703756178E+03  0.20619261273E+03  0.62588537262E+02  0.42618579133E+03  0.87896471322E+02 0.  0.
         23    2    4    4    0    0  0.16755652429E+03 -0.19872987314E+03 -0.56133972283E+03  0.62491255089E+03  0.88570088217E+02 0.  0.
         13    1    3    3    0    0  0.85032682648E+02 -0.46989955081E+02 -0.83129752161E+00  0.97156080882E+02  0.00000000000E+00 0. -1.
        -13    1    3    3    0    0  0.10444835484E+03  0.39527215494E+02  0.16673123122E+02  0.11291524533E+03  0.00000000000E+00 0.  1.
          2    1    5    5  502    0 -0.55021638825E+02  0.65586099772E+02 -0.68534585265E+01  0.85882985021E+02  0.00000000000E+00 0. -1.
          1    1    6    6  503    0  0.13554782910E+02  0.44096332466E+01 -0.97583405263E+01  0.17274322416E+02  0.00000000000E+00 0. -1.
         -2    1    5    5    0  502 -0.30201592295E+03  0.14060651296E+03  0.69441995788E+02  0.34030280631E+03  0.00000000000E+00 0.  1.
         -1    1    6    6    0  503  0.15400174138E+03 -0.20313950639E+03 -0.55158138230E+03  0.60763822848E+03  0.00000000000E+00 0.  1.
<mgrwt>
<rscale>  0 0.11650526E+04</rscale>
<asrwt>0</asrwt>
<pdfrwt beam="1">  1        2 0.59866178E-01 0.11650526E+04</pdfrwt>
<pdfrwt beam="2">  1       -2 0.13415992E+00 0.11650526E+04</pdfrwt>
<totfact> 0.32494164E+01</totfact>
</mgrwt>
</event>
<event>
12    1  0.4967442E-008  0.2025087E+04  0.7818608E-02  0.8594980E-01
          1   -1    0    0  501    0  0.00000000000E+00  0.00000000000E+00  0.27833513894E+04  0.27833513894E+04  0.00000000000E+00 0. -1.
         -1   -1    0    0    0  501 -0.00000000000E+00 -0.00000000000E+00 -0.36834903565E+03  0.36834903565E+03  0.00000000000E+00 0.  1.
         23    2    1    2    0    0 -0.16715796061E+03 -0.69246401443E+03  0.37883101586E+03  0.81202615647E+03  0.91789678816E+02 0.  0.
        254    2    1    2    0    0  0.16715796061E+03  0.69246401443E+03  0.20361713379E+04  0.23396742686E+04  0.90588838758E+03 0.  0.
         23    2    4    4    0    0  0.83193206171E+02  0.87541602201E+03  0.18495965146E+04  0.20500328554E+04  0.91395404717E+02 0.  0.
         23    2    4    4    0    0  0.83964754444E+02 -0.18295200758E+03  0.18657482330E+03  0.28964141325E+03  0.92522789164E+02 0.  0.
         13    1    3    3    0    0 -0.64297627759E+02 -0.23546827448E+03  0.17932845163E+03  0.30288312397E+03  0.00000000000E+00 0. -1.
        -13    1    3    3    0    0 -0.10286033286E+03 -0.45699573995E+03  0.19950256422E+03  0.50914303250E+03  0.00000000000E+00 0.  1.
          4    1    6    6  502    0 -0.41321228908E+01 -0.14300688404E+01  0.40031907300E+02  0.40270002962E+02  0.00000000000E+00 0.  1.
          4    1    5    5  503    0  0.67488566788E+02  0.85186588613E+03  0.18072694129E+04  0.19991130347E+04  0.00000000000E+00 0. -1.
         -4    1    5    5    0  503  0.15704639382E+02  0.23550135876E+02  0.42327101681E+02  0.50919820646E+02  0.00000000000E+00 0.  1.
         -4    1    6    6    0  502  0.88096877335E+02 -0.18152193874E+03  0.14654291600E+03  0.24937141029E+03  0.00000000000E+00 0. -1.
<mgrwt>
<rscale>  0 0.20250875E+04</rscale>
<asrwt>0</asrwt>
<pdfrwt beam="1">  1        1 0.42820789E+00 0.20250875E+04</pdfrwt>
<pdfrwt beam="2">  1       -1 0.56669084E-01 0.20250875E+04</pdfrwt>
<totfact> 0.25015041E+00</totfact>
</mgrwt>
</event>
<event>
12    1  0.4967442E-008  0.1563510E+04  0.7818608E-02  0.8843284E-01
         -1   -1    0    0    0  501 -0.00000000000E+00  0.00000000000E+00  0.96544342915E+03  0.96544342915E+03  0.00000000000E+00 0.  1.
          1   -1    0    0  501    0  0.00000000000E+00 -0.00000000000E+00 -0.63301597185E+03  0.63301597185E+03  0.00000000000E+00 0. -1.
         23    2    1    2    0    0 -0.19307456405E+03  0.22178066754E+02 -0.38039577391E+03  0.43656086305E+03  0.90082120372E+02 0.  0.
        254    2    1    2    0    0  0.19307456405E+03 -0.22178066754E+02  0.71282323121E+03  0.11618985379E+04  0.89672827523E+03 0.  0.
         23    2    4    4    0    0  0.49486803732E+02 -0.54743827461E+02  0.89959165750E+03  0.90723793691E+03  0.91486029272E+02 0.  0.
         23    2    4    4    0    0  0.14358776032E+03  0.32565760707E+02 -0.18676842629E+03  0.25466060103E+03  0.91058239472E+02 0.  0.
         11    1    3    3    0    0 -0.18874660149E+03  0.11946175228E+00 -0.35865425585E+03  0.40528776084E+03  0.00000000000E+00 0. -1.
        -11    1    3    3    0    0 -0.43279625633E+01  0.22058605001E+02 -0.21741518059E+02  0.31273102214E+02  0.00000000000E+00 0.  1.
          2    1    5    5  502    0 -0.47436083998E+01 -0.33423202494E+02  0.65232698134E+03  0.65319989504E+03  0.00000000000E+00 0. -1.
          1    1    6    6  503    0  0.79455945105E+02  0.16281552986E+02 -0.16691821265E+03  0.18558024112E+03  0.00000000000E+00 0. -1.
         -2    1    5    5    0  502  0.54230412132E+02 -0.21320624967E+02  0.24726467615E+03  0.25403804188E+03  0.00000000000E+00 0.  1.
         -1    1    6    6    0  503  0.64131815216E+02  0.16284207721E+02 -0.19850213637E+02  0.69080359911E+02  0.00000000000E+00 0.  1.
<mgrwt>
<rscale>  0 0.15635103E+04</rscale>
<asrwt>0</asrwt>
<pdfrwt beam="1">  1        1 0.97387072E-01 0.15635103E+04</pdfrwt>
<pdfrwt beam="2">  1       -1 0.14852976E+00 0.15635103E+04</pdfrwt>
<totfact> 0.10921765E+01</totfact>
</mgrwt>
</event>
<event>
12    1  0.4967442E-008  0.1847151E+04  0.7818608E-02  0.8681619E-01
          2   -1    0    0  501    0  0.00000000000E+00  0.00000000000E+00  0.15940100753E+04  0.15940100753E+04  0.00000000000E+00 0. -1.
         -2   -1    0    0    0  501 -0.00000000000E+00 -0.00000000000E+00 -0.53512317632E+03  0.53512317632E+03  0.00000000000E+00 0.  1.
         23    2    1    2    0    0 -0.42703291600E+03  0.32899668344E+03  0.91359261102E+03  0.10647718465E+04  0.92150405188E+02 0.  0.
        254    2    1    2    0    0  0.42703291600E+03 -0.32899668344E+03  0.14529428799E+03  0.10643614051E+04  0.90617815111E+03 0.  0.
         23    2    4    4    0    0  0.45657386117E+02  0.29018345818E+03  0.12225934732E+03  0.33108766729E+03  0.91545939899E+02 0.  0.
         23    2    4    4    0    0  0.38137552988E+03 -0.61918014163E+03  0.23034940672E+02  0.73327373784E+03  0.91260196917E+02 0.  0.
         13    1    3    3    0    0 -0.25734894780E+03  0.24834116468E+03  0.63413271950E+03  0.72802892865E+03  0.00000000000E+00 0.  1.
        -13    1    3    3    0    0 -0.16968396820E+03  0.80655518767E+02  0.27945989152E+03  0.33674291788E+03  0.00000000000E+00 0. -1.
          2    1    5    5  502    0  0.48304774634E+02  0.62127971592E+02  0.42723281887E+02  0.89546160844E+02  0.00000000000E+00 0. -1.
          3    1    6    6  503    0  0.15599299926E+03 -0.24642177754E+03  0.53891998778E+02  0.29658364048E+03  0.00000000000E+00 0. -1.
         -2    1    5    5    0  502 -0.26473885176E+01  0.22805548659E+03  0.79536065431E+02  0.24154150644E+03  0.00000000000E+00 0.  1.
         -3    1    6    6    0  503  0.22538253062E+03 -0.37275836408E+03 -0.30857058106E+02  0.43669009737E+03  0.00000000000E+00 0.  1.
<mgrwt>
<rscale>  0 0.18471510E+04</rscale>
<asrwt>0</asrwt>
<pdfrwt beam="1">  1        2 0.24523232E+00 0.18471510E+04</pdfrwt>
<pdfrwt beam="2">  1       -2 0.82326643E-01 0.18471510E+04</pdfrwt>
<totfact> 0.13694435E+01</totfact>
</mgrwt>
</event>
<event>
12    1  0.4967442E-008  0.2057007E+04  0.7818608E-02  0.8580422E-01
          2   -1    0    0  501    0  0.00000000000E+00  0.00000000000E+00  0.27270544011E+04  0.27270544011E+04  0.00000000000E+00 0. -1.
         -2   -1    0    0    0  501 -0.00000000000E+00 -0.00000000000E+00 -0.38789832777E+03  0.38789832777E+03  0.00000000000E+00 0.  1.
         23    2    1    2    0    0  0.40846623187E+03 -0.72355326325E+03  0.74406226973E+03  0.11190787657E+04  0.91294224182E+02 0.  0.
        254    2    1    2    0    0 -0.40846623187E+03  0.72355326325E+03  0.15950938036E+04  0.19958739632E+04  0.86534076932E+03 0.  0.
         23    2    4    4    0    0 -0.14647716097E+03 -0.16334241106E+03  0.54107230528E+03  0.59058427589E+03  0.88849566405E+02 0.  0.
         23    2    4    4    0    0 -0.26198907090E+03  0.88689567431E+03  0.10540214984E+04  0.14052896873E+04  0.93035346733E+02 0.  0.
         13    1    3    3    0    0  0.74866852854E+02 -0.12772848368E+03  0.88565278468E+02  0.17252078063E+03  0.00000000000E+00 0. -1.
        -13    1    3    3    0    0  0.33359937902E+03 -0.59582477957E+03  0.65549699126E+03  0.94655798511E+03  0.00000000000E+00 0.  1.
          1    1    5    5  502    0 -0.21055624034E+02  0.12031436111E+01  0.11520655970E+03  0.11712104104E+03  0.00000000000E+00 0. -1.
          3    1    6    6  503    0 -0.24672425925E+02  0.19210082610E+03  0.25419821267E+03  0.31957501046E+03  0.00000000000E+00 0. -1.
         -1    1    5    5    0  502 -0.12542153694E+03 -0.16454555467E+03  0.42586574558E+03  0.47346323485E+03  0.00000000000E+00 0.  1.
         -3    1    6    6    0  503 -0.23731664498E+03  0.69479484822E+03  0.79982328569E+03  0.10857146768E+04  0.00000000000E+00 0.  1.
<mgrwt>
<rscale>  0 0.20570074E+04</rscale>
<asrwt>0</asrwt>
<pdfrwt beam="1">  1        2 0.41954682E+00 0.20570074E+04</pdfrwt>
<pdfrwt beam="2">  1       -2 0.59676668E-01 0.20570074E+04</pdfrwt>
<totfact> 0.62046026E+00</totfact>
</mgrwt>
</event>
<event>
12    1  0.4967442E-008  0.1768683E+04  0.7818608E-02  0.8723133E-01
         -2   -1    0    0    0  501 -0.00000000000E+00  0.00000000000E+00  0.34537431742E+03  0.34537431742E+03  0.00000000000E+00 0.  1.
          2   -1    0    0  501    0  0.00000000000E+00 -0.00000000000E+00 -0.22643833442E+04  0.22643833442E+04  0.00000000000E+00 0. -1.
         23    2    1    2    0    0 -0.42329737825E+03 -0.52556745883E+02  0.10465352209E+02  0.43640713573E+03  0.91644871911E+02 0.  0.
        254    2    1    2    0    0  0.42329737825E+03  0.52556745883E+02 -0.19294743790E+04  0.21733505259E+04  0.90478629920E+03 0.  0.
         23    2    4    4    0    0  0.36230150955E+03 -0.33535531212E+03 -0.59320511902E+03  0.77747749582E+03  0.94092369968E+02 0.  0.
         23    2    4    4    0    0  0.60995868706E+02  0.38791205800E+03 -0.13362692599E+04  0.13958730300E+04  0.93003871940E+02 0.  0.
         13    1    3    3    0    0 -0.30822573629E+03  0.12863093178E+01  0.20884326181E+02  0.30893512941E+03  0.00000000000E+00 0.  1.
        -13    1    3    3    0    0 -0.11507164196E+03 -0.53843055200E+02 -0.10418973972E+02  0.12747200632E+03  0.00000000000E+00 0. -1.
          2    1    5    5  502    0  0.63118549825E+02 -0.10031783204E+03 -0.10355743170E+03  0.15739047118E+03  0.00000000000E+00 0. -1.
          1    1    6    6  503    0  0.49662933825E+02  0.72566028787E+02 -0.28147095471E+03  0.29488664581E+03  0.00000000000E+00 0. -1.
         -2    1    5    5    0  502  0.29918295972E+03 -0.23503748008E+03 -0.48964768733E+03  0.62008702464E+03  0.00000000000E+00 0.  1.
         -1    1    6    6    0  503  0.11332934880E+02  0.31534602921E+03 -0.10547983052E+04  0.11009863842E+04  0.00000000000E+00 0.  1.
<mgrwt>
<rscale>  0 0.17686830E+04</rscale>
<asrwt>0</asrwt>
<pdfrwt beam="1">  1        2 0.34836667E+00 0.17686830E+04</pdfrwt>
<pdfrwt beam="2">  1       -2 0.53134511E-01 0.17686830E+04</pdfrwt>
<totfact> 0.15019254E+01</totfact>
</mgrwt>
</event>
<event>
12    1  0.4967442E-008  0.1503115E+04  0.7818608E-02  0.8882384E-01
          1   -1    0    0  501    0  0.00000000000E+00  0.00000000000E+00  0.20692324107E+04  0.20692324107E+04  0.00000000000E+00 0. -1.
         -1   -1    0    0    0  501 -0.00000000000E+00 -0.00000000000E+00 -0.27297004314E+03  0.27297004314E+03  0.00000000000E+00 0.  1.
         23    2    1    2    0    0 -0.12341694201E+03 -0.40327338073E+03  0.24601936012E+03  0.49642219681E+03  0.89712377927E+02 0.  0.
        254    2    1    2    0    0  0.12341694201E+03  0.40327338073E+03  0.15502430075E+04  0.18457802571E+04  0.90873000056E+03 0.  0.
         23    2    4    4    0    0  0.46649566545E+03  0.11883739125E+03  0.49632701510E+03  0.69747158527E+03  0.91572784683E+02 0.  0.
         23    2    4    4    0    0 -0.34307872343E+03  0.28443598948E+03  0.10539159924E+04  0.11483086718E+04  0.96265487774E+02 0.  0.
         11    1    3    3    0    0 -0.66183502936E+01 -0.90791705987E+01 -0.74062629356E+01  0.13456843242E+02  0.00000000000E+00 0.  1.
        -11    1    3    3    0    0 -0.11679859172E+03 -0.39419421013E+03  0.25342562305E+03  0.48296535357E+03  0.00000000000E+00 0. -1.
          2    1    5    5  502    0  0.18793054183E+03  0.73014537188E+02  0.15369365633E+03  0.25351676708E+03  0.00000000000E+00 0.  1.
          4    1    6    6  503    0 -0.15784095498E+03  0.97683407440E+02  0.33826827096E+03  0.38585131631E+03  0.00000000000E+00 0. -1.
         -2    1    5    5    0  502  0.27856512362E+03  0.45822854065E+02  0.34263335877E+03  0.44395481819E+03  0.00000000000E+00 0. -1.
         -4    1    6    6    0  503 -0.18523776846E+03  0.18675258204E+03  0.71564772143E+03  0.76245735549E+03  0.00000000000E+00 0.  1.
<mgrwt>
<rscale>  0 0.15031147E+04</rscale>
<asrwt>0</asrwt>
<pdfrwt beam="1">  1        1 0.31834344E+00 0.15031147E+04</pdfrwt>
<pdfrwt beam="2">  1       -1 0.41995393E-01 0.15031147E+04</pdfrwt>
<totfact> 0.14414056E+01</totfact>
</mgrwt>
</event>
<event>
12    1  0.4967442E-008  0.2016968E+04  0.7818608E-02  0.8598728E-01
          3   -1    0    0  501    0  0.00000000000E+00  0.00000000000E+00  0.24954351087E+04  0.24954351087E+04  0.00000000000E+00 0. -1.
         -3   -1    0    0    0  501 -0.00000000000E+00 -0.00000000000E+00 -0.40756037940E+03  0.40756037940E+03  0.00000000000E+00 0.  1.
         23    2    1    2    0    0 -0.69171833596E+03  0.36371624386E+03  0.11231854700E+04  0.13715110298E+04  0.93451284367E+02 0.  0.
        254    2    1    2    0    0  0.69171833596E+03 -0.36371624386E+03  0.96468925928E+03  0.15314844583E+04  0.89669142775E+03 0.  0.
         23    2    4    4    0    0  0.71300480837E+03 -0.44916779148E+03  0.10719568707E+04  0.13663478425E+04  0.87677434911E+02 0.  0.
         23    2    4    4    0    0 -0.21286472413E+02  0.85451547629E+02 -0.10726761138E+03  0.16513661573E+03  0.89491231442E+02 0.  0.
         11    1    3    3    0    0 -0.31120918119E+03  0.11247213358E+03  0.45714579968E+03  0.56434335068E+03  0.00000000000E+00 0.  1.
        -11    1    3    3    0    0 -0.38050915477E+03  0.25124411027E+03  0.66603967032E+03  0.80716767914E+03  0.00000000000E+00 0. -1.
          4    1    5    5  502    0  0.56424562808E+03 -0.39451845460E+03  0.88462409389E+03  0.11209717781E+04  0.00000000000E+00 0. -1.
          4    1    6    6  503    0 -0.13935198089E+02  0.73862559630E+02 -0.12306887911E+03  0.14420754650E+03  0.00000000000E+00 0. -1.
         -4    1    5    5    0  502  0.14875918030E+03 -0.54649336881E+02  0.18733277676E+03  0.24537606443E+03  0.00000000000E+00 0.  1.
         -4    1    6    6    0  503 -0.73512743240E+01  0.11588987999E+02  0.15801267735E+02  0.20929069236E+02  0.00000000000E+00 0.  1.
<mgrwt>
<rscale>  0 0.20169685E+04</rscale>
<asrwt>0</asrwt>
<pdfrwt beam="1">  1        3 0.38391308E+00 0.20169685E+04</pdfrwt>
<pdfrwt beam="2">  1       -3 0.62701599E-01 0.20169685E+04</pdfrwt>
<totfact> 0.81475959E-02</totfact>
</mgrwt>
</event>
<event>
12    1  0.4967442E-008  0.1191224E+04  0.7818608E-02  0.9120573E-01
          2   -1    0    0  501    0  0.00000000000E+00  0.00000000000E+00  0.38705402861E+04  0.38705402861E+04  0.00000000000E+00 0. -1.
         -2   -1    0    0    0  501 -0.00000000000E+00 -0.00000000000E+00 -0.91654838752E+02  0.91654838752E+02  0.00000000000E+00 0.  1.
         23    2    1    2    0    0  0.11087352375E+02 -0.20297190534E+03  0.12852559500E+04  0.13044154901E+04  0.91084521419E+02 0.  0.
        254    2    1    2    0    0 -0.11087352375E+02  0.20297190534E+03  0.24936294973E+04  0.26577796347E+04  0.89681881846E+03 0.  0.
         23    2    4    4    0    0 -0.21542665905E+03  0.47741578260E+03  0.11276059244E+04  0.12469772697E+04  0.95512906890E+02 0.  0.
         23    2    4    4    0    0  0.20433930668E+03 -0.27444387726E+03  0.13660235729E+04  0.14108023650E+04  0.85257946946E+02 0.  0.
         11    1    3    3    0    0  0.39607294257E+02 -0.18433291355E+03  0.11045317579E+04  0.11205078157E+04  0.00000000000E+00 0. -1.
        -11    1    3    3    0    0 -0.28519941882E+02 -0.18638991792E+02  0.18072419213E+03  0.18390767445E+03  0.00000000000E+00 0.  1.
          1    1    5    5  502    0 -0.12294407851E+03  0.26137767597E+03  0.50914377824E+03  0.58537246507E+03  0.00000000000E+00 0. -1.
          3    1    6    6  503    0  0.10378294713E+03 -0.71186408436E+02  0.48912151615E+03  0.50505273232E+03  0.00000000000E+00 0. -1.
         -1    1    5    5    0  502 -0.92482580546E+02  0.21603810663E+03  0.61846214618E+03  0.66160480461E+03  0.00000000000E+00 0.  1.
         -3    1    6    6    0  503  0.10055635955E+03 -0.20325746882E+03  0.87690205670E+03  0.90574963269E+03  0.00000000000E+00 0.  1.
<mgrwt>
<rscale>  0 0.11912242E+04</rscale>
<asrwt>0</asrwt>
<pdfrwt beam="1">  1        2 0.59546761E+00 0.11912242E+04</pdfrwt>
<pdfrwt beam="2">  1       -2 0.14100747E-01 0.11912242E+04</pdfrwt>
<totfact> 0.17304975E+01</totfact>
</mgrwt>
</event>
<event>
12    1  0.5440075E-008  0.2354573E+04  0.7818608E-02  0.8456709E-01
          1   -1    0    0  501    0  0.00000000000E+00  0.00000000000E+00  0.59233511403E+03  0.59233511403E+03  0.00000000000E+00 0. -1.
         -1   -1    0    0    0  501 -0.00000000000E+00 -0.00000000000E+00 -0.23398974342E+04  0.23398974342E+04  0.00000000000E+00 0.  1.
         23    2    1    2    0    0 -0.55643749972E+03  0.82583826575E+03 -0.88162717627E+03  0.13335096335E+04  0.96695048256E+02 0.  0.
        254    2    1    2    0    0  0.55643749972E+03 -0.82583826575E+03 -0.86593514388E+03  0.15987229147E+04  0.90246315848E+03 0.  0.
         23    2    4    4    0    0  0.65527354173E+03 -0.63607315781E+03 -0.97764211764E+03  0.13409246109E+04  0.91226231944E+02 0.  0.
         23    2    4    4    0    0 -0.98836042005E+02 -0.18976510794E+03  0.11170697375E+03  0.25779830382E+03  0.90565766594E+02 0.  0.
         13    1    3    3    0    0 -0.55749960690E+03  0.80901819949E+03 -0.87409036160E+03  0.13150476109E+04  0.00000000000E+00 0.  1.
        -13    1    3    3    0    0  0.10621071792E+01  0.16820066260E+02 -0.75368146716E+01  0.18462022534E+02  0.00000000000E+00 0. -1.
          4    1    5    5  502    0  0.53478117755E+01  0.31092892463E+01 -0.71474049219E+01  0.94526275458E+01  0.00000000000E+00 0. -1.
          3    1    6    6  503    0  0.58156389619E+01 -0.49658456886E+02 -0.53384051141E+00  0.50000689820E+02  0.00000000000E+00 0. -1.
         -4    1    5    5    0  502  0.64992572995E+03 -0.63918244706E+03 -0.97049471271E+03  0.13314719834E+04  0.00000000000E+00 0.  1.
         -3    1    6    6    0  503 -0.10465168097E+03 -0.14010665105E+03  0.11224081427E+03  0.20779761400E+03  0.00000000000E+00 0.  1.
<mgrwt>
<rscale>  0 0.23545729E+04</rscale>
<asrwt>0</asrwt>
<pdfrwt beam="1">  1        1 0.91128479E-01 0.23545729E+04</pdfrwt>
<pdfrwt beam="2">  1       -1 0.35998422E+00 0.23545729E+04</pdfrwt>
<totfact> 0.41879589E-01</totfact>
</mgrwt>
</event>
<event>
12    1  0.4967442E-008  0.3230045E+04  0.7818608E-02  0.8180927E-01
         -3   -1    0    0    0  501 -0.00000000000E+00  0.00000000000E+00  0.10663707059E+04  0.10663707059E+04  0.00000000000E+00 0.  1.
          3   -1    0    0  501    0  0.00000000000E+00 -0.00000000000E+00 -0.24459578819E+04  0.24459578819E+04  0.00000000000E+00 0. -1.
         23    2    1    2    0    0 -0.59625601054E+03  0.10400956592E+03 -0.21176009004E+04  0.22043204180E+04  0.91954945067E+02 0.  0.
        254    2    1    2    0    0  0.59625601054E+03 -0.10400956592E+03  0.73801372442E+03  0.13080081697E+04  0.89436116571E+03 0.  0.
         23    2    4    4    0    0 -0.10078188332E+03  0.15317152203E+03  0.46819719550E+03  0.51087311650E+03  0.90356096178E+02 0.  0.
         23    2    4    4    0    0  0.69703789387E+03 -0.25718108796E+03  0.26981652891E+03  0.79713505323E+03  0.10305045523E+03 0.  0.
         11    1    3    3    0    0 -0.58684945951E+03  0.90543989005E+02 -0.20246150455E+04  0.21098949226E+04  0.00000000000E+00 0. -1.
        -11    1    3    3    0    0 -0.94065510298E+01  0.13465576917E+02 -0.92985854952E+02  0.94425495419E+02  0.00000000000E+00 0.  1.
          3    1    5    5  502    0 -0.74266070495E+02  0.77633703765E+02  0.36368968040E+03  0.37922635038E+03  0.00000000000E+00 0. -1.
          3    1    6    6  503    0  0.11576733966E+03 -0.60473734578E+02  0.86611456207E+02  0.15671851790E+03  0.00000000000E+00 0. -1.
         -3    1    5    5    0  502 -0.26515812828E+02  0.75537818267E+02  0.10450751510E+03  0.13164676612E+03  0.00000000000E+00 0.  1.
         -3    1    6    6    0  503  0.58127055421E+03 -0.19670735338E+03  0.18320507271E+03  0.64041653533E+03  0.00000000000E+00 0.  1.
<mgrwt>
<rscale>  0 0.32300451E+04</rscale>
<asrwt>0</asrwt>
<pdfrwt beam="1">  1        3 0.37630121E+00 0.32300451E+04</pdfrwt>
<pdfrwt beam="2">  1       -3 0.16405703E+00 0.32300451E+04</pdfrwt>
<totfact> 0.82467443E-03</totfact>
</mgrwt>
</event>
<event>
12    1  0.4967442E-008  0.1118631E+04  0.7818608E-02  0.9187221E-01
          1   -1    0    0  501    0  0.00000000000E+00  0.00000000000E+00  0.29945018767E+04  0.29945018767E+04  0.00000000000E+00 0. -1.
         -1   -1    0    0    0  501 -0.00000000000E+00 -0.00000000000E+00 -0.10446934022E+03  0.10446934022E+03  0.00000000000E+00 0.  1.
         23    2    1    2    0    0  0.34413515970E+02 -0.22453403543E+01  0.24309653291E+02  0.99414448271E+02  0.90016341001E+02 0.  0.
        254    2    1    2    0    0 -0.34413515970E+02  0.22453403543E+01  0.28657228832E+04  0.29995567687E+04  0.88531566885E+03 0.  0.
         23    2    4    4    0    0  0.61585423390E+02 -0.42077929217E+03  0.16157722677E+04  0.16733054442E+04  0.91559332859E+02 0.  0.
         23    2    4    4    0    0 -0.95998939361E+02  0.42302463252E+03  0.12499506156E+04  0.13262513245E+04  0.91653687197E+02 0.  0.
         13    1    3    3    0    0 -0.93971589017E+01  0.36352014329E+02  0.47953145099E+01  0.37851956124E+02  0.00000000000E+00 0.  1.
        -13    1    3    3    0    0  0.43810674872E+02 -0.38597354683E+02  0.19514338781E+02  0.61562492147E+02  0.00000000000E+00 0. -1.
          4    1    5    5  502    0  0.11194785692E+02 -0.26869503753E+00  0.32907963616E+02  0.34761034120E+02  0.00000000000E+00 0. -1.
          1    1    6    6  503    0 -0.64918595731E+02  0.10275927088E+03  0.35069193678E+03  0.37115862694E+03  0.00000000000E+00 0. -1.
         -4    1    5    5    0  502  0.50390637698E+02 -0.42051059713E+03  0.15828643041E+04  0.16385444101E+04  0.00000000000E+00 0.  1.
         -1    1    6    6    0  503 -0.31080343630E+02  0.32026536164E+03  0.89925867878E+03  0.95509269758E+03  0.00000000000E+00 0.  1.
<mgrwt>
<rscale>  0 0.11186307E+04</rscale>
<asrwt>0</asrwt>
<pdfrwt beam="1">  1        1 0.46069253E+00 0.11186307E+04</pdfrwt>
<pdfrwt beam="2">  1       -1 0.16072208E-01 0.11186307E+04</pdfrwt>
<totfact> 0.17938621E+01</totfact>
</mgrwt>
</event>
<event>
12    1  0.4967442E-008  0.1502244E+04  0.7818608E-02  0.8882962E-01
          2   -1    0    0  501    0  0.00000000000E+00  0.00000000000E+00  0.35731631005E+04  0.35731631005E+04  0.00000000000E+00 0. -1.
         -2   -1    0    0    0  501 -0.00000000000E+00 -0.00000000000E+00 -0.15789485239E+03  0.15789485239E+03  0.00000000000E+00 0.  1.
         23    2    1    2    0    0 -0.46802990349E+03 -0.54453717952E+02  0.98601631553E+03  0.10968636551E+04  0.94151502521E+02 0.  0.
        254    2    1    2    0    0  0.46802990349E+03  0.54453717952E+02  0.24292519326E+04  0.26341942978E+04  0.90315970269E+03 0.  0.
         23    2    4    4    0    0  0.36707109560E+02 -0.31944234431E+03  0.15244129304E+04  0.15606401152E+04  0.91498434241E+02 0.  0.
         23    2    4    4    0    0  0.43132279393E+03  0.37389606227E+03  0.90483900218E+03  0.10735541826E+04  0.89147883853E+02 0.  0.
         13    1    3    3    0    0  0.43013005783E+00 -0.89556875840E+01  0.29295808518E+02  0.30637130230E+02  0.00000000000E+00 0.  1.
        -13    1    3    3    0    0 -0.46846003355E+03 -0.45498030368E+02  0.95672050701E+03  0.10662265249E+04  0.00000000000E+00 0. -1.
          4    1    5    5  502    0  0.51694619255E+02 -0.11075390399E+03  0.46721505496E+03  0.48293754099E+03  0.00000000000E+00 0. -1.
          3    1    6    6  503    0  0.27347219407E+02  0.58831085071E+02  0.11724577680E+03  0.13399828042E+03  0.00000000000E+00 0. -1.
         -4    1    5    5    0  502 -0.14987509695E+02 -0.20868844032E+03  0.10571978754E+04  0.10777025742E+04  0.00000000000E+00 0.  1.
         -3    1    6    6    0  503  0.40397557453E+03  0.31506497719E+03  0.78759322539E+03  0.93955590219E+03  0.00000000000E+00 0.  1.
<mgrwt>
<rscale>  0 0.15022437E+04</rscale>
<asrwt>0</asrwt>
<pdfrwt beam="1">  1        2 0.54971734E+00 0.15022437E+04</pdfrwt>
<pdfrwt beam="2">  1       -2 0.24291518E-01 0.15022437E+04</pdfrwt>
<totfact> 0.10699265E+01</totfact>
</mgrwt>
</event>
<event>
12    1  0.4967442E-008  0.1560980E+04  0.7818608E-02  0.8844884E-01
         -1   -1    0    0    0  501 -0.00000000000E+00  0.00000000000E+00  0.33998436649E+03  0.33998436649E+03  0.00000000000E+00 0.  1.
          1   -1    0    0  501    0  0.00000000000E+00 -0.00000000000E+00 -0.17917439196E+04  0.17917439196E+04  0.00000000000E+00 0. -1.
         23    2    1    2    0    0 -0.23021626146E+02 -0.50598038954E+03 -0.62562795394E+03  0.81016250731E+03  0.91688612271E+02 0.  0.
        254    2    1    2    0    0  0.23021626146E+02  0.50598038954E+03 -0.82613159918E+03  0.13215657788E+04  0.89860811182E+03 0.  0.
         23    2    4    4    0    0 -0.34633773068E+03  0.16411266755E+03 -0.68615226643E+03  0.79120577268E+03  0.91207733486E+02 0.  0.
         23    2    4    4    0    0  0.36935935683E+03  0.34186772199E+03 -0.13997933275E+03  0.53036000611E+03  0.91584107107E+02 0.  0.
         13    1    3    3    0    0  0.18876604019E+02 -0.72413446132E+02 -0.58077445005E+02  0.94726041711E+02  0.00000000000E+00 0.  1.
        -13    1    3    3    0    0 -0.41898230165E+02 -0.43356694341E+03 -0.56755050894E+03  0.71543646559E+03  0.00000000000E+00 0. -1.
          2    1    5    5  502    0 -0.13122691075E+03  0.85236405980E+02 -0.20148154487E+03  0.25510891778E+03  0.00000000000E+00 0. -1.
          1    1    6    6  503    0  0.31627092824E+03  0.26433280482E+03 -0.14314993992E+03  0.43633821407E+03  0.00000000000E+00 0. -1.
         -2    1    5    5    0  502 -0.21511081994E+03  0.78876261574E+02 -0.48467072156E+03  0.53609685490E+03  0.00000000000E+00 0.  1.
         -1    1    6    6    0  503  0.53088428583E+02  0.77534917167E+02  0.31706071711E+01  0.94021792044E+02  0.00000000000E+00 0.  1.
<mgrwt>
<rscale>  0 0.15609804E+04</rscale>
<asrwt>0</asrwt>
<pdfrwt beam="1">  1        1 0.27565291E+00 0.15609804E+04</pdfrwt>
<pdfrwt beam="2">  1       -1 0.52305287E-01 0.15609804E+04</pdfrwt>
<totfact> 0.14628836E+01</totfact>
</mgrwt>
</event>
<event>
12    1  0.4967442E-008  0.1980872E+04  0.7818608E-02  0.8615616E-01
          1   -1    0    0  501    0  0.00000000000E+00  0.00000000000E+00  0.18487764970E+04  0.18487764970E+04  0.00000000000E+00 0. -1.
         -1   -1    0    0    0  501 -0.00000000000E+00 -0.00000000000E+00 -0.53060132492E+03  0.53060132492E+03  0.00000000000E+00 0.  1.
         23    2    1    2    0    0 -0.31553125791E+03  0.68338364764E+03  0.80598481282E+03  0.11066987539E+04  0.92722321400E+02 0.  0.
        254    2    1    2    0    0  0.31553125791E+03 -0.68338364764E+03  0.51219035922E+03  0.12726790679E+04  0.88926928506E+03 0.  0.
         23    2    4    4    0    0  0.59590168189E+03 -0.60815299290E+03  0.43075759622E+03  0.95866952872E+03  0.92446099642E+02 0.  0.
         23    2    4    4    0    0 -0.28037042398E+03 -0.75230654740E+02  0.81432762995E+02  0.31400953923E+03  0.87769412559E+02 0.  0.
         11    1    3    3    0    0 -0.19584079189E+03  0.41211847329E+03  0.55299231794E+03  0.71693497299E+03  0.00000000000E+00 0. -1.
        -11    1    3    3    0    0 -0.11969046602E+03  0.27126517435E+03  0.25299249488E+03  0.38976378094E+03  0.00000000000E+00 0.  1.
          2    1    5    5  502    0  0.38408562386E+03 -0.33149477185E+03  0.27371109090E+03  0.57647923771E+03  0.00000000000E+00 0. -1.
          3    1    6    6  503    0 -0.23481615416E+03 -0.89696035551E+02  0.48590381192E+02  0.25601763649E+03  0.00000000000E+00 0. -1.
         -2    1    5    5    0  502  0.21181605803E+03 -0.27665822105E+03  0.15704650532E+03  0.38219029102E+03  0.00000000000E+00 0.  1.
         -3    1    6    6    0  503 -0.45554269819E+02  0.14465380811E+02  0.32842381802E+02  0.57991902738E+02  0.00000000000E+00 0.  1.
<mgrwt>
<rscale>  0 0.19808718E+04</rscale>
<asrwt>0</asrwt>
<pdfrwt beam="1">  1        1 0.28442715E+00 0.19808718E+04</pdfrwt>
<pdfrwt beam="2">  1       -1 0.81630974E-01 0.19808718E+04</pdfrwt>
<totfact> 0.52392705E+00</totfact>
</mgrwt>
</event>
<event>
12    1  0.7178063E-008  0.1702558E+04  0.7818608E-02  0.8759907E-01
          1   -1    0    0  501    0  0.00000000000E+00  0.00000000000E+00  0.22473867470E+04  0.22473867470E+04  0.00000000000E+00 0. -1.
         -1   -1    0    0    0  501 -0.00000000000E+00 -0.00000000000E+00 -0.32245254826E+03  0.32245254826E+03  0.00000000000E+00 0.  1.
         23    2    1    2    0    0  0.50861000878E+02 -0.56188939270E+03  0.35179342425E+03  0.67322879627E+03  0.10569705647E+03 0.  0.
        254    2    1    2    0    0 -0.50861000878E+02  0.56188939270E+03  0.15731407745E+04  0.18966104990E+04  0.89669000078E+03 0.  0.
         23    2    4    4    0    0 -0.39066489654E+03  0.37422565524E+03  0.13064573584E+04  0.14170371235E+04  0.92192612025E+02 0.  0.
         23    2    4    4    0    0  0.33980389567E+03  0.18766373745E+03  0.26668341609E+03  0.47957337547E+03  0.90477688811E+02 0.  0.
         13    1    3    3    0    0 -0.89618754140E+01 -0.28507979384E+02 -0.26958039211E+01  0.30004790588E+02  0.00000000000E+00 0.  1.
        -13    1    3    3    0    0  0.59822876292E+02 -0.53338141331E+03  0.35448922817E+03  0.64322400568E+03  0.00000000000E+00 0. -1.
          1    1    5    5  502    0 -0.37569599505E+03  0.37423258052E+03  0.12902727590E+04  0.13949915045E+04  0.00000000000E+00 0. -1.
          3    1    6    6  503    0  0.32142680104E+03  0.14996134454E+03  0.25215902713E+03  0.43518704972E+03  0.00000000000E+00 0. -1.
         -1    1    5    5    0  502 -0.14968901498E+02 -0.69252799191E-02  0.16184599336E+02  0.22045618969E+02  0.00000000000E+00 0.  1.
         -3    1    6    6    0  503  0.18377094628E+02  0.37702392913E+02  0.14524388959E+02  0.44386325743E+02  0.00000000000E+00 0.  1.
<mgrwt>
<rscale>  0 0.17025576E+04</rscale>
<asrwt>0</asrwt>
<pdfrwt beam="1">  1        1 0.34575180E+00 0.17025576E+04</pdfrwt>
<pdfrwt beam="2">  1       -1 0.49608086E-01 0.17025576E+04</pdfrwt>
<totfact> 0.78446037E+00</totfact>
</mgrwt>
</event>
<event>
12    1  0.4967442E-008  0.1539873E+04  0.7818608E-02  0.8858362E-01
         -2   -1    0    0    0  501 -0.00000000000E+00  0.00000000000E+00  0.54941707013E+03  0.54941707013E+03  0.00000000000E+00 0.  1.
          2   -1    0    0  501    0  0.00000000000E+00 -0.00000000000E+00 -0.10789656275E+04  0.10789656275E+04  0.00000000000E+00 0. -1.
         23    2    1    2    0    0 -0.34453478340E+03  0.10066184172E+03 -0.53915841297E+03  0.65405068955E+03  0.90848703169E+02 0.  0.
        254    2    1    2    0    0  0.34453478340E+03 -0.10066184172E+03  0.96098556430E+01  0.97433200804E+03  0.90575575583E+03 0.  0.
         23    2    4    4    0    0  0.36417517850E+03 -0.19206395853E+03  0.38876010186E+03  0.57365343136E+03  0.91824385140E+02 0.  0.
         23    2    4    4    0    0 -0.19640395098E+02  0.91402116808E+02 -0.37915024622E+03  0.40067857668E+03  0.89712432379E+02 0.  0.
         13    1    3    3    0    0 -0.27694486318E+03  0.44254649277E+02 -0.43625188299E+03  0.51862571922E+03  0.00000000000E+00 0. -1.
        -13    1    3    3    0    0 -0.67589920224E+02  0.56407192447E+02 -0.10290652997E+03  0.13542497032E+03  0.00000000000E+00 0.  1.
          4    1    5    5  502    0  0.30700711329E+03 -0.16887403516E+03  0.36904573374E+03  0.50888757201E+03  0.00000000000E+00 0.  1.
          1    1    6    6  503    0 -0.48267714544E+02  0.20698493751E+02 -0.13354748736E+03  0.14350307067E+03  0.00000000000E+00 0. -1.
         -4    1    5    5    0  502  0.57168065213E+02 -0.23189923376E+02  0.19714368128E+02  0.64765859348E+02  0.00000000000E+00 0. -1.
         -1    1    6    6    0  503  0.28627319445E+02  0.70703623056E+02 -0.24560275886E+03  0.25717550601E+03  0.00000000000E+00 0.  1.
<mgrwt>
<rscale>  0 0.15398729E+04</rscale>
<asrwt>0</asrwt>
<pdfrwt beam="1">  1        2 0.16599471E+00 0.15398729E+04</pdfrwt>
<pdfrwt beam="2">  1       -2 0.84525703E-01 0.15398729E+04</pdfrwt>
<totfact> 0.26398231E+01</totfact>
</mgrwt>
</event>
<event>
12    1  0.4967442E-008  0.2379699E+04  0.7818608E-02  0.8447143E-01
          1   -1    0    0  501    0  0.00000000000E+00  0.00000000000E+00  0.11780018160E+04  0.11780018160E+04  0.00000000000E+00 0. -1.
         -1   -1    0    0    0  501 -0.00000000000E+00 -0.00000000000E+00 -0.12018162842E+04  0.12018162842E+04  0.00000000000E+00 0.  1.
         23    2    1    2    0    0 -0.10027213224E+04  0.10039359631E+03  0.15933056749E+03  0.10247189055E+04  0.95570292976E+02 0.  0.
        254    2    1    2    0    0  0.10027213224E+04 -0.10039359631E+03 -0.18314503571E+03  0.13550991948E+04  0.88725576865E+03 0.  0.
         23    2    4    4    0    0  0.20358081193E+03 -0.26528367759E+03  0.24947229925E+03  0.42713850388E+03  0.91598563426E+02 0.  0.
         23    2    4    4    0    0  0.79914051047E+03  0.16489008128E+03 -0.43261733496E+03  0.92796069090E+03  0.90216356353E+02 0.  0.
         13    1    3    3    0    0 -0.87780164078E+03  0.11744494105E+03  0.12819919747E+03  0.89485421660E+03  0.00000000000E+00 0. -1.
        -13    1    3    3    0    0 -0.12491968162E+03 -0.17051344746E+02  0.31131370028E+02  0.12986468887E+03  0.00000000000E+00 0.  1.
          2    1    5    5  502    0  0.17835541087E+03 -0.25690390368E+03  0.20073678895E+03  0.37162551951E+03  0.00000000000E+00 0. -1.
          3    1    6    6  503    0  0.62511276525E+03  0.13783219608E+03 -0.37876788292E+03  0.74379351482E+03  0.00000000000E+00 0. -1.
         -2    1    5    5    0  502  0.25225401060E+02 -0.83797739116E+01  0.48735510305E+02  0.55512984374E+02  0.00000000000E+00 0.  1.
         -3    1    6    6    0  503  0.17402774522E+03  0.27057885203E+02 -0.53849452044E+02  0.18416717608E+03  0.00000000000E+00 0.  1.
<mgrwt>
<rscale>  0 0.23796989E+04</rscale>
<asrwt>0</asrwt>
<pdfrwt beam="1">  1        1 0.18123105E+00 0.23796989E+04</pdfrwt>
<pdfrwt beam="2">  1       -1 0.18489481E+00 0.23796989E+04</pdfrwt>
<totfact> 0.19116555E+00</totfact>
</mgrwt>
</event>
<event>
12    1  0.4967442E-008  0.1816239E+04  0.7818608E-02  0.8697711E-01
         -1   -1    0    0    0  501 -0.00000000000E+00  0.00000000000E+00  0.60792586106E+03  0.60792586106E+03  0.00000000000E+00 0.  1.
          1   -1    0    0  501    0  0.00000000000E+00 -0.00000000000E+00 -0.13565486780E+04  0.13565486780E+04  0.00000000000E+00 0. -1.
         23    2    1    2    0    0  0.23607128295E+03  0.61051853317E+03 -0.49671834190E+03  0.82574224495E+03  0.81600330423E+02 0.  0.
        254    2    1    2    0    0 -0.23607128295E+03 -0.61051853317E+03 -0.25190447504E+03  0.11387322941E+04  0.89710247081E+03 0.  0.
         23    2    4    4    0    0 -0.19227263329E+03 -0.74664962735E+03  0.64985332347E+02  0.77904331908E+03  0.90724682685E+02 0.  0.
         23    2    4    4    0    0 -0.43798649654E+02  0.13613109417E+03 -0.31688980739E+03  0.35968897504E+03  0.92233465852E+02 0.  0.
         13    1    3    3    0    0  0.19637742017E+03  0.56677892955E+03 -0.44057011211E+03  0.74424758637E+03  0.00000000000E+00 0. -1.
        -13    1    3    3    0    0  0.39693862777E+02  0.43739603622E+02 -0.56148229796E+02  0.81494658576E+02  0.00000000000E+00 0.  1.
          3    1    5    5  502    0 -0.18035665174E+03 -0.61873451186E+03  0.26892569939E+02  0.64504583427E+03  0.00000000000E+00 0. -1.
          3    1    6    6  503    0  0.81421470479E+01  0.11069244937E+03 -0.22894995730E+03  0.25443505233E+03  0.00000000000E+00 0. -1.
         -3    1    5    5    0  502 -0.11915981554E+02 -0.12791511549E+03  0.38092762409E+02  0.13399748481E+03  0.00000000000E+00 0.  1.
         -3    1    6    6    0  503 -0.51940796702E+02  0.25438644801E+02 -0.87939850095E+02  0.10525392271E+03  0.00000000000E+00 0.  1.
<mgrwt>
<rscale>  0 0.18162390E+04</rscale>
<asrwt>0</asrwt>
<pdfrwt beam="1">  1        1 0.20869980E+00 0.18162390E+04</pdfrwt>
<pdfrwt beam="2">  1       -1 0.93527055E-01 0.18162390E+04</pdfrwt>
<totfact> 0.86159200E+00</totfact>
</mgrwt>
</event>
<event>
12    1  0.4967442E-008  0.1430424E+04  0.7818608E-02  0.8932086E-01
          2   -1    0    0  501    0  0.00000000000E+00  0.00000000000E+00  0.14545671423E+04  0.14545671423E+04  0.00000000000E+00 0. -1.
         -2   -1    0    0    0  501 -0.00000000000E+00 -0.00000000000E+00 -0.35167027630E+03  0.35167027630E+03  0.00000000000E+00 0.  1.
         23    2    1    2    0    0  0.57412029411E+02 -0.83339428477E+02  0.86488448281E+03  0.87555013523E+03  0.91220991190E+02 0.  0.
        254    2    1    2    0    0 -0.57412029411E+02  0.83339428477E+02  0.23801238317E+03  0.93068728336E+03  0.89402870390E+03 0.  0.
         23    2    4    4    0    0  0.28855652746E+03 -0.52142234767E+02 -0.18536776190E+03  0.35977714941E+03  0.95366177936E+02 0.  0.
         23    2    4    4    0    0 -0.34596855688E+03  0.13548166324E+03  0.42338014507E+03  0.57091013395E+03  0.92941435232E+02 0.  0.
         13    1    3    3    0    0  0.67289288293E+02 -0.65613350844E+02  0.82912170628E+03  0.83443140158E+03  0.00000000000E+00 0. -1.
        -13    1    3    3    0    0 -0.98772588818E+01 -0.17726077633E+02  0.35762776531E+02  0.41118733644E+02  0.00000000000E+00 0.  1.
          1    1    5    5  502    0  0.33158295117E+02  0.54437464892E+01  0.77059075754E+01  0.34474453186E+02  0.00000000000E+00 0. -1.
          3    1    6    6  503    0 -0.14278988710E+03  0.70141878379E+02  0.11681603348E+03  0.19736975614E+03  0.00000000000E+00 0. -1.
         -1    1    5    5    0  502  0.25539823235E+03 -0.57585981256E+02 -0.19307366948E+03  0.32530269622E+03  0.00000000000E+00 0.  1.
         -3    1    6    6    0  503 -0.20317866977E+03  0.65339784865E+02  0.30656411159E+03  0.37354037781E+03  0.00000000000E+00 0.  1.
<mgrwt>
<rscale>  0 0.14304238E+04</rscale>
<asrwt>0</asrwt>
<pdfrwt beam="1">  1        2 0.22377956E+00 0.14304238E+04</pdfrwt>
<pdfrwt beam="2">  1       -2 0.54103120E-01 0.14304238E+04</pdfrwt>
<totfact> 0.42074379E+01</totfact>
</mgrwt>
</event>
<event>
12    1  0.4967442E-008  0.2647114E+04  0.7818608E-02  0.8352372E-01
          2   -1    0    0  501    0  0.00000000000E+00  0.00000000000E+00  0.10754999741E+04  0.10754999741E+04  0.00000000000E+00 0. -1.
         -2   -1    0    0    0  501 -0.00000000000E+00 -0.00000000000E+00 -0.16288262565E+04  0.16288262565E+04  0.00000000000E+00 0.  1.
         23    2    1    2    0    0 -0.61959364290E+03 -0.43651727327E+03  0.66045322463E+03  0.10094337912E+04  0.91183905801E+02 0.  0.
        254    2    1    2    0    0  0.61959364290E+03  0.43651727327E+03 -0.12137795070E+04  0.16948924395E+04  0.90827092736E+03 0.  0.
         23    2    4    4    0    0  0.36468823781E+03  0.58972543778E+03 -0.36021799626E+03  0.78656352295E+03  0.90286034522E+02 0.  0.
         23    2    4    4    0    0  0.25490540508E+03 -0.15320816451E+03 -0.85356151076E+03  0.90832891651E+03  0.89692032604E+02 0.  0.
         11    1    3    3    0    0 -0.29679375799E+03 -0.17070775330E+03  0.25425548250E+03  0.42646632012E+03  0.00000000000E+00 0.  1.
        -11    1    3    3    0    0 -0.32279988491E+03 -0.26580951997E+03  0.40619774213E+03  0.58296747106E+03  0.00000000000E+00 0. -1.
          4    1    5    5  502    0  0.20323258160E+02  0.53835500495E+02 -0.63999451186E+01  0.57898663485E+02  0.00000000000E+00 0.  1.
          1    1    6    6  503    0  0.25813896797E+03 -0.13342476655E+03 -0.79997993817E+03  0.85112031852E+03  0.00000000000E+00 0. -1.
         -4    1    5    5    0  502  0.34436497965E+03  0.53588993729E+03 -0.35381805114E+03  0.72866485946E+03  0.00000000000E+00 0. -1.
         -1    1    6    6    0  503 -0.32335628888E+01 -0.19783397963E+02 -0.53581572586E+02  0.57208597996E+02  0.00000000000E+00 0.  1.
<mgrwt>
<rscale>  0 0.26471136E+04</rscale>
<asrwt>0</asrwt>
<pdfrwt beam="1">  1        2 0.16546154E+00 0.26471136E+04</pdfrwt>
<pdfrwt beam="2">  1       -2 0.25058865E+00 0.26471136E+04</pdfrwt>
<totfact> 0.12668579E+00</totfact>
</mgrwt>
</event>
<event>
12    1  0.4967442E-008  0.1487544E+04  0.7818608E-02  0.8892778E-01
          1   -1    0    0  501    0  0.00000000000E+00  0.00000000000E+00  0.99786554494E+03  0.99786554494E+03  0.00000000000E+00 0. -1.
         -1   -1    0    0    0  501 -0.00000000000E+00 -0.00000000000E+00 -0.55438044873E+03  0.55438044873E+03  0.00000000000E+00 0.  1.
         23    2    1    2    0    0  0.25269816982E+03 -0.19067295026E+03  0.47370699469E+03  0.57726412177E+03  0.92860166191E+02 0.  0.
        254    2    1    2    0    0 -0.25269816982E+03  0.19067295026E+03 -0.30221898479E+02  0.97498187190E+03  0.92166357658E+03 0.  0.
         23    2    4    4    0    0 -0.45397046763E+03  0.21393651981E+03 -0.32588099519E+03  0.60525105157E+03  0.90952693242E+02 0.  0.
         23    2    4    4    0    0  0.20127229781E+03 -0.23263569548E+02  0.29565909671E+03  0.36973082034E+03  0.90746055028E+02 0.  0.
         11    1    3    3    0    0  0.17875144745E+03 -0.18235308649E+03  0.35975312527E+03  0.44116554632E+03  0.00000000000E+00 0. -1.
        -11    1    3    3    0    0  0.73946722371E+02 -0.83198637771E+01  0.11395386942E+03  0.13609857545E+03  0.00000000000E+00 0.  1.
          2    1    5    5  502    0 -0.15700903330E-01  0.93668514660E+01 -0.16701888960E+02  0.19149183996E+02  0.00000000000E+00 0.  1.
          3    1    6    6  503    0  0.17863643952E+03 -0.41800641001E+02  0.28427823902E+03  0.33833768382E+03  0.00000000000E+00 0. -1.
         -2    1    5    5    0  502 -0.45395476673E+03  0.20456966835E+03 -0.30917910623E+03  0.58610186757E+03  0.00000000000E+00 0. -1.
         -3    1    6    6    0  503  0.22635858287E+02  0.18537071453E+02  0.11380857696E+02  0.31393136516E+02  0.00000000000E+00 0.  1.
<mgrwt>
<rscale>  0 0.14875445E+04</rscale>
<asrwt>0</asrwt>
<pdfrwt beam="1">  1        1 0.15351778E+00 0.14875445E+04</pdfrwt>
<pdfrwt beam="2">  1       -1 0.85289300E-01 0.14875445E+04</pdfrwt>
<totfact> 0.19993655E+01</totfact>
</mgrwt>
</event>
<event>
12    1  0.4967442E-008  0.3968762E+04  0.7818608E-02  0.8010878E-01
         -2   -1    0    0    0  501 -0.00000000000E+00  0.00000000000E+00  0.16476158181E+04  0.16476158181E+04  0.00000000000E+00 0.  1.
          2   -1    0    0  501    0  0.00000000000E+00 -0.00000000000E+00 -0.23899797734E+04  0.23899797734E+04  0.00000000000E+00 0. -1.
         23    2    1    2    0    0 -0.86089032395E+03  0.12158868771E+03 -0.20477425410E+04  0.22264721441E+04  0.89513884994E+02 0.  0.
        254    2    1    2    0    0  0.86089032395E+03 -0.12158868771E+03  0.13053785856E+04  0.18111234474E+04  0.90567043185E+03 0.  0.
         23    2    4    4    0    0 -0.33586701999E+02  0.25565234900E+03  0.21402725624E+03  0.34721771701E+03  0.90919120611E+02 0.  0.
         23    2    4    4    0    0  0.89447702595E+03 -0.37724103670E+03  0.10913513294E+04  0.14639057304E+04  0.97838201378E+02 0.  0.
         13    1    3    3    0    0 -0.76121664730E+03  0.12559403297E+03 -0.18649332333E+04  0.20182171860E+04  0.00000000000E+00 0. -1.
        -13    1    3    3    0    0 -0.99673676651E+02 -0.40053452663E+01 -0.18280930770E+03  0.20825495814E+03  0.00000000000E+00 0.  1.
          4    1    5    5  502    0 -0.27954036268E+02  0.26206528873E+03  0.20019823498E+03  0.33096673094E+03  0.00000000000E+00 0. -1.
          1    1    6    6  503    0  0.83761797664E+03 -0.36860604677E+03  0.10513703010E+04  0.13938629066E+04  0.00000000000E+00 0. -1.
         -4    1    5    5    0  502 -0.56326657311E+01 -0.64129397303E+01  0.13829021263E+02  0.16250986072E+02  0.00000000000E+00 0.  1.
         -1    1    6    6    0  503  0.56859049304E+02 -0.86349899386E+01  0.39981028370E+02  0.70042823819E+02  0.00000000000E+00 0.  1.
<mgrwt>
<rscale>  0 0.39687623E+04</rscale>
<asrwt>0</asrwt>
<pdfrwt beam="1">  1        2 0.36768919E+00 0.39687623E+04</pdfrwt>
<pdfrwt beam="2">  1       -2 0.25347936E+00 0.39687623E+04</pdfrwt>
<totfact> 0.19490300E-01</totfact>
</mgrwt>
</event>
<event>
12    1  0.4967442E-008  0.1473598E+04  0.7818608E-02  0.8902202E-01
         -1   -1    0    0    0  501 -0.00000000000E+00  0.00000000000E+00  0.35709922439E+03  0.35709922439E+03  0.00000000000E+00 0.  1.
          1   -1    0    0  501    0  0.00000000000E+00 -0.00000000000E+00 -0.15202292720E+04  0.15202292720E+04  0.00000000000E+00 0. -1.
         23    2    1    2    0    0 -0.10674108393E+03 -0.37934503067E+03 -0.67066076984E+03  0.78282043767E+03  0.87895723112E+02 0.  0.
        254    2    1    2    0    0  0.10674108393E+03  0.37934503067E+03 -0.49246927778E+03  0.10945080587E+04  0.89449739506E+03 0.  0.
         23    2    4    4    0    0  0.16450240604E+03 -0.22444914213E+03 -0.36481926536E+03  0.46784306744E+03  0.91354148098E+02 0.  0.
         23    2    4    4    0    0 -0.57761322109E+02  0.60379417279E+03 -0.12765001242E+03  0.62666499129E+03  0.92253521395E+02 0.  0.
         13    1    3    3    0    0 -0.39436026429E+02 -0.34607676707E+02 -0.83256485903E+02  0.98410029532E+02  0.00000000000E+00 0.  1.
        -13    1    3    3    0    0 -0.67305057503E+02 -0.34473735396E+03 -0.58740428394E+03  0.68441040814E+03  0.00000000000E+00 0. -1.
          4    1    5    5  502    0  0.31674000638E+02 -0.20101364026E+02 -0.12704607206E+02  0.39606996811E+02  0.00000000000E+00 0. -1.
          3    1    6    6  503    0 -0.43578525588E+02  0.32110732538E+03 -0.22892534661E+02  0.32485853913E+03  0.00000000000E+00 0.  1.
         -4    1    5    5    0  502  0.13282840540E+03 -0.20434777810E+03 -0.35211465815E+03  0.42823607062E+03  0.00000000000E+00 0.  1.
         -3    1    6    6    0  503 -0.14182796521E+02  0.28268684741E+03 -0.10475747776E+03  0.30180645216E+03  0.00000000000E+00 0. -1.
<mgrwt>
<rscale>  0 0.14735979E+04</rscale>
<asrwt>0</asrwt>
<pdfrwt beam="1">  1        1 0.23388142E+00 0.14735979E+04</pdfrwt>
<pdfrwt beam="2">  1       -1 0.54938343E-01 0.14735979E+04</pdfrwt>
<totfact> 0.20558030E+01</totfact>
</mgrwt>
</event>
<event>
12    1  0.4967442E-008  0.1422566E+04  0.7818608E-02  0.8937644E-01
         -4   -1    0    0    0  501 -0.00000000000E+00  0.00000000000E+00  0.75567385611E+03  0.75567385611E+03  0.00000000000E+00 0.  1.
          4   -1    0    0  501    0  0.00000000000E+00 -0.00000000000E+00 -0.66950025255E+03  0.66950025255E+03  0.00000000000E+00 0. -1.
         23    2    1    2    0    0  0.22746037192E+03 -0.16257854932E+03 -0.28566428417E+03  0.40970213899E+03  0.89898575906E+02 0.  0.
        254    2    1    2    0    0 -0.22746037192E+03  0.16257854932E+03  0.37183788773E+03  0.10154719697E+04  0.90263497657E+03 0.  0.
         23    2    4    4    0    0 -0.53577437643E+03  0.26345138676E+03  0.25661192513E+03  0.65625455933E+03  0.91430579729E+02 0.  0.
         23    2    4    4    0    0  0.30831400450E+03 -0.10087283744E+03  0.11522596260E+03  0.35921741033E+03  0.10260248887E+03 0.  0.
         11    1    3    3    0    0  0.83917249095E+02 -0.58521703079E+02 -0.16871801125E+03  0.19731361268E+03  0.00000000000E+00 0.  1.
        -11    1    3    3    0    0  0.14354312283E+03 -0.10405684624E+03 -0.11694627292E+03  0.21238852631E+03  0.00000000000E+00 0. -1.
          2    1    5    5  502    0 -0.16709609213E+03  0.76205164456E+02  0.12559585718E+03  0.22249191094E+03  0.00000000000E+00 0. -1.
          1    1    6    6  503    0  0.14157732180E+03 -0.10776176693E+02  0.97485994727E+01  0.14232111306E+03  0.00000000000E+00 0. -1.
         -2    1    5    5    0  502 -0.36867828430E+03  0.18724622230E+03  0.13101606795E+03  0.43376264839E+03  0.00000000000E+00 0.  1.
         -1    1    6    6    0  503  0.16673668270E+03 -0.90096660747E+02  0.10547736313E+03  0.21689629727E+03  0.00000000000E+00 0.  1.
<mgrwt>
<rscale>  0 0.14225665E+04</rscale>
<asrwt>0</asrwt>
<pdfrwt beam="1">  1        4 0.10300004E+00 0.14225665E+04</pdfrwt>
<pdfrwt beam="2">  1       -4 0.11625752E+00 0.14225665E+04</pdfrwt>
<totfact> 0.85537954E-01</totfact>
</mgrwt>
</event>
<event>
12    1  0.4967442E-008  0.2407127E+04  0.7818608E-02  0.8436840E-01
         -1   -1    0    0    0  501 -0.00000000000E+00  0.00000000000E+00  0.12242501046E+04  0.12242501046E+04  0.00000000000E+00 0.  1.
          1   -1    0    0  501    0  0.00000000000E+00 -0.00000000000E+00 -0.11832262011E+04  0.11832262011E+04  0.00000000000E+00 0. -1.
         23    2    1    2    0    0 -0.17642781639E+02  0.80479688649E+03  0.66786018442E+03  0.10496875921E+04  0.88303560719E+02 0.  0.
        254    2    1    2    0    0  0.17642781639E+02 -0.80479688649E+03 -0.62683628095E+03  0.13577887136E+04  0.89591136352E+03 0.  0.
         23    2    4    4    0    0 -0.32817508745E+03 -0.49194127967E+03 -0.35997702300E+02  0.59954259761E+03  0.91925954513E+02 0.  0.
         23    2    4    4    0    0  0.34581786909E+03 -0.31285560681E+03 -0.59083857865E+03  0.75824611594E+03  0.91533147079E+02 0.  0.
         13    1    3    3    0    0  0.18405644138E+02  0.37070938451E+03  0.26194727879E+03  0.45429130782E+03  0.00000000000E+00 0. -1.
        -13    1    3    3    0    0 -0.36048425777E+02  0.43408750198E+03  0.40591290563E+03  0.59539628428E+03  0.00000000000E+00 0.  1.
          2    1    5    5  502    0 -0.27877405369E+03 -0.35914433484E+03 -0.58356038668E+01  0.45467975602E+03  0.00000000000E+00 0. -1.
          1    1    6    6  503    0  0.15532394578E+03 -0.13631323708E+03 -0.33544130249E+03  0.39398945945E+03  0.00000000000E+00 0. -1.
         -2    1    5    5    0  502 -0.49401033755E+02 -0.13279694483E+03 -0.30162098433E+02  0.14486284159E+03  0.00000000000E+00 0.  1.
         -1    1    6    6    0  503  0.19049392331E+03 -0.17654236974E+03 -0.25539727616E+03  0.36425665649E+03  0.00000000000E+00 0.  1.
<mgrwt>
<rscale>  0 0.24071268E+04</rscale>
<asrwt>0</asrwt>
<pdfrwt beam="1">  1        1 0.18203480E+00 0.24071268E+04</pdfrwt>
<pdfrwt beam="2">  1       -1 0.18834617E+00 0.24071268E+04</pdfrwt>
<totfact> 0.17869079E+00</totfact>
</mgrwt>
</event>
<event>
12    1  0.4967442E-008  0.2420695E+04  0.7818608E-02  0.8431796E-01
          1   -1    0    0  501    0  0.00000000000E+00  0.00000000000E+00  0.11697749254E+04  0.11697749254E+04  0.00000000000E+00 0. -1.
         -1   -1    0    0    0  501 -0.00000000000E+00 -0.00000000000E+00 -0.12523273378E+04  0.12523273378E+04  0.00000000000E+00 0.  1.
         23    2    1    2    0    0 -0.34792367226E+03  0.89689320542E+03 -0.42551235442E+03  0.10559943115E+04  0.92708783372E+02 0.  0.
        254    2    1    2    0    0  0.34792367226E+03 -0.89689320542E+03  0.34295994202E+03  0.13661079517E+04  0.90728226596E+03 0.  0.
         23    2    4    4    0    0  0.60097651626E+03 -0.55567352384E+03  0.42001358386E+03  0.92453724135E+03  0.91716202629E+02 0.  0.
         23    2    4    4    0    0 -0.25305284400E+03 -0.34121968157E+03 -0.77053641840E+02  0.44157071031E+03  0.92632691494E+02 0.  0.
         13    1    3    3    0    0 -0.17913755207E+03  0.54300062454E+03 -0.21417883631E+03  0.61058374916E+03  0.00000000000E+00 0.  1.
        -13    1    3    3    0    0 -0.16878612019E+03  0.35389258087E+03 -0.21133351812E+03  0.44541056234E+03  0.00000000000E+00 0. -1.
          2    1    5    5  502    0  0.53342064171E+03 -0.50974144039E+03  0.40436888102E+03  0.84136086728E+03  0.00000000000E+00 0. -1.
          4    1    6    6  503    0 -0.99222946515E+02 -0.15648296470E+03 -0.78338296685E+02  0.20116908332E+03  0.00000000000E+00 0. -1.
         -2    1    5    5    0  502  0.67555874551E+02 -0.45932083455E+02  0.15644702833E+02  0.83176374071E+02  0.00000000000E+00 0.  1.
         -4    1    6    6    0  503 -0.15382989748E+03 -0.18473671688E+03  0.12846548442E+01  0.24040162699E+03  0.00000000000E+00 0.  1.
<mgrwt>
<rscale>  0 0.24206950E+04</rscale>
<asrwt>0</asrwt>
<pdfrwt beam="1">  1        1 0.17996537E+00 0.24206950E+04</pdfrwt>
<pdfrwt beam="2">  1       -1 0.19266574E+00 0.24206950E+04</pdfrwt>
<totfact> 0.17028285E+00</totfact>
</mgrwt>
</event>
<event>
12    1  0.4967442E-008  0.1563809E+04  0.7818608E-02  0.8843095E-01
         -2   -1    0    0    0  501 -0.00000000000E+00  0.00000000000E+00  0.42724531645E+03  0.42724531645E+03  0.00000000000E+00 0.  1.
          2   -1    0    0  501    0  0.00000000000E+00 -0.00000000000E+00 -0.14309692685E+04  0.14309692685E+04  0.00000000000E+00 0. -1.
         23    2    1    2    0    0  0.45179292157E+03  0.63566926409E+02 -0.63645477207E+03  0.78893789511E+03  0.95868281171E+02 0.  0.
        254    2    1    2    0    0 -0.45179292157E+03 -0.63566926409E+02 -0.36726918002E+03  0.10692766899E+04  0.89459957009E+03 0.  0.
         23    2    4    4    0    0 -0.50236314450E+03 -0.38164942965E+03 -0.35907819795E+03  0.73157164384E+03  0.90746359280E+02 0.  0.
         23    2    4    4    0    0  0.50570222923E+02  0.31808250324E+03 -0.81909820654E+01  0.33770504604E+03  0.10121155872E+03 0.  0.
         13    1    3    3    0    0  0.10480341289E+03  0.56655545355E+02 -0.16502441045E+03  0.20353540777E+03  0.00000000000E+00 0.  1.
        -13    1    3    3    0    0  0.34698950869E+03  0.69113810534E+01 -0.47143036162E+03  0.58540248734E+03  0.00000000000E+00 0. -1.
          2    1    5    5  502    0 -0.32907270946E+03 -0.21440878213E+03 -0.18336734258E+03  0.43345536828E+03  0.00000000000E+00 0. -1.
          3    1    6    6  503    0  0.69058879486E+02  0.30938610694E+03 -0.10282056309E+02  0.31716653778E+03  0.00000000000E+00 0. -1.
         -2    1    5    5    0  502 -0.17329043504E+03 -0.16724064752E+03 -0.17571085537E+03  0.29811627556E+03  0.00000000000E+00 0.  1.
         -3    1    6    6    0  503 -0.18488656563E+02  0.86963963003E+01  0.20910742439E+01  0.20538508261E+02  0.00000000000E+00 0.  1.
<mgrwt>
<rscale>  0 0.15638093E+04</rscale>
<asrwt>0</asrwt>
<pdfrwt beam="1">  1        2 0.22014912E+00 0.15638093E+04</pdfrwt>
<pdfrwt beam="2">  1       -2 0.65730048E-01 0.15638093E+04</pdfrwt>
<totfact> 0.28468463E+01</totfact>
</mgrwt>
</event>
<event>
12    1  0.4967442E-008  0.2008649E+04  0.7818608E-02  0.8602588E-01
         -2   -1    0    0    0  501 -0.00000000000E+00  0.00000000000E+00  0.17235005908E+04  0.17235005908E+04  0.00000000000E+00 0.  1.
          2   -1    0    0  501    0  0.00000000000E+00 -0.00000000000E+00 -0.58524373664E+03  0.58524373664E+03  0.00000000000E+00 0. -1.
         23    2    1    2    0    0 -0.29923509460E+03 -0.28373894747E+03  0.12456495993E+04  0.13153371898E+04  0.91758195782E+02 0.  0.
        254    2    1    2    0    0  0.29923509460E+03  0.28373894747E+03 -0.10739274521E+03  0.99340713757E+03  0.89737122034E+03 0.  0.
         23    2    4    4    0    0 -0.24422843895E+03  0.26081789642E+03 -0.22265637611E+03  0.43054213217E+03  0.90095284384E+02 0.  0.
         23    2    4    4    0    0  0.54346353355E+03  0.22921051058E+02  0.11526363090E+03  0.56286500540E+03  0.87483271622E+02 0.  0.
         11    1    3    3    0    0 -0.19292061010E+03 -0.23843627485E+03  0.88724726771E+03  0.93876404545E+03  0.00000000000E+00 0.  1.
        -11    1    3    3    0    0 -0.10631448450E+03 -0.45302672619E+02  0.35840233164E+03  0.37657314440E+03  0.00000000000E+00 0. -1.
          2    1    5    5  502    0 -0.18615947975E+03  0.13702731081E+03 -0.12783000881E+03  0.26414455694E+03  0.00000000000E+00 0. -1.
          4    1    6    6  503    0  0.13206773634E+02 -0.91275423943E+01 -0.73768980724E+01  0.17667753823E+02  0.00000000000E+00 0. -1.
         -2    1    5    5    0  502 -0.58068959201E+02  0.12379058561E+03 -0.94826367297E+02  0.16639757523E+03  0.00000000000E+00 0.  1.
         -4    1    6    6    0  503  0.53025675992E+03  0.32048593452E+02  0.12264052897E+03  0.54519725158E+03  0.00000000000E+00 0.  1.
<mgrwt>
<rscale>  0 0.20086492E+04</rscale>
<asrwt>0</asrwt>
<pdfrwt beam="1">  1        2 0.90037499E-01 0.20086492E+04</pdfrwt>
<pdfrwt beam="2">  1       -2 0.26515393E+00 0.20086492E+04</pdfrwt>
<totfact> 0.24624640E+00</totfact>
</mgrwt>
</event>
<event>
12    1  0.4967442E-008  0.1917967E+04  0.7818608E-02  0.8645965E-01
         -2   -1    0    0    0  501 -0.00000000000E+00  0.00000000000E+00  0.58091368650E+03  0.58091368650E+03  0.00000000000E+00 0.  1.
          2   -1    0    0  501    0  0.00000000000E+00 -0.00000000000E+00 -0.15831077243E+04  0.15831077243E+04  0.00000000000E+00 0. -1.
         23    2    1    2    0    0 -0.37244286642E+02  0.28922011209E+03  0.37943948096E+03  0.48652841878E+03  0.87750626437E+02 0.  0.
        254    2    1    2    0    0  0.37244286642E+02 -0.28922011209E+03 -0.13816335187E+04  0.16774929920E+04  0.90555847297E+03 0.  0.
         23    2    4    4    0    0  0.45466198025E+03 -0.23538952975E+03 -0.75375122774E+03  0.91580212033E+03  0.91797948067E+02 0.  0.
         23    2    4    4    0    0 -0.41741769361E+03 -0.53830582347E+02 -0.62788229098E+03  0.76169087165E+03  0.93816576933E+02 0.  0.
         13    1    3    3    0    0 -0.29993752431E+02  0.27146225218E+03  0.30389660751E+03  0.40858845750E+03  0.00000000000E+00 0.  1.
        -13    1    3    3    0    0 -0.72505342110E+01  0.17757859912E+02  0.75542873456E+02  0.77939961284E+02  0.00000000000E+00 0. -1.
          2    1    5    5  502    0  0.38523370642E+03 -0.21265755594E+03 -0.69244548032E+03  0.82043219578E+03  0.00000000000E+00 0. -1.
          1    1    6    6  503    0 -0.28200937413E+03 -0.57646670364E+01 -0.47058121111E+03  0.54864304856E+03  0.00000000000E+00 0. -1.
         -2    1    5    5    0  502  0.69428273835E+02 -0.22731973807E+02 -0.61305747426E+02  0.95369924548E+02  0.00000000000E+00 0.  1.
         -1    1    6    6    0  503 -0.13540831947E+03 -0.48065915310E+02 -0.15730107987E+03  0.21304782309E+03  0.00000000000E+00 0.  1.
<mgrwt>
<rscale>  0 0.19179666E+04</rscale>
<asrwt>0</asrwt>
<pdfrwt beam="1">  1        2 0.24355503E+00 0.19179666E+04</pdfrwt>
<pdfrwt beam="2">  1       -2 0.89371336E-01 0.19179666E+04</pdfrwt>
<totfact> 0.11448767E+01</totfact>
</mgrwt>
</event>
<event>
12    1  0.4967442E-008  0.2131659E+04  0.7818608E-02  0.8547424E-01
          2   -1    0    0  501    0  0.00000000000E+00  0.00000000000E+00  0.75689292284E+03  0.75689292284E+03  0.00000000000E+00 0. -1.
         -2   -1    0    0    0  501 -0.00000000000E+00 -0.00000000000E+00 -0.15008625497E+04  0.15008625497E+04  0.00000000000E+00 0.  1.
         23    2    1    2    0    0  0.56596176798E+03  0.75546664363E+02  0.39909220518E+03  0.70188759231E+03  0.85741370962E+02 0.  0.
        254    2    1    2    0    0 -0.56596176798E+03 -0.75546664363E+02 -0.11430618320E+04  0.15558678802E+04  0.88775812445E+03 0.  0.
         23    2    4    4    0    0 -0.42852068928E+02 -0.38276596407E+03 -0.23614928531E+03  0.46122039568E+03  0.92799166895E+02 0.  0.
         23    2    4    4    0    0 -0.52310969906E+03  0.30721929970E+03 -0.90691254669E+03  0.10946474845E+04  0.87950512598E+02 0.  0.
         13    1    3    3    0    0  0.44369313274E+03  0.75737790857E+02  0.27391791437E+03  0.52690685402E+03  0.00000000000E+00 0. -1.
        -13    1    3    3    0    0  0.12226863525E+03 -0.19112649332E+00  0.12517429080E+03  0.17498073829E+03  0.00000000000E+00 0.  1.
          4    1    5    5  502    0 -0.45940994687E+02 -0.37083040677E+03 -0.24430125607E+03  0.44644021918E+03  0.00000000000E+00 0.  1.
          1    1    6    6  503    0 -0.13203150883E+02 -0.56115854105E+01 -0.15614292116E+02  0.21204226049E+02  0.00000000000E+00 0. -1.
         -4    1    5    5    0  502  0.30889257595E+01 -0.11935557290E+02  0.81519707559E+01  0.14780176500E+02  0.00000000000E+00 0. -1.
         -1    1    6    6    0  503 -0.50990654817E+03  0.31283088511E+03 -0.89129825457E+03  0.10734432585E+04  0.00000000000E+00 0.  1.
<mgrwt>
<rscale>  0 0.21316587E+04</rscale>
<asrwt>0</asrwt>
<pdfrwt beam="1">  1        2 0.11644507E+00 0.21316587E+04</pdfrwt>
<pdfrwt beam="2">  1       -2 0.23090193E+00 0.21316587E+04</pdfrwt>
<totfact> 0.28734584E+00</totfact>
</mgrwt>
</event>
<event>
12    1  0.4967442E-008  0.2002060E+04  0.7818608E-02  0.8605658E-01
          2   -1    0    0  501    0  0.00000000000E+00  0.00000000000E+00  0.26801564503E+04  0.26801564503E+04  0.00000000000E+00 0. -1.
         -2   -1    0    0    0  501 -0.00000000000E+00 -0.00000000000E+00 -0.37388137122E+03  0.37388137122E+03  0.00000000000E+00 0.  1.
         23    2    1    2    0    0  0.19944216532E+03  0.21819333809E+03  0.20393976776E+04  0.20626722166E+04  0.89934839801E+02 0.  0.
        254    2    1    2    0    0 -0.19944216532E+03 -0.21819333809E+03  0.26687740145E+03  0.99136560494E+03  0.90785279928E+03 0.  0.
         23    2    4    4    0    0 -0.50559621286E+03  0.44802284250E+02  0.25982914570E+03  0.57725523264E+03  0.89875711560E+02 0.  0.
         23    2    4    4    0    0  0.30615404753E+03 -0.26299562234E+03  0.70482557532E+01  0.41411037230E+03  0.92416039433E+02 0.  0.
         11    1    3    3    0    0  0.99292383262E+02  0.92001993620E+02  0.64858785894E+03  0.66256286869E+03  0.00000000000E+00 0. -1.
        -11    1    3    3    0    0  0.10014978206E+03  0.12619134447E+03  0.13908098187E+04  0.14001093479E+04  0.00000000000E+00 0.  1.
          1    1    5    5  502    0 -0.15315822374E+03 -0.27398844524E+02  0.72617200785E+02  0.17170147358E+03  0.00000000000E+00 0. -1.
          3    1    6    6  503    0  0.12361787149E+03 -0.74319432367E+02  0.39603754302E+02  0.14957678140E+03  0.00000000000E+00 0. -1.
         -1    1    5    5    0  502 -0.35243798911E+03  0.72201128774E+02  0.18721194491E+03  0.40555375906E+03  0.00000000000E+00 0.  1.
         -3    1    6    6    0  503  0.18253617604E+03 -0.18867618998E+03 -0.32555498549E+02  0.26453359090E+03  0.00000000000E+00 0.  1.
<mgrwt>
<rscale>  0 0.20020595E+04</rscale>
<asrwt>0</asrwt>
<pdfrwt beam="1">  1        2 0.41233175E+00 0.20020595E+04</pdfrwt>
<pdfrwt beam="2">  1       -2 0.57520213E-01 0.20020595E+04</pdfrwt>
<totfact> 0.71833732E+00</totfact>
</mgrwt>
</event>
<event>
12    1  0.4967442E-008  0.2851199E+04  0.7818608E-02  0.8287547E-01
          1   -1    0    0  501    0  0.00000000000E+00  0.00000000000E+00  0.30257689890E+04  0.30257689890E+04  0.00000000000E+00 0. -1.
         -1   -1    0    0    0  501 -0.00000000000E+00 -0.00000000000E+00 -0.67167527210E+03  0.67167527210E+03  0.00000000000E+00 0.  1.
         23    2    1    2    0    0 -0.16893740030E+03  0.15893837850E+03 -0.57098111913E+03  0.62324486360E+03  0.92808772333E+02 0.  0.
        254    2    1    2    0    0  0.16893740030E+03 -0.15893837850E+03  0.29250748360E+04  0.30741993975E+04  0.91697212923E+03 0.  0.
         23    2    4    4    0    0  0.17108712657E+03 -0.29757054264E+03  0.28775527291E+04  0.28993651450E+04  0.90495869623E+02 0.  0.
         23    2    4    4    0    0 -0.21497262661E+01  0.13863216414E+03  0.47522106856E+02  0.17483425245E+03  0.95316142027E+02 0.  0.
         13    1    3    3    0    0 -0.55701292278E+02  0.72237043818E+02 -0.12315505684E+03  0.15325792797E+03  0.00000000000E+00 0. -1.
        -13    1    3    3    0    0 -0.11323610803E+03  0.86701334681E+02 -0.44782606229E+03  0.46998693563E+03  0.00000000000E+00 0.  1.
          1    1    5    5  502    0  0.20900689693E+02 -0.14430211325E+02  0.45420674457E+03  0.45491629630E+03  0.00000000000E+00 0. -1.
          1    1    6    6  503    0 -0.24519057131E+02  0.25042340477E+02  0.47540595603E+02  0.59062773466E+02  0.00000000000E+00 0. -1.
         -1    1    5    5    0  502  0.15018643688E+03 -0.28314033131E+03  0.24233459846E+04  0.24444488487E+04  0.00000000000E+00 0.  1.
         -1    1    6    6    0  503  0.22369330865E+02  0.11358982366E+03 -0.18488747636E-01  0.11577147898E+03  0.00000000000E+00 0.  1.
<mgrwt>
<rscale>  0 0.28511992E+04</rscale>
<asrwt>0</asrwt>
<pdfrwt beam="1">  1        1 0.46550291E+00 0.28511992E+04</pdfrwt>
<pdfrwt beam="2">  1       -1 0.10333466E+00 0.28511992E+04</pdfrwt>
<totfact> 0.43564472E-01</totfact>
</mgrwt>
</event>
<event>
12    1  0.4967442E-008  0.1325258E+04  0.7818608E-02  0.9009772E-01
          1   -1    0    0  501    0  0.00000000000E+00  0.00000000000E+00  0.10053543640E+04  0.10053543640E+04  0.00000000000E+00 0. -1.
         -1   -1    0    0    0  501 -0.00000000000E+00 -0.00000000000E+00 -0.43673871943E+03  0.43673871943E+03  0.00000000000E+00 0.  1.
         23    2    1    2    0    0 -0.97576912854E+02 -0.17546162174E+03  0.49058380368E+03  0.53980011466E+03  0.10199833690E+03 0.  0.
        254    2    1    2    0    0  0.97576912854E+02  0.17546162174E+03  0.78031840853E+02  0.90229296872E+03  0.87620522630E+03 0.  0.
         23    2    4    4    0    0  0.46500604033E+03  0.16821836364E+03 -0.44427426497E+02  0.50480925419E+03  0.91271854818E+02 0.  0.
         23    2    4    4    0    0 -0.36742912748E+03  0.72432581030E+01  0.12245926735E+03  0.39748371453E+03  0.89108936955E+02 0.  0.
         11    1    3    3    0    0 -0.81897279289E+02 -0.62263324922E+02  0.30468063529E+03  0.32158074492E+03  0.00000000000E+00 0. -1.
        -11    1    3    3    0    0 -0.15679633565E+02 -0.11319829682E+03  0.18590316839E+03  0.21821936974E+03  0.00000000000E+00 0.  1.
          2    1    5    5  502    0  0.33933324296E+01  0.68861260098E+01 -0.12634065523E+02  0.14783539767E+02  0.00000000000E+00 0. -1.
          1    1    6    6  503    0 -0.56208523060E+02  0.34140292200E+02  0.20575438830E+02  0.68907955268E+02  0.00000000000E+00 0. -1.
         -2    1    5    5    0  502  0.46161270791E+03  0.16133223763E+03 -0.31793360974E+02  0.49002571443E+03  0.00000000000E+00 0.  1.
         -1    1    6    6    0  503 -0.31122060442E+03 -0.26897034097E+02  0.10188382852E+03  0.32857575926E+03  0.00000000000E+00 0.  1.
<mgrwt>
<rscale>  0 0.13252580E+04</rscale>
<asrwt>0</asrwt>
<pdfrwt beam="1">  1        1 0.15466990E+00 0.13252580E+04</pdfrwt>
<pdfrwt beam="2">  1       -1 0.67190572E-01 0.13252580E+04</pdfrwt>
<totfact> 0.32977652E+01</totfact>
</mgrwt>
</event>
<event>
12    1  0.4967442E-008  0.2327258E+04  0.7818608E-02  0.8467250E-01
         -1   -1    0    0    0  501 -0.00000000000E+00  0.00000000000E+00  0.79126788520E+03  0.79126788520E+03  0.00000000000E+00 0.  1.
          1   -1    0    0  501    0  0.00000000000E+00 -0.00000000000E+00 -0.17112194646E+04  0.17112194646E+04  0.00000000000E+00 0. -1.
         23    2    1    2    0    0 -0.10877970655E+03  0.46933452032E+03  0.53184787752E+03  0.72369897570E+03  0.93648951356E+02 0.  0.
        254    2    1    2    0    0  0.10877970655E+03 -0.46933452032E+03 -0.14517994569E+04  0.17787883740E+04  0.90788683225E+03 0.  0.
         23    2    4    4    0    0 -0.10203986706E+03  0.24337574289E+03 -0.40970483975E+03  0.49559795935E+03  0.90085486635E+02 0.  0.
         23    2    4    4    0    0  0.21081957362E+03 -0.71271026322E+03 -0.10420946171E+04  0.12831904147E+04  0.90640153512E+02 0.  0.
         13    1    3    3    0    0 -0.12184894224E+03  0.39378547212E+03  0.47032532328E+03  0.62539593259E+03  0.00000000000E+00 0.  1.
        -13    1    3    3    0    0  0.13069235689E+02  0.75549048206E+02  0.61522554236E+02  0.98303043118E+02  0.00000000000E+00 0. -1.
          4    1    5    5  502    0 -0.10332310628E+03  0.19792755729E+03 -0.27979219151E+03  0.35795900974E+03  0.00000000000E+00 0. -1.
          1    1    6    6  503    0  0.19207276827E+03 -0.50858816619E+03 -0.76664869443E+03  0.93984258882E+03  0.00000000000E+00 0. -1.
         -4    1    5    5    0  502  0.12832392160E+01  0.45448185605E+02 -0.12991264824E+03  0.13763894961E+03  0.00000000000E+00 0.  1.
         -1    1    6    6    0  503  0.18746805350E+02 -0.20412209703E+03 -0.27544592269E+03  0.34334782588E+03  0.00000000000E+00 0.  1.
<mgrwt>
<rscale>  0 0.23272585E+04</rscale>
<asrwt>0</asrwt>
<pdfrwt beam="1">  1        1 0.26326453E+00 0.23272585E+04</pdfrwt>
<pdfrwt beam="2">  1       -1 0.12173352E+00 0.23272585E+04</pdfrwt>
<totfact> 0.25233496E+00</totfact>
</mgrwt>
</event>
<event>
12    1  0.4967442E-008  0.1867151E+04  0.7818608E-02  0.8671382E-01
          1   -1    0    0  501    0  0.00000000000E+00  0.00000000000E+00  0.72853775312E+03  0.72853775312E+03  0.00000000000E+00 0. -1.
         -1   -1    0    0    0  501 -0.00000000000E+00 -0.00000000000E+00 -0.11963187410E+04  0.11963187410E+04  0.00000000000E+00 0.  1.
         23    2    1    2    0    0  0.64256797827E+03  0.70579081640E+02 -0.65186118143E+03  0.92253582352E+03  0.90963357199E+02 0.  0.
        254    2    1    2    0    0 -0.64256797827E+03 -0.70579081640E+02  0.18408019350E+03  0.10023206707E+04  0.74356317534E+03 0.  0.
         23    2    4    4    0    0 -0.47569652653E+03  0.28642516902E+03  0.11770829981E+02  0.56249172923E+03  0.89060823151E+02 0.  0.
         23    2    4    4    0    0 -0.16687145174E+03 -0.35700425066E+03  0.17230936352E+03  0.43982894142E+03  0.91982957940E+02 0.  0.
         11    1    3    3    0    0  0.32946495228E+03  0.92555267309E+01 -0.27921150407E+03  0.43196282659E+03  0.00000000000E+00 0. -1.
        -11    1    3    3    0    0  0.31310302599E+03  0.61323554909E+02 -0.37264967737E+03  0.49057299692E+03  0.00000000000E+00 0.  1.
          1    1    5    5  502    0 -0.28470207407E+03  0.14871720999E+03  0.46256573964E+02  0.32451771933E+03  0.00000000000E+00 0. -1.
          3    1    6    6  503    0 -0.32924136517E+02 -0.15074961552E+03  0.98488988013E+02  0.18305607366E+03  0.00000000000E+00 0. -1.
         -1    1    5    5    0  502 -0.19099445246E+03  0.13770795904E+03 -0.34485743983E+02  0.23797400990E+03  0.00000000000E+00 0.  1.
         -3    1    6    6    0  503 -0.13394731522E+03 -0.20625463514E+03  0.73820375508E+02  0.25677286775E+03  0.00000000000E+00 0.  1.
<mgrwt>
<rscale>  0 0.18671512E+04</rscale>
<asrwt>0</asrwt>
<pdfrwt beam="1">  1        1 0.11208273E+00 0.18671512E+04</pdfrwt>
<pdfrwt beam="2">  1       -1 0.18404904E+00 0.18671512E+04</pdfrwt>
<totfact> 0.46798115E+00</totfact>
</mgrwt>
</event>
<event>
12    1  0.4967442E-008  0.1879573E+04  0.7818608E-02  0.8665091E-01
          1   -1    0    0  501    0  0.00000000000E+00  0.00000000000E+00  0.27687859980E+04  0.27687859980E+04  0.00000000000E+00 0. -1.
         -1   -1    0    0    0  501 -0.00000000000E+00 -0.00000000000E+00 -0.31898420415E+03  0.31898420415E+03  0.00000000000E+00 0.  1.
         23    2    1    2    0    0  0.50548816877E+03  0.42310159137E+03  0.14157381921E+04  0.15649512740E+04  0.10111684413E+03 0.  0.
        254    2    1    2    0    0 -0.50548816877E+03 -0.42310159137E+03  0.10340636017E+04  0.15228189281E+04  0.90286029370E+03 0.  0.
         23    2    4    4    0    0 -0.56801941581E+03 -0.31521578625E+03  0.21610183126E+03  0.69079332802E+03  0.92132360888E+02 0.  0.
         23    2    4    4    0    0  0.62531247043E+02 -0.10788580512E+03  0.81796177045E+03  0.83202560006E+03  0.87496499526E+02 0.  0.
         13    1    3    3    0    0  0.12235234040E+03  0.15586914478E+03  0.37317017524E+03  0.42251776907E+03  0.00000000000E+00 0.  1.
        -13    1    3    3    0    0  0.38313582836E+03  0.26723244659E+03  0.10425680169E+04  0.11424335050E+04  0.00000000000E+00 0. -1.
          4    1    5    5  502    0 -0.30774040500E+03 -0.22058815931E+03  0.13863947017E+03  0.40321730566E+03  0.00000000000E+00 0. -1.
          4    1    6    6  503    0 -0.34762157069E+01  0.91088200818E+01  0.17035133866E+03  0.17063010655E+03  0.00000000000E+00 0. -1.
         -4    1    5    5    0  502 -0.26027901081E+03 -0.94627626945E+02  0.77462361090E+02  0.28757602236E+03  0.00000000000E+00 0.  1.
         -4    1    6    6    0  503  0.66007462750E+02 -0.11699462520E+03  0.64761043179E+03  0.66139549351E+03  0.00000000000E+00 0.  1.
<mgrwt>
<rscale>  0 0.18795734E+04</rscale>
<asrwt>0</asrwt>
<pdfrwt beam="1">  1        1 0.42596706E+00 0.18795734E+04</pdfrwt>
<pdfrwt beam="2">  1       -1 0.49074495E-01 0.18795734E+04</pdfrwt>
<totfact> 0.34249617E+00</totfact>
</mgrwt>
</event>
<event>
12    1  0.4967442E-008  0.1709866E+04  0.7818608E-02  0.8755758E-01
          1   -1    0    0  501    0  0.00000000000E+00  0.00000000000E+00  0.47558384556E+03  0.47558384556E+03  0.00000000000E+00 0. -1.
         -1   -1    0    0    0  501 -0.00000000000E+00 -0.00000000000E+00 -0.15368692533E+04  0.15368692533E+04  0.00000000000E+00 0.  1.
         23    2    1    2    0    0 -0.74320211183E+01 -0.58995229609E+03 -0.58373948360E+03  0.83512467965E+03  0.92641779149E+02 0.  0.
        254    2    1    2    0    0  0.74320211183E+01  0.58995229609E+03 -0.47754592412E+03  0.11773284192E+04  0.89997397206E+03 0.  0.
         23    2    4    4    0    0 -0.40506004145E+03  0.22485700084E+03 -0.51516445595E+02  0.47498558616E+03  0.91230778198E+02 0.  0.
         23    2    4    4    0    0  0.41249206257E+03  0.36509529526E+03 -0.42602947853E+03  0.70234283303E+03  0.91323941142E+02 0.  0.
         11    1    3    3    0    0  0.71411675072E+01 -0.29393481808E+02 -0.76819563386E+01  0.31208740752E+02  0.00000000000E+00 0. -1.
        -11    1    3    3    0    0 -0.14573188626E+02 -0.56055881428E+03 -0.57605752726E+03  0.80391593890E+03  0.00000000000E+00 0.  1.
          2    1    5    5  502    0 -0.54458760839E+02  0.79722971689E+01 -0.28748544414E+02  0.62095031687E+02  0.00000000000E+00 0. -1.
          1    1    6    6  503    0  0.29238743854E+03  0.27292800385E+03 -0.35631953436E+03  0.53567127986E+03  0.00000000000E+00 0. -1.
         -2    1    5    5    0  502 -0.35060128061E+03  0.21688470367E+03 -0.22767901181E+02  0.41289055448E+03  0.00000000000E+00 0.  1.
         -1    1    6    6    0  503  0.12010462403E+03  0.92167291405E+02 -0.69709944173E+02  0.16667155317E+03  0.00000000000E+00 0.  1.
<mgrwt>
<rscale>  0 0.17098657E+04</rscale>
<asrwt>0</asrwt>
<pdfrwt beam="1">  1        1 0.73166746E-01 0.17098657E+04</pdfrwt>
<pdfrwt beam="2">  1       -1 0.23644142E+00 0.17098657E+04</pdfrwt>
<totfact> 0.38635398E+00</totfact>
</mgrwt>
</event>
<event>
12    1  0.4967442E-008  0.1541878E+04  0.7818608E-02  0.8857072E-01
         -1   -1    0    0    0  501 -0.00000000000E+00  0.00000000000E+00  0.35245211737E+03  0.35245211737E+03  0.00000000000E+00 0.  1.
          1   -1    0    0  501    0  0.00000000000E+00 -0.00000000000E+00 -0.16863199440E+04  0.16863199440E+04  0.00000000000E+00 0. -1.
         23    2    1    2    0    0  0.14349544088E+03 -0.44261061448E+03 -0.18634639303E+03  0.50988876025E+03  0.93629439959E+02 0.  0.
        254    2    1    2    0    0 -0.14349544088E+03  0.44261061448E+03 -0.11475214336E+04  0.15288833011E+04  0.89676285062E+03 0.  0.
         23    2    4    4    0    0  0.15824084279E+02 -0.20406503032E+03 -0.32327403091E+02  0.22669639819E+03  0.91941599510E+02 0.  0.
         23    2    4    4    0    0 -0.15931952516E+03  0.64667564480E+03 -0.11151940305E+04  0.13021869029E+04  0.91983171221E+02 0.  0.
         13    1    3    3    0    0  0.53524316503E+02 -0.30328721288E+03 -0.13509624482E+03  0.33630191989E+03  0.00000000000E+00 0.  1.
        -13    1    3    3    0    0  0.89971124382E+02 -0.13932340160E+03 -0.51250148210E+02  0.17358684037E+03  0.00000000000E+00 0. -1.
          2    1    5    5  502    0 -0.25602630415E+02 -0.12336133489E+03 -0.47643031414E+02  0.13469733506E+03  0.00000000000E+00 0. -1.
          2    1    6    6  503    0  0.90995543070E+01  0.72049771682E+02 -0.14292524495E+03  0.16031717666E+03  0.00000000000E+00 0. -1.
         -2    1    5    5    0  502  0.41426714695E+02 -0.80703695429E+02  0.15315628322E+02  0.91999063133E+02  0.00000000000E+00 0.  1.
         -2    1    6    6    0  503 -0.16841907947E+03  0.57462587312E+03 -0.97226878553E+03  0.11418697262E+04  0.00000000000E+00 0.  1.
<mgrwt>
<rscale>  0 0.15418781E+04</rscale>
<asrwt>0</asrwt>
<pdfrwt beam="1">  1        1 0.25943383E+00 0.15418781E+04</pdfrwt>
<pdfrwt beam="2">  1       -1 0.54223403E-01 0.15418781E+04</pdfrwt>
<totfact> 0.16124851E+01</totfact>
</mgrwt>
</event>
<event>
12    1  0.4967442E-008  0.1270186E+04  0.7818608E-02  0.9053548E-01
          2   -1    0    0  501    0  0.00000000000E+00  0.00000000000E+00  0.59628672735E+03  0.59628672735E+03  0.00000000000E+00 0. -1.
         -2   -1    0    0    0  501 -0.00000000000E+00 -0.00000000000E+00 -0.67642452229E+03  0.67642452229E+03  0.00000000000E+00 0.  1.
         23    2    1    2    0    0 -0.25683729102E+03  0.78047950451E+02 -0.18229728589E+03  0.33691598087E+03  0.90681867516E+02 0.  0.
        254    2    1    2    0    0  0.25683729102E+03 -0.78047950451E+02  0.10215949095E+03  0.93579526877E+03  0.89062862453E+03 0.  0.
         23    2    4    4    0    0  0.45140501833E+03 -0.27396828365E+03  0.26893324506E+03  0.59934157096E+03  0.89778156396E+02 0.  0.
         23    2    4    4    0    0 -0.19456772731E+03  0.19592033319E+03 -0.16677375411E+03  0.33645369780E+03  0.95635914992E+02 0.  0.
         13    1    3    3    0    0 -0.51908842758E+02  0.20418667704E+02  0.13103784746E+01  0.55795761837E+02  0.00000000000E+00 0. -1.
        -13    1    3    3    0    0 -0.20492844827E+03  0.57629282747E+02 -0.18360766436E+03  0.28112021904E+03  0.00000000000E+00 0.  1.
          3    1    5    5  502    0  0.32181577015E+03 -0.14768294459E+03  0.19115514123E+03  0.40238778567E+03  0.00000000000E+00 0. -1.
          3    1    6    6  503    0 -0.10341327529E+03  0.53757742323E+02 -0.10425688287E+03  0.15637678214E+03  0.00000000000E+00 0. -1.
         -3    1    5    5    0  502  0.12958924819E+03 -0.12628533906E+03  0.77778103835E+02  0.19695378529E+03  0.00000000000E+00 0.  1.
         -3    1    6    6    0  503 -0.91154452015E+02  0.14216259087E+03 -0.62516871244E+02  0.18007691567E+03  0.00000000000E+00 0.  1.
<mgrwt>
<rscale>  0 0.12701858E+04</rscale>
<asrwt>0</asrwt>
<pdfrwt beam="1">  1        2 0.91736419E-01 0.12701858E+04</pdfrwt>
<pdfrwt beam="2">  1       -2 0.10406531E+00 0.12701858E+04</pdfrwt>
<totfact> 0.36866193E+01</totfact>
</mgrwt>
</event>
<event>
12    1  0.4967442E-008  0.1698171E+04  0.7818608E-02  0.8762408E-01
         -2   -1    0    0    0  501 -0.00000000000E+00  0.00000000000E+00  0.31844752375E+03  0.31844752375E+03  0.00000000000E+00 0.  1.
          2   -1    0    0  501    0  0.00000000000E+00 -0.00000000000E+00 -0.22639413747E+04  0.22639413747E+04  0.00000000000E+00 0. -1.
         23    2    1    2    0    0  0.14961926494E+03  0.20396486165E+03 -0.15306297655E+04  0.15541202124E+04  0.92057407660E+02 0.  0.
        254    2    1    2    0    0 -0.14961926494E+03 -0.20396486165E+03 -0.41486408545E+03  0.10282686861E+04  0.90622110552E+03 0.  0.
         23    2    4    4    0    0  0.31298954315E+03 -0.25948576534E+03 -0.31343976095E+02  0.41756845383E+03  0.89920254978E+02 0.  0.
         23    2    4    4    0    0 -0.46260880809E+03  0.55520903690E+02 -0.38352010935E+03  0.61070023222E+03  0.93688949688E+02 0.  0.
         13    1    3    3    0    0  0.72511045431E+02  0.29426891511E+02 -0.46664895916E+03  0.47316492341E+03  0.00000000000E+00 0.  1.
        -13    1    3    3    0    0  0.77108219506E+02  0.17453797014E+03 -0.10639808063E+04  0.10809552890E+04  0.00000000000E+00 0. -1.
          4    1    6    6  502    0 -0.29631792502E+03 -0.53927190677E+01 -0.26534260922E+03  0.39779403512E+03  0.00000000000E+00 0. -1.
          4    1    5    5  503    0  0.25634500389E+03 -0.16179071692E+03 -0.30213224748E+02  0.30463393778E+03  0.00000000000E+00 0. -1.
         -4    1    5    5    0  503  0.56644539262E+02 -0.97695048427E+02 -0.11307513472E+01  0.11293451604E+03  0.00000000000E+00 0.  1.
         -4    1    6    6    0  502 -0.16629088306E+03  0.60913622758E+02 -0.11817750013E+03  0.21290619710E+03  0.00000000000E+00 0.  1.
<mgrwt>
<rscale>  0 0.16981714E+04</rscale>
<asrwt>0</asrwt>
<pdfrwt beam="1">  1        2 0.34829867E+00 0.16981714E+04</pdfrwt>
<pdfrwt beam="2">  1       -2 0.48991927E-01 0.16981714E+04</pdfrwt>
<totfact> 0.17852616E+01</totfact>
</mgrwt>
</event>
<event>
12    1  0.4967442E-008  0.2051821E+04  0.7818608E-02  0.8582769E-01
         -2   -1    0    0    0  501 -0.00000000000E+00  0.00000000000E+00  0.52590725199E+03  0.52590725199E+03  0.00000000000E+00 0.  1.
          2   -1    0    0  501    0  0.00000000000E+00 -0.00000000000E+00 -0.20012886698E+04  0.20012886698E+04  0.00000000000E+00 0. -1.
         23    2    1    2    0    0  0.15525060633E+03 -0.61765763343E+03 -0.12294831066E+04  0.13876512907E+04  0.91343812868E+02 0.  0.
        254    2    1    2    0    0 -0.15525060633E+03  0.61765763343E+03 -0.24589831117E+03  0.11395446311E+04  0.91241015114E+03 0.  0.
         23    2    4    4    0    0  0.66006009238E+02  0.21919679209E+03 -0.53719131178E+03  0.59111976370E+03  0.91891472235E+02 0.  0.
         23    2    4    4    0    0 -0.22125661556E+03  0.39846084133E+03  0.29129300060E+03  0.54842486739E+03  0.90513484971E+02 0.  0.
         11    1    3    3    0    0  0.13613267401E+03 -0.59055671184E+03 -0.11944895751E+04  0.13394381956E+04  0.00000000000E+00 0. -1.
        -11    1    3    3    0    0  0.19117932319E+02 -0.27100921591E+02 -0.34993531490E+02  0.48213095041E+02  0.00000000000E+00 0.  1.
          4    1    5    5  502    0  0.79637242932E+02  0.17975672752E+03 -0.49083949121E+03  0.52875133823E+03  0.00000000000E+00 0. -1.
          3    1    6    6  503    0 -0.15214914095E+03  0.34392636585E+03  0.22527442462E+03  0.43838712642E+03  0.00000000000E+00 0. -1.
         -4    1    5    5    0  502 -0.13631233694E+02  0.39440064578E+02 -0.46351820571E+02  0.62368425474E+02  0.00000000000E+00 0.  1.
         -3    1    6    6    0  503 -0.69107474609E+02  0.54534475484E+02  0.66018575985E+02  0.11003774097E+03  0.00000000000E+00 0.  1.
<mgrwt>
<rscale>  0 0.20518209E+04</rscale>
<asrwt>0</asrwt>
<pdfrwt beam="1">  1        2 0.30789056E+00 0.20518209E+04</pdfrwt>
<pdfrwt beam="2">  1       -2 0.80908809E-01 0.20518209E+04</pdfrwt>
<totfact> 0.83150494E+00</totfact>
</mgrwt>
</event>
<event>
12    1  0.4967442E-008  0.1154589E+04  0.7818608E-02  0.9153560E-01
          1   -1    0    0  501    0  0.00000000000E+00  0.00000000000E+00  0.16433446757E+04  0.16433446757E+04  0.00000000000E+00 0. -1.
         -1   -1    0    0    0  501 -0.00000000000E+00 -0.00000000000E+00 -0.20279917699E+03  0.20279917699E+03  0.00000000000E+00 0.  1.
         23    2    1    2    0    0 -0.31108802800E+02  0.91714318818E+02 -0.20276137836E+02  0.13431329459E+03  0.90827668962E+02 0.  0.
        254    2    1    2    0    0  0.31108802800E+02 -0.91714318818E+02  0.14608216366E+04  0.17118305581E+04  0.88712159932E+03 0.  0.
         23    2    4    4    0    0 -0.22947888282E+03 -0.32658804648E+03  0.11892096000E+04  0.12576600813E+04  0.90383060243E+02 0.  0.
         23    2    4    4    0    0  0.26058768562E+03  0.23487372766E+03  0.27161203653E+03  0.45417047680E+03  0.97088175181E+02 0.  0.
         13    1    3    3    0    0 -0.35810472281E+02  0.26187013665E+02  0.28288906956E+02  0.52615699810E+02  0.00000000000E+00 0. -1.
        -13    1    3    3    0    0  0.47016694807E+01  0.65527305153E+02 -0.48565044792E+02  0.81697594776E+02  0.00000000000E+00 0.  1.
          4    1    5    5  502    0 -0.17633414305E+03 -0.17737933239E+03  0.76470365219E+03  0.80456748209E+03  0.00000000000E+00 0.  1.
          1    1    6    6  503    0  0.18435667868E+03  0.21545532264E+03  0.23038332659E+03  0.36535579673E+03  0.00000000000E+00 0. -1.
         -4    1    5    5    0  502 -0.53144739775E+02 -0.14920871409E+03  0.42450594785E+03  0.45309259924E+03  0.00000000000E+00 0. -1.
         -1    1    6    6    0  503  0.76231006941E+02  0.19418405022E+02  0.41228709935E+02  0.88814680069E+02  0.00000000000E+00 0.  1.
<mgrwt>
<rscale>  0 0.11545890E+04</rscale>
<asrwt>0</asrwt>
<pdfrwt beam="1">  1        1 0.25282225E+00 0.11545890E+04</pdfrwt>
<pdfrwt beam="2">  1       -1 0.31199874E-01 0.11545890E+04</pdfrwt>
<totfact> 0.49275220E+01</totfact>
</mgrwt>
</event>
<event>
12    1  0.4967442E-008  0.1452828E+04  0.7818608E-02  0.8916442E-01
          1   -1    0    0  501    0  0.00000000000E+00  0.00000000000E+00  0.69548912615E+03  0.69548912615E+03  0.00000000000E+00 0. -1.
         -1   -1    0    0    0  501 -0.00000000000E+00 -0.00000000000E+00 -0.75871364603E+03  0.75871364603E+03  0.00000000000E+00 0.  1.
         23    2    1    2    0    0 -0.21255910649E+03 -0.39731599056E+03  0.51842604041E+02  0.46229902202E+03  0.89394407319E+02 0.  0.
        254    2    1    2    0    0  0.21255910649E+03  0.39731599056E+03 -0.11506712392E+03  0.99190375015E+03  0.87612284324E+03 0.  0.
         23    2    4    4    0    0  0.18820969609E+03 -0.24610244652E+03 -0.11218615492E+03  0.34245983147E+03  0.93293616750E+02 0.  0.
         23    2    4    4    0    0  0.24349410398E+02  0.64341843709E+03 -0.28809690004E+01  0.64944391868E+03  0.84787525982E+02 0.  0.
         11    1    3    3    0    0 -0.18841333129E+03 -0.37255141271E+03  0.69875576437E+02  0.42329272933E+03  0.00000000000E+00 0. -1.
        -11    1    3    3    0    0 -0.24145775195E+02 -0.24764577849E+02 -0.18032972396E+02  0.39006292688E+02  0.00000000000E+00 0.  1.
          2    1    5    5  502    0  0.45991963458E+02 -0.82344895027E+02  0.77124227468E+01  0.94633101526E+02  0.00000000000E+00 0. -1.
          4    1    6    6  503    0  0.31864024461E+02  0.58867126548E+03 -0.24655084164E+02  0.59004834381E+03  0.00000000000E+00 0. -1.
         -2    1    5    5    0  502  0.14221773263E+03 -0.16375755150E+03 -0.11989857767E+03  0.24782672994E+03  0.00000000000E+00 0.  1.
         -4    1    6    6    0  503 -0.75146140636E+01  0.54747171608E+02  0.21774115164E+02  0.59395574876E+02  0.00000000000E+00 0.  1.
<mgrwt>
<rscale>  0 0.14528277E+04</rscale>
<asrwt>0</asrwt>
<pdfrwt beam="1">  1        1 0.10699833E+00 0.14528277E+04</pdfrwt>
<pdfrwt beam="2">  1       -1 0.11672518E+00 0.14528277E+04</pdfrwt>
<totfact> 0.17698069E+01</totfact>
</mgrwt>
</event>
<event>
12    1  0.4967442E-008  0.1688620E+04  0.7818608E-02  0.8767882E-01
         -1   -1    0    0    0  501 -0.00000000000E+00  0.00000000000E+00  0.26277925097E+03  0.26277925097E+03  0.00000000000E+00 0.  1.
          1   -1    0    0  501    0  0.00000000000E+00 -0.00000000000E+00 -0.27127678783E+04  0.27127678783E+04  0.00000000000E+00 0. -1.
         23    2    1    2    0    0 -0.44353647991E+03 -0.28213634978E+03 -0.42048711604E+03  0.68500397945E+03  0.12686807411E+03 0.  0.
        254    2    1    2    0    0  0.44353647991E+03  0.28213634978E+03 -0.20295015113E+04  0.22905431498E+04  0.92270580794E+03 0.  0.
         23    2    4    4    0    0  0.17227249295E+03  0.54919186619E+03 -0.73670179048E+03  0.93947621156E+03  0.92717346073E+02 0.  0.
         23    2    4    4    0    0  0.27126398696E+03 -0.26705551641E+03 -0.12927997208E+04  0.13510669383E+04  0.95644937676E+02 0.  0.
         11    1    3    3    0    0 -0.16668768529E+03 -0.10601568330E+03 -0.23887021572E+03  0.30997272378E+03  0.00000000000E+00 0. -1.
        -11    1    3    3    0    0 -0.27684879462E+03 -0.17612066648E+03 -0.18161690032E+03  0.37503125566E+03  0.00000000000E+00 0.  1.
          4    1    5    5  502    0  0.90712905725E+02  0.38957973058E+03 -0.55618541774E+03  0.68508643006E+03  0.00000000000E+00 0. -1.
          4    1    6    6  503    0  0.93846700754E+02 -0.65811453107E+02 -0.26296737854E+03  0.28686267234E+03  0.00000000000E+00 0. -1.
         -4    1    5    5    0  502  0.81559587222E+02  0.15961213561E+03 -0.18051637274E+03  0.25438978149E+03  0.00000000000E+00 0.  1.
         -4    1    6    6    0  503  0.17741728621E+03 -0.20124406330E+03 -0.10298323423E+04  0.10642042659E+04  0.00000000000E+00 0.  1.
<mgrwt>
<rscale>  0 0.16886197E+04</rscale>
<asrwt>0</asrwt>
<pdfrwt beam="1">  1        1 0.41734892E+00 0.16886197E+04</pdfrwt>
<pdfrwt beam="2">  1       -1 0.40427575E-01 0.16886197E+04</pdfrwt>
<totfact> 0.54825249E+00</totfact>
</mgrwt>
</event>
<event>
12    1  0.4967442E-008  0.1751858E+04  0.7818608E-02  0.8732328E-01
          1   -1    0    0  501    0  0.00000000000E+00  0.00000000000E+00  0.26091119581E+04  0.26091119581E+04  0.00000000000E+00 0. -1.
         -1   -1    0    0    0  501 -0.00000000000E+00 -0.00000000000E+00 -0.29406620310E+03  0.29406620310E+03  0.00000000000E+00 0.  1.
         23    2    1    2    0    0  0.58450440382E+03  0.70634736695E+02  0.13193173185E+04  0.14485550005E+04  0.10525558621E+03 0.  0.
        254    2    1    2    0    0 -0.58450440382E+03 -0.70634736695E+02  0.99572843652E+03  0.14546231607E+04  0.88194033604E+03 0.  0.
         23    2    4    4    0    0 -0.57627008083E+03 -0.38059437094E+03  0.47877855366E+03  0.84529180936E+03  0.91378653292E+02 0.  0.
         23    2    4    4    0    0 -0.82343229967E+01  0.30995963424E+03  0.51694988285E+03  0.60933135137E+03  0.88908579163E+02 0.  0.
         11    1    3    3    0    0  0.77722581259E+02  0.94803084004E+00  0.27350202291E+03  0.28433264839E+03  0.00000000000E+00 0.  1.
        -11    1    3    3    0    0  0.50678182256E+03  0.69686705855E+02  0.10458152956E+04  0.11642223521E+04  0.00000000000E+00 0. -1.
          1    1    5    5  502    0 -0.46547331481E+03 -0.27053354022E+03  0.39759740235E+03  0.66928132914E+03  0.00000000000E+00 0. -1.
          3    1    6    6  503    0 -0.14664224899E+02  0.29158005842E+03  0.51176069676E+03  0.58917992219E+03  0.00000000000E+00 0. -1.
         -1    1    5    5    0  502 -0.11079676602E+03 -0.11006083072E+03  0.81181151318E+02  0.17601048022E+03  0.00000000000E+00 0.  1.
         -3    1    6    6    0  503  0.64299019027E+01  0.18379575826E+02  0.51891860945E+01  0.20151429188E+02  0.00000000000E+00 0.  1.
<mgrwt>
<rscale>  0 0.17518580E+04</rscale>
<asrwt>0</asrwt>
<pdfrwt beam="1">  1        1 0.40140182E+00 0.17518580E+04</pdfrwt>
<pdfrwt beam="2">  1       -1 0.45240956E-01 0.17518580E+04</pdfrwt>
<totfact> 0.52323092E+00</totfact>
</mgrwt>
</event>
<event>
12    1  0.4967442E-008  0.2073279E+04  0.7818608E-02  0.8573106E-01
         -1   -1    0    0    0  501 -0.00000000000E+00  0.00000000000E+00  0.13766345889E+04  0.13766345889E+04  0.00000000000E+00 0.  1.
          1   -1    0    0  501    0  0.00000000000E+00 -0.00000000000E+00 -0.78061492343E+03  0.78061492343E+03  0.00000000000E+00 0. -1.
         23    2    1    2    0    0 -0.28993593461E+03  0.74819252750E+03 -0.13922148415E+02  0.80762094191E+03  0.90569615243E+02 0.  0.
        254    2    1    2    0    0  0.28993593461E+03 -0.74819252750E+03  0.60994181391E+03  0.13496285705E+04  0.89755966790E+03 0.  0.
         23    2    4    4    0    0 -0.22235863870E+03 -0.24207198243E+02  0.34033638405E+03  0.41786141921E+03  0.93541213917E+02 0.  0.
         23    2    4    4    0    0  0.51229457331E+03 -0.72398532925E+03  0.26960542985E+03  0.93176715124E+03  0.94352792782E+02 0.  0.
         13    1    3    3    0    0 -0.28976286951E+03  0.69324824182E+03 -0.18767131064E+01  0.75137152421E+03  0.00000000000E+00 0. -1.
        -13    1    3    3    0    0 -0.17306510677E+00  0.54944285672E+02 -0.12045435309E+02  0.56249417698E+02  0.00000000000E+00 0.  1.
          2    1    5    5  502    0 -0.13347170220E+03  0.27902580203E+02  0.22599443208E+03  0.26394456350E+03  0.00000000000E+00 0. -1.
          4    1    6    6  503    0  0.71407546645E+02 -0.11292337185E+03  0.76291965732E+02  0.15385444311E+03  0.00000000000E+00 0. -1.
         -2    1    5    5    0  502 -0.88886936502E+02 -0.52109778446E+02  0.11434195198E+03  0.15391685571E+03  0.00000000000E+00 0.  1.
         -4    1    6    6    0  503  0.44088702667E+03 -0.61106195740E+03  0.19331346412E+03  0.77791270813E+03  0.00000000000E+00 0.  1.
<mgrwt>
<rscale>  0 0.20732790E+04</rscale>
<asrwt>0</asrwt>
<pdfrwt beam="1">  1        1 0.12009460E+00 0.20732790E+04</pdfrwt>
<pdfrwt beam="2">  1       -1 0.21178994E+00 0.20732790E+04</pdfrwt>
<totfact> 0.26495236E+00</totfact>
</mgrwt>
</event>
<event>
12    1  0.4967442E-008  0.1175457E+04  0.7818608E-02  0.9134615E-01
         -2   -1    0    0    0  501 -0.00000000000E+00  0.00000000000E+00  0.31601538257E+03  0.31601538257E+03  0.00000000000E+00 0.  1.
          2   -1    0    0  501    0  0.00000000000E+00 -0.00000000000E+00 -0.10930624939E+04  0.10930624939E+04  0.00000000000E+00 0. -1.
         23    2    1    2    0    0 -0.11289775489E+03 -0.73062929924E+02  0.58289730220E+02  0.17291888492E+03  0.91755944356E+02 0.  0.
        254    2    1    2    0    0  0.11289775489E+03  0.73062929924E+02 -0.83533684151E+03  0.12361589915E+04  0.90123100185E+03 0.  0.
         23    2    4    4    0    0 -0.31873294062E+03 -0.81926746440E+02 -0.85092857247E+02  0.35213503967E+03  0.91954404949E+02 0.  0.
         23    2    4    4    0    0  0.43163069552E+03  0.15498967636E+03 -0.75024398426E+03  0.88402395183E+03  0.91134265751E+02 0.  0.
         13    1    3    3    0    0 -0.46165720229E+02 -0.14126725960E+02 -0.21977909313E+02  0.53045891532E+02  0.00000000000E+00 0. -1.
        -13    1    3    3    0    0 -0.66732034665E+02 -0.58936203964E+02  0.80267639534E+02  0.11987299339E+03  0.00000000000E+00 0.  1.
          4    1    5    5  502    0 -0.26111864497E+03 -0.65524818011E+02 -0.30233042554E+02  0.27090678358E+03  0.00000000000E+00 0. -1.
          1    1    6    6  503    0  0.26950477261E+03  0.12848727886E+03 -0.54188085370E+03  0.61868947211E+03  0.00000000000E+00 0. -1.
         -4    1    5    5    0  502 -0.57614295650E+02 -0.16401928429E+02 -0.54859814693E+02  0.81228256091E+02  0.00000000000E+00 0.  1.
         -1    1    6    6    0  503  0.16212592291E+03  0.26502397506E+02 -0.20836313056E+03  0.26533447972E+03  0.00000000000E+00 0.  1.
<mgrwt>
<rscale>  0 0.11754566E+04</rscale>
<asrwt>0</asrwt>
<pdfrwt beam="1">  1        2 0.16816346E+00 0.11754566E+04</pdfrwt>
<pdfrwt beam="2">  1       -2 0.48617750E-01 0.11754566E+04</pdfrwt>
<totfact> 0.87100347E+01</totfact>
</mgrwt>
</event>
<event>
12    1  0.4967442E-008  0.1316587E+04  0.7818608E-02  0.9016514E-01
          1   -1    0    0  501    0  0.00000000000E+00  0.00000000000E+00  0.43726542290E+03  0.43726542290E+03  0.00000000000E+00 0. -1.
         -1   -1    0    0    0  501 -0.00000000000E+00 -0.00000000000E+00 -0.99104622334E+03  0.99104622334E+03  0.00000000000E+00 0.  1.
         23    2    1    2    0    0 -0.25042404232E+03  0.18381704964E+03  0.51408176502E+01  0.32426808736E+03  0.92857179364E+02 0.  0.
        254    2    1    2    0    0  0.25042404232E+03 -0.18381704964E+03 -0.55892161809E+03  0.11040435589E+04  0.90000994218E+03 0.  0.
         23    2    4    4    0    0 -0.32888617937E+03 -0.33904966401E+02 -0.15628490368E+03  0.37707439227E+03  0.91893745491E+02 0.  0.
         23    2    4    4    0    0  0.57931022170E+03 -0.14991208324E+03 -0.40263671441E+03  0.72696916661E+03  0.91070740298E+02 0.  0.
         13    1    3    3    0    0 -0.24561973378E+03  0.18939876042E+03 -0.68017516348E+01  0.31023734123E+03  0.00000000000E+00 0.  1.
        -13    1    3    3    0    0 -0.48043085458E+01 -0.55817107737E+01  0.11942569285E+02  0.14030746127E+02  0.00000000000E+00 0. -1.
          2    1    5    5  502    0 -0.94457165483E+02  0.31399972375E+02 -0.52175174621E+02  0.11238488877E+03  0.00000000000E+00 0. -1.
          4    1    6    6  503    0  0.66665493165E+02 -0.31894187870E+02 -0.20265669236E+02  0.76630441395E+02  0.00000000000E+00 0. -1.
         -2    1    5    5    0  502 -0.23442901389E+03 -0.65304938776E+02 -0.10410972905E+03  0.26468950350E+03  0.00000000000E+00 0.  1.
         -4    1    6    6    0  503  0.51264472853E+03 -0.11801789537E+03 -0.38237104518E+03  0.65033872521E+03  0.00000000000E+00 0.  1.
<mgrwt>
<rscale>  0 0.13165869E+04</rscale>
<asrwt>0</asrwt>
<pdfrwt beam="1">  1        1 0.67271604E-01 0.13165869E+04</pdfrwt>
<pdfrwt beam="2">  1       -1 0.15246865E+00 0.13165869E+04</pdfrwt>
<totfact> 0.17438160E+01</totfact>
</mgrwt>
</event>
<event>
12    1  0.4967442E-008  0.3595715E+04  0.7818608E-02  0.8091474E-01
         -1   -1    0    0    0  501 -0.00000000000E+00  0.00000000000E+00  0.14543467387E+04  0.14543467387E+04  0.00000000000E+00 0.  1.
          1   -1    0    0  501    0  0.00000000000E+00 -0.00000000000E+00 -0.22225035180E+04  0.22225035180E+04  0.00000000000E+00 0. -1.
         23    2    1    2    0    0 -0.20900081947E+03 -0.15402195068E+04 -0.10195201028E+04  0.18611299372E+04  0.91792873011E+02 0.  0.
        254    2    1    2    0    0  0.20900081947E+03  0.15402195068E+04  0.25136332354E+03  0.18157203194E+04  0.90426726490E+03 0.  0.
         23    2    4    4    0    0 -0.25509387526E+03  0.81778410124E+03  0.38167238412E+03  0.94241845293E+03  0.92924755454E+02 0.  0.
         23    2    4    4    0    0  0.46409469473E+03  0.72243540554E+03 -0.13030906058E+03  0.87330186651E+03  0.91536320232E+02 0.  0.
         13    1    3    3    0    0 -0.61581555075E+02 -0.54479397738E+03 -0.30969769527E+03  0.62968676989E+03  0.00000000000E+00 0. -1.
        -13    1    3    3    0    0 -0.14741926440E+03 -0.99542552940E+03 -0.70982240756E+03  0.12314431673E+04  0.00000000000E+00 0.  1.
          4    1    5    5  502    0 -0.24373328697E+03  0.75896868096E+03  0.37847666334E+03  0.88243071034E+03  0.00000000000E+00 0. -1.
          4    1    6    6  503    0  0.42228823896E+03  0.60769658505E+03 -0.94387859330E+02  0.74601043172E+03  0.00000000000E+00 0. -1.
         -4    1    5    5    0  502 -0.11360588290E+02  0.58815420284E+02  0.31957207761E+01  0.59987742587E+02  0.00000000000E+00 0.  1.
         -4    1    6    6    0  503  0.41806455774E+02  0.11473882049E+03 -0.35921201248E+02  0.12729143479E+03  0.00000000000E+00 0.  1.
<mgrwt>
<rscale>  0 0.35957145E+04</rscale>
<asrwt>0</asrwt>
<pdfrwt beam="1">  1        1 0.34192362E+00 0.35957145E+04</pdfrwt>
<pdfrwt beam="2">  1       -1 0.22374565E+00 0.35957145E+04</pdfrwt>
<totfact> 0.17680566E-01</totfact>
</mgrwt>
</event>
<event>
12    1  0.4967442E-008  0.1561765E+04  0.7818608E-02  0.8844388E-01
          2   -1    0    0  501    0  0.00000000000E+00  0.00000000000E+00  0.13011962950E+04  0.13011962950E+04  0.00000000000E+00 0.  1.
         -2   -1    0    0    0  501 -0.00000000000E+00 -0.00000000000E+00 -0.46862825183E+03  0.46862825183E+03  0.00000000000E+00 0. -1.
         23    2    1    2    0    0  0.17373772813E+03 -0.34567342661E+03 -0.11600758538E+03  0.41409995454E+03  0.91356972625E+02 0.  0.
        254    2    1    2    0    0 -0.17373772813E+03  0.34567342661E+03  0.94857562859E+03  0.13557245923E+04  0.88798565925E+03 0.  0.
         23    2    4    4    0    0 -0.97212249261E+02  0.17060505014E+03  0.10835454987E+04  0.11046327916E+04  0.87100242067E+02 0.  0.
         23    2    4    4    0    0 -0.76525478870E+02  0.17506837647E+03 -0.13496987007E+03  0.25109180068E+03  0.91242211636E+02 0.  0.
         11    1    3    3    0    0  0.67846255189E+02 -0.19354925426E+03 -0.22000192411E+02  0.20627272392E+03  0.00000000000E+00 0.  1.
        -11    1    3    3    0    0  0.10589147294E+03 -0.15212417234E+03 -0.94007392971E+02  0.20782723062E+03  0.00000000000E+00 0. -1.
          4    1    5    5  502    0 -0.10846943196E+03  0.11594033759E+03  0.82346297908E+03  0.83862927296E+03  0.00000000000E+00 0. -1.
          1    1    6    6  503    0 -0.40562232662E+02  0.14111952192E+03 -0.13805203091E+03  0.20154001445E+03  0.00000000000E+00 0. -1.
         -4    1    5    5    0  502  0.11257182702E+02  0.54664712553E+02  0.26008251958E+03  0.26600351869E+03  0.00000000000E+00 0.  1.
         -1    1    6    6    0  503 -0.35963246208E+02  0.33948854544E+02  0.30821608383E+01  0.49551786225E+02  0.00000000000E+00 0.  1.
<mgrwt>
<rscale>  0 0.15617648E+04</rscale>
<asrwt>0</asrwt>
<pdfrwt beam="1">  1        2 0.20018404E+00 0.15617648E+04</pdfrwt>
<pdfrwt beam="2">  1       -2 0.72096654E-01 0.15617648E+04</pdfrwt>
<totfact> 0.27658060E+01</totfact>
</mgrwt>
</event>
<event>
12    1  0.4967442E-008  0.1427136E+04  0.7818608E-02  0.8934407E-01
         -1   -1    0    0    0  501 -0.00000000000E+00  0.00000000000E+00  0.83960115769E+03  0.83960115769E+03  0.00000000000E+00 0.  1.
          1   -1    0    0  501    0  0.00000000000E+00 -0.00000000000E+00 -0.60645355250E+03  0.60645355250E+03  0.00000000000E+00 0. -1.
         23    2    1    2    0    0  0.31366568997E+03 -0.20138058977E+03  0.25873688625E+03  0.46768231443E+03  0.11332106566E+03 0.  0.
        254    2    1    2    0    0 -0.31366568997E+03  0.20138058977E+03 -0.25589281056E+02  0.97837239575E+03  0.90422200065E+03 0.  0.
         23    2    4    4    0    0  0.16584029123E+03  0.15349416494E+03  0.30318117909E+03  0.38863286767E+03  0.89739721470E+02 0.  0.
         23    2    4    4    0    0 -0.47950598120E+03  0.47886424831E+02 -0.32877046015E+03  0.58973952809E+03  0.86507802179E+02 0.  0.
         11    1    3    3    0    0  0.37452919007E+02 -0.29207960701E+02  0.88336364765E+02  0.10029526135E+03  0.00000000000E+00 0.  1.
        -11    1    3    3    0    0  0.27621277097E+03 -0.17217262907E+03  0.17040052149E+03  0.36738705308E+03  0.00000000000E+00 0. -1.
          4    1    5    5  502    0  0.16790823050E+03  0.11440231040E+03  0.24178008524E+03  0.31581430005E+03  0.00000000000E+00 0. -1.
          1    1    6    6  503    0 -0.21449414480E+03  0.62939333867E+02 -0.16508771016E+03  0.27789035598E+03  0.00000000000E+00 0. -1.
         -4    1    5    5    0  502 -0.20679392712E+01  0.39091854542E+02  0.61401093846E+02  0.72818567618E+02  0.00000000000E+00 0.  1.
         -1    1    6    6    0  503 -0.26501183640E+03 -0.15052909037E+02 -0.16368274999E+03  0.31184917211E+03  0.00000000000E+00 0.  1.
<mgrwt>
<rscale>  0 0.14271357E+04</rscale>
<asrwt>0</asrwt>
<pdfrwt beam="1">  1        1 0.93300546E-01 0.14271357E+04</pdfrwt>
<pdfrwt beam="2">  1       -1 0.12916941E+00 0.14271357E+04</pdfrwt>
<totfact> 0.16915811E+01</totfact>
</mgrwt>
</event>
<event>
12    1  0.4967442E-008  0.1388232E+04  0.7818608E-02  0.8962381E-01
          1   -1    0    0  501    0  0.00000000000E+00  0.00000000000E+00  0.49958430732E+03  0.49958430732E+03  0.00000000000E+00 0. -1.
         -1   -1    0    0    0  501 -0.00000000000E+00 -0.00000000000E+00 -0.96439556609E+03  0.96439556609E+03  0.00000000000E+00 0.  1.
         23    2    1    2    0    0 -0.23186640778E+03 -0.79642980878E+02 -0.47489145654E+03  0.54184121940E+03  0.89246714689E+02 0.  0.
        254    2    1    2    0    0  0.23186640778E+03  0.79642980878E+02  0.10080197771E+02  0.92213865402E+03  0.88889428583E+03 0.  0.
         23    2    4    4    0    0  0.36566486266E+03 -0.87303438615E+02  0.34356972794E+03  0.51574893649E+03  0.81388729865E+02 0.  0.
         23    2    4    4    0    0 -0.13379845488E+03  0.16694641949E+03 -0.33348953017E+03  0.40638971753E+03  0.90355975299E+02 0.  0.
         11    1    3    3    0    0 -0.22417945687E+02  0.81148394458E+01 -0.10604890920E+03  0.10869584192E+03  0.00000000000E+00 0. -1.
        -11    1    3    3    0    0 -0.20944846210E+03 -0.87757820324E+02 -0.36884254734E+03  0.43314537747E+03  0.00000000000E+00 0.  1.
          2    1    5    5  502    0  0.20202563160E+02 -0.72792039562E-01 -0.80891339951E+00  0.20218882210E+02  0.00000000000E+00 0. -1.
          2    1    6    6  503    0  0.19971424524E+01 -0.89317098788E+01 -0.72920693596E+01  0.11702063702E+02  0.00000000000E+00 0. -1.
         -2    1    5    5    0  502  0.34546229950E+03 -0.87230646575E+02  0.34437864134E+03  0.49553005428E+03  0.00000000000E+00 0.  1.
         -2    1    6    6    0  503 -0.13579559733E+03  0.17587812937E+03 -0.32619746081E+03  0.39468765383E+03  0.00000000000E+00 0.  1.
<mgrwt>
<rscale>  0 0.13882318E+04</rscale>
<asrwt>0</asrwt>
<pdfrwt beam="1">  1        1 0.76859125E-01 0.13882318E+04</pdfrwt>
<pdfrwt beam="2">  1       -1 0.14836855E+00 0.13882318E+04</pdfrwt>
<totfact> 0.15562646E+01</totfact>
</mgrwt>
</event>
<event>
12    1  0.4967442E-008  0.1924406E+04  0.7818608E-02  0.8642803E-01
          2   -1    0    0  501    0  0.00000000000E+00  0.00000000000E+00  0.18913293137E+04  0.18913293137E+04  0.00000000000E+00 0. -1.
         -2   -1    0    0    0  501 -0.00000000000E+00 -0.00000000000E+00 -0.48951516250E+03  0.48951516250E+03  0.00000000000E+00 0.  1.
         23    2    1    2    0    0  0.97028252503E+01 -0.49239906234E+03  0.12478066351E+04  0.13444690422E+04  0.89580273439E+02 0.  0.
        254    2    1    2    0    0 -0.97028252503E+01  0.49239906234E+03  0.15400751603E+03  0.10363754339E+04  0.89877958569E+03 0.  0.
         23    2    4    4    0    0 -0.13021935270E+03  0.34861981352E+02 -0.32100463421E+03  0.35965022359E+03  0.90176884985E+02 0.  0.
         23    2    4    4    0    0  0.12051652745E+03  0.45753708099E+03  0.47501215024E+03  0.67672521034E+03  0.91956802718E+02 0.  0.
         11    1    3    3    0    0 -0.10669406660E+02 -0.37843343936E+01  0.34634190202E+02  0.36437406003E+02  0.00000000000E+00 0. -1.
        -11    1    3    3    0    0  0.20372231910E+02 -0.48861472795E+03  0.12131724449E+04  0.13080316362E+04  0.00000000000E+00 0.  1.
          3    1    5    5  502    0 -0.12480187362E+03  0.27750046288E+02 -0.19404946326E+03  0.23238065091E+03  0.00000000000E+00 0. -1.
          3    1    6    6  503    0  0.13528392679E+03  0.40017202023E+03  0.40798565500E+03  0.58727479199E+03  0.00000000000E+00 0. -1.
         -3    1    5    5    0  502 -0.54174790881E+01  0.71119350637E+01 -0.12695517095E+03  0.12726957268E+03  0.00000000000E+00 0.  1.
         -3    1    6    6    0  503 -0.14767399333E+02  0.57365060757E+02  0.67026495236E+02  0.89450418347E+02  0.00000000000E+00 0.  1.
<mgrwt>
<rscale>  0 0.19244058E+04</rscale>
<asrwt>0</asrwt>
<pdfrwt beam="1">  1        2 0.29097374E+00 0.19244058E+04</pdfrwt>
<pdfrwt beam="2">  1       -2 0.75310026E-01 0.19244058E+04</pdfrwt>
<totfact> 0.11354703E+01</totfact>
</mgrwt>
</event>
<event>
12    1  0.4967442E-008  0.1282755E+04  0.7818608E-02  0.9043353E-01
         -1   -1    0    0    0  501 -0.00000000000E+00  0.00000000000E+00  0.37357324041E+03  0.37357324041E+03  0.00000000000E+00 0.  1.
          1   -1    0    0  501    0  0.00000000000E+00 -0.00000000000E+00 -0.11011633399E+04  0.11011633399E+04  0.00000000000E+00 0. -1.
         23    2    1    2    0    0  0.16865939300E+03  0.24303012162E+03 -0.18194577753E+02  0.30281762273E+03  0.62111505531E+02 0.  0.
        254    2    1    2    0    0 -0.16865939300E+03 -0.24303012162E+03 -0.70939552173E+03  0.11719189576E+04  0.88467078963E+03 0.  0.
         23    2    4    4    0    0  0.11101851703E+03  0.25725125199E+02  0.15983812893E+03  0.21633116028E+03  0.90906821844E+02 0.  0.
         23    2    4    4    0    0 -0.27967791003E+03 -0.26875524681E+03 -0.86923365065E+03  0.95558779730E+03  0.84449883777E+02 0.  0.
         13    1    3    3    0    0  0.43798359880E+01  0.38060571297E+02  0.69529503039E+01  0.38937559871E+02  0.00000000000E+00 0. -1.
        -13    1    3    3    0    0  0.16427955701E+03  0.20496955032E+03 -0.25147528057E+02  0.26388006286E+03  0.00000000000E+00 0.  1.
          1    1    6    6  502    0 -0.74665610074E+02 -0.32059684042E+02 -0.22644453543E+03  0.24058242724E+03  0.00000000000E+00 0. -1.
          1    1    5    5  503    0  0.33956620564E+01 -0.25197113667E+02  0.40043937149E+02  0.47433553107E+02  0.00000000000E+00 0. -1.
         -1    1    5    5    0  503  0.10762285498E+03  0.50922238866E+02  0.11979419178E+03  0.16889760717E+03  0.00000000000E+00 0.  1.
         -1    1    6    6    0  502 -0.20501229995E+03 -0.23669556277E+03 -0.64278911522E+03  0.71500537006E+03  0.00000000000E+00 0.  1.
<mgrwt>
<rscale>  0 0.12827551E+04</rscale>
<asrwt>0</asrwt>
<pdfrwt beam="1">  1        1 0.16940975E+00 0.12827551E+04</pdfrwt>
<pdfrwt beam="2">  1       -1 0.57472805E-01 0.12827551E+04</pdfrwt>
<totfact> 0.38164057E+01</totfact>
</mgrwt>
</event>
<event>
12    1  0.4967442E-008  0.1213296E+04  0.7818608E-02  0.9101298E-01
         -1   -1    0    0    0  501 -0.00000000000E+00  0.00000000000E+00  0.22410841915E+04  0.22410841915E+04  0.00000000000E+00 0.  1.
          1   -1    0    0  501    0  0.00000000000E+00 -0.00000000000E+00 -0.16421588421E+03  0.16421588421E+03  0.00000000000E+00 0. -1.
         23    2    1    2    0    0 -0.15050368864E+03 -0.18999475428E+03  0.32244566255E+03  0.41398367467E+03  0.93069386187E+02 0.  0.
        254    2    1    2    0    0  0.15050368864E+03  0.18999475428E+03  0.17544226448E+04  0.19913164011E+04  0.91027074309E+03 0.  0.
         23    2    4    4    0    0  0.16593877123E+02  0.38997409870E+03  0.16756717106E+04  0.17228738678E+04  0.89797150649E+02 0.  0.
         23    2    4    4    0    0  0.13390981152E+03 -0.19997934442E+03  0.78750934170E+02  0.26844253326E+03  0.89084837185E+02 0.  0.
         13    1    3    3    0    0 -0.11004539667E+03 -0.18153644972E+03  0.23157036211E+03  0.31415013053E+03  0.00000000000E+00 0. -1.
        -13    1    3    3    0    0 -0.40458291966E+02 -0.84583045647E+01  0.90875300438E+02  0.99833544135E+02  0.00000000000E+00 0.  1.
          4    1    5    5  502    0  0.38606064647E+02  0.71525775203E+02  0.33097134124E+03  0.34080550680E+03  0.00000000000E+00 0. -1.
          3    1    6    6  503    0  0.96459864123E+02 -0.14281919482E+03  0.11753018691E+02  0.17274247088E+03  0.00000000000E+00 0. -1.
         -4    1    5    5    0  502 -0.22012187524E+02  0.31844832349E+03  0.13447003694E+04  0.13820683610E+04  0.00000000000E+00 0.  1.
         -3    1    6    6    0  503  0.37449947392E+02 -0.57160149596E+02  0.66997915479E+02  0.95700062383E+02  0.00000000000E+00 0.  1.
<mgrwt>
<rscale>  0 0.12132957E+04</rscale>
<asrwt>0</asrwt>
<pdfrwt beam="1">  1        1 0.25263984E-01 0.12132957E+04</pdfrwt>
<pdfrwt beam="2">  1       -1 0.34478216E+00 0.12132957E+04</pdfrwt>
<totfact> 0.32386225E+00</totfact>
</mgrwt>
</event>
<event>
12    1  0.4967442E-008  0.1575906E+04  0.7818608E-02  0.8835488E-01
         -2   -1    0    0    0  501 -0.00000000000E+00  0.00000000000E+00  0.74543821138E+03  0.74543821138E+03  0.00000000000E+00 0.  1.
          2   -1    0    0  501    0  0.00000000000E+00 -0.00000000000E+00 -0.83289291609E+03  0.83289291609E+03  0.00000000000E+00 0. -1.
         23    2    1    2    0    0 -0.45800572893E+03  0.27558910836E+03  0.78931879454E+02  0.54769898602E+03  0.89584224737E+02 0.  0.
        254    2    1    2    0    0  0.45800572893E+03 -0.27558910836E+03 -0.16638658416E+03  0.10306321415E+04  0.86533202369E+03 0.  0.
         23    2    4    4    0    0  0.57942588395E+03 -0.34045049401E+03  0.13021568452E+03  0.69051966651E+03  0.90666374609E+02 0.  0.
         23    2    4    4    0    0 -0.12142015502E+03  0.64861385647E+02 -0.29660226868E+03  0.34011247494E+03  0.93561404579E+02 0.  0.
         11    1    3    3    0    0 -0.19070548277E+03  0.16090966582E+03  0.57422059049E+02  0.25604256400E+03  0.00000000000E+00 0.  1.
        -11    1    3    3    0    0 -0.26730024615E+03  0.11467944255E+03  0.21509820405E+02  0.29165642203E+03  0.00000000000E+00 0. -1.
          2    1    5    5  502    0  0.35742715207E+02 -0.48268312891E+02  0.18401564728E+01  0.60089582254E+02  0.00000000000E+00 0. -1.
          2    1    6    6  503    0 -0.47846569404E+02  0.59045030172E+02 -0.75943521668E+02  0.10743848600E+03  0.00000000000E+00 0. -1.
         -2    1    5    5    0  502  0.54368316874E+03 -0.29218218112E+03  0.12837552805E+03  0.63043008426E+03  0.00000000000E+00 0.  1.
         -2    1    6    6    0  503 -0.73573585619E+02  0.58163554755E+01 -0.22065874702E+03  0.23267398893E+03  0.00000000000E+00 0.  1.
<mgrwt>
<rscale>  0 0.15759063E+04</rscale>
<asrwt>0</asrwt>
<pdfrwt beam="1">  1        2 0.12813737E+00 0.15759063E+04</pdfrwt>
<pdfrwt beam="2">  1       -2 0.11468280E+00 0.15759063E+04</pdfrwt>
<totfact> 0.18609636E+01</totfact>
</mgrwt>
</event>
<event>
12    1  0.4967442E-008  0.2514507E+04  0.7818608E-02  0.8397835E-01
          2   -1    0    0  501    0  0.00000000000E+00  0.00000000000E+00  0.19727571075E+04  0.19727571075E+04  0.00000000000E+00 0. -1.
         -2   -1    0    0    0  501 -0.00000000000E+00 -0.00000000000E+00 -0.80125774920E+03  0.80125774920E+03  0.00000000000E+00 0.  1.
         23    2    1    2    0    0  0.92642998759E+03 -0.43710949003E+03  0.93584209043E+03  0.13905338932E+04  0.91906809346E+02 0.  0.
        254    2    1    2    0    0 -0.92642998759E+03  0.43710949003E+03  0.23565726786E+03  0.13834809635E+04  0.89952654236E+03 0.  0.
         23    2    4    4    0    0 -0.82901935364E+03 -0.44913774138E+02  0.10649550772E+02  0.83524114976E+03  0.90686435035E+02 0.  0.
         23    2    4    4    0    0 -0.97410633947E+02  0.48202326417E+03  0.22500771709E+03  0.54823981378E+03  0.90017564169E+02 0.  0.
         13    1    3    3    0    0  0.49898432712E+03 -0.19340831390E+03  0.52234223155E+03  0.74781919035E+03  0.00000000000E+00 0. -1.
        -13    1    3    3    0    0  0.42744566047E+03 -0.24370117614E+03  0.41349985888E+03  0.64271470281E+03  0.00000000000E+00 0.  1.
          4    1    5    5  502    0 -0.76974928445E+03 -0.64870777949E+02  0.56053340332E+01  0.77249828382E+03  0.00000000000E+00 0. -1.
          1    1    6    6  503    0 -0.83169029186E+02  0.27172847646E+03  0.90639201077E+02  0.29827657820E+03  0.00000000000E+00 0. -1.
         -4    1    5    5    0  502 -0.59270069193E+02  0.19957003811E+02  0.50442167392E+01  0.62742865935E+02  0.00000000000E+00 0.  1.
         -1    1    6    6    0  503 -0.14241604762E+02  0.21029478771E+03  0.13436851601E+03  0.24996323558E+03  0.00000000000E+00 0.  1.
<mgrwt>
<rscale>  0 0.25145074E+04</rscale>
<asrwt>0</asrwt>
<pdfrwt beam="1">  1        2 0.30350109E+00 0.25145074E+04</pdfrwt>
<pdfrwt beam="2">  1       -2 0.12327042E+00 0.25145074E+04</pdfrwt>
<totfact> 0.30602597E+00</totfact>
</mgrwt>
</event>
<event>
12    1  0.4967442E-008  0.2632138E+04  0.7818608E-02  0.8357366E-01
          2   -1    0    0  501    0  0.00000000000E+00  0.00000000000E+00  0.27848235931E+04  0.27848235931E+04  0.00000000000E+00 0. -1.
         -2   -1    0    0    0  501 -0.00000000000E+00 -0.00000000000E+00 -0.62195608021E+03  0.62195608021E+03  0.00000000000E+00 0.  1.
         23    2    1    2    0    0  0.11264507936E+04  0.31512488209E+03  0.88760521768E+03  0.14705040815E+04  0.79650170685E+02 0.  0.
        254    2    1    2    0    0 -0.11264507936E+04 -0.31512488209E+03  0.12752622952E+04  0.19362755918E+04  0.86871984205E+03 0.  0.
         23    2    4    4    0    0 -0.44221900318E+03 -0.33851037882E+03  0.10123468274E+03  0.57403595594E+03  0.95508608970E+02 0.  0.
         23    2    4    4    0    0 -0.68423179042E+03  0.23385496734E+02  0.11740276125E+04  0.13622396358E+04  0.92929898791E+02 0.  0.
         13    1    3    3    0    0  0.48431125039E+03  0.13552857011E+03  0.43137723690E+03  0.66257958094E+03  0.00000000000E+00 0.  1.
        -13    1    3    3    0    0  0.64213954321E+03  0.17959631198E+03  0.45622798078E+03  0.80792450060E+03  0.00000000000E+00 0. -1.
          2    1    5    5  502    0 -0.28512559240E+03 -0.23843086420E+03  0.10984940092E+03  0.38757292389E+03  0.00000000000E+00 0. -1.
          1    1    6    6  503    0 -0.30539986022E+03 -0.15176604642E+01  0.43648479223E+03  0.53271976851E+03  0.00000000000E+00 0. -1.
         -2    1    5    5    0  502 -0.15709341077E+03 -0.10007951462E+03 -0.86147181794E+01  0.18646303206E+03  0.00000000000E+00 0.  1.
         -1    1    6    6    0  503 -0.37883193020E+03  0.24903157198E+02  0.73754282024E+03  0.82951986731E+03  0.00000000000E+00 0.  1.
<mgrwt>
<rscale>  0 0.26321383E+04</rscale>
<asrwt>0</asrwt>
<pdfrwt beam="1">  1        2 0.42843439E+00 0.26321383E+04</pdfrwt>
<pdfrwt beam="2">  1       -2 0.95685552E-01 0.26321383E+04</pdfrwt>
<totfact> 0.19090754E+00</totfact>
</mgrwt>
</event>
<event>
12    1  0.4967442E-008  0.1156160E+04  0.7818608E-02  0.9152120E-01
         -1   -1    0    0    0  501 -0.00000000000E+00  0.00000000000E+00  0.76331287206E+03  0.76331287206E+03  0.00000000000E+00 0.  1.
          1   -1    0    0  501    0  0.00000000000E+00 -0.00000000000E+00 -0.43779742113E+03  0.43779742113E+03  0.00000000000E+00 0. -1.
         23    2    1    2    0    0  0.14010777491E+03 -0.79673054185E+02 -0.16044787397E+03  0.24526120497E+03  0.91823495082E+02 0.  0.
        254    2    1    2    0    0 -0.14010777491E+03  0.79673054185E+02  0.48596332490E+03  0.95584908821E+03  0.80716116243E+03 0.  0.
         23    2    4    4    0    0 -0.18268084979E+03  0.32566844244E+03  0.56088131614E+03  0.67975061648E+03  0.89670633596E+02 0.  0.
         23    2    4    4    0    0  0.42573074874E+02 -0.24599538825E+03 -0.74917991242E+02  0.27609847173E+03  0.91057470495E+02 0.  0.
         13    1    3    3    0    0  0.13616573572E+03 -0.64850202249E+02 -0.16994739224E+03  0.22721965682E+03  0.00000000000E+00 0. -1.
        -13    1    3    3    0    0  0.39420391976E+01 -0.14822851937E+02  0.94995182689E+01  0.18041548157E+02  0.00000000000E+00 0.  1.
          1    1    5    5  502    0 -0.80499565585E+02  0.16834205935E+03  0.35612316409E+03  0.40204842620E+03  0.00000000000E+00 0. -1.
          3    1    6    6  503    0  0.14664651254E+02 -0.55403477627E+01 -0.24104264564E+02  0.28753487091E+02  0.00000000000E+00 0. -1.
         -1    1    5    5    0  502 -0.10218128420E+03  0.15732638308E+03  0.20475815205E+03  0.27770219028E+03  0.00000000000E+00 0.  1.
         -3    1    6    6    0  503  0.27908423621E+02 -0.24045504049E+03 -0.50813726677E+02  0.24734498464E+03  0.00000000000E+00 0.  1.
<mgrwt>
<rscale>  0 0.11561599E+04</rscale>
<asrwt>0</asrwt>
<pdfrwt beam="1">  1        1 0.67353450E-01 0.11561599E+04</pdfrwt>
<pdfrwt beam="2">  1       -1 0.11743275E+00 0.11561599E+04</pdfrwt>
<totfact> 0.34446614E+01</totfact>
</mgrwt>
</event>
<event>
12    1  0.4967442E-008  0.1445298E+04  0.7818608E-02  0.8921666E-01
         -2   -1    0    0    0  501 -0.00000000000E+00  0.00000000000E+00  0.13605412785E+03  0.13605412785E+03  0.00000000000E+00 0.  1.
          2   -1    0    0  501    0  0.00000000000E+00 -0.00000000000E+00 -0.38383392360E+04  0.38383392360E+04  0.00000000000E+00 0. -1.
         23    2    1    2    0    0  0.88280740322E+02  0.23241669369E+03 -0.15734578824E+03  0.30848595869E+03  0.92708581132E+02 0.  0.
        254    2    1    2    0    0 -0.88280740322E+02 -0.23241669369E+03 -0.35449393199E+04  0.36659074052E+04  0.90026180229E+03 0.  0.
         23    2    4    4    0    0  0.16284134405E+03 -0.45424751100E+03 -0.12215463976E+04  0.13165764176E+04  0.91322272723E+02 0.  0.
         23    2    4    4    0    0 -0.25112208437E+03  0.22183081731E+03 -0.23233929224E+04  0.23493309875E+04  0.94499759282E+02 0.  0.
         13    1    3    3    0    0 -0.57316248960E+01  0.61767771522E+02 -0.70739989806E+01  0.62435171052E+02  0.00000000000E+00 0.  1.
        -13    1    3    3    0    0  0.94012365218E+02  0.17064892217E+03 -0.15027178925E+03  0.24605078764E+03  0.00000000000E+00 0. -1.
          1    1    6    6  502    0 -0.12661221724E+03  0.16838936810E+03 -0.12894200147E+04  0.13065181236E+04  0.00000000000E+00 0. -1.
          1    1    5    5  503    0  0.53756539662E+02 -0.27806149491E+03 -0.73952434223E+03  0.79189911811E+03  0.00000000000E+00 0. -1.
         -1    1    5    5    0  503  0.10908480438E+03 -0.17618601609E+03 -0.48202205532E+03  0.52467729952E+03  0.00000000000E+00 0.  1.
         -1    1    6    6    0  502 -0.12450986713E+03  0.53441449212E+02 -0.10339729076E+04  0.10428128639E+04  0.00000000000E+00 0.  1.
<mgrwt>
<rscale>  0 0.14452984E+04</rscale>
<asrwt>0</asrwt>
<pdfrwt beam="1">  1        2 0.59051378E+00 0.14452984E+04</pdfrwt>
<pdfrwt beam="2">  1       -2 0.20931403E-01 0.14452984E+04</pdfrwt>
<totfact> 0.89833086E+00</totfact>
</mgrwt>
</event>
<event>
12    1  0.5772814E-008  0.1397841E+04  0.7818608E-02  0.8955383E-01
         -2   -1    0    0    0  501 -0.00000000000E+00  0.00000000000E+00  0.37985112756E+03  0.37985112756E+03  0.00000000000E+00 0.  1.
          2   -1    0    0  501    0  0.00000000000E+00 -0.00000000000E+00 -0.12860026439E+04  0.12860026439E+04  0.00000000000E+00 0. -1.
         23    2    1    2    0    0  0.59340597312E+00  0.10968364942E+03  0.18979173715E+03  0.23592711778E+03  0.87234433178E+02 0.  0.
        254    2    1    2    0    0 -0.59340597312E+00 -0.10968364942E+03 -0.10959432535E+04  0.14299266537E+04  0.91190337480E+03 0.  0.
         23    2    4    4    0    0  0.85412662822E+01 -0.96158009783E+01  0.14850477401E+03  0.17804352933E+03  0.97367415352E+02 0.  0.
         23    2    4    4    0    0 -0.91346722554E+01 -0.10006784845E+03 -0.12444480276E+04  0.12518831244E+04  0.91996996361E+02 0.  0.
         13    1    3    3    0    0 -0.11864313271E+02 -0.11446308535E+02  0.11821869257E+02  0.20286362444E+02  0.00000000000E+00 0. -1.
        -13    1    3    3    0    0  0.12457719245E+02  0.12112995796E+03  0.17796986789E+03  0.21564075534E+03  0.00000000000E+00 0.  1.
          4    1    5    5  502    0  0.30444806778E+02  0.66761158306E+01  0.45204583960E+01  0.31494306254E+02  0.00000000000E+00 0. -1.
          3    1    6    6  503    0 -0.13614753505E+02 -0.50087481852E+01 -0.26400220703E+02  0.30123424848E+02  0.00000000000E+00 0. -1.
         -4    1    5    5    0  502 -0.21903540495E+02 -0.16291916809E+02  0.14398431562E+03  0.14654922307E+03  0.00000000000E+00 0.  1.
         -3    1    6    6    0  503  0.44800812500E+01 -0.95059100261E+02 -0.12180478068E+04  0.12217596995E+04  0.00000000000E+00 0.  1.
<mgrwt>
<rscale>  0 0.13978406E+04</rscale>
<asrwt>0</asrwt>
<pdfrwt beam="1">  1        2 0.19784656E+00 0.13978406E+04</pdfrwt>
<pdfrwt beam="2">  1       -2 0.58438636E-01 0.13978406E+04</pdfrwt>
<totfact> 0.44900171E+01</totfact>
</mgrwt>
</event>
<event>
12    1  0.4967442E-008  0.1540965E+04  0.7818608E-02  0.8857660E-01
          2   -1    0    0  501    0  0.00000000000E+00  0.00000000000E+00  0.10017635201E+04  0.10017635201E+04  0.00000000000E+00 0. -1.
         -2   -1    0    0    0  501 -0.00000000000E+00 -0.00000000000E+00 -0.59259819401E+03  0.59259819401E+03  0.00000000000E+00 0.  1.
         23    2    1    2    0    0  0.44104447790E+02 -0.29720713701E+03 -0.30682289094E+03  0.43920754047E+03  0.92117819090E+02 0.  0.
        254    2    1    2    0    0 -0.44104447790E+02  0.29720713701E+03  0.71598821700E+03  0.11551541736E+04  0.85525712703E+03 0.  0.
         23    2    4    4    0    0 -0.38460252731E+03  0.37484679456E+03  0.44738281926E+03  0.70491453030E+03  0.91235325645E+02 0.  0.
         23    2    4    4    0    0  0.34049807952E+03 -0.77639657553E+02  0.26860539774E+03  0.45023964332E+03  0.92736282742E+02 0.  0.
         13    1    3    3    0    0 -0.17614203270E+02 -0.26349571416E+02 -0.11391310659E+02  0.33679697582E+02  0.00000000000E+00 0. -1.
        -13    1    3    3    0    0  0.61718651060E+02 -0.27085756560E+03 -0.29543158028E+03  0.40552784289E+03  0.00000000000E+00 0.  1.
          1    1    5    5  502    0 -0.13472391750E+03  0.15550967236E+03  0.11943189057E+03  0.23790285544E+03  0.00000000000E+00 0. -1.
          3    1    6    6  503    0  0.19999699149E+03 -0.19083730118E+02  0.19929765600E+03  0.28298858819E+03  0.00000000000E+00 0. -1.
         -1    1    5    5    0  502 -0.24987860981E+03  0.21933712221E+03  0.32795092870E+03  0.46701167486E+03  0.00000000000E+00 0.  1.
         -3    1    6    6    0  503  0.14050108803E+03 -0.58555927435E+02  0.69307741744E+02  0.16725105512E+03  0.00000000000E+00 0.  1.
<mgrwt>
<rscale>  0 0.15409650E+04</rscale>
<asrwt>0</asrwt>
<pdfrwt beam="1">  1        2 0.15411746E+00 0.15409650E+04</pdfrwt>
<pdfrwt beam="2">  1       -2 0.91168953E-01 0.15409650E+04</pdfrwt>
<totfact> 0.24827342E+01</totfact>
</mgrwt>
</event>
<event>
12    1  0.4967442E-008  0.1870846E+04  0.7818608E-02  0.8669506E-01
          2   -1    0    0  501    0  0.00000000000E+00  0.00000000000E+00  0.36436123482E+04  0.36436123482E+04  0.00000000000E+00 0.  1.
         -2   -1    0    0    0  501 -0.00000000000E+00 -0.00000000000E+00 -0.24015063925E+03  0.24015063925E+03  0.00000000000E+00 0. -1.
         23    2    1    2    0    0  0.48231496308E+03 -0.32447701916E+03  0.21657587494E+04  0.22447030219E+04  0.10132934720E+03 0.  0.
        254    2    1    2    0    0 -0.48231496308E+03  0.32447701916E+03  0.12377029596E+04  0.16390599656E+04  0.90371228547E+03 0.  0.
         23    2    4    4    0    0 -0.41323213147E+03  0.13264730193E+03  0.13265306418E+04  0.13988214170E+04  0.93068317950E+02 0.  0.
         23    2    4    4    0    0 -0.69082831605E+02  0.19182971722E+03 -0.88827682168E+02  0.24023854859E+03  0.90846711969E+02 0.  0.
         11    1    3    3    0    0  0.45561616706E+03 -0.30380558387E+03  0.21063218388E+04  0.21763445529E+04  0.00000000000E+00 0.  1.
        -11    1    3    3    0    0  0.26698796017E+02 -0.20671435287E+02  0.59436910616E+02  0.68358469038E+02  0.00000000000E+00 0. -1.
          3    1    6    6  502    0  0.19586413645E+02  0.68246146408E+02 -0.31794748487E+02  0.77795052094E+02  0.00000000000E+00 0. -1.
          3    1    5    5  503    0 -0.15769630733E+03  0.36388612249E+02  0.36504442848E+03  0.39931152151E+03  0.00000000000E+00 0. -1.
         -3    1    5    5    0  503 -0.25553582415E+03  0.96258689686E+02  0.96148621330E+03  0.99950989547E+03  0.00000000000E+00 0.  1.
         -3    1    6    6    0  502 -0.88669245250E+02  0.12358357082E+03 -0.57032933682E+02  0.16244349650E+03  0.00000000000E+00 0.  1.
<mgrwt>
<rscale>  0 0.18708456E+04</rscale>
<asrwt>0</asrwt>
<pdfrwt beam="1">  1        2 0.56055571E+00 0.18708456E+04</pdfrwt>
<pdfrwt beam="2">  1       -2 0.36946255E-01 0.18708456E+04</pdfrwt>
<totfact> 0.41967363E+00</totfact>
</mgrwt>
</event>
<event>
12    1  0.4967442E-008  0.1904432E+04  0.7818608E-02  0.8652653E-01
         -1   -1    0    0    0  501 -0.00000000000E+00  0.00000000000E+00  0.12956948927E+04  0.12956948927E+04  0.00000000000E+00 0.  1.
          1   -1    0    0  501    0  0.00000000000E+00 -0.00000000000E+00 -0.69979079702E+03  0.69979079702E+03  0.00000000000E+00 0. -1.
         23    2    1    2    0    0 -0.51565935433E+03 -0.34047475628E+03 -0.18588958091E+03  0.65211263230E+03  0.94171755513E+02 0.  0.
        254    2    1    2    0    0  0.51565935433E+03  0.34047475628E+03  0.78179367662E+03  0.13433730574E+04  0.90090076550E+03 0.  0.
         23    2    4    4    0    0  0.43453338953E+03  0.40985165193E+02 -0.52251463690E+02  0.44880212309E+03  0.90521156927E+02 0.  0.
         23    2    4    4    0    0  0.81125964804E+02  0.29948959109E+03  0.83404514031E+03  0.89457093435E+03  0.91380649864E+02 0.  0.
         13    1    3    3    0    0 -0.85503314889E+02 -0.28235365713E+02 -0.51979269516E+02  0.10397065544E+03  0.00000000000E+00 0.  1.
        -13    1    3    3    0    0 -0.43015603945E+03 -0.31223939057E+03 -0.13391031140E+03  0.54814197686E+03  0.00000000000E+00 0. -1.
          2    1    5    5  502    0  0.11161611648E+01  0.10009929923E+02  0.36187230652E+01  0.10702320750E+02  0.00000000000E+00 0. -1.
          3    1    6    6  503    0  0.86088560301E+02  0.14559974419E+03  0.45713600703E+03  0.48742574270E+03  0.00000000000E+00 0. -1.
         -2    1    5    5    0  502  0.43341722837E+03  0.30975235270E+02 -0.55870186755E+02  0.43809980234E+03  0.00000000000E+00 0.  1.
         -3    1    6    6    0  503 -0.49625954971E+01  0.15388984690E+03  0.37690913328E+03  0.40714519165E+03  0.00000000000E+00 0.  1.
<mgrwt>
<rscale>  0 0.19044321E+04</rscale>
<asrwt>0</asrwt>
<pdfrwt beam="1">  1        1 0.10766012E+00 0.19044321E+04</pdfrwt>
<pdfrwt beam="2">  1       -1 0.19933768E+00 0.19044321E+04</pdfrwt>
<totfact> 0.38767189E+00</totfact>
</mgrwt>
</event>
<event>
12    1  0.4967442E-008  0.2156140E+04  0.7818608E-02  0.8536908E-01
          1   -1    0    0  501    0  0.00000000000E+00  0.00000000000E+00  0.53759581216E+03  0.53759581216E+03  0.00000000000E+00 0. -1.
         -1   -1    0    0    0  501 -0.00000000000E+00 -0.00000000000E+00 -0.21619130304E+04  0.21619130304E+04  0.00000000000E+00 0.  1.
         23    2    1    2    0    0 -0.10284548617E+03  0.68104410700E+03 -0.13621390924E+04  0.15291207648E+04  0.91592230831E+02 0.  0.
        254    2    1    2    0    0  0.10284548617E+03 -0.68104410700E+03 -0.26217812589E+03  0.11703880778E+04  0.90921538326E+03 0.  0.
         23    2    4    4    0    0  0.43989361191E+02 -0.67574506670E+03  0.18730714481E+03  0.70827858789E+03  0.89488169539E+02 0.  0.
         23    2    4    4    0    0  0.58856124977E+02 -0.52990402919E+01 -0.44948527070E+03  0.46210948987E+03  0.89532389543E+02 0.  0.
         13    1    3    3    0    0 -0.17377725647E+02  0.56870629617E+02 -0.72030606175E+02  0.93405899641E+02  0.00000000000E+00 0. -1.
        -13    1    3    3    0    0 -0.85467760521E+02  0.62417347738E+03 -0.12901084862E+04  0.14357148652E+04  0.00000000000E+00 0.  1.
          4    1    5    5  502    0  0.15694816500E+02 -0.50237605810E+03  0.10145320159E+03  0.51275801616E+03  0.00000000000E+00 0. -1.
          1    1    6    6  503    0 -0.15070746597E+01  0.34780743854E+02 -0.14375986386E+03  0.14791507656E+03  0.00000000000E+00 0. -1.
         -4    1    5    5    0  502  0.28294544691E+02 -0.17336900860E+03  0.85853943221E+02  0.19552057173E+03  0.00000000000E+00 0.  1.
         -1    1    6    6    0  503  0.60363199637E+02 -0.40079784146E+02 -0.30572540684E+03  0.31419441331E+03  0.00000000000E+00 0.  1.
<mgrwt>
<rscale>  0 0.21561404E+04</rscale>
<asrwt>0</asrwt>
<pdfrwt beam="1">  1        1 0.82707049E-01 0.21561404E+04</pdfrwt>
<pdfrwt beam="2">  1       -1 0.33260200E+00 0.21561404E+04</pdfrwt>
<totfact> 0.74268386E-01</totfact>
</mgrwt>
</event>
<event>
12    1  0.4967442E-008  0.3115107E+04  0.7818608E-02  0.8211604E-01
         -2   -1    0    0    0  501 -0.00000000000E+00  0.00000000000E+00  0.15500902677E+04  0.15500902677E+04  0.00000000000E+00 0.  1.
          2   -1    0    0  501    0  0.00000000000E+00 -0.00000000000E+00 -0.15650526951E+04  0.15650526951E+04  0.00000000000E+00 0. -1.
         23    2    1    2    0    0  0.10869234283E+04 -0.91738225998E+03 -0.13636778163E+03  0.14320367297E+04  0.95604777126E+02 0.  0.
        254    2    1    2    0    0 -0.10869234283E+04  0.91738225998E+03  0.12140535419E+03  0.16831062332E+04  0.89169197723E+03 0.  0.
         23    2    4    4    0    0 -0.10022788335E+04  0.88182452152E+03  0.38236933971E+03  0.13917904213E+04  0.93257267125E+02 0.  0.
         23    2    4    4    0    0 -0.84644594765E+02  0.35557738461E+02 -0.26096398552E+03  0.29131581192E+03  0.91288774490E+02 0.  0.
         13    1    3    3    0    0  0.92735072078E+03 -0.73628968493E+03 -0.10841494460E+03  0.11890566259E+04  0.00000000000E+00 0. -1.
        -13    1    3    3    0    0  0.15957270750E+03 -0.18109257505E+03 -0.27952837027E+02  0.24298010374E+03  0.00000000000E+00 0.  1.
          3    1    6    6  502    0  0.13994956339E+02  0.88349821557E+01 -0.77862383337E+01  0.18290468009E+02  0.00000000000E+00 0. -1.
          3    1    5    5  503    0 -0.16505469385E+03  0.10300152976E+03  0.46850273188E+02  0.20011825302E+03  0.00000000000E+00 0. -1.
         -3    1    5    5    0  503 -0.83722413967E+03  0.77882299176E+03  0.33551906652E+03  0.11916721682E+04  0.00000000000E+00 0.  1.
         -3    1    6    6    0  502 -0.98639551104E+02  0.26722756305E+02 -0.25317774719E+03  0.27302534391E+03  0.00000000000E+00 0.  1.
<mgrwt>
<rscale>  0 0.31151070E+04</rscale>
<asrwt>0</asrwt>
<pdfrwt beam="1">  1        2 0.24077734E+00 0.31151070E+04</pdfrwt>
<pdfrwt beam="2">  1       -2 0.23847542E+00 0.31151070E+04</pdfrwt>
<totfact> 0.74898311E-01</totfact>
</mgrwt>
</event>
<event>
12    1  0.4967442E-008  0.1361584E+04  0.7818608E-02  0.8982105E-01
          1   -1    0    0  501    0  0.00000000000E+00  0.00000000000E+00  0.16980778198E+04  0.16980778198E+04  0.00000000000E+00 0. -1.
         -1   -1    0    0    0  501 -0.00000000000E+00 -0.00000000000E+00 -0.27294277106E+03  0.27294277106E+03  0.00000000000E+00 0.  1.
         23    2    1    2    0    0  0.21561019503E+03  0.16351157865E+03  0.78931977251E+03  0.83899128461E+03  0.87503598887E+02 0.  0.
        254    2    1    2    0    0 -0.21561019503E+03 -0.16351157865E+03  0.63581527625E+03  0.11320293063E+04  0.89666353342E+03 0.  0.
         23    2    4    4    0    0 -0.17244359532E+03 -0.30983337107E+03 -0.96398642935E+02  0.37856429310E+03  0.91020405709E+02 0.  0.
         23    2    4    4    0    0 -0.43166599706E+02  0.14632179242E+03  0.73221391918E+03  0.75346501316E+03  0.91098190679E+02 0.  0.
         13    1    3    3    0    0  0.18099287693E+02  0.44924709708E+01  0.14170602687E+02  0.23421624430E+02  0.00000000000E+00 0.  1.
        -13    1    3    3    0    0  0.19751090734E+03  0.15901910768E+03  0.77514916983E+03  0.81556966018E+03  0.00000000000E+00 0. -1.
          3    1    5    5  502    0 -0.99544662004E+02 -0.25774547755E+03 -0.67538802297E+02  0.28443516088E+03  0.00000000000E+00 0. -1.
          3    1    6    6  503    0 -0.48574535619E+02  0.13087188520E+03  0.71900567345E+03  0.73243163114E+03  0.00000000000E+00 0. -1.
         -3    1    5    5    0  502 -0.72898933320E+02 -0.52087893519E+02 -0.28859840638E+02  0.94129132217E+02  0.00000000000E+00 0.  1.
         -3    1    6    6    0  503  0.54079359130E+01  0.15449907214E+02  0.13208245738E+02  0.21033382021E+02  0.00000000000E+00 0.  1.
<mgrwt>
<rscale>  0 0.13615845E+04</rscale>
<asrwt>0</asrwt>
<pdfrwt beam="1">  1        1 0.26124274E+00 0.13615845E+04</pdfrwt>
<pdfrwt beam="2">  1       -1 0.41991196E-01 0.13615845E+04</pdfrwt>
<totfact> 0.26043510E+01</totfact>
</mgrwt>
</event>
<event>
12    1  0.4967442E-008  0.2263341E+04  0.7818608E-02  0.8492517E-01
         -3   -1    0    0    0  501 -0.00000000000E+00  0.00000000000E+00  0.60355434060E+03  0.60355434060E+03  0.00000000000E+00 0.  1.
          3   -1    0    0  501    0  0.00000000000E+00 -0.00000000000E+00 -0.21218935115E+04  0.21218935115E+04  0.00000000000E+00 0. -1.
         23    2    1    2    0    0  0.16998227609E+03  0.94847278894E+03 -0.76933855492E+03  0.12365508983E+04  0.93175675886E+02 0.  0.
        254    2    1    2    0    0 -0.16998227609E+03 -0.94847278894E+03 -0.74900061599E+03  0.14888969538E+04  0.85282918021E+03 0.  0.
         23    2    4    4    0    0  0.10806643952E+03 -0.80628264407E+02 -0.51977271537E+03  0.54462078726E+03  0.90933238712E+02 0.  0.
         23    2    4    4    0    0 -0.27804871561E+03 -0.86784452453E+03 -0.22922790062E+03  0.94427616650E+03  0.92988392728E+02 0.  0.
         11    1    3    3    0    0  0.83058300604E+01  0.19718086534E+03 -0.19212726538E+03  0.27543087440E+03  0.00000000000E+00 0.  1.
        -11    1    3    3    0    0  0.16167644603E+03  0.75129192359E+03 -0.57721128954E+03  0.96112002394E+03  0.00000000000E+00 0. -1.
          4    1    5    5  502    0  0.12030109865E+03 -0.87328906429E+02 -0.47769447195E+03  0.50029061631E+03  0.00000000000E+00 0. -1.
          3    1    6    6  503    0 -0.25969195984E+03 -0.76852804825E+03 -0.23028737689E+03  0.84327193177E+03  0.00000000000E+00 0. -1.
         -4    1    5    5    0  502 -0.12234659128E+02  0.67006420222E+01 -0.42078243418E+02  0.44330170952E+02  0.00000000000E+00 0.  1.
         -3    1    6    6    0  503 -0.18356755767E+02 -0.99316476278E+02  0.10594762723E+01  0.10100423473E+03  0.00000000000E+00 0.  1.
<mgrwt>
<rscale>  0 0.22633409E+04</rscale>
<asrwt>0</asrwt>
<pdfrwt beam="1">  1        3 0.32644516E+00 0.22633409E+04</pdfrwt>
<pdfrwt beam="2">  1       -3 0.92854513E-01 0.22633409E+04</pdfrwt>
<totfact> 0.68242694E-02</totfact>
</mgrwt>
</event>
<event>
12    1  0.4967442E-008  0.1115498E+04  0.7818608E-02  0.9190217E-01
          2   -1    0    0  501    0  0.00000000000E+00  0.00000000000E+00  0.53291154327E+03  0.53291154327E+03  0.00000000000E+00 0. -1.
         -2   -1    0    0    0  501 -0.00000000000E+00 -0.00000000000E+00 -0.58374371869E+03  0.58374371869E+03  0.00000000000E+00 0.  1.
         23    2    1    2    0    0 -0.74989143256E+02 -0.14055157567E+03  0.82133236361E+02  0.20170139675E+03  0.92517392446E+02 0.  0.
        254    2    1    2    0    0  0.74989143256E+02  0.14055157567E+03 -0.13296541178E+03  0.91495386521E+03  0.89111315651E+03 0.  0.
         23    2    4    4    0    0 -0.20514935817E+02 -0.11765795990E+03 -0.45667447754E+03  0.48046853314E+03  0.89633558370E+02 0.  0.
         23    2    4    4    0    0  0.95504079073E+02  0.25820953557E+03  0.32370906575E+03  0.43448533207E+03  0.90535910881E+02 0.  0.
         13    1    3    3    0    0 -0.10745156536E+02 -0.14655165560E+02 -0.20224801674E+02  0.27189609584E+02  0.00000000000E+00 0. -1.
        -13    1    3    3    0    0 -0.64243986720E+02 -0.12589641011E+03  0.10235803803E+03  0.17451178716E+03  0.00000000000E+00 0.  1.
          1    1    5    5  502    0 -0.14708518607E+02 -0.13093260129E+03 -0.37389285819E+03  0.39642850050E+03  0.00000000000E+00 0. -1.
          1    1    6    6  503    0  0.35587607380E+02  0.20912046637E+03  0.24459140467E+03  0.32376349778E+03  0.00000000000E+00 0. -1.
         -1    1    5    5    0  502 -0.58064172108E+01  0.13274641396E+02 -0.82781619345E+02  0.84040032641E+02  0.00000000000E+00 0.  1.
         -1    1    6    6    0  503  0.59916471693E+02  0.49089069194E+02  0.79117661081E+02  0.11072183429E+03  0.00000000000E+00 0.  1.
<mgrwt>
<rscale>  0 0.11154977E+04</rscale>
<asrwt>0</asrwt>
<pdfrwt beam="1">  1        2 0.81986392E-01 0.11154977E+04</pdfrwt>
<pdfrwt beam="2">  1       -2 0.89806726E-01 0.11154977E+04</pdfrwt>
<totfact> 0.60234055E+01</totfact>
</mgrwt>
</event>
<event>
12    1  0.4967442E-008  0.1287897E+04  0.7818608E-02  0.9039218E-01
         -2   -1    0    0    0  501 -0.00000000000E+00  0.00000000000E+00  0.79140791641E+03  0.79140791641E+03  0.00000000000E+00 0.  1.
          2   -1    0    0  501    0  0.00000000000E+00 -0.00000000000E+00 -0.52396469723E+03  0.52396469723E+03  0.00000000000E+00 0. -1.
         23    2    1    2    0    0 -0.87386611777E+00 -0.30488298464E+03  0.16627017315E+03  0.36085394749E+03  0.98058161188E+02 0.  0.
        254    2    1    2    0    0  0.87386611777E+00  0.30488298464E+03  0.10117304604E+03  0.95451866615E+03  0.89884119889E+03 0.  0.
         23    2    4    4    0    0  0.27563516414E+02 -0.28121687933E+03  0.19268064873E+03  0.35378210448E+03  0.90516652623E+02 0.  0.
         23    2    4    4    0    0 -0.26689650297E+02  0.58609986397E+03 -0.91507602696E+02  0.60073656167E+03  0.91024102284E+02 0.  0.
         11    1    3    3    0    0  0.30241413205E+02 -0.31921748407E+02  0.11176829503E+02  0.45370283355E+02  0.00000000000E+00 0. -1.
        -11    1    3    3    0    0 -0.31115279323E+02 -0.27296123623E+03  0.15509334364E+03  0.31548366413E+03  0.00000000000E+00 0.  1.
          4    1    5    5  502    0 -0.22028570094E+02 -0.10862887928E+03  0.39233421788E+02  0.11757870853E+03  0.00000000000E+00 0.  1.
          4    1    6    6  503    0 -0.55891522336E+02  0.28562143464E+03 -0.29396954659E+02  0.29251948164E+03  0.00000000000E+00 0. -1.
         -4    1    5    5    0  502  0.49592086509E+02 -0.17258800005E+03  0.15344722695E+03  0.23620339596E+03  0.00000000000E+00 0. -1.
         -4    1    6    6    0  503  0.29201872039E+02  0.30047842933E+03 -0.62110648037E+02  0.30821708003E+03  0.00000000000E+00 0.  1.
<mgrwt>
<rscale>  0 0.12878972E+04</rscale>
<asrwt>0</asrwt>
<pdfrwt beam="1">  1        2 0.80609953E-01 0.12878972E+04</pdfrwt>
<pdfrwt beam="2">  1       -2 0.12175506E+00 0.12878972E+04</pdfrwt>
<totfact> 0.29278800E+01</totfact>
</mgrwt>
</event>
<event>
12    1  0.4967442E-008  0.1795453E+04  0.7818608E-02  0.8708721E-01
         -2   -1    0    0    0  501 -0.00000000000E+00  0.00000000000E+00  0.84215559795E+03  0.84215559795E+03  0.00000000000E+00 0.  1.
          2   -1    0    0  501    0  0.00000000000E+00 -0.00000000000E+00 -0.95696455369E+03  0.95696455369E+03  0.00000000000E+00 0. -1.
         23    2    1    2    0    0 -0.31509035006E+03  0.78561072968E+02  0.54214661263E+03  0.63864925282E+03  0.92174549906E+02 0.  0.
        254    2    1    2    0    0  0.31509035006E+03 -0.78561072968E+02 -0.65695556837E+03  0.11604708988E+04  0.89980459951E+03 0.  0.
         23    2    4    4    0    0  0.43486618675E+03  0.30603167864E+03 -0.42914706217E+03  0.68915393920E+03  0.89453687676E+02 0.  0.
         23    2    4    4    0    0 -0.11977583669E+03 -0.38459275161E+03 -0.22780850620E+03  0.47131695962E+03  0.89359528205E+02 0.  0.
         13    1    3    3    0    0 -0.10936913990E+03  0.71692433313E+02  0.23438605718E+03  0.26839939933E+03  0.00000000000E+00 0. -1.
        -13    1    3    3    0    0 -0.20572121016E+03  0.68686396541E+01  0.30776055545E+03  0.37024985349E+03  0.00000000000E+00 0.  1.
          2    1    5    5  502    0  0.11120365911E+03  0.11853987307E+03 -0.16217566330E+03  0.22960596916E+03  0.00000000000E+00 0. -1.
          3    1    6    6  503    0  0.70561466182E+01 -0.19631911031E+01 -0.12057775030E+02  0.14107914909E+02  0.00000000000E+00 0. -1.
         -2    1    5    5    0  502  0.32366252764E+03  0.18749180557E+03 -0.26697139886E+03  0.45954797004E+03  0.00000000000E+00 0.  1.
         -3    1    6    6    0  503 -0.12683198331E+03 -0.38262956050E+03 -0.21575073117E+03  0.45720904471E+03  0.00000000000E+00 0.  1.
<mgrwt>
<rscale>  0 0.17954532E+04</rscale>
<asrwt>0</asrwt>
<pdfrwt beam="1">  1        2 0.14722532E+00 0.17954532E+04</pdfrwt>
<pdfrwt beam="2">  1       -2 0.12956240E+00 0.17954532E+04</pdfrwt>
<totfact> 0.11113065E+01</totfact>
</mgrwt>
</event>
<event>
12    1  0.4967442E-008  0.1795366E+04  0.7818608E-02  0.8708768E-01
         -2   -1    0    0    0  501 -0.00000000000E+00  0.00000000000E+00  0.21806539101E+03  0.21806539101E+03  0.00000000000E+00 0.  1.
          2   -1    0    0  501    0  0.00000000000E+00 -0.00000000000E+00 -0.36953814602E+04  0.36953814602E+04  0.00000000000E+00 0. -1.
         23    2    1    2    0    0 -0.12162859437E+03 -0.27090211471E+03 -0.26267935901E+04  0.26450869268E+04  0.90878018991E+02 0.  0.
        254    2    1    2    0    0  0.12162859437E+03  0.27090211471E+03 -0.85052247908E+03  0.12683599244E+04  0.89284205759E+03 0.  0.
         23    2    4    4    0    0  0.35127443501E+03  0.76887061048E+02 -0.87876274670E+03  0.95385291361E+03  0.91137626430E+02 0.  0.
         23    2    4    4    0    0 -0.22964584064E+03  0.19401505367E+03  0.28240267629E+02  0.31450701084E+03  0.87966436659E+02 0.  0.
         11    1    3    3    0    0  0.98693546937E+01 -0.68274379904E+02 -0.59119470888E+03  0.59520582904E+03  0.00000000000E+00 0.  1.
        -11    1    3    3    0    0 -0.13149794906E+03 -0.20262773481E+03 -0.20355988812E+04  0.20498810977E+04  0.00000000000E+00 0. -1.
          4    1    5    5  502    0  0.34129839272E+03  0.90449110755E+02 -0.85162518967E+03  0.92191707772E+03  0.00000000000E+00 0. -1.
          4    1    6    6  503    0 -0.21212197008E+03  0.17021609851E+03  0.51613446773E+02  0.27682701868E+03  0.00000000000E+00 0. -1.
         -4    1    5    5    0  502  0.99760422916E+01 -0.13562049707E+02 -0.27137557038E+02  0.31935835891E+02  0.00000000000E+00 0.  1.
         -4    1    6    6    0  503 -0.17523870563E+02  0.23798955153E+02 -0.23373179144E+02  0.37679992160E+02  0.00000000000E+00 0.  1.
<mgrwt>
<rscale>  0 0.17953660E+04</rscale>
<asrwt>0</asrwt>
<pdfrwt beam="1">  1        2 0.56852017E+00 0.17953660E+04</pdfrwt>
<pdfrwt beam="2">  1       -2 0.33548525E-01 0.17953660E+04</pdfrwt>
<totfact> 0.46639486E+00</totfact>
</mgrwt>
</event>
<event>
12    1  0.4967442E-008  0.1431124E+04  0.7818608E-02  0.8931592E-01
          2   -1    0    0  501    0  0.00000000000E+00  0.00000000000E+00  0.37849434977E+04  0.37849434977E+04  0.00000000000E+00 0. -1.
         -2   -1    0    0    0  501 -0.00000000000E+00 -0.00000000000E+00 -0.13528055134E+03  0.13528055134E+03  0.00000000000E+00 0.  1.
         23    2    1    2    0    0  0.36360437720E+03 -0.15455490750E+03  0.15191462845E+04  0.15723754233E+04  0.91998235573E+02 0.  0.
        254    2    1    2    0    0 -0.36360437720E+03  0.15455490750E+03  0.21305166619E+04  0.23478486258E+04  0.90398924807E+03 0.  0.
         23    2    4    4    0    0 -0.28502553222E+03  0.20470678169E+03  0.20328713008E+03  0.41614875465E+03  0.93325817742E+02 0.  0.
         23    2    4    4    0    0 -0.78578844988E+02 -0.50151874186E+02  0.19272295318E+04  0.19316998711E+04  0.92525016320E+02 0.  0.
         11    1    3    3    0    0  0.26246174886E+03 -0.70488291846E+02  0.11003980162E+04  0.11334595551E+04  0.00000000000E+00 0. -1.
        -11    1    3    3    0    0  0.10114262834E+03 -0.84066615654E+02  0.41874826829E+03  0.43891586817E+03  0.00000000000E+00 0.  1.
          2    1    6    6  502    0  0.77837080416E+01  0.29909648055E+01  0.76757290251E+03  0.76761819458E+03  0.00000000000E+00 0. -1.
          2    1    5    5  503    0 -0.11291830097E+03  0.10699965016E+03  0.13742431861E+03  0.20756905158E+03  0.00000000000E+00 0. -1.
         -2    1    5    5    0  503 -0.17210723125E+03  0.97707131526E+02  0.65862811470E+02  0.20857970307E+03  0.00000000000E+00 0.  1.
         -2    1    6    6    0  502 -0.86362553030E+02 -0.53142838992E+02  0.11596566293E+04  0.11640816766E+04  0.00000000000E+00 0.  1.
<mgrwt>
<rscale>  0 0.14311244E+04</rscale>
<asrwt>0</asrwt>
<pdfrwt beam="1">  1        2 0.58229892E+00 0.14311244E+04</pdfrwt>
<pdfrwt beam="2">  1       -2 0.20812395E-01 0.14311244E+04</pdfrwt>
<totfact> 0.99722088E+00</totfact>
</mgrwt>
</event>
<event>
12    1  0.4967442E-008  0.2020124E+04  0.7818608E-02  0.8597269E-01
         -2   -1    0    0    0  501 -0.00000000000E+00  0.00000000000E+00  0.66209582399E+03  0.66209582399E+03  0.00000000000E+00 0.  1.
          2   -1    0    0  501    0  0.00000000000E+00 -0.00000000000E+00 -0.15409031915E+04  0.15409031915E+04  0.00000000000E+00 0. -1.
         23    2    1    2    0    0 -0.34823006231E+03  0.53063637276E+03 -0.93670212112E+03  0.11351023786E+04  0.90594755947E+02 0.  0.
        254    2    1    2    0    0  0.34823006231E+03 -0.53063637276E+03  0.57894753655E+02  0.10678966368E+04  0.85686188390E+03 0.  0.
         23    2    4    4    0    0  0.22572564875E+03 -0.74777449378E+03  0.12087792870E+03  0.79578376927E+03  0.92420623972E+02 0.  0.
         23    2    4    4    0    0  0.12250441356E+03  0.21713812102E+03 -0.62983175045E+02  0.27211286757E+03  0.89006951502E+02 0.  0.
         11    1    3    3    0    0 -0.59965361686E+02  0.94173403753E+02 -0.10936787323E+03  0.15628757555E+03  0.00000000000E+00 0. -1.
        -11    1    3    3    0    0 -0.28826470062E+03  0.43646296901E+03 -0.82733424789E+03  0.97881480305E+03  0.00000000000E+00 0.  1.
          2    1    5    5  502    0  0.22093238474E+03 -0.66398875521E+03  0.12862932447E+03  0.71150382204E+03  0.00000000000E+00 0. -1.
          3    1    6    6  503    0  0.84150468435E+02  0.12490678065E+03 -0.80387919455E+02  0.17071971996E+03  0.00000000000E+00 0. -1.
         -2    1    5    5    0  502  0.47932640073E+01 -0.83785738579E+02 -0.77513957690E+01  0.84279947232E+02  0.00000000000E+00 0.  1.
         -3    1    6    6    0  503  0.38353945125E+02  0.92231340371E+02  0.17404744410E+02  0.10139314761E+03  0.00000000000E+00 0.  1.
<mgrwt>
<rscale>  0 0.20201243E+04</rscale>
<asrwt>0</asrwt>
<pdfrwt beam="1">  1        2 0.23706203E+00 0.20201243E+04</pdfrwt>
<pdfrwt beam="2">  1       -2 0.10186090E+00 0.20201243E+04</pdfrwt>
<totfact> 0.88270353E+00</totfact>
</mgrwt>
</event>
<event>
12    1  0.4967442E-008  0.1169387E+04  0.7818608E-02  0.9140082E-01
          2   -1    0    0  501    0  0.00000000000E+00  0.00000000000E+00  0.20980032880E+03  0.20980032880E+03  0.00000000000E+00 0. -1.
         -2   -1    0    0    0  501 -0.00000000000E+00 -0.00000000000E+00 -0.16294862047E+04  0.16294862047E+04  0.00000000000E+00 0.  1.
         23    2    1    2    0    0  0.16574659317E+03  0.12011155131E+03 -0.42475536483E+03  0.48016882957E+03  0.90808959032E+02 0.  0.
        254    2    1    2    0    0 -0.16574659317E+03 -0.12011155131E+03 -0.99493051106E+03  0.13591177039E+04  0.90300359542E+03 0.  0.
         23    2    4    4    0    0 -0.14541328385E+03  0.21928361734E+03  0.24617980731E+02  0.28041079982E+03  0.93775496415E+02 0.  0.
         23    2    4    4    0    0 -0.20333309322E+02 -0.33939516864E+03 -0.10195484918E+04  0.10787069041E+04  0.92341398351E+02 0.  0.
         11    1    3    3    0    0  0.68980414020E+02  0.34212566370E+02 -0.76019588065E+02  0.10820247218E+03  0.00000000000E+00 0. -1.
        -11    1    3    3    0    0  0.96766179153E+02  0.85898984936E+02 -0.34873577676E+03  0.37196635740E+03  0.00000000000E+00 0.  1.
          1    1    5    5  502    0 -0.53613184900E+02  0.10868542402E+03 -0.32932163735E+02  0.12558432385E+03  0.00000000000E+00 0. -1.
          1    1    6    6  503    0  0.23625811809E+02 -0.14747191183E+03 -0.34336249526E+03  0.37443817502E+03  0.00000000000E+00 0. -1.
         -1    1    5    5    0  502 -0.91800098951E+02  0.11059819332E+03  0.57550144466E+02  0.15482647597E+03  0.00000000000E+00 0.  1.
         -1    1    6    6    0  503 -0.43959121131E+02 -0.19192325681E+03 -0.67618599653E+03  0.70426872907E+03  0.00000000000E+00 0.  1.
<mgrwt>
<rscale>  0 0.11693874E+04</rscale>
<asrwt>0</asrwt>
<pdfrwt beam="1">  1        2 0.32276976E-01 0.11693874E+04</pdfrwt>
<pdfrwt beam="2">  1       -2 0.25069017E+00 0.11693874E+04</pdfrwt>
<totfact> 0.10347826E+01</totfact>
</mgrwt>
</event>
<event>
12    1  0.4967442E-008  0.1793245E+04  0.7818608E-02  0.8709900E-01
         -3   -1    0    0    0  501 -0.00000000000E+00  0.00000000000E+00  0.30479807465E+03  0.30479807465E+03  0.00000000000E+00 0.  1.
          3   -1    0    0  501    0  0.00000000000E+00 -0.00000000000E+00 -0.26375883993E+04  0.26375883993E+04  0.00000000000E+00 0. -1.
         23    2    1    2    0    0 -0.20432843230E+03 -0.33943931544E+03 -0.17480443605E+04  0.17945469717E+04  0.88150952178E+02 0.  0.
        254    2    1    2    0    0  0.20432843230E+03  0.33943931544E+03 -0.58474596415E+03  0.11478395022E+04  0.90478645167E+03 0.  0.
         23    2    4    4    0    0  0.22556947616E+03  0.49330683234E+02 -0.75772191007E+03  0.79740018739E+03  0.91594000709E+02 0.  0.
         23    2    4    4    0    0 -0.21241043855E+02  0.29010863221E+03  0.17297594592E+03  0.35043931482E+03  0.90955126712E+02 0.  0.
         11    1    3    3    0    0 -0.41156876560E+02 -0.77073978159E+02 -0.24603097041E+03  0.26108528299E+03  0.00000000000E+00 0.  1.
        -11    1    3    3    0    0 -0.16317155574E+03 -0.26236533728E+03 -0.15020133901E+04  0.15334616887E+04  0.00000000000E+00 0. -1.
          1    1    6    6  502    0  0.21337728977E+02  0.10233107280E+03  0.24679247012E+02  0.10740583025E+03  0.00000000000E+00 0. -1.
          1    1    5    5  503    0  0.70963756072E+02  0.53706793675E+02 -0.20584983338E+03  0.22426419301E+03  0.00000000000E+00 0. -1.
         -1    1    5    5    0  503  0.15460572009E+03 -0.43761104414E+01 -0.55187207669E+03  0.57313599439E+03  0.00000000000E+00 0.  1.
         -1    1    6    6    0  502 -0.42578772832E+02  0.18777755941E+03  0.14829669891E+03  0.24303348456E+03  0.00000000000E+00 0.  1.
<mgrwt>
<rscale>  0 0.17932450E+04</rscale>
<asrwt>0</asrwt>
<pdfrwt beam="1">  1        3 0.40578284E+00 0.17932450E+04</pdfrwt>
<pdfrwt beam="2">  1       -3 0.46892010E-01 0.17932450E+04</pdfrwt>
<totfact> 0.11650066E-01</totfact>
</mgrwt>
</event>
<event>
12    1  0.4967442E-008  0.1754702E+04  0.7818608E-02  0.8730766E-01
         -1   -1    0    0    0  501 -0.00000000000E+00  0.00000000000E+00  0.59282423182E+03  0.59282423182E+03  0.00000000000E+00 0.  1.
          1   -1    0    0  501    0  0.00000000000E+00 -0.00000000000E+00 -0.12984365946E+04  0.12984365946E+04  0.00000000000E+00 0. -1.
         23    2    1    2    0    0  0.12023115193E+03  0.16774760148E+03 -0.91108537353E+03  0.93863859239E+03  0.91493505612E+02 0.  0.
        254    2    1    2    0    0 -0.12023115193E+03 -0.16774760148E+03  0.20547301074E+03  0.95262223403E+03  0.90701442928E+03 0.  0.
         23    2    4    4    0    0 -0.20668786887E+03 -0.13252140803E+03  0.53627099859E+03  0.59681848093E+03  0.91235500310E+02 0.  0.
         23    2    4    4    0    0  0.86456716937E+02 -0.35226193447E+02 -0.33079798785E+03  0.35580375310E+03  0.91942119550E+02 0.  0.
         13    1    3    3    0    0  0.93952471365E+02  0.71544921027E+02 -0.61423770858E+03  0.62548677463E+03  0.00000000000E+00 0. -1.
        -13    1    3    3    0    0  0.26278680570E+02  0.96202680452E+02 -0.29684766495E+03  0.31315181776E+03  0.00000000000E+00 0.  1.
          4    1    5    5  502    0 -0.27314569665E+01  0.34964531389E+01 -0.23578590722E+01  0.50244941155E+01  0.00000000000E+00 0. -1.
          3    1    6    6  503    0 -0.10818733611E+02  0.17048726867E+02 -0.41683896399E+02  0.46316857662E+02  0.00000000000E+00 0. -1.
         -4    1    5    5    0  502 -0.20395641191E+03 -0.13601786117E+03  0.53862885767E+03  0.59179398681E+03  0.00000000000E+00 0.  1.
         -3    1    6    6    0  503  0.97275450548E+02 -0.52274920314E+02 -0.28911409145E+03  0.30948689544E+03  0.00000000000E+00 0.  1.
<mgrwt>
<rscale>  0 0.17547019E+04</rscale>
<asrwt>0</asrwt>
<pdfrwt beam="1">  1        1 0.19975948E+00 0.17547019E+04</pdfrwt>
<pdfrwt beam="2">  1       -1 0.91203728E-01 0.17547019E+04</pdfrwt>
<totfact> 0.10076434E+01</totfact>
</mgrwt>
</event>
<event>
12    1  0.4967442E-008  0.1631708E+04  0.7818608E-02  0.8801302E-01
          1   -1    0    0  501    0  0.00000000000E+00  0.00000000000E+00  0.86370546038E+03  0.86370546038E+03  0.00000000000E+00 0. -1.
         -1   -1    0    0    0  501 -0.00000000000E+00 -0.00000000000E+00 -0.77065367601E+03  0.77065367601E+03  0.00000000000E+00 0.  1.
         23    2    1    2    0    0  0.26799992319E+03  0.45497463311E+03 -0.15368626566E+03  0.55743678341E+03  0.91051763517E+02 0.  0.
        254    2    1    2    0    0 -0.26799992319E+03 -0.45497463311E+03  0.24673805003E+03  0.10769223530E+04  0.90556955195E+03 0.  0.
         23    2    4    4    0    0 -0.20144324057E+03  0.24199665223E+03  0.44116763851E+01  0.33039948695E+03  0.10001299527E+03 0.  0.
         23    2    4    4    0    0 -0.66556682623E+02 -0.69697128535E+03  0.24232637365E+03  0.74652286604E+03  0.91518050393E+02 0.  0.
         11    1    3    3    0    0  0.55103205568E+02  0.36015827885E+02 -0.21507472879E+02  0.69253696737E+02  0.00000000000E+00 0.  1.
        -11    1    3    3    0    0  0.21289671762E+03  0.41895880523E+03 -0.13217879278E+03  0.48818308667E+03  0.00000000000E+00 0. -1.
          1    1    5    5  502    0 -0.14548392553E+03  0.11472618195E+03 -0.28685359704E+02  0.18748471744E+03  0.00000000000E+00 0. -1.
          1    1    6    6  503    0 -0.44199883592E+02 -0.10793945273E+03  0.39166442267E+02  0.12303887746E+03  0.00000000000E+00 0. -1.
         -1    1    5    5    0  502 -0.55959315038E+02  0.12727047028E+03  0.33097036089E+02  0.14291476951E+03  0.00000000000E+00 0.  1.
         -1    1    6    6    0  503 -0.22356799031E+02 -0.58903183262E+03  0.20315993138E+03  0.62348398858E+03  0.00000000000E+00 0.  1.
<mgrwt>
<rscale>  0 0.16317080E+04</rscale>
<asrwt>0</asrwt>
<pdfrwt beam="1">  1        1 0.13287776E+00 0.16317080E+04</pdfrwt>
<pdfrwt beam="2">  1       -1 0.11856210E+00 0.16317080E+04</pdfrwt>
<totfact> 0.11904184E+01</totfact>
</mgrwt>
</event>
<event>
12    1  0.4967442E-008  0.1608144E+04  0.7818608E-02  0.8815561E-01
         -2   -1    0    0    0  501 -0.00000000000E+00  0.00000000000E+00  0.38572473526E+03  0.38572473526E+03  0.00000000000E+00 0.  1.
          2   -1    0    0  501    0  0.00000000000E+00 -0.00000000000E+00 -0.16761472887E+04  0.16761472887E+04  0.00000000000E+00 0. -1.
         23    2    1    2    0    0 -0.16459133078E+03  0.34740232312E+03  0.52785310055E+02  0.39871563650E+03  0.91701633322E+02 0.  0.
        254    2    1    2    0    0  0.16459133078E+03 -0.34740232312E+03 -0.13432078635E+04  0.16631563875E+04  0.90227663405E+03 0.  0.
         23    2    4    4    0    0  0.38875177212E+03 -0.13195765224E+03 -0.18308296841E+03  0.45870985101E+03  0.91403456080E+02 0.  0.
         23    2    4    4    0    0 -0.22416044134E+03 -0.21544467088E+03 -0.11601248951E+04  0.12044465365E+04  0.90207412832E+02 0.  0.
         11    1    3    3    0    0 -0.12625941414E+03  0.18333228600E+03  0.58391191659E+02  0.23013408703E+03  0.00000000000E+00 0.  1.
        -11    1    3    3    0    0 -0.38331916643E+02  0.16407003711E+03 -0.56058816039E+01  0.16858154947E+03  0.00000000000E+00 0. -1.
          4    1    5    5  502    0  0.68107360641E+02  0.99047016479E+01 -0.17842656872E+02  0.71099058309E+02  0.00000000000E+00 0. -1.
          1    1    6    6  503    0  0.59331800787E+01 -0.72847823380E+01 -0.82755799349E+02  0.83287412046E+02  0.00000000000E+00 0. -1.
         -4    1    5    5    0  502  0.32064441148E+03 -0.14186235389E+03 -0.16524031154E+03  0.38761079270E+03  0.00000000000E+00 0.  1.
         -1    1    6    6    0  503 -0.23009362141E+03 -0.20815988854E+03 -0.10773690957E+04  0.11211591244E+04  0.00000000000E+00 0.  1.
<mgrwt>
<rscale>  0 0.16081436E+04</rscale>
<asrwt>0</asrwt>
<pdfrwt beam="1">  1        2 0.25786882E+00 0.16081436E+04</pdfrwt>
<pdfrwt beam="2">  1       -2 0.59342266E-01 0.16081436E+04</pdfrwt>
<totfact> 0.25686022E+01</totfact>
</mgrwt>
</event>
<event>
12    1  0.4967442E-008  0.1462536E+04  0.7818608E-02  0.8909755E-01
         -2   -1    0    0    0  501 -0.00000000000E+00  0.00000000000E+00  0.20881701565E+04  0.20881701565E+04  0.00000000000E+00 0.  1.
          2   -1    0    0  501    0  0.00000000000E+00 -0.00000000000E+00 -0.25608682576E+03  0.25608682576E+03  0.00000000000E+00 0. -1.
         23    2    1    2    0    0 -0.41072432397E+03  0.15597936837E+02  0.83199088696E+03  0.93260402346E+03  0.92755930497E+02 0.  0.
        254    2    1    2    0    0  0.41072432397E+03 -0.15597936837E+02  0.10000924437E+04  0.14116529588E+04  0.90754692112E+03 0.  0.
         23    2    4    4    0    0  0.55508210436E+03  0.26279063497E+03  0.44203076415E+03  0.76340429785E+03  0.10109334851E+03 0.  0.
         23    2    4    4    0    0 -0.14435778039E+03 -0.27838857180E+03  0.55806167960E+03  0.64824866093E+03  0.10224540326E+03 0.  0.
         13    1    3    3    0    0 -0.40784698655E+03  0.67703250393E+01  0.82685214515E+03  0.92199212126E+03  0.00000000000E+00 0.  1.
        -13    1    3    3    0    0 -0.28773374230E+01  0.88276117974E+01  0.51387418149E+01  0.10611902192E+02  0.00000000000E+00 0. -1.
          4    1    5    5  502    0  0.57539248288E+02  0.84919315189E+01  0.74865028230E+02  0.94803219599E+02  0.00000000000E+00 0. -1.
          3    1    6    6  503    0 -0.11678827467E+03 -0.14906254913E+03  0.39706991471E+03  0.43991324351E+03  0.00000000000E+00 0. -1.
         -4    1    5    5    0  502  0.49754285607E+03  0.25429870345E+03  0.36716573592E+03  0.66860107825E+03  0.00000000000E+00 0.  1.
         -3    1    6    6    0  503 -0.27569505721E+02 -0.12932602267E+03  0.16099176489E+03  0.20833541741E+03  0.00000000000E+00 0.  1.
<mgrwt>
<rscale>  0 0.14625360E+04</rscale>
<asrwt>0</asrwt>
<pdfrwt beam="1">  1        2 0.39397975E-01 0.14625360E+04</pdfrwt>
<pdfrwt beam="2">  1       -2 0.32125694E+00 0.14625360E+04</pdfrwt>
<totfact> 0.30026372E+00</totfact>
</mgrwt>
</event>
<event>
12    1  0.4967442E-008  0.1761055E+04  0.7818608E-02  0.8727288E-01
          1   -1    0    0  501    0  0.00000000000E+00  0.00000000000E+00  0.16135955548E+04  0.16135955548E+04  0.00000000000E+00 0.  1.
         -1   -1    0    0    0  501 -0.00000000000E+00 -0.00000000000E+00 -0.48049771646E+03  0.48049771646E+03  0.00000000000E+00 0. -1.
         23    2    1    2    0    0  0.20065047834E+03  0.20374904852E+03 -0.27137610096E+03  0.40382964145E+03  0.87516295094E+02 0.  0.
        254    2    1    2    0    0 -0.20065047834E+03 -0.20374904852E+03  0.14044739393E+04  0.16902636299E+04  0.89591841308E+03 0.  0.
         23    2    4    4    0    0 -0.25708300930E+03 -0.50630326331E+03  0.11314402438E+04  0.12691934999E+04  0.90887000411E+02 0.  0.
         23    2    4    4    0    0  0.56432530960E+02  0.30255421479E+03  0.27303369552E+03  0.42107012992E+03  0.89604531047E+02 0.  0.
         11    1    3    3    0    0  0.19187528411E+03  0.14953559315E+03 -0.23286245264E+03  0.33675204546E+03  0.00000000000E+00 0. -1.
        -11    1    3    3    0    0  0.87751942384E+01  0.54213455371E+02 -0.38513648320E+02  0.67077595992E+02  0.00000000000E+00 0.  1.
          2    1    5    5  502    0 -0.10933208830E+03 -0.23721798510E+03  0.61877651665E+03  0.67164741907E+03  0.00000000000E+00 0. -1.
          3    1    6    6  503    0  0.74113489906E+02  0.15648198878E+03  0.13902919067E+03  0.22205525902E+03  0.00000000000E+00 0.  1.
         -2    1    5    5    0  502 -0.14775092100E+03 -0.26908527821E+03  0.51266372717E+03  0.59754608087E+03  0.00000000000E+00 0.  1.
         -3    1    6    6    0  503 -0.17680958947E+02  0.14607222600E+03  0.13400450485E+03  0.19901487090E+03  0.00000000000E+00 0. -1.
<mgrwt>
<rscale>  0 0.17610553E+04</rscale>
<asrwt>0</asrwt>
<pdfrwt beam="1">  1        1 0.24824547E+00 0.17610553E+04</pdfrwt>
<pdfrwt beam="2">  1       -1 0.73922726E-01 0.17610553E+04</pdfrwt>
<totfact> 0.95276989E+00</totfact>
</mgrwt>
</event>
<event>
12    1  0.4967442E-008  0.1055378E+04  0.7818608E-02  0.9249809E-01
         -1   -1    0    0    0  501 -0.00000000000E+00  0.00000000000E+00  0.18192837563E+03  0.18192837563E+03  0.00000000000E+00 0.  1.
          1   -1    0    0  501    0  0.00000000000E+00 -0.00000000000E+00 -0.15305791622E+04  0.15305791622E+04  0.00000000000E+00 0. -1.
         23    2    1    2    0    0 -0.13036749459E+03 -0.47891358564E+01 -0.75744057613E+02  0.17795167737E+03  0.94398187200E+02 0.  0.
        254    2    1    2    0    0  0.13036749459E+03  0.47891358564E+01 -0.12729067289E+04  0.15345558604E+04  0.84708413324E+03 0.  0.
         23    2    4    4    0    0  0.45187712722E+03  0.12501438850E+03 -0.89676617790E+03  0.10161890223E+04  0.92892495913E+02 0.  0.
         23    2    4    4    0    0 -0.32150963264E+03 -0.12022525265E+03 -0.37614055103E+03  0.51836683813E+03  0.96953130401E+02 0.  0.
         11    1    3    3    0    0  0.32803867784E+01 -0.21980199745E+02 -0.26265258234E+02  0.34405724936E+02  0.00000000000E+00 0. -1.
        -11    1    3    3    0    0 -0.13364788137E+03  0.17191063889E+02 -0.49478799379E+02  0.14354595243E+03  0.00000000000E+00 0.  1.
          2    1    5    5  502    0  0.19486111877E+03  0.80781769928E+02 -0.32091288584E+03  0.38403337128E+03  0.00000000000E+00 0.  1.
          3    1    6    6  503    0 -0.32214894353E+03 -0.12856502258E+03 -0.35842444223E+03  0.49877548821E+03  0.00000000000E+00 0. -1.
         -2    1    5    5    0  502  0.25701600845E+03  0.44232618574E+02 -0.57585329207E+03  0.63215565103E+03  0.00000000000E+00 0. -1.
         -3    1    6    6    0  503  0.63931089420E+00  0.83397699313E+01 -0.17716108796E+02  0.19591349922E+02  0.00000000000E+00 0.  1.
<mgrwt>
<rscale>  0 0.10553782E+04</rscale>
<asrwt>0</asrwt>
<pdfrwt beam="1">  1        1 0.23547372E+00 0.10553782E+04</pdfrwt>
<pdfrwt beam="2">  1       -1 0.27988981E-01 0.10553782E+04</pdfrwt>
<totfact> 0.71725982E+01</totfact>
</mgrwt>
</event>
<event>
12    1  0.4967442E-008  0.1568727E+04  0.7818608E-02  0.8839994E-01
          1   -1    0    0  501    0  0.00000000000E+00  0.00000000000E+00  0.13881004454E+04  0.13881004454E+04  0.00000000000E+00 0. -1.
         -1   -1    0    0    0  501 -0.00000000000E+00 -0.00000000000E+00 -0.44321444195E+03  0.44321444195E+03  0.00000000000E+00 0.  1.
         23    2    1    2    0    0  0.23413996771E+03  0.14480044428E+03 -0.18392447014E+03  0.34327277876E+03  0.90660337408E+02 0.  0.
        254    2    1    2    0    0 -0.23413996771E+03 -0.14480044428E+03  0.11288104736E+04  0.14880421086E+04  0.92965990474E+03 0.  0.
         23    2    4    4    0    0  0.12959230466E+03  0.30206223668E+03  0.64534094087E+03  0.73037695820E+03  0.94603439953E+02 0.  0.
         23    2    4    4    0    0 -0.36373227237E+03 -0.44686268096E+03  0.48346953272E+03  0.75766515038E+03  0.91248394164E+02 0.  0.
         13    1    3    3    0    0  0.71176483497E+02  0.86191563141E+02 -0.42164552625E+02  0.11946935531E+03  0.00000000000E+00 0. -1.
        -13    1    3    3    0    0  0.16296348421E+03  0.58608881141E+02 -0.14175991752E+03  0.22380342345E+03  0.00000000000E+00 0.  1.
          1    1    5    5  502    0  0.63787123111E+02  0.59365183121E+02  0.21447399798E+03  0.23149971458E+03  0.00000000000E+00 0. -1.
          1    1    6    6  503    0 -0.32434890930E+03 -0.42960330194E+03  0.42940038269E+03  0.68858253002E+03  0.00000000000E+00 0.  1.
         -1    1    5    5    0  502  0.65805181548E+02  0.24269705356E+03  0.43086694290E+03  0.49887724362E+03  0.00000000000E+00 0.  1.
         -1    1    6    6    0  503 -0.39383363069E+02 -0.17259379027E+02  0.54069150028E+02  0.69082620360E+02  0.00000000000E+00 0. -1.
<mgrwt>
<rscale>  0 0.15687271E+04</rscale>
<asrwt>0</asrwt>
<pdfrwt beam="1">  1        1 0.21355391E+00 0.15687271E+04</pdfrwt>
<pdfrwt beam="2">  1       -1 0.68186838E-01 0.15687271E+04</pdfrwt>
<totfact> 0.16404895E+01</totfact>
</mgrwt>
</event>
<event>
12    1  0.4967442E-008  0.1479412E+04  0.7818608E-02  0.8898260E-01
          2   -1    0    0  501    0  0.00000000000E+00  0.00000000000E+00  0.20247185513E+04  0.20247185513E+04  0.00000000000E+00 0. -1.
         -2   -1    0    0    0  501 -0.00000000000E+00 -0.00000000000E+00 -0.27024238788E+03  0.27024238788E+03  0.00000000000E+00 0.  1.
         23    2    1    2    0    0 -0.34940578326E+03 -0.10973366627E+03  0.99799318371E+03  0.10689418394E+04  0.11189451417E+03 0.  0.
        254    2    1    2    0    0  0.34940578326E+03  0.10973366627E+03  0.75648297975E+03  0.12260190999E+04  0.89259758889E+03 0.  0.
         23    2    4    4    0    0 -0.14421686824E+03 -0.26986241183E+03  0.36906253450E+03  0.48702738709E+03  0.85815470647E+02 0.  0.
         23    2    4    4    0    0  0.49362265150E+03  0.37959607810E+03  0.38742044524E+03  0.73899171277E+03  0.90871588361E+02 0.  0.
         13    1    3    3    0    0 -0.28329254162E+03 -0.68751977616E+02  0.88490020071E+03  0.93168120287E+03  0.00000000000E+00 0. -1.
        -13    1    3    3    0    0 -0.66113241632E+02 -0.40981688652E+02  0.11309298301E+03  0.13726063649E+03  0.00000000000E+00 0.  1.
          1    1    5    5  502    0 -0.28743880437E+02 -0.77113257006E+02  0.16092594744E+03  0.18074796162E+03  0.00000000000E+00 0. -1.
          3    1    6    6  503    0  0.21752807734E+03  0.11383220959E+03  0.13611162482E+03  0.28071802717E+03  0.00000000000E+00 0. -1.
         -1    1    5    5    0  502 -0.11547298780E+03 -0.19274915482E+03  0.20813658706E+03  0.30627942548E+03  0.00000000000E+00 0.  1.
         -3    1    6    6    0  503  0.27609457416E+03  0.26576386851E+03  0.25130882043E+03  0.45827368559E+03  0.00000000000E+00 0.  1.
<mgrwt>
<rscale>  0 0.14794117E+04</rscale>
<asrwt>0</asrwt>
<pdfrwt beam="1">  1        2 0.31149515E+00 0.14794117E+04</pdfrwt>
<pdfrwt beam="2">  1       -2 0.41575753E-01 0.14794117E+04</pdfrwt>
<totfact> 0.34349835E+01</totfact>
</mgrwt>
</event>
<event>
12    1  0.4967442E-008  0.2226982E+04  0.7818608E-02  0.8507281E-01
         -2   -1    0    0    0  501 -0.00000000000E+00  0.00000000000E+00  0.10685729644E+04  0.10685729644E+04  0.00000000000E+00 0.  1.
          2   -1    0    0  501    0  0.00000000000E+00 -0.00000000000E+00 -0.11602968044E+04  0.11602968044E+04  0.00000000000E+00 0. -1.
         23    2    1    2    0    0 -0.55491816769E+02 -0.59981936356E+03 -0.77504139659E+03  0.98575957189E+03  0.90388918107E+02 0.  0.
        254    2    1    2    0    0  0.55491816769E+02  0.59981936356E+03  0.68331755661E+03  0.12431101968E+04  0.84589447787E+03 0.  0.
         23    2    4    4    0    0 -0.37502796134E+03  0.17919176851E+03  0.22679806077E+03  0.48216277667E+03  0.91038020329E+02 0.  0.
         23    2    4    4    0    0  0.43051977811E+03  0.42062759505E+03  0.45651949584E+03  0.76094742017E+03  0.91411558990E+02 0.  0.
         13    1    3    3    0    0 -0.35979328363E+02 -0.50529641175E+03 -0.59464509728E+03  0.78116692680E+03  0.00000000000E+00 0. -1.
        -13    1    3    3    0    0 -0.19512488406E+02 -0.94522951802E+02 -0.18039629931E+03  0.20459264509E+03  0.00000000000E+00 0.  1.
          2    1    5    5  502    0 -0.25502519362E+03  0.13827464033E+03  0.20059055969E+03  0.35269575866E+03  0.00000000000E+00 0.  1.
          4    1    6    6  503    0  0.19891207995E+03  0.17851531856E+03  0.14813425074E+03  0.30557730733E+03  0.00000000000E+00 0. -1.
         -2    1    5    5    0  502 -0.12000276773E+03  0.40917128182E+02  0.26207501083E+02  0.12946701802E+03  0.00000000000E+00 0. -1.
         -4    1    6    6    0  503  0.23160769816E+03  0.24211227648E+03  0.30838524509E+03  0.45537011284E+03  0.00000000000E+00 0.  1.
<mgrwt>
<rscale>  0 0.22269816E+04</rscale>
<asrwt>0</asrwt>
<pdfrwt beam="1">  1        2 0.17850720E+00 0.22269816E+04</pdfrwt>
<pdfrwt beam="2">  1       -2 0.16439584E+00 0.22269816E+04</pdfrwt>
<totfact> 0.42685879E+00</totfact>
</mgrwt>
</event>
<event>
12    1  0.4967442E-008  0.1673736E+04  0.7818608E-02  0.8776487E-01
         -4   -1    0    0    0  501 -0.00000000000E+00  0.00000000000E+00  0.72855275761E+03  0.72855275761E+03  0.00000000000E+00 0.  1.
          4   -1    0    0  501    0  0.00000000000E+00 -0.00000000000E+00 -0.96128675791E+03  0.96128675791E+03  0.00000000000E+00 0. -1.
         23    2    1    2    0    0 -0.20048113601E+03  0.83301075136E+02 -0.58845683297E+03  0.63310261173E+03  0.86056479655E+02 0.  0.
        254    2    1    2    0    0  0.20048113601E+03 -0.83301075136E+02  0.35572283267E+03  0.10567369038E+04  0.97109340186E+03 0.  0.
         23    2    4    4    0    0  0.35495914674E+03 -0.44819681016E+03  0.13628931970E+03  0.59466774272E+03  0.90435441485E+02 0.  0.
         23    2    4    4    0    0 -0.15447801073E+03  0.36489573503E+03  0.21943351296E+03  0.46206916107E+03  0.91348178742E+02 0.  0.
         11    1    3    3    0    0 -0.17981743530E+02  0.25894680963E+02 -0.33075890971E+02  0.45693458679E+02  0.00000000000E+00 0.  1.
        -11    1    3    3    0    0 -0.18249939248E+03  0.57406394173E+02 -0.55538094200E+03  0.58740915305E+03  0.00000000000E+00 0. -1.
          2    1    5    5  502    0  0.10749129811E+02  0.21534869827E+00  0.11546149891E+02  0.15776683557E+02  0.00000000000E+00 0. -1.
          1    1    6    6  503    0 -0.23460394755E+02  0.16845287340E+03  0.81357000741E+02  0.18853573202E+03  0.00000000000E+00 0. -1.
         -2    1    5    5    0  502  0.34421001693E+03 -0.44841215886E+03  0.12474316981E+03  0.57889105917E+03  0.00000000000E+00 0.  1.
         -1    1    6    6    0  503 -0.13101761598E+03  0.19644286163E+03  0.13807651222E+03  0.27353342905E+03  0.00000000000E+00 0.  1.
<mgrwt>
<rscale>  0 0.16737361E+04</rscale>
<asrwt>0</asrwt>
<pdfrwt beam="1">  1        4 0.14789027E+00 0.16737361E+04</pdfrwt>
<pdfrwt beam="2">  1       -4 0.11208504E+00 0.16737361E+04</pdfrwt>
<totfact> 0.36960844E-01</totfact>
</mgrwt>
</event>
<event>
12    1  0.4967442E-008  0.2401118E+04  0.7818608E-02  0.8439085E-01
         -1   -1    0    0    0  501 -0.00000000000E+00  0.00000000000E+00  0.59341314242E+03  0.59341314242E+03  0.00000000000E+00 0.  1.
          1   -1    0    0  501    0  0.00000000000E+00 -0.00000000000E+00 -0.24289006386E+04  0.24289006386E+04  0.00000000000E+00 0. -1.
         23    2    1    2    0    0 -0.88913751613E+03  0.39873553040E+03 -0.13685529689E+04  0.16824720644E+04  0.90661309378E+02 0.  0.
        254    2    1    2    0    0  0.88913751613E+03 -0.39873553040E+03 -0.46693452729E+03  0.13398417166E+04  0.79220731319E+03 0.  0.
         23    2    4    4    0    0  0.51317138819E+02  0.19428004730E+03 -0.36393259008E+02  0.22298756470E+03  0.89558914657E+02 0.  0.
         23    2    4    4    0    0  0.83782037731E+03 -0.59301557770E+03 -0.43054126828E+03  0.11168541519E+04  0.91580308811E+02 0.  0.
         11    1    3    3    0    0 -0.63116548500E+03  0.26015354838E+03 -0.89418845188E+03  0.11249989892E+04  0.00000000000E+00 0.  1.
        -11    1    3    3    0    0 -0.25797203112E+03  0.13858198202E+03 -0.47436451701E+03  0.55747307521E+03  0.00000000000E+00 0. -1.
          4    1    5    5  502    0  0.67656773083E+02  0.18883174964E+03 -0.24546393997E+02  0.20208264170E+03  0.00000000000E+00 0.  1.
          3    1    6    6  503    0  0.15568018358E+03 -0.69014557793E+02 -0.76031427589E+02  0.18649425387E+03  0.00000000000E+00 0. -1.
         -4    1    5    5    0  502 -0.16339634264E+02  0.54482976591E+01 -0.11846865011E+02  0.20904923005E+02  0.00000000000E+00 0. -1.
         -3    1    6    6    0  503  0.68214019373E+03 -0.52400101991E+03 -0.35450984070E+03  0.93035989806E+03  0.00000000000E+00 0.  1.
<mgrwt>
<rscale>  0 0.24011177E+04</rscale>
<asrwt>0</asrwt>
<pdfrwt beam="1">  1        1 0.37367701E+00 0.24011177E+04</pdfrwt>
<pdfrwt beam="2">  1       -1 0.91294332E-01 0.24011177E+04</pdfrwt>
<totfact> 0.15908220E+00</totfact>
</mgrwt>
</event>
<event>
12    1  0.4967442E-008  0.1710182E+04  0.7818608E-02  0.8755578E-01
          1   -1    0    0  501    0  0.00000000000E+00  0.00000000000E+00  0.63604164442E+03  0.63604164442E+03  0.00000000000E+00 0. -1.
         -1   -1    0    0    0  501 -0.00000000000E+00 -0.00000000000E+00 -0.11495798385E+04  0.11495798385E+04  0.00000000000E+00 0.  1.
         23    2    1    2    0    0 -0.56932935319E+03  0.48189308593E+01 -0.42444533343E+03  0.71626808307E+03  0.93418366809E+02 0.  0.
        254    2    1    2    0    0  0.56932935319E+03 -0.48189308593E+01 -0.89092860682E+02  0.10693533999E+04  0.90078855539E+03 0.  0.
         23    2    4    4    0    0 -0.17400617542E+03 -0.19709827654E+03 -0.10022301659E+03  0.29575145256E+03  0.91095493492E+02 0.  0.
         23    2    4    4    0    0  0.74333552861E+03  0.19227934568E+03  0.11130155908E+02  0.77360194733E+03  0.93899082365E+02 0.  0.
         11    1    3    3    0    0 -0.39925549648E+03 -0.88962062452E+01 -0.34633354846E+03  0.52861235395E+03  0.00000000000E+00 0.  1.
        -11    1    3    3    0    0 -0.17007385671E+03  0.13715137104E+02 -0.78111784969E+02  0.18765572913E+03  0.00000000000E+00 0. -1.
          2    1    5    5  502    0 -0.27916197241E+02 -0.57473170705E+02 -0.64024331986E+02  0.90452166948E+02  0.00000000000E+00 0. -1.
          1    1    6    6  503    0  0.13688240687E+03  0.72297638288E+02  0.13496758858E+02  0.15538952446E+03  0.00000000000E+00 0. -1.
         -2    1    5    5    0  502 -0.14608997818E+03 -0.13962510584E+03 -0.36198684603E+02  0.20529928561E+03  0.00000000000E+00 0.  1.
         -1    1    6    6    0  503  0.60645312174E+03  0.11998170740E+03 -0.23666029502E+01  0.61821242287E+03  0.00000000000E+00 0.  1.
<mgrwt>
<rscale>  0 0.17101820E+04</rscale>
<asrwt>0</asrwt>
<pdfrwt beam="1">  1        1 0.97852561E-01 0.17101820E+04</pdfrwt>
<pdfrwt beam="2">  1       -1 0.17685844E+00 0.17101820E+04</pdfrwt>
<totfact> 0.65560419E+00</totfact>
</mgrwt>
</event>
<event>
12    1  0.4967442E-008  0.1622174E+04  0.7818608E-02  0.8807040E-01
          2   -1    0    0  501    0  0.00000000000E+00  0.00000000000E+00  0.63684958379E+03  0.63684958379E+03  0.00000000000E+00 0.  1.
         -2   -1    0    0    0  501 -0.00000000000E+00 -0.00000000000E+00 -0.10329950340E+04  0.10329950340E+04  0.00000000000E+00 0. -1.
         23    2    1    2    0    0  0.29090687928E+03 -0.21468699319E+02  0.35214287154E+03  0.46662192743E+03  0.92971521025E+02 0.  0.
        254    2    1    2    0    0 -0.29090687928E+03  0.21468699319E+02 -0.74828832174E+03  0.12032226903E+04  0.89594738273E+03 0.  0.
         23    2    4    4    0    0 -0.55674814592E+03  0.21130526306E+03 -0.44534239942E+03  0.74908863123E+03  0.90473822285E+02 0.  0.
         23    2    4    4    0    0  0.26584126665E+03 -0.18983656374E+03 -0.30294592231E+03  0.45413405911E+03  0.88045509898E+02 0.  0.
         13    1    3    3    0    0  0.83930974644E+02  0.15791643356E+02  0.16186933568E+03  0.18301766674E+03  0.00000000000E+00 0. -1.
        -13    1    3    3    0    0  0.20697590463E+03 -0.37260342675E+02  0.19027353586E+03  0.28360426070E+03  0.00000000000E+00 0.  1.
          4    1    5    5  502    0 -0.40029139729E+03  0.14044679611E+03 -0.36431091482E+03  0.55917881572E+03  0.00000000000E+00 0. -1.
          3    1    6    6  503    0  0.19825827376E+03 -0.92184721891E+02 -0.18006563126E+03  0.28324547238E+03  0.00000000000E+00 0. -1.
         -4    1    5    5    0  502 -0.15645674863E+03  0.70858466950E+02 -0.81031484601E+02  0.18990981551E+03  0.00000000000E+00 0.  1.
         -3    1    6    6    0  503  0.67582992885E+02 -0.97651841851E+02 -0.12288029106E+03  0.17088858673E+03  0.00000000000E+00 0.  1.
<mgrwt>
<rscale>  0 0.16221744E+04</rscale>
<asrwt>0</asrwt>
<pdfrwt beam="1">  1        2 0.97976861E-01 0.16221744E+04</pdfrwt>
<pdfrwt beam="2">  1       -2 0.15892231E+00 0.16221744E+04</pdfrwt>
<totfact> 0.11317398E+01</totfact>
</mgrwt>
</event>
<event>
12    1  0.4967442E-008  0.1290887E+04  0.7818608E-02  0.9036823E-01
          2   -1    0    0  501    0  0.00000000000E+00  0.00000000000E+00  0.18980423389E+04  0.18980423389E+04  0.00000000000E+00 0. -1.
         -2   -1    0    0    0  501 -0.00000000000E+00 -0.00000000000E+00 -0.21948802948E+03  0.21948802948E+03  0.00000000000E+00 0.  1.
         23    2    1    2    0    0  0.23104275669E+03  0.11881765057E+03  0.72204053301E+03  0.77359497835E+03  0.98021781794E+02 0.  0.
        254    2    1    2    0    0 -0.23104275669E+03 -0.11881765057E+03  0.95651377642E+03  0.13439353900E+04  0.90760417509E+03 0.  0.
         23    2    4    4    0    0 -0.45733850376E+03  0.21521575335E+03  0.65151738536E+03  0.82977550572E+03  0.92607553501E+02 0.  0.
         23    2    4    4    0    0  0.22629574707E+03 -0.33403340392E+03  0.30499639107E+03  0.51415988433E+03  0.92463549628E+02 0.  0.
         13    1    3    3    0    0  0.98322782007E+02  0.73115465201E+02  0.46333039338E+03  0.47925806633E+03  0.00000000000E+00 0. -1.
        -13    1    3    3    0    0  0.13271997468E+03  0.45702185373E+02  0.25871013963E+03  0.29433691202E+03  0.00000000000E+00 0.  1.
          4    1    6    6  502    0  0.10788498890E+03 -0.14052799577E+03  0.19012585928E+03  0.25987522159E+03  0.00000000000E+00 0. -1.
          4    1    5    5  503    0 -0.35513715681E+03  0.14296269298E+03  0.43316153198E+03  0.57809138077E+03  0.00000000000E+00 0. -1.
         -4    1    5    5    0  503 -0.10220134695E+03  0.72253060366E+02  0.21835585337E+03  0.25168412495E+03  0.00000000000E+00 0.  1.
         -4    1    6    6    0  502  0.11841075816E+03 -0.19350540815E+03  0.11487053178E+03  0.25428466274E+03  0.00000000000E+00 0.  1.
<mgrwt>
<rscale>  0 0.12908874E+04</rscale>
<asrwt>0</asrwt>
<pdfrwt beam="1">  1        2 0.29200650E+00 0.12908874E+04</pdfrwt>
<pdfrwt beam="2">  1       -2 0.33767390E-01 0.12908874E+04</pdfrwt>
<totfact> 0.61278774E+01</totfact>
</mgrwt>
</event>
<event>
12    1  0.4967442E-008  0.1926191E+04  0.7818608E-02  0.8641928E-01
          2   -1    0    0  501    0  0.00000000000E+00  0.00000000000E+00  0.35588451113E+04  0.35588451113E+04  0.00000000000E+00 0. -1.
         -2   -1    0    0    0  501 -0.00000000000E+00 -0.00000000000E+00 -0.26063306102E+03  0.26063306102E+03  0.00000000000E+00 0.  1.
         23    2    1    2    0    0  0.48541734159E+03  0.21854295882E+03  0.26329091704E+03  0.60113004029E+03  0.92974179087E+02 0.  0.
        254    2    1    2    0    0 -0.48541734159E+03 -0.21854295882E+03  0.30349211332E+04  0.32183481320E+04  0.92931555118E+03 0.  0.
         23    2    4    4    0    0 -0.26767857884E+03 -0.24529450153E+03  0.31902207967E+03  0.49210952999E+03  0.92603931568E+02 0.  0.
         23    2    4    4    0    0 -0.21773876275E+03  0.26751542718E+02  0.27158990535E+04  0.27262386020E+04  0.90240967787E+02 0.  0.
         13    1    3    3    0    0  0.35640755349E+03  0.18314495614E+03  0.15739935508E+03  0.43051478038E+03  0.00000000000E+00 0.  1.
        -13    1    3    3    0    0  0.12900978810E+03  0.35398002673E+02  0.10589156197E+03  0.17061525991E+03  0.00000000000E+00 0. -1.
          4    1    5    5  502    0 -0.44430261020E+02 -0.24654587300E+01  0.31353042988E+02  0.54434730509E+02  0.00000000000E+00 0. -1.
          3    1    6    6  503    0 -0.44188352194E+01  0.20974624742E+02  0.38315693372E+03  0.38375603819E+03  0.00000000000E+00 0. -1.
         -4    1    5    5    0  502 -0.22324831782E+03 -0.24282904280E+03  0.28766903668E+03  0.43767479948E+03  0.00000000000E+00 0.  1.
         -3    1    6    6    0  503 -0.21331992753E+03  0.57769179756E+01  0.23327421198E+04  0.23424825638E+04  0.00000000000E+00 0.  1.
<mgrwt>
<rscale>  0 0.19261907E+04</rscale>
<asrwt>0</asrwt>
<pdfrwt beam="1">  1        2 0.54751460E+00 0.19261907E+04</pdfrwt>
<pdfrwt beam="2">  1       -2 0.40097397E-01 0.19261907E+04</pdfrwt>
<totfact> 0.40931413E+00</totfact>
</mgrwt>
</event>
<event>
12    1  0.4967442E-008  0.1542873E+04  0.7818608E-02  0.8856433E-01
          2   -1    0    0  501    0  0.00000000000E+00  0.00000000000E+00  0.10606202817E+04  0.10606202817E+04  0.00000000000E+00 0. -1.
         -2   -1    0    0    0  501 -0.00000000000E+00 -0.00000000000E+00 -0.56110022059E+03  0.56110022059E+03  0.00000000000E+00 0.  1.
         23    2    1    2    0    0 -0.45256372196E+03 -0.24449555393E+03  0.17241735715E+02  0.52317428386E+03  0.93925797931E+02 0.  0.
        254    2    1    2    0    0  0.45256372196E+03  0.24449555393E+03  0.48227832541E+03  0.10985462185E+04  0.84238910997E+03 0.  0.
         23    2    4    4    0    0 -0.20964384442E+03  0.21469505739E+03  0.19920257385E+03  0.37194374663E+03  0.92822282107E+02 0.  0.
         23    2    4    4    0    0  0.66220756638E+03  0.29800496535E+02  0.28307575156E+03  0.72660247182E+03  0.91718811450E+02 0.  0.
         11    1    3    3    0    0 -0.73964221287E+02 -0.81679472254E+02  0.13649966951E+02  0.11103406602E+03  0.00000000000E+00 0. -1.
        -11    1    3    3    0    0 -0.37859950067E+03 -0.16281608168E+03  0.35917687646E+01  0.41214021785E+03  0.00000000000E+00 0.  1.
          1    1    5    5  502    0  0.95010617013E+01  0.97591374579E+01  0.12963296260E+02  0.18803137698E+02  0.00000000000E+00 0. -1.
          3    1    6    6  503    0  0.10463518338E+03 -0.18098170241E+02  0.19304490768E+02  0.10792927652E+03  0.00000000000E+00 0. -1.
         -1    1    5    5    0  502 -0.21914490612E+03  0.20493591994E+03  0.18623927759E+03  0.35314060893E+03  0.00000000000E+00 0.  1.
         -3    1    6    6    0  503  0.55757238300E+03  0.47898666776E+02  0.26377126079E+03  0.61867319530E+03  0.00000000000E+00 0.  1.
<mgrwt>
<rscale>  0 0.15428730E+04</rscale>
<asrwt>0</asrwt>
<pdfrwt beam="1">  1        2 0.16317235E+00 0.15428730E+04</pdfrwt>
<pdfrwt beam="2">  1       -2 0.86323111E-01 0.15428730E+04</pdfrwt>
<totfact> 0.25828089E+01</totfact>
</mgrwt>
</event>
<event>
12    1  0.4967442E-008  0.1082615E+04  0.7818608E-02  0.9222304E-01
          2   -1    0    0  501    0  0.00000000000E+00  0.00000000000E+00  0.96084428549E+03  0.96084428549E+03  0.00000000000E+00 0. -1.
         -2   -1    0    0    0  501 -0.00000000000E+00 -0.00000000000E+00 -0.30495454347E+03  0.30495454347E+03  0.00000000000E+00 0.  1.
         23    2    1    2    0    0 -0.11342909120E+03  0.87743123415E+02  0.20319687308E+03  0.26514089746E+03  0.91900554080E+02 0.  0.
        254    2    1    2    0    0  0.11342909120E+03 -0.87743123415E+02  0.45269286895E+03  0.10006579315E+04  0.88080670289E+03 0.  0.
         23    2    4    4    0    0 -0.12458449830E+03 -0.43217142011E+03  0.17767133660E+03  0.49161271365E+03  0.88445026999E+02 0.  0.
         23    2    4    4    0    0  0.23801358950E+03  0.34442829669E+03  0.27502153235E+03  0.50904521785E+03  0.90602815684E+02 0.  0.
         13    1    3    3    0    0 -0.76425331745E+02  0.30468247117E+02  0.47105794632E+02  0.94805597423E+02  0.00000000000E+00 0.  1.
        -13    1    3    3    0    0 -0.37003759457E+02  0.57274876298E+02  0.15609107844E+03  0.17033530004E+03  0.00000000000E+00 0. -1.
          4    1    5    5  502    0 -0.93258906300E+01 -0.58121846560E+02  0.57220896921E+02  0.82093558384E+02  0.00000000000E+00 0.  1.
          1    1    6    6  503    0  0.13842390562E+03  0.24078942675E+03  0.22300045578E+03  0.35618805280E+03  0.00000000000E+00 0. -1.
         -4    1    5    5    0  502 -0.11525860767E+03 -0.37404957355E+03  0.12045043968E+03  0.40951915527E+03  0.00000000000E+00 0. -1.
         -1    1    6    6    0  503  0.99589683886E+02  0.10363886995E+03  0.52021076573E+02  0.15285716505E+03  0.00000000000E+00 0.  1.
<mgrwt>
<rscale>  0 0.10826150E+04</rscale>
<asrwt>0</asrwt>
<pdfrwt beam="1">  1        2 0.14782220E+00 0.10826150E+04</pdfrwt>
<pdfrwt beam="2">  1       -2 0.46916084E-01 0.10826150E+04</pdfrwt>
<totfact> 0.11427533E+02</totfact>
</mgrwt>
</event>
<event>
12    1  0.4967442E-008  0.1687287E+04  0.7818608E-02  0.8768649E-01
          1   -1    0    0  501    0  0.00000000000E+00  0.00000000000E+00  0.38124810754E+03  0.38124810754E+03  0.00000000000E+00 0. -1.
         -1   -1    0    0    0  501 -0.00000000000E+00 -0.00000000000E+00 -0.18668524138E+04  0.18668524138E+04  0.00000000000E+00 0.  1.
         23    2    1    2    0    0 -0.53272832269E+03  0.29186739686E+03 -0.48348883676E+03  0.78215134933E+03  0.94938057870E+02 0.  0.
        254    2    1    2    0    0  0.53272832269E+03 -0.29186739686E+03 -0.10021154695E+04  0.14659491720E+04  0.88078687408E+03 0.  0.
         23    2    4    4    0    0  0.24963175863E+03  0.48745053678E+02  0.89316162478E+02  0.28459029948E+03  0.91225909165E+02 0.  0.
         23    2    4    4    0    0  0.28309656407E+03 -0.34061245054E+03 -0.10914316320E+04  0.11813588725E+04  0.90693287396E+02 0.  0.
         13    1    3    3    0    0 -0.42259301721E+03  0.22831722876E+03 -0.32965423074E+03  0.58256804494E+03  0.00000000000E+00 0.  1.
        -13    1    3    3    0    0 -0.11013530548E+03  0.63550168103E+02 -0.15383460602E+03  0.19958330439E+03  0.00000000000E+00 0. -1.
          2    1    6    6  502    0  0.43460853770E+02 -0.52475532704E+02 -0.27018508420E+03  0.27864405084E+03  0.00000000000E+00 0.  1.
          2    1    5    5  503    0  0.57342762336E+02  0.48506696271E+02  0.43953065035E+02  0.87022778061E+02  0.00000000000E+00 0. -1.
         -2    1    5    5    0  503  0.19228899629E+03  0.23835740755E+00  0.45363097443E+02  0.19756752142E+03  0.00000000000E+00 0.  1.
         -2    1    6    6    0  502  0.23963571030E+03 -0.28813691784E+03 -0.82124654779E+03  0.90271482170E+03  0.00000000000E+00 0. -1.
<mgrwt>
<rscale>  0 0.16872865E+04</rscale>
<asrwt>0</asrwt>
<pdfrwt beam="1">  1        1 0.58653554E-01 0.16872865E+04</pdfrwt>
<pdfrwt beam="2">  1       -1 0.28720807E+00 0.16872865E+04</pdfrwt>
<totfact> 0.24381924E+00</totfact>
</mgrwt>
</event>
<event>
12    1  0.4967442E-008  0.2154764E+04  0.7818608E-02  0.8537496E-01
          1   -1    0    0  501    0  0.00000000000E+00  0.00000000000E+00  0.84898430298E+03  0.84898430298E+03  0.00000000000E+00 0. -1.
         -1   -1    0    0    0  501 -0.00000000000E+00 -0.00000000000E+00 -0.13672240791E+04  0.13672240791E+04  0.00000000000E+00 0.  1.
         23    2    1    2    0    0 -0.24108760461E+03  0.32058073000E+03  0.60123367844E+03  0.72818169502E+03  0.88720952084E+02 0.  0.
        254    2    1    2    0    0  0.24108760461E+03 -0.32058073000E+03 -0.11194734546E+04  0.14880266871E+04  0.89448720976E+03 0.  0.
         23    2    4    4    0    0  0.35813301102E+03 -0.48513983681E+03 -0.38580860221E+03  0.72176409611E+03  0.92060947479E+02 0.  0.
         23    2    4    4    0    0 -0.11704540642E+03  0.16455910681E+03 -0.73366485238E+03  0.76626259098E+03  0.90082828090E+02 0.  0.
         11    1    3    3    0    0 -0.40700439569E+02  0.16981530310E+02  0.41049089894E+02  0.60248866661E+02  0.00000000000E+00 0.  1.
        -11    1    3    3    0    0 -0.20038716504E+03  0.30359919969E+03  0.56018458854E+03  0.66793282836E+03  0.00000000000E+00 0. -1.
          3    1    5    5  502    0  0.19735718488E+03 -0.20601830663E+03 -0.21444631461E+03  0.35690422096E+03  0.00000000000E+00 0. -1.
          3    1    6    6  503    0 -0.31098953006E+02  0.20617939118E+02 -0.50268301446E+02  0.62603086360E+02  0.00000000000E+00 0. -1.
         -3    1    5    5    0  502  0.16077582615E+03 -0.27912153018E+03 -0.17136228759E+03  0.36485987515E+03  0.00000000000E+00 0.  1.
         -3    1    6    6    0  503 -0.85946453411E+02  0.14394116770E+03 -0.68339655094E+03  0.70365950462E+03  0.00000000000E+00 0.  1.
<mgrwt>
<rscale>  0 0.21547638E+04</rscale>
<asrwt>0</asrwt>
<pdfrwt beam="1">  1        1 0.13061297E+00 0.21547638E+04</pdfrwt>
<pdfrwt beam="2">  1       -1 0.21034217E+00 0.21547638E+04</pdfrwt>
<totfact> 0.23485887E+00</totfact>
</mgrwt>
</event>
<event>
12    1  0.4967442E-008  0.1610058E+04  0.7818608E-02  0.8814392E-01
         -1   -1    0    0    0  501 -0.00000000000E+00  0.00000000000E+00  0.35171999506E+03  0.35171999506E+03  0.00000000000E+00 0.  1.
          1   -1    0    0  501    0  0.00000000000E+00 -0.00000000000E+00 -0.18425794359E+04  0.18425794359E+04  0.00000000000E+00 0. -1.
         23    2    1    2    0    0 -0.24334916878E+03 -0.24963919768E+03 -0.11207735668E+04  0.11772478226E+04  0.90777204107E+02 0.  0.
        254    2    1    2    0    0  0.24334916878E+03  0.24963919768E+03 -0.37008587405E+03  0.10170516084E+04  0.88084724726E+03 0.  0.
         23    2    4    4    0    0  0.34375133733E+03 -0.89192608648E+02  0.13652067917E+03  0.39251071103E+03  0.96469990540E+02 0.  0.
         23    2    4    4    0    0 -0.10040216856E+03  0.33883180633E+03 -0.50660655322E+03  0.62454089736E+03  0.92268869531E+02 0.  0.
         11    1    3    3    0    0 -0.21734193232E+03 -0.24993768616E+03 -0.99077290065E+03  0.10446709066E+04  0.00000000000E+00 0. -1.
        -11    1    3    3    0    0 -0.26007236461E+02  0.29848848165E+00 -0.13000066618E+03  0.13257691598E+03  0.00000000000E+00 0.  1.
          2    1    5    5  502    0  0.21632375049E+03 -0.10339820905E+03  0.90994988658E+02  0.25645124804E+03  0.00000000000E+00 0. -1.
          1    1    6    6  503    0  0.15161053185E+02  0.17928414346E+02 -0.42889258890E+02  0.48895542770E+02  0.00000000000E+00 0.  1.
         -2    1    5    5    0  502  0.12742758684E+03  0.14205600405E+02  0.45525690512E+02  0.13605946298E+03  0.00000000000E+00 0.  1.
         -1    1    6    6    0  503 -0.11556322174E+03  0.32090339198E+03 -0.46371729433E+03  0.57564535459E+03  0.00000000000E+00 0. -1.
<mgrwt>
<rscale>  0 0.16100584E+04</rscale>
<asrwt>0</asrwt>
<pdfrwt beam="1">  1        1 0.28347376E+00 0.16100584E+04</pdfrwt>
<pdfrwt beam="2">  1       -1 0.54110768E-01 0.16100584E+04</pdfrwt>
<totfact> 0.12602985E+01</totfact>
</mgrwt>
</event>
<event>
12    1  0.4967442E-008  0.1397330E+04  0.7818608E-02  0.8955754E-01
         -1   -1    0    0    0  501 -0.00000000000E+00  0.00000000000E+00  0.48164695561E+03  0.48164695561E+03  0.00000000000E+00 0.  1.
          1   -1    0    0  501    0  0.00000000000E+00 -0.00000000000E+00 -0.10134655048E+04  0.10134655048E+04  0.00000000000E+00 0. -1.
         23    2    1    2    0    0  0.26409508070E+03 -0.27346923210E+03 -0.72176482134E+02  0.39759319646E+03  0.91319618595E+02 0.  0.
        254    2    1    2    0    0 -0.26409508070E+03  0.27346923210E+03 -0.45964206709E+03  0.10975192640E+04  0.92127415703E+03 0.  0.
         23    2    4    4    0    0 -0.42138382134E+02  0.31977489870E+03 -0.68614903578E+03  0.76384733750E+03  0.92901165795E+02 0.  0.
         23    2    4    4    0    0 -0.22195669857E+03 -0.46305666599E+02  0.22650696869E+03  0.33367192648E+03  0.92857723739E+02 0.  0.
         13    1    3    3    0    0  0.14071085889E+03 -0.83473878989E+02 -0.17466787615E+02  0.16453729958E+03  0.00000000000E+00 0.  1.
        -13    1    3    3    0    0  0.12338422181E+03 -0.18999535311E+03 -0.54709694519E+02  0.23305589688E+03  0.00000000000E+00 0. -1.
          4    1    5    5  502    0 -0.39207372532E+02  0.12049644221E+03 -0.18230177450E+03  0.22201474643E+03  0.00000000000E+00 0. -1.
          3    1    6    6  503    0 -0.16015717370E+02 -0.34839033689E+02  0.28746080682E+02  0.47922840336E+02  0.00000000000E+00 0. -1.
         -4    1    5    5    0  502 -0.29310096019E+01  0.19927845649E+03 -0.50384726129E+03  0.54183259107E+03  0.00000000000E+00 0.  1.
         -3    1    6    6    0  503 -0.20594098120E+03 -0.11466632910E+02  0.19776088801E+03  0.28574908615E+03  0.00000000000E+00 0.  1.
<mgrwt>
<rscale>  0 0.13973297E+04</rscale>
<asrwt>0</asrwt>
<pdfrwt beam="1">  1        1 0.15591777E+00 0.13973297E+04</pdfrwt>
<pdfrwt beam="2">  1       -1 0.74099532E-01 0.13973297E+04</pdfrwt>
<totfact> 0.26416627E+01</totfact>
</mgrwt>
</event>
<event>
12    1  0.4967442E-008  0.2122387E+04  0.7818608E-02  0.8551445E-01
         -1   -1    0    0    0  501 -0.00000000000E+00  0.00000000000E+00  0.91991290493E+03  0.91991290493E+03  0.00000000000E+00 0.  1.
          1   -1    0    0  501    0  0.00000000000E+00 -0.00000000000E+00 -0.12241717152E+04  0.12241717152E+04  0.00000000000E+00 0. -1.
         23    2    1    2    0    0 -0.75964495531E+03  0.41138740896E+03 -0.16587831205E+03  0.88457904470E+03  0.93082831640E+02 0.  0.
        254    2    1    2    0    0  0.75964495531E+03 -0.41138740896E+03 -0.13838049824E+03  0.12595055754E+04  0.90603811945E+03 0.  0.
         23    2    4    4    0    0 -0.19768480654E+03 -0.64971134059E+02 -0.59892425574E+02  0.23434440706E+03  0.89608411902E+02 0.  0.
         23    2    4    4    0    0  0.95732976185E+03 -0.34641627490E+03 -0.78488072668E+02  0.10251611684E+04  0.91162136648E+02 0.  0.
         13    1    3    3    0    0 -0.18542535523E+03  0.60425074243E+02 -0.54019540574E+02  0.20236566587E+03  0.00000000000E+00 0.  1.
        -13    1    3    3    0    0 -0.57421960008E+03  0.35096233472E+03 -0.11185877148E+03  0.68221337883E+03  0.00000000000E+00 0. -1.
          2    1    5    5  502    0 -0.19993944847E+03 -0.51722017170E+02 -0.69413265150E+02  0.21787416436E+03  0.00000000000E+00 0. -1.
          4    1    6    6  503    0  0.94241209782E+03 -0.32888795623E+03 -0.69908961798E+02  0.10005973780E+04  0.00000000000E+00 0. -1.
         -2    1    5    5    0  502  0.22546419325E+01 -0.13249116890E+02  0.95208395763E+01  0.16470242707E+02  0.00000000000E+00 0.  1.
         -4    1    6    6    0  503  0.14917664030E+02 -0.17528318676E+02 -0.85791108695E+01  0.24563790404E+02  0.00000000000E+00 0.  1.
<mgrwt>
<rscale>  0 0.21223867E+04</rscale>
<asrwt>0</asrwt>
<pdfrwt beam="1">  1        1 0.18833411E+00 0.21223867E+04</pdfrwt>
<pdfrwt beam="2">  1       -1 0.14152506E+00 0.21223867E+04</pdfrwt>
<totfact> 0.38371667E+00</totfact>
</mgrwt>
</event>
<event>
12    1  0.4967442E-008  0.2020149E+04  0.7818608E-02  0.8597258E-01
          2   -1    0    0  501    0  0.00000000000E+00  0.00000000000E+00  0.28761721859E+04  0.28761721859E+04  0.00000000000E+00 0. -1.
         -2   -1    0    0    0  501 -0.00000000000E+00 -0.00000000000E+00 -0.35472526214E+03  0.35472526214E+03  0.00000000000E+00 0.  1.
         23    2    1    2    0    0 -0.46004094604E+03 -0.34317371721E+03  0.10333416374E+03  0.59017178887E+03  0.90658252580E+02 0.  0.
        254    2    1    2    0    0  0.46004094604E+03  0.34317371721E+03  0.24181127600E+04  0.26407256592E+04  0.89261235406E+03 0.  0.
         23    2    4    4    0    0  0.37365872289E+03  0.58571253960E+03  0.21359164420E+04  0.22479197617E+04  0.91236986247E+02 0.  0.
         23    2    4    4    0    0  0.86382223151E+02 -0.24253882239E+03  0.28219631802E+03  0.39280589746E+03  0.91513618284E+02 0.  0.
         11    1    3    3    0    0 -0.33416118082E+03 -0.21141457862E+03  0.10019038744E+03  0.40791902696E+03  0.00000000000E+00 0.  1.
        -11    1    3    3    0    0 -0.12587976522E+03 -0.13175913859E+03  0.31437763012E+01  0.18225276191E+03  0.00000000000E+00 0. -1.
          2    1    5    5  502    0  0.37411089920E+03  0.56510764108E+03  0.20982296252E+04  0.22049655714E+04  0.00000000000E+00 0. -1.
          3    1    6    6  503    0  0.35150100637E+02 -0.55527106282E+02  0.13229006741E+03  0.14771408545E+03  0.00000000000E+00 0.  1.
         -2    1    5    5    0  502 -0.45217630645E+00  0.20604898524E+02  0.37686816773E+02  0.42954190309E+02  0.00000000000E+00 0.  1.
         -3    1    6    6    0  503  0.51232122513E+02 -0.18701171611E+03  0.14990625061E+03  0.24509181201E+03  0.00000000000E+00 0. -1.
<mgrwt>
<rscale>  0 0.20201494E+04</rscale>
<asrwt>0</asrwt>
<pdfrwt beam="1">  1        2 0.44248801E+00 0.20201494E+04</pdfrwt>
<pdfrwt beam="2">  1       -2 0.54573119E-01 0.20201494E+04</pdfrwt>
<totfact> 0.61006673E+00</totfact>
</mgrwt>
</event>
<event>
12    1  0.4967442E-008  0.1238228E+04  0.7818608E-02  0.9080039E-01
         -1   -1    0    0    0  501 -0.00000000000E+00  0.00000000000E+00  0.37980639096E+03  0.37980639096E+03  0.00000000000E+00 0.  1.
          1   -1    0    0  501    0  0.00000000000E+00 -0.00000000000E+00 -0.10092036621E+04  0.10092036621E+04  0.00000000000E+00 0. -1.
         23    2    1    2    0    0  0.21709702265E+03  0.95234633621E+02  0.26695961520E+02  0.25388090838E+03  0.86845199039E+02 0.  0.
        254    2    1    2    0    0 -0.21709702265E+03 -0.95234633621E+02 -0.65609323268E+03  0.11351291447E+04  0.89546585222E+03 0.  0.
         23    2    4    4    0    0  0.10929933796E+03  0.43319506184E+02 -0.74339553991E+03  0.75901628955E+03  0.98213411252E+02 0.  0.
         23    2    4    4    0    0 -0.32639636061E+03 -0.13855413980E+03  0.87302307238E+02  0.37611285514E+03  0.90040841159E+02 0.  0.
         13    1    3    3    0    0  0.54868283461E+02  0.46783359404E+02  0.42727128320E+02  0.83814191767E+02  0.00000000000E+00 0. -1.
        -13    1    3    3    0    0  0.16222873919E+03  0.48451274216E+02 -0.16031166799E+02  0.17006671662E+03  0.00000000000E+00 0.  1.
          2    1    5    5  502    0  0.77398528402E+02  0.43737848004E+02 -0.69737463037E+03  0.70301842553E+03  0.00000000000E+00 0. -1.
          4    1    6    6  503    0 -0.29287959193E+03 -0.98661385353E+02  0.95272923141E+02  0.32340292858E+03  0.00000000000E+00 0. -1.
         -2    1    5    5    0  502  0.31900809557E+02 -0.41834182053E+00 -0.46020909543E+02  0.55997864025E+02  0.00000000000E+00 0.  1.
         -4    1    6    6    0  503 -0.33516768681E+02 -0.39892754451E+02 -0.79706159025E+01  0.52709926564E+02  0.00000000000E+00 0.  1.
<mgrwt>
<rscale>  0 0.12382278E+04</rscale>
<asrwt>0</asrwt>
<pdfrwt beam="1">  1        1 0.15526210E+00 0.12382278E+04</pdfrwt>
<pdfrwt beam="2">  1       -1 0.58431753E-01 0.12382278E+04</pdfrwt>
<totfact> 0.43594459E+01</totfact>
</mgrwt>
</event>
<event>
12    1  0.4967442E-008  0.1604393E+04  0.7818608E-02  0.8817854E-01
          1   -1    0    0  501    0  0.00000000000E+00  0.00000000000E+00  0.22220405483E+04  0.22220405483E+04  0.00000000000E+00 0. -1.
         -1   -1    0    0    0  501 -0.00000000000E+00 -0.00000000000E+00 -0.28960745277E+03  0.28960745277E+03  0.00000000000E+00 0.  1.
         23    2    1    2    0    0 -0.11212504099E+03  0.50679050875E+03  0.43277804822E+03  0.68135824985E+03  0.86853791172E+02 0.  0.
        254    2    1    2    0    0  0.11212504099E+03 -0.50679050875E+03  0.14996550473E+04  0.18302897512E+04  0.91191373931E+03 0.  0.
         23    2    4    4    0    0  0.28435487917E+03  0.13512972981E+03  0.78227911113E+03  0.84806023586E+03  0.90154393945E+02 0.  0.
         23    2    4    4    0    0 -0.17222983817E+03 -0.64192023856E+03  0.71737593621E+03  0.98222951539E+03  0.91770786285E+02 0.  0.
         11    1    3    3    0    0 -0.24832055854E+02  0.20620840767E+02  0.28603074440E+02  0.43127554293E+02  0.00000000000E+00 0. -1.
        -11    1    3    3    0    0 -0.87292985140E+02  0.48616966798E+03  0.40417497379E+03  0.63823069556E+03  0.00000000000E+00 0.  1.
          4    1    5    5  502    0  0.13897156553E+03  0.17164607893E+02  0.35067483235E+03  0.37759840815E+03  0.00000000000E+00 0. -1.
          3    1    6    6  503    0 -0.14977402156E+03 -0.39670122753E+03  0.43278053538E+03  0.60589034755E+03  0.00000000000E+00 0. -1.
         -4    1    5    5    0  502  0.14538331364E+03  0.11796512192E+03  0.43160427878E+03  0.47046182771E+03  0.00000000000E+00 0.  1.
         -3    1    6    6    0  503 -0.22455816613E+02 -0.24521901104E+03  0.28459540083E+03  0.37633916784E+03  0.00000000000E+00 0.  1.
<mgrwt>
<rscale>  0 0.16043933E+04</rscale>
<asrwt>0</asrwt>
<pdfrwt beam="1">  1        1 0.34185238E+00 0.16043933E+04</pdfrwt>
<pdfrwt beam="2">  1       -1 0.44554994E-01 0.16043933E+04</pdfrwt>
<totfact> 0.10080441E+01</totfact>
</mgrwt>
</event>
<event>
12    1  0.4967442E-008  0.1473793E+04  0.7818608E-02  0.8902070E-01
         -2   -1    0    0    0  501 -0.00000000000E+00  0.00000000000E+00  0.30148037387E+03  0.30148037387E+03  0.00000000000E+00 0.  1.
          2   -1    0    0  501    0  0.00000000000E+00 -0.00000000000E+00 -0.18011664338E+04  0.18011664338E+04  0.00000000000E+00 0. -1.
         23    2    1    2    0    0 -0.28299846754E+03 -0.14161022306E+03  0.99074529325E+00  0.32931173971E+03  0.91124378915E+02 0.  0.
        254    2    1    2    0    0  0.28299846754E+03  0.14161022306E+03 -0.15006768052E+04  0.17733350679E+04  0.89024985346E+03 0.  0.
         23    2    4    4    0    0  0.28629485394E+03 -0.33371390946E+03 -0.58045029393E+03  0.73371366974E+03  0.89908223629E+02 0.  0.
         23    2    4    4    0    0 -0.32963864053E+01  0.47532413252E+03 -0.92022651125E+03  0.10396213982E+04  0.89732504805E+02 0.  0.
         11    1    3    3    0    0 -0.32149720240E+02 -0.50037723148E+02 -0.16430369140E+02  0.61703608318E+02  0.00000000000E+00 0. -1.
        -11    1    3    3    0    0 -0.25084874730E+03 -0.91572499915E+02  0.17421114433E+02  0.26760813140E+03  0.00000000000E+00 0.  1.
          2    1    5    5  502    0  0.78039470097E+02 -0.56420931798E+02 -0.81919255076E+02  0.12642881313E+03  0.00000000000E+00 0. -1.
          3    1    6    6  503    0 -0.24518978722E+02  0.68133466695E+02 -0.18898671553E+03  0.20238411066E+03  0.00000000000E+00 0. -1.
         -2    1    5    5    0  502  0.20825538385E+03 -0.27729297766E+03 -0.49853103886E+03  0.60728485661E+03  0.00000000000E+00 0.  1.
         -3    1    6    6    0  503  0.21222592317E+02  0.40719066583E+03 -0.73123979572E+03  0.83723728751E+03  0.00000000000E+00 0.  1.
<mgrwt>
<rscale>  0 0.14737928E+04</rscale>
<asrwt>0</asrwt>
<pdfrwt beam="1">  1        2 0.27710252E+00 0.14737928E+04</pdfrwt>
<pdfrwt beam="2">  1       -2 0.46381597E-01 0.14737928E+04</pdfrwt>
<totfact> 0.36759706E+01</totfact>
</mgrwt>
</event>
<event>
12    1  0.4967442E-008  0.1911501E+04  0.7818608E-02  0.8649153E-01
          3   -1    0    0  501    0  0.00000000000E+00  0.00000000000E+00  0.33314500210E+03  0.33314500210E+03  0.00000000000E+00 0.  1.
         -3   -1    0    0    0  501 -0.00000000000E+00 -0.00000000000E+00 -0.27419258749E+04  0.27419258749E+04  0.00000000000E+00 0. -1.
         23    2    1    2    0    0 -0.79338442072E+02 -0.53501961112E+03 -0.13134480202E+03  0.56405993287E+03  0.91496328791E+02 0.  0.
        254    2    1    2    0    0  0.79338442072E+02  0.53501961112E+03 -0.22774360707E+04  0.25110109441E+04  0.90880159128E+03 0.  0.
         23    2    4    4    0    0  0.45889344554E+03  0.31157086860E+03 -0.16149110235E+04  0.17100315623E+04  0.92794017091E+02 0.  0.
         23    2    4    4    0    0 -0.37955500347E+03  0.22344874252E+03 -0.66252504721E+03  0.80097938179E+03  0.92936487327E+02 0.  0.
         13    1    3    3    0    0 -0.48807824578E+02 -0.47353378672E+03 -0.91725709027E+02  0.48479898576E+03  0.00000000000E+00 0.  1.
        -13    1    3    3    0    0 -0.30530617494E+02 -0.61485824402E+02 -0.39619092989E+02  0.79260947106E+02  0.00000000000E+00 0. -1.
          4    1    5    5  502    0  0.46147611265E+03  0.30827631260E+03 -0.15752807910E+04  0.16701808459E+04  0.00000000000E+00 0. -1.
          3    1    6    6  503    0 -0.25036384694E+03  0.11639853534E+03 -0.47448830184E+03  0.54897160534E+03  0.00000000000E+00 0. -1.
         -4    1    5    5    0  502 -0.25826671048E+01  0.32945559988E+01 -0.39630232478E+02  0.39850716366E+02  0.00000000000E+00 0.  1.
         -3    1    6    6    0  503 -0.12919115653E+03  0.10705020717E+03 -0.18803674537E+03  0.25200777645E+03  0.00000000000E+00 0.  1.
<mgrwt>
<rscale>  0 0.19115009E+04</rscale>
<asrwt>0</asrwt>
<pdfrwt beam="1">  1        3 0.51253077E-01 0.19115009E+04</pdfrwt>
<pdfrwt beam="2">  1       -3 0.42183475E+00 0.19115009E+04</pdfrwt>
<totfact> 0.74351761E-02</totfact>
</mgrwt>
</event>
<event>
12    1  0.4967442E-008  0.2244339E+04  0.7818608E-02  0.8500196E-01
         -2   -1    0    0    0  501 -0.00000000000E+00  0.00000000000E+00  0.62939669374E+03  0.62939669374E+03  0.00000000000E+00 0.  1.
          2   -1    0    0  501    0  0.00000000000E+00 -0.00000000000E+00 -0.20007490088E+04  0.20007490088E+04  0.00000000000E+00 0. -1.
         23    2    1    2    0    0  0.82969043993E+03  0.39358092372E+03 -0.31719062249E+03  0.97579183631E+03  0.90926603231E+02 0.  0.
        254    2    1    2    0    0 -0.82969043993E+03 -0.39358092372E+03 -0.10541616926E+04  0.16543538663E+04  0.88449854213E+03 0.  0.
         23    2    4    4    0    0  0.83583187874E+02 -0.21401779926E+03 -0.21421124196E+01  0.24683138214E+03  0.90174136355E+02 0.  0.
         23    2    4    4    0    0 -0.91327362781E+03 -0.17956312446E+03 -0.10520195802E+04  0.14075224841E+04  0.89792601648E+02 0.  0.
         11    1    3    3    0    0  0.82259363459E+03  0.38490610536E+03 -0.30235782766E+03  0.95720073838E+03  0.00000000000E+00 0.  1.
        -11    1    3    3    0    0  0.70968053476E+01  0.86748183618E+01 -0.14832794831E+02  0.18591097930E+02  0.00000000000E+00 0. -1.
          4    1    5    5  502    0 -0.81363339580E+01 -0.39459977913E+02  0.25550750642E+02  0.47708810984E+02  0.00000000000E+00 0. -1.
          1    1    6    6  503    0 -0.20732361849E+03 -0.46177993379E+02 -0.18637765992E+03  0.28258117767E+03  0.00000000000E+00 0. -1.
         -4    1    5    5    0  502  0.91719521832E+02 -0.17455782135E+03 -0.27692863061E+02  0.19912257116E+03  0.00000000000E+00 0.  1.
         -1    1    6    6    0  503 -0.70595000932E+03 -0.13338513108E+03 -0.86564192026E+03  0.11249413065E+04  0.00000000000E+00 0.  1.
<mgrwt>
<rscale>  0 0.22443394E+04</rscale>
<asrwt>0</asrwt>
<pdfrwt beam="1">  1        2 0.30780754E+00 0.22443394E+04</pdfrwt>
<pdfrwt beam="2">  1       -2 0.96830260E-01 0.22443394E+04</pdfrwt>
<totfact> 0.54173438E+00</totfact>
</mgrwt>
</event>
<event>
12    1  0.4967442E-008  0.2179172E+04  0.7818608E-02  0.8527148E-01
          2   -1    0    0  501    0  0.00000000000E+00  0.00000000000E+00  0.98568041239E+03  0.98568041239E+03  0.00000000000E+00 0. -1.
         -2   -1    0    0    0  501 -0.00000000000E+00 -0.00000000000E+00 -0.12044446588E+04  0.12044446588E+04  0.00000000000E+00 0.  1.
         23    2    1    2    0    0 -0.76971524357E+03  0.39887031544E+03 -0.36505981472E+03  0.94514344251E+03  0.92023767977E+02 0.  0.
        254    2    1    2    0    0  0.76971524357E+03 -0.39887031544E+03  0.14629556830E+03  0.12449816287E+04  0.88148611887E+03 0.  0.
         23    2    4    4    0    0  0.35006720839E+03  0.25158049420E+03 -0.45129458586E+02  0.44329037897E+03  0.92897236796E+02 0.  0.
         23    2    4    4    0    0  0.41964803518E+03 -0.65045080964E+03  0.19142502689E+03  0.80169124973E+03  0.82913146010E+02 0.  0.
         11    1    3    3    0    0 -0.54940233930E+03  0.29933361175E+03 -0.30501157096E+03  0.69604281475E+03  0.00000000000E+00 0. -1.
        -11    1    3    3    0    0 -0.22031290427E+03  0.99536703691E+02 -0.60048243756E+02  0.24910062775E+03  0.00000000000E+00 0.  1.
          4    1    5    5  502    0  0.24994884017E+03  0.21726254320E+03 -0.59513315906E+02  0.33648071289E+03  0.00000000000E+00 0. -1.
          3    1    6    6  503    0  0.24300348781E+03 -0.32544915553E+03  0.68511053719E+02  0.41190000292E+03  0.00000000000E+00 0. -1.
         -4    1    5    5    0  502  0.10011836822E+03  0.34317951000E+02  0.14383857320E+02  0.10680966608E+03  0.00000000000E+00 0.  1.
         -3    1    6    6    0  503  0.17664454737E+03 -0.32500165411E+03  0.12291397317E+03  0.38979124681E+03  0.00000000000E+00 0.  1.
<mgrwt>
<rscale>  0 0.21791719E+04</rscale>
<asrwt>0</asrwt>
<pdfrwt beam="1">  1        2 0.15164314E+00 0.21791719E+04</pdfrwt>
<pdfrwt beam="2">  1       -2 0.18529918E+00 0.21791719E+04</pdfrwt>
<totfact> 0.39279553E+00</totfact>
</mgrwt>
</event>
<event>
12    1  0.4967442E-008  0.1778834E+04  0.7818608E-02  0.8717637E-01
         -2   -1    0    0    0  501 -0.00000000000E+00  0.00000000000E+00  0.18241245016E+04  0.18241245016E+04  0.00000000000E+00 0.  1.
          2   -1    0    0  501    0  0.00000000000E+00 -0.00000000000E+00 -0.43366718650E+03  0.43366718650E+03  0.00000000000E+00 0. -1.
         23    2    1    2    0    0 -0.24213064998E+03 -0.58841611294E+03  0.30456298536E+03  0.71101061800E+03  0.88975913778E+02 0.  0.
        254    2    1    2    0    0  0.24213064998E+03  0.58841611294E+03  0.10858943298E+04  0.15467810701E+04  0.89916873269E+03 0.  0.
         23    2    4    4    0    0  0.45976316604E+03  0.11996219726E+03  0.21420968002E+03  0.52932850733E+03  0.92356829952E+02 0.  0.
         23    2    4    4    0    0 -0.21763251606E+03  0.46845391568E+03  0.87168464976E+03  0.10174525628E+04  0.92534349138E+02 0.  0.
         11    1    3    3    0    0 -0.89066852290E+02 -0.26939224834E+03  0.17935471029E+03  0.33566828826E+03  0.00000000000E+00 0.  1.
        -11    1    3    3    0    0 -0.15306379769E+03 -0.31902386460E+03  0.12520827507E+03  0.37534232974E+03  0.00000000000E+00 0. -1.
          1    1    5    5  502    0  0.39056886268E+03  0.10076288976E+03  0.21589188486E+03  0.45750027584E+03  0.00000000000E+00 0. -1.
          3    1    6    6  503    0 -0.20847562457E+03  0.41358332290E+03  0.81869474081E+03  0.94062443603E+03  0.00000000000E+00 0. -1.
         -1    1    5    5    0  502  0.69194303359E+02  0.19199307498E+02 -0.16822048319E+01  0.71828231489E+02  0.00000000000E+00 0.  1.
         -3    1    6    6    0  503 -0.91568914916E+01  0.54870592778E+02  0.52989908943E+02  0.76828126773E+02  0.00000000000E+00 0.  1.
<mgrwt>
<rscale>  0 0.17788344E+04</rscale>
<asrwt>0</asrwt>
<pdfrwt beam="1">  1        2 0.66718030E-01 0.17788344E+04</pdfrwt>
<pdfrwt beam="2">  1       -2 0.28063453E+00 0.17788344E+04</pdfrwt>
<totfact> 0.28665025E+00</totfact>
</mgrwt>
</event>
<event>
12    1  0.4967442E-008  0.1467852E+04  0.7818608E-02  0.8906117E-01
         -1   -1    0    0    0  501 -0.00000000000E+00  0.00000000000E+00  0.19218540499E+03  0.19218540499E+03  0.00000000000E+00 0.  1.
          1   -1    0    0  501    0  0.00000000000E+00 -0.00000000000E+00 -0.28027503106E+04  0.28027503106E+04  0.00000000000E+00 0. -1.
         23    2    1    2    0    0  0.16606369053E+03  0.28079078495E+03 -0.18383021064E+03  0.38536991004E+03  0.91081320764E+02 0.  0.
        254    2    1    2    0    0 -0.16606369053E+03 -0.28079078495E+03 -0.24267346949E+04  0.26095658055E+04  0.90242550913E+03 0.  0.
         23    2    4    4    0    0 -0.49451265593E+03 -0.10109953756E+02 -0.10229646678E+04  0.11398418012E+04  0.90208880929E+02 0.  0.
         23    2    4    4    0    0  0.32844896539E+03 -0.27068083119E+03 -0.14037700271E+04  0.14697240043E+04  0.91496035418E+02 0.  0.
         13    1    3    3    0    0  0.12321187535E+03  0.24074267053E+03 -0.18331533759E+03  0.32671503277E+03  0.00000000000E+00 0.  1.
        -13    1    3    3    0    0  0.42851815183E+02  0.40048114422E+02 -0.51487304794E+00  0.58654877270E+02  0.00000000000E+00 0. -1.
          4    1    5    5  502    0 -0.10929355974E+03 -0.36414497956E+02 -0.27321717436E+03  0.29651091418E+03  0.00000000000E+00 0. -1.
          1    1    6    6  503    0  0.25700757785E+03 -0.15731879330E+03 -0.96767029992E+03  0.10135027909E+04  0.00000000000E+00 0. -1.
         -4    1    5    5    0  502 -0.38521909619E+03  0.26304544200E+02 -0.74974749342E+03  0.84333088702E+03  0.00000000000E+00 0.  1.
         -1    1    6    6    0  503  0.71441387547E+02 -0.11336203789E+03 -0.43609972722E+03  0.45622121342E+03  0.00000000000E+00 0.  1.
<mgrwt>
<rscale>  0 0.14678524E+04</rscale>
<asrwt>0</asrwt>
<pdfrwt beam="1">  1        1 0.43119233E+00 0.14678524E+04</pdfrwt>
<pdfrwt beam="2">  1       -1 0.29566987E-01 0.14678524E+04</pdfrwt>
<totfact> 0.84649444E+00</totfact>
</mgrwt>
</event>
<event>
12    1  0.4967442E-008  0.1475766E+04  0.7818608E-02  0.8900730E-01
          1   -1    0    0  501    0  0.00000000000E+00  0.00000000000E+00  0.10251964435E+04  0.10251964435E+04  0.00000000000E+00 0. -1.
         -1   -1    0    0    0  501 -0.00000000000E+00 -0.00000000000E+00 -0.53108984150E+03  0.53108984150E+03  0.00000000000E+00 0.  1.
         23    2    1    2    0    0 -0.10061032351E+03 -0.11502752892E+03  0.61674146336E+03  0.64216030221E+03  0.92984146465E+02 0.  0.
        254    2    1    2    0    0  0.10061032351E+03  0.11502752892E+03 -0.12263486139E+03  0.91412598277E+03  0.89287918194E+03 0.  0.
         23    2    4    4    0    0  0.24737070434E+03  0.16712034985E+03  0.31271204181E+03  0.44290231994E+03  0.96188186481E+02 0.  0.
         23    2    4    4    0    0 -0.14676038083E+03 -0.52092820922E+02 -0.43534690319E+03  0.47122366283E+03  0.90953520655E+02 0.  0.
         13    1    3    3    0    0 -0.10917730681E+03 -0.12308295795E+03  0.53952283544E+03  0.56405140618E+03  0.00000000000E+00 0. -1.
        -13    1    3    3    0    0  0.85669832972E+01  0.80554290230E+01  0.77218627926E+02  0.78108896026E+02  0.00000000000E+00 0.  1.
          2    1    5    5  502    0  0.69585258154E+02  0.52110983233E+02  0.35093857128E+02  0.93750954843E+02  0.00000000000E+00 0.  1.
          3    1    6    6  503    0 -0.12107027677E+03 -0.61304888371E+02 -0.41651519573E+03  0.43806530281E+03  0.00000000000E+00 0. -1.
         -2    1    5    5    0  502  0.17778544619E+03  0.11500936661E+03  0.27761818468E+03  0.34915136510E+03  0.00000000000E+00 0. -1.
         -3    1    6    6    0  503 -0.25690104058E+02  0.92120674491E+01 -0.18831707469E+02  0.33158360023E+02  0.00000000000E+00 0.  1.
<mgrwt>
<rscale>  0 0.14757661E+04</rscale>
<asrwt>0</asrwt>
<pdfrwt beam="1">  1        1 0.15772253E+00 0.14757661E+04</pdfrwt>
<pdfrwt beam="2">  1       -1 0.81706130E-01 0.14757661E+04</pdfrwt>
<totfact> 0.20905239E+01</totfact>
</mgrwt>
</event>
<event>
12    1  0.4967442E-008  0.1701686E+04  0.7818608E-02  0.8760403E-01
         -1   -1    0    0    0  501 -0.00000000000E+00  0.00000000000E+00  0.73287990594E+03  0.73287990594E+03  0.00000000000E+00 0.  1.
          1   -1    0    0  501    0  0.00000000000E+00 -0.00000000000E+00 -0.98779331069E+03  0.98779331069E+03  0.00000000000E+00 0. -1.
         23    2    1    2    0    0 -0.28173283712E+03 -0.39470543295E+03  0.11568003705E+03  0.50575079108E+03  0.85065982564E+02 0.  0.
        254    2    1    2    0    0  0.28173283712E+03  0.39470543295E+03 -0.37059344180E+03  0.12149224256E+04  0.10504909475E+04 0.  0.
         23    2    4    4    0    0 -0.16319194691E+03 -0.33117030776E+02 -0.53733051226E+03  0.57002794238E+03  0.92083801101E+02 0.  0.
         23    2    4    4    0    0  0.44492478403E+03  0.42782246373E+03  0.16673707046E+03  0.64489448317E+03  0.84246779475E+02 0.  0.
         11    1    3    3    0    0 -0.26349599536E+03 -0.39319894083E+03  0.11644032955E+03  0.48743604400E+03  0.00000000000E+00 0.  1.
        -11    1    3    3    0    0 -0.18236841761E+02 -0.15064921218E+01 -0.76029250427E+00  0.18314747080E+02  0.00000000000E+00 0. -1.
          2    1    5    5  502    0 -0.16068854012E+03 -0.53655783412E+02 -0.47065532824E+03  0.50021614130E+03  0.00000000000E+00 0. -1.
          3    1    6    6  503    0  0.44589617150E+03  0.41318630543E+03  0.16621332139E+03  0.63021677776E+03  0.00000000000E+00 0. -1.
         -2    1    5    5    0  502 -0.25034067855E+01  0.20538752636E+02 -0.66675184022E+02  0.69811801078E+02  0.00000000000E+00 0.  1.
         -3    1    6    6    0  503 -0.97138747580E+00  0.14636158294E+02  0.52374906995E+00  0.14677705418E+02  0.00000000000E+00 0.  1.
<mgrwt>
<rscale>  0 0.17016861E+04</rscale>
<asrwt>0</asrwt>
<pdfrwt beam="1">  1        1 0.15196820E+00 0.17016861E+04</pdfrwt>
<pdfrwt beam="2">  1       -1 0.11275075E+00 0.17016861E+04</pdfrwt>
<totfact> 0.10594059E+01</totfact>
</mgrwt>
</event>
<event>
12    1  0.4967442E-008  0.1564585E+04  0.7818608E-02  0.8842605E-01
         -1   -1    0    0    0  501 -0.00000000000E+00  0.00000000000E+00  0.18194883816E+04  0.18194883816E+04  0.00000000000E+00 0.  1.
          1   -1    0    0  501    0  0.00000000000E+00 -0.00000000000E+00 -0.33634822219E+03  0.33634822219E+03  0.00000000000E+00 0. -1.
         23    2    1    2    0    0  0.64505424987E+02 -0.51746684636E+03  0.44901206963E+03  0.69438662925E+03  0.92887379584E+02 0.  0.
        254    2    1    2    0    0 -0.64505424987E+02  0.51746684636E+03  0.10341280898E+04  0.14614499745E+04  0.89133732957E+03 0.  0.
         23    2    4    4    0    0 -0.14405322579E+03  0.51786809064E+03  0.11632948585E+04  0.12847683904E+04  0.91848777190E+02 0.  0.
         23    2    4    4    0    0  0.79547800800E+02 -0.40124428541E+00 -0.12916676875E+03  0.17668158417E+03  0.90577670684E+02 0.  0.
         13    1    3    3    0    0  0.56376662946E+02 -0.31136564037E+03  0.21559397547E+03  0.38289378735E+03  0.00000000000E+00 0. -1.
        -13    1    3    3    0    0  0.81287620410E+01 -0.20610120598E+03  0.23341809415E+03  0.31149284190E+03  0.00000000000E+00 0.  1.
          1    1    5    5  502    0 -0.12139534062E+03  0.30384904101E+03  0.76525326943E+03  0.83227016937E+03  0.00000000000E+00 0. -1.
          3    1    6    6  503    0  0.90650702672E+02 -0.22456803144E+02 -0.86024850068E+02  0.12697296063E+03  0.00000000000E+00 0. -1.
         -1    1    5    5    0  502 -0.22657885167E+02  0.21401904963E+03  0.39804158910E+03  0.45249822101E+03  0.00000000000E+00 0.  1.
         -3    1    6    6    0  503 -0.11102901873E+02  0.22055558859E+02 -0.43141918678E+02  0.49708623535E+02  0.00000000000E+00 0.  1.
<mgrwt>
<rscale>  0 0.15645852E+04</rscale>
<asrwt>0</asrwt>
<pdfrwt beam="1">  1        1 0.51745881E-01 0.15645852E+04</pdfrwt>
<pdfrwt beam="2">  1       -1 0.27992128E+00 0.15645852E+04</pdfrwt>
<totfact> 0.32406427E+00</totfact>
</mgrwt>
</event>
<event>
12    1  0.4967442E-008  0.2142497E+04  0.7818608E-02  0.8542751E-01
          2   -1    0    0  501    0  0.00000000000E+00  0.00000000000E+00  0.20539085049E+04  0.20539085049E+04  0.00000000000E+00 0. -1.
         -2   -1    0    0    0  501 -0.00000000000E+00 -0.00000000000E+00 -0.55872638600E+03  0.55872638600E+03  0.00000000000E+00 0.  1.
         23    2    1    2    0    0  0.41611718618E+03  0.58991493810E+03  0.12208021694E+04  0.14211424514E+04  0.90193035042E+02 0.  0.
        254    2    1    2    0    0 -0.41611718618E+03 -0.58991493810E+03  0.27437994951E+03  0.11914924395E+04  0.90731291728E+03 0.  0.
         23    2    4    4    0    0 -0.56293099758E+03 -0.33259311957E+03  0.48371474284E+03  0.81852137537E+03  0.92129247687E+02 0.  0.
         23    2    4    4    0    0  0.14681381140E+03 -0.25732181854E+03 -0.20933479333E+03  0.37297106413E+03  0.86703779984E+02 0.  0.
         11    1    3    3    0    0  0.19195411490E+03  0.28865931495E+03  0.50034352056E+03  0.60869879325E+03  0.00000000000E+00 0.  1.
        -11    1    3    3    0    0  0.22416307128E+03  0.30125562316E+03  0.72045864887E+03  0.81244365820E+03  0.00000000000E+00 0. -1.
          3    1    5    5  502    0 -0.21160212392E+03 -0.14023532354E+03  0.13535620942E+03  0.28768508520E+03  0.00000000000E+00 0. -1.
          3    1    6    6  503    0  0.14073260348E+03 -0.17945634544E+03 -0.17590275996E+03  0.28801393466E+03  0.00000000000E+00 0. -1.
         -3    1    5    5    0  502 -0.35132887366E+03 -0.19235779602E+03  0.34835853342E+03  0.53083629017E+03  0.00000000000E+00 0.  1.
         -3    1    6    6    0  503  0.60812079176E+01 -0.77865473100E+02 -0.33432033375E+02  0.84957129462E+02  0.00000000000E+00 0.  1.
<mgrwt>
<rscale>  0 0.21424966E+04</rscale>
<asrwt>0</asrwt>
<pdfrwt beam="1">  1        2 0.31598592E+00 0.21424966E+04</pdfrwt>
<pdfrwt beam="2">  1       -2 0.85957906E-01 0.21424966E+04</pdfrwt>
<totfact> 0.67240359E+00</totfact>
</mgrwt>
</event>
<event>
12    1  0.4967442E-008  0.2660572E+04  0.7818608E-02  0.8347912E-01
         -1   -1    0    0    0  501 -0.00000000000E+00  0.00000000000E+00  0.61791976351E+03  0.61791976351E+03  0.00000000000E+00 0.  1.
          1   -1    0    0  501    0  0.00000000000E+00 -0.00000000000E+00 -0.28639009262E+04  0.28639009262E+04  0.00000000000E+00 0. -1.
         23    2    1    2    0    0  0.43003381993E+03 -0.10913773529E+04 -0.10371718250E+04  0.15680093004E+04  0.83031070733E+02 0.  0.
        254    2    1    2    0    0 -0.43003381993E+03  0.10913773529E+04 -0.12088093377E+04  0.19138113894E+04  0.90852650298E+03 0.  0.
         23    2    4    4    0    0  0.15585499687E+03  0.76126362947E+03 -0.48272117207E+03  0.91991626637E+03  0.97021201524E+02 0.  0.
         23    2    4    4    0    0 -0.58588881680E+03  0.33011372340E+03 -0.72608816558E+03  0.99389512300E+03  0.91557169582E+02 0.  0.
         13    1    3    3    0    0  0.35459598567E+03 -0.92252550699E+03 -0.83317078202E+03  0.12926581822E+04  0.00000000000E+00 0.  1.
        -13    1    3    3    0    0  0.75437834261E+02 -0.16885184588E+03 -0.20400104302E+03  0.27535111812E+03  0.00000000000E+00 0. -1.
          1    1    5    5  502    0  0.15425208759E+03  0.53436712653E+03 -0.34249407831E+03  0.65318001051E+03  0.00000000000E+00 0. -1.
          1    1    6    6  503    0 -0.44513737591E+03  0.29223559798E+03 -0.58448712021E+03  0.79067953170E+03  0.00000000000E+00 0. -1.
         -1    1    5    5    0  502  0.16029092792E+01  0.22689650294E+03 -0.14022709376E+03  0.26673625586E+03  0.00000000000E+00 0.  1.
         -1    1    6    6    0  503 -0.14075144089E+03  0.37878125424E+02 -0.14160104537E+03  0.20321559130E+03  0.00000000000E+00 0.  1.
<mgrwt>
<rscale>  0 0.26605721E+04</rscale>
<asrwt>0</asrwt>
<pdfrwt beam="1">  1        1 0.44060014E+00 0.26605721E+04</pdfrwt>
<pdfrwt beam="2">  1       -1 0.95064580E-01 0.26605721E+04</pdfrwt>
<totfact> 0.70225850E-01</totfact>
</mgrwt>
</event>
<event>
12    1  0.4967442E-008  0.2390683E+04  0.7818608E-02  0.8443000E-01
         -2   -1    0    0    0  501 -0.00000000000E+00  0.00000000000E+00  0.79922575538E+03  0.79922575538E+03  0.00000000000E+00 0.  1.
          2   -1    0    0  501    0  0.00000000000E+00 -0.00000000000E+00 -0.17877825574E+04  0.17877825574E+04  0.00000000000E+00 0. -1.
         23    2    1    2    0    0 -0.18620169776E+02 -0.85306501177E+03  0.18686670753E+03  0.87835198514E+03  0.92284442810E+02 0.  0.
        254    2    1    2    0    0  0.18620169776E+02  0.85306501177E+03 -0.11754235095E+04  0.17086563276E+04  0.89989965782E+03 0.  0.
         23    2    4    4    0    0  0.82787561043E+02  0.69040636337E+02  0.12275288646E+03  0.18794057159E+03  0.92913925697E+02 0.  0.
         23    2    4    4    0    0 -0.64167391266E+02  0.78402437543E+03 -0.12981763960E+04  0.15207157560E+04  0.92210520833E+02 0.  0.
         11    1    3    3    0    0  0.13699215637E+02 -0.66774827852E+03  0.17182873634E+03  0.68963798229E+03  0.00000000000E+00 0.  1.
        -11    1    3    3    0    0 -0.32319385413E+02 -0.18531673324E+03  0.15037971186E+02  0.18871400285E+03  0.00000000000E+00 0. -1.
          3    1    5    5  502    0  0.96296023176E+02  0.47627894998E+02  0.66745031439E+02  0.12647624158E+03  0.00000000000E+00 0. -1.
          3    1    6    6  503    0 -0.58661874265E+02  0.22104970984E+03 -0.39510645611E+03  0.45652305678E+03  0.00000000000E+00 0. -1.
         -3    1    5    5    0  502 -0.13508462133E+02  0.21412741339E+02  0.56007855019E+02  0.61464330019E+02  0.00000000000E+00 0.  1.
         -3    1    6    6    0  503 -0.55055170014E+01  0.56297466559E+03 -0.90306993988E+03  0.10641926992E+04  0.00000000000E+00 0.  1.
<mgrwt>
<rscale>  0 0.23906835E+04</rscale>
<asrwt>0</asrwt>
<pdfrwt beam="1">  1        2 0.27504347E+00 0.23906835E+04</pdfrwt>
<pdfrwt beam="2">  1       -2 0.12295781E+00 0.23906835E+04</pdfrwt>
<totfact> 0.39417213E+00</totfact>
</mgrwt>
</event>
<event>
12    1  0.4967442E-008  0.1255430E+04  0.7818608E-02  0.9065676E-01
         -2   -1    0    0    0  501 -0.00000000000E+00  0.00000000000E+00  0.63572687220E+03  0.63572687220E+03  0.00000000000E+00 0.  1.
          2   -1    0    0  501    0  0.00000000000E+00 -0.00000000000E+00 -0.61980405088E+03  0.61980405088E+03  0.00000000000E+00 0. -1.
         23    2    1    2    0    0  0.24565975152E+03 -0.48441602139E+01 -0.15735149566E+03  0.30621370095E+03  0.92925551161E+02 0.  0.
        254    2    1    2    0    0 -0.24565975152E+03  0.48441602139E+01  0.17327431699E+03  0.94931722213E+03  0.90044823277E+03 0.  0.
         23    2    4    4    0    0  0.28703594934E+03 -0.33201294453E+02 -0.12894422072E+03  0.32905471992E+03  0.90324052603E+02 0.  0.
         23    2    4    4    0    0 -0.53269570086E+03  0.38045454667E+02  0.30221853771E+03  0.62026250221E+03  0.90428760813E+02 0.  0.
         13    1    3    3    0    0 -0.32865095643E+01 -0.43693817846E+01 -0.22367913930E+02  0.23026424297E+02  0.00000000000E+00 0.  1.
        -13    1    3    3    0    0  0.24894626108E+03 -0.47477842930E+00 -0.13498358173E+03  0.28318727665E+03  0.00000000000E+00 0. -1.
          4    1    5    5  502    0  0.16498196082E+03 -0.62943283905E+02 -0.84910923607E+02  0.19593562548E+03  0.00000000000E+00 0. -1.
          1    1    6    6  503    0 -0.24747530622E+03  0.62263126107E+02  0.15127407989E+03  0.29665564432E+03  0.00000000000E+00 0. -1.
         -4    1    5    5    0  502  0.12205398851E+03  0.29741989452E+02 -0.44033297112E+02  0.13311909444E+03  0.00000000000E+00 0.  1.
         -1    1    6    6    0  503 -0.28522039464E+03 -0.24217671440E+02  0.15094445782E+03  0.32360685789E+03  0.00000000000E+00 0.  1.
<mgrwt>
<rscale>  0 0.12554300E+04</rscale>
<asrwt>0</asrwt>
<pdfrwt beam="1">  1        2 0.95354469E-01 0.12554300E+04</pdfrwt>
<pdfrwt beam="2">  1       -2 0.97804134E-01 0.12554300E+04</pdfrwt>
<totfact> 0.40811830E+01</totfact>
</mgrwt>
</event>
<event>
12    1  0.4967442E-008  0.1340816E+04  0.7818608E-02  0.8997810E-01
         -2   -1    0    0    0  501 -0.00000000000E+00  0.00000000000E+00  0.46530884281E+03  0.46530884281E+03  0.00000000000E+00 0. -1.
          2   -1    0    0  501    0  0.00000000000E+00 -0.00000000000E+00 -0.96591020664E+03  0.96591020664E+03  0.00000000000E+00 0.  1.
         23    2    1    2    0    0 -0.46620435353E+02  0.11555493276E+03 -0.49375788759E+03  0.51714722387E+03  0.90099900787E+02 0.  0.
        254    2    1    2    0    0  0.46620435353E+02 -0.11555493276E+03 -0.68434762392E+01  0.91407182558E+03  0.90551314826E+03 0.  0.
         23    2    4    4    0    0 -0.17157810600E+03  0.26847025059E+03 -0.23722781793E+03  0.40741029589E+03  0.90502981674E+02 0.  0.
         23    2    4    4    0    0  0.21819854135E+03 -0.38402518335E+03  0.23038434169E+03  0.50666152969E+03  0.92428436495E+02 0.  0.
         13    1    3    3    0    0 -0.68554665942E+02  0.10202718974E+03 -0.44878457838E+03  0.46531375164E+03  0.00000000000E+00 0.  1.
        -13    1    3    3    0    0  0.21934230588E+02  0.13527743017E+02 -0.44973309209E+02  0.51833472234E+02  0.00000000000E+00 0. -1.
          1    1    5    5  502    0 -0.60483880275E+02  0.54589243179E+02 -0.10370603750E+03  0.13188338583E+03  0.00000000000E+00 0. -1.
          1    1    6    6  503    0  0.72826597719E+02 -0.72825968660E+02  0.85575551249E+02  0.13390485435E+03  0.00000000000E+00 0. -1.
         -1    1    5    5    0  502 -0.11109422572E+03  0.21388100741E+03 -0.13352178042E+03  0.27552691006E+03  0.00000000000E+00 0.  1.
         -1    1    6    6    0  503  0.14537194363E+03 -0.31119921469E+03  0.14480879044E+03  0.37275667534E+03  0.00000000000E+00 0.  1.
<mgrwt>
<rscale>  0 0.13408155E+04</rscale>
<asrwt>0</asrwt>
<pdfrwt beam="1">  1        2 0.14860157E+00 0.13408155E+04</pdfrwt>
<pdfrwt beam="2">  1       -2 0.71585976E-01 0.13408155E+04</pdfrwt>
<totfact> 0.45861425E+01</totfact>
</mgrwt>
</event>
<event>
12    1  0.4967442E-008  0.1303184E+04  0.7818608E-02  0.9027044E-01
          2   -1    0    0  501    0  0.00000000000E+00  0.00000000000E+00  0.29362656619E+04  0.29362656619E+04  0.00000000000E+00 0. -1.
         -2   -1    0    0    0  501 -0.00000000000E+00 -0.00000000000E+00 -0.14459586235E+03  0.14459586235E+03  0.00000000000E+00 0.  1.
         23    2    1    2    0    0 -0.65880800487E+01  0.32975570734E+03  0.58416759025E+03  0.67663589860E+03  0.88329703056E+02 0.  0.
        254    2    1    2    0    0  0.65880800487E+01 -0.32975570734E+03  0.22075022092E+04  0.24042256256E+04  0.89356176377E+03 0.  0.
         23    2    4    4    0    0 -0.12212791030E+03 -0.14377887660E+03  0.29179912707E+02  0.21233978246E+03  0.93000667078E+02 0.  0.
         23    2    4    4    0    0  0.12871599035E+03 -0.18597683074E+03  0.21783222965E+04  0.21918858432E+04  0.90112896145E+02 0.  0.
         13    1    3    3    0    0 -0.67740100732E+01  0.66584816400E+01  0.61040351144E+02  0.61774971129E+02  0.00000000000E+00 0. -1.
        -13    1    3    3    0    0  0.18593002444E+00  0.32309722570E+03  0.52312723911E+03  0.61486092747E+03  0.00000000000E+00 0.  1.
          2    1    5    5  502    0 -0.80650788896E+02 -0.88035863115E+02  0.63076183762E+02  0.13503135896E+03  0.00000000000E+00 0.  1.
          3    1    6    6  503    0  0.12042802452E+03 -0.99925604025E+02  0.13325966326E+04  0.13417532637E+04  0.00000000000E+00 0. -1.
         -2    1    5    5    0  502 -0.41477121408E+02 -0.55743013484E+02 -0.33896271054E+02  0.77308423499E+02  0.00000000000E+00 0. -1.
         -3    1    6    6    0  503  0.82879658324E+01 -0.86051226716E+02  0.84572566393E+03  0.85013257944E+03  0.00000000000E+00 0.  1.
<mgrwt>
<rscale>  0 0.13031836E+04</rscale>
<asrwt>0</asrwt>
<pdfrwt beam="1">  1        2 0.45173313E+00 0.13031836E+04</pdfrwt>
<pdfrwt beam="2">  1       -2 0.22245520E-01 0.13031836E+04</pdfrwt>
<totfact> 0.33442332E+01</totfact>
</mgrwt>
</event>
<event>
12    1  0.4967442E-008  0.2245444E+04  0.7818608E-02  0.8499748E-01
          1   -1    0    0  501    0  0.00000000000E+00  0.00000000000E+00  0.22478254816E+04  0.22478254816E+04  0.00000000000E+00 0. -1.
         -1   -1    0    0    0  501 -0.00000000000E+00 -0.00000000000E+00 -0.56076633708E+03  0.56076633708E+03  0.00000000000E+00 0.  1.
         23    2    1    2    0    0  0.33109549992E+03  0.78028649436E+03  0.11664367328E+04  0.14447668588E+04  0.91133864616E+02 0.  0.
        254    2    1    2    0    0 -0.33109549992E+03 -0.78028649436E+03  0.52062241175E+03  0.13638249599E+04  0.93300567113E+03 0.  0.
         23    2    4    4    0    0 -0.53979191082E+03 -0.60150310533E+03  0.65595996305E+03  0.10445928699E+04  0.87803746635E+02 0.  0.
         23    2    4    4    0    0  0.20869641090E+03 -0.17878338902E+03 -0.13533755130E+03  0.31923209007E+03  0.89862018832E+02 0.  0.
         11    1    3    3    0    0  0.54133305934E+02  0.67832779215E+02  0.95879656298E+02  0.12932366079E+03  0.00000000000E+00 0.  1.
        -11    1    3    3    0    0  0.27696219399E+03  0.71245371514E+03  0.10705570765E+04  0.13154431980E+04  0.00000000000E+00 0. -1.
          1    1    5    5  502    0 -0.14713316766E+03 -0.11236553540E+03  0.16620511690E+03  0.24879373676E+03  0.00000000000E+00 0. -1.
          3    1    6    6  503    0  0.16687197347E+03 -0.13722650719E+03 -0.61282662414E+02  0.22457278223E+03  0.00000000000E+00 0. -1.
         -1    1    5    5    0  502 -0.39265874316E+03 -0.48913756994E+03  0.48975484615E+03  0.79579913309E+03  0.00000000000E+00 0.  1.
         -3    1    6    6    0  503  0.41824437425E+02 -0.41556881831E+02 -0.74054888881E+02  0.94659307840E+02  0.00000000000E+00 0.  1.
<mgrwt>
<rscale>  0 0.22454442E+04</rscale>
<asrwt>0</asrwt>
<pdfrwt beam="1">  1        1 0.34581930E+00 0.22454442E+04</pdfrwt>
<pdfrwt beam="2">  1       -1 0.86271745E-01 0.22454442E+04</pdfrwt>
<totfact> 0.24320410E+00</totfact>
</mgrwt>
</event>
<event>
12    1  0.5004236E-008  0.1912902E+04  0.7818608E-02  0.8648461E-01
          1   -1    0    0  501    0  0.00000000000E+00  0.00000000000E+00  0.10850085048E+04  0.10850085048E+04  0.00000000000E+00 0. -1.
         -1   -1    0    0    0  501 -0.00000000000E+00 -0.00000000000E+00 -0.84312550754E+03  0.84312550754E+03  0.00000000000E+00 0.  1.
         23    2    1    2    0    0 -0.73043791563E+03 -0.11074462722E+03  0.12957960564E+03  0.75554078076E+03  0.90813413893E+02 0.  0.
        254    2    1    2    0    0  0.73043791563E+03  0.11074462722E+03  0.11230339165E+03  0.11725932316E+04  0.90363649441E+03 0.  0.
         23    2    4    4    0    0 -0.19322169250E+03 -0.36456233800E+02 -0.45134820852E+02  0.21992839575E+03  0.87565220087E+02 0.  0.
         23    2    4    4    0    0  0.92365960813E+03  0.14720086102E+03  0.15743821250E+03  0.95266483587E+03  0.89265522841E+02 0.  0.
         11    1    3    3    0    0 -0.55119809991E+02 -0.19892307294E+02 -0.11424026816E+02  0.59702644260E+02  0.00000000000E+00 0.  1.
        -11    1    3    3    0    0 -0.67531810564E+03 -0.90852319928E+02  0.14100363246E+03  0.69583813650E+03  0.00000000000E+00 0. -1.
          1    1    5    5  502    0 -0.20011885257E+03 -0.30298569001E+02 -0.33639262117E+02  0.20517592059E+03  0.00000000000E+00 0. -1.
          3    1    6    6  503    0  0.84514247219E+03  0.14529775962E+03  0.12083089550E+03  0.86601232240E+03  0.00000000000E+00 0. -1.
         -1    1    5    5    0  502  0.68971600626E+01 -0.61576647988E+01 -0.11495558736E+02  0.14752475160E+02  0.00000000000E+00 0.  1.
         -3    1    6    6    0  503  0.78517135941E+02  0.19031013978E+01  0.36607317006E+02  0.86652513464E+02  0.00000000000E+00 0.  1.
<mgrwt>
<rscale>  0 0.19129018E+04</rscale>
<asrwt>0</asrwt>
<pdfrwt beam="1">  1        1 0.16692439E+00 0.19129018E+04</pdfrwt>
<pdfrwt beam="2">  1       -1 0.12971162E+00 0.19129018E+04</pdfrwt>
<totfact> 0.62037538E+00</totfact>
</mgrwt>
</event>
<event>
12    1  0.4967442E-008  0.2289805E+04  0.7818608E-02  0.8481952E-01
          2   -1    0    0  501    0  0.00000000000E+00  0.00000000000E+00  0.34050448223E+04  0.34050448223E+04  0.00000000000E+00 0. -1.
         -2   -1    0    0    0  501 -0.00000000000E+00 -0.00000000000E+00 -0.38495886879E+03  0.38495886879E+03  0.00000000000E+00 0.  1.
         23    2    1    2    0    0 -0.19600136234E+03 -0.67971825077E+03  0.19549153540E+03  0.73968694842E+03  0.92121695458E+02 0.  0.
        254    2    1    2    0    0  0.19600136234E+03  0.67971825077E+03  0.28245944181E+04  0.30503167427E+04  0.90866119611E+03 0.  0.
         23    2    4    4    0    0  0.31321679977E+03 -0.26809210929E+02  0.37473487796E+03  0.49628052862E+03  0.83932335131E+02 0.  0.
         23    2    4    4    0    0 -0.11721543743E+03  0.70652746170E+03  0.24498595402E+04  0.25540362141E+04  0.91480616993E+02 0.  0.
         11    1    3    3    0    0 -0.53161099528E+02 -0.23832270100E+03  0.25153581029E+02  0.24547202478E+03  0.00000000000E+00 0. -1.
        -11    1    3    3    0    0 -0.14284026281E+03 -0.44139554978E+03  0.17033795437E+03  0.49421492363E+03  0.00000000000E+00 0.  1.
          2    1    5    5  502    0  0.56352426851E+02 -0.20389683074E+02  0.32031583262E+02  0.67951140639E+02  0.00000000000E+00 0. -1.
          3    1    6    6  503    0 -0.11806603329E+02  0.35045800309E+03  0.11863846096E+04  0.12371211136E+04  0.00000000000E+00 0. -1.
         -2    1    5    5    0  502  0.25686437292E+03 -0.64195278546E+01  0.34270329469E+03  0.42832938798E+03  0.00000000000E+00 0.  1.
         -3    1    6    6    0  503 -0.10540883410E+03  0.35606945861E+03  0.12634749306E+04  0.13169151005E+04  0.00000000000E+00 0.  1.
<mgrwt>
<rscale>  0 0.22898054E+04</rscale>
<asrwt>0</asrwt>
<pdfrwt beam="1">  1        2 0.52385303E+00 0.22898054E+04</pdfrwt>
<pdfrwt beam="2">  1       -2 0.59224444E-01 0.22898054E+04</pdfrwt>
<totfact> 0.22900798E+00</totfact>
</mgrwt>
</event>
<event>
12    1  0.4967442E-008  0.1524409E+04  0.7818608E-02  0.8868381E-01
         -2   -1    0    0    0  501 -0.00000000000E+00  0.00000000000E+00  0.19827806269E+03  0.19827806269E+03  0.00000000000E+00 0.  1.
          2   -1    0    0  501    0  0.00000000000E+00 -0.00000000000E+00 -0.29300056372E+04  0.29300056372E+04  0.00000000000E+00 0. -1.
         23    2    1    2    0    0  0.22130346222E+03  0.41641642185E+03 -0.65753488331E+03  0.81427262234E+03  0.91158773328E+02 0.  0.
        254    2    1    2    0    0 -0.22130346222E+03 -0.41641642185E+03 -0.20741926912E+04  0.23140110776E+04  0.91104011326E+03 0.  0.
         23    2    4    4    0    0  0.97724914203E+02 -0.56886732343E+03 -0.16684696976E+04  0.17678126239E+04  0.90609883183E+02 0.  0.
         23    2    4    4    0    0 -0.31902837642E+03  0.15245090158E+03 -0.40572299361E+03  0.54619845363E+03  0.93280334787E+02 0.  0.
         11    1    3    3    0    0  0.80336423262E+02  0.17958988632E+03 -0.34846537762E+03  0.40016819910E+03  0.00000000000E+00 0. -1.
        -11    1    3    3    0    0  0.14096703895E+03  0.23682653553E+03 -0.30906950569E+03  0.41410442324E+03  0.00000000000E+00 0.  1.
          1    1    5    5  502    0  0.56119864671E+02 -0.46352947655E+03 -0.14188426630E+04  0.14936945863E+04  0.00000000000E+00 0. -1.
          3    1    6    6  503    0 -0.27922583785E+03  0.16012882185E+03 -0.38079273190E+03  0.49860947923E+03  0.00000000000E+00 0. -1.
         -1    1    5    5    0  502  0.41605049531E+02 -0.10533784688E+03 -0.24962703458E+03  0.27411803758E+03  0.00000000000E+00 0.  1.
         -3    1    6    6    0  503 -0.39802538572E+02 -0.76779202669E+01 -0.24930261710E+02  0.47588974409E+02  0.00000000000E+00 0.  1.
<mgrwt>
<rscale>  0 0.15244092E+04</rscale>
<asrwt>0</asrwt>
<pdfrwt beam="1">  1        2 0.45077009E+00 0.15244092E+04</pdfrwt>
<pdfrwt beam="2">  1       -2 0.30504318E-01 0.15244092E+04</pdfrwt>
<totfact> 0.18569417E+01</totfact>
</mgrwt>
</event>
<event>
12    1  0.4967442E-008  0.1543148E+04  0.7818608E-02  0.8856257E-01
         -2   -1    0    0    0  501 -0.00000000000E+00  0.00000000000E+00  0.45591909214E+03  0.45591909214E+03  0.00000000000E+00 0.  1.
          2   -1    0    0  501    0  0.00000000000E+00 -0.00000000000E+00 -0.13057714156E+04  0.13057714156E+04  0.00000000000E+00 0. -1.
         23    2    1    2    0    0  0.15885705179E+03 -0.43172682129E+03 -0.51944926612E+03  0.69997783562E+03  0.92292031897E+02 0.  0.
        254    2    1    2    0    0 -0.15885705179E+03  0.43172682129E+03 -0.33040305732E+03  0.10617126721E+04  0.89802227516E+03 0.  0.
         23    2    4    4    0    0 -0.10611114227E+03 -0.23464547155E+03  0.65646800233E+02  0.27938645741E+03  0.86192913708E+02 0.  0.
         23    2    4    4    0    0 -0.52745909513E+02  0.66637229284E+03 -0.39604985756E+03  0.78232621469E+03  0.91349071619E+02 0.  0.
         11    1    3    3    0    0  0.12789338624E+03 -0.25141012363E+03 -0.26861786162E+03  0.38951164821E+03  0.00000000000E+00 0. -1.
        -11    1    3    3    0    0  0.30963665550E+02 -0.18031669767E+03 -0.25083140450E+03  0.31046618741E+03  0.00000000000E+00 0.  1.
          2    1    5    5  502    0 -0.68411274051E+02 -0.73051565533E+02 -0.22275226933E+01  0.10010791927E+03  0.00000000000E+00 0. -1.
          1    1    6    6  503    0 -0.56228243078E+02  0.42349899350E+03 -0.29541371903E+03  0.51940569712E+03  0.00000000000E+00 0.  1.
         -2    1    5    5    0  502 -0.37699868224E+02 -0.16159390601E+03  0.67874322926E+02  0.17927853814E+03  0.00000000000E+00 0.  1.
         -1    1    6    6    0  503  0.34823335650E+01  0.24287329934E+03 -0.10063613853E+03  0.26292051757E+03  0.00000000000E+00 0. -1.
<mgrwt>
<rscale>  0 0.15431476E+04</rscale>
<asrwt>0</asrwt>
<pdfrwt beam="1">  1        2 0.20088791E+00 0.15431476E+04</pdfrwt>
<pdfrwt beam="2">  1       -2 0.70141399E-01 0.15431476E+04</pdfrwt>
<totfact> 0.29238360E+01</totfact>
</mgrwt>
</event>
<event>
12    1  0.4967442E-008  0.1373580E+04  0.7818608E-02  0.8973168E-01
         -2   -1    0    0    0  501 -0.00000000000E+00  0.00000000000E+00  0.40147796873E+03  0.40147796873E+03  0.00000000000E+00 0.  1.
          2   -1    0    0  501    0  0.00000000000E+00 -0.00000000000E+00 -0.11748595280E+04  0.11748595280E+04  0.00000000000E+00 0. -1.
         23    2    1    2    0    0 -0.34898176141E+03  0.94591346577E+02 -0.60998163965E+02  0.37842617326E+03  0.93540365391E+02 0.  0.
        254    2    1    2    0    0  0.34898176141E+03 -0.94591346577E+02 -0.71238339528E+03  0.11979113235E+04  0.89261730005E+03 0.  0.
         23    2    4    4    0    0  0.22174902449E+03 -0.87516113401E+02  0.16662692725E+03  0.30505386251E+03  0.91987097908E+02 0.  0.
         23    2    4    4    0    0  0.12723273691E+03 -0.70752331756E+01 -0.87901032253E+03  0.89285746094E+03  0.91088254869E+02 0.  0.
         13    1    3    3    0    0 -0.32099355105E+03  0.11140945245E+03 -0.63566737425E+02  0.34567275857E+03  0.00000000000E+00 0.  1.
        -13    1    3    3    0    0 -0.27988210352E+02 -0.16818105871E+02  0.25685734602E+01  0.32753414683E+02  0.00000000000E+00 0. -1.
          4    1    5    5  502    0  0.26879979295E+01 -0.21408690946E+01  0.35860966940E+02  0.36025235644E+02  0.00000000000E+00 0.  1.
          1    1    6    6  503    0  0.10108437161E+03 -0.39933968917E+02 -0.50917584773E+03  0.52064653650E+03  0.00000000000E+00 0. -1.
         -4    1    5    5    0  502  0.21906102657E+03 -0.85375244307E+02  0.13076596031E+03  0.26902862687E+03  0.00000000000E+00 0. -1.
         -1    1    6    6    0  503  0.26148365305E+02  0.32858735742E+02 -0.36983447480E+03  0.37221092444E+03  0.00000000000E+00 0.  1.
<mgrwt>
<rscale>  0 0.13735796E+04</rscale>
<asrwt>0</asrwt>
<pdfrwt beam="1">  1        2 0.18074762E+00 0.13735796E+04</pdfrwt>
<pdfrwt beam="2">  1       -2 0.61765841E-01 0.13735796E+04</pdfrwt>
<totfact> 0.46571962E+01</totfact>
</mgrwt>
</event>
<event>
12    1  0.4967442E-008  0.2696754E+04  0.7818608E-02  0.8336059E-01
          1   -1    0    0  501    0  0.00000000000E+00  0.00000000000E+00  0.33980990536E+04  0.33980990536E+04  0.00000000000E+00 0. -1.
         -1   -1    0    0    0  501 -0.00000000000E+00 -0.00000000000E+00 -0.53504054372E+03  0.53504054372E+03  0.00000000000E+00 0.  1.
         23    2    1    2    0    0 -0.32340138224E+03 -0.36270295690E+03 -0.32239242027E+03  0.59026890911E+03  0.91316063387E+02 0.  0.
        254    2    1    2    0    0  0.32340138224E+03  0.36270295690E+03  0.31854509301E+04  0.33428706882E+04  0.88968810301E+03 0.  0.
         23    2    4    4    0    0  0.31739206516E+03 -0.17700665427E+03  0.65234737127E+03  0.75128005021E+03  0.82435079650E+02 0.  0.
         23    2    4    4    0    0  0.60093170859E+01  0.53970961117E+03  0.25331035589E+04  0.25915906380E+04  0.91683251650E+02 0.  0.
         11    1    3    3    0    0 -0.20759680266E+02 -0.22701401765E+02  0.27496759494E+01  0.30884926496E+02  0.00000000000E+00 0. -1.
        -11    1    3    3    0    0 -0.30264170198E+03 -0.34000155514E+03 -0.32514209622E+03  0.55938398262E+03  0.00000000000E+00 0.  1.
          4    1    5    5  502    0  0.28165213156E+03 -0.14218983239E+03  0.60583237439E+03  0.68306569047E+03  0.00000000000E+00 0. -1.
          3    1    6    6  503    0 -0.14693592259E+02  0.48316660654E+03  0.21410375947E+04  0.21949277558E+04  0.00000000000E+00 0. -1.
         -4    1    5    5    0  502  0.35739933598E+02 -0.34816821871E+02  0.46514996888E+02  0.68214359736E+02  0.00000000000E+00 0.  1.
         -3    1    6    6    0  503  0.20702909345E+02  0.56543004628E+02  0.39206596418E+03  0.39666288217E+03  0.00000000000E+00 0.  1.
<mgrwt>
<rscale>  0 0.26967542E+04</rscale>
<asrwt>0</asrwt>
<pdfrwt beam="1">  1        1 0.52278446E+00 0.26967542E+04</pdfrwt>
<pdfrwt beam="2">  1       -1 0.82313932E-01 0.26967542E+04</pdfrwt>
<totfact> 0.38473126E-01</totfact>
</mgrwt>
</event>
<event>
12    1  0.4967442E-008  0.1438630E+04  0.7818608E-02  0.8926321E-01
         -1   -1    0    0    0  501 -0.00000000000E+00  0.00000000000E+00  0.36852960466E+03  0.36852960466E+03  0.00000000000E+00 0.  1.
          1   -1    0    0  501    0  0.00000000000E+00 -0.00000000000E+00 -0.14039952587E+04  0.14039952587E+04  0.00000000000E+00 0. -1.
         23    2    1    2    0    0  0.25125103213E+02  0.42756031598E+03 -0.46199005564E+03  0.63862227125E+03  0.10471150470E+03 0.  0.
        254    2    1    2    0    0 -0.25125103213E+02 -0.42756031598E+03 -0.57347559844E+03  0.11339025922E+04  0.87944399018E+03 0.  0.
         23    2    4    4    0    0 -0.14402801731E+03 -0.65461012243E+03 -0.52824776096E+03  0.85833442237E+03  0.91835731098E+02 0.  0.
         23    2    4    4    0    0  0.11890291410E+03  0.22704980645E+03 -0.45227837486E+02  0.27556816978E+03  0.90568986557E+02 0.  0.
         13    1    3    3    0    0  0.33049962918E+01  0.80864601074E+02 -0.15577196042E+03  0.17554176244E+03  0.00000000000E+00 0. -1.
        -13    1    3    3    0    0  0.21820106922E+02  0.34669571491E+03 -0.30621809522E+03  0.46308050881E+03  0.00000000000E+00 0.  1.
          2    1    5    5  502    0 -0.45580797499E+02 -0.22077431651E+03 -0.12426111794E+03  0.25740966059E+03  0.00000000000E+00 0. -1.
          4    1    6    6  503    0  0.26528596510E+02  0.54365140113E+01  0.10579056324E+02  0.29072986604E+02  0.00000000000E+00 0. -1.
         -2    1    5    5    0  502 -0.98447219809E+02 -0.43383580592E+03 -0.40398664302E+03  0.60092476178E+03  0.00000000000E+00 0.  1.
         -4    1    6    6    0  503  0.92374317585E+02  0.22161329244E+03 -0.55806893810E+02  0.24649518318E+03  0.00000000000E+00 0.  1.
<mgrwt>
<rscale>  0 0.14386297E+04</rscale>
<asrwt>0</asrwt>
<pdfrwt beam="1">  1        1 0.21599927E+00 0.14386297E+04</pdfrwt>
<pdfrwt beam="2">  1       -1 0.56696863E-01 0.14386297E+04</pdfrwt>
<totfact> 0.23364199E+01</totfact>
</mgrwt>
</event>
<event>
12    1  0.4967442E-008  0.2627548E+04  0.7818608E-02  0.8358904E-01
         -2   -1    0    0    0  501 -0.00000000000E+00  0.00000000000E+00  0.54053842962E+03  0.54053842962E+03  0.00000000000E+00 0. -1.
          2   -1    0    0  501    0  0.00000000000E+00 -0.00000000000E+00 -0.31931157425E+04  0.31931157425E+04  0.00000000000E+00 0.  1.
         23    2    1    2    0    0 -0.11128579682E+04 -0.15266305587E+03 -0.77637723697E+03  0.13683405726E+04  0.88518035817E+02 0.  0.
        254    2    1    2    0    0  0.11128579682E+04  0.15266305587E+03 -0.18762000759E+04  0.23653135995E+04  0.90156687671E+03 0.  0.
         23    2    4    4    0    0  0.56087925122E+03 -0.32393847287E+03 -0.57558120355E+03  0.87147615741E+03  0.93033877722E+02 0.  0.
         23    2    4    4    0    0  0.55197871695E+03  0.47660152874E+03 -0.13006188724E+04  0.14938374421E+04  0.90062928491E+02 0.  0.
         13    1    3    3    0    0 -0.64747016635E+02 -0.16440799251E+02 -0.71944513948E+02  0.98175807256E+02  0.00000000000E+00 0.  1.
        -13    1    3    3    0    0 -0.10481109515E+04 -0.13622225662E+03 -0.70443272302E+03  0.12701647654E+04  0.00000000000E+00 0. -1.
          4    1    5    5  502    0  0.78021174521E+02 -0.30878818784E+02 -0.39480084401E+02  0.92733393055E+02  0.00000000000E+00 0. -1.
          3    1    6    6  503    0  0.19726704908E+03  0.22385571742E+03 -0.49298305767E+03  0.57624471019E+03  0.00000000000E+00 0. -1.
         -4    1    5    5    0  502  0.48285807670E+03 -0.29305965408E+03 -0.53610111915E+03  0.77874276436E+03  0.00000000000E+00 0.  1.
         -3    1    6    6    0  503  0.35471166788E+03  0.25274581132E+03 -0.80763581468E+03  0.91759273190E+03  0.00000000000E+00 0.  1.
<mgrwt>
<rscale>  0 0.26275477E+04</rscale>
<asrwt>0</asrwt>
<pdfrwt beam="1">  1        2 0.49124857E+00 0.26275477E+04</pdfrwt>
<pdfrwt beam="2">  1       -2 0.83159759E-01 0.26275477E+04</pdfrwt>
<totfact> 0.14644767E+00</totfact>
</mgrwt>
</event>
<event>
12    1  0.4967442E-008  0.1766759E+04  0.7818608E-02  0.8724179E-01
          1   -1    0    0  501    0  0.00000000000E+00  0.00000000000E+00  0.71824363940E+03  0.71824363940E+03  0.00000000000E+00 0. -1.
         -1   -1    0    0    0  501 -0.00000000000E+00 -0.00000000000E+00 -0.10864825732E+04  0.10864825732E+04  0.00000000000E+00 0.  1.
         23    2    1    2    0    0 -0.67036358272E+02  0.39633838628E+03 -0.66273406945E+03  0.78063397866E+03  0.92709072162E+02 0.  0.
        254    2    1    2    0    0  0.67036358272E+02 -0.39633838628E+03  0.29449513562E+03  0.10240922340E+04  0.89468403865E+03 0.  0.
         23    2    4    4    0    0  0.69610832974E+02  0.15470793618E+03 -0.20096898348E+03  0.27705662629E+03  0.87129950434E+02 0.  0.
         23    2    4    4    0    0 -0.25744747022E+01 -0.55104632247E+03  0.49546411910E+03  0.74703560769E+03  0.94439549022E+02 0.  0.
         13    1    3    3    0    0 -0.97183812578E+01  0.28856889027E+03 -0.43208206810E+03  0.51967428736E+03  0.00000000000E+00 0.  1.
        -13    1    3    3    0    0 -0.57317977014E+02  0.10776949601E+03 -0.23065200135E+03  0.26095969130E+03  0.00000000000E+00 0. -1.
          2    1    5    5  502    0  0.70988444628E+02  0.16536941810E+03 -0.18990785349E+03  0.26163217793E+03  0.00000000000E+00 0. -1.
          4    1    6    6  503    0 -0.11180684339E+02 -0.40249288385E+03  0.30386132879E+03  0.50443754458E+03  0.00000000000E+00 0. -1.
         -2    1    5    5    0  502 -0.13776116539E+01 -0.10661481911E+02 -0.11061129990E+02  0.15424448355E+02  0.00000000000E+00 0.  1.
         -4    1    6    6    0  503  0.86062096367E+01 -0.14855343862E+03  0.19160279031E+03  0.24259806311E+03  0.00000000000E+00 0.  1.
<mgrwt>
<rscale>  0 0.17667588E+04</rscale>
<asrwt>0</asrwt>
<pdfrwt beam="1">  1        1 0.11049902E+00 0.17667588E+04</pdfrwt>
<pdfrwt beam="2">  1       -1 0.16715117E+00 0.17667588E+04</pdfrwt>
<totfact> 0.64013926E+00</totfact>
</mgrwt>
</event>
<event>
12    1  0.4967442E-008  0.1106244E+04  0.7818608E-02  0.9199127E-01
         -2   -1    0    0    0  501 -0.00000000000E+00  0.00000000000E+00  0.61155717709E+03  0.61155717709E+03  0.00000000000E+00 0.  1.
          2   -1    0    0  501    0  0.00000000000E+00 -0.00000000000E+00 -0.50027070728E+03  0.50027070728E+03  0.00000000000E+00 0. -1.
         23    2    1    2    0    0  0.28493214937E+02  0.54593330669E+02  0.20063478673E+03  0.23049310925E+03  0.95291451427E+02 0.  0.
        254    2    1    2    0    0 -0.28493214937E+02 -0.54593330669E+02 -0.89348316927E+02  0.88133477511E+03  0.87462881786E+03 0.  0.
         23    2    4    4    0    0 -0.35498727961E+03 -0.28306491142E+03 -0.97412767163E+02  0.47246380726E+03  0.87126856974E+02 0.  0.
         23    2    4    4    0    0  0.32649406467E+03  0.22847158075E+03  0.80644502362E+01  0.40887096785E+03  0.91174533259E+02 0.  0.
         11    1    3    3    0    0  0.53172202028E+02  0.11235172150E+02  0.14941517163E+03  0.15899184154E+03  0.00000000000E+00 0.  1.
        -11    1    3    3    0    0 -0.24678987090E+02  0.43358158519E+02  0.51219615103E+02  0.71501267718E+02  0.00000000000E+00 0. -1.
          4    1    5    5  502    0 -0.14024700381E+03 -0.84225675935E+02 -0.71885509201E+02  0.17869167020E+03  0.00000000000E+00 0.  1.
          3    1    6    6  503    0  0.22581996507E+03  0.20317162646E+03  0.19773611262E+02  0.30440821625E+03  0.00000000000E+00 0. -1.
         -4    1    5    5    0  502 -0.21474027580E+03 -0.19883923548E+03 -0.25527257963E+02  0.29377213707E+03  0.00000000000E+00 0. -1.
         -3    1    6    6    0  503  0.10067409961E+03  0.25299954289E+02 -0.11709161026E+02  0.10446275159E+03  0.00000000000E+00 0.  1.
<mgrwt>
<rscale>  0 0.11062444E+04</rscale>
<asrwt>0</asrwt>
<pdfrwt beam="1">  1        2 0.76964724E-01 0.11062444E+04</pdfrwt>
<pdfrwt beam="2">  1       -2 0.94085720E-01 0.11062444E+04</pdfrwt>
<totfact> 0.58250438E+01</totfact>
</mgrwt>
</event>
<event>
12    1  0.4967442E-008  0.1393981E+04  0.7818608E-02  0.8958187E-01
          1   -1    0    0  501    0  0.00000000000E+00  0.00000000000E+00  0.17986033471E+04  0.17986033471E+04  0.00000000000E+00 0. -1.
         -1   -1    0    0    0  501 -0.00000000000E+00 -0.00000000000E+00 -0.27009611791E+03  0.27009611791E+03  0.00000000000E+00 0.  1.
         23    2    1    2    0    0  0.24594168711E+03 -0.22524549056E+02 -0.48595295880E+02  0.26602115463E+03  0.86087648117E+02 0.  0.
        254    2    1    2    0    0 -0.24594168711E+03  0.22524549056E+02  0.15771025251E+04  0.18026783104E+04  0.83749749098E+03 0.  0.
         23    2    4    4    0    0 -0.20714697281E+03 -0.11022086266E+02  0.33355785924E+01  0.22550172758E+03  0.88365990788E+02 0.  0.
         23    2    4    4    0    0 -0.38794714301E+02  0.33546635321E+02  0.15737669465E+04  0.15771765828E+04  0.90073108766E+02 0.  0.
         13    1    3    3    0    0  0.74487906844E+01  0.14054739131E+02 -0.15975912782E+02  0.22544399835E+02  0.00000000000E+00 0. -1.
        -13    1    3    3    0    0  0.23849289643E+03 -0.36579288187E+02 -0.32619383098E+02  0.24347675479E+03  0.00000000000E+00 0.  1.
          4    1    6    6  502    0 -0.60541050813E+02  0.30306588793E+02  0.14419555526E+04  0.14435440844E+04  0.00000000000E+00 0. -1.
          4    1    5    5  503    0 -0.53510888177E+02  0.53123135657E+00 -0.38416159344E+02  0.65874871225E+02  0.00000000000E+00 0. -1.
         -4    1    5    5    0  503 -0.15363608464E+03 -0.11553317622E+02  0.41751737936E+02  0.15962685636E+03  0.00000000000E+00 0.  1.
         -4    1    6    6    0  502  0.21746336512E+02  0.32400465285E+01  0.13181139392E+03  0.13363249837E+03  0.00000000000E+00 0.  1.
<mgrwt>
<rscale>  0 0.13939810E+04</rscale>
<asrwt>0</asrwt>
<pdfrwt beam="1">  1        1 0.27670820E+00 0.13939810E+04</pdfrwt>
<pdfrwt beam="2">  1       -1 0.41553250E-01 0.13939810E+04</pdfrwt>
<totfact> 0.22626045E+01</totfact>
</mgrwt>
</event>
<event>
12    1  0.4967442E-008  0.1592682E+04  0.7818608E-02  0.8825056E-01
         -2   -1    0    0    0  501 -0.00000000000E+00  0.00000000000E+00  0.90744037784E+03  0.90744037784E+03  0.00000000000E+00 0. -1.
          2   -1    0    0  501    0  0.00000000000E+00 -0.00000000000E+00 -0.69884395905E+03  0.69884395905E+03  0.00000000000E+00 0.  1.
         23    2    1    2    0    0  0.23599310527E+02  0.37791210968E+03 -0.30908343945E+03  0.49691526875E+03  0.89541731462E+02 0.  0.
        254    2    1    2    0    0 -0.23599310527E+02 -0.37791210968E+03  0.51767985824E+03  0.11093690681E+04  0.90517004126E+03 0.  0.
         23    2    4    4    0    0 -0.16463508660E+03  0.23384574674E+03  0.18919919336E+02  0.30173532087E+03  0.94327596734E+02 0.  0.
         23    2    4    4    0    0  0.14103577607E+03 -0.61175785642E+03  0.49875993891E+03  0.80763374726E+03  0.96809235239E+02 0.  0.
         11    1    3    3    0    0 -0.14494680747E+02  0.30235748125E+03 -0.26038477890E+03  0.39928733428E+03  0.00000000000E+00 0.  1.
        -11    1    3    3    0    0  0.38093991274E+02  0.75554628431E+02 -0.48698660555E+02  0.97627934468E+02  0.00000000000E+00 0. -1.
          2    1    5    5  502    0 -0.14454815609E+03  0.19717184646E+03  0.50117470770E+02  0.24956495615E+03  0.00000000000E+00 0. -1.
          4    1    6    6  503    0  0.11702441139E+03 -0.54089457947E+03  0.47449462165E+03  0.72897654622E+03  0.00000000000E+00 0. -1.
         -2    1    5    5    0  502 -0.20086930513E+02  0.36673900285E+02 -0.31197551434E+02  0.52170364720E+02  0.00000000000E+00 0.  1.
         -4    1    6    6    0  503  0.24011364678E+02 -0.70863276956E+02  0.24265317261E+02  0.78657201046E+02  0.00000000000E+00 0.  1.
<mgrwt>
<rscale>  0 0.15926823E+04</rscale>
<asrwt>0</asrwt>
<pdfrwt beam="1">  1        2 0.10751446E+00 0.15926823E+04</pdfrwt>
<pdfrwt beam="2">  1       -2 0.13960621E+00 0.15926823E+04</pdfrwt>
<totfact> 0.14246785E+01</totfact>
</mgrwt>
</event>
<event>
12    1  0.4967442E-008  0.2573886E+04  0.7818608E-02  0.8377126E-01
          2   -1    0    0  501    0  0.00000000000E+00  0.00000000000E+00  0.26036214314E+04  0.26036214314E+04  0.00000000000E+00 0. -1.
         -2   -1    0    0    0  501 -0.00000000000E+00 -0.00000000000E+00 -0.63612252388E+03  0.63612252388E+03  0.00000000000E+00 0.  1.
         23    2    1    2    0    0  0.36003499598E+03 -0.88878204347E+03  0.19211646345E+03  0.98222450003E+03  0.91090689988E+02 0.  0.
        254    2    1    2    0    0 -0.36003499598E+03  0.88878204347E+03  0.17753824441E+04  0.22575194552E+04  0.10123500131E+04 0.  0.
         23    2    4    4    0    0 -0.60984801333E+03  0.83897563528E+03  0.10298475855E+04  0.14642609461E+04  0.87631917230E+02 0.  0.
         23    2    4    4    0    0  0.24981301735E+03  0.49806408199E+02  0.74553485855E+03  0.79325850915E+03  0.92464128674E+02 0.  0.
         13    1    3    3    0    0  0.34430751845E+03 -0.87551247327E+03  0.17854362600E+03  0.95757380108E+03  0.00000000000E+00 0.  1.
        -13    1    3    3    0    0  0.15727477528E+02 -0.13269570200E+02  0.13572837445E+02  0.24650698955E+02  0.00000000000E+00 0. -1.
          2    1    6    6  502    0  0.50053396625E+02 -0.59111284941E+01  0.26704719172E+03  0.27176181954E+03  0.00000000000E+00 0. -1.
          2    1    5    5  503    0 -0.48944104591E+03  0.72530979105E+03  0.87896962574E+03  0.12402477307E+04  0.00000000000E+00 0. -1.
         -2    1    5    5    0  503 -0.12040696742E+03  0.11366584422E+03  0.15087795977E+03  0.22401321544E+03  0.00000000000E+00 0.  1.
         -2    1    6    6    0  502  0.19975962072E+03  0.55717536693E+02  0.47848766683E+03  0.52149668961E+03  0.00000000000E+00 0.  1.
<mgrwt>
<rscale>  0 0.25738860E+04</rscale>
<asrwt>0</asrwt>
<pdfrwt beam="1">  1        2 0.40055714E+00 0.25738860E+04</pdfrwt>
<pdfrwt beam="2">  1       -2 0.97865005E-01 0.25738860E+04</pdfrwt>
<totfact> 0.23329579E+00</totfact>
</mgrwt>
</event>
<event>
12    1  0.4967442E-008  0.2882037E+04  0.7818608E-02  0.8278242E-01
         -1   -1    0    0    0  501 -0.00000000000E+00  0.00000000000E+00  0.80248538822E+03  0.80248538822E+03  0.00000000000E+00 0.  1.
          1   -1    0    0  501    0  0.00000000000E+00 -0.00000000000E+00 -0.25876289101E+04  0.25876289101E+04  0.00000000000E+00 0. -1.
         23    2    1    2    0    0 -0.98382754126E+03 -0.94840357390E+02  0.18884473514E+03  0.10103778291E+04  0.91047785772E+02 0.  0.
        254    2    1    2    0    0  0.98382754126E+03  0.94840357390E+02 -0.19739882570E+04  0.23797364691E+04  0.88859703999E+03 0.  0.
         23    2    4    4    0    0  0.10897579239E+04  0.24839063052E+03 -0.16944962202E+04  0.20318851271E+04  0.89272008187E+02 0.  0.
         23    2    4    4    0    0 -0.10593038260E+03 -0.15355027314E+03 -0.27949203674E+03  0.34785134201E+03  0.89921216628E+02 0.  0.
         13    1    3    3    0    0 -0.94301480378E+02 -0.21702147964E+02  0.43495079661E+02  0.10609229181E+03  0.00000000000E+00 0. -1.
        -13    1    3    3    0    0 -0.88952606089E+03 -0.73138209426E+02  0.14534965548E+03  0.90428553733E+03  0.00000000000E+00 0.  1.
          4    1    5    5  502    0  0.66649741596E+03  0.15554785305E+03 -0.95780265863E+03  0.11772000140E+04  0.00000000000E+00 0. -1.
          3    1    6    6  503    0 -0.22146011330E+02 -0.34468947157E+02 -0.14126261740E+03  0.14708392573E+03  0.00000000000E+00 0. -1.
         -4    1    5    5    0  502  0.42326050791E+03  0.92842777479E+02 -0.73669356162E+03  0.85468511314E+03  0.00000000000E+00 0.  1.
         -3    1    6    6    0  503 -0.83784371271E+02 -0.11908132598E+03 -0.13822941934E+03  0.20076741628E+03  0.00000000000E+00 0.  1.
<mgrwt>
<rscale>  0 0.28820371E+04</rscale>
<asrwt>0</asrwt>
<pdfrwt beam="1">  1        1 0.39809676E+00 0.28820371E+04</pdfrwt>
<pdfrwt beam="2">  1       -1 0.12345929E+00 0.28820371E+04</pdfrwt>
<totfact> 0.58374310E-01</totfact>
</mgrwt>
</event>
<event>
12    1  0.4967442E-008  0.1223984E+04  0.7818608E-02  0.9092119E-01
          3   -1    0    0  501    0  0.00000000000E+00  0.00000000000E+00  0.53223515572E+03  0.53223515572E+03  0.00000000000E+00 0. -1.
         -3   -1    0    0    0  501 -0.00000000000E+00 -0.00000000000E+00 -0.70370057130E+03  0.70370057130E+03  0.00000000000E+00 0.  1.
         23    2    1    2    0    0  0.58021946328E+02 -0.17218230544E+03 -0.21251078074E+03  0.29428458015E+03  0.91811162841E+02 0.  0.
        254    2    1    2    0    0 -0.58021946328E+02  0.17218230544E+03  0.41045365159E+02  0.94165114687E+03  0.92304326434E+03 0.  0.
         23    2    4    4    0    0 -0.33109009230E+03  0.16196519900E+03 -0.30950972461E+03  0.49013292135E+03  0.92631722730E+02 0.  0.
         23    2    4    4    0    0  0.27306814597E+03  0.10217106437E+02  0.35055508977E+03  0.45151822552E+03  0.79430695647E+02 0.  0.
         13    1    3    3    0    0  0.73019102752E+02 -0.10811654350E+03 -0.17585411704E+03  0.21896494429E+03  0.00000000000E+00 0.  1.
        -13    1    3    3    0    0 -0.14997156423E+02 -0.64065761938E+02 -0.36656663696E+02  0.75319635865E+02  0.00000000000E+00 0. -1.
          2    1    6    6  502    0  0.25990367399E+03  0.20747903300E+02  0.29619187813E+03  0.39460109467E+03  0.00000000000E+00 0. -1.
          2    1    5    5  503    0 -0.27632236858E+03  0.10840270137E+03 -0.20576854103E+03  0.36117293575E+03  0.00000000000E+00 0. -1.
         -2    1    5    5    0  503 -0.54767723713E+02  0.53562497637E+02 -0.10374118358E+03  0.12895998560E+03  0.00000000000E+00 0.  1.
         -2    1    6    6    0  502  0.13164471982E+02 -0.10530796863E+02  0.54363211640E+02  0.56917130856E+02  0.00000000000E+00 0.  1.
<mgrwt>
<rscale>  0 0.12239840E+04</rscale>
<asrwt>0</asrwt>
<pdfrwt beam="1">  1        3 0.81882332E-01 0.12239840E+04</pdfrwt>
<pdfrwt beam="2">  1       -3 0.10826163E+00 0.12239840E+04</pdfrwt>
<totfact> 0.25837063E+00</totfact>
</mgrwt>
</event>
<event>
12    1  0.4967442E-008  0.1179348E+04  0.7818608E-02  0.9131128E-01
         -2   -1    0    0    0  501 -0.00000000000E+00  0.00000000000E+00  0.21880073294E+03  0.21880073294E+03  0.00000000000E+00 0.  1.
          2   -1    0    0  501    0  0.00000000000E+00 -0.00000000000E+00 -0.15891878345E+04  0.15891878345E+04  0.00000000000E+00 0. -1.
         23    2    1    2    0    0  0.28473374680E+02 -0.62617353720E+02 -0.63471423978E+03  0.64480584803E+03  0.90447495412E+02 0.  0.
        254    2    1    2    0    0 -0.28473374680E+02  0.62617353720E+02 -0.73567286181E+03  0.11631827194E+04  0.89835839904E+03 0.  0.
         23    2    4    4    0    0 -0.10381741663E+03 -0.40008074323E+03 -0.35875629272E+03  0.55526055505E+03  0.93624512435E+02 0.  0.
         23    2    4    4    0    0  0.75344041946E+02  0.46269809695E+03 -0.37691656909E+03  0.60792216438E+03  0.87960242785E+02 0.  0.
         11    1    3    3    0    0  0.11762379118E+02 -0.84585359239E+02 -0.50711141768E+03  0.51425190958E+03  0.00000000000E+00 0. -1.
        -11    1    3    3    0    0  0.16710995562E+02  0.21968005519E+02 -0.12760282210E+03  0.13055393846E+03  0.00000000000E+00 0.  1.
          2    1    5    5  502    0 -0.10186422720E+03 -0.24645407354E+03 -0.19257320761E+03  0.32893824868E+03  0.00000000000E+00 0. -1.
          4    1    6    6  503    0  0.32844967886E+02  0.27200215364E+03 -0.16564139783E+03  0.32015783010E+03  0.00000000000E+00 0.  1.
         -2    1    5    5    0  502 -0.19531894236E+01 -0.15362666969E+03 -0.16618308510E+03  0.22632230637E+03  0.00000000000E+00 0.  1.
         -4    1    6    6    0  503  0.42499074061E+02  0.19069594331E+03 -0.21127517127E+03  0.28776433428E+03  0.00000000000E+00 0. -1.
<mgrwt>
<rscale>  0 0.11793481E+04</rscale>
<asrwt>0</asrwt>
<pdfrwt beam="1">  1        2 0.24449042E+00 0.11793481E+04</pdfrwt>
<pdfrwt beam="2">  1       -2 0.33661653E-01 0.11793481E+04</pdfrwt>
<totfact> 0.92170754E+01</totfact>
</mgrwt>
</event>
<event>
12    1  0.4967442E-008  0.1426171E+04  0.7818608E-02  0.8935089E-01
         -1   -1    0    0    0  501 -0.00000000000E+00  0.00000000000E+00  0.18097823499E+03  0.18097823499E+03  0.00000000000E+00 0.  1.
          1   -1    0    0  501    0  0.00000000000E+00 -0.00000000000E+00 -0.28096813906E+04  0.28096813906E+04  0.00000000000E+00 0. -1.
         23    2    1    2    0    0 -0.30658036945E+03  0.94102929943E+02 -0.21002564411E+03  0.39383039560E+03  0.90248129972E+02 0.  0.
        254    2    1    2    0    0  0.30658036945E+03 -0.94102929943E+02 -0.24186775116E+04  0.25968292300E+04  0.88919866212E+03 0.  0.
         23    2    4    4    0    0 -0.28097208246E+03  0.10487603894E+03 -0.93001517782E+03  0.98163880872E+03  0.93499867066E+02 0.  0.
         23    2    4    4    0    0  0.58755245191E+03 -0.19897896888E+03 -0.14886623337E+04  0.16151904213E+04  0.88960887064E+02 0.  0.
         11    1    3    3    0    0 -0.22922721997E+03  0.68543691461E+02 -0.10595916223E+03  0.26166906595E+03  0.00000000000E+00 0.  1.
        -11    1    3    3    0    0 -0.77353149482E+02  0.25559238482E+02 -0.10406648188E+03  0.13216132966E+03  0.00000000000E+00 0. -1.
          4    1    5    5  502    0 -0.19553491286E+03  0.47546063273E+02 -0.48912881856E+03  0.52890597598E+03  0.00000000000E+00 0. -1.
          3    1    6    6  503    0  0.51159050961E+03 -0.14581260393E+03 -0.13102906980E+04  0.14141597782E+04  0.00000000000E+00 0. -1.
         -4    1    5    5    0  502 -0.85437169601E+02  0.57329975666E+02 -0.44088635926E+03  0.45273283274E+03  0.00000000000E+00 0.  1.
         -3    1    6    6    0  503  0.75961942300E+02 -0.53166364948E+02 -0.17837163570E+03  0.20103064309E+03  0.00000000000E+00 0.  1.
<mgrwt>
<rscale>  0 0.14261713E+04</rscale>
<asrwt>0</asrwt>
<pdfrwt beam="1">  1        1 0.43225866E+00 0.14261713E+04</pdfrwt>
<pdfrwt beam="2">  1       -1 0.27842806E-01 0.14261713E+04</pdfrwt>
<totfact> 0.93323877E+00</totfact>
</mgrwt>
</event>
<event>
12    1  0.4967442E-008  0.1940773E+04  0.7818608E-02  0.8634823E-01
          2   -1    0    0  501    0  0.00000000000E+00  0.00000000000E+00  0.15737077554E+04  0.15737077554E+04  0.00000000000E+00 0. -1.
         -2   -1    0    0    0  501 -0.00000000000E+00 -0.00000000000E+00 -0.59836421292E+03  0.59836421292E+03  0.00000000000E+00 0.  1.
         23    2    1    2    0    0 -0.11733759893E+03  0.48115105751E+03  0.10194105199E+04  0.11369441774E+04  0.90386957006E+02 0.  0.
        254    2    1    2    0    0  0.11733759893E+03 -0.48115105751E+03 -0.44066977484E+02  0.10351277909E+04  0.90789492388E+03 0.  0.
         23    2    4    4    0    0 -0.38318057045E+03 -0.12941779476E+03 -0.40360040737E+02  0.41673389152E+03  0.91988522541E+02 0.  0.
         23    2    4    4    0    0  0.50051816938E+03 -0.35173326275E+03 -0.37069367473E+01  0.61839389942E+03  0.90346817619E+02 0.  0.
         11    1    3    3    0    0 -0.11409891362E+03  0.47847800749E+03  0.97228565344E+03  0.10896325792E+04  0.00000000000E+00 0. -1.
        -11    1    3    3    0    0 -0.32386853139E+01  0.26730500223E+01  0.47124866492E+02  0.47311598164E+02  0.00000000000E+00 0.  1.
          4    1    5    5  502    0 -0.78017509327E+02 -0.65368343648E+02  0.35522684718E+01  0.10184483651E+03  0.00000000000E+00 0.  1.
          3    1    6    6  503    0  0.48712963653E+03 -0.33388986130E+03  0.12686400067E+02  0.59071030718E+03  0.00000000000E+00 0. -1.
         -4    1    5    5    0  502 -0.30516306112E+03 -0.64049451115E+02 -0.43912309209E+02  0.31488905501E+03  0.00000000000E+00 0. -1.
         -3    1    6    6    0  503  0.13388532849E+02 -0.17843401451E+02 -0.16393336814E+02  0.27683592236E+02  0.00000000000E+00 0.  1.
<mgrwt>
<rscale>  0 0.19407735E+04</rscale>
<asrwt>0</asrwt>
<pdfrwt beam="1">  1        2 0.24210888E+00 0.19407735E+04</pdfrwt>
<pdfrwt beam="2">  1       -2 0.92056033E-01 0.19407735E+04</pdfrwt>
<totfact> 0.10801975E+01</totfact>
</mgrwt>
</event>
<event>
12    1  0.4967442E-008  0.2392162E+04  0.7818608E-02  0.8442444E-01
          2   -1    0    0  501    0  0.00000000000E+00  0.00000000000E+00  0.15922423124E+04  0.15922423124E+04  0.00000000000E+00 0. -1.
         -2   -1    0    0    0  501 -0.00000000000E+00 -0.00000000000E+00 -0.89848750676E+03  0.89848750676E+03  0.00000000000E+00 0.  1.
         23    2    1    2    0    0  0.34208231503E+02 -0.24928097078E+03  0.13287049642E+04  0.13553487822E+04  0.90566186094E+02 0.  0.
        254    2    1    2    0    0 -0.34208231503E+02  0.24928097078E+03 -0.63495015854E+03  0.11353810370E+04  0.90698246388E+03 0.  0.
         23    2    4    4    0    0 -0.49848293993E+01 -0.13236957486E+03 -0.71540462827E+03  0.73352668398E+03  0.93333065390E+02 0.  0.
         23    2    4    4    0    0 -0.29223402104E+02  0.38165054564E+03  0.80454469729E+02  0.40185435299E+03  0.92210916359E+02 0.  0.
         11    1    3    3    0    0 -0.26603844077E+02 -0.13714797704E+03  0.67152319262E+03  0.68590139987E+03  0.00000000000E+00 0. -1.
        -11    1    3    3    0    0  0.60812075581E+02 -0.11213299374E+03  0.65718177158E+03  0.66944738234E+03  0.00000000000E+00 0.  1.
          1    1    5    5  502    0  0.21094231879E+02  0.15729901084E+01 -0.50278495093E+02  0.54546933785E+02  0.00000000000E+00 0. -1.
          3    1    6    6  503    0  0.13544500802E+02  0.81534012991E+01  0.11732086043E+02  0.19686881359E+02  0.00000000000E+00 0. -1.
         -1    1    5    5    0  502 -0.26079061279E+02 -0.13394256497E+03 -0.66512613317E+03  0.67897975020E+03  0.00000000000E+00 0.  1.
         -3    1    6    6    0  503 -0.42767902906E+02  0.37349714434E+03  0.68722383686E+02  0.38216747163E+03  0.00000000000E+00 0.  1.
<mgrwt>
<rscale>  0 0.23921621E+04</rscale>
<asrwt>0</asrwt>
<pdfrwt beam="1">  1        2 0.24496036E+00 0.23921621E+04</pdfrwt>
<pdfrwt beam="2">  1       -2 0.13822885E+00 0.23921621E+04</pdfrwt>
<totfact> 0.37632413E+00</totfact>
</mgrwt>
</event>
<event>
12    1  0.4967442E-008  0.1213807E+04  0.7818608E-02  0.9100856E-01
         -1   -1    0    0    0  501 -0.00000000000E+00  0.00000000000E+00  0.22723215447E+03  0.22723215447E+03  0.00000000000E+00 0.  1.
          1   -1    0    0  501    0  0.00000000000E+00 -0.00000000000E+00 -0.16209502116E+04  0.16209502116E+04  0.00000000000E+00 0. -1.
         23    2    1    2    0    0  0.18732716886E+03  0.12513937618E+03 -0.34503018975E+03  0.42178837721E+03  0.90045941882E+02 0.  0.
        254    2    1    2    0    0 -0.18732716886E+03 -0.12513937618E+03 -0.10486878673E+04  0.14263939888E+04  0.94026710916E+03 0.  0.
         23    2    4    4    0    0 -0.35161892136E+03  0.29510196315E+03 -0.33105496721E+03  0.57387027473E+03  0.94913994697E+02 0.  0.
         23    2    4    4    0    0  0.16429175251E+03 -0.42024133933E+03 -0.71763290012E+03  0.85252371408E+03  0.90582230665E+02 0.  0.
         11    1    3    3    0    0 -0.85763846359E+01 -0.22915111107E+01 -0.11413864579E+02  0.14459657714E+02  0.00000000000E+00 0. -1.
        -11    1    3    3    0    0  0.19590355349E+03  0.12743088729E+03 -0.33361632517E+03  0.40732871950E+03  0.00000000000E+00 0.  1.
          4    1    5    5  502    0 -0.59141428887E+02  0.81845281577E+02 -0.11190888288E+03  0.15073140614E+03  0.00000000000E+00 0. -1.
          1    1    6    6  503    0  0.95996301552E+02 -0.22593121345E+03 -0.30650399809E+03  0.39268932245E+03  0.00000000000E+00 0. -1.
         -4    1    5    5    0  502 -0.29247749247E+03  0.21325668158E+03 -0.21914608433E+03  0.42313886860E+03  0.00000000000E+00 0.  1.
         -1    1    6    6    0  503  0.68295450954E+02 -0.19431012588E+03 -0.41112890203E+03  0.45983439163E+03  0.00000000000E+00 0.  1.
<mgrwt>
<rscale>  0 0.12138072E+04</rscale>
<asrwt>0</asrwt>
<pdfrwt beam="1">  1        1 0.24937697E+00 0.12138072E+04</pdfrwt>
<pdfrwt beam="2">  1       -1 0.34958791E-01 0.12138072E+04</pdfrwt>
<totfact> 0.41508383E+01</totfact>
</mgrwt>
</event>
<event>
12    1  0.4967442E-008  0.2717423E+04  0.7818608E-02  0.8329374E-01
          2   -1    0    0  501    0  0.00000000000E+00  0.00000000000E+00  0.15073951143E+04  0.15073951143E+04  0.00000000000E+00 0.  1.
         -2   -1    0    0    0  501 -0.00000000000E+00 -0.00000000000E+00 -0.12246933040E+04  0.12246933040E+04  0.00000000000E+00 0. -1.
         23    2    1    2    0    0 -0.25901104725E+03  0.89787649144E+03  0.89869221411E+03  0.12999766515E+04  0.94987800471E+02 0.  0.
        254    2    1    2    0    0  0.25901104725E+03 -0.89787649144E+03 -0.61599040386E+03  0.14321117668E+04  0.89343775300E+03 0.  0.
         23    2    4    4    0    0 -0.35604878634E+02 -0.11703311346E+03  0.20635291171E+03  0.25649239331E+03  0.90787480548E+02 0.  0.
         23    2    4    4    0    0  0.29461592588E+03 -0.78084337798E+03 -0.82234331557E+03  0.11756193735E+04  0.96526980463E+02 0.  0.
         13    1    3    3    0    0 -0.12803656198E+03  0.35869078840E+03  0.31070024396E+03  0.49151509080E+03  0.00000000000E+00 0. -1.
        -13    1    3    3    0    0 -0.13097448527E+03  0.53918570305E+03  0.58799197015E+03  0.80846156069E+03  0.00000000000E+00 0.  1.
          2    1    5    5  502    0  0.11308083216E+02 -0.46658091837E+01 -0.44756769312E+01  0.13025905165E+02  0.00000000000E+00 0. -1.
          2    1    6    6  503    0  0.28360845556E+02 -0.28118000178E+02 -0.24327498271E+02  0.46763090860E+02  0.00000000000E+00 0. -1.
         -2    1    5    5    0  502 -0.46912961850E+02 -0.11236730428E+03  0.21082858864E+03  0.24346648814E+03  0.00000000000E+00 0.  1.
         -2    1    6    6    0  503  0.26625508033E+03 -0.75272537780E+03 -0.79801581730E+03  0.11288562826E+04  0.00000000000E+00 0.  1.
<mgrwt>
<rscale>  0 0.27174228E+04</rscale>
<asrwt>0</asrwt>
<pdfrwt beam="1">  1        2 0.23190694E+00 0.27174228E+04</pdfrwt>
<pdfrwt beam="2">  1       -2 0.18841435E+00 0.27174228E+04</pdfrwt>
<totfact> 0.17498692E+00</totfact>
</mgrwt>
</event>
<event>
12    1  0.4967442E-008  0.1469423E+04  0.7818608E-02  0.8905045E-01
         -2   -1    0    0    0  501 -0.00000000000E+00  0.00000000000E+00  0.97550805933E+03  0.97550805933E+03  0.00000000000E+00 0.  1.
          2   -1    0    0  501    0  0.00000000000E+00 -0.00000000000E+00 -0.55335386946E+03  0.55335386946E+03  0.00000000000E+00 0. -1.
         23    2    1    2    0    0  0.70235881123E+02  0.41705844926E+03  0.53157717717E+03  0.68484365880E+03  0.86981104909E+02 0.  0.
        254    2    1    2    0    0 -0.70235881123E+02 -0.41705844926E+03 -0.10942298730E+03  0.84401826999E+03  0.72216523097E+03 0.  0.
         23    2    4    4    0    0 -0.56554126375E+02 -0.37437255695E+03  0.25550151427E+03  0.46571838110E+03  0.90881274710E+02 0.  0.
         23    2    4    4    0    0 -0.13681754748E+02 -0.42685892311E+02 -0.36492450157E+03  0.37829988889E+03  0.89059745499E+02 0.  0.
         11    1    3    3    0    0  0.39653357215E+02  0.27730645360E+03  0.28401055588E+03  0.39891509597E+03  0.00000000000E+00 0.  1.
        -11    1    3    3    0    0  0.30582523908E+02  0.13975199566E+03  0.24756662130E+03  0.28592856283E+03  0.00000000000E+00 0. -1.
          2    1    5    5  502    0 -0.58527855754E+02 -0.11926260563E+03  0.69001925629E+02  0.14970085083E+03  0.00000000000E+00 0.  1.
          1    1    6    6  503    0  0.11454151614E+02  0.18208250249E+02 -0.19284734072E+03  0.19404338378E+03  0.00000000000E+00 0. -1.
         -2    1    5    5    0  502  0.19737293793E+01 -0.25510995132E+03  0.18649958864E+03  0.31601753026E+03  0.00000000000E+00 0. -1.
         -1    1    6    6    0  503 -0.25135906362E+02 -0.60894142560E+02 -0.17207716086E+03  0.18425650511E+03  0.00000000000E+00 0.  1.
<mgrwt>
<rscale>  0 0.14694232E+04</rscale>
<asrwt>0</asrwt>
<pdfrwt beam="1">  1        2 0.85131365E-01 0.14694232E+04</pdfrwt>
<pdfrwt beam="2">  1       -2 0.15007816E+00 0.14694232E+04</pdfrwt>
<totfact> 0.15823480E+01</totfact>
</mgrwt>
</event>
<event>
12    1  0.4967442E-008  0.1485558E+04  0.7818608E-02  0.8894114E-01
          2   -1    0    0  501    0  0.00000000000E+00  0.00000000000E+00  0.29930882189E+04  0.29930882189E+04  0.00000000000E+00 0.  1.
         -2   -1    0    0    0  501 -0.00000000000E+00 -0.00000000000E+00 -0.18433150175E+03  0.18433150175E+03  0.00000000000E+00 0. -1.
         23    2    1    2    0    0 -0.64668005065E+02 -0.43554676206E+03  0.54328507742E+03  0.70556187099E+03  0.93680017198E+02 0.  0.
        254    2    1    2    0    0  0.64668005065E+02  0.43554676206E+03  0.22654716397E+04  0.24718578497E+04  0.88534543862E+03 0.  0.
         23    2    4    4    0    0 -0.28775074437E+03  0.23737792580E+03  0.37729102140E+03  0.53879906565E+03  0.93846405204E+02 0.  0.
         23    2    4    4    0    0  0.35241874943E+03  0.19816883626E+03  0.18881806183E+04  0.19330587840E+04  0.89556420235E+02 0.  0.
         11    1    3    3    0    0 -0.67339428839E+01  0.32424992851E+01  0.11100792719E+02  0.13382353581E+02  0.00000000000E+00 0. -1.
        -11    1    3    3    0    0 -0.57934062182E+02 -0.43878926135E+03  0.53218428470E+03  0.69217951741E+03  0.00000000000E+00 0.  1.
          2    1    5    5  502    0 -0.19935225616E+03  0.10756830720E+03  0.20279883996E+03  0.30403886633E+03  0.00000000000E+00 0. -1.
          3    1    6    6  503    0  0.29151906604E+03  0.18066989987E+03  0.14319440700E+04  0.14724431392E+04  0.00000000000E+00 0. -1.
         -2    1    5    5    0  502 -0.88398488205E+02  0.12980961860E+03  0.17449218145E+03  0.23476019932E+03  0.00000000000E+00 0.  1.
         -3    1    6    6    0  503  0.60899683391E+02  0.17498936395E+02  0.45623654833E+03  0.46061564481E+03  0.00000000000E+00 0.  1.
<mgrwt>
<rscale>  0 0.14855577E+04</rscale>
<asrwt>0</asrwt>
<pdfrwt beam="1">  1        2 0.46047507E+00 0.14855577E+04</pdfrwt>
<pdfrwt beam="2">  1       -2 0.28358695E-01 0.14855577E+04</pdfrwt>
<totfact> 0.19512915E+01</totfact>
</mgrwt>
</event>
<event>
12    1  0.4967442E-008  0.2326386E+04  0.7818608E-02  0.8467590E-01
          1   -1    0    0  501    0  0.00000000000E+00  0.00000000000E+00  0.14020823508E+04  0.14020823508E+04  0.00000000000E+00 0. -1.
         -1   -1    0    0    0  501 -0.00000000000E+00 -0.00000000000E+00 -0.96500617491E+03  0.96500617491E+03  0.00000000000E+00 0.  1.
         23    2    1    2    0    0  0.64676327344E+02  0.83993910253E+03 -0.32490047044E+03  0.90753477329E+03  0.91533194945E+02 0.  0.
        254    2    1    2    0    0 -0.64676327344E+02 -0.83993910253E+03  0.76197664637E+03  0.14595537524E+04  0.91651951611E+03 0.  0.
         23    2    4    4    0    0 -0.10485283028E+03 -0.23354614122E+03  0.79855319232E+03  0.84348860743E+03  0.90818025834E+02 0.  0.
         23    2    4    4    0    0  0.40176502933E+02 -0.60639296131E+03 -0.36576545951E+02  0.61606514501E+03  0.94190468070E+02 0.  0.
         13    1    3    3    0    0  0.64642172137E+02  0.83352816420E+03 -0.31060057204E+03  0.89186351326E+03  0.00000000000E+00 0.  1.
        -13    1    3    3    0    0  0.34155206181E-01  0.64109383253E+01 -0.14299898401E+02  0.15671260035E+02  0.00000000000E+00 0. -1.
          2    1    5    5  502    0 -0.95559590371E+02 -0.20064513535E+03  0.76062062295E+03  0.79242276451E+03  0.00000000000E+00 0.  1.
          4    1    6    6  503    0  0.19366300184E+02 -0.48672148212E+02 -0.24489588683E+02  0.57825353853E+02  0.00000000000E+00 0. -1.
         -2    1    5    5    0  502 -0.92932399057E+01 -0.32901005868E+02  0.37932569365E+02  0.51065842926E+02  0.00000000000E+00 0. -1.
         -4    1    6    6    0  503  0.20810202749E+02 -0.55772081310E+03 -0.12086957268E+02  0.55823979116E+03  0.00000000000E+00 0.  1.
<mgrwt>
<rscale>  0 0.23263861E+04</rscale>
<asrwt>0</asrwt>
<pdfrwt beam="1">  1        1 0.21570498E+00 0.23263861E+04</pdfrwt>
<pdfrwt beam="2">  1       -1 0.14846249E+00 0.23263861E+04</pdfrwt>
<totfact> 0.24772175E+00</totfact>
</mgrwt>
</event>
