<event>
12    6  0.1529770E-007  0.1499090E+04  0.7818608E-02  0.8885058E-01
          2   -1    0    0  501    0  0.00000000000E+00  0.00000000000E+00  0.16527446618E+04  0.16527446618E+04  0.00000000000E+00 0. -1.
         -1   -1    0    0    0  501 -0.00000000000E+00 -0.00000000000E+00 -0.33993021631E+03  0.33993021631E+03  0.00000000000E+00 0.  1.
         24    2    1    2    0    0  0.12476405083E+03  0.36801806360E+03  0.71070935730E+03  0.81421069352E+03  0.82631104194E+02 0.  0.
        254    2    1    2    0    0 -0.12476405083E+03 -0.36801806360E+03  0.60210508821E+03  0.11784641846E+04  0.93554472563E+03 0.  0.
         23    2    4    4    0    0 -0.40689974902E+03 -0.50838285329E+03  0.27084000170E+03  0.71163555118E+03  0.95133169350E+02 0.  0.
         23    2    4    4    0    0  0.28213569819E+03  0.14036478970E+03  0.33126508652E+03  0.46682863344E+03  0.94284617368E+02 0.  0.
          4    1    3    3  502    0  0.99182662588E+02  0.35176145674E+03  0.67295683057E+03  0.76579646044E+03  0.00000000000E+00 0. -1.
         -3    1    3    3    0  502  0.25581388242E+02  0.16256606859E+02  0.37752526728E+02  0.48414233086E+02  0.00000000000E+00 0.  1.
         11    1    5    5    0    0 -0.28563797194E+03 -0.29291851989E+03  0.14384338930E+03  0.43368333027E+03  0.00000000000E+00 0.  1.
        -11    1    5    5    0    0 -0.12126177708E+03 -0.21546433340E+03  0.12699661240E+03  0.27795222091E+03  0.00000000000E+00 0. -1.
          3    1    6    6  503    0  0.56898168604E+02  0.74390595354E+02  0.82326657900E+02  0.12469579331E+03  0.00000000000E+00 0. -1.
         -3    1    6    6    0  503  0.22523752959E+03  0.65974194342E+02  0.24893842862E+03  0.34213284013E+03  0.00000000000E+00 0.  1.
<mgrwt>
<rscale>  0 0.14990902E+04</rscale>
<asrwt>0</asrwt>
<pdfrwt beam="1">  1        2 0.25426841E+00 0.14990902E+04</pdfrwt>
<pdfrwt beam="2">  1       -1 0.52296957E-01 0.14990902E+04</pdfrwt>
<totfact> 0.42245063E+01</totfact>
</mgrwt>
</event>
<event>
12    6  0.1529770E-007  0.1243605E+04  0.7818608E-02  0.9075523E-01
          2   -1    0    0  501    0  0.00000000000E+00  0.00000000000E+00  0.79181893299E+03  0.79181893299E+03  0.00000000000E+00 0. -1.
         -1   -1    0    0    0  501 -0.00000000000E+00 -0.00000000000E+00 -0.48829120546E+03  0.48829120546E+03  0.00000000000E+00 0.  1.
         24    2    1    2    0    0  0.14086828693E+03  0.13096559650E+03 -0.11784414420E+03  0.23867134705E+03  0.77980176013E+02 0.  0.
        254    2    1    2    0    0 -0.14086828693E+03 -0.13096559650E+03  0.42137187173E+03  0.10414387914E+04  0.93276183467E+03 0.  0.
         23    2    4    4    0    0 -0.40898478173E+03  0.84097169383E+02  0.51938765702E+03  0.67263269416E+03  0.91270572493E+02 0.  0.
         23    2    4    4    0    0  0.26811649480E+03 -0.21506276588E+03 -0.98015785289E+02  0.36880609723E+03  0.90952708250E+02 0.  0.
          4    1    3    3  502    0  0.39559048477E+02  0.71841317833E+02 -0.16501068527E+02  0.83656311937E+02  0.00000000000E+00 0. -1.
         -3    1    3    3    0  502  0.10130923845E+03  0.59124278663E+02 -0.10134307568E+03  0.15501503511E+03  0.00000000000E+00 0.  1.
         11    1    5    5    0    0 -0.22897094173E+03  0.68425581603E+02  0.23138953773E+03  0.33264225610E+03  0.00000000000E+00 0.  1.
        -11    1    5    5    0    0 -0.18001384000E+03  0.15671587780E+02  0.28799811929E+03  0.33999043806E+03  0.00000000000E+00 0. -1.
          2    1    6    6  503    0  0.13230151527E+03 -0.15386776698E+03 -0.30312166361E+02  0.20517750385E+03  0.00000000000E+00 0.  1.
         -2    1    6    6    0  503  0.13581497954E+03 -0.61194998902E+02 -0.67703618927E+02  0.16362859338E+03  0.00000000000E+00 0. -1.
<mgrwt>
<rscale>  0 0.12436048E+04</rscale>
<asrwt>0</asrwt>
<pdfrwt beam="1">  1        2 0.12181830E+00 0.12436048E+04</pdfrwt>
<pdfrwt beam="2">  1       -1 0.75121724E-01 0.12436048E+04</pdfrwt>
<totfact> 0.69924121E+01</totfact>
</mgrwt>
</event>
<event>
12    6  0.1529770E-007  0.1191501E+04  0.7818608E-02  0.9120328E-01
         -1   -1    0    0    0  501 -0.00000000000E+00  0.00000000000E+00  0.25811059357E+03  0.25811059357E+03  0.00000000000E+00 0.  1.
          2   -1    0    0  501    0  0.00000000000E+00 -0.00000000000E+00 -0.13750644155E+04  0.13750644155E+04  0.00000000000E+00 0. -1.
         24    2    1    2    0    0 -0.77960135102E+02  0.23423000523E+03 -0.16364698277E+03  0.30641290320E+03  0.78530594435E+02 0.  0.
        254    2    1    2    0    0  0.77960135102E+02 -0.23423000523E+03 -0.95330683920E+03  0.13267621059E+04  0.88913569155E+03 0.  0.
         23    2    4    4    0    0 -0.27658566812E+03 -0.15878615521E+03 -0.30981303807E+02  0.33156762229E+03  0.85232459021E+02 0.  0.
         23    2    4    4    0    0  0.35454580322E+03 -0.75443850021E+02 -0.92232553539E+03  0.99519448361E+03  0.91286175834E+02 0.  0.
          4    1    3    3  502    0 -0.52752396495E+02  0.20812112728E+03 -0.16391338377E+03  0.27012000358E+03  0.00000000000E+00 0. -1.
         -3    1    3    3    0  502 -0.25207738606E+02  0.26108877951E+02  0.26640099245E+00  0.36292899622E+02  0.00000000000E+00 0.  1.
         11    1    5    5    0    0 -0.24290012083E+01  0.84896329196E+01 -0.23340467885E+01  0.91335474154E+01  0.00000000000E+00 0. -1.
        -11    1    5    5    0    0 -0.27415666691E+03 -0.16727578813E+03 -0.28647257018E+02  0.32243407488E+03  0.00000000000E+00 0.  1.
          3    1    6    6  503    0  0.14571274601E+03  0.14023839576E+02 -0.34469061795E+03  0.37448697511E+03  0.00000000000E+00 0. -1.
         -3    1    6    6    0  503  0.20883305721E+03 -0.89467689598E+02 -0.57763491744E+03  0.62070750850E+03  0.00000000000E+00 0.  1.
<mgrwt>
<rscale>  0 0.11915011E+04</rscale>
<asrwt>0</asrwt>
<pdfrwt beam="1">  1        2 0.21154837E+00 0.11915011E+04</pdfrwt>
<pdfrwt beam="2">  1       -1 0.39709322E-01 0.11915011E+04</pdfrwt>
<totfact> 0.10381036E+02</totfact>
</mgrwt>
</event>
<event>
12    6  0.1529770E-007  0.1095181E+04  0.7818608E-02  0.9209901E-01
          2   -1    0    0  501    0  0.00000000000E+00  0.00000000000E+00  0.35564180078E+03  0.35564180078E+03  0.00000000000E+00 0. -1.
         -1   -1    0    0    0  501 -0.00000000000E+00 -0.00000000000E+00 -0.84313919008E+03  0.84313919008E+03  0.00000000000E+00 0.  1.
         24    2    1    2    0    0  0.14110224545E+03 -0.76903145627E+02 -0.47767558394E+02  0.18587194803E+03  0.80266455963E+02 0.  0.
        254    2    1    2    0    0 -0.14110224545E+03  0.76903145627E+02 -0.43972983091E+03  0.10129090428E+04  0.89821960976E+03 0.  0.
         23    2    4    4    0    0 -0.42655597809E+03  0.16847393865E+03 -0.50991790020E+03  0.69197268261E+03  0.92067682101E+02 0.  0.
         23    2    4    4    0    0  0.28545373264E+03 -0.91570793028E+02  0.70188069290E+02  0.32093636021E+03  0.90580012260E+02 0.  0.
          2    1    3    3  502    0  0.95357482952E+02 -0.90497748813E+02 -0.40759559270E+02  0.13763805348E+03  0.00000000000E+00 0. -1.
         -1    1    3    3    0  502  0.45744762496E+02  0.13594603186E+02 -0.70079991236E+01  0.48233894548E+02  0.00000000000E+00 0.  1.
         11    1    5    5    0    0 -0.42171208267E+02  0.47400017163E+02 -0.88306095031E+02  0.10873425796E+03  0.00000000000E+00 0. -1.
        -11    1    5    5    0    0 -0.38438476982E+03  0.12107392149E+03 -0.42161180517E+03  0.58323842466E+03  0.00000000000E+00 0.  1.
          1    1    6    6  503    0  0.85460780427E+02 -0.63266036640E+02 -0.22495042473E+01  0.10635410971E+03  0.00000000000E+00 0. -1.
         -1    1    6    6    0  503  0.19999295221E+03 -0.28304756388E+02  0.72437573537E+02  0.21458225050E+03  0.00000000000E+00 0.  1.
<mgrwt>
<rscale>  0 0.10951813E+04</rscale>
<asrwt>0</asrwt>
<pdfrwt beam="1">  1        2 0.54714124E-01 0.10951813E+04</pdfrwt>
<pdfrwt beam="2">  1       -1 0.12971372E+00 0.10951813E+04</pdfrwt>
<totfact> 0.52661303E+01</totfact>
</mgrwt>
</event>
<event>
12    6  0.1529770E-007  0.2413753E+04  0.7818608E-02  0.8434373E-01
         -1   -1    0    0    0  501 -0.00000000000E+00  0.00000000000E+00  0.86947758636E+03  0.86947758636E+03  0.00000000000E+00 0.  1.
          2   -1    0    0  501    0  0.00000000000E+00 -0.00000000000E+00 -0.16752021033E+04  0.16752021033E+04  0.00000000000E+00 0. -1.
         24    2    1    2    0    0 -0.11250293947E+03  0.77770570322E+03  0.36625886781E+03  0.87058900198E+03  0.79350991843E+02 0.  0.
        254    2    1    2    0    0  0.11250293947E+03 -0.77770570322E+03 -0.11719833848E+04  0.16740906877E+04  0.90086153446E+03 0.  0.
         23    2    4    4    0    0  0.24774094587E+03  0.39380975965E+02 -0.61891121908E+03  0.67395988812E+03  0.90798657307E+02 0.  0.
         23    2    4    4    0    0 -0.13523800640E+03 -0.81708667919E+03 -0.55307216571E+03  0.10001307996E+04  0.91939306773E+02 0.  0.
          4    1    3    3  502    0 -0.49436486728E+01  0.30235684758E+03  0.14417216695E+03  0.33500703972E+03  0.00000000000E+00 0. -1.
         -3    1    3    3    0  502 -0.10755929080E+03  0.47534885564E+03  0.22208670086E+03  0.53558196226E+03  0.00000000000E+00 0.  1.
         11    1    5    5    0    0  0.13964669011E+03 -0.17708749624E+01 -0.43339596382E+03  0.45534206429E+03  0.00000000000E+00 0. -1.
        -11    1    5    5    0    0  0.10809425577E+03  0.41151850928E+02 -0.18551525526E+03  0.21861782383E+03  0.00000000000E+00 0.  1.
          2    1    6    6  503    0 -0.80698786162E+02 -0.58991496110E+03 -0.35052179228E+03  0.69092509166E+03  0.00000000000E+00 0. -1.
         -2    1    6    6    0  503 -0.54539220239E+02 -0.22717171808E+03 -0.20255037343E+03  0.30920570794E+03  0.00000000000E+00 0.  1.
<mgrwt>
<rscale>  0 0.24137528E+04</rscale>
<asrwt>0</asrwt>
<pdfrwt beam="1">  1        2 0.25772340E+00 0.24137528E+04</pdfrwt>
<pdfrwt beam="2">  1       -1 0.13376578E+00 0.24137528E+04</pdfrwt>
<totfact> 0.48832101E+00</totfact>
</mgrwt>
</event>
<event>
12    6  0.1529770E-007  0.2112586E+04  0.7818608E-02  0.8555719E-01
          2   -1    0    0  501    0  0.00000000000E+00  0.00000000000E+00  0.38263391482E+04  0.38263391482E+04  0.00000000000E+00 0. -1.
         -1   -1    0    0    0  501 -0.00000000000E+00 -0.00000000000E+00 -0.29159863607E+03  0.29159863607E+03  0.00000000000E+00 0.  1.
         24    2    1    2    0    0  0.63220410044E+03 -0.22928800855E+01  0.25278359590E+04  0.26069034175E+04  0.79394650599E+02 0.  0.
        254    2    1    2    0    0 -0.63220410044E+03  0.22928800855E+01  0.10069045531E+04  0.15110343668E+04  0.93256677863E+03 0.  0.
         23    2    4    4    0    0 -0.49285633901E+01  0.10216783086E+02 -0.15751080192E+03  0.18516050832E+03  0.96675166026E+02 0.  0.
         23    2    4    4    0    0 -0.62727553705E+03 -0.79239030005E+01  0.11644153550E+04  0.13258738585E+04  0.92417432810E+02 0.  0.
          2    1    3    3  502    0  0.51318637162E+03 -0.12874762925E+02  0.19205012705E+04  0.19879263421E+04  0.00000000000E+00 0. -1.
         -1    1    3    3    0  502  0.11901772882E+03  0.10581882840E+02  0.60733468846E+03  0.61897707536E+03  0.00000000000E+00 0.  1.
         11    1    5    5    0    0 -0.42593281610E+02  0.16215424661E+02 -0.36830974569E+02  0.58597340579E+02  0.00000000000E+00 0. -1.
        -11    1    5    5    0    0  0.37664718220E+02 -0.59986415746E+01 -0.12067982735E+03  0.12656316774E+03  0.00000000000E+00 0.  1.
          4    1    6    6  503    0 -0.34456582175E+02 -0.81072885059E+01  0.11808157977E+03  0.12327304516E+03  0.00000000000E+00 0. -1.
         -4    1    6    6    0  503 -0.59281895487E+03  0.18338550547E+00  0.10463337753E+04  0.12026008133E+04  0.00000000000E+00 0.  1.
<mgrwt>
<rscale>  0 0.21125864E+04</rscale>
<asrwt>0</asrwt>
<pdfrwt beam="1">  1        2 0.58866752E+00 0.21125864E+04</pdfrwt>
<pdfrwt beam="2">  1       -1 0.44861331E-01 0.21125864E+04</pdfrwt>
<totfact> 0.24365913E+00</totfact>
</mgrwt>
</event>
<event>
12    6  0.1529770E-007  0.1479889E+04  0.7818608E-02  0.8897938E-01
          2   -1    0    0  501    0  0.00000000000E+00  0.00000000000E+00  0.16655881943E+04  0.16655881943E+04  0.00000000000E+00 0. -1.
         -1   -1    0    0    0  501 -0.00000000000E+00 -0.00000000000E+00 -0.32872330884E+03  0.32872330884E+03  0.00000000000E+00 0.  1.
         24    2    1    2    0    0  0.18779755403E+03  0.87542115064E+02 -0.13291754453E+03  0.25892394876E+03  0.80268265142E+02 0.  0.
        254    2    1    2    0    0 -0.18779755403E+03 -0.87542115064E+02  0.14697824299E+04  0.17353875543E+04  0.89909845353E+03 0.  0.
         23    2    4    4    0    0 -0.47055765678E+03 -0.16140919338E+03  0.47198523163E+03  0.69174830602E+03  0.90929774782E+02 0.  0.
         23    2    4    4    0    0  0.28276010275E+03  0.73867078312E+02  0.99779719831E+03  0.10436392483E+04  0.90410235546E+02 0.  0.
          2    1    3    3  502    0  0.56565086206E+02  0.31338016141E+02 -0.88114726883E+02  0.10929723385E+03  0.00000000000E+00 0. -1.
         -1    1    3    3    0  502  0.13123246782E+03  0.56204098923E+02 -0.44802817650E+02  0.14962671492E+03  0.00000000000E+00 0.  1.
         11    1    5    5    0    0 -0.13234834769E+02 -0.24358383128E+02  0.18841078259E+02  0.33518322004E+02  0.00000000000E+00 0.  1.
        -11    1    5    5    0    0 -0.45732282201E+03 -0.13705081025E+03  0.45314415338E+03  0.65822998402E+03  0.00000000000E+00 0. -1.
          3    1    6    6  503    0  0.28625146265E+03  0.71044780972E+02  0.99608844927E+03  0.10388356268E+04  0.00000000000E+00 0. -1.
         -3    1    6    6    0  503 -0.34913598958E+01  0.28222973405E+01  0.17087490425E+01  0.48036214974E+01  0.00000000000E+00 0.  1.
<mgrwt>
<rscale>  0 0.14798887E+04</rscale>
<asrwt>0</asrwt>
<pdfrwt beam="1">  1        2 0.25624433E+00 0.14798887E+04</pdfrwt>
<pdfrwt beam="2">  1       -1 0.50572818E-01 0.14798887E+04</pdfrwt>
<totfact> 0.44375780E+01</totfact>
</mgrwt>
</event>
<event>
12    6  0.1529770E-007  0.2630072E+04  0.7818608E-02  0.8358058E-01
          2   -1    0    0  501    0  0.00000000000E+00  0.00000000000E+00  0.25355214587E+04  0.25355214587E+04  0.00000000000E+00 0. -1.
         -1   -1    0    0    0  501 -0.00000000000E+00 -0.00000000000E+00 -0.68203720316E+03  0.68203720316E+03  0.00000000000E+00 0.  1.
         24    2    1    2    0    0 -0.58519690218E+03 -0.99497122692E+03  0.68924383302E+03  0.13469814766E+04  0.82939014405E+02 0.  0.
        254    2    1    2    0    0  0.58519690218E+03  0.99497122692E+03  0.11642404225E+04  0.18705771853E+04  0.90065536583E+03 0.  0.
         23    2    4    4    0    0  0.21474200383E+03  0.99889036857E+03  0.59782676626E+03  0.11873492544E+04  0.92224252642E+02 0.  0.
         23    2    4    4    0    0  0.37045489835E+03 -0.39191416570E+01  0.56641365623E+03  0.68322793089E+03  0.93401200270E+02 0.  0.
          2    1    3    3  502    0 -0.40834813462E+02 -0.10925343217E+03  0.87055889693E+02  0.14554216696E+03  0.00000000000E+00 0. -1.
         -3    1    3    3    0  502 -0.54436208872E+03 -0.88571779474E+03  0.60218794333E+03  0.12014393096E+04  0.00000000000E+00 0.  1.
         11    1    5    5    0    0  0.13594690749E+03  0.46263635032E+03  0.24783977784E+03  0.54216096298E+03  0.00000000000E+00 0.  1.
        -11    1    5    5    0    0  0.78795096342E+02  0.53625401825E+03  0.34998698842E+03  0.64518829140E+03  0.00000000000E+00 0. -1.
          1    1    6    6  503    0  0.27199877364E+03 -0.20320691375E+02  0.34071459700E+03  0.43644323797E+03  0.00000000000E+00 0. -1.
         -1    1    6    6    0  503  0.98456124701E+02  0.16401549718E+02  0.22569905923E+03  0.24678469292E+03  0.00000000000E+00 0.  1.
<mgrwt>
<rscale>  0 0.26300722E+04</rscale>
<asrwt>0</asrwt>
<pdfrwt beam="1">  1        2 0.39008022E+00 0.26300722E+04</pdfrwt>
<pdfrwt beam="2">  1       -1 0.10492880E+00 0.26300722E+04</pdfrwt>
<totfact> 0.28392819E+00</totfact>
</mgrwt>
</event>
<event>
12    6  0.1529770E-007  0.1353071E+04  0.7818608E-02  0.8988507E-01
          2   -1    0    0  501    0  0.00000000000E+00  0.00000000000E+00  0.61801244273E+03  0.61801244273E+03  0.00000000000E+00 0. -1.
         -1   -1    0    0    0  501 -0.00000000000E+00 -0.00000000000E+00 -0.74060049689E+03  0.74060049689E+03  0.00000000000E+00 0.  1.
         24    2    1    2    0    0  0.99280210779E+02 -0.33484792930E+03 -0.16050039778E+03  0.39193417266E+03  0.76631077250E+02 0.  0.
        254    2    1    2    0    0 -0.99280210779E+02  0.33484792930E+03  0.37912343613E+02  0.96667876697E+03  0.90058358673E+03 0.  0.
         23    2    4    4    0    0  0.26444950665E+03  0.33803756711E+03  0.27966986336E+03  0.52031456192E+03  0.91154114163E+02 0.  0.
         23    2    4    4    0    0 -0.36372971743E+03 -0.31896378056E+01 -0.24175751975E+03  0.44636420504E+03  0.92113104687E+02 0.  0.
          2    1    3    3  502    0 -0.43896516310E+01 -0.41344703669E+01  0.50293768358E+01  0.78522301299E+01  0.00000000000E+00 0. -1.
         -1    1    3    3    0  502  0.10366986241E+03 -0.33071345894E+03 -0.16552977461E+03  0.38408194253E+03  0.00000000000E+00 0.  1.
         11    1    5    5    0    0  0.14973241221E+03  0.23005420511E+03  0.22027380532E+03  0.35194499836E+03  0.00000000000E+00 0. -1.
        -11    1    5    5    0    0  0.11471709444E+03  0.10798336200E+03  0.59396058045E+02  0.16836956357E+03  0.00000000000E+00 0.  1.
          2    1    6    6  503    0 -0.24025631171E+03 -0.42389161907E+02 -0.17785297091E+03  0.30191325845E+03  0.00000000000E+00 0. -1.
         -2    1    6    6    0  503 -0.12347340572E+03  0.39199524101E+02 -0.63904548839E+02  0.14445094659E+03  0.00000000000E+00 0.  1.
<mgrwt>
<rscale>  0 0.13530711E+04</rscale>
<asrwt>0</asrwt>
<pdfrwt beam="1">  1        2 0.95078838E-01 0.13530711E+04</pdfrwt>
<pdfrwt beam="2">  1       -1 0.11393854E+00 0.13530711E+04</pdfrwt>
<totfact> 0.37486194E+01</totfact>
</mgrwt>
</event>
<event>
12    6  0.1529770E-007  0.2438574E+04  0.7818608E-02  0.8425202E-01
          2   -1    0    0  501    0  0.00000000000E+00  0.00000000000E+00  0.12855991298E+04  0.12855991298E+04  0.00000000000E+00 0. -1.
         -1   -1    0    0    0  501 -0.00000000000E+00 -0.00000000000E+00 -0.11563950737E+04  0.11563950737E+04  0.00000000000E+00 0.  1.
         24    2    1    2    0    0 -0.97437536828E+03  0.37652628671E+03 -0.94085945595E+02  0.10520560390E+04  0.82403526086E+02 0.  0.
        254    2    1    2    0    0  0.97437536828E+03 -0.37652628671E+03  0.22329000167E+03  0.13899381645E+04  0.88932011869E+03 0.  0.
         23    2    4    4    0    0  0.86963286565E+03  0.93913755884E+02  0.10795529981E+03  0.88620655417E+03  0.92879466718E+02 0.  0.
         23    2    4    4    0    0  0.10474250263E+03 -0.47044004259E+03  0.11533470186E+03  0.50373161037E+03  0.90325059088E+02 0.  0.
          2    1    3    3  502    0 -0.93279824899E+03  0.37721220683E+03 -0.92820837599E+02  0.10104540218E+04  0.00000000000E+00 0. -1.
         -1    1    3    3    0  502 -0.41577119288E+02 -0.68592011640E+00 -0.12651079965E+01  0.41602017174E+02  0.00000000000E+00 0.  1.
         11    1    5    5    0    0  0.20219994876E+03  0.74566389031E+01 -0.11561282351E+02  0.20266742213E+03  0.00000000000E+00 0. -1.
        -11    1    5    5    0    0  0.66743291689E+03  0.86457116981E+02  0.11951658216E+03  0.68353913204E+03  0.00000000000E+00 0.  1.
          1    1    6    6  503    0 -0.16039553732E+02 -0.81609863001E+02  0.17787617322E+02  0.85051962664E+02  0.00000000000E+00 0. -1.
         -1    1    6    6    0  503  0.12078205636E+03 -0.38883017959E+03  0.97547084538E+02  0.41867964770E+03  0.00000000000E+00 0.  1.
<mgrwt>
<rscale>  0 0.24385738E+04</rscale>
<asrwt>0</asrwt>
<pdfrwt beam="1">  1        2 0.19778448E+00 0.24385738E+04</pdfrwt>
<pdfrwt beam="2">  1       -1 0.17790693E+00 0.24385738E+04</pdfrwt>
<totfact> 0.37099180E+00</totfact>
</mgrwt>
</event>
<event>
12    6  0.1529770E-007  0.1782619E+04  0.7818608E-02  0.8715598E-01
         -1   -1    0    0    0  501 -0.00000000000E+00  0.00000000000E+00  0.96292244583E+03  0.96292244583E+03  0.00000000000E+00 0.  1.
          2   -1    0    0  501    0  0.00000000000E+00 -0.00000000000E+00 -0.82502219573E+03  0.82502219573E+03  0.00000000000E+00 0. -1.
         24    2    1    2    0    0 -0.41388017005E+03  0.39258407134E+03 -0.27359497643E+03  0.63766029576E+03  0.79607747308E+02 0.  0.
        254    2    1    2    0    0  0.41388017005E+03 -0.39258407134E+03  0.41149522654E+03  0.11502843458E+04  0.91016850446E+03 0.  0.
         23    2    4    4    0    0  0.23387490304E+03  0.22790047358E+03 -0.59198456997E+02  0.34554367816E+03  0.96228270659E+02 0.  0.
         23    2    4    4    0    0  0.18000526700E+03 -0.62048454492E+03  0.47069368353E+03  0.80474066764E+03  0.93016298581E+02 0.  0.
          4    1    3    3  502    0 -0.29204159057E+03  0.28953088176E+03 -0.23436655877E+03  0.47333297581E+03  0.00000000000E+00 0. -1.
         -3    1    3    3    0  502 -0.12183857947E+03  0.10305318958E+03 -0.39228417667E+02  0.16432731995E+03  0.00000000000E+00 0.  1.
         11    1    5    5    0    0  0.48352411074E+02  0.76814725060E+02  0.21067087157E+02  0.93178751891E+02  0.00000000000E+00 0. -1.
        -11    1    5    5    0    0  0.18552249197E+03  0.15108574852E+03 -0.80265544154E+02  0.25236492627E+03  0.00000000000E+00 0.  1.
          1    1    6    6  503    0  0.74162779361E+02 -0.23390581128E+03  0.12468205873E+03  0.27524109824E+03  0.00000000000E+00 0. -1.
         -1    1    6    6    0  503  0.10584248764E+03 -0.38657873364E+03  0.34601162480E+03  0.52949956940E+03  0.00000000000E+00 0.  1.
<mgrwt>
<rscale>  0 0.17826187E+04</rscale>
<asrwt>0</asrwt>
<pdfrwt beam="1">  1        2 0.12692649E+00 0.17826187E+04</pdfrwt>
<pdfrwt beam="2">  1       -1 0.14814192E+00 0.17826187E+04</pdfrwt>
<totfact> 0.12869323E+01</totfact>
</mgrwt>
</event>
<event>
12    6  0.1529770E-007  0.2938455E+04  0.7818608E-02  0.8261527E-01
         -1   -1    0    0    0  501 -0.00000000000E+00  0.00000000000E+00  0.73982559372E+03  0.73982559372E+03  0.00000000000E+00 0.  1.
          2   -1    0    0  501    0  0.00000000000E+00 -0.00000000000E+00 -0.29177547586E+04  0.29177547586E+04  0.00000000000E+00 0. -1.
         24    2    1    2    0    0  0.90100595346E+03  0.25155418031E+03 -0.21659976956E+04  0.23607088313E+04  0.79428805924E+02 0.  0.
        254    2    1    2    0    0 -0.90100595346E+03 -0.25155418031E+03 -0.11931469279E+02  0.12968715210E+04  0.89813258941E+03 0.  0.
         23    2    4    4    0    0  0.15176956119E+03 -0.71704999275E+02 -0.11070130803E+03  0.22036439074E+03  0.90166947826E+02 0.  0.
         23    2    4    4    0    0 -0.10527755147E+04 -0.17984918104E+03  0.98769838751E+02  0.10765071302E+04  0.91815620906E+02 0.  0.
          4    1    3    3  502    0  0.72644568717E+03  0.17943816429E+03 -0.17838386970E+04  0.19344254672E+04  0.00000000000E+00 0. -1.
         -3    1    3    3    0  502  0.17456026629E+03  0.72116016020E+02 -0.38215899853E+03  0.42628336408E+03  0.00000000000E+00 0.  1.
         11    1    5    5    0    0  0.14350101335E+03 -0.29560305355E+02 -0.95091117642E+02  0.17466732132E+03  0.00000000000E+00 0.  1.
        -11    1    5    5    0    0  0.82685478455E+01 -0.42144693920E+02 -0.15610190388E+02  0.45697069414E+02  0.00000000000E+00 0. -1.
          1    1    6    6  503    0 -0.81328196365E+01 -0.24576658568E+01  0.10111995570E+02  0.13207396833E+02  0.00000000000E+00 0. -1.
         -1    1    6    6    0  503 -0.10446426950E+04 -0.17739151518E+03  0.88657843181E+02  0.10632997334E+04  0.00000000000E+00 0.  1.
<mgrwt>
<rscale>  0 0.29384551E+04</rscale>
<asrwt>0</asrwt>
<pdfrwt beam="1">  1        2 0.44888534E+00 0.29384551E+04</pdfrwt>
<pdfrwt beam="2">  1       -1 0.11381932E+00 0.29384551E+04</pdfrwt>
<totfact> 0.13468713E+00</totfact>
</mgrwt>
</event>
<event>
12    6  0.1529770E-007  0.1686007E+04  0.7818608E-02  0.8769386E-01
         -1   -1    0    0    0  501 -0.00000000000E+00  0.00000000000E+00  0.45222636111E+03  0.45222636111E+03  0.00000000000E+00 0.  1.
          2   -1    0    0  501    0  0.00000000000E+00 -0.00000000000E+00 -0.15714577981E+04  0.15714577981E+04  0.00000000000E+00 0. -1.
         24    2    1    2    0    0 -0.90432032386E+02  0.38279599570E+03  0.14244479969E+03  0.42486579618E+03  0.74227333258E+02 0.  0.
        254    2    1    2    0    0  0.90432032386E+02 -0.38279599570E+03 -0.12616762366E+04  0.15988183630E+04  0.89982359655E+03 0.  0.
         23    2    4    4    0    0 -0.86008166837E+02 -0.33439539837E+03 -0.38792685877E+02  0.35903006518E+03  0.90443507303E+02 0.  0.
         23    2    4    4    0    0  0.17644019922E+03 -0.48400597331E+02 -0.12228835508E+04  0.12397882978E+04  0.90316570590E+02 0.  0.
          2    1    3    3  502    0 -0.67533841629E+02  0.13730333813E+03  0.66852021219E+02  0.16697969687E+03  0.00000000000E+00 0. -1.
         -1    1    3    3    0  502 -0.22898190757E+02  0.24549265757E+03  0.75592778471E+02  0.25788609931E+03  0.00000000000E+00 0.  1.
         11    1    5    5    0    0  0.17782741132E+02 -0.79886056980E+02 -0.35217277029E+01  0.81917095579E+02  0.00000000000E+00 0. -1.
        -11    1    5    5    0    0 -0.10379090797E+03 -0.25450934139E+03 -0.35270958174E+02  0.27711296960E+03  0.00000000000E+00 0.  1.
          2    1    6    6  503    0  0.19133552334E+02  0.19051411969E+02 -0.87351707097E+02  0.91429589607E+02  0.00000000000E+00 0. -1.
         -2    1    6    6    0  503  0.15730664689E+03 -0.67452009301E+02 -0.11355318437E+04  0.11483587082E+04  0.00000000000E+00 0.  1.
<mgrwt>
<rscale>  0 0.16860067E+04</rscale>
<asrwt>0</asrwt>
<pdfrwt beam="1">  1        2 0.24176274E+00 0.16860067E+04</pdfrwt>
<pdfrwt beam="2">  1       -1 0.69573287E-01 0.16860067E+04</pdfrwt>
<totfact> 0.26237004E+01</totfact>
</mgrwt>
</event>
<event>
12    6  0.1529770E-007  0.2029954E+04  0.7818608E-02  0.8592743E-01
          2   -1    0    0  501    0  0.00000000000E+00  0.00000000000E+00  0.94313737154E+03  0.94313737154E+03  0.00000000000E+00 0. -1.
         -1   -1    0    0    0  501 -0.00000000000E+00 -0.00000000000E+00 -0.10922888985E+04  0.10922888985E+04  0.00000000000E+00 0.  1.
         24    2    1    2    0    0 -0.55423781558E+03  0.53835153439E+03  0.19636981956E+03  0.80127986546E+03  0.80538102436E+02 0.  0.
        254    2    1    2    0    0  0.55423781558E+03 -0.53835153439E+03 -0.34552134648E+03  0.12341464045E+04  0.89818172780E+03 0.  0.
         23    2    4    4    0    0  0.24730594687E+03  0.20034907298E+03 -0.26660560195E+03  0.42455112843E+03  0.88685575262E+02 0.  0.
         23    2    4    4    0    0  0.30693186872E+03 -0.73870060737E+03 -0.78915744531E+02  0.80959527611E+03  0.96597396462E+02 0.  0.
          2    1    3    3  502    0 -0.27122232529E+03  0.26287758787E+03  0.54494916158E+02  0.38162268254E+03  0.00000000000E+00 0. -1.
         -1    1    3    3    0  502 -0.28301549030E+03  0.27547394652E+03  0.14187490340E+03  0.41965718292E+03  0.00000000000E+00 0.  1.
         11    1    5    5    0    0  0.74597556108E+02  0.10013329513E+03 -0.64894220306E+02  0.14072218020E+03  0.00000000000E+00 0.  1.
        -11    1    5    5    0    0  0.17270839076E+03  0.10021577785E+03 -0.20171138164E+03  0.28382894823E+03  0.00000000000E+00 0. -1.
          1    1    6    6  503    0  0.16808373528E+02 -0.81148553712E+02 -0.33705165387E+02  0.89463106161E+02  0.00000000000E+00 0. -1.
         -1    1    6    6    0  503  0.29012349519E+03 -0.65755205366E+03 -0.45210579145E+02  0.72013216995E+03  0.00000000000E+00 0.  1.
<mgrwt>
<rscale>  0 0.20299542E+04</rscale>
<asrwt>0</asrwt>
<pdfrwt beam="1">  1        2 0.14509806E+00 0.20299542E+04</pdfrwt>
<pdfrwt beam="2">  1       -1 0.16804445E+00 0.20299542E+04</pdfrwt>
<totfact> 0.73789266E+00</totfact>
</mgrwt>
</event>
<event>
12    6  0.1529770E-007  0.2366665E+04  0.7818608E-02  0.8452090E-01
         -1   -1    0    0    0  501 -0.00000000000E+00  0.00000000000E+00  0.71580688445E+03  0.71580688445E+03  0.00000000000E+00 0.  1.
          2   -1    0    0  501    0  0.00000000000E+00 -0.00000000000E+00 -0.19562200467E+04  0.19562200467E+04  0.00000000000E+00 0. -1.
         24    2    1    2    0    0  0.95054276869E+03 -0.77645034121E+02 -0.14788155322E+03  0.96823183839E+03  0.77740804283E+02 0.  0.
        254    2    1    2    0    0 -0.95054276869E+03  0.77645034121E+02 -0.10925316090E+04  0.17037950928E+04  0.89427741499E+03 0.  0.
         23    2    4    4    0    0 -0.31665461539E+03  0.44799952367E+03 -0.36160981602E+03  0.66355904475E+03  0.92602527879E+02 0.  0.
         23    2    4    4    0    0 -0.63388815330E+03 -0.37035448955E+03 -0.73092179300E+03  0.10402360480E+04  0.94168621498E+02 0.  0.
          2    1    3    3  502    0  0.11057999558E+03  0.66078835289E+00 -0.40751571695E+02  0.11785186744E+03  0.00000000000E+00 0. -1.
         -1    1    3    3    0  502  0.83996277311E+03 -0.78305822474E+02 -0.10712998152E+03  0.85037997094E+03  0.00000000000E+00 0.  1.
         11    1    5    5    0    0 -0.30823753713E+03  0.43133044044E+03 -0.36620167147E+03  0.64432910250E+03  0.00000000000E+00 0. -1.
        -11    1    5    5    0    0 -0.84170782645E+01  0.16669083231E+02  0.45918554533E+01  0.19229942246E+02  0.00000000000E+00 0.  1.
          3    1    6    6  503    0 -0.16690259339E+03 -0.97540770487E+02 -0.25369055960E+03  0.31895074481E+03  0.00000000000E+00 0. -1.
         -3    1    6    6    0  503 -0.46698555991E+03 -0.27281371906E+03 -0.47723123339E+03  0.72128530319E+03  0.00000000000E+00 0.  1.
<mgrwt>
<rscale>  0 0.23666650E+04</rscale>
<asrwt>0</asrwt>
<pdfrwt beam="1">  1        2 0.30095693E+00 0.23666650E+04</pdfrwt>
<pdfrwt beam="2">  1       -1 0.11012414E+00 0.23666650E+04</pdfrwt>
<totfact> 0.55193322E+00</totfact>
</mgrwt>
</event>
<event>
12    6  0.1529770E-007  0.1252823E+04  0.7818608E-02  0.9067837E-01
          2   -1    0    0  501    0  0.00000000000E+00  0.00000000000E+00  0.97193479921E+03  0.97193479921E+03  0.00000000000E+00 0. -1.
         -1   -1    0    0    0  501 -0.00000000000E+00 -0.00000000000E+00 -0.40372162098E+03  0.40372162098E+03  0.00000000000E+00 0.  1.
         24    2    1    2    0    0  0.20722132353E+03  0.11701374787E+03 -0.54514986863E+02  0.25695909509E+03  0.80144860343E+02 0.  0.
        254    2    1    2    0    0 -0.20722132353E+03 -0.11701374787E+03  0.62272816510E+03  0.11186973251E+04  0.89836542870E+03 0.  0.
         23    2    4    4    0    0 -0.95969304796E+02  0.38166628486E+03  0.21299290072E+03  0.45675879988E+03  0.91560717845E+02 0.  0.
         23    2    4    4    0    0 -0.11125201874E+03 -0.49868003273E+03  0.40973526438E+03  0.66193852522E+03  0.96025192418E+02 0.  0.
          4    1    3    3  502    0  0.93241350777E+02  0.33919371476E+02  0.13902114275E+02  0.10018853246E+03  0.00000000000E+00 0. -1.
         -3    1    3    3    0  502  0.11397997276E+03  0.83094376393E+02 -0.68417101139E+02  0.15677056262E+03  0.00000000000E+00 0.  1.
         11    1    5    5    0    0 -0.79889817890E+02  0.32240308593E+03  0.21439491576E+03  0.39533696099E+03  0.00000000000E+00 0. -1.
        -11    1    5    5    0    0 -0.16079486906E+02  0.59263198935E+02 -0.14020150477E+01  0.61421838896E+02  0.00000000000E+00 0.  1.
          2    1    6    6  503    0 -0.35914471274E+02 -0.19975343282E+03  0.10516669890E+03  0.22858547139E+03  0.00000000000E+00 0. -1.
         -2    1    6    6    0  503 -0.75337547462E+02 -0.29892659991E+03  0.30456856548E+03  0.43335305384E+03  0.00000000000E+00 0.  1.
<mgrwt>
<rscale>  0 0.12528226E+04</rscale>
<asrwt>0</asrwt>
<pdfrwt beam="1">  1        2 0.14952843E+00 0.12528226E+04</pdfrwt>
<pdfrwt beam="2">  1       -1 0.62111019E-01 0.12528226E+04</pdfrwt>
<totfact> 0.77475932E+01</totfact>
</mgrwt>
</event>
<event>
12    6  0.1529770E-007  0.3598030E+04  0.7818608E-02  0.8090943E-01
          2   -1    0    0  501    0  0.00000000000E+00  0.00000000000E+00  0.37055470694E+04  0.37055470694E+04  0.00000000000E+00 0. -1.
         -1   -1    0    0    0  501 -0.00000000000E+00 -0.00000000000E+00 -0.87340824833E+03  0.87340824833E+03  0.00000000000E+00 0.  1.
         24    2    1    2    0    0 -0.47667670086E+03  0.28273013496E+03  0.33524631200E+04  0.33991814804E+04  0.90932718233E+02 0.  0.
        254    2    1    2    0    0  0.47667670086E+03 -0.28273013496E+03 -0.52032429889E+03  0.11797738374E+04  0.90220392652E+03 0.  0.
         23    2    4    4    0    0 -0.18921650169E+02  0.17833083300E+03  0.12753002462E+03  0.23828452515E+03  0.91409479295E+02 0.  0.
         23    2    4    4    0    0  0.49559835103E+03 -0.46106096796E+03 -0.64785432351E+03  0.94148931224E+03  0.92151824966E+02 0.  0.
          2    1    3    3  502    0 -0.20272584511E+03  0.88573482134E+02  0.15501618160E+04  0.15658686681E+04  0.00000000000E+00 0. -1.
         -1    1    3    3    0  502 -0.27395085575E+03  0.19415665283E+03  0.18023013040E+04  0.18333128123E+04  0.00000000000E+00 0.  1.
         11    1    5    5    0    0  0.24292756958E+02  0.37229524937E+02  0.19234559681E+01  0.44495789133E+02  0.00000000000E+00 0. -1.
        -11    1    5    5    0    0 -0.43214407127E+02  0.14110130806E+03  0.12560656866E+03  0.19378873602E+03  0.00000000000E+00 0.  1.
          3    1    6    6  503    0  0.23210294946E+03 -0.20628070813E+03 -0.23507399700E+03  0.38946539482E+03  0.00000000000E+00 0. -1.
         -3    1    6    6    0  503  0.26349540157E+03 -0.25478025982E+03 -0.41278032652E+03  0.55202391742E+03  0.00000000000E+00 0.  1.
<mgrwt>
<rscale>  0 0.35980302E+04</rscale>
<asrwt>0</asrwt>
<pdfrwt beam="1">  1        2 0.57008416E+00 0.35980302E+04</pdfrwt>
<pdfrwt beam="2">  1       -1 0.13437050E+00 0.35980302E+04</pdfrwt>
<totfact> 0.24884619E-01</totfact>
</mgrwt>
</event>
<event>
12    6  0.1529770E-007  0.2500759E+04  0.7818608E-02  0.8402715E-01
          2   -1    0    0  501    0  0.00000000000E+00  0.00000000000E+00  0.27860866326E+04  0.27860866326E+04  0.00000000000E+00 0. -1.
         -1   -1    0    0    0  501 -0.00000000000E+00 -0.00000000000E+00 -0.56116324394E+03  0.56116324394E+03  0.00000000000E+00 0.  1.
         24    2    1    2    0    0 -0.92061174475E+03 -0.57083037968E+03  0.86303767078E+03  0.13873928228E+04  0.81556831053E+02 0.  0.
        254    2    1    2    0    0  0.92061174475E+03  0.57083037968E+03  0.13618857178E+04  0.19598570537E+04  0.90162833556E+03 0.  0.
         23    2    4    4    0    0  0.90326075092E+03  0.23221663341E+03  0.57771403120E+03  0.11007668631E+04  0.90164494527E+02 0.  0.
         23    2    4    4    0    0  0.17350993823E+02  0.33861374626E+03  0.78417168664E+03  0.85909019058E+03  0.90279539590E+02 0.  0.
          2    1    3    3  502    0 -0.39915233880E+03 -0.28516102322E+03  0.42211377137E+03  0.64716260299E+03  0.00000000000E+00 0. -1.
         -1    1    3    3    0  502 -0.52145940595E+03 -0.28566935645E+03  0.44092389942E+03  0.74023021983E+03  0.00000000000E+00 0.  1.
         11    1    5    5    0    0  0.10396262096E+03  0.32814314095E+02  0.35955110587E+02  0.11479449352E+03  0.00000000000E+00 0. -1.
        -11    1    5    5    0    0  0.79929812996E+03  0.19940231932E+03  0.54175892061E+03  0.98597236958E+03  0.00000000000E+00 0.  1.
          1    1    6    6  503    0  0.37382690107E+02  0.72877970573E+02  0.23059040686E+03  0.24470512837E+03  0.00000000000E+00 0. -1.
         -1    1    6    6    0  503 -0.20031696284E+02  0.26573577569E+03  0.55358127978E+03  0.61438506221E+03  0.00000000000E+00 0.  1.
<mgrwt>
<rscale>  0 0.25007594E+04</rscale>
<asrwt>0</asrwt>
<pdfrwt beam="1">  1        2 0.42862871E+00 0.25007594E+04</pdfrwt>
<pdfrwt beam="2">  1       -1 0.86332808E-01 0.25007594E+04</pdfrwt>
<totfact> 0.31646015E+00</totfact>
</mgrwt>
</event>
<event>
12    6  0.1529770E-007  0.3083924E+04  0.7818608E-02  0.8220164E-01
         -1   -1    0    0    0  501 -0.00000000000E+00  0.00000000000E+00  0.11423448080E+04  0.11423448080E+04  0.00000000000E+00 0.  1.
          2   -1    0    0  501    0  0.00000000000E+00 -0.00000000000E+00 -0.20813741727E+04  0.20813741727E+04  0.00000000000E+00 0. -1.
         24    2    1    2    0    0 -0.54945128839E+03  0.65678934352E+03  0.74291141763E+03  0.11365640630E+04  0.81188267139E+02 0.  0.
        254    2    1    2    0    0  0.54945128839E+03 -0.65678934352E+03 -0.16819407823E+04  0.20871549178E+04  0.89107906249E+03 0.  0.
         23    2    4    4    0    0  0.67639310627E+03 -0.56649989939E+03 -0.16900749419E+04  0.19085468969E+04  0.88137270233E+02 0.  0.
         23    2    4    4    0    0 -0.12694181788E+03 -0.90289444126E+02  0.81341595692E+01  0.17860802086E+03  0.86995699423E+02 0.  0.
          2    1    3    3  502    0 -0.20852062934E+03  0.23841168379E+03  0.22460286305E+03  0.38828781840E+03  0.00000000000E+00 0. -1.
         -1    1    3    3    0  502 -0.34093065906E+03  0.41837765973E+03  0.51830855457E+03  0.74827624457E+03  0.00000000000E+00 0.  1.
         11    1    5    5    0    0  0.48960557467E+03 -0.36213767741E+03 -0.11996222975E+04  0.13453441837E+04  0.00000000000E+00 0.  1.
        -11    1    5    5    0    0  0.18678753160E+03 -0.20436222198E+03 -0.49045264439E+03  0.56320271317E+03  0.00000000000E+00 0. -1.
          3    1    6    6  503    0 -0.86265187424E+02 -0.80926456238E+02 -0.30046644485E+02  0.12203923437E+03  0.00000000000E+00 0. -1.
         -3    1    6    6    0  503 -0.40676630456E+02 -0.93629878882E+01  0.38180804054E+02  0.56568786496E+02  0.00000000000E+00 0.  1.
<mgrwt>
<rscale>  0 0.30839241E+04</rscale>
<asrwt>0</asrwt>
<pdfrwt beam="1">  1        2 0.32021141E+00 0.30839241E+04</pdfrwt>
<pdfrwt beam="2">  1       -1 0.17574536E+00 0.30839241E+04</pdfrwt>
<totfact> 0.12998612E+00</totfact>
</mgrwt>
</event>
<event>
12    6  0.1529770E-007  0.1911838E+04  0.7818608E-02  0.8648986E-01
         -1   -1    0    0    0  501 -0.00000000000E+00  0.00000000000E+00  0.55035069863E+03  0.55035069863E+03  0.00000000000E+00 0.  1.
          2   -1    0    0  501    0  0.00000000000E+00 -0.00000000000E+00 -0.16603617516E+04  0.16603617516E+04  0.00000000000E+00 0. -1.
         24    2    1    2    0    0 -0.35462793877E+03  0.35346388914E+03  0.20242517085E+03  0.54589508055E+03  0.79547427955E+02 0.  0.
        254    2    1    2    0    0  0.35462793877E+03 -0.35346388914E+03 -0.13124362238E+04  0.16648173697E+04  0.89354929181E+03 0.  0.
         23    2    4    4    0    0  0.45838586327E+03  0.11737575671E+03 -0.39451122014E+03  0.62303953767E+03  0.92975775218E+02 0.  0.
         23    2    4    4    0    0 -0.10375792450E+03 -0.47083964585E+03 -0.91792500369E+03  0.10417778320E+04  0.10128701733E+03 0.  0.
          2    1    3    3  502    0 -0.19538410324E+03  0.14357277250E+03  0.79477484985E+02  0.25515634309E+03  0.00000000000E+00 0. -1.
         -1    1    3    3    0  502 -0.15924383554E+03  0.20989111664E+03  0.12294768586E+03  0.29073873746E+03  0.00000000000E+00 0.  1.
         11    1    5    5    0    0  0.44214997987E+03  0.99305719322E+02 -0.39092846697E+03  0.59848416593E+03  0.00000000000E+00 0. -1.
        -11    1    5    5    0    0  0.16235883402E+02  0.18070037385E+02 -0.35827531731E+01  0.24555371739E+02  0.00000000000E+00 0.  1.
          3    1    6    6  503    0 -0.59960834497E+02 -0.34764504110E+03 -0.75109687747E+03  0.82981859200E+03  0.00000000000E+00 0. -1.
         -3    1    6    6    0  503 -0.43797090000E+02 -0.12319460475E+03 -0.16682812622E+03  0.21195924002E+03  0.00000000000E+00 0.  1.
<mgrwt>
<rscale>  0 0.19118381E+04</rscale>
<asrwt>0</asrwt>
<pdfrwt beam="1">  1        2 0.25544026E+00 0.19118381E+04</pdfrwt>
<pdfrwt beam="2">  1       -1 0.84669341E-01 0.19118381E+04</pdfrwt>
<totfact> 0.15184304E+01</totfact>
</mgrwt>
</event>
<event>
12    6  0.1529770E-007  0.1226143E+04  0.7818608E-02  0.9090277E-01
         -1   -1    0    0    0  501 -0.00000000000E+00  0.00000000000E+00  0.96377015449E+03  0.96377015449E+03  0.00000000000E+00 0.  1.
          2   -1    0    0  501    0  0.00000000000E+00 -0.00000000000E+00 -0.38998567265E+03  0.38998567265E+03  0.00000000000E+00 0. -1.
         24    2    1    2    0    0 -0.20040087039E+03  0.14125394040E+03  0.28983930915E+03  0.39121343124E+03  0.94487772354E+02 0.  0.
        254    2    1    2    0    0  0.20040087039E+03 -0.14125394040E+03  0.28394517269E+03  0.96254239590E+03  0.88642530327E+03 0.  0.
         23    2    4    4    0    0  0.12841500098E+02  0.33494991564E+03  0.27065751006E+03  0.44039556324E+03  0.91303966318E+02 0.  0.
         23    2    4    4    0    0  0.18755937029E+03 -0.47620385604E+03  0.13287662634E+02  0.52214683265E+03  0.10252864470E+03 0.  0.
          4    1    3    3  502    0 -0.81367719946E+02  0.67946707213E+01  0.11077087756E+03  0.13761199335E+03  0.00000000000E+00 0. -1.
         -3    1    3    3    0  502 -0.11903315044E+03  0.13445926968E+03  0.17906843159E+03  0.25360143789E+03  0.00000000000E+00 0.  1.
         11    1    5    5    0    0  0.45011196868E+02  0.20136132225E+03  0.13060398367E+03  0.24419211800E+03  0.00000000000E+00 0. -1.
        -11    1    5    5    0    0 -0.32169696771E+02  0.13358859338E+03  0.14005352638E+03  0.19620344524E+03  0.00000000000E+00 0.  1.
          2    1    6    6  503    0  0.12438672658E+03 -0.41658711635E+03  0.18250029475E+02  0.43514359335E+03  0.00000000000E+00 0. -1.
         -2    1    6    6    0  503  0.63172643716E+02 -0.59616739686E+02 -0.49623668410E+01  0.87003239305E+02  0.00000000000E+00 0.  1.
<mgrwt>
<rscale>  0 0.12261428E+04</rscale>
<asrwt>0</asrwt>
<pdfrwt beam="1">  1        2 0.59997796E-01 0.12261428E+04</pdfrwt>
<pdfrwt beam="2">  1       -1 0.14827233E+00 0.12261428E+04</pdfrwt>
<totfact> 0.33213733E+01</totfact>
</mgrwt>
</event>
<event>
12    6  0.1529770E-007  0.2681155E+04  0.7818608E-02  0.8341146E-01
          2   -1    0    0  501    0  0.00000000000E+00  0.00000000000E+00  0.15915857734E+04  0.15915857734E+04  0.00000000000E+00 0. -1.
         -1   -1    0    0    0  501 -0.00000000000E+00 -0.00000000000E+00 -0.11291555965E+04  0.11291555965E+04  0.00000000000E+00 0.  1.
         24    2    1    2    0    0 -0.67448380595E+03 -0.59420907234E+03  0.99969513922E+03  0.13464226958E+04  0.73830063476E+02 0.  0.
        254    2    1    2    0    0  0.67448380595E+03  0.59420907234E+03 -0.53726496237E+03  0.13743186740E+04  0.88999177070E+03 0.  0.
         23    2    4    4    0    0  0.80294647779E+02  0.18512872371E+03 -0.60380625758E+03  0.64310399953E+03  0.90999355571E+02 0.  0.
         23    2    4    4    0    0  0.59418915817E+03  0.40908034864E+03  0.66541295211E+02  0.73121467452E+03  0.99195105416E+02 0.  0.
          4    1    3    3  502    0 -0.66257587304E+03 -0.59295226684E+03  0.97899756357E+03  0.13225110237E+04  0.00000000000E+00 0. -1.
         -3    1    3    3    0  502 -0.11907932903E+02 -0.12568055041E+01  0.20697575647E+02  0.23911672124E+02  0.00000000000E+00 0.  1.
         11    1    5    5    0    0  0.89525943714E+01  0.69053206862E+02 -0.10473597900E+03  0.12577010623E+03  0.00000000000E+00 0. -1.
        -11    1    5    5    0    0  0.71342053408E+02  0.11607551685E+03 -0.49907027858E+03  0.51733389330E+03  0.00000000000E+00 0.  1.
          3    1    6    6  503    0  0.28177118390E+02 -0.20187863663E+01 -0.19609506524E+01  0.28317323790E+02  0.00000000000E+00 0. -1.
         -3    1    6    6    0  503  0.56601203978E+03  0.41109913500E+03  0.68502245864E+02  0.70289735073E+03  0.00000000000E+00 0.  1.
<mgrwt>
<rscale>  0 0.26811550E+04</rscale>
<asrwt>0</asrwt>
<pdfrwt beam="1">  1        2 0.24485935E+00 0.26811550E+04</pdfrwt>
<pdfrwt beam="2">  1       -1 0.17371624E+00 0.26811550E+04</pdfrwt>
<totfact> 0.26068450E+00</totfact>
</mgrwt>
</event>
<event>
12    6  0.1529770E-007  0.3347449E+04  0.7818608E-02  0.8150926E-01
         -1   -1    0    0    0  501 -0.00000000000E+00  0.00000000000E+00  0.91190513382E+03  0.91190513382E+03  0.00000000000E+00 0.  1.
          2   -1    0    0  501    0  0.00000000000E+00 -0.00000000000E+00 -0.30719801591E+04  0.30719801591E+04  0.00000000000E+00 0. -1.
         24    2    1    2    0    0  0.15291872722E+04 -0.31008196391E+02 -0.68104155727E+03  0.16762134716E+04  0.80614998167E+02 0.  0.
        254    2    1    2    0    0 -0.15291872722E+04  0.31008196391E+02 -0.14790334680E+04  0.23076718214E+04  0.89355134931E+03 0.  0.
         23    2    4    4    0    0 -0.12832206433E+04  0.11911934605E+03 -0.67594759114E+03  0.14581519516E+04  0.91963742518E+02 0.  0.
         23    2    4    4    0    0 -0.24596662889E+03 -0.88111149655E+02 -0.80308587689E+03  0.84951986978E+03  0.92053931285E+02 0.  0.
          4    1    3    3  502    0  0.75395581810E+03 -0.26376091628E+02 -0.37830334814E+03  0.84395408470E+03  0.00000000000E+00 0. -1.
         -3    1    3    3    0  502  0.77523145409E+03 -0.46321047625E+01 -0.30273820913E+03  0.83225938689E+03  0.00000000000E+00 0.  1.
         11    1    5    5    0    0 -0.16765869023E+03  0.46584446058E+02 -0.85303155181E+02  0.19379415705E+03  0.00000000000E+00 0.  1.
        -11    1    5    5    0    0 -0.11155619531E+04  0.72534899988E+02 -0.59064443596E+03  0.12643577945E+04  0.00000000000E+00 0. -1.
          3    1    6    6  503    0 -0.15321483271E+03 -0.13196086520E+02 -0.52231347155E+03  0.54448166565E+03  0.00000000000E+00 0. -1.
         -3    1    6    6    0  503 -0.92751796181E+02 -0.74915063136E+02 -0.28077240534E+03  0.30503820413E+03  0.00000000000E+00 0.  1.
<mgrwt>
<rscale>  0 0.33474495E+04</rscale>
<asrwt>0</asrwt>
<pdfrwt beam="1">  1        2 0.47261233E+00 0.33474495E+04</pdfrwt>
<pdfrwt beam="2">  1       -1 0.14029310E+00 0.33474495E+04</pdfrwt>
<totfact> 0.61712529E-01</totfact>
</mgrwt>
</event>
<event>
12    6  0.1529770E-007  0.3450322E+04  0.7818608E-02  0.8125665E-01
         -1   -1    0    0    0  501 -0.00000000000E+00  0.00000000000E+00  0.58182424899E+03  0.58182424899E+03  0.00000000000E+00 0.  1.
          2   -1    0    0  501    0  0.00000000000E+00 -0.00000000000E+00 -0.51152559134E+04  0.51152559134E+04  0.00000000000E+00 0. -1.
         24    2    1    2    0    0 -0.73324361338E+03  0.27249040481E+03 -0.44541871427E+04  0.45230240921E+04  0.77888500400E+02 0.  0.
        254    2    1    2    0    0  0.73324361338E+03 -0.27249040481E+03 -0.79244521709E+02  0.11740560703E+04  0.87191211979E+03 0.  0.
         23    2    4    4    0    0  0.60571703417E+03 -0.20954448225E+03  0.33402176452E+03  0.72848884476E+03  0.91232901123E+02 0.  0.
         23    2    4    4    0    0  0.12752657921E+03 -0.62945922566E+02 -0.41326628623E+03  0.44556722550E+03  0.86694356992E+02 0.  0.
          2    1    3    3  502    0 -0.53849216777E+03  0.20961705885E+03 -0.34699727721E+04  0.35177584007E+04  0.00000000000E+00 0. -1.
         -1    1    3    3    0  502 -0.19475144560E+03  0.62873345966E+02 -0.98421437057E+03  0.10052656915E+04  0.00000000000E+00 0.  1.
         11    1    5    5    0    0  0.77092807909E+02 -0.53148180438E+02  0.26846039122E+02  0.97410163390E+02  0.00000000000E+00 0. -1.
        -11    1    5    5    0    0  0.52862422626E+03 -0.15639630181E+03  0.30717572540E+03  0.63107868137E+03  0.00000000000E+00 0.  1.
          1    1    6    6  503    0  0.83829531948E+01  0.81929842905E+01 -0.24869867506E+01  0.11982654086E+02  0.00000000000E+00 0. -1.
         -1    1    6    6    0  503  0.11914362601E+03 -0.71138906857E+02 -0.41077929948E+03  0.43358457142E+03  0.00000000000E+00 0.  1.
<mgrwt>
<rscale>  0 0.34503217E+04</rscale>
<asrwt>0</asrwt>
<pdfrwt beam="1">  1        2 0.78696241E+00 0.34503217E+04</pdfrwt>
<pdfrwt beam="2">  1       -1 0.89511427E-01 0.34503217E+04</pdfrwt>
<totfact> 0.27544941E-02</totfact>
</mgrwt>
</event>
<event>
12    6  0.1529770E-007  0.1927434E+04  0.7818608E-02  0.8641320E-01
         -1   -1    0    0    0  501 -0.00000000000E+00  0.00000000000E+00  0.60958553882E+03  0.60958553882E+03  0.00000000000E+00 0.  1.
          2   -1    0    0  501    0  0.00000000000E+00 -0.00000000000E+00 -0.15235775218E+04  0.15235775218E+04  0.00000000000E+00 0. -1.
         24    2    1    2    0    0  0.67525418127E+03  0.28257300597E+03 -0.16298969797E+03  0.75408748373E+03  0.79161723428E+02 0.  0.
        254    2    1    2    0    0 -0.67525418127E+03 -0.28257300597E+03 -0.75100228499E+03  0.13790755769E+04  0.89556088662E+03 0.  0.
         23    2    4    4    0    0 -0.44261360569E+03 -0.60603751058E+02 -0.90276538647E+03  0.10117257042E+04  0.94994414829E+02 0.  0.
         23    2    4    4    0    0 -0.23264057558E+03 -0.22196925492E+03  0.15176310149E+03  0.36734987272E+03  0.92314151039E+02 0.  0.
          2    1    3    3  502    0  0.35254637388E+03  0.15216381422E+03 -0.45194658392E+02  0.38663332661E+03  0.00000000000E+00 0. -1.
         -1    1    3    3    0  502  0.32270780739E+03  0.13040919175E+03 -0.11779503958E+03  0.36745415713E+03  0.00000000000E+00 0.  1.
         11    1    5    5    0    0 -0.10339723247E+03  0.16270917067E+02 -0.15507609822E+03  0.18709443248E+03  0.00000000000E+00 0. -1.
        -11    1    5    5    0    0 -0.33921637322E+03 -0.76874668125E+02 -0.74768928825E+03  0.82463127167E+03  0.00000000000E+00 0.  1.
          1    1    6    6  503    0 -0.27420034316E+02  0.43009373659E+01  0.40901114047E+01  0.28055041533E+02  0.00000000000E+00 0. -1.
         -1    1    6    6    0  503 -0.20522054126E+03 -0.22627019228E+03  0.14767299008E+03  0.33929483119E+03  0.00000000000E+00 0.  1.
<mgrwt>
<rscale>  0 0.19274344E+04</rscale>
<asrwt>0</asrwt>
<pdfrwt beam="1">  1        2 0.23439654E+00 0.19274344E+04</pdfrwt>
<pdfrwt beam="2">  1       -1 0.93782391E-01 0.19274344E+04</pdfrwt>
<totfact> 0.14447545E+01</totfact>
</mgrwt>
</event>
<event>
12    6  0.1529770E-007  0.3394363E+04  0.7818608E-02  0.8139291E-01
         -1   -1    0    0    0  501 -0.00000000000E+00  0.00000000000E+00  0.18682303989E+04  0.18682303989E+04  0.00000000000E+00 0.  1.
          2   -1    0    0  501    0  0.00000000000E+00 -0.00000000000E+00 -0.15417937174E+04  0.15417937174E+04  0.00000000000E+00 0. -1.
         24    2    1    2    0    0 -0.35209610697E+03  0.54227618654E+03  0.15954659066E+04  0.17232885093E+04  0.78591960432E+02 0.  0.
        254    2    1    2    0    0  0.35209610697E+03 -0.54227618654E+03 -0.12690292250E+04  0.16867356070E+04  0.90366293653E+03 0.  0.
         23    2    4    4    0    0  0.52046225056E+03 -0.37745670986E+02 -0.86115416015E+03  0.10108775631E+04  0.89337954718E+02 0.  0.
         23    2    4    4    0    0 -0.16836614359E+03 -0.50453051555E+03 -0.40787506487E+03  0.67585804385E+03  0.86739999210E+02 0.  0.
          2    1    3    3  502    0 -0.63315889342E+02  0.13853146513E+03  0.31257116447E+03  0.34770763801E+03  0.00000000000E+00 0. -1.
         -1    1    3    3    0  502 -0.28878021763E+03  0.40374472141E+03  0.12828947421E+04  0.13755808713E+04  0.00000000000E+00 0.  1.
         11    1    5    5    0    0  0.48202980961E+03 -0.12381411540E+02 -0.76533816900E+03  0.90457092018E+03  0.00000000000E+00 0.  1.
        -11    1    5    5    0    0  0.38432440943E+02 -0.25364259446E+02 -0.95815991151E+02  0.10630664295E+03  0.00000000000E+00 0. -1.
          2    1    6    6  503    0 -0.21733904436E+02 -0.11269025555E+03 -0.13099582140E+03  0.17415901217E+03  0.00000000000E+00 0. -1.
         -2    1    6    6    0  503 -0.14663223915E+03 -0.39184026001E+03 -0.27687924347E+03  0.50169903168E+03  0.00000000000E+00 0.  1.
<mgrwt>
<rscale>  0 0.33943635E+04</rscale>
<asrwt>0</asrwt>
<pdfrwt beam="1">  1        2 0.23719903E+00 0.33943635E+04</pdfrwt>
<pdfrwt beam="2">  1       -1 0.28742006E+00 0.33943635E+04</pdfrwt>
<totfact> 0.45198875E-01</totfact>
</mgrwt>
</event>
<event>
12    6  0.1529770E-007  0.1846211E+04  0.7818608E-02  0.8682104E-01
         -1   -1    0    0    0  501 -0.00000000000E+00  0.00000000000E+00  0.18079899175E+03  0.18079899175E+03  0.00000000000E+00 0.  1.
          2   -1    0    0  501    0  0.00000000000E+00 -0.00000000000E+00 -0.47130979423E+04  0.47130979423E+04  0.00000000000E+00 0. -1.
         24    2    1    2    0    0 -0.19171676899E+03 -0.55504161399E+02 -0.35096828794E+04  0.35161040872E+04  0.72649888298E+02 0.  0.
        254    2    1    2    0    0  0.19171676899E+03  0.55504161399E+02 -0.10226160711E+04  0.13777928468E+04  0.90151731458E+03 0.  0.
         23    2    4    4    0    0 -0.27733768660E+03  0.27302622491E+03 -0.45800705627E+03  0.60786859228E+03  0.90962904491E+02 0.  0.
         23    2    4    4    0    0  0.46905445559E+03 -0.21752206352E+03 -0.56460901482E+03  0.76992425455E+03  0.81682848287E+02 0.  0.
          2    1    3    3  502    0 -0.18353438390E+03 -0.30548961616E+02 -0.30430329665E+04  0.30487157533E+04  0.00000000000E+00 0. -1.
         -1    1    3    3    0  502 -0.81823850962E+01 -0.24955199783E+02 -0.46664991294E+03  0.46738833391E+03  0.00000000000E+00 0.  1.
         11    1    5    5    0    0 -0.25731480572E+03  0.21287056708E+03 -0.40716347064E+03  0.52659935378E+03  0.00000000000E+00 0. -1.
        -11    1    5    5    0    0 -0.20022880874E+02  0.60155657832E+02 -0.50843585626E+02  0.81269238504E+02  0.00000000000E+00 0.  1.
          3    1    6    6  503    0  0.32042075154E+03 -0.13537864631E+03 -0.43091406569E+03  0.55379036458E+03  0.00000000000E+00 0. -1.
         -3    1    6    6    0  503  0.14863370405E+03 -0.82143417210E+02 -0.13369494912E+03  0.21613388996E+03  0.00000000000E+00 0.  1.
<mgrwt>
<rscale>  0 0.18462106E+04</rscale>
<asrwt>0</asrwt>
<pdfrwt beam="1">  1        2 0.72509196E+00 0.18462106E+04</pdfrwt>
<pdfrwt beam="2">  1       -1 0.27815231E-01 0.18462106E+04</pdfrwt>
<totfact> 0.94990057E-01</totfact>
</mgrwt>
</event>
<event>
12    6  0.1529770E-007  0.1252812E+04  0.7818608E-02  0.9067846E-01
          2   -1    0    0  501    0  0.00000000000E+00  0.00000000000E+00  0.16623516421E+04  0.16623516421E+04  0.00000000000E+00 0. -1.
         -3   -1    0    0    0  501 -0.00000000000E+00 -0.00000000000E+00 -0.23604180176E+03  0.23604180176E+03  0.00000000000E+00 0.  1.
         24    2    1    2    0    0  0.11488109270E+03  0.21179426978E+03  0.59436798459E+03  0.64660821812E+03  0.82306794784E+02 0.  0.
        254    2    1    2    0    0 -0.11488109270E+03 -0.21179426978E+03  0.83194185580E+03  0.12517852258E+04  0.90376131909E+03 0.  0.
         23    2    4    4    0    0 -0.12021313153E+03 -0.16330482184E+03  0.10168301632E+04  0.10402738889E+04  0.84300185436E+02 0.  0.
         23    2    4    4    0    0  0.53320388259E+01 -0.48489447942E+02 -0.18488830742E+03  0.21151133688E+03  0.90408529501E+02 0.  0.
          4    1    3    3  502    0  0.83229638161E+02  0.17186446475E+03  0.36820310099E+03  0.41477474669E+03  0.00000000000E+00 0. -1.
         -3    1    3    3    0  502  0.31651454539E+02  0.39929805035E+02  0.22616488360E+03  0.23183347143E+03  0.00000000000E+00 0.  1.
         11    1    5    5    0    0 -0.98875197928E+02 -0.12176072514E+03  0.57591141543E+03  0.59688854686E+03  0.00000000000E+00 0. -1.
        -11    1    5    5    0    0 -0.21337933598E+02 -0.41544096695E+02  0.44091874779E+03  0.44338534204E+03  0.00000000000E+00 0.  1.
          2    1    6    6  503    0  0.25810804464E+02 -0.29393054392E+02 -0.19386620357E+02  0.43657649071E+02  0.00000000000E+00 0. -1.
         -2    1    6    6    0  503 -0.20478765638E+02 -0.19096393550E+02 -0.16550168707E+03  0.16785368781E+03  0.00000000000E+00 0.  1.
<mgrwt>
<rscale>  0 0.12528120E+04</rscale>
<asrwt>0</asrwt>
<pdfrwt beam="1">  1        2 0.25574640E+00 0.12528120E+04</pdfrwt>
<pdfrwt beam="2">  1       -3 0.36314124E-01 0.12528120E+04</pdfrwt>
<totfact> 0.48933124E+01</totfact>
</mgrwt>
</event>
<event>
12    6  0.1529770E-007  0.1622494E+04  0.7818608E-02  0.8806847E-01
          2   -1    0    0  501    0  0.00000000000E+00  0.00000000000E+00  0.17690595637E+04  0.17690595637E+04  0.00000000000E+00 0. -1.
         -1   -1    0    0    0  501 -0.00000000000E+00 -0.00000000000E+00 -0.37201799298E+03  0.37201799298E+03  0.00000000000E+00 0.  1.
         24    2    1    2    0    0  0.32571744271E+03  0.13098798531E+03  0.10592125372E+04  0.11187738058E+04  0.80460703105E+02 0.  0.
        254    2    1    2    0    0 -0.32571744271E+03 -0.13098798531E+03  0.33782903345E+03  0.10223037508E+04  0.89873622290E+03 0.  0.
         23    2    4    4    0    0  0.19858087311E+03  0.16842861423E+03  0.30416642902E+03  0.41068704822E+03  0.91345901765E+02 0.  0.
         23    2    4    4    0    0 -0.52429831582E+03 -0.29941659954E+03  0.33662604424E+02  0.61161670262E+03  0.91666765714E+02 0.  0.
          4    1    3    3  502    0  0.27982254961E+03  0.79377426291E+02  0.83932735009E+03  0.88829715505E+03  0.00000000000E+00 0. -1.
         -1    1    3    3    0  502  0.45894893099E+02  0.51610559020E+02  0.21988518714E+03  0.23047665075E+03  0.00000000000E+00 0.  1.
         11    1    5    5    0    0  0.19027027593E+03  0.13383996157E+03  0.29145731143E+03  0.37291188987E+03  0.00000000000E+00 0. -1.
        -11    1    5    5    0    0  0.83105971836E+01  0.34588652660E+02  0.12709117589E+02  0.37775158349E+02  0.00000000000E+00 0.  1.
          4    1    6    6  503    0 -0.33521519099E+03 -0.17151016577E+03  0.61892736606E+02  0.38159621602E+03  0.00000000000E+00 0.  1.
         -4    1    6    6    0  503 -0.18908312483E+03 -0.12790643377E+03 -0.28230132182E+02  0.23002048660E+03  0.00000000000E+00 0. -1.
<mgrwt>
<rscale>  0 0.16224944E+04</rscale>
<asrwt>0</asrwt>
<pdfrwt beam="1">  1        2 0.27216301E+00 0.16224944E+04</pdfrwt>
<pdfrwt beam="2">  1       -1 0.57233538E-01 0.16224944E+04</pdfrwt>
<totfact> 0.30261280E+01</totfact>
</mgrwt>
</event>
<event>
12    6  0.1529770E-007  0.2370075E+04  0.7818608E-02  0.8450793E-01
         -1   -1    0    0    0  501 -0.00000000000E+00  0.00000000000E+00  0.14316005686E+04  0.14316005686E+04  0.00000000000E+00 0.  1.
          2   -1    0    0  501    0  0.00000000000E+00 -0.00000000000E+00 -0.98093956540E+03  0.98093956540E+03  0.00000000000E+00 0. -1.
         24    2    1    2    0    0  0.17377733779E+03  0.43950856178E+03  0.10991367760E+04  0.12002112086E+04  0.95073413303E+02 0.  0.
        254    2    1    2    0    0 -0.17377733779E+03 -0.43950856178E+03 -0.64847577277E+03  0.12123289254E+04  0.90876523729E+03 0.  0.
         23    2    4    4    0    0 -0.44462526612E+03  0.25177517347E+02 -0.16598523050E+03  0.48422513626E+03  0.92721902480E+02 0.  0.
         23    2    4    4    0    0  0.27084792833E+03 -0.46468607913E+03 -0.48249054227E+03  0.72810378914E+03  0.89700902863E+02 0.  0.
          2    1    3    3  502    0  0.29035328760E+02  0.20547991545E+02  0.50793593911E+02  0.62010156064E+02  0.00000000000E+00 0. -1.
         -1    1    3    3    0  502  0.14474200903E+03  0.41896057023E+03  0.10483431821E+04  0.11382010525E+04  0.00000000000E+00 0.  1.
         11    1    5    5    0    0 -0.83685375373E+02 -0.62786309253E+00 -0.71900664917E+02  0.11033286853E+03  0.00000000000E+00 0. -1.
        -11    1    5    5    0    0 -0.36093989074E+03  0.25805380440E+02 -0.94084565581E+02  0.37389226773E+03  0.00000000000E+00 0.  1.
          4    1    6    6  503    0  0.96022059765E+01  0.13025976942E+01 -0.16822503001E+02  0.19413802502E+02  0.00000000000E+00 0. -1.
         -4    1    6    6    0  503  0.26124572235E+03 -0.46598867682E+03 -0.46566803927E+03  0.70868998664E+03  0.00000000000E+00 0.  1.
<mgrwt>
<rscale>  0 0.23700748E+04</rscale>
<asrwt>0</asrwt>
<pdfrwt beam="1">  1        2 0.15091378E+00 0.23700748E+04</pdfrwt>
<pdfrwt beam="2">  1       -1 0.22024624E+00 0.23700748E+04</pdfrwt>
<totfact> 0.29201000E+00</totfact>
</mgrwt>
</event>
<event>
12    6  0.1529770E-007  0.1536739E+04  0.7818608E-02  0.8860383E-01
          2   -1    0    0  501    0  0.00000000000E+00  0.00000000000E+00  0.17237897295E+04  0.17237897295E+04  0.00000000000E+00 0. -1.
         -1   -1    0    0    0  501 -0.00000000000E+00 -0.00000000000E+00 -0.34249651434E+03  0.34249651434E+03  0.00000000000E+00 0.  1.
         24    2    1    2    0    0  0.27148622164E+03  0.10275922806E+03  0.99293920011E+03  0.10376151515E+04  0.80328824095E+02 0.  0.
        254    2    1    2    0    0 -0.27148622164E+03 -0.10275922806E+03  0.38835401507E+03  0.10286710924E+04  0.90723819793E+03 0.  0.
         23    2    4    4    0    0 -0.13165146124E+03 -0.15390135970E+03 -0.26819717433E+03  0.34760945527E+03  0.88796809101E+02 0.  0.
         23    2    4    4    0    0 -0.13983476040E+03  0.51142131639E+02  0.65655118940E+03  0.68106163712E+03  0.10303500085E+03 0.  0.
          4    1    3    3  502    0  0.27189287085E+03  0.10018345311E+03  0.91832687551E+03  0.96295727205E+03  0.00000000000E+00 0. -1.
         -3    1    3    3    0  502 -0.40664921279E+00  0.25757749438E+01  0.74612324594E+02  0.74657879434E+02  0.00000000000E+00 0.  1.
         11    1    5    5    0    0 -0.14924648801E+02 -0.77375247447E+02 -0.71375562633E+02  0.10632095278E+03  0.00000000000E+00 0.  1.
        -11    1    5    5    0    0 -0.11672681244E+03 -0.76526112250E+02 -0.19682161170E+03  0.24128850248E+03  0.00000000000E+00 0. -1.
          4    1    6    6  503    0 -0.11854723457E+03  0.81549642575E+01  0.56855773394E+03  0.58084235993E+03  0.00000000000E+00 0. -1.
         -4    1    6    6    0  503 -0.21287525831E+02  0.42987167381E+02  0.87993455467E+02  0.10021927719E+03  0.00000000000E+00 0.  1.
<mgrwt>
<rscale>  0 0.15367394E+04</rscale>
<asrwt>0</asrwt>
<pdfrwt beam="1">  1        2 0.26519842E+00 0.15367394E+04</pdfrwt>
<pdfrwt beam="2">  1       -1 0.52691772E-01 0.15367394E+04</pdfrwt>
<totfact> 0.37902524E+01</totfact>
</mgrwt>
</event>
<event>
12    6  0.1529770E-007  0.2632748E+04  0.7818608E-02  0.8357162E-01
         -1   -1    0    0    0  501 -0.00000000000E+00  0.00000000000E+00  0.11238879422E+04  0.11238879422E+04  0.00000000000E+00 0.  1.
          2   -1    0    0  501    0  0.00000000000E+00 -0.00000000000E+00 -0.15418262344E+04  0.15418262344E+04  0.00000000000E+00 0. -1.
         24    2    1    2    0    0 -0.23532642335E+03 -0.11192995317E+04 -0.27733557608E+03  0.11794261270E+04  0.76948036269E+02 0.  0.
        254    2    1    2    0    0  0.23532642335E+03  0.11192995317E+04 -0.14060271617E+03  0.14862880495E+04  0.93865492876E+03 0.  0.
         23    2    4    4    0    0 -0.11662891143E+03  0.78491443314E+03  0.27119344494E+03  0.84331016113E+03  0.89068361138E+02 0.  0.
         23    2    4    4    0    0  0.35195533478E+03  0.33438509851E+03 -0.41179616112E+03  0.64297788840E+03  0.90324608322E+02 0.  0.
          4    1    3    3  502    0 -0.17598129776E+03 -0.79150349610E+03 -0.23099941619E+03  0.84309426032E+03  0.00000000000E+00 0. -1.
         -3    1    3    3    0  502 -0.59345125586E+02 -0.32779603555E+03 -0.46336159887E+02  0.33633186671E+03  0.00000000000E+00 0.  1.
         11    1    5    5    0    0 -0.86684648411E+02  0.73458762421E+03  0.24550858994E+03  0.77936363377E+03  0.00000000000E+00 0. -1.
        -11    1    5    5    0    0 -0.29944263019E+02  0.50326808931E+02  0.25684855006E+02  0.63946527362E+02  0.00000000000E+00 0.  1.
          3    1    6    6  503    0  0.31247330227E+03  0.28207044660E+03 -0.39015855200E+03  0.57395731302E+03  0.00000000000E+00 0. -1.
         -3    1    6    6    0  503  0.39482032513E+02  0.52314651918E+02 -0.21637609114E+02  0.69020575374E+02  0.00000000000E+00 0.  1.
<mgrwt>
<rscale>  0 0.26327475E+04</rscale>
<asrwt>0</asrwt>
<pdfrwt beam="1">  1        2 0.23720403E+00 0.26327475E+04</pdfrwt>
<pdfrwt beam="2">  1       -1 0.17290584E+00 0.26327475E+04</pdfrwt>
<totfact> 0.28298773E+00</totfact>
</mgrwt>
</event>
<event>
12    6  0.1529770E-007  0.1460949E+04  0.7818608E-02  0.8910845E-01
          2   -1    0    0  501    0  0.00000000000E+00  0.00000000000E+00  0.18292154773E+04  0.18292154773E+04  0.00000000000E+00 0. -1.
         -1   -1    0    0    0  501 -0.00000000000E+00 -0.00000000000E+00 -0.29170598609E+03  0.29170598609E+03  0.00000000000E+00 0.  1.
         24    2    1    2    0    0  0.15940069291E+03  0.38915135527E+03  0.68818355761E+03  0.81234286796E+03  0.97246943182E+02 0.  0.
        254    2    1    2    0    0 -0.15940069291E+03 -0.38915135527E+03  0.84932593360E+03  0.13085785954E+04  0.90231704003E+03 0.  0.
         23    2    4    4    0    0 -0.51370092207E+02 -0.17127465702E+03  0.99182180230E+03  0.10120494487E+04  0.92518671091E+02 0.  0.
         23    2    4    4    0    0 -0.10803060070E+03 -0.21787669825E+03 -0.14249586870E+03  0.29652914677E+03  0.92106438213E+02 0.  0.
          4    1    3    3  502    0  0.11406221704E+03  0.31390329376E+03  0.60653086096E+03  0.69240533828E+03  0.00000000000E+00 0. -1.
         -3    1    3    3    0  502  0.45338475872E+02  0.75248061507E+02  0.81652696653E+02  0.11993752968E+03  0.00000000000E+00 0.  1.
         11    1    5    5    0    0  0.10623965283E+02 -0.80027523156E+02  0.26882371665E+03  0.28068392140E+03  0.00000000000E+00 0. -1.
        -11    1    5    5    0    0 -0.61994057489E+02 -0.91247133859E+02  0.72299808565E+03  0.73136552726E+03  0.00000000000E+00 0.  1.
          3    1    6    6  503    0  0.16333549484E+02 -0.31309725815E+02 -0.13184549628E+02  0.37695041030E+02  0.00000000000E+00 0. -1.
         -3    1    6    6    0  503 -0.12436415019E+03 -0.18656697244E+03 -0.12931131907E+03  0.25883410574E+03  0.00000000000E+00 0.  1.
<mgrwt>
<rscale>  0 0.14609491E+04</rscale>
<asrwt>0</asrwt>
<pdfrwt beam="1">  1        2 0.28141776E+00 0.14609491E+04</pdfrwt>
<pdfrwt beam="2">  1       -1 0.44877845E-01 0.14609491E+04</pdfrwt>
<totfact> 0.45171134E+01</totfact>
</mgrwt>
</event>
<event>
12    6  0.1529770E-007  0.2162913E+04  0.7818608E-02  0.8534025E-01
          2   -1    0    0  501    0  0.00000000000E+00  0.00000000000E+00  0.34038399416E+04  0.34038399416E+04  0.00000000000E+00 0. -1.
         -1   -1    0    0    0  501 -0.00000000000E+00 -0.00000000000E+00 -0.34359655836E+03  0.34359655836E+03  0.00000000000E+00 0.  1.
         24    2    1    2    0    0 -0.48557846441E+03  0.55392907882E+03  0.20340290975E+04  0.21647436977E+04  0.78848194949E+02 0.  0.
        254    2    1    2    0    0  0.48557846441E+03 -0.55392907882E+03  0.10262142857E+04  0.15826928022E+04  0.95350766991E+03 0.  0.
         23    2    4    4    0    0  0.38374815282E+03 -0.58466306354E+03  0.11802681952E+04  0.13749449339E+04  0.91362006101E+02 0.  0.
         23    2    4    4    0    0  0.10183031159E+03  0.30733984722E+02 -0.15405390944E+03  0.20774786830E+03  0.90069859527E+02 0.  0.
          2    1    3    3  502    0 -0.32582180021E+03  0.35994482202E+03  0.14437086605E+04  0.15231594850E+04  0.00000000000E+00 0. -1.
         -1    1    3    3    0  502 -0.15975666420E+03  0.19398425679E+03  0.59032043703E+03  0.64158421272E+03  0.00000000000E+00 0.  1.
         11    1    5    5    0    0  0.42410879911E+02 -0.25195827801E+02  0.97854259356E+02  0.10958543949E+03  0.00000000000E+00 0.  1.
        -11    1    5    5    0    0  0.34133727291E+03 -0.55946723574E+03  0.10824139358E+04  0.12653594944E+04  0.00000000000E+00 0. -1.
          4    1    6    6  503    0  0.85160787522E+02  0.54708605587E+02 -0.14564006353E+03  0.17735957646E+03  0.00000000000E+00 0. -1.
         -4    1    6    6    0  503  0.16669524066E+02 -0.23974620864E+02 -0.84138459120E+01  0.30388291844E+02  0.00000000000E+00 0.  1.
<mgrwt>
<rscale>  0 0.21629126E+04</rscale>
<asrwt>0</asrwt>
<pdfrwt beam="1">  1        2 0.52366766E+00 0.21629126E+04</pdfrwt>
<pdfrwt beam="2">  1       -1 0.52861011E-01 0.21629126E+04</pdfrwt>
<totfact> 0.35786456E+00</totfact>
</mgrwt>
</event>
<event>
12    6  0.1529770E-007  0.2241864E+04  0.7818608E-02  0.8501202E-01
          2   -1    0    0  501    0  0.00000000000E+00  0.00000000000E+00  0.10983841005E+04  0.10983841005E+04  0.00000000000E+00 0. -1.
         -1   -1    0    0    0  501 -0.00000000000E+00 -0.00000000000E+00 -0.11439432233E+04  0.11439432233E+04  0.00000000000E+00 0.  1.
         24    2    1    2    0    0 -0.24803584536E+03 -0.21138585846E+03  0.86755822963E+03  0.93020094717E+03  0.80067212824E+02 0.  0.
        254    2    1    2    0    0  0.24803584536E+03  0.21138585846E+03 -0.91311735240E+03  0.13121263766E+04  0.88413040174E+03 0.  0.
         23    2    4    4    0    0  0.15198082116E+01  0.45612309345E+03 -0.81772693433E+03  0.94064153815E+03  0.89880909913E+02 0.  0.
         23    2    4    4    0    0  0.24651603715E+03 -0.24473723499E+03 -0.95390418069E+02  0.37148483849E+03  0.90747906912E+02 0.  0.
          4    1    3    3  502    0 -0.24212276292E+03 -0.19803773806E+03  0.76299404764E+03  0.82462251652E+03  0.00000000000E+00 0. -1.
         -3    1    3    3    0  502 -0.59130824431E+01 -0.13348120396E+02  0.10456418199E+03  0.10557843065E+03  0.00000000000E+00 0.  1.
         11    1    5    5    0    0 -0.73013426007E+01  0.38946529871E+03 -0.62426856894E+03  0.73583134934E+03  0.00000000000E+00 0.  1.
        -11    1    5    5    0    0  0.88211508123E+01  0.66657794738E+02 -0.19345836539E+03  0.20481018881E+03  0.00000000000E+00 0. -1.
          1    1    6    6  503    0  0.57748368493E+02 -0.54792499417E+02  0.16431965128E+02  0.81284079215E+02  0.00000000000E+00 0. -1.
         -1    1    6    6    0  503  0.18876766866E+03 -0.18994473557E+03 -0.11182238320E+03  0.29020075928E+03  0.00000000000E+00 0.  1.
<mgrwt>
<rscale>  0 0.22418644E+04</rscale>
<asrwt>0</asrwt>
<pdfrwt beam="1">  1        2 0.16898217E+00 0.22418644E+04</pdfrwt>
<pdfrwt beam="2">  1       -1 0.17599127E+00 0.22418644E+04</pdfrwt>
<totfact> 0.50454987E+00</totfact>
</mgrwt>
</event>
<event>
12    6  0.1529770E-007  0.1054896E+04  0.7818608E-02  0.9250304E-01
         -1   -1    0    0    0  501 -0.00000000000E+00  0.00000000000E+00  0.21477896645E+03  0.21477896645E+03  0.00000000000E+00 0.  1.
          2   -1    0    0  501    0  0.00000000000E+00 -0.00000000000E+00 -0.12952919416E+04  0.12952919416E+04  0.00000000000E+00 0. -1.
         24    2    1    2    0    0 -0.19666141821E+02 -0.85850843864E+02 -0.27144082293E+02  0.12173651099E+03  0.79535227272E+02 0.  0.
        254    2    1    2    0    0  0.19666141821E+02  0.85850843864E+02 -0.10533688929E+04  0.13883343971E+04  0.90007180221E+03 0.  0.
         23    2    4    4    0    0 -0.18218462204E+03 -0.30388234977E+03 -0.18135820431E+03  0.40791812862E+03  0.89278678165E+02 0.  0.
         23    2    4    4    0    0  0.20185076386E+03  0.38973319364E+03 -0.87201068858E+03  0.98041626848E+03  0.90430776918E+02 0.  0.
          2    1    3    3  502    0 -0.26037419389E+01 -0.43522368245E+02 -0.53514718220E+02  0.69027538532E+02  0.00000000000E+00 0. -1.
         -1    1    3    3    0  502 -0.17062399882E+02 -0.42328475619E+02  0.26370635926E+02  0.52708972454E+02  0.00000000000E+00 0.  1.
         11    1    5    5    0    0 -0.30917642744E+02 -0.10492581082E+03 -0.22209374356E+02  0.11161802148E+03  0.00000000000E+00 0. -1.
        -11    1    5    5    0    0 -0.15126697929E+03 -0.19895653895E+03 -0.15914882995E+03  0.29630010714E+03  0.00000000000E+00 0.  1.
          2    1    6    6  503    0  0.79803701409E+01  0.60965790910E+01 -0.67806175733E+02  0.68545839054E+02  0.00000000000E+00 0.  1.
         -2    1    6    6    0  503  0.19387039372E+03  0.38363661455E+03 -0.80420451285E+03  0.91187042943E+03  0.00000000000E+00 0. -1.
<mgrwt>
<rscale>  0 0.10548961E+04</rscale>
<asrwt>0</asrwt>
<pdfrwt beam="1">  1        2 0.19927569E+00 0.10548961E+04</pdfrwt>
<pdfrwt beam="2">  1       -1 0.33042917E-01 0.10548961E+04</pdfrwt>
<totfact> 0.16213495E+02</totfact>
</mgrwt>
</event>
<event>
12    6  0.1529770E-007  0.1370793E+04  0.7818608E-02  0.8975236E-01
         -1   -1    0    0    0  501 -0.00000000000E+00  0.00000000000E+00  0.60484871183E+03  0.60484871183E+03  0.00000000000E+00 0.  1.
          2   -1    0    0  501    0  0.00000000000E+00 -0.00000000000E+00 -0.77667075994E+03  0.77667075994E+03  0.00000000000E+00 0. -1.
         24    2    1    2    0    0 -0.13218968452E+03  0.36091718177E+02  0.31201076760E+03  0.34991151734E+03  0.79439448977E+02 0.  0.
        254    2    1    2    0    0  0.13218968452E+03 -0.36091718177E+02 -0.48383281571E+03  0.10316079544E+04  0.90074638677E+03 0.  0.
         23    2    4    4    0    0 -0.33731433383E+03 -0.14121294701E+03 -0.37014251304E+03  0.52870744715E+03  0.93829784696E+02 0.  0.
         23    2    4    4    0    0  0.46950401835E+03  0.10512122884E+03 -0.11369030266E+03  0.50290050728E+03  0.92189691965E+02 0.  0.
          4    1    3    3  502    0 -0.22409321268E+02  0.17768011045E+02  0.15402681009E+03  0.15665930589E+03  0.00000000000E+00 0. -1.
         -3    1    3    3    0  502 -0.10978036325E+03  0.18323707132E+02  0.15798395752E+03  0.19325221145E+03  0.00000000000E+00 0.  1.
         11    1    5    5    0    0 -0.34921807609E+02 -0.46061734765E+02 -0.35913771025E+02  0.68051561374E+02  0.00000000000E+00 0.  1.
        -11    1    5    5    0    0 -0.30239252622E+03 -0.95151212248E+02 -0.33422874202E+03  0.46065588577E+03  0.00000000000E+00 0. -1.
          2    1    6    6  503    0  0.31487727506E+03  0.66723239858E+02 -0.30894539195E+02  0.32334835957E+03  0.00000000000E+00 0. -1.
         -2    1    6    6    0  503  0.15462674329E+03  0.38397988978E+02 -0.82795763469E+02  0.17955214771E+03  0.00000000000E+00 0.  1.
<mgrwt>
<rscale>  0 0.13707929E+04</rscale>
<asrwt>0</asrwt>
<pdfrwt beam="1">  1        2 0.11948781E+00 0.13707929E+04</pdfrwt>
<pdfrwt beam="2">  1       -1 0.93053648E-01 0.13707929E+04</pdfrwt>
<totfact> 0.44768117E+01</totfact>
</mgrwt>
</event>
<event>
12    6  0.1529770E-007  0.1849797E+04  0.7818608E-02  0.8680257E-01
          2   -1    0    0  501    0  0.00000000000E+00  0.00000000000E+00  0.20762007972E+04  0.20762007972E+04  0.00000000000E+00 0. -1.
         -1   -1    0    0    0  501 -0.00000000000E+00 -0.00000000000E+00 -0.41202064971E+03  0.41202064971E+03  0.00000000000E+00 0.  1.
         24    2    1    2    0    0 -0.87649330275E+02  0.63081378229E+02  0.15741302790E+04  0.15798394289E+04  0.79654381336E+02 0.  0.
        254    2    1    2    0    0  0.87649330275E+02 -0.63081378229E+02  0.90049868531E+02  0.90838201805E+03  0.89743370034E+03 0.  0.
         23    2    4    4    0    0 -0.34010605276E+03 -0.80046359359E+02 -0.17019632220E+03  0.39929099738E+03  0.91580378523E+02 0.  0.
         23    2    4    4    0    0  0.42775538304E+03  0.16964981130E+02  0.26024619073E+03  0.50909102066E+03  0.90460539611E+02 0.  0.
          2    1    3    3  502    0 -0.72220432092E+02  0.80799248307E+02  0.13896324797E+04  0.13938517633E+04  0.00000000000E+00 0. -1.
         -1    1    3    3    0  502 -0.15428898183E+02 -0.17717870079E+02  0.18449779925E+03  0.18598766558E+03  0.00000000000E+00 0.  1.
         11    1    5    5    0    0 -0.32763562039E+03 -0.92919670124E+02 -0.17153513674E+03  0.38131806668E+03  0.00000000000E+00 0. -1.
        -11    1    5    5    0    0 -0.12470432372E+02  0.12873310765E+02  0.13388145388E+01  0.17972930700E+02  0.00000000000E+00 0.  1.
          3    1    6    6  503    0  0.43102937643E+03  0.14843121349E+02  0.26219442057E+03  0.50473018116E+03  0.00000000000E+00 0. -1.
         -3    1    6    6    0  503 -0.32739933906E+01  0.21218597807E+01 -0.19482298405E+01  0.43608395020E+01  0.00000000000E+00 0.  1.
<mgrwt>
<rscale>  0 0.18497974E+04</rscale>
<asrwt>0</asrwt>
<pdfrwt beam="1">  1        2 0.31941550E+00 0.18497974E+04</pdfrwt>
<pdfrwt beam="2">  1       -1 0.63387794E-01 0.18497974E+04</pdfrwt>
<totfact> 0.16375964E+01</totfact>
</mgrwt>
</event>
<event>
12    6  0.1529770E-007  0.1284972E+04  0.7818608E-02  0.9041568E-01
          2   -1    0    0  501    0  0.00000000000E+00  0.00000000000E+00  0.48398488159E+03  0.48398488159E+03  0.00000000000E+00 0. -1.
         -1   -1    0    0    0  501 -0.00000000000E+00 -0.00000000000E+00 -0.85289468175E+03  0.85289468175E+03  0.00000000000E+00 0.  1.
         24    2    1    2    0    0  0.15915056661E+03  0.19485007860E+03 -0.26396381397E+03  0.37426660964E+03  0.84280152042E+02 0.  0.
        254    2    1    2    0    0 -0.15915056661E+03 -0.19485007860E+03 -0.10494598619E+03  0.96261295371E+03  0.92320885104E+03 0.  0.
         23    2    4    4    0    0 -0.30523539516E+02 -0.26348993690E+03 -0.47675786737E+03  0.55299969275E+03  0.90288220536E+02 0.  0.
         23    2    4    4    0    0 -0.12862702709E+03  0.68639858302E+02  0.37181188118E+03  0.40961326096E+03  0.91008825517E+02 0.  0.
          2    1    3    3  502    0  0.59110861706E+02  0.10947616056E+03 -0.17791456353E+03  0.21710070387E+03  0.00000000000E+00 0. -1.
         -1    1    3    3    0  502  0.10003970490E+03  0.85373918038E+02 -0.86049250435E+02  0.15716590578E+03  0.00000000000E+00 0.  1.
         11    1    5    5    0    0 -0.54914520816E+01 -0.25260281864E+03 -0.43671365445E+03  0.50453657550E+03  0.00000000000E+00 0. -1.
        -11    1    5    5    0    0 -0.25032087434E+02 -0.10887118261E+02 -0.40044212920E+02  0.48463117251E+02  0.00000000000E+00 0.  1.
          2    1    6    6  503    0 -0.95869070139E+01  0.10478843907E+02  0.15412744048E+03  0.15478043438E+03  0.00000000000E+00 0.  1.
         -2    1    6    6    0  503 -0.11904012008E+03  0.58161014395E+02  0.21768444070E+03  0.25483282658E+03  0.00000000000E+00 0. -1.
<mgrwt>
<rscale>  0 0.12849718E+04</rscale>
<asrwt>0</asrwt>
<pdfrwt beam="1">  1        2 0.74459213E-01 0.12849718E+04</pdfrwt>
<pdfrwt beam="2">  1       -1 0.13121456E+00 0.12849718E+04</pdfrwt>
<totfact> 0.35557349E+01</totfact>
</mgrwt>
</event>
<event>
12    6  0.1529770E-007  0.1305330E+04  0.7818608E-02  0.9025349E-01
          2   -1    0    0  501    0  0.00000000000E+00  0.00000000000E+00  0.42228872928E+03  0.42228872928E+03  0.00000000000E+00 0. -1.
         -1   -1    0    0    0  501 -0.00000000000E+00 -0.00000000000E+00 -0.10087216550E+04  0.10087216550E+04  0.00000000000E+00 0.  1.
         24    2    1    2    0    0  0.12262339201E+03  0.11432324343E+03  0.16367291636E+03  0.24751575192E+03  0.79805536427E+02 0.  0.
        254    2    1    2    0    0 -0.12262339201E+03 -0.11432324343E+03 -0.75010584203E+03  0.11834946323E+04  0.89994137042E+03 0.  0.
         23    2    4    4    0    0 -0.15496622206E+03  0.73690160676E+02  0.15855115837E+03  0.25037804224E+03  0.90032907631E+02 0.  0.
         23    2    4    4    0    0  0.32342830050E+02 -0.18801340411E+03 -0.90865700040E+03  0.93311659007E+03  0.93026488191E+02 0.  0.
          2    1    3    3  502    0  0.11411244050E+03  0.10869018069E+03  0.10831753116E+03  0.19122733071E+03  0.00000000000E+00 0. -1.
         -1    1    3    3    0  502  0.85109515109E+01  0.56330627365E+01  0.55355385202E+02  0.56288421210E+02  0.00000000000E+00 0.  1.
         11    1    5    5    0    0 -0.25654799330E+02  0.13077635221E+02  0.84986184097E+02  0.89732072076E+02  0.00000000000E+00 0. -1.
        -11    1    5    5    0    0 -0.12931142273E+03  0.60612525454E+02  0.73564974269E+02  0.16064597016E+03  0.00000000000E+00 0.  1.
          1    1    6    6  503    0 -0.20038494405E+02 -0.10221827267E+03 -0.33843707459E+03  0.35410417956E+03  0.00000000000E+00 0. -1.
         -1    1    6    6    0  503  0.52381324455E+02 -0.85795131433E+02 -0.57021992581E+03  0.57901241050E+03  0.00000000000E+00 0.  1.
<mgrwt>
<rscale>  0 0.13053303E+04</rscale>
<asrwt>0</asrwt>
<pdfrwt beam="1">  1        2 0.64967498E-01 0.13053303E+04</pdfrwt>
<pdfrwt beam="2">  1       -1 0.15518795E+00 0.13053303E+04</pdfrwt>
<totfact> 0.26665613E+01</totfact>
</mgrwt>
</event>
<event>
12    6  0.1529770E-007  0.1861499E+04  0.7818608E-02  0.8674262E-01
         -1   -1    0    0    0  501 -0.00000000000E+00  0.00000000000E+00  0.54388750135E+03  0.54388750135E+03  0.00000000000E+00 0.  1.
          2   -1    0    0  501    0  0.00000000000E+00 -0.00000000000E+00 -0.15927833474E+04  0.15927833474E+04  0.00000000000E+00 0. -1.
         24    2    1    2    0    0  0.16864582680E+03  0.57862571098E+02 -0.11884968435E+04  0.12043456123E+04  0.78320589880E+02 0.  0.
        254    2    1    2    0    0 -0.16864582680E+03 -0.57862571098E+02  0.13960099740E+03  0.93232523651E+03  0.90440721809E+03 0.  0.
         23    2    4    4    0    0  0.93611541377E+02  0.20637266462E+03 -0.27497370223E+03  0.36815544014E+03  0.92601802409E+02 0.  0.
         23    2    4    4    0    0 -0.26225736818E+03 -0.26423523572E+03  0.41457469963E+03  0.56416979637E+03  0.88409222420E+02 0.  0.
          2    1    3    3  502    0  0.16978532781E+03  0.44158878029E+02 -0.99395497666E+03  0.10093183639E+04  0.00000000000E+00 0. -1.
         -1    1    3    3    0  502 -0.11395010123E+01  0.13703693069E+02 -0.19454186684E+03  0.19502724840E+03  0.00000000000E+00 0.  1.
         11    1    5    5    0    0  0.37079770646E+02  0.32868442115E+02 -0.11599517073E+03  0.12613533808E+03  0.00000000000E+00 0. -1.
        -11    1    5    5    0    0  0.56531770730E+02  0.17350422250E+03 -0.15897853150E+03  0.24202010207E+03  0.00000000000E+00 0.  1.
          1    1    6    6  503    0  0.12518345258E+01 -0.29758833677E+01 -0.37734969056E+01  0.49661101875E+01  0.00000000000E+00 0. -1.
         -1    1    6    6    0  503 -0.26350920270E+03 -0.26125935235E+03  0.41834819653E+03  0.55920368618E+03  0.00000000000E+00 0.  1.
<mgrwt>
<rscale>  0 0.18614993E+04</rscale>
<asrwt>0</asrwt>
<pdfrwt beam="1">  1        2 0.24504359E+00 0.18614993E+04</pdfrwt>
<pdfrwt beam="2">  1       -1 0.83675001E-01 0.18614993E+04</pdfrwt>
<totfact> 0.17064207E+01</totfact>
</mgrwt>
</event>
<event>
12    6  0.1529770E-007  0.2199482E+04  0.7818608E-02  0.8518644E-01
          2   -1    0    0  501    0  0.00000000000E+00  0.00000000000E+00  0.19100527761E+04  0.19100527761E+04  0.00000000000E+00 0. -1.
         -1   -1    0    0    0  501 -0.00000000000E+00 -0.00000000000E+00 -0.63319205198E+03  0.63319205198E+03  0.00000000000E+00 0.  1.
         24    2    1    2    0    0 -0.65944486159E+03  0.61713102389E+03  0.36011974532E+03  0.97602962391E+03  0.85025699932E+02 0.  0.
        254    2    1    2    0    0  0.65944486159E+03 -0.61713102389E+03  0.91674097875E+03  0.15672152041E+04  0.89444465887E+03 0.  0.
         23    2    4    4    0    0  0.54608125034E+03 -0.68146539702E+03  0.29686775426E+03  0.92726837998E+03  0.95374869282E+02 0.  0.
         23    2    4    4    0    0  0.11336361126E+03  0.64334373124E+02  0.61987322448E+03  0.63994682414E+03  0.91098317082E+02 0.  0.
          4    1    3    3  502    0 -0.24352126390E+03  0.22423492606E+03  0.17641168261E+03  0.37510663790E+03  0.00000000000E+00 0. -1.
         -3    1    3    3    0  502 -0.41592359769E+03  0.39289609783E+03  0.18370806272E+03  0.60092298601E+03  0.00000000000E+00 0.  1.
         11    1    5    5    0    0  0.48051104028E+03 -0.56785334111E+03  0.22230211799E+03  0.77638038905E+03  0.00000000000E+00 0.  1.
        -11    1    5    5    0    0  0.65570210057E+02 -0.11361205591E+03  0.74565636268E+02  0.15088799093E+03  0.00000000000E+00 0. -1.
          3    1    6    6  503    0  0.54225837783E+02  0.32490358629E+02  0.12047916339E+03  0.13605621522E+03  0.00000000000E+00 0. -1.
         -3    1    6    6    0  503  0.59137773472E+02  0.31844014495E+02  0.49939406109E+03  0.50389060893E+03  0.00000000000E+00 0.  1.
<mgrwt>
<rscale>  0 0.21994820E+04</rscale>
<asrwt>0</asrwt>
<pdfrwt beam="1">  1        2 0.29385427E+00 0.21994820E+04</pdfrwt>
<pdfrwt beam="2">  1       -1 0.97414163E-01 0.21994820E+04</pdfrwt>
<totfact> 0.78917909E+00</totfact>
</mgrwt>
</event>
<event>
12    6  0.1529770E-007  0.2533491E+04  0.7818608E-02  0.8391150E-01
          2   -1    0    0  501    0  0.00000000000E+00  0.00000000000E+00  0.15856806193E+04  0.15856806193E+04  0.00000000000E+00 0. -1.
         -1   -1    0    0    0  501 -0.00000000000E+00 -0.00000000000E+00 -0.10119596412E+04  0.10119596412E+04  0.00000000000E+00 0.  1.
         24    2    1    2    0    0  0.97036510767E+03 -0.57158933776E+03  0.19930851883E+03  0.11465148509E+04  0.80309428954E+02 0.  0.
        254    2    1    2    0    0 -0.97036510767E+03  0.57158933776E+03  0.37441245928E+03  0.14511254096E+04  0.83501943179E+03 0.  0.
         23    2    4    4    0    0 -0.62180904213E+03 -0.94405723992E+01 -0.74717893938E+02  0.63337914445E+03  0.94078518641E+02 0.  0.
         23    2    4    4    0    0 -0.34855606554E+03  0.58102991016E+03  0.44913035322E+03  0.81774626514E+03  0.88903276892E+02 0.  0.
          4    1    3    3  502    0  0.15161275834E+03 -0.12067055927E+03  0.48098118494E+02  0.19965280205E+03  0.00000000000E+00 0. -1.
         -3    1    3    3    0  502  0.81875234933E+03 -0.45091877849E+03  0.15121040034E+03  0.94686204882E+03  0.00000000000E+00 0.  1.
         11    1    5    5    0    0 -0.61211704027E+03 -0.15730222493E+02 -0.60859516064E+02  0.61533616145E+03  0.00000000000E+00 0.  1.
        -11    1    5    5    0    0 -0.96920018571E+01  0.62896500939E+01 -0.13858377874E+02  0.18042983002E+02  0.00000000000E+00 0. -1.
          2    1    6    6  503    0 -0.10658172069E+03  0.13152726482E+03  0.14925910694E+03  0.22569307827E+03  0.00000000000E+00 0. -1.
         -2    1    6    6    0  503 -0.24197434485E+03  0.44950264534E+03  0.29987124629E+03  0.59205318687E+03  0.00000000000E+00 0.  1.
<mgrwt>
<rscale>  0 0.25334915E+04</rscale>
<asrwt>0</asrwt>
<pdfrwt beam="1">  1        2 0.24395086E+00 0.25334915E+04</pdfrwt>
<pdfrwt beam="2">  1       -1 0.15568610E+00 0.25334915E+04</pdfrwt>
<totfact> 0.36275615E+00</totfact>
</mgrwt>
</event>
<event>
12    6  0.1529770E-007  0.1885547E+04  0.7818608E-02  0.8662084E-01
          2   -1    0    0  501    0  0.00000000000E+00  0.00000000000E+00  0.23465543106E+04  0.23465543106E+04  0.00000000000E+00 0. -1.
         -1   -1    0    0    0  501 -0.00000000000E+00 -0.00000000000E+00 -0.37877733407E+03  0.37877733407E+03  0.00000000000E+00 0.  1.
         24    2    1    2    0    0 -0.24497973252E+03 -0.36959450530E+02  0.16937914012E+04  0.17137286068E+04  0.80965156853E+02 0.  0.
        254    2    1    2    0    0  0.24497973252E+03  0.36959450530E+02  0.27398557528E+03  0.10116030378E+04  0.94174919186E+03 0.  0.
         23    2    4    4    0    0  0.22305782752E+03 -0.20253839385E+03 -0.26872005646E+03  0.41143044754E+03  0.79296588939E+02 0.  0.
         23    2    4    4    0    0  0.21921904999E+02  0.23949784438E+03  0.54270563175E+03  0.60017259029E+03  0.88532186388E+02 0.  0.
          4    1    3    3  502    0 -0.18382344171E+03 -0.62788557994E+02  0.12564395137E+04  0.12713668677E+04  0.00000000000E+00 0. -1.
         -3    1    3    3    0  502 -0.61156290812E+02  0.25829107464E+02  0.43735188749E+03  0.44236173906E+03  0.00000000000E+00 0.  1.
         11    1    5    5    0    0  0.13335175828E+03 -0.12328833000E+03 -0.10891358708E+03  0.21176608132E+03  0.00000000000E+00 0. -1.
        -11    1    5    5    0    0  0.89706069244E+02 -0.79250063857E+02 -0.15980646939E+03  0.19966436622E+03  0.00000000000E+00 0.  1.
          2    1    6    6  503    0  0.19444845170E+02  0.14492984423E+03  0.22221550165E+03  0.26601220071E+03  0.00000000000E+00 0. -1.
         -2    1    6    6    0  503  0.24770598289E+01  0.94568000154E+02  0.32049013009E+03  0.33416038958E+03  0.00000000000E+00 0.  1.
<mgrwt>
<rscale>  0 0.18855467E+04</rscale>
<asrwt>0</asrwt>
<pdfrwt beam="1">  1        2 0.36100835E+00 0.18855467E+04</pdfrwt>
<pdfrwt beam="2">  1       -1 0.58273437E-01 0.18855467E+04</pdfrwt>
<totfact> 0.13592860E+01</totfact>
</mgrwt>
</event>
<event>
12    6  0.1529770E-007  0.1583921E+04  0.7818608E-02  0.8830487E-01
          2   -1    0    0  501    0  0.00000000000E+00  0.00000000000E+00  0.24451143455E+04  0.24451143455E+04  0.00000000000E+00 0. -1.
         -1   -1    0    0    0  501 -0.00000000000E+00 -0.00000000000E+00 -0.25651200279E+03  0.25651200279E+03  0.00000000000E+00 0.  1.
         24    2    1    2    0    0 -0.11202253944E+03 -0.14185326788E+03 -0.11250499689E+03  0.22416905636E+03  0.70164040326E+02 0.  0.
        254    2    1    2    0    0  0.11202253944E+03  0.14185326788E+03  0.23011073396E+04  0.24774572920E+04  0.90001569208E+03 0.  0.
         23    2    4    4    0    0  0.33909941634E+03 -0.17253510769E+03  0.17756736207E+04  0.18180496063E+04  0.86780103599E+02 0.  0.
         23    2    4    4    0    0 -0.22707687690E+03  0.31438837557E+03  0.52543371896E+03  0.65940768562E+03  0.91290438282E+02 0.  0.
          4    1    3    3  502    0 -0.39219381606E+02 -0.18358591732E+02 -0.23304445530E+01  0.43366216757E+02  0.00000000000E+00 0. -1.
         -3    1    3    3    0  502 -0.72803157837E+02 -0.12349467614E+03 -0.11017455234E+03  0.18080283961E+03  0.00000000000E+00 0.  1.
         11    1    5    5    0    0  0.32913948417E+02 -0.45952438748E+02  0.19506316728E+03  0.20308765068E+03  0.00000000000E+00 0.  1.
        -11    1    5    5    0    0  0.30618546792E+03 -0.12658266894E+03  0.15806104534E+04  0.16149619557E+04  0.00000000000E+00 0. -1.
          4    1    6    6  503    0 -0.17544255807E+03  0.29113301707E+03  0.47112579587E+03  0.58094581532E+03  0.00000000000E+00 0. -1.
         -4    1    6    6    0  503 -0.51634318832E+02  0.23255358501E+02  0.54307923088E+02  0.78461870296E+02  0.00000000000E+00 0.  1.
<mgrwt>
<rscale>  0 0.15839207E+04</rscale>
<asrwt>0</asrwt>
<pdfrwt beam="1">  1        2 0.37617142E+00 0.15839207E+04</pdfrwt>
<pdfrwt beam="2">  1       -1 0.39463387E-01 0.15839207E+04</pdfrwt>
<totfact> 0.25615071E+01</totfact>
</mgrwt>
</event>
<event>
12    6  0.1529770E-007  0.1953084E+04  0.7818608E-02  0.8628875E-01
          2   -1    0    0  501    0  0.00000000000E+00  0.00000000000E+00  0.18748179899E+04  0.18748179899E+04  0.00000000000E+00 0. -1.
         -1   -1    0    0    0  501 -0.00000000000E+00 -0.00000000000E+00 -0.50865407013E+03  0.50865407013E+03  0.00000000000E+00 0.  1.
         24    2    1    2    0    0  0.47284022037E+03 -0.57908908968E+03  0.34363602545E+03  0.82687737489E+03  0.81966013290E+02 0.  0.
        254    2    1    2    0    0 -0.47284022037E+03  0.57908908968E+03  0.10225278943E+04  0.15565946851E+04  0.90471082195E+03 0.  0.
         23    2    4    4    0    0 -0.24590570926E+03 -0.61186890695E+02 -0.61727961106E+02  0.27390934447E+03  0.83681147010E+02 0.  0.
         23    2    4    4    0    0 -0.22693451111E+03  0.64027598037E+03  0.10842558554E+04  0.12826853407E+04  0.90654948950E+02 0.  0.
          2    1    3    3  502    0  0.36075709522E+03 -0.40839255583E+03  0.28208181330E+03  0.61359621153E+03  0.00000000000E+00 0. -1.
         -1    1    3    3    0  502  0.11208312515E+03 -0.17069653384E+03  0.61554212148E+02  0.21328116335E+03  0.00000000000E+00 0.  1.
         11    1    5    5    0    0 -0.11755559670E+03  0.15615043839E+01 -0.57755975354E+02  0.13098667604E+03  0.00000000000E+00 0.  1.
        -11    1    5    5    0    0 -0.12835011256E+03 -0.62748395079E+02 -0.39719857520E+01  0.14292266843E+03  0.00000000000E+00 0. -1.
          1    1    6    6  503    0 -0.17087097949E+03  0.57190938460E+03  0.94095138927E+03  0.11143010153E+04  0.00000000000E+00 0. -1.
         -1    1    6    6    0  503 -0.56063531622E+02  0.68366595768E+02  0.14330446617E+03  0.16838432534E+03  0.00000000000E+00 0.  1.
<mgrwt>
<rscale>  0 0.19530835E+04</rscale>
<asrwt>0</asrwt>
<pdfrwt beam="1">  1        2 0.28843353E+00 0.19530835E+04</pdfrwt>
<pdfrwt beam="2">  1       -1 0.78254473E-01 0.19530835E+04</pdfrwt>
<totfact> 0.13613709E+01</totfact>
</mgrwt>
</event>
<event>
12    6  0.1529770E-007  0.1159916E+04  0.7818608E-02  0.9148684E-01
          4   -1    0    0  501    0  0.00000000000E+00  0.00000000000E+00  0.37871696715E+03  0.37871696715E+03  0.00000000000E+00 0. -1.
         -3   -1    0    0    0  501 -0.00000000000E+00 -0.00000000000E+00 -0.88813294992E+03  0.88813294992E+03  0.00000000000E+00 0.  1.
         24    2    1    2    0    0  0.25119817609E+02 -0.35325081958E+02 -0.34447641595E+03  0.36200661650E+03  0.10249840286E+03 0.  0.
        254    2    1    2    0    0 -0.25119817609E+02  0.35325081958E+02 -0.16493956683E+03  0.90484330058E+03  0.88862673336E+03 0.  0.
         23    2    4    4    0    0 -0.38491564107E+02  0.24406190473E+03  0.29253844618E+03  0.39368094573E+03  0.91422812764E+02 0.  0.
         23    2    4    4    0    0  0.13371746498E+02 -0.20873682277E+03 -0.45747801301E+03  0.51116235484E+03  0.90834772175E+02 0.  0.
          4    1    3    3  502    0 -0.12820230004E+02 -0.91827420254E+01 -0.13795118607E+01  0.15829848434E+02  0.00000000000E+00 0. -1.
         -3    1    3    3    0  502  0.37940047614E+02 -0.26142339932E+02 -0.34309690409E+03  0.34617676806E+03  0.00000000000E+00 0.  1.
         11    1    5    5    0    0 -0.12150402111E+02  0.17963293173E+03  0.26145604468E+03  0.31745060362E+03  0.00000000000E+00 0. -1.
        -11    1    5    5    0    0 -0.26341161996E+02  0.64428972996E+02  0.31082401494E+02  0.76230342117E+02  0.00000000000E+00 0.  1.
          2    1    6    6  503    0 -0.20733847337E+02 -0.84014318850E+02 -0.26915070806E+03  0.28271965239E+03  0.00000000000E+00 0. -1.
         -2    1    6    6    0  503  0.34105593834E+02 -0.12472250392E+03 -0.18832730495E+03  0.22844270245E+03  0.00000000000E+00 0.  1.
<mgrwt>
<rscale>  0 0.11599155E+04</rscale>
<asrwt>0</asrwt>
<pdfrwt beam="1">  1        4 0.58264150E-01 0.11599155E+04</pdfrwt>
<pdfrwt beam="2">  1       -3 0.13663584E+00 0.11599155E+04</pdfrwt>
<totfact> 0.25872815E+00</totfact>
</mgrwt>
</event>
<event>
12    6  0.1529770E-007  0.2497810E+04  0.7818608E-02  0.8403766E-01
         -3   -1    0    0    0  501 -0.00000000000E+00  0.00000000000E+00  0.17623323809E+04  0.17623323809E+04  0.00000000000E+00 0.  1.
          4   -1    0    0  501    0  0.00000000000E+00 -0.00000000000E+00 -0.88505637683E+03  0.88505637683E+03  0.00000000000E+00 0. -1.
         24    2    1    2    0    0 -0.21967326312E+03  0.76537826222E+03  0.11785063396E+04  0.14245677257E+04  0.80347904374E+02 0.  0.
        254    2    1    2    0    0  0.21967326312E+03 -0.76537826222E+03 -0.30123033560E+03  0.12228210320E+04  0.87777635785E+03 0.  0.
         23    2    4    4    0    0  0.46801746530E+03 -0.54635215720E+03  0.55657397847E+02  0.72729335231E+03  0.91196748094E+02 0.  0.
         23    2    4    4    0    0 -0.24834420218E+03 -0.21902610502E+03 -0.35688773345E+03  0.49552767969E+03  0.92366387937E+02 0.  0.
          2    1    3    3  502    0 -0.51740838323E+02  0.31095185049E+03  0.49240962183E+03  0.58466691658E+03  0.00000000000E+00 0. -1.
         -1    1    3    3    0  502 -0.16793242480E+03  0.45442641173E+03  0.68609671781E+03  0.83990080912E+03  0.00000000000E+00 0.  1.
         11    1    5    5    0    0  0.38307432830E+03 -0.45752203561E+03  0.79822796005E+02  0.60203324895E+03  0.00000000000E+00 0. -1.
        -11    1    5    5    0    0  0.84943136998E+02 -0.88830121594E+02 -0.24165398157E+02  0.12526010336E+03  0.00000000000E+00 0.  1.
          2    1    6    6  503    0 -0.24396247670E+03 -0.18787049587E+03 -0.34357717185E+03  0.46136567522E+03  0.00000000000E+00 0. -1.
         -2    1    6    6    0  503 -0.43817254814E+01 -0.31155609148E+02 -0.13310561601E+02  0.34162004474E+02  0.00000000000E+00 0.  1.
<mgrwt>
<rscale>  0 0.24978099E+04</rscale>
<asrwt>0</asrwt>
<pdfrwt beam="1">  1        4 0.13616252E+00 0.24978099E+04</pdfrwt>
<pdfrwt beam="2">  1       -3 0.27112806E+00 0.24978099E+04</pdfrwt>
<totfact> 0.43249904E-02</totfact>
</mgrwt>
</event>
<event>
12    6  0.1529770E-007  0.1444055E+04  0.7818608E-02  0.8922532E-01
          2   -1    0    0  501    0  0.00000000000E+00  0.00000000000E+00  0.90448010291E+03  0.90448010291E+03  0.00000000000E+00 0. -1.
         -1   -1    0    0    0  501 -0.00000000000E+00 -0.00000000000E+00 -0.57637948167E+03  0.57637948167E+03  0.00000000000E+00 0.  1.
         24    2    1    2    0    0 -0.44106442615E+03  0.99757779856E+02  0.58549098420E+02  0.46276579896E+03  0.78960402177E+02 0.  0.
        254    2    1    2    0    0  0.44106442615E+03 -0.99757779856E+02  0.26955152282E+03  0.10180937856E+04  0.87141694395E+03 0.  0.
         23    2    4    4    0    0  0.67869251139E+03 -0.16269934107E+03  0.27442395798E+03  0.75529093658E+03  0.89784684507E+02 0.  0.
         23    2    4    4    0    0 -0.23762808524E+03  0.62941561217E+02 -0.48724351593E+01  0.26280284903E+03  0.92805440631E+02 0.  0.
          2    1    3    3  502    0 -0.95466276764E+02  0.44724432293E+02  0.38521200432E+02  0.11224066877E+03  0.00000000000E+00 0. -1.
         -1    1    3    3    0  502 -0.34559814938E+03  0.55033347563E+02  0.20027897989E+02  0.35052513019E+03  0.00000000000E+00 0.  1.
         11    1    5    5    0    0  0.89307171741E+02 -0.12783946264E+02  0.56534277403E+01  0.90394476887E+02  0.00000000000E+00 0. -1.
        -11    1    5    5    0    0  0.58938533965E+03 -0.14991539481E+03  0.26877053024E+03  0.66489645970E+03  0.00000000000E+00 0.  1.
          3    1    6    6  503    0 -0.32066315791E+02  0.26833814262E+02 -0.31571213508E+02  0.52393164808E+02  0.00000000000E+00 0. -1.
         -3    1    6    6    0  503 -0.20556176945E+03  0.36107746955E+02  0.26698778349E+02  0.21040968422E+03  0.00000000000E+00 0.  1.
<mgrwt>
<rscale>  0 0.14440551E+04</rscale>
<asrwt>0</asrwt>
<pdfrwt beam="1">  1        2 0.13915079E+00 0.14440551E+04</pdfrwt>
<pdfrwt beam="2">  1       -1 0.88673766E-01 0.14440551E+04</pdfrwt>
<totfact> 0.40254417E+01</totfact>
</mgrwt>
</event>
<event>
12    6  0.1529770E-007  0.1887359E+04  0.7818608E-02  0.8661174E-01
          2   -1    0    0  501    0  0.00000000000E+00  0.00000000000E+00  0.25624449708E+04  0.25624449708E+04  0.00000000000E+00 0. -1.
         -1   -1    0    0    0  501 -0.00000000000E+00 -0.00000000000E+00 -0.34753164590E+03  0.34753164590E+03  0.00000000000E+00 0.  1.
         24    2    1    2    0    0 -0.15629340058E+03  0.52109698581E+03  0.92069601532E+02  0.55748454973E+03  0.79639914504E+02 0.  0.
        254    2    1    2    0    0  0.15629340058E+03 -0.52109698581E+03  0.21228437234E+04  0.23524920670E+04  0.85544360167E+03 0.  0.
         23    2    4    4    0    0  0.23083931889E+03 -0.62695404345E+03  0.20829501168E+04  0.21893494033E+04  0.90617088432E+02 0.  0.
         23    2    4    4    0    0 -0.74545918309E+02  0.10585705765E+03  0.39893606551E+02  0.16314266370E+03  0.90891244266E+02 0.  0.
          2    1    3    3  502    0 -0.30512542309E+02  0.72799909160E+02  0.41382294618E+02  0.89125396604E+02  0.00000000000E+00 0. -1.
         -1    1    3    3    0  502 -0.12578085827E+03  0.44829707665E+03  0.50687306914E+02  0.46835915313E+03  0.00000000000E+00 0.  1.
         11    1    5    5    0    0 -0.69839599296E+01 -0.44093836786E+02  0.13072657888E+03  0.13813935197E+03  0.00000000000E+00 0. -1.
        -11    1    5    5    0    0  0.23782327882E+03 -0.58286020667E+03  0.19522235379E+04  0.20512100513E+04  0.00000000000E+00 0.  1.
          1    1    6    6  503    0 -0.17230503375E+02  0.49435539985E+02 -0.26660348905E+02  0.58749783522E+02  0.00000000000E+00 0. -1.
         -1    1    6    6    0  503 -0.57315414934E+02  0.56421517663E+02  0.66553955456E+02  0.10439288018E+03  0.00000000000E+00 0.  1.
<mgrwt>
<rscale>  0 0.18873587E+04</rscale>
<asrwt>0</asrwt>
<pdfrwt beam="1">  1        2 0.39422229E+00 0.18873587E+04</pdfrwt>
<pdfrwt beam="2">  1       -1 0.53466409E-01 0.18873587E+04</pdfrwt>
<totfact> 0.12072649E+01</totfact>
</mgrwt>
</event>
<event>
12    6  0.1529770E-007  0.3154241E+04  0.7818608E-02  0.8201008E-01
         -1   -1    0    0    0  501 -0.00000000000E+00  0.00000000000E+00  0.11540384167E+04  0.11540384167E+04  0.00000000000E+00 0.  1.
          2   -1    0    0  501    0  0.00000000000E+00 -0.00000000000E+00 -0.21553086069E+04  0.21553086069E+04  0.00000000000E+00 0. -1.
         24    2    1    2    0    0  0.92515663310E+03 -0.29287234375E+03  0.66128508542E+03  0.11770843615E+04  0.80874126197E+02 0.  0.
        254    2    1    2    0    0 -0.92515663310E+03  0.29287234375E+03 -0.16625552756E+04  0.21322626621E+04  0.91693239144E+03 0.  0.
         23    2    4    4    0    0 -0.92383107445E+03  0.53566898014E+03 -0.12670298966E+04  0.16591957976E+04  0.84621659893E+02 0.  0.
         23    2    4    4    0    0 -0.13255586488E+01 -0.24279663639E+03 -0.39552537897E+03  0.47306686458E+03  0.91651345890E+02 0.  0.
          2    1    3    3  502    0  0.34056136179E+03 -0.74058044379E+02  0.21098350217E+03  0.40740725726E+03  0.00000000000E+00 0. -1.
         -1    1    3    3    0  502  0.58459527131E+03 -0.21881429937E+03  0.45030158325E+03  0.76967710420E+03  0.00000000000E+00 0.  1.
         11    1    5    5    0    0 -0.43385845903E+03  0.20743321242E+03 -0.59661841113E+03  0.76629969893E+03  0.00000000000E+00 0. -1.
        -11    1    5    5    0    0 -0.48997261542E+03  0.32823576772E+03 -0.67041148548E+03  0.89289609862E+03  0.00000000000E+00 0.  1.
          4    1    6    6  503    0  0.41718902111E+02 -0.15264946955E+03 -0.21827046631E+03  0.26960030381E+03  0.00000000000E+00 0. -1.
         -4    1    6    6    0  503 -0.43044460760E+02 -0.90147166839E+02 -0.17725491266E+03  0.20346656077E+03  0.00000000000E+00 0.  1.
<mgrwt>
<rscale>  0 0.31542409E+04</rscale>
<asrwt>0</asrwt>
<pdfrwt beam="1">  1        2 0.33158594E+00 0.31542409E+04</pdfrwt>
<pdfrwt beam="2">  1       -1 0.17754437E+00 0.31542409E+04</pdfrwt>
<totfact> 0.11399137E+00</totfact>
</mgrwt>
</event>
<event>
12    6  0.1529770E-007  0.1808320E+04  0.7818608E-02  0.8701888E-01
         -1   -1    0    0    0  501 -0.00000000000E+00  0.00000000000E+00  0.28871451629E+03  0.28871451629E+03  0.00000000000E+00 0.  1.
          2   -1    0    0  501    0  0.00000000000E+00 -0.00000000000E+00 -0.28315341998E+04  0.28315341998E+04  0.00000000000E+00 0. -1.
         24    2    1    2    0    0 -0.61072970918E+03  0.24170406783E+03 -0.64815252207E+03  0.92611907613E+03  0.78633435826E+02 0.  0.
        254    2    1    2    0    0  0.61072970918E+03 -0.24170406783E+03 -0.18946671615E+04  0.21941296400E+04  0.89052208857E+03 0.  0.
         23    2    4    4    0    0  0.46091100623E+03  0.18152883646E+03 -0.15222817776E+04  0.16033805561E+04  0.89976236325E+02 0.  0.
         23    2    4    4    0    0  0.14981870295E+03 -0.42323290429E+03 -0.37238538386E+03  0.59074908389E+03  0.93497973110E+02 0.  0.
          4    1    3    3  502    0 -0.12419744872E+03  0.32343495692E+02 -0.90667391530E+02  0.15713587709E+03  0.00000000000E+00 0. -1.
         -3    1    3    3    0  502 -0.48653226045E+03  0.20936057214E+03 -0.55748513054E+03  0.76898319904E+03  0.00000000000E+00 0.  1.
         11    1    5    5    0    0  0.89927318190E+02  0.38978841623E+02 -0.20102579624E+03  0.22364624613E+03  0.00000000000E+00 0. -1.
        -11    1    5    5    0    0  0.37098368804E+03  0.14254999483E+03 -0.13212559813E+04  0.13797343099E+04  0.00000000000E+00 0.  1.
          2    1    6    6  503    0  0.87336193506E+02 -0.35377455136E+03 -0.28214916015E+03  0.46086027433E+03  0.00000000000E+00 0. -1.
         -2    1    6    6    0  503  0.62482509444E+02 -0.69458352933E+02 -0.90236223715E+02  0.12988880956E+03  0.00000000000E+00 0.  1.
<mgrwt>
<rscale>  0 0.18083197E+04</rscale>
<asrwt>0</asrwt>
<pdfrwt beam="1">  1        2 0.43562064E+00 0.18083197E+04</pdfrwt>
<pdfrwt beam="2">  1       -1 0.44417619E-01 0.18083197E+04</pdfrwt>
<totfact> 0.11958800E+01</totfact>
</mgrwt>
</event>
<event>
12    6  0.1529770E-007  0.1947772E+04  0.7818608E-02  0.8631436E-01
         -1   -1    0    0    0  501 -0.00000000000E+00  0.00000000000E+00  0.43910541128E+03  0.43910541128E+03  0.00000000000E+00 0.  1.
          2   -1    0    0  501    0  0.00000000000E+00 -0.00000000000E+00 -0.21599694674E+04  0.21599694674E+04  0.00000000000E+00 0. -1.
         24    2    1    2    0    0  0.40574478333E+02  0.56120179038E+03 -0.13807137259E+04  0.14928194798E+04  0.74470589236E+02 0.  0.
        254    2    1    2    0    0 -0.40574478333E+02 -0.56120179038E+03 -0.34015033028E+03  0.11062553989E+04  0.88966568023E+03 0.  0.
         23    2    4    4    0    0 -0.27268963971E+03 -0.15767158945E+03  0.20228448167E+03  0.38566758698E+03  0.92738915229E+02 0.  0.
         23    2    4    4    0    0  0.23211516137E+03 -0.40353020094E+03 -0.54243481195E+03  0.72058781192E+03  0.91088957920E+02 0.  0.
          2    1    3    3  502    0  0.56331401709E+02  0.46616257567E+03 -0.11862409271E+04  0.12757932085E+04  0.00000000000E+00 0. -1.
         -1    1    3    3    0  502 -0.15756923376E+02  0.95039214716E+02 -0.19447279877E+03  0.21702627129E+03  0.00000000000E+00 0.  1.
         11    1    5    5    0    0 -0.79785594274E+00  0.33664102613E+01  0.21150400679E+02  0.21431489473E+02  0.00000000000E+00 0.  1.
        -11    1    5    5    0    0 -0.27189178376E+03 -0.16103799971E+03  0.18113408099E+03  0.36423609751E+03  0.00000000000E+00 0. -1.
          3    1    6    6  503    0  0.23824368939E+03 -0.38684843371E+03 -0.50590569495E+03  0.67996495379E+03  0.00000000000E+00 0. -1.
         -3    1    6    6    0  503 -0.61285280109E+01 -0.16681767220E+02 -0.36529117007E+02  0.40622858128E+02  0.00000000000E+00 0.  1.
<mgrwt>
<rscale>  0 0.19477723E+04</rscale>
<asrwt>0</asrwt>
<pdfrwt beam="1">  1        2 0.33230300E+00 0.19477723E+04</pdfrwt>
<pdfrwt beam="2">  1       -1 0.67554678E-01 0.19477723E+04</pdfrwt>
<totfact> 0.12820258E+01</totfact>
</mgrwt>
</event>
<event>
12    6  0.1529770E-007  0.2589668E+04  0.7818608E-02  0.8371719E-01
          2   -1    0    0  501    0  0.00000000000E+00  0.00000000000E+00  0.27577661217E+04  0.27577661217E+04  0.00000000000E+00 0. -1.
         -1   -1    0    0    0  501 -0.00000000000E+00 -0.00000000000E+00 -0.60795422661E+03  0.60795422661E+03  0.00000000000E+00 0.  1.
         24    2    1    2    0    0  0.65058847414E+03 -0.53316285341E+03  0.19441291266E+04  0.21198062841E+04  0.80078900492E+02 0.  0.
        254    2    1    2    0    0 -0.65058847414E+03  0.53316285341E+03  0.20568276841E+03  0.12459140641E+04  0.89580604096E+03 0.  0.
         23    2    4    4    0    0 -0.53554371949E+03  0.22096665584E+03  0.51684041456E+03  0.78122575357E+03  0.86927127185E+02 0.  0.
         23    2    4    4    0    0 -0.11504475466E+03  0.31219619757E+03 -0.31115764615E+03  0.46468831056E+03  0.91729950728E+02 0.  0.
          2    1    3    3  502    0  0.54823418777E+03 -0.42166665086E+03  0.16476424197E+04  0.17869216637E+04  0.00000000000E+00 0. -1.
         -1    1    3    3    0  502  0.10235428638E+03 -0.11149620255E+03  0.29648670698E+03  0.33288462046E+03  0.00000000000E+00 0.  1.
         11    1    5    5    0    0 -0.11561827852E+03  0.82495702433E+02  0.10142383022E+03  0.17452770721E+03  0.00000000000E+00 0. -1.
        -11    1    5    5    0    0 -0.41992544097E+03  0.13847095341E+03  0.41541658434E+03  0.60669804636E+03  0.00000000000E+00 0.  1.
          1    1    6    6  503    0 -0.41870095679E+02  0.34615868416E+02 -0.76999845968E+02  0.94235553468E+02  0.00000000000E+00 0. -1.
         -1    1    6    6    0  503 -0.73174658977E+02  0.27758032915E+03 -0.23415780018E+03  0.37045275709E+03  0.00000000000E+00 0.  1.
<mgrwt>
<rscale>  0 0.25896684E+04</rscale>
<asrwt>0</asrwt>
<pdfrwt beam="1">  1        2 0.42427171E+00 0.25896684E+04</pdfrwt>
<pdfrwt beam="2">  1       -1 0.93531421E-01 0.25896684E+04</pdfrwt>
<totfact> 0.27367114E+00</totfact>
</mgrwt>
</event>
<event>
12    6  0.1529770E-007  0.1179813E+04  0.7818608E-02  0.9130712E-01
         -1   -1    0    0    0  501 -0.00000000000E+00  0.00000000000E+00  0.91074817927E+03  0.91074817927E+03  0.00000000000E+00 0.  1.
          2   -1    0    0  501    0  0.00000000000E+00 -0.00000000000E+00 -0.38209192904E+03  0.38209192904E+03  0.00000000000E+00 0. -1.
         24    2    1    2    0    0 -0.30783614870E+02 -0.15443155143E+03  0.30394334836E+03  0.35150919857E+03  0.79877547831E+02 0.  0.
        254    2    1    2    0    0  0.30783614870E+02  0.15443155143E+03  0.22471290187E+03  0.94133090974E+03  0.90045058629E+03 0.  0.
         23    2    4    4    0    0 -0.34176439384E+03 -0.86685143586E+02  0.31405801798E+03  0.48053680971E+03  0.89252293046E+02 0.  0.
         23    2    4    4    0    0  0.37254800871E+03  0.24111669501E+03 -0.89345116104E+02  0.46079410003E+03  0.86135784899E+02 0.  0.
          2    1    3    3  502    0 -0.35857719912E+02 -0.68329859087E+02  0.78261993836E+02  0.10990762212E+03  0.00000000000E+00 0. -1.
         -1    1    3    3    0  502  0.50741050420E+01 -0.86101692341E+02  0.22568135452E+03  0.24160157645E+03  0.00000000000E+00 0.  1.
         11    1    5    5    0    0 -0.32531750881E+03 -0.79747965674E+02  0.26122600206E+03  0.42477081317E+03  0.00000000000E+00 0. -1.
        -11    1    5    5    0    0 -0.16446885035E+02 -0.69371779124E+01  0.52832015915E+02  0.55765996543E+02  0.00000000000E+00 0.  1.
          4    1    6    6  503    0  0.17981736001E+03  0.16465819855E+03 -0.62672588304E+02  0.25174284227E+03  0.00000000000E+00 0. -1.
         -4    1    6    6    0  503  0.19273064870E+03  0.76458496468E+02 -0.26672527800E+02  0.20905125776E+03  0.00000000000E+00 0.  1.
<mgrwt>
<rscale>  0 0.11798127E+04</rscale>
<asrwt>0</asrwt>
<pdfrwt beam="1">  1        2 0.58783374E-01 0.11798127E+04</pdfrwt>
<pdfrwt beam="2">  1       -1 0.14011510E+00 0.11798127E+04</pdfrwt>
<totfact> 0.39619660E+01</totfact>
</mgrwt>
</event>
<event>
12    6  0.1529770E-007  0.1431828E+04  0.7818608E-02  0.8931097E-01
         -1   -1    0    0    0  501 -0.00000000000E+00  0.00000000000E+00  0.22875126048E+03  0.22875126048E+03  0.00000000000E+00 0.  1.
          2   -1    0    0  501    0  0.00000000000E+00 -0.00000000000E+00 -0.22405684799E+04  0.22405684799E+04  0.00000000000E+00 0. -1.
         24    2    1    2    0    0  0.52959755808E+02 -0.34677482929E+03 -0.18421367979E+03  0.40407027439E+03  0.79250166289E+02 0.  0.
        254    2    1    2    0    0 -0.52959755808E+02  0.34677482929E+03 -0.18276035397E+04  0.20652494660E+04  0.89557977913E+03 0.  0.
         23    2    4    4    0    0  0.73528958414E+02  0.51308339142E+03 -0.52946943719E+03  0.74735291472E+03  0.97659715002E+02 0.  0.
         23    2    4    4    0    0 -0.12648871422E+03 -0.16630856213E+03 -0.12981341025E+04  0.13178965513E+04  0.89672957492E+02 0.  0.
          4    1    3    3  502    0  0.45936733765E+02 -0.15682880704E+03 -0.12247390845E+03  0.20421879561E+03  0.00000000000E+00 0. -1.
         -3    1    3    3    0  502  0.70230220421E+01 -0.18994602225E+03 -0.61739771339E+02  0.19985147878E+03  0.00000000000E+00 0.  1.
         11    1    5    5    0    0  0.62999643399E+02  0.16900448733E+03 -0.21973739972E+03  0.28428154468E+03  0.00000000000E+00 0. -1.
        -11    1    5    5    0    0  0.10529315015E+02  0.34407890409E+03 -0.30973203747E+03  0.46307137004E+03  0.00000000000E+00 0.  1.
          2    1    6    6  503    0  0.34135928631E+01 -0.43690285813E+02 -0.16279463946E+03  0.16859000067E+03  0.00000000000E+00 0. -1.
         -2    1    6    6    0  503 -0.12990230708E+03 -0.12261827632E+03 -0.11353394630E+04  0.11493065507E+04  0.00000000000E+00 0.  1.
<mgrwt>
<rscale>  0 0.14318280E+04</rscale>
<asrwt>0</asrwt>
<pdfrwt beam="1">  1        2 0.34470285E+00 0.14318280E+04</pdfrwt>
<pdfrwt beam="2">  1       -1 0.35192501E-01 0.14318280E+04</pdfrwt>
<totfact> 0.41699822E+01</totfact>
</mgrwt>
</event>
<event>
12    6  0.1529770E-007  0.1391288E+04  0.7818608E-02  0.8960149E-01
         -1   -1    0    0    0  501 -0.00000000000E+00  0.00000000000E+00  0.93665737807E+03  0.93665737807E+03  0.00000000000E+00 0.  1.
          2   -1    0    0  501    0  0.00000000000E+00 -0.00000000000E+00 -0.51664644475E+03  0.51664644475E+03  0.00000000000E+00 0. -1.
         24    2    1    2    0    0 -0.25140652563E+03  0.26913710024E+03  0.28538766269E+03  0.47250309744E+03  0.78568691089E+02 0.  0.
        254    2    1    2    0    0  0.25140652563E+03 -0.26913710024E+03  0.13462327063E+03  0.98080072538E+03  0.89900312461E+03 0.  0.
         23    2    4    4    0    0 -0.13050340068E+03 -0.36272410444E+03  0.34531843538E+03  0.52510509791E+03  0.88829209770E+02 0.  0.
         23    2    4    4    0    0  0.38190992632E+03  0.93587004203E+02 -0.21069516475E+03  0.45569562746E+03  0.93017919057E+02 0.  0.
          4    1    3    3  502    0 -0.73358589278E+01  0.39588904834E+02  0.43387241829E+02  0.59190784466E+02  0.00000000000E+00 0. -1.
         -3    1    3    3    0  502 -0.24407066670E+03  0.22954819540E+03  0.24200042086E+03  0.41331231298E+03  0.00000000000E+00 0.  1.
         11    1    5    5    0    0 -0.56117850403E+02 -0.11341820490E+03  0.16771343575E+03  0.21009687972E+03  0.00000000000E+00 0. -1.
        -11    1    5    5    0    0 -0.74385550281E+02 -0.24930589954E+03  0.17760499963E+03  0.31500821819E+03  0.00000000000E+00 0.  1.
          2    1    6    6  503    0  0.28620136831E+02 -0.17705125661E+02 -0.17033747862E+02  0.37719123440E+02  0.00000000000E+00 0. -1.
         -2    1    6    6    0  503  0.35328978949E+03  0.11129212986E+03 -0.19366141689E+03  0.41797650402E+03  0.00000000000E+00 0.  1.
<mgrwt>
<rscale>  0 0.13912882E+04</rscale>
<asrwt>0</asrwt>
<pdfrwt beam="1">  1        2 0.79484068E-01 0.13912882E+04</pdfrwt>
<pdfrwt beam="2">  1       -1 0.14410114E+00 0.13912882E+04</pdfrwt>
<totfact> 0.25638528E+01</totfact>
</mgrwt>
</event>
<event>
12    6  0.1529770E-007  0.1794637E+04  0.7818608E-02  0.8709157E-01
         -1   -1    0    0    0  501 -0.00000000000E+00  0.00000000000E+00  0.35812981539E+03  0.35812981539E+03  0.00000000000E+00 0.  1.
          2   -1    0    0  501    0  0.00000000000E+00 -0.00000000000E+00 -0.22482915689E+04  0.22482915689E+04  0.00000000000E+00 0. -1.
         24    2    1    2    0    0 -0.93548337309E+02 -0.25916127595E+03 -0.15877956920E+04  0.16134653611E+04  0.79116709431E+02 0.  0.
        254    2    1    2    0    0  0.93548337309E+02  0.25916127595E+03 -0.30236606157E+03  0.99295602322E+03  0.90477653069E+03 0.  0.
         23    2    4    4    0    0 -0.30996596483E+03 -0.14334371494E+03 -0.29939123110E+02  0.35456494245E+03  0.90518657513E+02 0.  0.
         23    2    4    4    0    0  0.40351430214E+03  0.40250499089E+03 -0.27242693846E+03  0.63839108076E+03  0.92155713219E+02 0.  0.
          4    1    3    3  502    0 -0.49378205361E+02 -0.21970829952E+03 -0.11676839340E+04  0.11891996105E+04  0.00000000000E+00 0. -1.
         -3    1    3    3    0  502 -0.44170131947E+02 -0.39452976430E+02 -0.42011175798E+03  0.42426575056E+03  0.00000000000E+00 0.  1.
         11    1    5    5    0    0 -0.28422266110E+03 -0.12714749800E+03 -0.53708009520E+02  0.31596448790E+03  0.00000000000E+00 0.  1.
        -11    1    5    5    0    0 -0.25743303730E+02 -0.16196216939E+02  0.23768886410E+02  0.38600454548E+02  0.00000000000E+00 0. -1.
          2    1    6    6  503    0  0.10868149842E+03  0.66562533918E+02 -0.87949417640E+02  0.15484617878E+03  0.00000000000E+00 0. -1.
         -2    1    6    6    0  503  0.29483280372E+03  0.33594245697E+03 -0.18447752082E+03  0.48354490198E+03  0.00000000000E+00 0.  1.
<mgrwt>
<rscale>  0 0.17946367E+04</rscale>
<asrwt>0</asrwt>
<pdfrwt beam="1">  1        2 0.34589102E+00 0.17946367E+04</pdfrwt>
<pdfrwt beam="2">  1       -1 0.55096894E-01 0.17946367E+04</pdfrwt>
<totfact> 0.17374609E+01</totfact>
</mgrwt>
</event>
<event>
12    6  0.1529770E-007  0.1392359E+04  0.7818608E-02  0.8959368E-01
         -1   -1    0    0    0  501 -0.00000000000E+00  0.00000000000E+00  0.24737798574E+03  0.24737798574E+03  0.00000000000E+00 0.  1.
          2   -1    0    0  501    0  0.00000000000E+00 -0.00000000000E+00 -0.19592125023E+04  0.19592125023E+04  0.00000000000E+00 0. -1.
         24    2    1    2    0    0  0.24741604784E+03  0.74868206899E+02 -0.13625543975E+02  0.27062158545E+03  0.78933123147E+02 0.  0.
        254    2    1    2    0    0 -0.24741604784E+03 -0.74868206899E+02 -0.16982089726E+04  0.19359689026E+04  0.89288405077E+03 0.  0.
         23    2    4    4    0    0  0.22598995810E+03 -0.27338503857E+03 -0.10057165481E+04  0.10699359832E+04  0.86523941955E+02 0.  0.
         23    2    4    4    0    0 -0.47340600594E+03  0.19851683167E+03 -0.69249242452E+03  0.86603291944E+03  0.83337150241E+02 0.  0.
          2    1    3    3  502    0  0.70644475813E+02  0.26679255659E+02  0.31665133194E+02  0.81884707398E+02  0.00000000000E+00 0. -1.
         -1    1    3    3    0  502  0.17677157203E+03  0.48188951240E+02 -0.45290677168E+02  0.18873687805E+03  0.00000000000E+00 0.  1.
         11    1    5    5    0    0  0.62874462899E+02 -0.27542382777E+02 -0.15525014800E+03  0.16974801733E+03  0.00000000000E+00 0.  1.
        -11    1    5    5    0    0  0.16311549520E+03 -0.24584265580E+03 -0.85046640007E+03  0.90018796583E+03  0.00000000000E+00 0. -1.
          1    1    6    6  503    0 -0.15813490442E+03  0.10267386761E+03 -0.28930539302E+03  0.34532040414E+03  0.00000000000E+00 0. -1.
         -1    1    6    6    0  503 -0.31527110152E+03  0.95842964063E+02 -0.40318703150E+03  0.52071251530E+03  0.00000000000E+00 0.  1.
<mgrwt>
<rscale>  0 0.13923592E+04</rscale>
<asrwt>0</asrwt>
<pdfrwt beam="1">  1        2 0.30141730E+00 0.13923592E+04</pdfrwt>
<pdfrwt beam="2">  1       -1 0.38058152E-01 0.13923592E+04</pdfrwt>
<totfact> 0.52113831E+01</totfact>
</mgrwt>
</event>
<event>
12    6  0.1529770E-007  0.1491682E+04  0.7818608E-02  0.8890003E-01
          2   -1    0    0  501    0  0.00000000000E+00  0.00000000000E+00  0.28995719249E+04  0.28995719249E+04  0.00000000000E+00 0. -1.
         -1   -1    0    0    0  501 -0.00000000000E+00 -0.00000000000E+00 -0.19184850470E+03  0.19184850470E+03  0.00000000000E+00 0.  1.
         24    2    1    2    0    0  0.40878170522E+03 -0.19817716439E+03  0.11149116284E+04  0.12065870920E+04  0.80298196468E+02 0.  0.
        254    2    1    2    0    0 -0.40878170522E+03  0.19817716439E+03  0.15928117918E+04  0.18848333376E+04  0.89953912395E+03 0.  0.
         23    2    4    4    0    0  0.11205418744E+03 -0.26557070474E+03  0.53515825540E+03  0.61466295006E+03  0.91281124613E+02 0.  0.
         23    2    4    4    0    0 -0.52083589266E+03  0.46374786914E+03  0.10576535364E+04  0.12701703876E+04  0.91486049078E+02 0.  0.
          2    1    3    3  502    0  0.32939902869E+03 -0.15067406198E+03  0.79625028260E+03  0.87476905844E+03  0.00000000000E+00 0. -1.
         -1    1    3    3    0  502  0.79382676535E+02 -0.47503102413E+02  0.31866134579E+03  0.33181803352E+03  0.00000000000E+00 0.  1.
         11    1    5    5    0    0  0.93549808676E+02 -0.15009888613E+03  0.39020356814E+03  0.42841576408E+03  0.00000000000E+00 0. -1.
        -11    1    5    5    0    0  0.18504378764E+02 -0.11547181861E+03  0.14495468726E+03  0.18624718598E+03  0.00000000000E+00 0.  1.
          4    1    6    6  503    0 -0.32731412281E+02  0.56769138152E+02  0.13179543014E+03  0.14718734933E+03  0.00000000000E+00 0. -1.
         -4    1    6    6    0  503 -0.48810448038E+03  0.40697873099E+03  0.92585810627E+03  0.11229830382E+04  0.00000000000E+00 0.  1.
<mgrwt>
<rscale>  0 0.14916817E+04</rscale>
<asrwt>0</asrwt>
<pdfrwt beam="1">  1        2 0.44608796E+00 0.14916817E+04</pdfrwt>
<pdfrwt beam="2">  1       -1 0.29515157E-01 0.14916817E+04</pdfrwt>
<totfact> 0.23387785E+01</totfact>
</mgrwt>
</event>
<event>
12    6  0.1529770E-007  0.1177484E+04  0.7818608E-02  0.9132797E-01
          2   -1    0    0  501    0  0.00000000000E+00  0.00000000000E+00  0.48151508655E+03  0.48151508655E+03  0.00000000000E+00 0. -1.
         -1   -1    0    0    0  501 -0.00000000000E+00 -0.00000000000E+00 -0.71984636322E+03  0.71984636322E+03  0.00000000000E+00 0.  1.
         24    2    1    2    0    0 -0.20085385876E+03 -0.76627122526E+02  0.38235838550E+02  0.23513899408E+03  0.87260407403E+02 0.  0.
        254    2    1    2    0    0  0.20085385876E+03  0.76627122526E+02 -0.27656711523E+03  0.96622245569E+03  0.90049013108E+03 0.  0.
         23    2    4    4    0    0  0.26124502226E+03  0.84593489252E+01  0.28072937219E+03  0.39390093244E+03  0.89601573246E+02 0.  0.
         23    2    4    4    0    0 -0.60391163501E+02  0.68167773601E+02 -0.55729648742E+03  0.57232152325E+03  0.93159074207E+02 0.  0.
          4    1    3    3  502    0 -0.17354108247E+03 -0.78364419903E+02  0.60568970492E+02  0.19981513906E+03  0.00000000000E+00 0. -1.
         -3    1    3    3    0  502 -0.27312776292E+02  0.17372973762E+01 -0.22333131942E+02  0.35323855017E+02  0.00000000000E+00 0.  1.
         11    1    5    5    0    0  0.91868209524E+02  0.23229681154E+02  0.15790945553E+03  0.18415966484E+03  0.00000000000E+00 0.  1.
        -11    1    5    5    0    0  0.16937681274E+03 -0.14770332229E+02  0.12281991665E+03  0.20974126760E+03  0.00000000000E+00 0. -1.
          1    1    6    6  503    0 -0.55072229669E+02  0.56224969617E+02 -0.20209024827E+03  0.21687477063E+03  0.00000000000E+00 0. -1.
         -1    1    6    6    0  503 -0.53189338318E+01  0.11942803984E+02 -0.35520623915E+03  0.35544675263E+03  0.00000000000E+00 0.  1.
<mgrwt>
<rscale>  0 0.11774836E+04</rscale>
<asrwt>0</asrwt>
<pdfrwt beam="1">  1        2 0.74079244E-01 0.11774836E+04</pdfrwt>
<pdfrwt beam="2">  1       -1 0.11074559E+00 0.11774836E+04</pdfrwt>
<totfact> 0.54637950E+01</totfact>
</mgrwt>
</event>
<event>
12    6  0.1529770E-007  0.1342943E+04  0.7818608E-02  0.8996187E-01
         -1   -1    0    0    0  501 -0.00000000000E+00  0.00000000000E+00  0.90390212488E+03  0.90390212488E+03  0.00000000000E+00 0.  1.
          2   -1    0    0  501    0  0.00000000000E+00 -0.00000000000E+00 -0.49880834106E+03  0.49880834106E+03  0.00000000000E+00 0. -1.
         24    2    1    2    0    0 -0.98267345853E+02  0.34812011057E+03  0.20939720270E+03  0.42565215314E+03  0.80551128664E+02 0.  0.
        254    2    1    2    0    0  0.98267345853E+02 -0.34812011057E+03  0.19569658112E+03  0.97705831280E+03  0.88628534463E+03 0.  0.
         23    2    4    4    0    0 -0.64793220005E+02  0.20450711785E+03 -0.17111764412E+03  0.28800230277E+03  0.87422855480E+02 0.  0.
         23    2    4    4    0    0  0.16306056586E+03 -0.55262722842E+03  0.36681422525E+03  0.68905601003E+03  0.90884032632E+02 0.  0.
          2    1    3    3  502    0 -0.12038263903E+02  0.12719924470E+02  0.32174298602E+02  0.36631977381E+02  0.00000000000E+00 0. -1.
         -1    1    3    3    0  502 -0.86229081951E+02  0.33540018610E+03  0.17722290410E+03  0.38902017575E+03  0.00000000000E+00 0.  1.
         11    1    5    5    0    0 -0.86416315002E+01  0.19870086949E+02  0.95188520850E+01  0.23666573376E+02  0.00000000000E+00 0. -1.
        -11    1    5    5    0    0 -0.56151588505E+02  0.18463703090E+03 -0.18063649621E+03  0.26433572940E+03  0.00000000000E+00 0.  1.
          3    1    6    6  503    0 -0.11002879994E+02 -0.29279439495E+02  0.13564742443E+02  0.34093271812E+02  0.00000000000E+00 0. -1.
         -3    1    6    6    0  503  0.17406344585E+03 -0.52334778893E+03  0.35324948280E+03  0.65496273822E+03  0.00000000000E+00 0.  1.
<mgrwt>
<rscale>  0 0.13429429E+04</rscale>
<asrwt>0</asrwt>
<pdfrwt beam="1">  1        2 0.76739745E-01 0.13429429E+04</pdfrwt>
<pdfrwt beam="2">  1       -1 0.13906187E+00 0.13429429E+04</pdfrwt>
<totfact> 0.29443499E+01</totfact>
</mgrwt>
</event>
<event>
12    6  0.1529770E-007  0.1443603E+04  0.7818608E-02  0.8922847E-01
          2   -1    0    0  501    0  0.00000000000E+00  0.00000000000E+00  0.56775566335E+03  0.56775566335E+03  0.00000000000E+00 0. -1.
         -1   -1    0    0    0  501 -0.00000000000E+00 -0.00000000000E+00 -0.91764365785E+03  0.91764365785E+03  0.00000000000E+00 0.  1.
         24    2    1    2    0    0  0.83601736528E+02  0.13645142685E+03 -0.52297572388E+03  0.55231918604E+03  0.77101447913E+02 0.  0.
        254    2    1    2    0    0 -0.83601736528E+02 -0.13645142685E+03  0.17308772937E+03  0.93308013516E+03  0.90281279030E+03 0.  0.
         23    2    4    4    0    0  0.29973142054E+03  0.92725231121E+02  0.31563314131E+03  0.45546308455E+03  0.96878524712E+02 0.  0.
         23    2    4    4    0    0 -0.38333315707E+03 -0.22917665797E+03 -0.14254541194E+03  0.47761705061E+03  0.91283090988E+02 0.  0.
          2    1    3    3  502    0  0.71374745634E+02  0.43674029776E+02 -0.22903197820E+03  0.24383892682E+03  0.00000000000E+00 0. -1.
         -1    1    3    3    0  502  0.12226990895E+02  0.92777397070E+02 -0.29394374567E+03  0.30848025923E+03  0.00000000000E+00 0.  1.
         11    1    5    5    0    0  0.46339509271E+02 -0.17811481716E+02  0.68875426520E+02  0.84902434469E+02  0.00000000000E+00 0. -1.
        -11    1    5    5    0    0  0.25339191127E+03  0.11053671284E+03  0.24675771479E+03  0.37056065008E+03  0.00000000000E+00 0.  1.
          2    1    6    6  503    0 -0.26754542465E+02  0.57529392531E+01 -0.18207894141E+02  0.32869883808E+02  0.00000000000E+00 0. -1.
         -2    1    6    6    0  503 -0.35657861460E+03 -0.23492959722E+03 -0.12433751780E+03  0.44474716680E+03  0.00000000000E+00 0.  1.
<mgrwt>
<rscale>  0 0.14436030E+04</rscale>
<asrwt>0</asrwt>
<pdfrwt beam="1">  1        2 0.87347025E-01 0.14436030E+04</pdfrwt>
<pdfrwt beam="2">  1       -1 0.14117595E+00 0.14436030E+04</pdfrwt>
<totfact> 0.24106752E+01</totfact>
</mgrwt>
</event>
<event>
12    6  0.1529770E-007  0.2397750E+04  0.7818608E-02  0.8440346E-01
          2   -1    0    0  501    0  0.00000000000E+00  0.00000000000E+00  0.18636945167E+04  0.18636945167E+04  0.00000000000E+00 0. -1.
         -1   -1    0    0    0  501 -0.00000000000E+00 -0.00000000000E+00 -0.77121098331E+03  0.77121098331E+03  0.00000000000E+00 0.  1.
         24    2    1    2    0    0 -0.82214885227E+03 -0.61885078112E+03  0.38373556143E+03  0.11009904671E+04  0.77601564854E+02 0.  0.
        254    2    1    2    0    0  0.82214885227E+03  0.61885078112E+03  0.70874797199E+03  0.15339150330E+04  0.88975649253E+03 0.  0.
         23    2    4    4    0    0 -0.10160620364E+03 -0.29044492204E+02  0.29862798158E+03  0.33011314089E+03  0.92890318433E+02 0.  0.
         23    2    4    4    0    0  0.92375505591E+03  0.64789527332E+03  0.41011999041E+03  0.12038018921E+04  0.88594019775E+02 0.  0.
          4    1    3    3  502    0 -0.15814791881E+03 -0.11592553495E+03  0.10625127029E+03  0.22302203101E+03  0.00000000000E+00 0. -1.
         -3    1    3    3    0  502 -0.66400093345E+03 -0.50292524617E+03  0.27748429114E+03  0.87796843604E+03  0.00000000000E+00 0.  1.
         11    1    5    5    0    0 -0.50297744585E+02 -0.56423664090E+02  0.11604326272E+03  0.13849018666E+03  0.00000000000E+00 0. -1.
        -11    1    5    5    0    0 -0.51308459054E+02  0.27379171886E+02  0.18258471887E+03  0.19162295423E+03  0.00000000000E+00 0.  1.
          4    1    6    6  503    0  0.59024021269E+03  0.43231777022E+03  0.30758481647E+03  0.79365646375E+03  0.00000000000E+00 0. -1.
         -4    1    6    6    0  503  0.33351484321E+03  0.21557750310E+03  0.10253517394E+03  0.41014542833E+03  0.00000000000E+00 0.  1.
<mgrwt>
<rscale>  0 0.23977503E+04</rscale>
<asrwt>0</asrwt>
<pdfrwt beam="1">  1        2 0.28672223E+00 0.23977503E+04</pdfrwt>
<pdfrwt beam="2">  1       -1 0.11864784E+00 0.23977503E+04</pdfrwt>
<totfact> 0.51828605E+00</totfact>
</mgrwt>
</event>
<event>
12    6  0.1529770E-007  0.2190715E+04  0.7818608E-02  0.8522303E-01
          2   -1    0    0  501    0  0.00000000000E+00  0.00000000000E+00  0.15718960018E+04  0.15718960018E+04  0.00000000000E+00 0. -1.
         -1   -1    0    0    0  501 -0.00000000000E+00 -0.00000000000E+00 -0.76328726097E+03  0.76328726097E+03  0.00000000000E+00 0.  1.
         24    2    1    2    0    0 -0.36394841394E+03 -0.53064622117E+03 -0.34590600478E+03  0.73481548149E+03  0.79113637544E+02 0.  0.
        254    2    1    2    0    0  0.36394841394E+03  0.53064622117E+03  0.11545147456E+04  0.16003677812E+04  0.90234631792E+03 0.  0.
         23    2    4    4    0    0  0.62938042438E+03  0.25174339361E+03  0.55581510534E+03  0.88255590130E+03  0.10237203120E+03 0.  0.
         23    2    4    4    0    0 -0.26543201044E+03  0.27890282756E+03  0.59869964021E+03  0.71781187993E+03  0.92583456364E+02 0.  0.
          4    1    3    3  502    0 -0.74364792762E+02 -0.60560800125E+02 -0.58977254757E+02  0.11258796336E+03  0.00000000000E+00 0. -1.
         -3    1    3    3    0  502 -0.28958362118E+03 -0.47008542105E+03 -0.28692875002E+03  0.62222751813E+03  0.00000000000E+00 0.  1.
         11    1    5    5    0    0  0.46350055981E+03  0.13522794701E+03  0.38918446954E+03  0.62014830318E+03  0.00000000000E+00 0. -1.
        -11    1    5    5    0    0  0.16587986457E+03  0.11651544661E+03  0.16663063579E+03  0.26240759812E+03  0.00000000000E+00 0.  1.
          4    1    6    6  503    0 -0.15051757056E+03  0.15204364318E+03  0.41386867312E+03  0.46589707777E+03  0.00000000000E+00 0. -1.
         -4    1    6    6    0  503 -0.11491443988E+03  0.12685918438E+03  0.18483096709E+03  0.25191480217E+03  0.00000000000E+00 0.  1.
<mgrwt>
<rscale>  0 0.21907151E+04</rscale>
<asrwt>0</asrwt>
<pdfrwt beam="1">  1        2 0.24183015E+00 0.21907151E+04</pdfrwt>
<pdfrwt beam="2">  1       -1 0.11742881E+00 0.21907151E+04</pdfrwt>
<totfact> 0.78640149E+00</totfact>
</mgrwt>
</event>
<event>
12    6  0.1529770E-007  0.1489557E+04  0.7818608E-02  0.8891427E-01
          2   -1    0    0  501    0  0.00000000000E+00  0.00000000000E+00  0.28428705926E+04  0.28428705926E+04  0.00000000000E+00 0. -1.
         -1   -1    0    0    0  501 -0.00000000000E+00 -0.00000000000E+00 -0.19511786457E+03  0.19511786457E+03  0.00000000000E+00 0.  1.
         24    2    1    2    0    0 -0.31738891786E+03 -0.25872948561E+03  0.35436316643E+03  0.54702118509E+03  0.77345014749E+02 0.  0.
        254    2    1    2    0    0  0.31738891786E+03  0.25872948561E+03  0.22933895616E+04  0.24909672721E+04  0.88181948117E+03 0.  0.
         23    2    4    4    0    0 -0.18780194685E+03 -0.82751430834E+02  0.18063867528E+03  0.28987246992E+03  0.96324177986E+02 0.  0.
         23    2    4    4    0    0  0.50519086471E+03  0.34148091645E+03  0.21127508863E+04  0.22010948022E+04  0.96306772049E+02 0.  0.
          4    1    3    3  502    0 -0.28044908641E+03 -0.20929940685E+03  0.32897629778E+03  0.48029505127E+03  0.00000000000E+00 0. -1.
         -3    1    3    3    0  502 -0.36939831455E+02 -0.49430078762E+02  0.25386868648E+02  0.66726133817E+02  0.00000000000E+00 0.  1.
         11    1    5    5    0    0 -0.20161076189E+02  0.16172235982E+02  0.24229256701E+01  0.25959213751E+02  0.00000000000E+00 0.  1.
        -11    1    5    5    0    0 -0.16764087066E+03 -0.98923666816E+02  0.17821574961E+03  0.26391325617E+03  0.00000000000E+00 0. -1.
          1    1    6    6  503    0  0.44825555787E+03  0.33072137510E+03  0.18509113292E+04  0.19329206972E+04  0.00000000000E+00 0. -1.
         -1    1    6    6    0  503  0.56935306841E+02  0.10759541350E+02  0.26183955711E+03  0.26817410494E+03  0.00000000000E+00 0.  1.
<mgrwt>
<rscale>  0 0.14895568E+04</rscale>
<asrwt>0</asrwt>
<pdfrwt beam="1">  1        2 0.43736468E+00 0.14895568E+04</pdfrwt>
<pdfrwt beam="2">  1       -1 0.30018135E-01 0.14895568E+04</pdfrwt>
<totfact> 0.24585894E+01</totfact>
</mgrwt>
</event>
<event>
12    6  0.1529770E-007  0.1285407E+04  0.7818608E-02  0.9041218E-01
          2   -1    0    0  501    0  0.00000000000E+00  0.00000000000E+00  0.16722384160E+04  0.16722384160E+04  0.00000000000E+00 0. -1.
         -1   -1    0    0    0  501 -0.00000000000E+00 -0.00000000000E+00 -0.24701497524E+03  0.24701497524E+03  0.00000000000E+00 0.  1.
         24    2    1    2    0    0  0.15056705944E+03 -0.20001038241E+03  0.75777791512E+02  0.27456686678E+03  0.83487113905E+02 0.  0.
        254    2    1    2    0    0 -0.15056705944E+03  0.20001038241E+03  0.13494456492E+04  0.16446865244E+04  0.90626464732E+03 0.  0.
         23    2    4    4    0    0 -0.27567483270E+03  0.40418888849E+03  0.33834632592E+03  0.60185161064E+03  0.91552465880E+02 0.  0.
         23    2    4    4    0    0  0.12510777326E+03 -0.20417850608E+03  0.10110993233E+04  0.10428349138E+04  0.88555059484E+02 0.  0.
          2    1    3    3  502    0  0.10865103086E+03 -0.10238021070E+03  0.10035816450E+02  0.14962443538E+03  0.00000000000E+00 0. -1.
         -1    1    3    3    0  502  0.41916028573E+02 -0.97630171714E+02  0.65741975063E+02  0.12494243141E+03  0.00000000000E+00 0.  1.
         11    1    5    5    0    0 -0.68852315450E+01 -0.38302304864E+01  0.11762425878E+02  0.14157391764E+02  0.00000000000E+00 0. -1.
        -11    1    5    5    0    0 -0.26878960115E+03  0.40801911898E+03  0.32658390004E+03  0.58769421888E+03  0.00000000000E+00 0.  1.
          3    1    6    6  503    0  0.15665653244E+02 -0.23497287631E+02  0.39623255358E+02  0.48657348702E+02  0.00000000000E+00 0. -1.
         -3    1    6    6    0  503  0.10944212002E+03 -0.18068121845E+03  0.97147606793E+03  0.99417756507E+03  0.00000000000E+00 0.  1.
<mgrwt>
<rscale>  0 0.12854072E+04</rscale>
<asrwt>0</asrwt>
<pdfrwt beam="1">  1        2 0.25726744E+00 0.12854072E+04</pdfrwt>
<pdfrwt beam="2">  1       -1 0.38002305E-01 0.12854072E+04</pdfrwt>
<totfact> 0.75961536E+01</totfact>
</mgrwt>
</event>
<event>
12    6  0.1529770E-007  0.2797885E+04  0.7818608E-02  0.8303925E-01
          2   -1    0    0  501    0  0.00000000000E+00  0.00000000000E+00  0.15310955323E+04  0.15310955323E+04  0.00000000000E+00 0. -1.
         -1   -1    0    0    0  501 -0.00000000000E+00 -0.00000000000E+00 -0.12781957257E+04  0.12781957257E+04  0.00000000000E+00 0.  1.
         24    2    1    2    0    0 -0.42049359003E+03  0.11744697395E+04  0.23435131762E+03  0.12713457217E+04  0.72148289997E+02 0.  0.
        254    2    1    2    0    0  0.42049359003E+03 -0.11744697395E+04  0.18548488896E+02  0.15379455363E+04  0.89929883687E+03 0.  0.
         23    2    4    4    0    0  0.47137558568E+02  0.11057525188E+03  0.11977092839E+03  0.19287712641E+03  0.91693374074E+02 0.  0.
         23    2    4    4    0    0  0.37335603146E+03 -0.12850449914E+04 -0.10122243950E+03  0.13450684099E+04  0.90706609344E+02 0.  0.
          2    1    3    3  502    0 -0.92060977455E+02  0.19822676847E+03  0.60376663852E+02  0.22674747374E+03  0.00000000000E+00 0. -1.
         -1    1    3    3    0  502 -0.32843261257E+03  0.97624297102E+03  0.17397465377E+03  0.10445982479E+04  0.00000000000E+00 0.  1.
         11    1    5    5    0    0  0.28754572673E+02  0.27699714644E+01  0.63777343591E+02  0.70014625237E+02  0.00000000000E+00 0. -1.
        -11    1    5    5    0    0  0.18382985895E+02  0.10780528042E+03  0.55993584801E+02  0.12286250118E+03  0.00000000000E+00 0.  1.
          4    1    6    6  503    0  0.13067258811E+03 -0.57223748637E+03 -0.73720940855E+02  0.59157910985E+03  0.00000000000E+00 0. -1.
         -4    1    6    6    0  503  0.24268344335E+03 -0.71280750500E+03 -0.27501498642E+02  0.75348930005E+03  0.00000000000E+00 0.  1.
<mgrwt>
<rscale>  0 0.27978847E+04</rscale>
<asrwt>0</asrwt>
<pdfrwt beam="1">  1        2 0.23555316E+00 0.27978847E+04</pdfrwt>
<pdfrwt beam="2">  1       -1 0.19664550E+00 0.27978847E+04</pdfrwt>
<totfact> 0.19183472E+00</totfact>
</mgrwt>
</event>
<event>
12    6  0.1529770E-007  0.1187011E+04  0.7818608E-02  0.9124302E-01
         -1   -1    0    0    0  501 -0.00000000000E+00  0.00000000000E+00  0.20628266123E+03  0.20628266123E+03  0.00000000000E+00 0.  1.
          2   -1    0    0  501    0  0.00000000000E+00 -0.00000000000E+00 -0.17076029037E+04  0.17076029037E+04  0.00000000000E+00 0. -1.
         24    2    1    2    0    0  0.51418667089E+02 -0.14936351348E+03 -0.86009248067E+03  0.87810234445E+03  0.79695128748E+02 0.  0.
        254    2    1    2    0    0 -0.51418667089E+02  0.14936351348E+03 -0.64122776181E+03  0.10357832205E+04  0.79794767925E+03 0.  0.
         23    2    4    4    0    0 -0.16030476445E+03  0.44437218611E+03 -0.43658989037E+03  0.64958437034E+03  0.90470241089E+02 0.  0.
         23    2    4    4    0    0  0.10888609736E+03 -0.29500867263E+03 -0.20463787143E+03  0.38619885014E+03  0.91578350613E+02 0.  0.
          2    1    3    3  502    0  0.14389431059E+02 -0.72456249824E+02 -0.59594368192E+03  0.60050465101E+03  0.00000000000E+00 0. -1.
         -1    1    3    3    0  502  0.37029236030E+02 -0.76907263656E+02 -0.26414879875E+03  0.27759769344E+03  0.00000000000E+00 0.  1.
         11    1    5    5    0    0 -0.25137352318E+02  0.33660929649E+02 -0.12242353779E+02  0.43758655058E+02  0.00000000000E+00 0.  1.
        -11    1    5    5    0    0 -0.13516741213E+03  0.41071125646E+03 -0.42434753659E+03  0.60582571528E+03  0.00000000000E+00 0. -1.
          2    1    6    6  503    0  0.97403394104E+02 -0.22075097034E+03 -0.10950708933E+03  0.26497210175E+03  0.00000000000E+00 0. -1.
         -2    1    6    6    0  503  0.11482703254E+02 -0.74257702282E+02 -0.95130782100E+02  0.12122674839E+03  0.00000000000E+00 0.  1.
<mgrwt>
<rscale>  0 0.11870112E+04</rscale>
<asrwt>0</asrwt>
<pdfrwt beam="1">  1        2 0.26270814E+00 0.11870112E+04</pdfrwt>
<pdfrwt beam="2">  1       -1 0.31735794E-01 0.11870112E+04</pdfrwt>
<totfact> 0.10095320E+02</totfact>
</mgrwt>
</event>
<event>
12    6  0.1529770E-007  0.2070613E+04  0.7818608E-02  0.8574300E-01
          2   -1    0    0  501    0  0.00000000000E+00  0.00000000000E+00  0.21509942498E+04  0.21509942498E+04  0.00000000000E+00 0. -1.
         -1   -1    0    0    0  501 -0.00000000000E+00 -0.00000000000E+00 -0.49830877133E+03  0.49830877133E+03  0.00000000000E+00 0.  1.
         24    2    1    2    0    0  0.50676794888E+03  0.40855917676E+03 -0.49541398926E+01  0.65667319068E+03  0.86375812183E+02 0.  0.
        254    2    1    2    0    0 -0.50676794888E+03 -0.40855917676E+03  0.16576396184E+04  0.19926298305E+04  0.89390725579E+03 0.  0.
         23    2    4    4    0    0 -0.85383169750E+02  0.25140990573E+03  0.23196037862E+03  0.36367266746E+03  0.89190612913E+02 0.  0.
         23    2    4    4    0    0 -0.42138477913E+03 -0.65996908248E+03  0.14256792398E+04  0.16289571630E+04  0.88407139722E+02 0.  0.
          4    1    3    3  502    0  0.21045203710E+03  0.15394373156E+03  0.38534539653E+02  0.26357853318E+03  0.00000000000E+00 0. -1.
         -3    1    3    3    0  502  0.29631591177E+03  0.25461544520E+03 -0.43488679546E+02  0.39309465750E+03  0.00000000000E+00 0.  1.
         11    1    5    5    0    0 -0.31994878746E+02  0.39864367549E+02  0.93348214485E+01  0.51961321745E+02  0.00000000000E+00 0. -1.
        -11    1    5    5    0    0 -0.53388291003E+02  0.21154553818E+03  0.22262555718E+03  0.31171134571E+03  0.00000000000E+00 0.  1.
          2    1    6    6  503    0 -0.21272596030E+03 -0.25781453457E+03  0.57182566968E+03  0.66234829578E+03  0.00000000000E+00 0.  1.
         -2    1    6    6    0  503 -0.20865881883E+03 -0.40215454792E+03  0.85385357010E+03  0.96660886726E+03  0.00000000000E+00 0. -1.
<mgrwt>
<rscale>  0 0.20706128E+04</rscale>
<asrwt>0</asrwt>
<pdfrwt beam="1">  1        2 0.33092219E+00 0.20706128E+04</pdfrwt>
<pdfrwt beam="2">  1       -1 0.76662889E-01 0.20706128E+04</pdfrwt>
<totfact> 0.98777540E+00</totfact>
</mgrwt>
</event>
<event>
12    6  0.1529770E-007  0.1582039E+04  0.7818608E-02  0.8831659E-01
         -3   -1    0    0    0  501 -0.00000000000E+00  0.00000000000E+00  0.15417965831E+04  0.15417965831E+04  0.00000000000E+00 0.  1.
          4   -1    0    0  501    0  0.00000000000E+00 -0.00000000000E+00 -0.40583313085E+03  0.40583313085E+03  0.00000000000E+00 0. -1.
         24    2    1    2    0    0  0.45863484971E+03 -0.13064983906E+03  0.97260197318E+02  0.49302409666E+03  0.78726793957E+02 0.  0.
        254    2    1    2    0    0 -0.45863484971E+03  0.13064983906E+03  0.10387032549E+04  0.14546056173E+04  0.89975426882E+03 0.  0.
         23    2    4    4    0    0 -0.31207442596E+03  0.35079278096E+03  0.11901418737E+03  0.49349334762E+03  0.94473725644E+02 0.  0.
         23    2    4    4    0    0 -0.14656042375E+03 -0.22014294189E+03  0.91968906755E+03  0.96111226967E+03  0.89252121934E+02 0.  0.
          2    1    3    3  502    0  0.44686352712E+03 -0.11780545041E+03  0.10508007243E+03  0.47392716491E+03  0.00000000000E+00 0. -1.
         -1    1    3    3    0  502  0.11771322587E+02 -0.12844388649E+02 -0.78198751157E+01  0.19096931744E+02  0.00000000000E+00 0.  1.
         11    1    5    5    0    0 -0.37338182702E+02  0.40725509671E+02 -0.16428386143E+02  0.57641989007E+02  0.00000000000E+00 0. -1.
        -11    1    5    5    0    0 -0.27473624326E+03  0.31006727129E+03  0.13544257351E+03  0.43585135861E+03  0.00000000000E+00 0.  1.
          3    1    6    6  503    0 -0.66769224587E+02 -0.40919744924E+02  0.18987631209E+03  0.20539125778E+03  0.00000000000E+00 0. -1.
         -3    1    6    6    0  503 -0.79791199163E+02 -0.17922319697E+03  0.72981275545E+03  0.75572101189E+03  0.00000000000E+00 0.  1.
<mgrwt>
<rscale>  0 0.15820394E+04</rscale>
<asrwt>0</asrwt>
<pdfrwt beam="1">  1        4 0.62435867E-01 0.15820394E+04</pdfrwt>
<pdfrwt beam="2">  1       -3 0.23719947E+00 0.15820394E+04</pdfrwt>
<totfact> 0.46024257E-01</totfact>
</mgrwt>
</event>
<event>
12    6  0.1529770E-007  0.1206639E+04  0.7818608E-02  0.9107065E-01
          2   -1    0    0  501    0  0.00000000000E+00  0.00000000000E+00  0.83328168029E+03  0.83328168029E+03  0.00000000000E+00 0. -1.
         -1   -1    0    0    0  501 -0.00000000000E+00 -0.00000000000E+00 -0.43682033251E+03  0.43682033251E+03  0.00000000000E+00 0.  1.
         24    2    1    2    0    0  0.12602594115E+03  0.21565485675E+03 -0.34621806040E+01  0.26153053844E+03  0.77438238351E+02 0.  0.
        254    2    1    2    0    0 -0.12602594115E+03 -0.21565485675E+03  0.39992352838E+03  0.10085714744E+04  0.89156493609E+03 0.  0.
         23    2    4    4    0    0 -0.20983391087E+03 -0.21820110667E+02 -0.23756741230E+03  0.33073500857E+03  0.91874823141E+02 0.  0.
         23    2    4    4    0    0  0.83807969721E+02 -0.19383474608E+03  0.63749094068E+03  0.67783646579E+03  0.92042872215E+02 0.  0.
          2    1    3    3  502    0  0.22967958652E+02  0.11374038251E+03  0.67435846939E+01  0.11623199935E+03  0.00000000000E+00 0. -1.
         -3    1    3    3    0  502  0.10305798250E+03  0.10191447424E+03 -0.10205765298E+02  0.14529853909E+03  0.00000000000E+00 0.  1.
         11    1    5    5    0    0 -0.74716310686E+02  0.33624183260E+02 -0.10749158248E+03  0.13515751214E+03  0.00000000000E+00 0. -1.
        -11    1    5    5    0    0 -0.13511760019E+03 -0.55444293928E+02 -0.13007582982E+03  0.19557749644E+03  0.00000000000E+00 0.  1.
          3    1    6    6  503    0  0.49861808655E+02 -0.24789029138E+02  0.19963027009E+03  0.20725091234E+03  0.00000000000E+00 0. -1.
         -3    1    6    6    0  503  0.33946161066E+02 -0.16904571694E+03  0.43786067059E+03  0.47058555345E+03  0.00000000000E+00 0.  1.
<mgrwt>
<rscale>  0 0.12066389E+04</rscale>
<asrwt>0</asrwt>
<pdfrwt beam="1">  1        2 0.12819718E+00 0.12066389E+04</pdfrwt>
<pdfrwt beam="2">  1       -1 0.67203128E-01 0.12066389E+04</pdfrwt>
<totfact> 0.82360180E+01</totfact>
</mgrwt>
</event>
<event>
12    6  0.1529770E-007  0.2136788E+04  0.7818608E-02  0.8545209E-01
          2   -1    0    0  501    0  0.00000000000E+00  0.00000000000E+00  0.34647774306E+04  0.34647774306E+04  0.00000000000E+00 0. -1.
         -1   -1    0    0    0  501 -0.00000000000E+00 -0.00000000000E+00 -0.32944837137E+03  0.32944837137E+03  0.00000000000E+00 0.  1.
         24    2    1    2    0    0 -0.52695978096E+03 -0.69639377365E+03  0.11305048503E+04  0.14307516230E+04  0.79737641737E+02 0.  0.
        254    2    1    2    0    0  0.52695978096E+03  0.69639377365E+03  0.20048242089E+04  0.23634741789E+04  0.89668232228E+03 0.  0.
         23    2    4    4    0    0  0.11348065856E+03  0.71096605497E+03  0.16786916413E+04  0.18288677913E+04  0.91657953563E+02 0.  0.
         23    2    4    4    0    0  0.41347912240E+03 -0.14572281317E+02  0.32613256763E+03  0.53460638760E+03  0.90907656177E+02 0.  0.
          2    1    3    3  502    0 -0.35621751799E+03 -0.47149910948E+03  0.82420833624E+03  0.10141605947E+04  0.00000000000E+00 0. -1.
         -1    1    3    3    0  502 -0.17074226297E+03 -0.22489466417E+03  0.30629651407E+03  0.41659102831E+03  0.00000000000E+00 0.  1.
         11    1    5    5    0    0  0.86437949825E+02  0.44245205213E+03  0.94246167948E+03  0.10447341073E+04  0.00000000000E+00 0. -1.
        -11    1    5    5    0    0  0.27042708734E+02  0.26851400284E+03  0.73622996178E+03  0.78413368403E+03  0.00000000000E+00 0.  1.
          4    1    6    6  503    0  0.39279249943E+02 -0.29421568317E+02  0.39996597807E+02  0.63310473024E+02  0.00000000000E+00 0. -1.
         -4    1    6    6    0  503  0.37419987246E+03  0.14849287000E+02  0.28613596982E+03  0.47129591458E+03  0.00000000000E+00 0.  1.
<mgrwt>
<rscale>  0 0.21367876E+04</rscale>
<asrwt>0</asrwt>
<pdfrwt beam="1">  1        2 0.53304266E+00 0.21367876E+04</pdfrwt>
<pdfrwt beam="2">  1       -1 0.50684367E-01 0.21367876E+04</pdfrwt>
<totfact> 0.35317345E+00</totfact>
</mgrwt>
</event>
<event>
12    6  0.1529770E-007  0.1595699E+04  0.7818608E-02  0.8823195E-01
         -1   -1    0    0    0  501 -0.00000000000E+00  0.00000000000E+00  0.10992127501E+04  0.10992127501E+04  0.00000000000E+00 0.  1.
          2   -1    0    0  501    0  0.00000000000E+00 -0.00000000000E+00 -0.57910894389E+03  0.57910894389E+03  0.00000000000E+00 0. -1.
         24    2    1    2    0    0 -0.10689766248E+03  0.22454883433E+02  0.73349403457E+03  0.74585620660E+03  0.79728603051E+02 0.  0.
        254    2    1    2    0    0  0.10689766248E+03 -0.22454883433E+02 -0.21339022837E+03  0.93246548737E+03  0.90112438849E+03 0.  0.
         23    2    4    4    0    0  0.48529343762E+02  0.24345322282E+03 -0.47536363695E+03  0.54393460327E+03  0.90937871045E+02 0.  0.
         23    2    4    4    0    0  0.58368318718E+02 -0.26590810625E+03  0.26197340858E+03  0.38853088410E+03  0.90621186782E+02 0.  0.
          4    1    3    3  502    0 -0.97672108138E+02 -0.26372047490E+01  0.41960665983E+03  0.43083238566E+03  0.00000000000E+00 0. -1.
         -3    1    3    3    0  502 -0.92255543419E+01  0.25092088182E+02  0.31388737474E+03  0.31502382095E+03  0.00000000000E+00 0.  1.
         11    1    5    5    0    0  0.40195246557E+02  0.24039927810E+03 -0.47626784399E+03  0.53501264469E+03  0.00000000000E+00 0. -1.
        -11    1    5    5    0    0  0.83340972045E+01  0.30539447185E+01  0.90420703779E+00  0.89219585812E+01  0.00000000000E+00 0.  1.
          2    1    6    6  503    0  0.38803035283E+02 -0.26328957748E+03  0.23454077811E+03  0.35473434251E+03  0.00000000000E+00 0. -1.
         -2    1    6    6    0  503  0.19565283436E+02 -0.26185287690E+01  0.27432630474E+02  0.33796541591E+02  0.00000000000E+00 0.  1.
<mgrwt>
<rscale>  0 0.15956991E+04</rscale>
<asrwt>0</asrwt>
<pdfrwt beam="1">  1        2 0.89093684E-01 0.15956991E+04</pdfrwt>
<pdfrwt beam="2">  1       -1 0.16910965E+00 0.15956991E+04</pdfrwt>
<totfact> 0.14172624E+01</totfact>
</mgrwt>
</event>
<event>
12    6  0.1529770E-007  0.1252047E+04  0.7818608E-02  0.9068481E-01
         -1   -1    0    0    0  501 -0.00000000000E+00  0.00000000000E+00  0.26366217576E+03  0.26366217576E+03  0.00000000000E+00 0.  1.
          2   -1    0    0  501    0  0.00000000000E+00 -0.00000000000E+00 -0.14863921854E+04  0.14863921854E+04  0.00000000000E+00 0. -1.
         24    2    1    2    0    0  0.34022514812E+02  0.25431112458E+03 -0.77694168614E+02  0.27706912577E+03  0.69994549896E+02 0.  0.
        254    2    1    2    0    0 -0.34022514812E+02 -0.25431112458E+03 -0.11450358410E+04  0.14729852354E+04  0.89036326679E+03 0.  0.
         23    2    4    4    0    0 -0.19182569447E+03  0.64502910650E+02 -0.10756494834E+04  0.10991151901E+04  0.10037264230E+03 0.  0.
         23    2    4    4    0    0  0.15780317966E+03 -0.31881403523E+03 -0.69386357597E+02  0.37387004532E+03  0.91761166034E+02 0.  0.
          4    1    3    3  502    0  0.37947162814E+02  0.21061378606E+03 -0.88982098086E+02  0.23176705509E+03  0.00000000000E+00 0. -1.
         -3    1    3    3    0  502 -0.39246480021E+01  0.43697338525E+02  0.11287929472E+02  0.45302070679E+02  0.00000000000E+00 0.  1.
         11    1    5    5    0    0 -0.90542278398E+02  0.22088431528E+01 -0.67937410726E+03  0.68538453497E+03  0.00000000000E+00 0.  1.
        -11    1    5    5    0    0 -0.10128341607E+03  0.62294067497E+02 -0.39627537614E+03  0.41373065508E+03  0.00000000000E+00 0. -1.
          4    1    6    6  503    0  0.18383988367E+02 -0.10649218731E+03 -0.50154009993E+02  0.11913849799E+03  0.00000000000E+00 0. -1.
         -4    1    6    6    0  503  0.13941919129E+03 -0.21232184793E+03 -0.19232347604E+02  0.25473154732E+03  0.00000000000E+00 0.  1.
<mgrwt>
<rscale>  0 0.12520470E+04</rscale>
<asrwt>0</asrwt>
<pdfrwt beam="1">  1        2 0.22867572E+00 0.12520470E+04</pdfrwt>
<pdfrwt beam="2">  1       -1 0.40563412E-01 0.12520470E+04</pdfrwt>
<totfact> 0.85914829E+01</totfact>
</mgrwt>
</event>
<event>
12    6  0.1529770E-007  0.1505632E+04  0.7818608E-02  0.8880716E-01
         -1   -1    0    0    0  501 -0.00000000000E+00  0.00000000000E+00  0.50594748352E+03  0.50594748352E+03  0.00000000000E+00 0.  1.
          2   -1    0    0  501    0  0.00000000000E+00 -0.00000000000E+00 -0.11201405173E+04  0.11201405173E+04  0.00000000000E+00 0. -1.
         24    2    1    2    0    0 -0.35760087404E+02  0.47805546222E+03 -0.15596323732E+03  0.51026093483E+03  0.78904254714E+02 0.  0.
        254    2    1    2    0    0  0.35760087404E+02 -0.47805546222E+03 -0.45822979650E+03  0.11158270660E+04  0.89737377167E+03 0.  0.
         23    2    4    4    0    0  0.10425343978E+03 -0.48641306361E+03  0.12519571420E+03  0.52069583461E+03  0.89351760847E+02 0.  0.
         23    2    4    4    0    0 -0.68493352379E+02  0.83576013957E+01 -0.58342551069E+03  0.59513123142E+03  0.95050866705E+02 0.  0.
          4    1    3    3  502    0 -0.86202074517E+01  0.17290155007E+02 -0.22773424684E+02  0.29864465649E+02  0.00000000000E+00 0. -1.
         -3    1    3    3    0  502 -0.27139879952E+02  0.46076530721E+03 -0.13318981264E+03  0.48039646918E+03  0.00000000000E+00 0.  1.
         11    1    5    5    0    0  0.47775305618E+02 -0.68693140898E+02  0.14973646671E+02  0.85002573655E+02  0.00000000000E+00 0. -1.
        -11    1    5    5    0    0  0.56478134166E+02 -0.41771992272E+03  0.11022206753E+03  0.43569326096E+03  0.00000000000E+00 0.  1.
          3    1    6    6  503    0  0.19908064887E+02 -0.16243217204E+02 -0.12646925413E+03  0.12905287829E+03  0.00000000000E+00 0. -1.
         -3    1    6    6    0  503 -0.88401417267E+02  0.24600818600E+02 -0.45695625656E+03  0.46607835313E+03  0.00000000000E+00 0.  1.
<mgrwt>
<rscale>  0 0.15056325E+04</rscale>
<asrwt>0</asrwt>
<pdfrwt beam="1">  1        2 0.17232931E+00 0.15056325E+04</pdfrwt>
<pdfrwt beam="2">  1       -1 0.77838075E-01 0.15056325E+04</pdfrwt>
<totfact> 0.38565463E+01</totfact>
</mgrwt>
</event>
<event>
12    6  0.1529770E-007  0.1611164E+04  0.7818608E-02  0.8813719E-01
          2   -1    0    0  501    0  0.00000000000E+00  0.00000000000E+00  0.55200432914E+03  0.55200432914E+03  0.00000000000E+00 0. -1.
         -3   -1    0    0    0  501 -0.00000000000E+00 -0.00000000000E+00 -0.11756471774E+04  0.11756471774E+04  0.00000000000E+00 0.  1.
         24    2    1    2    0    0 -0.32482492707E+03  0.27240592398E+03  0.16113259248E+03  0.46049697719E+03  0.79859457653E+02 0.  0.
        254    2    1    2    0    0  0.32482492707E+03 -0.27240592398E+03 -0.78477544075E+03  0.12671545294E+04  0.90005104757E+03 0.  0.
         23    2    4    4    0    0  0.58060761221E+03 -0.11932248314E+03 -0.25613256137E+03  0.65215331022E+03  0.91416610572E+02 0.  0.
         23    2    4    4    0    0 -0.25578268514E+03 -0.15308344084E+03 -0.52864287938E+03  0.61500121916E+03  0.99518258453E+02 0.  0.
          4    1    3    3  502    0 -0.23597822104E+03  0.22623883246E+03  0.94745854399E+02  0.34036231731E+03  0.00000000000E+00 0. -1.
         -3    1    3    3    0  502 -0.88846706033E+02  0.46167091516E+02  0.66386738077E+02  0.12013465988E+03  0.00000000000E+00 0.  1.
         11    1    5    5    0    0  0.32812059950E+03 -0.20992147310E+02 -0.14042678188E+03  0.35752409588E+03  0.00000000000E+00 0. -1.
        -11    1    5    5    0    0  0.25248701271E+03 -0.98330335827E+02 -0.11570577949E+03  0.29462921433E+03  0.00000000000E+00 0.  1.
          4    1    6    6  503    0 -0.23740560257E+03 -0.11092628717E+03 -0.39817040554E+03  0.47666102543E+03  0.00000000000E+00 0. -1.
         -4    1    6    6    0  503 -0.18377082569E+02 -0.42157153674E+02 -0.13047247384E+03  0.13834019372E+03  0.00000000000E+00 0.  1.
<mgrwt>
<rscale>  0 0.16111640E+04</rscale>
<asrwt>0</asrwt>
<pdfrwt beam="1">  1        2 0.84923744E-01 0.16111640E+04</pdfrwt>
<pdfrwt beam="2">  1       -3 0.18086879E+00 0.16111640E+04</pdfrwt>
<totfact> 0.64203935E+00</totfact>
</mgrwt>
</event>
<event>
12    6  0.1529770E-007  0.1657351E+04  0.7818608E-02  0.8786070E-01
         -1   -1    0    0    0  501 -0.00000000000E+00  0.00000000000E+00  0.27642726444E+03  0.27642726444E+03  0.00000000000E+00 0.  1.
          2   -1    0    0  501    0  0.00000000000E+00 -0.00000000000E+00 -0.24842090243E+04  0.24842090243E+04  0.00000000000E+00 0. -1.
         24    2    1    2    0    0 -0.19053106412E+03 -0.42982443768E+03 -0.21338841425E+03  0.52222119877E+03  0.78289408496E+02 0.  0.
        254    2    1    2    0    0  0.19053106412E+03  0.42982443768E+03 -0.19943933456E+04  0.22384150900E+04  0.90102506310E+03 0.  0.
         23    2    4    4    0    0  0.31597397165E+02 -0.23180442309E+03 -0.21259409864E+03  0.32901964663E+03  0.91246868561E+02 0.  0.
         23    2    4    4    0    0  0.15893366696E+03  0.66162886077E+03 -0.17817992470E+04  0.19093954433E+04  0.89273414989E+02 0.  0.
          2    1    3    3  502    0 -0.14069029835E+03 -0.24564522985E+03 -0.99759232499E+02  0.30014537056E+03  0.00000000000E+00 0. -1.
         -1    1    3    3    0  502 -0.49840765774E+02 -0.18417920783E+03 -0.11362918175E+03  0.22207582821E+03  0.00000000000E+00 0.  1.
         11    1    5    5    0    0  0.62614232361E+02 -0.13458564981E+03 -0.11445692314E+03  0.18744126142E+03  0.00000000000E+00 0. -1.
        -11    1    5    5    0    0 -0.31016835196E+02 -0.97218773277E+02 -0.98137175501E+02  0.14157838521E+03  0.00000000000E+00 0.  1.
          1    1    6    6  503    0  0.41127663415E+02  0.36131925264E+03 -0.95442032302E+03  0.10213526521E+04  0.00000000000E+00 0. -1.
         -1    1    6    6    0  503  0.11780600354E+03  0.30030960813E+03 -0.82737892394E+03  0.88804279119E+03  0.00000000000E+00 0.  1.
<mgrwt>
<rscale>  0 0.16573510E+04</rscale>
<asrwt>0</asrwt>
<pdfrwt beam="1">  1        2 0.38218600E+00 0.16573510E+04</pdfrwt>
<pdfrwt beam="2">  1       -1 0.42527271E-01 0.16573510E+04</pdfrwt>
<totfact> 0.21066439E+01</totfact>
</mgrwt>
</event>
<event>
12    6  0.1529770E-007  0.2046736E+04  0.7818608E-02  0.8585077E-01
         -1   -1    0    0    0  501 -0.00000000000E+00  0.00000000000E+00  0.10407155094E+04  0.10407155094E+04  0.00000000000E+00 0.  1.
          2   -1    0    0  501    0  0.00000000000E+00 -0.00000000000E+00 -0.10063091925E+04  0.10063091925E+04  0.00000000000E+00 0. -1.
         24    2    1    2    0    0 -0.52511602647E+03 -0.19631808125E+03  0.61340620887E+03  0.83485210579E+03  0.80145063363E+02 0.  0.
        254    2    1    2    0    0  0.52511602647E+03  0.19631808125E+03 -0.57899989201E+03  0.12121725962E+04  0.90544679449E+03 0.  0.
         23    2    4    4    0    0  0.70272036706E+03  0.35719729774E+03 -0.51787363956E+03  0.94785909525E+03  0.94010287188E+02 0.  0.
         23    2    4    4    0    0 -0.17760434059E+03 -0.16087921649E+03 -0.61126252451E+02  0.26431350092E+03  0.93272632288E+02 0.  0.
          4    1    3    3  502    0 -0.44980402363E+02 -0.23232812203E+02  0.26756232466E+02  0.57261646286E+02  0.00000000000E+00 0. -1.
         -3    1    3    3    0  502 -0.48013562410E+03 -0.17308526905E+03  0.58664997641E+03  0.77759045951E+03  0.00000000000E+00 0.  1.
         11    1    5    5    0    0  0.61456212828E+03  0.31416007374E+03 -0.48804180169E+03  0.84532121802E+03  0.00000000000E+00 0. -1.
        -11    1    5    5    0    0  0.88158238781E+02  0.43037223997E+02 -0.29831837874E+02  0.10253787722E+03  0.00000000000E+00 0.  1.
          3    1    6    6  503    0 -0.17086548398E+03 -0.13574875381E+03 -0.24800374038E+02  0.21963104591E+03  0.00000000000E+00 0. -1.
         -3    1    6    6    0  503 -0.67388566139E+01 -0.25130462680E+02 -0.36325878413E+02  0.44682455007E+02  0.00000000000E+00 0.  1.
<mgrwt>
<rscale>  0 0.20467355E+04</rscale>
<asrwt>0</asrwt>
<pdfrwt beam="1">  1        2 0.15481680E+00 0.20467355E+04</pdfrwt>
<pdfrwt beam="2">  1       -1 0.16011008E+00 0.20467355E+04</pdfrwt>
<totfact> 0.76844649E+00</totfact>
</mgrwt>
</event>
<event>
12    6  0.1529770E-007  0.1311010E+04  0.7818608E-02  0.9020879E-01
         -1   -1    0    0    0  501 -0.00000000000E+00  0.00000000000E+00  0.18607701115E+04  0.18607701115E+04  0.00000000000E+00 0.  1.
          2   -1    0    0  501    0  0.00000000000E+00 -0.00000000000E+00 -0.23091888120E+03  0.23091888120E+03  0.00000000000E+00 0. -1.
         24    2    1    2    0    0 -0.19801477277E+03 -0.25472867612E+03  0.60726732394E+03  0.69255645961E+03  0.82245354582E+02 0.  0.
        254    2    1    2    0    0  0.19801477277E+03  0.25472867612E+03  0.10225839064E+04  0.13991325331E+04  0.89877552869E+03 0.  0.
         23    2    4    4    0    0 -0.20118474581E+03 -0.14171811936E+03  0.45002493629E+02  0.26656171501E+03  0.92035841813E+02 0.  0.
         23    2    4    4    0    0  0.39919951857E+03  0.39644679548E+03  0.97758141275E+03  0.11325708181E+04  0.10257154668E+03 0.  0.
          4    1    3    3  502    0 -0.26135275146E+02 -0.40504895817E+01  0.76239297456E+02  0.80696279650E+02  0.00000000000E+00 0. -1.
         -3    1    3    3    0  502 -0.17187949762E+03 -0.25067818654E+03  0.53102802648E+03  0.61186017996E+03  0.00000000000E+00 0.  1.
         11    1    5    5    0    0 -0.13312912668E+03 -0.14142900561E+03  0.40117516047E+02  0.19833038873E+03  0.00000000000E+00 0.  1.
        -11    1    5    5    0    0 -0.68055619124E+02 -0.28911375286E+00  0.48849775816E+01  0.68231326288E+02  0.00000000000E+00 0. -1.
          1    1    6    6  503    0  0.44563079986E+02  0.90806564016E+02  0.21756885265E+03  0.23993312779E+03  0.00000000000E+00 0. -1.
         -1    1    6    6    0  503  0.35463643859E+03  0.30564023147E+03  0.76001256010E+03  0.89263769032E+03  0.00000000000E+00 0.  1.
<mgrwt>
<rscale>  0 0.13110102E+04</rscale>
<asrwt>0</asrwt>
<pdfrwt beam="1">  1        2 0.35525983E-01 0.13110102E+04</pdfrwt>
<pdfrwt beam="2">  1       -1 0.28627231E+00 0.13110102E+04</pdfrwt>
<totfact> 0.67211696E+00</totfact>
</mgrwt>
</event>
<event>
12    6  0.1529770E-007  0.2547504E+04  0.7818608E-02  0.8386255E-01
          2   -1    0    0  501    0  0.00000000000E+00  0.00000000000E+00  0.11645161464E+04  0.11645161464E+04  0.00000000000E+00 0. -1.
         -1   -1    0    0    0  501 -0.00000000000E+00 -0.00000000000E+00 -0.13932342232E+04  0.13932342232E+04  0.00000000000E+00 0.  1.
         24    2    1    2    0    0 -0.11035331053E+04 -0.14923345397E+03 -0.50877316092E+02  0.11175993760E+04  0.79899471616E+02 0.  0.
        254    2    1    2    0    0  0.11035331053E+04  0.14923345397E+03 -0.17784076073E+03  0.14401509935E+04  0.89574081609E+03 0.  0.
         23    2    4    4    0    0  0.68809438920E+03 -0.24258345768E+03 -0.37984226465E+03  0.82763762393E+03  0.91560188572E+02 0.  0.
         23    2    4    4    0    0  0.41543871614E+03  0.39181691164E+03  0.20200150392E+03  0.61251336960E+03  0.90874645730E+02 0.  0.
          2    1    3    3  502    0 -0.47944604683E+03 -0.79658399296E+02 -0.59052521589E+02  0.48959286423E+03  0.00000000000E+00 0. -1.
         -1    1    3    3    0  502 -0.62408705851E+03 -0.69575054669E+02  0.81752054969E+01  0.62800651177E+03  0.00000000000E+00 0.  1.
         11    1    5    5    0    0  0.59315189550E+03 -0.17510047843E+03 -0.32930821556E+03  0.70066628970E+03  0.00000000000E+00 0. -1.
        -11    1    5    5    0    0  0.94942493700E+02 -0.67482979243E+02 -0.50534049088E+02  0.12697133422E+03  0.00000000000E+00 0.  1.
          2    1    6    6  503    0  0.23405405522E+03  0.21716042091E+03  0.16036196611E+03  0.35728967148E+03  0.00000000000E+00 0. -1.
         -2    1    6    6    0  503  0.18138466092E+03  0.17465649073E+03  0.41639537818E+02  0.25522369812E+03  0.00000000000E+00 0.  1.
<mgrwt>
<rscale>  0 0.25475037E+04</rscale>
<asrwt>0</asrwt>
<pdfrwt beam="1">  1        2 0.17915633E+00 0.25475037E+04</pdfrwt>
<pdfrwt beam="2">  1       -1 0.21434373E+00 0.25475037E+04</pdfrwt>
<totfact> 0.24199722E+00</totfact>
</mgrwt>
</event>
<event>
12    6  0.1529770E-007  0.2268231E+04  0.7818608E-02  0.8490554E-01
          2   -1    0    0  501    0  0.00000000000E+00  0.00000000000E+00  0.15037353259E+04  0.15037353259E+04  0.00000000000E+00 0. -1.
         -1   -1    0    0    0  501 -0.00000000000E+00 -0.00000000000E+00 -0.85534826598E+03  0.85534826598E+03  0.00000000000E+00 0.  1.
         24    2    1    2    0    0 -0.31854785791E+02 -0.54126394817E+03  0.10492796608E+04  0.11836800920E+04  0.78290259420E+02 0.  0.
        254    2    1    2    0    0  0.31854785791E+02  0.54126394817E+03 -0.40089260086E+03  0.11754034999E+04  0.96274457730E+03 0.  0.
         23    2    4    4    0    0  0.17337013054E+03  0.30060547199E+03 -0.68083550994E+03  0.76952422995E+03  0.90607377869E+02 0.  0.
         23    2    4    4    0    0 -0.14151534475E+03  0.24065847618E+03  0.27994290908E+03  0.40587926993E+03  0.91797900058E+02 0.  0.
          4    1    3    3  502    0 -0.10744592986E+02 -0.28911239904E+03  0.64233956100E+03  0.70448671895E+03  0.00000000000E+00 0. -1.
         -3    1    3    3    0  502 -0.21110192805E+02 -0.25215154913E+03  0.40694009980E+03  0.47919337308E+03  0.00000000000E+00 0.  1.
         11    1    5    5    0    0  0.51108884712E+02  0.29468516428E+02 -0.83527310409E+02  0.10226105388E+03  0.00000000000E+00 0.  1.
        -11    1    5    5    0    0  0.12226124583E+03  0.27113695556E+03 -0.59730819953E+03  0.66726317606E+03  0.00000000000E+00 0. -1.
          4    1    6    6  503    0 -0.13761244730E+03  0.23207542865E+03  0.28714407792E+03  0.39401511610E+03  0.00000000000E+00 0. -1.
         -4    1    6    6    0  503 -0.39028974472E+01  0.85830475294E+01 -0.72011688346E+01  0.11864153824E+02  0.00000000000E+00 0.  1.
<mgrwt>
<rscale>  0 0.22682305E+04</rscale>
<asrwt>0</asrwt>
<pdfrwt beam="1">  1        2 0.23134390E+00 0.22682305E+04</pdfrwt>
<pdfrwt beam="2">  1       -1 0.13159204E+00 0.22682305E+04</pdfrwt>
<totfact> 0.64321604E+00</totfact>
</mgrwt>
</event>
<event>
12    6  0.1529770E-007  0.1795994E+04  0.7818608E-02  0.8708433E-01
          2   -1    0    0  501    0  0.00000000000E+00  0.00000000000E+00  0.20118810377E+04  0.20118810377E+04  0.00000000000E+00 0. -1.
         -1   -1    0    0    0  501 -0.00000000000E+00 -0.00000000000E+00 -0.40081816691E+03  0.40081816691E+03  0.00000000000E+00 0.  1.
         24    2    1    2    0    0 -0.42691823031E+03  0.65904910011E+02  0.12919233124E+04  0.13645424014E+04  0.79419691566E+02 0.  0.
        254    2    1    2    0    0  0.42691823031E+03 -0.65904910011E+02  0.31913955835E+03  0.10481568032E+04  0.90009999108E+03 0.  0.
         23    2    4    4    0    0  0.45211746744E+03  0.33744637263E+03  0.26518435963E+03  0.63022643104E+03  0.92640979189E+02 0.  0.
         23    2    4    4    0    0 -0.25199237125E+02 -0.40335128265E+03  0.53955198718E+02  0.41793037220E+03  0.91800728600E+02 0.  0.
          2    1    3    3  502    0 -0.26426402360E+03  0.14529931213E+02  0.69360244694E+03  0.74238194177E+03  0.00000000000E+00 0. -1.
         -1    1    3    3    0  502 -0.16265420671E+03  0.51374978799E+02  0.59832086551E+03  0.62216045962E+03  0.00000000000E+00 0.  1.
         11    1    5    5    0    0  0.14305146741E+03  0.16276750510E+03  0.10232419373E+03  0.23963977898E+03  0.00000000000E+00 0. -1.
        -11    1    5    5    0    0  0.30906600002E+03  0.17467886753E+03  0.16286016591E+03  0.39058665207E+03  0.00000000000E+00 0.  1.
          1    1    6    6  503    0  0.12937508592E+02 -0.31272999059E+03  0.62726084940E+02  0.31922090764E+03  0.00000000000E+00 0. -1.
         -1    1    6    6    0  503 -0.38136745717E+02 -0.90621292058E+02 -0.87708862214E+01  0.98709464558E+02  0.00000000000E+00 0.  1.
<mgrwt>
<rscale>  0 0.17959938E+04</rscale>
<asrwt>0</asrwt>
<pdfrwt beam="1">  1        2 0.30952015E+00 0.17959938E+04</pdfrwt>
<pdfrwt beam="2">  1       -1 0.61664335E-01 0.17959938E+04</pdfrwt>
<totfact> 0.18877248E+01</totfact>
</mgrwt>
</event>
<event>
12    6  0.1529770E-007  0.2298806E+04  0.7818608E-02  0.8478392E-01
         -1   -1    0    0    0  501 -0.00000000000E+00  0.00000000000E+00  0.95051942280E+03  0.95051942280E+03  0.00000000000E+00 0.  1.
          2   -1    0    0  501    0  0.00000000000E+00 -0.00000000000E+00 -0.13898999122E+04  0.13898999122E+04  0.00000000000E+00 0. -1.
         24    2    1    2    0    0 -0.43239266448E+03 -0.85503156000E+03 -0.36391681533E+03  0.10279522931E+04  0.78791392264E+02 0.  0.
        254    2    1    2    0    0  0.43239266448E+03  0.85503156000E+03 -0.75463674022E+02  0.13124670419E+04  0.89377434793E+03 0.  0.
         23    2    4    4    0    0  0.88960938782E+02 -0.16409636954E+03 -0.10689006514E+03  0.23241193942E+03  0.88023612926E+02 0.  0.
         23    2    4    4    0    0  0.34343172569E+03  0.10191279295E+04  0.31426391121E+02  0.10800551025E+04  0.94680089228E+02 0.  0.
          4    1    3    3  502    0 -0.36180464443E+03 -0.66569515948E+03 -0.26236874465E+03  0.80180421815E+03  0.00000000000E+00 0. -1.
         -3    1    3    3    0  502 -0.70588020050E+02 -0.18933640052E+03 -0.10154807068E+03  0.22614807493E+03  0.00000000000E+00 0.  1.
         11    1    5    5    0    0  0.12362205209E+02 -0.37967937523E+02 -0.69546297809E+02  0.80193989403E+02  0.00000000000E+00 0.  1.
        -11    1    5    5    0    0  0.76598733573E+02 -0.12612843202E+03 -0.37343767334E+02  0.15221795002E+03  0.00000000000E+00 0. -1.
          2    1    6    6  503    0  0.18375129337E+03  0.61456346484E+03 -0.22165712569E+02  0.64182872243E+03  0.00000000000E+00 0. -1.
         -2    1    6    6    0  503  0.15968043232E+03  0.40456446470E+03  0.53592103690E+02  0.43822638002E+03  0.00000000000E+00 0.  1.
<mgrwt>
<rscale>  0 0.22988057E+04</rscale>
<asrwt>0</asrwt>
<pdfrwt beam="1">  1        2 0.21383075E+00 0.22988057E+04</pdfrwt>
<pdfrwt beam="2">  1       -1 0.14623376E+00 0.22988057E+04</pdfrwt>
<totfact> 0.56598251E+00</totfact>
</mgrwt>
</event>
<event>
12    6  0.1529770E-007  0.1783744E+04  0.7818608E-02  0.8714992E-01
         -1   -1    0    0    0  501 -0.00000000000E+00  0.00000000000E+00  0.35310342841E+03  0.35310342841E+03  0.00000000000E+00 0.  1.
          2   -1    0    0  501    0  0.00000000000E+00 -0.00000000000E+00 -0.22526985425E+04  0.22526985425E+04  0.00000000000E+00 0. -1.
         24    2    1    2    0    0 -0.25196719411E+02 -0.12417053089E+02  0.25597604466E+03  0.26936334536E+03  0.79017836627E+02 0.  0.
        254    2    1    2    0    0  0.25196719411E+02  0.12417053089E+02 -0.21555711588E+04  0.23364386256E+04  0.90092695190E+03 0.  0.
         23    2    4    4    0    0  0.16134813974E+03  0.41997980010E+03 -0.99972027669E+03  0.11001622919E+04  0.92196432559E+02 0.  0.
         23    2    4    4    0    0 -0.13615142033E+03 -0.40756274701E+03 -0.11558508821E+04  0.12362763337E+04  0.87996077223E+02 0.  0.
          2    1    3    3  502    0 -0.23186215847E+02  0.13616987484E+02  0.24368034518E+02  0.36288070487E+02  0.00000000000E+00 0. -1.
         -1    1    3    3    0  502 -0.20105035647E+01 -0.26034040574E+02  0.23160801014E+03  0.23307527487E+03  0.00000000000E+00 0.  1.
         11    1    5    5    0    0  0.12001711691E+03  0.35168266082E+03 -0.89011536364E+03  0.96456734490E+03  0.00000000000E+00 0. -1.
        -11    1    5    5    0    0  0.41331022831E+02  0.68297139284E+02 -0.10960491306E+03  0.13559494699E+03  0.00000000000E+00 0.  1.
          2    1    6    6  503    0 -0.14677508779E+03 -0.39623190979E+03 -0.11020515962E+04  0.11802797861E+04  0.00000000000E+00 0. -1.
         -2    1    6    6    0  503  0.10623667463E+02 -0.11330837219E+02 -0.53799285888E+02  0.55996547612E+02  0.00000000000E+00 0.  1.
<mgrwt>
<rscale>  0 0.17837439E+04</rscale>
<asrwt>0</asrwt>
<pdfrwt beam="1">  1        2 0.34656900E+00 0.17837439E+04</pdfrwt>
<pdfrwt beam="2">  1       -1 0.54323605E-01 0.17837439E+04</pdfrwt>
<totfact> 0.17772066E+01</totfact>
</mgrwt>
</event>
<event>
12    6  0.1529770E-007  0.2031160E+04  0.7818608E-02  0.8592189E-01
         -1   -1    0    0    0  501 -0.00000000000E+00  0.00000000000E+00  0.49311662880E+03  0.49311662880E+03  0.00000000000E+00 0.  1.
          2   -1    0    0  501    0  0.00000000000E+00 -0.00000000000E+00 -0.20916003806E+04  0.20916003806E+04  0.00000000000E+00 0. -1.
         24    2    1    2    0    0  0.80464488790E+03  0.27517866293E+02 -0.58338279192E+03  0.99742410331E+03  0.79427522798E+02 0.  0.
        254    2    1    2    0    0 -0.80464488790E+03 -0.27517866293E+02 -0.10151009599E+04  0.15872929061E+04  0.91698319631E+03 0.  0.
         23    2    4    4    0    0 -0.79576585974E+02 -0.34735170247E+03 -0.11953183791E+03  0.38775604331E+03  0.95295595950E+02 0.  0.
         23    2    4    4    0    0 -0.72506830192E+03  0.31983383617E+03 -0.89556912195E+03  0.11995368627E+04  0.93951624130E+02 0.  0.
          4    1    3    3  502    0  0.29525407143E+02  0.16117806590E+02 -0.28612353347E+02  0.44161070190E+02  0.00000000000E+00 0. -1.
         -3    1    3    3    0  502  0.77511948076E+03  0.11400059703E+02 -0.55477043857E+03  0.95326303312E+03  0.00000000000E+00 0.  1.
         11    1    5    5    0    0 -0.15431160024E+02 -0.18905443577E+03 -0.21696351347E+02  0.19091996241E+03  0.00000000000E+00 0. -1.
        -11    1    5    5    0    0 -0.64145425950E+02 -0.15829726670E+03 -0.97835486563E+02  0.19683608090E+03  0.00000000000E+00 0.  1.
          1    1    6    6  503    0 -0.62778212262E+03  0.30540817885E+03 -0.80829471131E+03  0.10680472319E+04  0.00000000000E+00 0. -1.
         -1    1    6    6    0  503 -0.97286179304E+02  0.14425657321E+02 -0.87274410636E+02  0.13148963086E+03  0.00000000000E+00 0.  1.
<mgrwt>
<rscale>  0 0.20311602E+04</rscale>
<asrwt>0</asrwt>
<pdfrwt beam="1">  1        2 0.32178468E+00 0.20311602E+04</pdfrwt>
<pdfrwt beam="2">  1       -1 0.75864096E-01 0.20311602E+04</pdfrwt>
<totfact> 0.10937500E+01</totfact>
</mgrwt>
</event>
<event>
12    6  0.1529770E-007  0.1885502E+04  0.7818608E-02  0.8662107E-01
         -1   -1    0    0    0  501 -0.00000000000E+00  0.00000000000E+00  0.42594621933E+03  0.42594621933E+03  0.00000000000E+00 0.  1.
          2   -1    0    0  501    0  0.00000000000E+00 -0.00000000000E+00 -0.20865996678E+04  0.20865996678E+04  0.00000000000E+00 0. -1.
         24    2    1    2    0    0  0.69265240665E+03 -0.66068201785E+02 -0.87368963094E+03  0.11198894389E+04  0.81770534527E+02 0.  0.
        254    2    1    2    0    0 -0.69265240665E+03  0.66068201785E+02 -0.78696381751E+03  0.13926564483E+04  0.91435636877E+03 0.  0.
         23    2    4    4    0    0 -0.69280919431E+03 -0.12577251788E+03 -0.90494887699E+03  0.11500260920E+04  0.88454713868E+02 0.  0.
         23    2    4    4    0    0  0.15678766369E+00  0.19184071967E+03  0.11798505948E+03  0.24263035624E+03  0.90255909507E+02 0.  0.
          2    1    3    3  502    0  0.25620100048E+03 -0.12754176588E+02 -0.38361549113E+03  0.46147856582E+03  0.00000000000E+00 0. -1.
         -1    1    3    3    0  502  0.43645140616E+03 -0.53314025198E+02 -0.49007413981E+03  0.65841087303E+03  0.00000000000E+00 0.  1.
         11    1    5    5    0    0 -0.15715300444E+03 -0.55460158746E+02 -0.17209455377E+03  0.23956091386E+03  0.00000000000E+00 0.  1.
        -11    1    5    5    0    0 -0.53565618987E+03 -0.70312359137E+02 -0.73285432322E+03  0.91046517817E+03  0.00000000000E+00 0. -1.
          2    1    6    6  503    0 -0.14242424320E+02  0.75153707097E+02  0.60456727526E+00  0.76493737276E+02  0.00000000000E+00 0.  1.
         -2    1    6    6    0  503  0.14399211983E+02  0.11668701257E+03  0.11738049221E+03  0.16613661896E+03  0.00000000000E+00 0. -1.
<mgrwt>
<rscale>  0 0.18855018E+04</rscale>
<asrwt>0</asrwt>
<pdfrwt beam="1">  1        2 0.32101533E+00 0.18855018E+04</pdfrwt>
<pdfrwt beam="2">  1       -1 0.65530187E-01 0.18855018E+04</pdfrwt>
<totfact> 0.15067313E+01</totfact>
</mgrwt>
</event>
<event>
12    6  0.1529770E-007  0.1769242E+04  0.7818608E-02  0.8722830E-01
         -1   -1    0    0    0  501 -0.00000000000E+00  0.00000000000E+00  0.80949252909E+03  0.80949252909E+03  0.00000000000E+00 0.  1.
          2   -1    0    0  501    0  0.00000000000E+00 -0.00000000000E+00 -0.96672186739E+03  0.96672186739E+03  0.00000000000E+00 0. -1.
         24    2    1    2    0    0 -0.27593791273E+03  0.43401696639E+03 -0.46388801842E+03  0.69730338927E+03  0.80792723986E+02 0.  0.
        254    2    1    2    0    0  0.27593791273E+03 -0.43401696639E+03  0.30665868012E+03  0.10789110072E+04  0.89749482261E+03 0.  0.
         23    2    4    4    0    0  0.27880859659E+03  0.22213377678E+03  0.14780810625E+03  0.39741078976E+03  0.94923396575E+02 0.  0.
         23    2    4    4    0    0 -0.28706838688E+01 -0.65615074318E+03  0.15885057387E+03  0.68150021746E+03  0.93096739937E+02 0.  0.
          2    1    3    3  502    0 -0.16055428464E+03  0.28005043867E+03 -0.24094086994E+03  0.40281314442E+03  0.00000000000E+00 0. -1.
         -1    1    3    3    0  502 -0.11538362809E+03  0.15396652773E+03 -0.22294714848E+03  0.29449024484E+03  0.00000000000E+00 0.  1.
         11    1    5    5    0    0  0.31216595150E+02  0.54652936240E+01 -0.89996221257E+01  0.32944475190E+02  0.00000000000E+00 0. -1.
        -11    1    5    5    0    0  0.24759200145E+03  0.21666848316E+03  0.15680772838E+03  0.36446631457E+03  0.00000000000E+00 0.  1.
          1    1    6    6  503    0  0.11348667985E+02 -0.16934117380E+02 -0.59353974701E+01  0.21231710708E+02  0.00000000000E+00 0. -1.
         -1    1    6    6    0  503 -0.14219351854E+02 -0.63921662580E+03  0.16478597134E+03  0.66026850676E+03  0.00000000000E+00 0.  1.
<mgrwt>
<rscale>  0 0.17692418E+04</rscale>
<asrwt>0</asrwt>
<pdfrwt beam="1">  1        2 0.14872644E+00 0.17692418E+04</pdfrwt>
<pdfrwt beam="2">  1       -1 0.12453731E+00 0.17692418E+04</pdfrwt>
<totfact> 0.16147546E+01</totfact>
</mgrwt>
</event>
<event>
12    6  0.1529770E-007  0.1927027E+04  0.7818608E-02  0.8641519E-01
         -1   -1    0    0    0  501 -0.00000000000E+00  0.00000000000E+00  0.78711326469E+03  0.78711326469E+03  0.00000000000E+00 0.  1.
          2   -1    0    0  501    0  0.00000000000E+00 -0.00000000000E+00 -0.11794467379E+04  0.11794467379E+04  0.00000000000E+00 0. -1.
         24    2    1    2    0    0 -0.58381986520E+03  0.39327841320E+03 -0.31952141047E+01  0.70812248556E+03  0.76900584315E+02 0.  0.
        254    2    1    2    0    0  0.58381986520E+03 -0.39327841320E+03 -0.38913825910E+03  0.12584375170E+04  0.96784443701E+03 0.  0.
         23    2    4    4    0    0  0.72645309254E+03 -0.19203000581E+03  0.37897131591E+02  0.75723277841E+03  0.85765198820E+02 0.  0.
         23    2    4    4    0    0 -0.14263322734E+03 -0.20124840739E+03 -0.42703539069E+03  0.50120473861E+03  0.89452814833E+02 0.  0.
          2    1    3    3  502    0 -0.75094404107E+01  0.15843991010E+02  0.76551690862E+01  0.19131789256E+02  0.00000000000E+00 0. -1.
         -1    1    3    3    0  502 -0.57631042479E+03  0.37743442219E+03 -0.10850383191E+02  0.68899069630E+03  0.00000000000E+00 0.  1.
         11    1    5    5    0    0  0.49937295066E+03 -0.11846249697E+03  0.63582173510E+02  0.51715510230E+03  0.00000000000E+00 0.  1.
        -11    1    5    5    0    0  0.22708014187E+03 -0.73567508836E+02 -0.25685041919E+02  0.24007767611E+03  0.00000000000E+00 0. -1.
          1    1    6    6  503    0 -0.61859073916E+02 -0.26210247662E+02 -0.82399540047E+02  0.10631653826E+03  0.00000000000E+00 0. -1.
         -1    1    6    6    0  503 -0.80774153425E+02 -0.17503815973E+03 -0.34463585064E+03  0.39488820035E+03  0.00000000000E+00 0.  1.
<mgrwt>
<rscale>  0 0.19270269E+04</rscale>
<asrwt>0</asrwt>
<pdfrwt beam="1">  1        2 0.18145334E+00 0.19270269E+04</pdfrwt>
<pdfrwt beam="2">  1       -1 0.12109435E+00 0.19270269E+04</pdfrwt>
<totfact> 0.12572935E+01</totfact>
</mgrwt>
</event>
<event>
12    6  0.1529770E-007  0.1214198E+04  0.7818608E-02  0.9100519E-01
         -1   -1    0    0    0  501 -0.00000000000E+00  0.00000000000E+00  0.28765722628E+03  0.28765722628E+03  0.00000000000E+00 0.  1.
          2   -1    0    0  501    0  0.00000000000E+00 -0.00000000000E+00 -0.12812800791E+04  0.12812800791E+04  0.00000000000E+00 0. -1.
         24    2    1    2    0    0  0.21138109336E+03 -0.13740219070E+03 -0.35392752075E+03  0.44251937427E+03  0.83650331859E+02 0.  0.
        254    2    1    2    0    0 -0.21138109336E+03  0.13740219070E+03 -0.63969533211E+03  0.11264179312E+04  0.89221404890E+03 0.  0.
         23    2    4    4    0    0 -0.17030421176E+03  0.29336063139E+03  0.99810822672E+02  0.36465101735E+03  0.89130126997E+02 0.  0.
         23    2    4    4    0    0 -0.41076881594E+02 -0.15595844069E+03 -0.73950615478E+03  0.76176691380E+03  0.86076318333E+02 0.  0.
          4    1    3    3  502    0  0.21388730811E+03 -0.14375134644E+03 -0.33680974472E+03  0.42409083262E+03  0.00000000000E+00 0. -1.
         -3    1    3    3    0  502 -0.25062147500E+01  0.63491557450E+01 -0.17117776030E+02  0.18428541648E+02  0.00000000000E+00 0.  1.
         11    1    5    5    0    0 -0.97142364611E+02  0.90769589184E+02  0.58855965400E+02  0.14539526122E+03  0.00000000000E+00 0. -1.
        -11    1    5    5    0    0 -0.73161847151E+02  0.20259104221E+03  0.40954857272E+02  0.21925575613E+03  0.00000000000E+00 0.  1.
          2    1    6    6  503    0  0.38312857172E+01 -0.10265967091E+03 -0.55722822426E+03  0.56661890252E+03  0.00000000000E+00 0. -1.
         -2    1    6    6    0  503 -0.44908167311E+02 -0.53298769784E+02 -0.18227793052E+03  0.19514801128E+03  0.00000000000E+00 0.  1.
<mgrwt>
<rscale>  0 0.12141985E+04</rscale>
<asrwt>0</asrwt>
<pdfrwt beam="1">  1        2 0.19712001E+00 0.12141985E+04</pdfrwt>
<pdfrwt beam="2">  1       -1 0.44254958E-01 0.12141985E+04</pdfrwt>
<totfact> 0.96207792E+01</totfact>
</mgrwt>
</event>
<event>
12    6  0.1529770E-007  0.1733883E+04  0.7818608E-02  0.8742272E-01
         -1   -1    0    0    0  501 -0.00000000000E+00  0.00000000000E+00  0.96593638379E+03  0.96593638379E+03  0.00000000000E+00 0.  1.
          2   -1    0    0  501    0  0.00000000000E+00 -0.00000000000E+00 -0.77809207182E+03  0.77809207182E+03  0.00000000000E+00 0. -1.
         24    2    1    2    0    0  0.32425150691E+03 -0.24634990655E+03  0.56715814473E+03  0.70278313506E+03  0.80052842538E+02 0.  0.
        254    2    1    2    0    0 -0.32425150691E+03  0.24634990655E+03 -0.37931383276E+03  0.10412453205E+04  0.88004858823E+03 0.  0.
         23    2    4    4    0    0 -0.27415274603E+03 -0.51465261806E+02  0.21781626157E+03  0.36612600852E+03  0.93786614063E+02 0.  0.
         23    2    4    4    0    0 -0.50098760876E+02  0.29781516836E+03 -0.59713009433E+03  0.67511931203E+03  0.89543149223E+02 0.  0.
          2    1    3    3  502    0 -0.17837259158E+01  0.19530719118E+01 -0.45569028982E+00  0.26839936058E+01  0.00000000000E+00 0. -1.
         -1    1    3    3    0  502  0.32603523282E+03 -0.24830297846E+03  0.56761383502E+03  0.70009914145E+03  0.00000000000E+00 0.  1.
         11    1    5    5    0    0 -0.54138156707E+02 -0.23134134851E+02  0.97158093915E+02  0.11360380020E+03  0.00000000000E+00 0.  1.
        -11    1    5    5    0    0 -0.22001458932E+03 -0.28331126955E+02  0.12065816766E+03  0.25252220832E+03  0.00000000000E+00 0. -1.
          3    1    6    6  503    0 -0.32474155802E+02  0.29173632258E+03 -0.53481615068E+03  0.61007619830E+03  0.00000000000E+00 0. -1.
         -3    1    6    6    0  503 -0.17624605073E+02  0.60788457814E+01 -0.62313943649E+02  0.65043113726E+02  0.00000000000E+00 0.  1.
<mgrwt>
<rscale>  0 0.17338829E+04</rscale>
<asrwt>0</asrwt>
<pdfrwt beam="1">  1        2 0.11970647E+00 0.17338829E+04</pdfrwt>
<pdfrwt beam="2">  1       -1 0.14860560E+00 0.17338829E+04</pdfrwt>
<totfact> 0.13854733E+01</totfact>
</mgrwt>
</event>
<event>
12    6  0.1529770E-007  0.2059715E+04  0.7818608E-02  0.8579200E-01
         -1   -1    0    0    0  501 -0.00000000000E+00  0.00000000000E+00  0.61050162672E+03  0.61050162672E+03  0.00000000000E+00 0.  1.
          2   -1    0    0  501    0  0.00000000000E+00 -0.00000000000E+00 -0.17372704072E+04  0.17372704072E+04  0.00000000000E+00 0. -1.
         24    2    1    2    0    0 -0.41503595530E+02 -0.62479172758E+03 -0.10738841206E+04  0.12455465583E+04  0.77922225338E+02 0.  0.
        254    2    1    2    0    0  0.41503595530E+02  0.62479172758E+03 -0.52884659856E+02  0.11022254756E+04  0.90554787859E+03 0.  0.
         23    2    4    4    0    0  0.31733288267E+03  0.38310674226E+03  0.29786565910E+03  0.58667625571E+03  0.89409975728E+02 0.  0.
         23    2    4    4    0    0 -0.27582928714E+03  0.24168498532E+03 -0.35075031896E+03  0.51554921984E+03  0.90949348865E+02 0.  0.
          4    1    3    3  502    0 -0.30650768145E+02 -0.60956813076E+03 -0.10558964173E+04  0.12196024023E+04  0.00000000000E+00 0. -1.
         -3    1    3    3    0  502 -0.10852827385E+02 -0.15223596814E+02 -0.17987703310E+02  0.25944156039E+02  0.00000000000E+00 0.  1.
         11    1    5    5    0    0  0.19449615602E+02  0.66603693279E+02  0.26452715863E+02  0.74256889795E+02  0.00000000000E+00 0. -1.
        -11    1    5    5    0    0  0.29788326707E+03  0.31650304898E+03  0.27141294324E+03  0.51241936592E+03  0.00000000000E+00 0.  1.
          1    1    6    6  503    0 -0.23163719837E+03  0.24004298141E+03 -0.31204962569E+03  0.45678374915E+03  0.00000000000E+00 0.  1.
         -1    1    6    6    0  503 -0.44192088770E+02  0.16420039114E+01 -0.38700693269E+02  0.58765470696E+02  0.00000000000E+00 0. -1.
<mgrwt>
<rscale>  0 0.20597149E+04</rscale>
<asrwt>0</asrwt>
<pdfrwt beam="1">  1        2 0.26727237E+00 0.20597149E+04</pdfrwt>
<pdfrwt beam="2">  1       -1 0.93923327E-01 0.20597149E+04</pdfrwt>
<totfact> 0.10814053E+01</totfact>
</mgrwt>
</event>
<event>
12    6  0.1529770E-007  0.1168379E+04  0.7818608E-02  0.9140994E-01
          2   -1    0    0  501    0  0.00000000000E+00  0.00000000000E+00  0.19254806818E+03  0.19254806818E+03  0.00000000000E+00 0. -1.
         -1   -1    0    0    0  501 -0.00000000000E+00 -0.00000000000E+00 -0.17724270083E+04  0.17724270083E+04  0.00000000000E+00 0.  1.
         24    2    1    2    0    0  0.18334836688E+03 -0.99443235499E+02 -0.44038729589E+03  0.49409786215E+03  0.81768858812E+02 0.  0.
        254    2    1    2    0    0 -0.18334836688E+03  0.99443235499E+02 -0.11394916442E+04  0.14708772143E+04  0.90638457161E+03 0.  0.
         23    2    4    4    0    0 -0.41474508898E+03 -0.73261855934E+02 -0.10791385267E+04  0.11624306175E+04  0.96561857975E+02 0.  0.
         23    2    4    4    0    0  0.23139672210E+03  0.17270509143E+03 -0.60353117501E+02  0.30844659677E+03  0.90140516191E+02 0.  0.
          2    1    3    3  502    0  0.12996426930E+03 -0.25899296194E+02 -0.24269004067E+03  0.27651390684E+03  0.00000000000E+00 0. -1.
         -1    1    3    3    0  502  0.53384097580E+02 -0.73543939305E+02 -0.19769725522E+03  0.21758395530E+03  0.00000000000E+00 0.  1.
         11    1    5    5    0    0 -0.41061953512E+03 -0.57943932226E+02 -0.10546948543E+04  0.11332904031E+04  0.00000000000E+00 0. -1.
        -11    1    5    5    0    0 -0.41255538683E+01 -0.15317923708E+02 -0.24443672367E+02  0.29140214485E+02  0.00000000000E+00 0.  1.
          1    1    6    6  503    0  0.16755645845E+03  0.71675157204E+02 -0.25933881484E+02  0.18407895354E+03  0.00000000000E+00 0. -1.
         -1    1    6    6    0  503  0.63840263654E+02  0.10102993423E+03 -0.34419236018E+02  0.12436764323E+03  0.00000000000E+00 0.  1.
<mgrwt>
<rscale>  0 0.11683790E+04</rscale>
<asrwt>0</asrwt>
<pdfrwt beam="1">  1        2 0.29622781E-01 0.11683790E+04</pdfrwt>
<pdfrwt beam="2">  1       -1 0.27268107E+00 0.11683790E+04</pdfrwt>
<totfact> 0.10223999E+01</totfact>
</mgrwt>
</event>
<event>
12    6  0.1529770E-007  0.1579251E+04  0.7818608E-02  0.8833397E-01
         -1   -1    0    0    0  501 -0.00000000000E+00  0.00000000000E+00  0.40436497007E+03  0.40436497007E+03  0.00000000000E+00 0.  1.
          2   -1    0    0  501    0  0.00000000000E+00 -0.00000000000E+00 -0.15419456714E+04  0.15419456714E+04  0.00000000000E+00 0. -1.
         24    2    1    2    0    0  0.63905397828E+02 -0.54153246266E+03 -0.50891666331E+03  0.74996762087E+03  0.78191778166E+02 0.  0.
        254    2    1    2    0    0 -0.63905397828E+02  0.54153246266E+03 -0.62866403803E+03  0.11963430206E+04  0.85946311279E+03 0.  0.
         23    2    4    4    0    0  0.20624480974E+03  0.40490348577E+03 -0.72938442065E+03  0.86431600249E+03  0.92502782308E+02 0.  0.
         23    2    4    4    0    0 -0.27015020757E+03  0.13662897689E+03  0.10072038261E+03  0.33202701812E+03  0.91916991427E+02 0.  0.
          2    1    3    3  502    0  0.42757193541E+02 -0.41435753278E+03 -0.34140187609E+03  0.53858665372E+03  0.00000000000E+00 0. -1.
         -1    1    3    3    0  502  0.21148204287E+02 -0.12717492988E+03 -0.16751478722E+03  0.21138096715E+03  0.00000000000E+00 0.  1.
         11    1    5    5    0    0 -0.22792515430E+01  0.11280864003E+02 -0.54356820742E+02  0.55561828997E+02  0.00000000000E+00 0. -1.
        -11    1    5    5    0    0  0.20852406129E+03  0.39362262177E+03 -0.67502759990E+03  0.80875417349E+03  0.00000000000E+00 0.  1.
          3    1    6    6  503    0 -0.21151952333E+02  0.10100130833E+02 -0.16973965623E+02  0.28940166539E+02  0.00000000000E+00 0. -1.
         -3    1    6    6    0  503 -0.24899825524E+03  0.12652884606E+03  0.11769434824E+03  0.30308685158E+03  0.00000000000E+00 0.  1.
<mgrwt>
<rscale>  0 0.15792515E+04</rscale>
<asrwt>0</asrwt>
<pdfrwt beam="1">  1        2 0.23722241E+00 0.15792515E+04</pdfrwt>
<pdfrwt beam="2">  1       -1 0.62209996E-01 0.15792515E+04</pdfrwt>
<totfact> 0.34476374E+01</totfact>
</mgrwt>
</event>
<event>
12    6  0.1529770E-007  0.1619551E+04  0.7818608E-02  0.8808627E-01
         -1   -1    0    0    0  501 -0.00000000000E+00  0.00000000000E+00  0.28757941996E+03  0.28757941996E+03  0.00000000000E+00 0.  1.
          2   -1    0    0  501    0  0.00000000000E+00 -0.00000000000E+00 -0.22801910926E+04  0.22801910926E+04  0.00000000000E+00 0. -1.
         24    2    1    2    0    0 -0.41903164365E+01 -0.37391753157E+03 -0.37185254360E+02  0.38359385034E+03  0.77004023962E+02 0.  0.
        254    2    1    2    0    0  0.41903164365E+01  0.37391753157E+03 -0.19554264182E+04  0.21841766622E+04  0.89838930054E+03 0.  0.
         23    2    4    4    0    0  0.24666928148E+03  0.14560438129E+03 -0.17631337629E+04  0.17887153086E+04  0.93890462169E+02 0.  0.
         23    2    4    4    0    0 -0.24247896504E+03  0.22831315029E+03 -0.19229265531E+03  0.39546135361E+03  0.92142681927E+02 0.  0.
          4    1    3    3  502    0  0.31246815207E+02 -0.98786993281E+02 -0.21007499734E+02  0.10571919668E+03  0.00000000000E+00 0. -1.
         -3    1    3    3    0  502 -0.35437131643E+02 -0.27513053829E+03 -0.16177754625E+02  0.27787465366E+03  0.00000000000E+00 0.  1.
         11    1    5    5    0    0  0.90366370297E+02  0.44999507625E+01 -0.57203488310E+03  0.57914612829E+03  0.00000000000E+00 0.  1.
        -11    1    5    5    0    0  0.15630291118E+03  0.14110443052E+03 -0.11910988798E+04  0.12095691803E+04  0.00000000000E+00 0. -1.
          4    1    6    6  503    0 -0.85996690760E+02  0.12956480398E+03 -0.12150862030E+03  0.19734947190E+03  0.00000000000E+00 0.  1.
         -4    1    6    6    0  503 -0.15648227428E+03  0.98748346304E+02 -0.70784035010E+02  0.19811188171E+03  0.00000000000E+00 0. -1.
<mgrwt>
<rscale>  0 0.16195506E+04</rscale>
<asrwt>0</asrwt>
<pdfrwt beam="1">  1        2 0.35079862E+00 0.16195506E+04</pdfrwt>
<pdfrwt beam="2">  1       -1 0.44242989E-01 0.16195506E+04</pdfrwt>
<totfact> 0.25671756E+01</totfact>
</mgrwt>
</event>
<event>
12    6  0.1529770E-007  0.1930422E+04  0.7818608E-02  0.8639860E-01
         -1   -1    0    0    0  501 -0.00000000000E+00  0.00000000000E+00  0.31824137670E+03  0.31824137670E+03  0.00000000000E+00 0.  1.
          2   -1    0    0  501    0  0.00000000000E+00 -0.00000000000E+00 -0.29274381765E+04  0.29274381765E+04  0.00000000000E+00 0. -1.
         24    2    1    2    0    0 -0.38670182209E+03  0.64069943506E+03 -0.11571871389E+04  0.13801848107E+04  0.76118146351E+02 0.  0.
        254    2    1    2    0    0  0.38670182209E+03 -0.64069943506E+03 -0.14520096610E+04  0.18654947425E+04  0.90094645421E+03 0.  0.
         23    2    4    4    0    0  0.65458034791E+03 -0.36043185968E+03 -0.77021198932E+03  0.10769907007E+04  0.91081851037E+02 0.  0.
         23    2    4    4    0    0 -0.26787852582E+03 -0.28026757538E+03 -0.68179767166E+03  0.78850404177E+03  0.81127926155E+02 0.  0.
          4    1    3    3  502    0 -0.34841629042E+03  0.52970329965E+03 -0.95265809905E+03  0.11443500124E+04  0.00000000000E+00 0. -1.
         -3    1    3    3    0  502 -0.38285531666E+02  0.11099613541E+03 -0.20452903980E+03  0.23583479839E+03  0.00000000000E+00 0.  1.
         11    1    5    5    0    0  0.17687230405E+03 -0.14494313673E+03 -0.22849286636E+03  0.32326663113E+03  0.00000000000E+00 0. -1.
        -11    1    5    5    0    0  0.47770804386E+03 -0.21548872295E+03 -0.54171912296E+03  0.75372406958E+03  0.00000000000E+00 0.  1.
          4    1    6    6  503    0 -0.22612025989E+03 -0.19936232041E+03 -0.56522814841E+03  0.64059235594E+03  0.00000000000E+00 0. -1.
         -4    1    6    6    0  503 -0.41758265933E+02 -0.80905254965E+02 -0.11656952325E+03  0.14791168583E+03  0.00000000000E+00 0.  1.
<mgrwt>
<rscale>  0 0.19304217E+04</rscale>
<asrwt>0</asrwt>
<pdfrwt beam="1">  1        2 0.45037510E+00 0.19304217E+04</pdfrwt>
<pdfrwt beam="2">  1       -1 0.48960212E-01 0.19304217E+04</pdfrwt>
<totfact> 0.86059757E+00</totfact>
</mgrwt>
</event>
<event>
12    6  0.1529770E-007  0.1743751E+04  0.7818608E-02  0.8736798E-01
          2   -1    0    0  501    0  0.00000000000E+00  0.00000000000E+00  0.52801481589E+03  0.52801481589E+03  0.00000000000E+00 0. -1.
         -1   -1    0    0    0  501 -0.00000000000E+00 -0.00000000000E+00 -0.14396696718E+04  0.14396696718E+04  0.00000000000E+00 0.  1.
         24    2    1    2    0    0 -0.25592344903E+03 -0.19279296725E+03  0.28594634557E+03  0.43614357239E+03  0.76091807766E+02 0.  0.
        254    2    1    2    0    0  0.25592344903E+03  0.19279296725E+03 -0.11976012015E+04  0.15315409153E+04  0.89927915437E+03 0.  0.
         23    2    4    4    0    0  0.18649283346E+03  0.86274699730E+02  0.84019295770E+02  0.24040796292E+03  0.92270503554E+02 0.  0.
         23    2    4    4    0    0  0.69430615569E+02  0.10651826752E+03 -0.12816204973E+04  0.12911329524E+04  0.91139728212E+02 0.  0.
          2    1    3    3  502    0 -0.21861579631E+03 -0.19145895201E+03  0.26526988605E+03  0.39346856183E+03  0.00000000000E+00 0. -1.
         -3    1    3    3    0  502 -0.37307652721E+02 -0.13340152358E+01  0.20676459513E+02  0.42675010559E+02  0.00000000000E+00 0.  1.
         11    1    5    5    0    0  0.51908101405E+02  0.44115004236E+02 -0.12833832092E+02  0.69320212322E+02  0.00000000000E+00 0. -1.
        -11    1    5    5    0    0  0.13458473206E+03  0.42159695494E+02  0.96853127862E+02  0.17108775059E+03  0.00000000000E+00 0.  1.
          3    1    6    6  503    0  0.26409776959E+02  0.10563644107E+03 -0.76301431301E+03  0.77074468915E+03  0.00000000000E+00 0. -1.
         -3    1    6    6    0  503  0.43020838610E+02  0.88182645376E+00 -0.51860618428E+03  0.52038826327E+03  0.00000000000E+00 0.  1.
<mgrwt>
<rscale>  0 0.17437510E+04</rscale>
<asrwt>0</asrwt>
<pdfrwt beam="1">  1        2 0.81233050E-01 0.17437510E+04</pdfrwt>
<pdfrwt beam="2">  1       -1 0.22148764E+00 0.17437510E+04</pdfrwt>
<totfact> 0.67323096E+00</totfact>
</mgrwt>
</event>
<event>
12    6  0.1529770E-007  0.1580079E+04  0.7818608E-02  0.8832881E-01
         -1   -1    0    0    0  501 -0.00000000000E+00  0.00000000000E+00  0.23665643744E+03  0.23665643744E+03  0.00000000000E+00 0.  1.
          2   -1    0    0  501    0  0.00000000000E+00 -0.00000000000E+00 -0.26374200661E+04  0.26374200661E+04  0.00000000000E+00 0. -1.
         24    2    1    2    0    0  0.30588818416E+03 -0.19059772545E+03 -0.15044656758E+04  0.15492027699E+04  0.81958394121E+02 0.  0.
        254    2    1    2    0    0 -0.30588818416E+03  0.19059772545E+03 -0.89629795282E+03  0.13248737336E+04  0.90666714712E+03 0.  0.
         23    2    4    4    0    0  0.79794859240E+02  0.45682490292E+03 -0.60080979349E+03  0.76448084554E+03  0.91664299237E+02 0.  0.
         23    2    4    4    0    0 -0.38568304340E+03 -0.26622717747E+03 -0.29548815933E+03  0.56039288808E+03  0.84253289062E+02 0.  0.
          4    1    3    3  502    0  0.21153224032E+03 -0.17356963248E+03 -0.10978706719E+04  0.11314558401E+04  0.00000000000E+00 0. -1.
         -3    1    3    3    0  502  0.94355943842E+02 -0.17028092970E+02 -0.40659500393E+03  0.41774692974E+03  0.00000000000E+00 0.  1.
         11    1    5    5    0    0  0.23155087744E+02  0.23366163088E+02 -0.23915841148E+02  0.40670666624E+02  0.00000000000E+00 0.  1.
        -11    1    5    5    0    0  0.56639771496E+02  0.43345873984E+03 -0.57689395234E+03  0.72381017891E+03  0.00000000000E+00 0. -1.
          2    1    6    6  503    0 -0.32341715484E+03 -0.23350025447E+03 -0.21376909583E+03  0.45256850445E+03  0.00000000000E+00 0. -1.
         -2    1    6    6    0  503 -0.62265888559E+02 -0.32726922999E+02 -0.81719063503E+02  0.10782438364E+03  0.00000000000E+00 0.  1.
<mgrwt>
<rscale>  0 0.15800790E+04</rscale>
<asrwt>0</asrwt>
<pdfrwt beam="1">  1        2 0.40575691E+00 0.15800790E+04</pdfrwt>
<pdfrwt beam="2">  1       -1 0.36408684E-01 0.15800790E+04</pdfrwt>
<totfact> 0.22936854E+01</totfact>
</mgrwt>
</event>
<event>
12    6  0.1529770E-007  0.1356147E+04  0.7818608E-02  0.8986188E-01
          2   -1    0    0  501    0  0.00000000000E+00  0.00000000000E+00  0.21017182753E+04  0.21017182753E+04  0.00000000000E+00 0. -1.
         -1   -1    0    0    0  501 -0.00000000000E+00 -0.00000000000E+00 -0.21876567669E+03  0.21876567669E+03  0.00000000000E+00 0.  1.
         24    2    1    2    0    0  0.67684091097E+02 -0.32170961228E+02 -0.10037852127E+03  0.14856453301E+03  0.79871559408E+02 0.  0.
        254    2    1    2    0    0 -0.67684091097E+02  0.32170961228E+02  0.19833311198E+04  0.21719194189E+04  0.88205188312E+03 0.  0.
         23    2    4    4    0    0  0.26710366748E+03  0.32474286356E+03  0.10168659687E+04  0.11041008442E+04  0.90664101716E+02 0.  0.
         23    2    4    4    0    0 -0.33478775857E+03 -0.29257190233E+03  0.96646515115E+03  0.10678185747E+04  0.92197932653E+02 0.  0.
          4    1    3    3  502    0 -0.13535655702E+02 -0.22723314916E+02 -0.15265145956E+02  0.30538298858E+02  0.00000000000E+00 0. -1.
         -3    1    3    3    0  502  0.81219746799E+02 -0.94476463120E+01 -0.85113375313E+02  0.11802623415E+03  0.00000000000E+00 0.  1.
         11    1    5    5    0    0  0.20615576077E+03  0.29059226850E+03  0.89979982294E+03  0.96777258981E+03  0.00000000000E+00 0.  1.
        -11    1    5    5    0    0  0.60947906703E+02  0.34150595057E+02  0.11706614574E+03  0.13632825442E+03  0.00000000000E+00 0. -1.
          4    1    6    6  503    0 -0.33322401799E+02 -0.26464720994E+02  0.17453550201E+03  0.17964800411E+03  0.00000000000E+00 0. -1.
         -4    1    6    6    0  503 -0.30146535678E+03 -0.26610718133E+03  0.79192964915E+03  0.88817057060E+03  0.00000000000E+00 0.  1.
<mgrwt>
<rscale>  0 0.13561472E+04</rscale>
<asrwt>0</asrwt>
<pdfrwt beam="1">  1        2 0.32334126E+00 0.13561472E+04</pdfrwt>
<pdfrwt beam="2">  1       -1 0.33656259E-01 0.13561472E+04</pdfrwt>
<totfact> 0.54335571E+01</totfact>
</mgrwt>
</event>
<event>
12    6  0.1529770E-007  0.1424060E+04  0.7818608E-02  0.8936585E-01
          2   -1    0    0  501    0  0.00000000000E+00  0.00000000000E+00  0.13386597568E+04  0.13386597568E+04  0.00000000000E+00 0. -1.
         -1   -1    0    0    0  501 -0.00000000000E+00 -0.00000000000E+00 -0.37872707858E+03  0.37872707858E+03  0.00000000000E+00 0.  1.
         24    2    1    2    0    0 -0.25279084899E+03  0.21161046178E+03  0.61274216790E+03  0.70036345787E+03  0.79836131732E+02 0.  0.
        254    2    1    2    0    0  0.25279084899E+03 -0.21161046178E+03  0.34719051034E+03  0.10170233775E+04  0.89728094771E+03 0.  0.
         23    2    4    4    0    0  0.37649274436E+03 -0.84242778438E+02 -0.19325818084E+03  0.44101069083E+03  0.91093757677E+02 0.  0.
         23    2    4    4    0    0 -0.12370189537E+03 -0.12736768334E+03  0.54044869118E+03  0.57601268671E+03  0.90449664343E+02 0.  0.
          2    1    3    3  502    0 -0.13067242386E+03  0.12567592326E+03  0.25662954555E+03  0.31421082682E+03  0.00000000000E+00 0. -1.
         -1    1    3    3    0  502 -0.12211842513E+03  0.85934538521E+02  0.35611262236E+03  0.38615263105E+03  0.00000000000E+00 0.  1.
         11    1    5    5    0    0  0.83684623328E+02 -0.97024647626E+01 -0.86007317909E+02  0.12039315902E+03  0.00000000000E+00 0.  1.
        -11    1    5    5    0    0  0.29280812103E+03 -0.74540313676E+02 -0.10725086293E+03  0.32061753181E+03  0.00000000000E+00 0. -1.
          4    1    6    6  503    0 -0.10596502914E+03 -0.11151555899E+03  0.52633031794E+03  0.54835017177E+03  0.00000000000E+00 0. -1.
         -4    1    6    6    0  503 -0.17736866230E+02 -0.15852124352E+02  0.14118373242E+02  0.27662514946E+02  0.00000000000E+00 0.  1.
<mgrwt>
<rscale>  0 0.14240600E+04</rscale>
<asrwt>0</asrwt>
<pdfrwt beam="1">  1        2 0.20594765E+00 0.14240600E+04</pdfrwt>
<pdfrwt beam="2">  1       -1 0.58265705E-01 0.14240600E+04</pdfrwt>
<totfact> 0.51882457E+01</totfact>
</mgrwt>
</event>
<event>
12    6  0.1529770E-007  0.2322207E+04  0.7818608E-02  0.8469216E-01
          2   -1    0    0  501    0  0.00000000000E+00  0.00000000000E+00  0.10943370738E+04  0.10943370738E+04  0.00000000000E+00 0. -1.
         -1   -1    0    0    0  501 -0.00000000000E+00 -0.00000000000E+00 -0.12319433967E+04  0.12319433967E+04  0.00000000000E+00 0.  1.
         24    2    1    2    0    0 -0.80038205661E+03 -0.38790341926E+03 -0.48101779398E+03  0.10143262655E+04  0.79994721763E+02 0.  0.
        254    2    1    2    0    0  0.80038205661E+03  0.38790341926E+03  0.34341147111E+03  0.13119542050E+04  0.90122799458E+03 0.  0.
         23    2    4    4    0    0  0.62689385343E+03  0.13816612935E+03  0.61454335583E+03  0.89345346119E+03  0.92248405634E+02 0.  0.
         23    2    4    4    0    0  0.17348820318E+03  0.24973728991E+03 -0.27113188472E+03  0.41850074377E+03  0.95726187684E+02 0.  0.
          2    1    3    3  502    0 -0.69305220561E+03 -0.30644362753E+03 -0.42032337495E+03  0.86654532258E+03  0.00000000000E+00 0. -1.
         -1    1    3    3    0  502 -0.10732985100E+03 -0.81459791736E+02 -0.60694419034E+02  0.14778094291E+03  0.00000000000E+00 0.  1.
         11    1    5    5    0    0  0.56820719524E+03  0.14117863955E+03  0.58509383068E+03  0.82772315159E+03  0.00000000000E+00 0.  1.
        -11    1    5    5    0    0  0.58686658194E+02 -0.30125102031E+01  0.29449525155E+02  0.65730309596E+02  0.00000000000E+00 0. -1.
          4    1    6    6  503    0  0.10941592544E+03  0.18096250314E+03 -0.12776958927E+03  0.24707152856E+03  0.00000000000E+00 0.  1.
         -4    1    6    6    0  503  0.64072277738E+02  0.68774786775E+02 -0.14336229546E+03  0.17142921522E+03  0.00000000000E+00 0. -1.
<mgrwt>
<rscale>  0 0.23222070E+04</rscale>
<asrwt>0</asrwt>
<pdfrwt beam="1">  1        2 0.16835955E+00 0.23222070E+04</pdfrwt>
<pdfrwt beam="2">  1       -1 0.18952975E+00 0.23222070E+04</pdfrwt>
<totfact> 0.40346337E+00</totfact>
</mgrwt>
</event>
<event>
12    6  0.1529770E-007  0.1687996E+04  0.7818608E-02  0.8768241E-01
         -1   -1    0    0    0  501 -0.00000000000E+00  0.00000000000E+00  0.32469086758E+03  0.32469086758E+03  0.00000000000E+00 0.  1.
          2   -1    0    0  501    0  0.00000000000E+00 -0.00000000000E+00 -0.21938787113E+04  0.21938787113E+04  0.00000000000E+00 0. -1.
         24    2    1    2    0    0 -0.26059326118E+03 -0.50056223468E+03 -0.37613874951E+03  0.68299398338E+03  0.80802375575E+02 0.  0.
        254    2    1    2    0    0  0.26059326118E+03  0.50056223468E+03 -0.14930490942E+04  0.18355755955E+04  0.90646057304E+03 0.  0.
         23    2    4    4    0    0  0.45924326217E+03  0.35068734613E+03 -0.14545913480E+04  0.15678298158E+04  0.91478702068E+02 0.  0.
         23    2    4    4    0    0 -0.19865000100E+03  0.14987488855E+03 -0.38457746162E+02  0.26774577968E+03  0.91019224251E+02 0.  0.
          4    1    3    3  502    0 -0.69087122109E+02 -0.13941357404E+03 -0.62173154707E+02  0.16755499465E+03  0.00000000000E+00 0. -1.
         -3    1    3    3    0  502 -0.19150613907E+03 -0.36114866064E+03 -0.31396559480E+03  0.51543898873E+03  0.00000000000E+00 0.  1.
         11    1    5    5    0    0  0.42895211380E+03  0.29177667266E+03 -0.12912195997E+04  0.13915392906E+04  0.00000000000E+00 0.  1.
        -11    1    5    5    0    0  0.30291148370E+02  0.58910673471E+02 -0.16337174830E+03  0.17629052516E+03  0.00000000000E+00 0. -1.
          4    1    6    6  503    0 -0.49032093318E+02  0.75262354804E+02 -0.44919660726E+02  0.10043079282E+03  0.00000000000E+00 0. -1.
         -4    1    6    6    0  503 -0.14961790768E+03  0.74612533750E+02  0.64619145643E+01  0.16731498687E+03  0.00000000000E+00 0.  1.
<mgrwt>
<rscale>  0 0.16879957E+04</rscale>
<asrwt>0</asrwt>
<pdfrwt beam="1">  1        2 0.33751980E+00 0.16879957E+04</pdfrwt>
<pdfrwt beam="2">  1       -1 0.49952442E-01 0.16879957E+04</pdfrwt>
<totfact> 0.22714476E+01</totfact>
</mgrwt>
</event>
<event>
12    6  0.2569430E-007  0.2298912E+04  0.7818608E-02  0.8478350E-01
         -1   -1    0    0    0  501 -0.00000000000E+00  0.00000000000E+00  0.11400449325E+04  0.11400449325E+04  0.00000000000E+00 0.  1.
          2   -1    0    0  501    0  0.00000000000E+00 -0.00000000000E+00 -0.11589446113E+04  0.11589446113E+04  0.00000000000E+00 0. -1.
         24    2    1    2    0    0  0.74023493537E+03 -0.42634604161E+03  0.49210065849E+03  0.98916496268E+03  0.81028134390E+02 0.  0.
        254    2    1    2    0    0 -0.74023493537E+03  0.42634604161E+03 -0.51100033729E+03  0.13098245812E+04  0.85135209046E+03 0.  0.
         23    2    4    4    0    0 -0.85673678473E+03  0.22636224134E+03 -0.56496558099E+03  0.10547497037E+04  0.89850136798E+02 0.  0.
         23    2    4    4    0    0  0.11650184936E+03  0.19998380027E+03  0.53965243704E+02  0.25507487748E+03  0.92653895317E+02 0.  0.
          2    1    3    3  502    0  0.82811990439E+02 -0.72820833818E+02  0.82499448435E+02  0.13772021852E+03  0.00000000000E+00 0. -1.
         -1    1    3    3    0  502  0.65742294493E+03 -0.35352520779E+03  0.40960121006E+03  0.85144474415E+03  0.00000000000E+00 0.  1.
         11    1    5    5    0    0 -0.24793350209E+03  0.10612056946E+03 -0.15625926789E+03  0.31168823450E+03  0.00000000000E+00 0. -1.
        -11    1    5    5    0    0 -0.60880328264E+03  0.12024167188E+03 -0.40870631310E+03  0.74306146917E+03  0.00000000000E+00 0.  1.
          3    1    6    6  503    0  0.11526949491E+03  0.19905013795E+03  0.68857303825E+02  0.24010277417E+03  0.00000000000E+00 0. -1.
         -3    1    6    6    0  503  0.12323544494E+01  0.93366232332E+00 -0.14892060122E+02  0.14972103309E+02  0.00000000000E+00 0.  1.
<mgrwt>
<rscale>  0 0.22989119E+04</rscale>
<asrwt>0</asrwt>
<pdfrwt beam="1">  1        2 0.17829917E+00 0.22989119E+04</pdfrwt>
<pdfrwt beam="2">  1       -1 0.17539153E+00 0.22989119E+04</pdfrwt>
<totfact> 0.46570779E+00</totfact>
</mgrwt>
</event>
<event>
12    6  0.1529770E-007  0.1774975E+04  0.7818608E-02  0.8719722E-01
         -1   -1    0    0    0  501 -0.00000000000E+00  0.00000000000E+00  0.95911536521E+03  0.95911536521E+03  0.00000000000E+00 0.  1.
          2   -1    0    0  501    0  0.00000000000E+00 -0.00000000000E+00 -0.82120917082E+03  0.82120917082E+03  0.00000000000E+00 0. -1.
         24    2    1    2    0    0  0.59240263102E+03 -0.27653462755E+03  0.18966312409E+03  0.68588886398E+03  0.84018781283E+02 0.  0.
        254    2    1    2    0    0 -0.59240263102E+03  0.27653462755E+03 -0.51756929703E+02  0.10944356720E+04  0.87618398924E+03 0.  0.
         23    2    4    4    0    0 -0.46641679905E+03 -0.21304992506E+03 -0.20237283856E+03  0.55876413318E+03  0.91256176463E+02 0.  0.
         23    2    4    4    0    0 -0.12598583197E+03  0.48958455261E+03  0.15061590885E+03  0.53567153887E+03  0.93238305105E+02 0.  0.
          4    1    3    3  502    0  0.46475303816E+03 -0.18207880272E+03  0.12599057893E+03  0.51480258630E+03  0.00000000000E+00 0. -1.
         -1    1    3    3    0  502  0.12764959286E+03 -0.94455824834E+02  0.63672545158E+02  0.17108627768E+03  0.00000000000E+00 0.  1.
         11    1    5    5    0    0 -0.25886898228E+03 -0.10542642897E+03 -0.15707082828E+03  0.32062302944E+03  0.00000000000E+00 0.  1.
        -11    1    5    5    0    0 -0.20754781678E+03 -0.10762349608E+03 -0.45302010280E+02  0.23814110375E+03  0.00000000000E+00 0. -1.
          1    1    6    6  503    0 -0.14395368077E+02  0.24944764608E+02 -0.11582237632E+02  0.31042166999E+02  0.00000000000E+00 0. -1.
         -1    1    6    6    0  503 -0.11159046390E+03  0.46463978800E+03  0.16219814649E+03  0.50462937187E+03  0.00000000000E+00 0.  1.
<mgrwt>
<rscale>  0 0.17749753E+04</rscale>
<asrwt>0</asrwt>
<pdfrwt beam="1">  1        2 0.12633987E+00 0.17749753E+04</pdfrwt>
<pdfrwt beam="2">  1       -1 0.14755621E+00 0.17749753E+04</pdfrwt>
<totfact> 0.13096576E+01</totfact>
</mgrwt>
</event>
<event>
12    6  0.1529770E-007  0.1671506E+04  0.7818608E-02  0.8777785E-01
         -1   -1    0    0    0  501 -0.00000000000E+00  0.00000000000E+00  0.29747020995E+03  0.29747020995E+03  0.00000000000E+00 0.  1.
          2   -1    0    0  501    0  0.00000000000E+00 -0.00000000000E+00 -0.23480764560E+04  0.23480764560E+04  0.00000000000E+00 0. -1.
         24    2    1    2    0    0  0.12305505911E+03  0.14953472995E+03 -0.16031774617E+04  0.16168352202E+04  0.80467215197E+02 0.  0.
        254    2    1    2    0    0 -0.12305505911E+03 -0.14953472995E+03 -0.44742878444E+03  0.10287114458E+04  0.90584299881E+03 0.  0.
         23    2    4    4    0    0  0.13831588704E+03  0.15854605224E+03 -0.55528954921E+03  0.60079627256E+03  0.91332044536E+02 0.  0.
         23    2    4    4    0    0 -0.26137094615E+03 -0.30808078219E+03  0.10786076477E+03  0.42791517323E+03  0.90823515959E+02 0.  0.
          2    1    3    3  502    0  0.11011282030E+03  0.13107080389E+03 -0.15447769856E+04  0.15542330341E+04  0.00000000000E+00 0. -1.
         -3    1    3    3    0  502  0.12942238813E+02  0.18463926059E+02 -0.58400476014E+02  0.62602186141E+02  0.00000000000E+00 0.  1.
         11    1    5    5    0    0  0.79518636104E+02  0.15020500539E+03 -0.41550094507E+03  0.44891624217E+03  0.00000000000E+00 0.  1.
        -11    1    5    5    0    0  0.58797250939E+02  0.83410468549E+01 -0.13978860414E+03  0.15188003038E+03  0.00000000000E+00 0. -1.
          3    1    6    6  503    0 -0.10035052863E+03 -0.57635145813E+02  0.40873979511E+02  0.12273027674E+03  0.00000000000E+00 0. -1.
         -3    1    6    6    0  503 -0.16102041753E+03 -0.25044563638E+03  0.66986785261E+02  0.30518489648E+03  0.00000000000E+00 0.  1.
<mgrwt>
<rscale>  0 0.16715057E+04</rscale>
<asrwt>0</asrwt>
<pdfrwt beam="1">  1        2 0.36124252E+00 0.16715057E+04</pdfrwt>
<pdfrwt beam="2">  1       -1 0.45764649E-01 0.16715057E+04</pdfrwt>
<totfact> 0.21961548E+01</totfact>
</mgrwt>
</event>
<event>
12    6  0.1529770E-007  0.4065079E+04  0.7818608E-02  0.7991545E-01
         -1   -1    0    0    0  501 -0.00000000000E+00  0.00000000000E+00  0.15015512618E+04  0.15015512618E+04  0.00000000000E+00 0.  1.
          2   -1    0    0  501    0  0.00000000000E+00 -0.00000000000E+00 -0.27512989815E+04  0.27512989815E+04  0.00000000000E+00 0. -1.
         24    2    1    2    0    0  0.92415980360E+03  0.12138993589E+04 -0.18348423906E+04  0.23873776814E+04  0.72818947799E+02 0.  0.
        254    2    1    2    0    0 -0.92415980360E+03 -0.12138993589E+04  0.58509467087E+03  0.18654725619E+04  0.90001617168E+03 0.  0.
         23    2    4    4    0    0 -0.82963218448E+03 -0.46795771050E+03  0.55804667844E+03  0.11077453575E+04  0.91704424485E+02 0.  0.
         23    2    4    4    0    0 -0.94527619122E+02 -0.74594164836E+03  0.27047992429E+02  0.75772720437E+03  0.89746915348E+02 0.  0.
          4    1    3    3  502    0  0.75755269576E+03  0.10345640902E+04 -0.15219329419E+04  0.19900976919E+04  0.00000000000E+00 0. -1.
         -3    1    3    3    0  502  0.16660710784E+03  0.17933526867E+03 -0.31290944874E+03  0.39727998953E+03  0.00000000000E+00 0.  1.
         11    1    5    5    0    0 -0.17876536454E+03 -0.60440061537E+02  0.12102285233E+03  0.22417981039E+03  0.00000000000E+00 0.  1.
        -11    1    5    5    0    0 -0.65086681994E+03 -0.40751764897E+03  0.43702382611E+03  0.88356554714E+03  0.00000000000E+00 0. -1.
          2    1    6    6  503    0 -0.54780016821E+01 -0.33496945693E+03 -0.13363568844E+02  0.33528067429E+03  0.00000000000E+00 0.  1.
         -2    1    6    6    0  503 -0.89049617440E+02 -0.41097219143E+03  0.40411561274E+02  0.42244653008E+03  0.00000000000E+00 0. -1.
<mgrwt>
<rscale>  0 0.40650788E+04</rscale>
<asrwt>0</asrwt>
<pdfrwt beam="1">  1        2 0.42327677E+00 0.40650788E+04</pdfrwt>
<pdfrwt beam="2">  1       -1 0.23100789E+00 0.40650788E+04</pdfrwt>
<totfact> 0.20501007E-01</totfact>
</mgrwt>
</event>
<event>
12    6  0.1529770E-007  0.3214639E+04  0.7818608E-02  0.8184962E-01
          2   -1    0    0  501    0  0.00000000000E+00  0.00000000000E+00  0.17919886295E+04  0.17919886295E+04  0.00000000000E+00 0. -1.
         -1   -1    0    0    0  501 -0.00000000000E+00 -0.00000000000E+00 -0.14416812632E+04  0.14416812632E+04  0.00000000000E+00 0.  1.
         24    2    1    2    0    0 -0.66236383384E+03  0.85980290464E+03  0.11497830303E+04  0.15836858129E+04  0.89849062124E+02 0.  0.
        254    2    1    2    0    0  0.66236383384E+03 -0.85980290464E+03 -0.79947566409E+03  0.16499840798E+04  0.95147214507E+03 0.  0.
         23    2    4    4    0    0  0.45193832398E+03 -0.10409543934E+04 -0.71885145463E+03  0.13464160193E+04  0.90853647785E+02 0.  0.
         23    2    4    4    0    0  0.21042550986E+03  0.18115148878E+03 -0.80624209458E+02  0.30356806048E+03  0.92512415954E+02 0.  0.
          2    1    3    3  502    0 -0.63780822641E+03  0.82747662623E+03  0.10778740571E+04  0.15011093843E+04  0.00000000000E+00 0. -1.
         -1    1    3    3    0  502 -0.24555607435E+02  0.32326278404E+02  0.71908973238E+02  0.82576428623E+02  0.00000000000E+00 0.  1.
         11    1    5    5    0    0  0.12299511894E+03 -0.37708449420E+03 -0.27670900378E+03  0.48362008624E+03  0.00000000000E+00 0. -1.
        -11    1    5    5    0    0  0.32894320504E+03 -0.66386989923E+03 -0.44214245085E+03  0.86279593305E+03  0.00000000000E+00 0.  1.
          2    1    6    6  503    0  0.48209718229E+02  0.82367607970E+02 -0.59507030733E+02  0.11247082502E+03  0.00000000000E+00 0.  1.
         -2    1    6    6    0  503  0.16221579163E+03  0.98783880815E+02 -0.21117178725E+02  0.19109723546E+03  0.00000000000E+00 0. -1.
<mgrwt>
<rscale>  0 0.32146393E+04</rscale>
<asrwt>0</asrwt>
<pdfrwt beam="1">  1        2 0.27569056E+00 0.32146393E+04</pdfrwt>
<pdfrwt beam="2">  1       -1 0.22179712E+00 0.32146393E+04</pdfrwt>
<totfact> 0.89309793E-01</totfact>
</mgrwt>
</event>
<event>
12    6  0.1529770E-007  0.1833041E+04  0.7818608E-02  0.8688924E-01
          2   -1    0    0  501    0  0.00000000000E+00  0.00000000000E+00  0.11885110085E+04  0.11885110085E+04  0.00000000000E+00 0. -1.
         -1   -1    0    0    0  501 -0.00000000000E+00 -0.00000000000E+00 -0.70677472451E+03  0.70677472451E+03  0.00000000000E+00 0.  1.
         24    2    1    2    0    0  0.48929483249E+02  0.51796720756E+03  0.65426800873E+03  0.83978459035E+03  0.80544450447E+02 0.  0.
        254    2    1    2    0    0 -0.48929483249E+02 -0.51796720756E+03 -0.17253172477E+03  0.10555011426E+04  0.90201515707E+03 0.  0.
         23    2    4    4    0    0 -0.21616965165E+03 -0.17391522459E+02 -0.40758770282E+03  0.47067814934E+03  0.91533608194E+02 0.  0.
         23    2    4    4    0    0  0.16724016840E+03 -0.50057568510E+03  0.23505597805E+03  0.58482299329E+03  0.90671551297E+02 0.  0.
          2    1    3    3  502    0  0.35308428238E+02  0.42693919115E+03  0.58250113708E+03  0.72307076606E+03  0.00000000000E+00 0. -1.
         -1    1    3    3    0  502  0.13621055010E+02  0.91028016415E+02  0.71766871657E+02  0.11671382429E+03  0.00000000000E+00 0.  1.
         11    1    5    5    0    0 -0.11984656234E+03  0.17525076655E+02 -0.14574775503E+03  0.18950655638E+03  0.00000000000E+00 0.  1.
        -11    1    5    5    0    0 -0.96323089316E+02 -0.34916599114E+02 -0.26183994779E+03  0.28117159296E+03  0.00000000000E+00 0. -1.
          1    1    6    6  503    0  0.45738400705E+01 -0.18517614398E+02  0.31550081505E+02  0.36867732490E+02  0.00000000000E+00 0. -1.
         -1    1    6    6    0  503  0.16266632833E+03 -0.48205807071E+03  0.20350589654E+03  0.54795526080E+03  0.00000000000E+00 0.  1.
<mgrwt>
<rscale>  0 0.18330407E+04</rscale>
<asrwt>0</asrwt>
<pdfrwt beam="1">  1        2 0.18284785E+00 0.18330407E+04</pdfrwt>
<pdfrwt beam="2">  1       -1 0.10873457E+00 0.18330407E+04</pdfrwt>
<totfact> 0.16207111E+01</totfact>
</mgrwt>
</event>
<event>
12    6  0.1529770E-007  0.2131405E+04  0.7818608E-02  0.8547534E-01
          2   -1    0    0  501    0  0.00000000000E+00  0.00000000000E+00  0.21493674585E+04  0.21493674585E+04  0.00000000000E+00 0. -1.
         -1   -1    0    0    0  501 -0.00000000000E+00 -0.00000000000E+00 -0.52839829163E+03  0.52839829163E+03  0.00000000000E+00 0.  1.
         24    2    1    2    0    0  0.62089229293E+03 -0.33740146241E+03  0.13109316985E+04  0.14915984654E+04  0.83528902479E+02 0.  0.
        254    2    1    2    0    0 -0.62089229293E+03  0.33740146241E+03  0.31003746840E+03  0.11861672848E+04  0.90084549696E+03 0.  0.
         23    2    4    4    0    0 -0.66709565621E+03 -0.10140040064E+03  0.27269977649E+03  0.73395742742E+03  0.95024635687E+02 0.  0.
         23    2    4    4    0    0  0.46203363277E+02  0.43880186305E+03  0.37337691913E+02  0.45220985735E+03  0.91748711479E+02 0.  0.
          4    1    3    3  502    0  0.51956113869E+03 -0.24546009774E+03  0.10691885990E+04  0.12138198782E+04  0.00000000000E+00 0. -1.
         -3    1    3    3    0  502  0.10133115424E+03 -0.91941364666E+02  0.24174309953E+03  0.27777858723E+03  0.00000000000E+00 0.  1.
         11    1    5    5    0    0 -0.58922760958E+03 -0.10364138094E+03  0.26900851716E+03  0.65596973561E+03  0.00000000000E+00 0. -1.
        -11    1    5    5    0    0 -0.77868046628E+02  0.22409802965E+01  0.36912593300E+01  0.77987691810E+02  0.00000000000E+00 0.  1.
          3    1    6    6  503    0  0.19374741831E+02  0.41294635814E+03  0.33634647971E+02  0.41476663904E+03  0.00000000000E+00 0. -1.
         -3    1    6    6    0  503  0.26828621447E+02  0.25855504909E+02  0.37030439420E+01  0.37443218308E+02  0.00000000000E+00 0.  1.
<mgrwt>
<rscale>  0 0.21314053E+04</rscale>
<asrwt>0</asrwt>
<pdfrwt beam="1">  1        2 0.33067191E+00 0.21314053E+04</pdfrwt>
<pdfrwt beam="2">  1       -1 0.81292046E-01 0.21314053E+04</pdfrwt>
<totfact> 0.86946803E+00</totfact>
</mgrwt>
</event>
<event>
12    6  0.1529770E-007  0.1385017E+04  0.7818608E-02  0.8964736E-01
          2   -1    0    0  501    0  0.00000000000E+00  0.00000000000E+00  0.35153099759E+03  0.35153099759E+03  0.00000000000E+00 0. -1.
         -3   -1    0    0    0  501 -0.00000000000E+00 -0.00000000000E+00 -0.13642267415E+04  0.13642267415E+04  0.00000000000E+00 0.  1.
         24    2    1    2    0    0  0.59293343694E+02  0.31564009425E+02  0.19570705866E+03  0.22145183113E+03  0.78915609383E+02 0.  0.
        254    2    1    2    0    0 -0.59293343694E+02 -0.31564009425E+02 -0.12084028026E+04  0.14943059080E+04  0.87647066467E+03 0.  0.
         23    2    4    4    0    0 -0.50589906510E+02 -0.43443987472E+03 -0.78280097351E+03  0.90139570692E+03  0.91866821840E+02 0.  0.
         23    2    4    4    0    0 -0.87034371844E+01  0.40287586529E+03 -0.42560182911E+03  0.59291020108E+03  0.89559348738E+02 0.  0.
          2    1    3    3  502    0  0.43218879365E+02  0.49433194408E+02  0.18266026027E+03  0.19410379421E+03  0.00000000000E+00 0. -1.
         -1    1    3    3    0  502  0.16074464330E+02 -0.17869184983E+02  0.13046798390E+02  0.27348036925E+02  0.00000000000E+00 0.  1.
         11    1    5    5    0    0 -0.54963290514E+02 -0.41024061722E+03 -0.68316176848E+03  0.79876675521E+03  0.00000000000E+00 0. -1.
        -11    1    5    5    0    0  0.43733840042E+01 -0.24199257497E+02 -0.99639205029E+02  0.10262895171E+03  0.00000000000E+00 0.  1.
          4    1    6    6  503    0 -0.17516832366E+02  0.40212042772E+03 -0.42250177305E+03  0.58353699628E+03  0.00000000000E+00 0. -1.
         -4    1    6    6    0  503  0.88133951818E+01  0.75543757761E+00 -0.31000560645E+01  0.93732047970E+01  0.00000000000E+00 0.  1.
<mgrwt>
<rscale>  0 0.13850169E+04</rscale>
<asrwt>0</asrwt>
<pdfrwt beam="1">  1        2 0.54081692E-01 0.13850169E+04</pdfrwt>
<pdfrwt beam="2">  1       -3 0.20988104E+00 0.13850169E+04</pdfrwt>
<totfact> 0.70992046E+00</totfact>
</mgrwt>
</event>
<event>
12    6  0.1529770E-007  0.1879645E+04  0.7818608E-02  0.8665055E-01
          2   -1    0    0  501    0  0.00000000000E+00  0.00000000000E+00  0.45500973463E+03  0.45500973463E+03  0.00000000000E+00 0. -1.
         -1   -1    0    0    0  501 -0.00000000000E+00 -0.00000000000E+00 -0.19412041275E+04  0.19412041275E+04  0.00000000000E+00 0.  1.
         24    2    1    2    0    0  0.20415984398E+03 -0.53732558873E+02  0.30477874733E+03  0.37932473092E+03  0.80179404399E+02 0.  0.
        254    2    1    2    0    0 -0.20415984398E+03  0.53732558873E+02 -0.17909731402E+04  0.20168891312E+04  0.90315477573E+03 0.  0.
         23    2    4    4    0    0 -0.21333102019E+03  0.41001218224E+03 -0.14060297345E+04  0.14828830808E+04  0.91665168083E+02 0.  0.
         23    2    4    4    0    0  0.91711762126E+01 -0.35627962337E+03 -0.38494340566E+03  0.53400605046E+03  0.99808596110E+02 0.  0.
          2    1    3    3  502    0  0.13331298314E+03 -0.29295266722E+01  0.22280189712E+03  0.25965673293E+03  0.00000000000E+00 0. -1.
         -1    1    3    3    0  502  0.70846860841E+02 -0.50803032201E+02  0.81976850216E+02  0.11966799799E+03  0.00000000000E+00 0.  1.
         11    1    5    5    0    0 -0.70352095091E+02  0.22816018779E+03 -0.66337104578E+03  0.70503023549E+03  0.00000000000E+00 0. -1.
        -11    1    5    5    0    0 -0.14297892510E+03  0.18185199446E+03 -0.74265868876E+03  0.77785284527E+03  0.00000000000E+00 0.  1.
          4    1    6    6  503    0 -0.22032228458E+01  0.14746579862E+01  0.43980282122E+01  0.51353149114E+01  0.00000000000E+00 0. -1.
         -4    1    6    6    0  503  0.11374399058E+02 -0.35775428136E+03 -0.38934143388E+03  0.52887073554E+03  0.00000000000E+00 0.  1.
<mgrwt>
<rscale>  0 0.18796455E+04</rscale>
<asrwt>0</asrwt>
<pdfrwt beam="1">  1        2 0.70001496E-01 0.18796455E+04</pdfrwt>
<pdfrwt beam="2">  1       -1 0.29864680E+00 0.18796455E+04</pdfrwt>
<totfact> 0.24832369E+00</totfact>
</mgrwt>
</event>
<event>
12    6  0.1529770E-007  0.1367188E+04  0.7818608E-02  0.8977918E-01
          2   -1    0    0  501    0  0.00000000000E+00  0.00000000000E+00  0.19197983132E+04  0.19197983132E+04  0.00000000000E+00 0. -1.
         -1   -1    0    0    0  501 -0.00000000000E+00 -0.00000000000E+00 -0.24341122826E+03  0.24341122826E+03  0.00000000000E+00 0.  1.
         24    2    1    2    0    0 -0.36572653228E+03 -0.60349376131E+02  0.34287756079E+03  0.51130777909E+03  0.80452965422E+02 0.  0.
        254    2    1    2    0    0  0.36572653228E+03  0.60349376131E+02  0.13335095241E+04  0.16519017623E+04  0.90173934031E+03 0.  0.
         23    2    4    4    0    0  0.78609648171E+02 -0.27896970008E+02 -0.11536589468E+03  0.16935954997E+03  0.91736850783E+02 0.  0.
         23    2    4    4    0    0  0.28711688411E+03  0.88246346139E+02  0.14488754188E+04  0.14825422124E+04  0.92021244765E+02 0.  0.
          4    1    3    3  502    0 -0.35361987730E+03 -0.44698958432E+02  0.30737526833E+03  0.47066396727E+03  0.00000000000E+00 0. -1.
         -3    1    3    3    0  502 -0.12106654988E+02 -0.15650417699E+02  0.35502292462E+02  0.40643811819E+02  0.00000000000E+00 0.  1.
         11    1    5    5    0    0  0.59978679410E+02  0.44754158273E+01 -0.11744596505E+03  0.13195084705E+03  0.00000000000E+00 0.  1.
        -11    1    5    5    0    0  0.18630968761E+02 -0.32372385835E+02  0.20800703747E+01  0.37408702923E+02  0.00000000000E+00 0. -1.
          4    1    6    6  503    0  0.58845192471E+02  0.60095402690E+02  0.37724002078E+03  0.38650258393E+03  0.00000000000E+00 0. -1.
         -4    1    6    6    0  503  0.22827169164E+03  0.28150943449E+02  0.10716353980E+04  0.10960396284E+04  0.00000000000E+00 0.  1.
<mgrwt>
<rscale>  0 0.13671876E+04</rscale>
<asrwt>0</asrwt>
<pdfrwt beam="1">  1        2 0.29535358E+00 0.13671876E+04</pdfrwt>
<pdfrwt beam="2">  1       -1 0.37447883E-01 0.13671876E+04</pdfrwt>
<totfact> 0.56539707E+01</totfact>
</mgrwt>
</event>
<event>
12    6  0.1529770E-007  0.1734120E+04  0.7818608E-02  0.8742140E-01
         -1   -1    0    0    0  501 -0.00000000000E+00  0.00000000000E+00  0.27074298024E+03  0.27074298024E+03  0.00000000000E+00 0.  1.
          2   -1    0    0  501    0  0.00000000000E+00 -0.00000000000E+00 -0.27767782465E+04  0.27767782465E+04  0.00000000000E+00 0. -1.
         24    2    1    2    0    0 -0.13066781366E+03 -0.31966574069E+03 -0.15208607493E+04  0.15616338633E+04  0.80141380748E+02 0.  0.
        254    2    1    2    0    0  0.13066781366E+03  0.31966574069E+03 -0.98517451692E+03  0.14858873634E+04  0.10573704009E+04 0.  0.
         23    2    4    4    0    0 -0.12828895484E+02 -0.36767831728E+03 -0.50114483889E+03  0.62803011848E+03  0.89015474016E+02 0.  0.
         23    2    4    4    0    0  0.14349670915E+03  0.68734405797E+03 -0.48402967803E+03  0.85785724493E+03  0.92742460116E+02 0.  0.
          2    1    3    3  502    0 -0.11393752881E+03 -0.31618641583E+03 -0.14124889741E+04  0.14519231082E+04  0.00000000000E+00 0. -1.
         -1    1    3    3    0  502 -0.16730284853E+02 -0.34793248577E+01 -0.10837177522E+03  0.10971075516E+03  0.00000000000E+00 0.  1.
         11    1    5    5    0    0 -0.37157444945E+02 -0.84003365586E+02 -0.15092802443E+03  0.17668194504E+03  0.00000000000E+00 0.  1.
        -11    1    5    5    0    0  0.24328549461E+02 -0.28367495169E+03 -0.35021681446E+03  0.45134817344E+03  0.00000000000E+00 0. -1.
          3    1    6    6  503    0  0.83325987211E+02  0.56306587596E+03 -0.37118060171E+03  0.67953030830E+03  0.00000000000E+00 0. -1.
         -3    1    6    6    0  503  0.60170721936E+02  0.12427818201E+03 -0.11284907632E+03  0.17832693663E+03  0.00000000000E+00 0.  1.
<mgrwt>
<rscale>  0 0.17341202E+04</rscale>
<asrwt>0</asrwt>
<pdfrwt beam="1">  1        2 0.42719663E+00 0.17341202E+04</pdfrwt>
<pdfrwt beam="2">  1       -1 0.41652768E-01 0.17341202E+04</pdfrwt>
<totfact> 0.14633724E+01</totfact>
</mgrwt>
</event>
<event>
12    6  0.1529770E-007  0.2814035E+04  0.7818608E-02  0.8298924E-01
          2   -1    0    0  501    0  0.00000000000E+00  0.00000000000E+00  0.80259750192E+03  0.80259750192E+03  0.00000000000E+00 0. -1.
         -1   -1    0    0    0  501 -0.00000000000E+00 -0.00000000000E+00 -0.24666132431E+04  0.24666132431E+04  0.00000000000E+00 0.  1.
         24    2    1    2    0    0  0.38834822679E+02  0.10324344696E+02 -0.22106665535E+04  0.22124297771E+04  0.78639509072E+02 0.  0.
        254    2    1    2    0    0 -0.38834822679E+02 -0.10324344696E+02  0.54665081233E+03  0.10567809679E+04  0.90351766330E+03 0.  0.
         23    2    4    4    0    0 -0.16178940265E+03  0.40838605018E+03  0.19743448591E+03  0.49106092466E+03  0.95945185937E+02 0.  0.
         23    2    4    4    0    0  0.12295457998E+03 -0.41871039488E+03  0.34921632643E+03  0.56572004322E+03  0.87469429758E+02 0.  0.
          2    1    3    3  502    0 -0.16934144674E+01 -0.30264855381E+02 -0.64266476480E+03  0.64337922645E+03  0.00000000000E+00 0. -1.
         -1    1    3    3    0  502  0.40528237146E+02  0.40589200078E+02 -0.15680017887E+04  0.15690505507E+04  0.00000000000E+00 0.  1.
         11    1    5    5    0    0 -0.64149508335E+02  0.60094976611E+02  0.37858169483E+02  0.95706878698E+02  0.00000000000E+00 0.  1.
        -11    1    5    5    0    0 -0.97639894319E+02  0.34829107357E+03  0.15957631642E+03  0.39535404596E+03  0.00000000000E+00 0. -1.
          4    1    6    6  503    0  0.11902429126E+03 -0.37435293760E+03  0.27622035077E+03  0.48021306311E+03  0.00000000000E+00 0. -1.
         -4    1    6    6    0  503  0.39302887151E+01 -0.44357457275E+02  0.72995975660E+02  0.85506980112E+02  0.00000000000E+00 0.  1.
<mgrwt>
<rscale>  0 0.28140346E+04</rscale>
<asrwt>0</asrwt>
<pdfrwt beam="1">  1        2 0.12347654E+00 0.28140346E+04</pdfrwt>
<pdfrwt beam="2">  1       -1 0.37947896E+00 0.28140346E+04</pdfrwt>
<totfact> 0.33515130E-01</totfact>
</mgrwt>
</event>
<event>
12    6  0.1529770E-007  0.2402188E+04  0.7818608E-02  0.8438685E-01
          2   -1    0    0  501    0  0.00000000000E+00  0.00000000000E+00  0.29444959271E+04  0.29444959271E+04  0.00000000000E+00 0. -1.
         -1   -1    0    0    0  501 -0.00000000000E+00 -0.00000000000E+00 -0.48994001980E+03  0.48994001980E+03  0.00000000000E+00 0.  1.
         24    2    1    2    0    0 -0.70060169780E+03 -0.41208368901E+03  0.19640372784E+04  0.21271117764E+04  0.80662089514E+02 0.  0.
        254    2    1    2    0    0  0.70060169780E+03  0.41208368901E+03  0.49051862895E+03  0.13073241705E+04  0.89879489086E+03 0.  0.
         23    2    4    4    0    0  0.26759273044E+03  0.41282018756E+03  0.66498682922E+03  0.83170642059E+03  0.86612414728E+02 0.  0.
         23    2    4    4    0    0  0.43300896736E+03 -0.73649854592E+00 -0.17446820026E+03  0.47561774995E+03  0.90971330237E+02 0.  0.
          2    1    3    3  502    0 -0.45715956204E+03 -0.25893445187E+03  0.11686179118E+04  0.12812922146E+04  0.00000000000E+00 0. -1.
         -1    1    3    3    0  502 -0.24344213576E+03 -0.15314923715E+03  0.79541936660E+03  0.84581956177E+03  0.00000000000E+00 0.  1.
         11    1    5    5    0    0  0.44556542103E+02  0.12259137027E+03  0.13611061616E+03  0.18852063373E+03  0.00000000000E+00 0.  1.
        -11    1    5    5    0    0  0.22303618834E+03  0.29022881729E+03  0.52887621305E+03  0.64318578687E+03  0.00000000000E+00 0. -1.
          3    1    6    6  503    0  0.21874394230E+03  0.52646902686E+01 -0.13660925222E+03  0.25795099738E+03  0.00000000000E+00 0. -1.
         -3    1    6    6    0  503  0.21426502506E+03 -0.60011888145E+01 -0.37858948048E+02  0.21766675258E+03  0.00000000000E+00 0.  1.
<mgrwt>
<rscale>  0 0.24021877E+04</rscale>
<asrwt>0</asrwt>
<pdfrwt beam="1">  1        2 0.45299936E+00 0.24021877E+04</pdfrwt>
<pdfrwt beam="2">  1       -1 0.75375390E-01 0.24021877E+04</pdfrwt>
<totfact> 0.34131648E+00</totfact>
</mgrwt>
</event>
<event>
12    6  0.1529770E-007  0.1486162E+04  0.7818608E-02  0.8893707E-01
         -1   -1    0    0    0  501 -0.00000000000E+00  0.00000000000E+00  0.43591055292E+03  0.43591055292E+03  0.00000000000E+00 0.  1.
          2   -1    0    0  501    0  0.00000000000E+00 -0.00000000000E+00 -0.12667037930E+04  0.12667037930E+04  0.00000000000E+00 0. -1.
         24    2    1    2    0    0 -0.28415249646E+03  0.12292276090E+03  0.13643635852E+03  0.34754868481E+03  0.79514539505E+02 0.  0.
        254    2    1    2    0    0  0.28415249646E+03 -0.12292276090E+03 -0.96722959858E+03  0.13550656611E+04  0.89711604772E+03 0.  0.
         23    2    4    4    0    0 -0.14715798987E+03  0.25297149213E+03 -0.58654402693E+03  0.66193190266E+03  0.92032051046E+02 0.  0.
         23    2    4    4    0    0  0.43131048633E+03 -0.37589425303E+03 -0.38068557165E+03  0.69313375842E+03  0.90485786295E+02 0.  0.
          4    1    3    3  502    0 -0.46278585619E+01  0.15837725647E+02  0.21046599070E+02  0.26743409674E+02  0.00000000000E+00 0. -1.
         -3    1    3    3    0  502 -0.27952463790E+03  0.10708503525E+03  0.11538975945E+03  0.32080527513E+03  0.00000000000E+00 0.  1.
         11    1    5    5    0    0 -0.39286363017E+02  0.10075628151E+02 -0.66000997709E+02  0.77466562466E+02  0.00000000000E+00 0. -1.
        -11    1    5    5    0    0 -0.10787162685E+03  0.24289586398E+03 -0.52054302922E+03  0.58446534020E+03  0.00000000000E+00 0.  1.
          4    1    6    6  503    0  0.35534625183E+03 -0.28378069636E+03 -0.33693154870E+03  0.56597288877E+03  0.00000000000E+00 0.  1.
         -4    1    6    6    0  503  0.75964234492E+02 -0.92113556669E+02 -0.43754022951E+02  0.12716086964E+03  0.00000000000E+00 0. -1.
<mgrwt>
<rscale>  0 0.14861622E+04</rscale>
<asrwt>0</asrwt>
<pdfrwt beam="1">  1        2 0.19487750E+00 0.14861622E+04</pdfrwt>
<pdfrwt beam="2">  1       -1 0.67063163E-01 0.14861622E+04</pdfrwt>
<totfact> 0.42944880E+01</totfact>
</mgrwt>
</event>
<event>
12    6  0.1529770E-007  0.2189142E+04  0.7818608E-02  0.8522961E-01
         -1   -1    0    0    0  501 -0.00000000000E+00  0.00000000000E+00  0.10077401426E+04  0.10077401426E+04  0.00000000000E+00 0.  1.
          2   -1    0    0  501    0  0.00000000000E+00 -0.00000000000E+00 -0.11888838355E+04  0.11888838355E+04  0.00000000000E+00 0. -1.
         24    2    1    2    0    0 -0.45335121893E+03 -0.59774669503E+03  0.43609663570E+03  0.87151277368E+03  0.80782423107E+02 0.  0.
        254    2    1    2    0    0  0.45335121893E+03  0.59774669503E+03 -0.61724032855E+03  0.13251112045E+04  0.90116904178E+03 0.  0.
         23    2    4    4    0    0  0.36776665328E+03  0.75555198282E+03 -0.70996995202E+03  0.11038404158E+04  0.91078102222E+02 0.  0.
         23    2    4    4    0    0  0.85584565657E+02 -0.15780528779E+03  0.92729623476E+02  0.22127078869E+03  0.90192860709E+02 0.  0.
          4    1    3    3  502    0 -0.26854967171E+03 -0.38061305002E+03  0.22867854635E+03  0.51892108994E+03  0.00000000000E+00 0. -1.
         -3    1    3    3    0  502 -0.18480154722E+03 -0.21713364501E+03  0.20741808935E+03  0.35259168374E+03  0.00000000000E+00 0.  1.
         11    1    5    5    0    0  0.18932014899E+03  0.36663191471E+03 -0.29052526874E+03  0.50464444065E+03  0.00000000000E+00 0. -1.
        -11    1    5    5    0    0  0.17844650429E+03  0.38892006811E+03 -0.41944468328E+03  0.59919597512E+03  0.00000000000E+00 0.  1.
          1    1    6    6  503    0 -0.14691291668E+02 -0.20227258862E+02 -0.42258369756E+01  0.25354166325E+02  0.00000000000E+00 0. -1.
         -1    1    6    6    0  503  0.10027585732E+03 -0.13757802893E+03  0.96955460451E+02  0.19591662236E+03  0.00000000000E+00 0.  1.
<mgrwt>
<rscale>  0 0.21891423E+04</rscale>
<asrwt>0</asrwt>
<pdfrwt beam="1">  1        2 0.18290521E+00 0.21891423E+04</pdfrwt>
<pdfrwt beam="2">  1       -1 0.15503694E+00 0.21891423E+04</pdfrwt>
<totfact> 0.63978405E+00</totfact>
</mgrwt>
</event>
<event>
12    6  0.1529770E-007  0.1583593E+04  0.7818608E-02  0.8830692E-01
          2   -1    0    0  501    0  0.00000000000E+00  0.00000000000E+00  0.10511740617E+04  0.10511740617E+04  0.00000000000E+00 0. -1.
         -1   -1    0    0    0  501 -0.00000000000E+00 -0.00000000000E+00 -0.59642007680E+03  0.59642007680E+03  0.00000000000E+00 0.  1.
         24    2    1    2    0    0 -0.97585134261E+01 -0.15818676369E+02  0.70892275240E+03  0.71350087378E+03  0.78527504119E+02 0.  0.
        254    2    1    2    0    0  0.97585134261E+01  0.15818676369E+02 -0.25416876746E+03  0.93409326477E+03  0.89865622227E+03 0.  0.
         23    2    4    4    0    0 -0.27185879012E+03 -0.29963790455E+02  0.22735808237E+03  0.36697383073E+03  0.90405001623E+02 0.  0.
         23    2    4    4    0    0  0.28161730355E+03  0.45782466824E+02 -0.48152684983E+03  0.56711943404E+03  0.91389306995E+02 0.  0.
          4    1    3    3  502    0 -0.19602562015E+02  0.24608041316E+02  0.46430743688E+03  0.46537212216E+03  0.00000000000E+00 0. -1.
         -3    1    3    3    0  502  0.98440485887E+01 -0.40426717685E+02  0.24461531552E+03  0.24812875162E+03  0.00000000000E+00 0.  1.
         11    1    5    5    0    0 -0.37894692048E+02  0.27453967363E+02  0.30413032798E+02  0.55809323355E+02  0.00000000000E+00 0.  1.
        -11    1    5    5    0    0 -0.23396409807E+03 -0.57417757818E+02  0.19694504957E+03  0.31116450738E+03  0.00000000000E+00 0. -1.
          4    1    6    6  503    0 -0.31912746742E+01  0.59940420421E+01 -0.37449169334E+02  0.38059861506E+02  0.00000000000E+00 0. -1.
         -4    1    6    6    0  503  0.28480857822E+03  0.39788424782E+02 -0.44407768050E+03  0.52905957253E+03  0.00000000000E+00 0.  1.
<mgrwt>
<rscale>  0 0.15835925E+04</rscale>
<asrwt>0</asrwt>
<pdfrwt beam="1">  1        2 0.16171909E+00 0.15835925E+04</pdfrwt>
<pdfrwt beam="2">  1       -1 0.91756935E-01 0.15835925E+04</pdfrwt>
<totfact> 0.29625897E+01</totfact>
</mgrwt>
</event>
<event>
12    6  0.1529770E-007  0.1776464E+04  0.7818608E-02  0.8718917E-01
         -1   -1    0    0    0  501 -0.00000000000E+00  0.00000000000E+00  0.52368943367E+03  0.52368943367E+03  0.00000000000E+00 0.  1.
          2   -1    0    0  501    0  0.00000000000E+00 -0.00000000000E+00 -0.15065342938E+04  0.15065342938E+04  0.00000000000E+00 0. -1.
         24    2    1    2    0    0 -0.62475313358E+02  0.49230662525E+03  0.12736270987E+03  0.51851723332E+03  0.79811548932E+02 0.  0.
        254    2    1    2    0    0  0.62475313358E+02 -0.49230662525E+03 -0.11102075700E+04  0.15117064942E+04  0.89801263795E+03 0.  0.
         23    2    4    4    0    0  0.36435219774E+03 -0.18644347300E+03 -0.12976561471E+03  0.43734254654E+03  0.83160661545E+02 0.  0.
         23    2    4    4    0    0 -0.30187688438E+03 -0.30586315225E+03 -0.98044195533E+03  0.10743639476E+04  0.91156694687E+02 0.  0.
          2    1    3    3  502    0 -0.38965090241E+02  0.74284509660E+02  0.24392518137E+02  0.87358237013E+02  0.00000000000E+00 0. -1.
         -1    1    3    3    0  502 -0.23510223117E+02  0.41802211559E+03  0.10297019174E+03  0.43115899631E+03  0.00000000000E+00 0.  1.
         11    1    5    5    0    0  0.92458335399E+02 -0.58973972680E+02 -0.72981029770E+02  0.13172966236E+03  0.00000000000E+00 0. -1.
        -11    1    5    5    0    0  0.27189386234E+03 -0.12746950032E+03 -0.56784584944E+02  0.30561288418E+03  0.00000000000E+00 0.  1.
          4    1    6    6  503    0 -0.29008169121E+03 -0.27670318663E+03 -0.84438418470E+03  0.93471743989E+03  0.00000000000E+00 0. -1.
         -4    1    6    6    0  503 -0.11795193171E+02 -0.29159965615E+02 -0.13605777063E+03  0.13964650775E+03  0.00000000000E+00 0.  1.
<mgrwt>
<rscale>  0 0.17764640E+04</rscale>
<asrwt>0</asrwt>
<pdfrwt beam="1">  1        2 0.23177450E+00 0.17764640E+04</pdfrwt>
<pdfrwt beam="2">  1       -1 0.80567606E-01 0.17764640E+04</pdfrwt>
<totfact> 0.20842736E+01</totfact>
</mgrwt>
</event>
<event>
12    6  0.1529770E-007  0.1072566E+04  0.7818608E-02  0.9232351E-01
         -1   -1    0    0    0  501 -0.00000000000E+00  0.00000000000E+00  0.98999085264E+02  0.98999085264E+02  0.00000000000E+00 0.  1.
          2   -1    0    0  501    0  0.00000000000E+00 -0.00000000000E+00 -0.29050721460E+04  0.29050721460E+04  0.00000000000E+00 0. -1.
         24    2    1    2    0    0  0.25560239289E+02  0.38136176343E+01 -0.26680307213E+02  0.84834219695E+02  0.76270154886E+02 0.  0.
        254    2    1    2    0    0 -0.25560239289E+02 -0.38136176343E+01 -0.27793927535E+04  0.29192370116E+04  0.89232997365E+03 0.  0.
         23    2    4    4    0    0 -0.70072159939E+02  0.41078938021E+03 -0.96192625550E+03  0.10523535947E+04  0.92130042699E+02 0.  0.
         23    2    4    4    0    0  0.44511920650E+02 -0.41460299784E+03 -0.18174664980E+04  0.18668834169E+04  0.90511125539E+02 0.  0.
          4    1    3    3  502    0  0.41991119004E+01  0.36502472503E+02 -0.27307892594E+02  0.45779733917E+02  0.00000000000E+00 0. -1.
         -3    1    3    3    0  502  0.21361127389E+02 -0.32688854869E+02  0.62758538015E+00  0.39054485778E+02  0.00000000000E+00 0.  1.
         11    1    5    5    0    0  0.37325368027E+01  0.14847039367E+03 -0.26065353402E+03  0.29999609068E+03  0.00000000000E+00 0.  1.
        -11    1    5    5    0    0 -0.73804696742E+02  0.26231898654E+03 -0.70127272148E+03  0.75235750402E+03  0.00000000000E+00 0. -1.
          4    1    6    6  503    0  0.81439115920E+01 -0.22216554771E+03 -0.77855130242E+03  0.80967029363E+03  0.00000000000E+00 0. -1.
         -4    1    6    6    0  503  0.36368009058E+02 -0.19243745013E+03 -0.10389151956E+04  0.10572131232E+04  0.00000000000E+00 0.  1.
<mgrwt>
<rscale>  0 0.10725661E+04</rscale>
<asrwt>0</asrwt>
<pdfrwt beam="1">  1        2 0.44693415E+00 0.10725661E+04</pdfrwt>
<pdfrwt beam="2">  1       -1 0.15230629E-01 0.10725661E+04</pdfrwt>
<totfact> 0.73823277E+01</totfact>
</mgrwt>
</event>
<event>
12    6  0.1529770E-007  0.1759557E+04  0.7818608E-02  0.8728107E-01
         -1   -1    0    0    0  501 -0.00000000000E+00  0.00000000000E+00  0.20220500156E+04  0.20220500156E+04  0.00000000000E+00 0.  1.
          2   -1    0    0  501    0  0.00000000000E+00 -0.00000000000E+00 -0.38278498484E+03  0.38278498484E+03  0.00000000000E+00 0. -1.
         24    2    1    2    0    0 -0.39334984515E+03  0.40326504096E+03  0.10503946625E+04  0.11946097690E+04  0.80104677000E+02 0.  0.
        254    2    1    2    0    0  0.39334984515E+03 -0.40326504096E+03  0.58887036822E+03  0.12102252314E+04  0.89472342442E+03 0.  0.
         23    2    4    4    0    0  0.24722789798E+03 -0.10415591933E+03  0.77016716448E+03  0.82084421876E+03  0.93046661171E+02 0.  0.
         23    2    4    4    0    0  0.14612194717E+03 -0.29910912163E+03 -0.18129679626E+03  0.38938101263E+03  0.89057029946E+02 0.  0.
          2    1    3    3  502    0 -0.12144276933E+03  0.11380606325E+03  0.38952770646E+03  0.42359414580E+03  0.00000000000E+00 0. -1.
         -1    1    3    3    0  502 -0.27190707582E+03  0.28945897771E+03  0.66086695604E+03  0.77101562322E+03  0.00000000000E+00 0.  1.
         11    1    5    5    0    0  0.16553548207E+03 -0.11423380538E+03  0.56832832709E+03  0.60286685553E+03  0.00000000000E+00 0.  1.
        -11    1    5    5    0    0  0.81692415905E+02  0.10077886047E+02  0.20183883739E+03  0.21797736323E+03  0.00000000000E+00 0. -1.
          4    1    6    6  503    0  0.56149029972E+02 -0.36910850388E+02 -0.30186406967E+02  0.73663719759E+02  0.00000000000E+00 0.  1.
         -4    1    6    6    0  503  0.89972917196E+02 -0.26219827124E+03 -0.15111038929E+03  0.31571729288E+03  0.00000000000E+00 0. -1.
<mgrwt>
<rscale>  0 0.17595572E+04</rscale>
<asrwt>0</asrwt>
<pdfrwt beam="1">  1        2 0.58889999E-01 0.17595572E+04</pdfrwt>
<pdfrwt beam="2">  1       -1 0.31108461E+00 0.17595572E+04</pdfrwt>
<totfact> 0.25364483E+00</totfact>
</mgrwt>
</event>
<event>
12    6  0.1529770E-007  0.1745656E+04  0.7818608E-02  0.8735745E-01
         -1   -1    0    0    0  501 -0.00000000000E+00  0.00000000000E+00  0.30957154384E+03  0.30957154384E+03  0.00000000000E+00 0.  1.
          2   -1    0    0  501    0  0.00000000000E+00 -0.00000000000E+00 -0.24609128318E+04  0.24609128318E+04  0.00000000000E+00 0. -1.
         24    2    1    2    0    0  0.24643043005E+03 -0.59948827461E+02 -0.17211045608E+04  0.17415038651E+04  0.79454291012E+02 0.  0.
        254    2    1    2    0    0 -0.24643043005E+03  0.59948827461E+02 -0.43023672720E+03  0.10289805105E+04  0.89965295022E+03 0.  0.
         23    2    4    4    0    0  0.32952402348E+03  0.73601424336E+02 -0.13214662349E+03  0.37402066679E+03  0.91790399138E+02 0.  0.
         23    2    4    4    0    0 -0.57595445353E+03 -0.13652596875E+02 -0.29809010371E+03  0.65495984374E+03  0.90580136005E+02 0.  0.
          2    1    3    3  502    0  0.25154090912E+03 -0.56766562573E+02 -0.17033014515E+04  0.17227103953E+04  0.00000000000E+00 0. -1.
         -1    1    3    3    0  502 -0.51104790731E+01 -0.31822648884E+01 -0.17803109318E+02  0.18793469812E+02  0.00000000000E+00 0.  1.
         11    1    5    5    0    0  0.32322888772E+03  0.80848961718E+02 -0.14020759771E+03  0.36148532325E+03  0.00000000000E+00 0.  1.
        -11    1    5    5    0    0  0.62951357564E+01 -0.72475373825E+01  0.80609742222E+01  0.12535343542E+02  0.00000000000E+00 0. -1.
          3    1    6    6  503    0 -0.19167329447E+03  0.26167380816E+01 -0.52999554747E+02  0.19888301067E+03  0.00000000000E+00 0. -1.
         -3    1    6    6    0  503 -0.38428115906E+03 -0.16269334956E+02 -0.24509054896E+03  0.45607683306E+03  0.00000000000E+00 0.  1.
<mgrwt>
<rscale>  0 0.17456558E+04</rscale>
<asrwt>0</asrwt>
<pdfrwt beam="1">  1        2 0.37860199E+00 0.17456558E+04</pdfrwt>
<pdfrwt beam="2">  1       -1 0.47626389E-01 0.17456558E+04</pdfrwt>
<totfact> 0.17450929E+01</totfact>
</mgrwt>
</event>
<event>
12    6  0.1529770E-007  0.1633961E+04  0.7818608E-02  0.8799952E-01
          2   -1    0    0  501    0  0.00000000000E+00  0.00000000000E+00  0.14734016069E+04  0.14734016069E+04  0.00000000000E+00 0. -1.
         -3   -1    0    0    0  501 -0.00000000000E+00 -0.00000000000E+00 -0.45300403968E+03  0.45300403968E+03  0.00000000000E+00 0.  1.
         24    2    1    2    0    0 -0.10190592887E+03  0.12515387351E+03 -0.26813294911E+03  0.32316572567E+03  0.80576035248E+02 0.  0.
        254    2    1    2    0    0  0.10190592887E+03 -0.12515387351E+03  0.12885305163E+04  0.16032399209E+04  0.94022286829E+03 0.  0.
         23    2    4    4    0    0 -0.23633145498E+03 -0.11419184616E+03  0.10462563843E+02  0.27798352622E+03  0.90956260191E+02 0.  0.
         23    2    4    4    0    0  0.33823738385E+03 -0.10962027355E+02  0.12780679525E+04  0.13252563947E+04  0.91225690364E+02 0.  0.
          4    1    3    3  502    0  0.39469045952E+01  0.47729360024E+02 -0.55138334604E+02  0.73033593688E+02  0.00000000000E+00 0. -1.
         -3    1    3    3    0  502 -0.10585283347E+03  0.77424513490E+02 -0.21299461451E+03  0.25013213198E+03  0.00000000000E+00 0.  1.
         11    1    5    5    0    0 -0.16427680431E+03 -0.10887420087E+03  0.37913968165E+02  0.20069361981E+03  0.00000000000E+00 0.  1.
        -11    1    5    5    0    0 -0.72054650669E+02 -0.53176452869E+01 -0.27451404322E+02  0.77289906415E+02  0.00000000000E+00 0. -1.
          3    1    6    6  503    0  0.27916777963E+03 -0.44263851155E+02  0.10238970501E+04  0.10621954184E+04  0.00000000000E+00 0. -1.
         -3    1    6    6    0  503  0.59069604227E+02  0.33301823801E+02  0.25417090234E+03  0.26306097622E+03  0.00000000000E+00 0.  1.
<mgrwt>
<rscale>  0 0.16339607E+04</rscale>
<asrwt>0</asrwt>
<pdfrwt beam="1">  1        2 0.22667717E+00 0.16339607E+04</pdfrwt>
<pdfrwt beam="2">  1       -3 0.69692930E-01 0.16339607E+04</pdfrwt>
<totfact> 0.15803890E+01</totfact>
</mgrwt>
</event>
<event>
12    6  0.1529770E-007  0.1376197E+04  0.7818608E-02  0.8971231E-01
          2   -1    0    0  501    0  0.00000000000E+00  0.00000000000E+00  0.18863895492E+04  0.18863895492E+04  0.00000000000E+00 0. -1.
         -1   -1    0    0    0  501 -0.00000000000E+00 -0.00000000000E+00 -0.25099760145E+03  0.25099760145E+03  0.00000000000E+00 0.  1.
         24    2    1    2    0    0  0.16700684073E+03 -0.29566077748E+03  0.12325528011E+03  0.36722877574E+03  0.66019159850E+02 0.  0.
        254    2    1    2    0    0 -0.16700684073E+03  0.29566077748E+03  0.15121366676E+04  0.17701583749E+04  0.85533431500E+03 0.  0.
         23    2    4    4    0    0  0.23355370690E+02  0.55680693806E+03  0.11194768187E+04  0.12535086921E+04  0.86465334219E+02 0.  0.
         23    2    4    4    0    0 -0.19036221142E+03 -0.26114616058E+03  0.39265984888E+03  0.51664968272E+03  0.91159470235E+02 0.  0.
          2    1    3    3  502    0 -0.24015719321E+01  0.14734479397E+01  0.42162028122E+01  0.50709922825E+01  0.00000000000E+00 0. -1.
         -1    1    3    3    0  502  0.16940841266E+03 -0.29713422542E+03  0.11903907730E+03  0.36215778346E+03  0.00000000000E+00 0.  1.
         11    1    5    5    0    0 -0.40330371107E+01  0.47270031565E+03  0.98483465216E+03  0.10924107039E+04  0.00000000000E+00 0. -1.
        -11    1    5    5    0    0  0.27388407801E+02  0.84106622410E+02  0.13464216656E+03  0.16109798829E+03  0.00000000000E+00 0.  1.
          3    1    6    6  503    0 -0.18564175126E+03 -0.26812843562E+03  0.38854663578E+03  0.50727133368E+03  0.00000000000E+00 0. -1.
         -3    1    6    6    0  503 -0.47204601555E+01  0.69822750361E+01  0.41132131001E+01  0.93783490427E+01  0.00000000000E+00 0.  1.
<mgrwt>
<rscale>  0 0.13761966E+04</rscale>
<asrwt>0</asrwt>
<pdfrwt beam="1">  1        2 0.29021377E+00 0.13761966E+04</pdfrwt>
<pdfrwt beam="2">  1       -1 0.38615017E-01 0.13761966E+04</pdfrwt>
<totfact> 0.55764234E+01</totfact>
</mgrwt>
</event>
<event>
12    6  0.1529770E-007  0.1552531E+04  0.7818608E-02  0.8850253E-01
          2   -1    0    0  501    0  0.00000000000E+00  0.00000000000E+00  0.61784028919E+03  0.61784028919E+03  0.00000000000E+00 0. -1.
         -1   -1    0    0    0  501 -0.00000000000E+00 -0.00000000000E+00 -0.97531354819E+03  0.97531354819E+03  0.00000000000E+00 0.  1.
         24    2    1    2    0    0  0.35686828510E+03  0.93748453957E+02 -0.48267554499E+03  0.61286067807E+03  0.80490890513E+02 0.  0.
        254    2    1    2    0    0 -0.35686828510E+03 -0.93748453957E+02  0.12520228600E+03  0.98029315931E+03  0.89953061106E+03 0.  0.
         23    2    4    4    0    0 -0.28960760616E+03  0.32322508964E+03 -0.14868473656E+03  0.46803904657E+03  0.92770545459E+02 0.  0.
         23    2    4    4    0    0 -0.67260678940E+02 -0.41697354360E+03  0.27388702256E+03  0.51225411274E+03  0.94864323654E+02 0.  0.
          4    1    3    3  502    0 -0.10234158723E+01 -0.58776980052E+01 -0.10294419847E+02  0.11898310547E+02  0.00000000000E+00 0. -1.
         -3    1    3    3    0  502  0.35789170097E+03  0.99626151963E+02 -0.47238112515E+03  0.60096236752E+03  0.00000000000E+00 0.  1.
         11    1    5    5    0    0 -0.15994397979E+03  0.22213150978E+03 -0.12851240990E+03  0.30239035006E+03  0.00000000000E+00 0. -1.
        -11    1    5    5    0    0 -0.12966362637E+03  0.10109357986E+03 -0.20172326657E+02  0.16564869651E+03  0.00000000000E+00 0.  1.
          4    1    6    6  503    0 -0.44848889497E+02 -0.61772458557E+02  0.59277976701E+02  0.96649563098E+02  0.00000000000E+00 0. -1.
         -4    1    6    6    0  503 -0.22411789443E+02 -0.35520108504E+03  0.21460904585E+03  0.41560454964E+03  0.00000000000E+00 0.  1.
<mgrwt>
<rscale>  0 0.15525308E+04</rscale>
<asrwt>0</asrwt>
<pdfrwt beam="1">  1        2 0.95052352E-01 0.15525308E+04</pdfrwt>
<pdfrwt beam="2">  1       -1 0.15004824E+00 0.15525308E+04</pdfrwt>
<totfact> 0.18345724E+01</totfact>
</mgrwt>
</event>
<event>
12    6  0.1529770E-007  0.1405190E+04  0.7818608E-02  0.8950070E-01
          2   -1    0    0  501    0  0.00000000000E+00  0.00000000000E+00  0.43143358788E+03  0.43143358788E+03  0.00000000000E+00 0. -1.
         -1   -1    0    0    0  501 -0.00000000000E+00 -0.00000000000E+00 -0.11441853408E+04  0.11441853408E+04  0.00000000000E+00 0.  1.
         24    2    1    2    0    0  0.29797639414E+03  0.10850509366E+03 -0.50389591156E+03  0.60040505510E+03  0.77536144381E+02 0.  0.
        254    2    1    2    0    0 -0.29797639414E+03 -0.10850509366E+03 -0.20885584137E+03  0.97521387360E+03  0.89825277621E+03 0.  0.
         23    2    4    4    0    0  0.19482484448E+03 -0.30816147864E+03 -0.22300116950E+03  0.43602358876E+03  0.86410829286E+02 0.  0.
         23    2    4    4    0    0 -0.49280123862E+03  0.19965638498E+03  0.14145328126E+02  0.53919028484E+03  0.88376128559E+02 0.  0.
          2    1    3    3  502    0  0.16391816276E+03  0.21775927218E+02 -0.22822619649E+03  0.28183426309E+03  0.00000000000E+00 0. -1.
         -1    1    3    3    0  502  0.13405823138E+03  0.86729166437E+02 -0.27566971508E+03  0.31857079201E+03  0.00000000000E+00 0.  1.
         11    1    5    5    0    0  0.29537423600E+01  0.26912770802E+01  0.42281942312E+01  0.58176621343E+01  0.00000000000E+00 0. -1.
        -11    1    5    5    0    0  0.19187110212E+03 -0.31085275572E+03 -0.22722936373E+03  0.43020592663E+03  0.00000000000E+00 0.  1.
          2    1    6    6  503    0 -0.38970062122E+03  0.19501122217E+03  0.92364949935E+01  0.43586840192E+03  0.00000000000E+00 0.  1.
         -2    1    6    6    0  503 -0.10310061741E+03  0.46451628131E+01  0.49088331326E+01  0.10332188292E+03  0.00000000000E+00 0. -1.
<mgrwt>
<rscale>  0 0.14051904E+04</rscale>
<asrwt>0</asrwt>
<pdfrwt beam="1">  1        2 0.66374399E-01 0.14051904E+04</pdfrwt>
<pdfrwt beam="2">  1       -1 0.17602851E+00 0.14051904E+04</pdfrwt>
<totfact> 0.18056514E+01</totfact>
</mgrwt>
</event>
<event>
12    6  0.1529770E-007  0.1446660E+04  0.7818608E-02  0.8920719E-01
         -1   -1    0    0    0  501 -0.00000000000E+00  0.00000000000E+00  0.21263766091E+03  0.21263766091E+03  0.00000000000E+00 0.  1.
          2   -1    0    0  501    0  0.00000000000E+00 -0.00000000000E+00 -0.24605543219E+04  0.24605543219E+04  0.00000000000E+00 0. -1.
         24    2    1    2    0    0 -0.33190098977E+03  0.27969798104E+03 -0.69459283333E+03  0.82293726695E+03  0.79858084206E+02 0.  0.
        254    2    1    2    0    0  0.33190098977E+03 -0.27969798104E+03 -0.15533238277E+04  0.18502547159E+04  0.90677360591E+03 0.  0.
         23    2    4    4    0    0 -0.12381968441E+02 -0.47530480554E+03 -0.40381285652E+03  0.63039907183E+03  0.90940614454E+02 0.  0.
         23    2    4    4    0    0  0.34428295821E+03  0.19560682449E+03 -0.11495109712E+04  0.12198556441E+04  0.99395847015E+02 0.  0.
          4    1    3    3  502    0 -0.19728676479E+03  0.14784984657E+03 -0.32338818233E+03  0.40664672772E+03  0.00000000000E+00 0. -1.
         -3    1    3    3    0  502 -0.13461422498E+03  0.13184813447E+03 -0.37120465100E+03  0.41629053923E+03  0.00000000000E+00 0.  1.
         11    1    5    5    0    0 -0.15709666811E+02 -0.47870981232E+03 -0.39711689068E+03  0.62218301400E+03  0.00000000000E+00 0. -1.
        -11    1    5    5    0    0  0.33276983702E+01  0.34050067858E+01 -0.66959658431E+01  0.82160578276E+01  0.00000000000E+00 0.  1.
          4    1    6    6  503    0  0.23248031140E+02 -0.26363571690E+01 -0.14390442285E+03  0.14579404736E+03  0.00000000000E+00 0.  1.
         -4    1    6    6    0  503  0.32103492707E+03  0.19824318166E+03 -0.10056065483E+04  0.10740615967E+04  0.00000000000E+00 0. -1.
<mgrwt>
<rscale>  0 0.14466603E+04</rscale>
<asrwt>0</asrwt>
<pdfrwt beam="1">  1        2 0.37854681E+00 0.14466603E+04</pdfrwt>
<pdfrwt beam="2">  1       -1 0.32713487E-01 0.14466603E+04</pdfrwt>
<totfact> 0.35593115E+01</totfact>
</mgrwt>
</event>
<event>
12    6  0.1529770E-007  0.1615646E+04  0.7818608E-02  0.8810994E-01
          2   -1    0    0  501    0  0.00000000000E+00  0.00000000000E+00  0.86234680691E+03  0.86234680691E+03  0.00000000000E+00 0. -1.
         -1   -1    0    0    0  501 -0.00000000000E+00 -0.00000000000E+00 -0.75674629900E+03  0.75674629900E+03  0.00000000000E+00 0.  1.
         24    2    1    2    0    0  0.28074271382E+02 -0.66735223708E+02  0.58600765212E+03  0.59542811512E+03  0.76732764412E+02 0.  0.
        254    2    1    2    0    0 -0.28074271382E+02  0.66735223708E+02 -0.48040714420E+03  0.10236649908E+04  0.90103120611E+03 0.  0.
         23    2    4    4    0    0  0.92106308964E+02 -0.26147063255E+03 -0.58109598644E+03  0.65000784015E+03  0.89371040957E+02 0.  0.
         23    2    4    4    0    0 -0.12018058035E+03  0.32820585625E+03  0.10068884224E+03  0.37365715064E+03  0.85550963203E+02 0.  0.
          4    1    3    3  502    0  0.34699214453E+01 -0.34020737345E+02  0.48825069864E+03  0.48944682617E+03  0.00000000000E+00 0. -1.
         -3    1    3    3    0  502  0.24604349937E+02 -0.32714486362E+02  0.97756953472E+02  0.10598128894E+03  0.00000000000E+00 0.  1.
         11    1    5    5    0    0 -0.14491979792E+01  0.67375833459E+01 -0.19059019223E+02  0.20266756471E+02  0.00000000000E+00 0.  1.
        -11    1    5    5    0    0  0.93555506943E+02 -0.26820821589E+03 -0.56203696722E+03  0.62974108368E+03  0.00000000000E+00 0. -1.
          4    1    6    6  503    0 -0.11045155963E+03  0.32678553628E+03  0.85203151324E+02  0.35531382009E+03  0.00000000000E+00 0. -1.
         -4    1    6    6    0  503 -0.97290207165E+01  0.14203199713E+01  0.15485690914E+02  0.18343330559E+02  0.00000000000E+00 0.  1.
<mgrwt>
<rscale>  0 0.16156457E+04</rscale>
<asrwt>0</asrwt>
<pdfrwt beam="1">  1        2 0.13266874E+00 0.16156457E+04</pdfrwt>
<pdfrwt beam="2">  1       -1 0.11642251E+00 0.16156457E+04</pdfrwt>
<totfact> 0.22674389E+01</totfact>
</mgrwt>
</event>
<event>
12    6  0.1529770E-007  0.1672722E+04  0.7818608E-02  0.8777077E-01
          2   -1    0    0  501    0  0.00000000000E+00  0.00000000000E+00  0.15267190668E+04  0.15267190668E+04  0.00000000000E+00 0. -1.
         -1   -1    0    0    0  501 -0.00000000000E+00 -0.00000000000E+00 -0.45817172501E+03  0.45817172501E+03  0.00000000000E+00 0.  1.
         24    2    1    2    0    0  0.46147942706E+03  0.14614013899E+03  0.76666945511E+03  0.91041388371E+03  0.82165591554E+02 0.  0.
        254    2    1    2    0    0 -0.46147942706E+03 -0.14614013899E+03  0.30187788668E+03  0.10744769081E+04  0.91052191941E+03 0.  0.
         23    2    4    4    0    0  0.26883796582E+03 -0.31677758097E+02  0.70283963854E+02  0.29455986586E+03  0.92457270023E+02 0.  0.
         23    2    4    4    0    0 -0.73031739287E+03 -0.11446238089E+03  0.23159392282E+03  0.77991704222E+03  0.90386485089E+02 0.  0.
          4    1    3    3  502    0  0.37254795435E+03  0.15068503130E+03  0.62141284241E+03  0.74003505165E+03  0.00000000000E+00 0. -1.
         -3    1    3    3    0  502  0.88931472704E+02 -0.45448923111E+01  0.14525661270E+03  0.17037883206E+03  0.00000000000E+00 0.  1.
         11    1    5    5    0    0  0.94585518031E+02 -0.43479072163E+02  0.58735117077E+02  0.11952683345E+03  0.00000000000E+00 0. -1.
        -11    1    5    5    0    0  0.17425244779E+03  0.11801314066E+02  0.11548846777E+02  0.17503303241E+03  0.00000000000E+00 0.  1.
          4    1    6    6  503    0 -0.42251967088E+03 -0.54136025942E+02  0.88057033341E+02  0.43498002564E+03  0.00000000000E+00 0. -1.
         -4    1    6    6    0  503 -0.30779772199E+03 -0.60326354950E+02  0.14353688948E+03  0.34493701658E+03  0.00000000000E+00 0.  1.
<mgrwt>
<rscale>  0 0.16727217E+04</rscale>
<asrwt>0</asrwt>
<pdfrwt beam="1">  1        2 0.23487985E+00 0.16727217E+04</pdfrwt>
<pdfrwt beam="2">  1       -1 0.70487958E-01 0.16727217E+04</pdfrwt>
<totfact> 0.27095012E+01</totfact>
</mgrwt>
</event>
<event>
12    6  0.1529770E-007  0.1323739E+04  0.7818608E-02  0.9010949E-01
          2   -1    0    0  501    0  0.00000000000E+00  0.00000000000E+00  0.51207402455E+03  0.51207402455E+03  0.00000000000E+00 0. -1.
         -1   -1    0    0    0  501 -0.00000000000E+00 -0.00000000000E+00 -0.85548434827E+03  0.85548434827E+03  0.00000000000E+00 0.  1.
         24    2    1    2    0    0  0.50091010346E+02  0.73997472609E+01  0.26819807829E+03  0.28485639503E+03  0.81541958623E+02 0.  0.
        254    2    1    2    0    0 -0.50091010346E+02 -0.73997472609E+01 -0.61160840201E+03  0.10827019778E+04  0.89197246017E+03 0.  0.
         23    2    4    4    0    0 -0.56666691563E+02 -0.16236783286E+02  0.21989482372E+03  0.24557064703E+03  0.92067704000E+02 0.  0.
         23    2    4    4    0    0  0.65756812178E+01  0.88370360255E+01 -0.83150322573E+03  0.83713133075E+03  0.96280411964E+02 0.  0.
          4    1    3    3  502    0  0.12882369867E+02 -0.27960820401E+02  0.18157797645E+03  0.18416928208E+03  0.00000000000E+00 0. -1.
         -3    1    3    3    0  502  0.37208640479E+02  0.35360567662E+02  0.86620101838E+02  0.10068711295E+03  0.00000000000E+00 0.  1.
         11    1    5    5    0    0 -0.36152357784E+02  0.10962363281E+02  0.19907216893E+02  0.42702033517E+02  0.00000000000E+00 0.  1.
        -11    1    5    5    0    0 -0.20514333779E+02 -0.27199146567E+02  0.19998760683E+03  0.20286861352E+03  0.00000000000E+00 0. -1.
          1    1    6    6  503    0  0.11336306437E+02  0.41196159302E+02 -0.71056044975E+03  0.71184393523E+03  0.00000000000E+00 0. -1.
         -1    1    6    6    0  503 -0.47606252188E+01 -0.32359123277E+02 -0.12094277599E+03  0.12528739552E+03  0.00000000000E+00 0.  1.
<mgrwt>
<rscale>  0 0.13237391E+04</rscale>
<asrwt>0</asrwt>
<pdfrwt beam="1">  1        2 0.78780619E-01 0.13237391E+04</pdfrwt>
<pdfrwt beam="2">  1       -1 0.13161298E+00 0.13237391E+04</pdfrwt>
<totfact> 0.32946193E+01</totfact>
</mgrwt>
</event>
<event>
12    6  0.1529770E-007  0.1465365E+04  0.7818608E-02  0.8907817E-01
          2   -1    0    0  501    0  0.00000000000E+00  0.00000000000E+00  0.73497525090E+03  0.73497525090E+03  0.00000000000E+00 0. -1.
         -1   -1    0    0    0  501 -0.00000000000E+00 -0.00000000000E+00 -0.73039653638E+03  0.73039653638E+03  0.00000000000E+00 0.  1.
         24    2    1    2    0    0 -0.10089778825E+03 -0.31192958107E+03 -0.29033446668E+03  0.44519597304E+03  0.80155627700E+02 0.  0.
        254    2    1    2    0    0  0.10089778825E+03  0.31192958107E+03  0.29491318119E+03  0.10201758142E+04  0.91994808566E+03 0.  0.
         23    2    4    4    0    0 -0.21143283017E+02  0.62269901875E+03  0.20142771413E+03  0.66090830855E+03  0.89585500591E+02 0.  0.
         23    2    4    4    0    0  0.12204107126E+03 -0.31076943769E+03  0.93485467064E+02  0.35926750569E+03  0.94137886203E+02 0.  0.
          2    1    3    3  502    0 -0.32948795654E+02 -0.11434809419E+03 -0.15827914764E+03  0.19802373180E+03  0.00000000000E+00 0. -1.
         -1    1    3    3    0  502 -0.67948992591E+02 -0.19758148688E+03 -0.13205531904E+03  0.24717224124E+03  0.00000000000E+00 0.  1.
         11    1    5    5    0    0 -0.12052271224E+02  0.50087022362E+03  0.12353145301E+03  0.51601962951E+03  0.00000000000E+00 0. -1.
        -11    1    5    5    0    0 -0.90910117927E+01  0.12182879513E+03  0.77896261117E+02  0.14488867904E+03  0.00000000000E+00 0.  1.
          1    1    6    6  503    0  0.81804823650E+02 -0.28361775257E+03  0.62631686994E+02  0.30175120043E+03  0.00000000000E+00 0. -1.
         -1    1    6    6    0  503  0.40236247613E+02 -0.27151685122E+02  0.30853780071E+02  0.57516305267E+02  0.00000000000E+00 0.  1.
<mgrwt>
<rscale>  0 0.14653646E+04</rscale>
<asrwt>0</asrwt>
<pdfrwt beam="1">  1        2 0.11307312E+00 0.14653646E+04</pdfrwt>
<pdfrwt beam="2">  1       -1 0.11236870E+00 0.14653646E+04</pdfrwt>
<totfact> 0.30907403E+01</totfact>
</mgrwt>
</event>
<event>
12    6  0.1529770E-007  0.3573127E+04  0.7818608E-02  0.8096675E-01
          2   -1    0    0  501    0  0.00000000000E+00  0.00000000000E+00  0.13369706447E+04  0.13369706447E+04  0.00000000000E+00 0. -1.
         -1   -1    0    0    0  501 -0.00000000000E+00 -0.00000000000E+00 -0.23873437081E+04  0.23873437081E+04  0.00000000000E+00 0.  1.
         24    2    1    2    0    0 -0.96725567738E+03 -0.69444298609E+03  0.73787066629E+03  0.14034068873E+04  0.85224204003E+02 0.  0.
        254    2    1    2    0    0  0.96725567738E+03  0.69444298609E+03 -0.17882437296E+04  0.23209074655E+04  0.87804397401E+03 0.  0.
         23    2    4    4    0    0  0.73903380210E+03  0.32983720019E+03 -0.49058397309E+03  0.95081954971E+03  0.91769505788E+02 0.  0.
         23    2    4    4    0    0  0.22822187528E+03  0.36460578590E+03 -0.12976597565E+04  0.13700879157E+04  0.90539768322E+02 0.  0.
          4    1    3    3  502    0 -0.91518818241E+03 -0.66950109204E+03  0.68290045795E+03  0.13236895999E+04  0.00000000000E+00 0. -1.
         -3    1    3    3    0  502 -0.52067494965E+02 -0.24941894053E+02  0.54970208335E+02  0.79717287431E+02  0.00000000000E+00 0.  1.
         11    1    5    5    0    0  0.58772729021E+03  0.30099485141E+03 -0.39097236688E+03  0.76738560053E+03  0.00000000000E+00 0.  1.
        -11    1    5    5    0    0  0.15130651188E+03  0.28842348784E+02 -0.99611606209E+02  0.18343394918E+03  0.00000000000E+00 0. -1.
          4    1    6    6  503    0 -0.71266117253E+01  0.27226633680E+02 -0.89190257806E+02  0.93525292107E+02  0.00000000000E+00 0. -1.
         -4    1    6    6    0  503  0.23534848700E+03  0.33737915222E+03 -0.12084694987E+04  0.12765626236E+04  0.00000000000E+00 0.  1.
<mgrwt>
<rscale>  0 0.35731266E+04</rscale>
<asrwt>0</asrwt>
<pdfrwt beam="1">  1        2 0.20568779E+00 0.35731266E+04</pdfrwt>
<pdfrwt beam="2">  1       -1 0.36728364E+00 0.35731266E+04</pdfrwt>
<totfact> 0.17430318E-01</totfact>
</mgrwt>
</event>
<event>
12    6  0.1529770E-007  0.1668628E+04  0.7818608E-02  0.8779462E-01
         -3   -1    0    0    0  501 -0.00000000000E+00  0.00000000000E+00  0.12821480183E+04  0.12821480183E+04  0.00000000000E+00 0.  1.
          4   -1    0    0  501    0  0.00000000000E+00 -0.00000000000E+00 -0.54290158738E+03  0.54290158738E+03  0.00000000000E+00 0. -1.
         24    2    1    2    0    0 -0.16866850813E+03  0.44854239142E+03 -0.11208929277E+03  0.49833354633E+03  0.78313289445E+02 0.  0.
        254    2    1    2    0    0  0.16866850813E+03 -0.44854239142E+03  0.85133572366E+03  0.13267160593E+04  0.89764338418E+03 0.  0.
         23    2    4    4    0    0 -0.28294778673E+03 -0.45886493441E+03  0.55029996017E+03  0.77564333827E+03  0.90421590287E+02 0.  0.
         23    2    4    4    0    0  0.45161629485E+03  0.10322542989E+02  0.30103576349E+03  0.55107272106E+03  0.94840815712E+02 0.  0.
          2    1    3    3  502    0 -0.14820004829E+03  0.43540687928E+03 -0.11425590997E+03  0.47391646711E+03  0.00000000000E+00 0. -1.
         -1    1    3    3    0  502 -0.20468459836E+02  0.13135512144E+02  0.21666171952E+01  0.24417079215E+02  0.00000000000E+00 0.  1.
         11    1    5    5    0    0 -0.13118688333E+02 -0.34963109895E+02  0.11926426716E+02  0.39201513891E+02  0.00000000000E+00 0.  1.
        -11    1    5    5    0    0 -0.26982909840E+03 -0.42390182452E+03  0.53837353345E+03  0.73644182437E+03  0.00000000000E+00 0. -1.
          3    1    6    6  503    0  0.19289035261E+03  0.20190802684E+02  0.76944776899E+02  0.20865007869E+03  0.00000000000E+00 0. -1.
         -3    1    6    6    0  503  0.25872594224E+03 -0.98682596956E+01  0.22409098659E+03  0.34242264237E+03  0.00000000000E+00 0.  1.
<mgrwt>
<rscale>  0 0.16686284E+04</rscale>
<asrwt>0</asrwt>
<pdfrwt beam="1">  1        4 0.83523321E-01 0.16686284E+04</pdfrwt>
<pdfrwt beam="2">  1       -3 0.19725354E+00 0.16686284E+04</pdfrwt>
<totfact> 0.41871743E-01</totfact>
</mgrwt>
</event>
<event>
12    6  0.1529770E-007  0.2376497E+04  0.7818608E-02  0.8448356E-01
         -1   -1    0    0    0  501 -0.00000000000E+00  0.00000000000E+00  0.88635022156E+03  0.88635022156E+03  0.00000000000E+00 0.  1.
          2   -1    0    0  501    0  0.00000000000E+00 -0.00000000000E+00 -0.15929752134E+04  0.15929752134E+04  0.00000000000E+00 0. -1.
         24    2    1    2    0    0 -0.77752437538E+03  0.65173257265E+03 -0.21665028335E+03  0.10405318151E+04  0.80433900739E+02 0.  0.
        254    2    1    2    0    0  0.77752437538E+03 -0.65173257265E+03 -0.48997470844E+03  0.14387936198E+04  0.89484767697E+03 0.  0.
         23    2    4    4    0    0  0.65177527019E+03 -0.57154103001E+03 -0.73239756764E+03  0.11386694257E+04  0.93229352860E+02 0.  0.
         23    2    4    4    0    0  0.12574910519E+03 -0.80191542639E+02  0.24242285920E+03  0.30012419407E+03  0.95195421324E+02 0.  0.
          4    1    3    3  502    0 -0.68520493574E+03  0.59756888921E+03 -0.17608391114E+03  0.92606691177E+03  0.00000000000E+00 0. -1.
         -3    1    3    3    0  502 -0.92319439638E+02  0.54163683446E+02 -0.40566372209E+02  0.11446490333E+03  0.00000000000E+00 0.  1.
         11    1    5    5    0    0  0.10918628363E+03 -0.11703584841E+03 -0.17966335831E+03  0.24061994236E+03  0.00000000000E+00 0. -1.
        -11    1    5    5    0    0  0.54258898656E+03 -0.45450518160E+03 -0.55273420933E+03  0.89804948338E+03  0.00000000000E+00 0.  1.
          4    1    6    6  503    0  0.10142544200E+03 -0.17311115616E+02  0.10476090019E+03  0.14683882735E+03  0.00000000000E+00 0. -1.
         -4    1    6    6    0  503  0.24323663183E+02 -0.62880427023E+02  0.13766195901E+03  0.15328536672E+03  0.00000000000E+00 0.  1.
<mgrwt>
<rscale>  0 0.23764965E+04</rscale>
<asrwt>0</asrwt>
<pdfrwt beam="1">  1        2 0.24507311E+00 0.23764965E+04</pdfrwt>
<pdfrwt beam="2">  1       -1 0.13636157E+00 0.23764965E+04</pdfrwt>
<totfact> 0.51835306E+00</totfact>
</mgrwt>
</event>
<event>
12    6  0.1529770E-007  0.1380310E+04  0.7818608E-02  0.8968196E-01
          2   -1    0    0  501    0  0.00000000000E+00  0.00000000000E+00  0.18410736862E+04  0.18410736862E+04  0.00000000000E+00 0. -1.
         -1   -1    0    0    0  501 -0.00000000000E+00 -0.00000000000E+00 -0.25871532351E+03  0.25871532351E+03  0.00000000000E+00 0.  1.
         24    2    1    2    0    0 -0.27900501694E+03 -0.84893199626E+02  0.85902215118E+03  0.91075181475E+03  0.80617349463E+02 0.  0.
        254    2    1    2    0    0  0.27900501694E+03  0.84893199626E+02  0.72333621149E+03  0.11890371949E+04  0.89752076369E+03 0.  0.
         23    2    4    4    0    0  0.15790780300E+03  0.23376386999E+03 -0.12051575272E+03  0.31873644829E+03  0.86535863417E+02 0.  0.
         23    2    4    4    0    0  0.12109721395E+03 -0.14887067036E+03  0.84385196422E+03  0.87030074664E+03  0.92250964087E+02 0.  0.
          2    1    3    3  502    0 -0.11657103361E+03 -0.45645083723E+02  0.48855278818E+03  0.50433729426E+03  0.00000000000E+00 0. -1.
         -1    1    3    3    0  502 -0.16243398334E+03 -0.39248115903E+02  0.37046936300E+03  0.40641452050E+03  0.00000000000E+00 0.  1.
         11    1    5    5    0    0  0.27097656088E+01 -0.70694301557E+01 -0.77523505893E+01  0.10835986897E+02  0.00000000000E+00 0. -1.
        -11    1    5    5    0    0  0.15519803739E+03  0.24083330014E+03 -0.11276340213E+03  0.30790046139E+03  0.00000000000E+00 0.  1.
          3    1    6    6  503    0  0.20263231900E+02 -0.29016077954E+01  0.24149409041E+03  0.24236009077E+03  0.00000000000E+00 0. -1.
         -3    1    6    6    0  503  0.10083398205E+03 -0.14596906256E+03  0.60235787381E+03  0.62794065587E+03  0.00000000000E+00 0.  1.
<mgrwt>
<rscale>  0 0.13803101E+04</rscale>
<asrwt>0</asrwt>
<pdfrwt beam="1">  1        2 0.28324210E+00 0.13803101E+04</pdfrwt>
<pdfrwt beam="2">  1       -1 0.39802359E-01 0.13803101E+04</pdfrwt>
<totfact> 0.55887165E+01</totfact>
</mgrwt>
</event>
<event>
12    6  0.1529770E-007  0.3259693E+04  0.7818608E-02  0.8173228E-01
         -1   -1    0    0    0  501 -0.00000000000E+00  0.00000000000E+00  0.17506028904E+04  0.17506028904E+04  0.00000000000E+00 0.  1.
          2   -1    0    0  501    0  0.00000000000E+00 -0.00000000000E+00 -0.15174196022E+04  0.15174196022E+04  0.00000000000E+00 0. -1.
         24    2    1    2    0    0 -0.76429880076E+03 -0.14656687518E+03  0.13957297340E+04  0.15999956909E+04  0.79310875693E+02 0.  0.
        254    2    1    2    0    0  0.76429880076E+03  0.14656687518E+03 -0.11625464458E+04  0.16680268017E+04  0.90838574771E+03 0.  0.
         23    2    4    4    0    0  0.67291704352E+03  0.46960454194E+03 -0.95926742732E+03  0.12655412132E+04  0.89748492788E+02 0.  0.
         23    2    4    4    0    0  0.91381757236E+02 -0.32303766675E+03 -0.20327901849E+03  0.40248558844E+03  0.89265502001E+02 0.  0.
          4    1    3    3  502    0 -0.10402189318E+02 -0.11353776027E+02  0.18099331082E+02  0.23763407969E+02  0.00000000000E+00 0. -1.
         -3    1    3    3    0  502 -0.75389661144E+03 -0.13521309916E+03  0.13776304029E+04  0.15762322830E+04  0.00000000000E+00 0.  1.
         11    1    5    5    0    0  0.47966505627E+03  0.29937950233E+03 -0.70375235258E+03  0.90275911869E+03  0.00000000000E+00 0. -1.
        -11    1    5    5    0    0  0.19325198726E+03  0.17022503961E+03 -0.25551507474E+03  0.36278209452E+03  0.00000000000E+00 0.  1.
          3    1    6    6  503    0  0.94365012138E+02 -0.25995965351E+03 -0.12951006538E+03  0.30537949179E+03  0.00000000000E+00 0. -1.
         -3    1    6    6    0  503 -0.29832549023E+01 -0.63078013239E+02 -0.73768953108E+02  0.97106096650E+02  0.00000000000E+00 0.  1.
<mgrwt>
<rscale>  0 0.32596927E+04</rscale>
<asrwt>0</asrwt>
<pdfrwt beam="1">  1        2 0.23344917E+00 0.32596927E+04</pdfrwt>
<pdfrwt beam="2">  1       -1 0.26932352E+00 0.32596927E+04</pdfrwt>
<totfact> 0.61787971E-01</totfact>
</mgrwt>
</event>
<event>
12    6  0.1529770E-007  0.1149541E+04  0.7818608E-02  0.9158207E-01
         -1   -1    0    0    0  501 -0.00000000000E+00  0.00000000000E+00  0.41570950639E+03  0.41570950639E+03  0.00000000000E+00 0.  1.
          2   -1    0    0  501    0  0.00000000000E+00 -0.00000000000E+00 -0.79469230253E+03  0.79469230253E+03  0.00000000000E+00 0. -1.
         24    2    1    2    0    0 -0.12750772532E+03  0.68571352766E+02 -0.22984358471E+03  0.28329027415E+03  0.80405569228E+02 0.  0.
        254    2    1    2    0    0  0.12750772532E+03 -0.68571352766E+02 -0.14913921143E+03  0.92711153476E+03  0.90351150688E+03 0.  0.
         23    2    4    4    0    0 -0.12476271797E+03  0.10364851458E+02 -0.47389775282E+03  0.49872513164E+03  0.92057106516E+02 0.  0.
         23    2    4    4    0    0  0.25227044329E+03 -0.78936204224E+02  0.32475854139E+03  0.42838640312E+03  0.90418467573E+02 0.  0.
          2    1    3    3  502    0 -0.13796006065E+03  0.56492713466E+02 -0.21386901146E+03  0.26069974889E+03  0.00000000000E+00 0. -1.
         -1    1    3    3    0  502  0.10452335331E+02  0.12078639300E+02 -0.15974573250E+02  0.22590525265E+02  0.00000000000E+00 0.  1.
         11    1    5    5    0    0 -0.48961776700E+02  0.37148763679E+02 -0.31164552522E+03  0.31764794917E+03  0.00000000000E+00 0.  1.
        -11    1    5    5    0    0 -0.75800941265E+02 -0.26783912222E+02 -0.16225222760E+03  0.18107718247E+03  0.00000000000E+00 0. -1.
          3    1    6    6  503    0  0.13143481873E+03 -0.75502621030E+02  0.22682463618E+03  0.27280977426E+03  0.00000000000E+00 0. -1.
         -3    1    6    6    0  503  0.12083562456E+03 -0.34335831942E+01  0.97933905214E+02  0.15557662886E+03  0.00000000000E+00 0.  1.
<mgrwt>
<rscale>  0 0.11495410E+04</rscale>
<asrwt>0</asrwt>
<pdfrwt beam="1">  1        2 0.12226035E+00 0.11495410E+04</pdfrwt>
<pdfrwt beam="2">  1       -1 0.63955309E-01 0.11495410E+04</pdfrwt>
<totfact> 0.97390569E+01</totfact>
</mgrwt>
</event>
<event>
12    6  0.1529770E-007  0.3544242E+04  0.7818608E-02  0.8103385E-01
         -3   -1    0    0    0  501 -0.00000000000E+00  0.00000000000E+00  0.11963195035E+04  0.11963195035E+04  0.00000000000E+00 0.  1.
          2   -1    0    0  501    0  0.00000000000E+00 -0.00000000000E+00 -0.26250615782E+04  0.26250615782E+04  0.00000000000E+00 0. -1.
         24    2    1    2    0    0  0.50721332071E+02 -0.11523058734E+04  0.61495787758E+03  0.13094643897E+04  0.78372937005E+02 0.  0.
        254    2    1    2    0    0 -0.50721332071E+02  0.11523058734E+04 -0.20436999523E+04  0.25119166920E+04  0.89589870700E+03 0.  0.
         23    2    4    4    0    0  0.18488042842E+03  0.11220167137E+04 -0.19176395033E+04  0.22314126198E+04  0.93588119514E+02 0.  0.
         23    2    4    4    0    0 -0.23560176049E+03  0.30289159638E+02 -0.12606044893E+03  0.28050407223E+03  0.79785180411E+02 0.  0.
          2    1    3    3  502    0  0.92345382223E+01 -0.24950850765E+03  0.97371820272E+02  0.26799448403E+03  0.00000000000E+00 0. -1.
         -1    1    3    3    0  502  0.41486793848E+02 -0.90279736573E+03  0.51758605731E+03  0.10414699056E+04  0.00000000000E+00 0.  1.
         11    1    5    5    0    0  0.77181372538E+02  0.23503122228E+03 -0.40304877575E+03  0.47291114953E+03  0.00000000000E+00 0.  1.
        -11    1    5    5    0    0  0.10769905588E+03  0.88698549146E+03 -0.15145907276E+04  0.17585014702E+04  0.00000000000E+00 0. -1.
          2    1    6    6  503    0 -0.10639699085E+03  0.47388128066E+01 -0.13697903161E+02  0.10737973999E+03  0.00000000000E+00 0. -1.
         -2    1    6    6    0  503 -0.12920476964E+03  0.25550346831E+02 -0.11236254577E+03  0.17312433224E+03  0.00000000000E+00 0.  1.
<mgrwt>
<rscale>  0 0.35442417E+04</rscale>
<asrwt>0</asrwt>
<pdfrwt beam="1">  1        2 0.40385563E+00 0.35442417E+04</pdfrwt>
<pdfrwt beam="2">  1       -3 0.18404915E+00 0.35442417E+04</pdfrwt>
<totfact> 0.28373529E-01</totfact>
</mgrwt>
</event>
<event>
12    6  0.1529770E-007  0.1708668E+04  0.7818608E-02  0.8756436E-01
         -1   -1    0    0    0  501 -0.00000000000E+00  0.00000000000E+00  0.38758126595E+03  0.38758126595E+03  0.00000000000E+00 0.  1.
          2   -1    0    0  501    0  0.00000000000E+00 -0.00000000000E+00 -0.18831823378E+04  0.18831823378E+04  0.00000000000E+00 0. -1.
         24    2    1    2    0    0 -0.32452601118E+03  0.40945074560E+03 -0.96200321879E+03  0.10978424181E+04  0.82708748240E+02 0.  0.
        254    2    1    2    0    0  0.32452601118E+03 -0.40945074560E+03 -0.53359785308E+03  0.11729211857E+04  0.90446138333E+03 0.  0.
         23    2    4    4    0    0  0.54698153832E+03 -0.53721192032E+03 -0.40259880410E+03  0.87027774644E+03  0.86672419375E+02 0.  0.
         23    2    4    4    0    0 -0.22245552714E+03  0.12776117473E+03 -0.13099904898E+03  0.30264343921E+03  0.92859685241E+02 0.  0.
          2    1    3    3  502    0 -0.32184230206E+03  0.41356954741E+03 -0.95364520821E+03  0.10881458639E+04  0.00000000000E+00 0. -1.
         -1    1    3    3    0  502 -0.26837091241E+01 -0.41188018148E+01 -0.83580105825E+01  0.96965542307E+01  0.00000000000E+00 0.  1.
         11    1    5    5    0    0  0.41550920495E+03 -0.37909843217E+03 -0.33047791806E+03  0.65236429624E+03  0.00000000000E+00 0.  1.
        -11    1    5    5    0    0  0.13147233337E+03 -0.15811348815E+03 -0.72120886043E+02  0.21791345020E+03  0.00000000000E+00 0. -1.
          4    1    6    6  503    0 -0.16635474715E+03  0.12381497732E+03 -0.13301539246E+03  0.24636790607E+03  0.00000000000E+00 0. -1.
         -4    1    6    6    0  503 -0.56100779993E+02  0.39461974039E+01  0.20163434869E+01  0.56275533146E+02  0.00000000000E+00 0.  1.
<mgrwt>
<rscale>  0 0.17086675E+04</rscale>
<asrwt>0</asrwt>
<pdfrwt beam="1">  1        2 0.28972036E+00 0.17086675E+04</pdfrwt>
<pdfrwt beam="2">  1       -1 0.59627887E-01 0.17086675E+04</pdfrwt>
<totfact> 0.23961041E+01</totfact>
</mgrwt>
</event>
<event>
12    6  0.1529770E-007  0.2108089E+04  0.7818608E-02  0.8557688E-01
          2   -1    0    0  501    0  0.00000000000E+00  0.00000000000E+00  0.20687132558E+04  0.20687132558E+04  0.00000000000E+00 0. -1.
         -1   -1    0    0    0  501 -0.00000000000E+00 -0.00000000000E+00 -0.53705371207E+03  0.53705371207E+03  0.00000000000E+00 0.  1.
         24    2    1    2    0    0  0.52111037114E+02 -0.64173293159E+03  0.13136305587E+04  0.14646746323E+04  0.71482993155E+02 0.  0.
        254    2    1    2    0    0 -0.52111037114E+02  0.64173293159E+03  0.21802898504E+03  0.11410923355E+04  0.91652515740E+03 0.  0.
         23    2    4    4    0    0  0.34777961938E+03  0.51579165176E+03 -0.58409086868E+02  0.63060225607E+03  0.85181525287E+02 0.  0.
         23    2    4    4    0    0 -0.39989065649E+03  0.12594127982E+03  0.27643807191E+03  0.51049007943E+03  0.91697167260E+02 0.  0.
          2    1    3    3  502    0  0.59363676303E+02 -0.44678654125E+03  0.86227317711E+03  0.97296315011E+03  0.00000000000E+00 0. -1.
         -1    1    3    3    0  502 -0.72526391888E+01 -0.19494639033E+03  0.45135738156E+03  0.49171148224E+03  0.00000000000E+00 0.  1.
         11    1    5    5    0    0  0.14032165198E+03  0.23894580424E+03 -0.64858171078E+02  0.28459066347E+03  0.00000000000E+00 0. -1.
        -11    1    5    5    0    0  0.20745796740E+03  0.27684584752E+03  0.64490842098E+01  0.34601159260E+03  0.00000000000E+00 0.  1.
          1    1    6    6  503    0 -0.49056140834E+02  0.41889474772E+02  0.68493514065E+02  0.94088227314E+02  0.00000000000E+00 0. -1.
         -1    1    6    6    0  503 -0.35083451566E+03  0.84051805052E+02  0.20794455785E+03  0.41640185212E+03  0.00000000000E+00 0.  1.
<mgrwt>
<rscale>  0 0.21080893E+04</rscale>
<asrwt>0</asrwt>
<pdfrwt beam="1">  1        2 0.31826357E+00 0.21080893E+04</pdfrwt>
<pdfrwt beam="2">  1       -1 0.82623649E-01 0.21080893E+04</pdfrwt>
<totfact> 0.93344746E+00</totfact>
</mgrwt>
</event>
<event>
12    6  0.1529770E-007  0.1680758E+04  0.7818608E-02  0.8772416E-01
         -1   -1    0    0    0  501 -0.00000000000E+00  0.00000000000E+00  0.50921019679E+03  0.50921019679E+03  0.00000000000E+00 0.  1.
          2   -1    0    0  501    0  0.00000000000E+00 -0.00000000000E+00 -0.13869254190E+04  0.13869254190E+04  0.00000000000E+00 0. -1.
         24    2    1    2    0    0 -0.53709093694E+03 -0.20750722368E+03 -0.15113917781E+03  0.60056093908E+03  0.79400680438E+02 0.  0.
        254    2    1    2    0    0  0.53709093694E+03  0.20750722368E+03 -0.72657604440E+03  0.12955746767E+04  0.90502766380E+03 0.  0.
         23    2    4    4    0    0  0.12355706059E+03  0.39523260710E+03  0.12033348445E+02  0.42380757946E+03  0.89403031224E+02 0.  0.
         23    2    4    4    0    0  0.41353387636E+03 -0.18772538342E+03 -0.73860939285E+03  0.87176709726E+03  0.90459660610E+02 0.  0.
          4    1    3    3  502    0 -0.50267515807E+02 -0.45742964281E+02 -0.23632367947E+02  0.71956450311E+02  0.00000000000E+00 0. -1.
         -3    1    3    3    0  502 -0.48682342113E+03 -0.16176425940E+03 -0.12750680987E+03  0.52860448877E+03  0.00000000000E+00 0.  1.
         11    1    5    5    0    0  0.23199538489E+02  0.22361136163E+03  0.81616615291E+01  0.22495971274E+03  0.00000000000E+00 0.  1.
        -11    1    5    5    0    0  0.10035752210E+03  0.17162124547E+03  0.38716869156E+01  0.19884786672E+03  0.00000000000E+00 0. -1.
          3    1    6    6  503    0  0.10560355633E+03 -0.65502175418E+02 -0.27676627692E+03  0.30338460431E+03  0.00000000000E+00 0. -1.
         -3    1    6    6    0  503  0.30793032002E+03 -0.12222320800E+03 -0.46184311593E+03  0.56838249295E+03  0.00000000000E+00 0.  1.
<mgrwt>
<rscale>  0 0.16807576E+04</rscale>
<asrwt>0</asrwt>
<pdfrwt beam="1">  1        2 0.21337314E+00 0.16807576E+04</pdfrwt>
<pdfrwt beam="2">  1       -1 0.78340032E-01 0.16807576E+04</pdfrwt>
<totfact> 0.26083260E+01</totfact>
</mgrwt>
</event>
<event>
12    6  0.1529770E-007  0.1201222E+04  0.7818608E-02  0.9111788E-01
          2   -1    0    0  501    0  0.00000000000E+00  0.00000000000E+00  0.10959764702E+04  0.10959764702E+04  0.00000000000E+00 0. -1.
         -1   -1    0    0    0  501 -0.00000000000E+00 -0.00000000000E+00 -0.32914335195E+03  0.32914335195E+03  0.00000000000E+00 0.  1.
         24    2    1    2    0    0  0.33189691268E+02 -0.14009080486E+03  0.41492319109E+03  0.44819664842E+03  0.89397941502E+02 0.  0.
        254    2    1    2    0    0 -0.33189691268E+02  0.14009080486E+03  0.35190992717E+03  0.97692317374E+03  0.89989516130E+03 0.  0.
         23    2    4    4    0    0 -0.43387203281E+03  0.17842349724E+03  0.29012241732E+03  0.55923064106E+03  0.92130383963E+02 0.  0.
         23    2    4    4    0    0  0.40068234155E+03 -0.38332692378E+02  0.61787509852E+02  0.41769253268E+03  0.92917282297E+02 0.  0.
          2    1    3    3  502    0  0.39695029421E+02 -0.24596899280E+02  0.18514668015E+03  0.19094500775E+03  0.00000000000E+00 0. -1.
         -1    1    3    3    0  502 -0.65053381526E+01 -0.11549390558E+03  0.22977651094E+03  0.25725164067E+03  0.00000000000E+00 0.  1.
         11    1    5    5    0    0 -0.86736402860E+02  0.76654452790E+02  0.82395334299E+02  0.14208483321E+03  0.00000000000E+00 0. -1.
        -11    1    5    5    0    0 -0.34713562995E+03  0.10176904445E+03  0.20772708302E+03  0.41714580786E+03  0.00000000000E+00 0.  1.
          4    1    6    6  503    0  0.36159666417E+03 -0.62532927463E+02  0.51205781973E+02  0.37051929324E+03  0.00000000000E+00 0. -1.
         -4    1    6    6    0  503  0.39085677376E+02  0.24200235085E+02  0.10581727879E+02  0.47173239437E+02  0.00000000000E+00 0.  1.
<mgrwt>
<rscale>  0 0.12012217E+04</rscale>
<asrwt>0</asrwt>
<pdfrwt beam="1">  1        2 0.16861176E+00 0.12012217E+04</pdfrwt>
<pdfrwt beam="2">  1       -1 0.50637439E-01 0.12012217E+04</pdfrwt>
<totfact> 0.96562235E+01</totfact>
</mgrwt>
</event>
<event>
12    6  0.1529770E-007  0.1204828E+04  0.7818608E-02  0.9108641E-01
         -1   -1    0    0    0  501 -0.00000000000E+00  0.00000000000E+00  0.31292843044E+03  0.31292843044E+03  0.00000000000E+00 0.  1.
          2   -1    0    0  501    0  0.00000000000E+00 -0.00000000000E+00 -0.11596978596E+04  0.11596978596E+04  0.00000000000E+00 0. -1.
         24    2    1    2    0    0  0.32537672418E+02  0.16994271427E+03 -0.44385147451E+03  0.48298055625E+03  0.79541561653E+02 0.  0.
        254    2    1    2    0    0 -0.32537672418E+02 -0.16994271427E+03 -0.40291795466E+03  0.98964573380E+03  0.88719590507E+03 0.  0.
         23    2    4    4    0    0 -0.33738028903E+03  0.18677019449E+03 -0.30782751912E+03  0.50172862693E+03  0.90913522492E+02 0.  0.
         23    2    4    4    0    0  0.30484261661E+03 -0.35671290877E+03 -0.95090435538E+02  0.48791710687E+03  0.94062702818E+02 0.  0.
          2    1    3    3  502    0  0.47302895318E+02  0.16214455198E+03 -0.36229876384E+03  0.39973593023E+03  0.00000000000E+00 0. -1.
         -1    1    3    3    0  502 -0.14765222900E+02  0.77981622935E+01 -0.81552710676E+02  0.83244626019E+02  0.00000000000E+00 0.  1.
         11    1    5    5    0    0 -0.17837132109E+03  0.62978495816E+02 -0.19089734231E+03  0.26874600355E+03  0.00000000000E+00 0.  1.
        -11    1    5    5    0    0 -0.15900896794E+03  0.12379169868E+03 -0.11693017681E+03  0.23298262338E+03  0.00000000000E+00 0. -1.
          3    1    6    6  503    0  0.73321219293E+02 -0.12191685231E+03 -0.66185205525E+02  0.15690825824E+03  0.00000000000E+00 0. -1.
         -3    1    6    6    0  503  0.23152139732E+03 -0.23479605646E+03 -0.28905230013E+02  0.33100884863E+03  0.00000000000E+00 0.  1.
<mgrwt>
<rscale>  0 0.12048277E+04</rscale>
<asrwt>0</asrwt>
<pdfrwt beam="1">  1        2 0.17841506E+00 0.12048277E+04</pdfrwt>
<pdfrwt beam="2">  1       -1 0.48142835E-01 0.12048277E+04</pdfrwt>
<totfact> 0.97124080E+01</totfact>
</mgrwt>
</event>
<event>
12    6  0.1529770E-007  0.1898145E+04  0.7818608E-02  0.8655780E-01
          2   -1    0    0  501    0  0.00000000000E+00  0.00000000000E+00  0.63445789803E+03  0.63445789803E+03  0.00000000000E+00 0. -1.
         -1   -1    0    0    0  501 -0.00000000000E+00 -0.00000000000E+00 -0.14196974420E+04  0.14196974420E+04  0.00000000000E+00 0.  1.
         24    2    1    2    0    0 -0.52749403207E+03 -0.49330724194E+03 -0.17101309979E+03  0.74656669167E+03  0.80711560430E+02 0.  0.
        254    2    1    2    0    0  0.52749403207E+03  0.49330724194E+03 -0.61422644422E+03  0.13075886484E+04  0.90050650183E+03 0.  0.
         23    2    4    4    0    0  0.66728298255E+03  0.43462455642E+03 -0.15657548742E+03  0.81644067891E+03  0.88850520889E+02 0.  0.
         23    2    4    4    0    0 -0.13978895048E+03  0.58682685513E+02 -0.45765095679E+03  0.49114796950E+03  0.93794037308E+02 0.  0.
          2    1    3    3  502    0 -0.23065190553E+03 -0.19373781804E+03 -0.10881429557E+03  0.32027362455E+03  0.00000000000E+00 0. -1.
         -1    1    3    3    0  502 -0.29684212654E+03 -0.29956942389E+03 -0.62198804222E+02  0.42629306711E+03  0.00000000000E+00 0.  1.
         11    1    5    5    0    0  0.47382210929E+03  0.35243254886E+03 -0.12894200890E+03  0.60443538480E+03  0.00000000000E+00 0. -1.
        -11    1    5    5    0    0  0.19346087327E+03  0.82192007562E+02 -0.27633478523E+02  0.21200529410E+03  0.00000000000E+00 0.  1.
          2    1    6    6  503    0 -0.81023755257E+02  0.79970117143E+02 -0.32852538973E+03  0.34769095509E+03  0.00000000000E+00 0.  1.
         -2    1    6    6    0  503 -0.58765195219E+02 -0.21287431630E+02 -0.12912556706E+03  0.14345701441E+03  0.00000000000E+00 0. -1.
<mgrwt>
<rscale>  0 0.18981446E+04</rscale>
<asrwt>0</asrwt>
<pdfrwt beam="1">  1        2 0.97608908E-01 0.18981446E+04</pdfrwt>
<pdfrwt beam="2">  1       -1 0.21841499E+00 0.18981446E+04</pdfrwt>
<totfact> 0.55879516E+00</totfact>
</mgrwt>
</event>
<event>
12    6  0.1529770E-007  0.1064235E+04  0.7818608E-02  0.9240770E-01
          2   -1    0    0  501    0  0.00000000000E+00  0.00000000000E+00  0.23498923755E+03  0.23498923755E+03  0.00000000000E+00 0. -1.
         -3   -1    0    0    0  501 -0.00000000000E+00 -0.00000000000E+00 -0.12049437171E+04  0.12049437171E+04  0.00000000000E+00 0.  1.
         24    2    1    2    0    0  0.56239194849E+02 -0.11266410419E+03 -0.11320179129E+03  0.18742782260E+03  0.80364766669E+02 0.  0.
        254    2    1    2    0    0 -0.56239194849E+02  0.11266410419E+03 -0.85675268821E+03  0.12525051320E+04  0.90492424521E+03 0.  0.
         23    2    4    4    0    0  0.13163630141E+03 -0.21981779393E+03  0.38488720231E+02  0.27481514025E+03  0.91618782718E+02 0.  0.
         23    2    4    4    0    0 -0.18787549626E+03  0.33248189812E+03 -0.89524140845E+03  0.97768999177E+03  0.92623571229E+02 0.  0.
          2    1    3    3  502    0  0.51158131114E+02 -0.12447371935E+03 -0.93375990964E+02  0.16379846421E+03  0.00000000000E+00 0. -1.
         -1    1    3    3    0  502  0.50810637347E+01  0.11809615167E+02 -0.19825800330E+02  0.23629358387E+02  0.00000000000E+00 0.  1.
         11    1    5    5    0    0  0.13763558060E+03 -0.18064867452E+03  0.12547505445E+02  0.22745315242E+03  0.00000000000E+00 0. -1.
        -11    1    5    5    0    0 -0.59992791923E+01 -0.39169119409E+02  0.25941214787E+02  0.47361987825E+02  0.00000000000E+00 0.  1.
          3    1    6    6  503    0 -0.12891084320E+03  0.16625023566E+03 -0.39949055486E+03  0.45149734193E+03  0.00000000000E+00 0. -1.
         -3    1    6    6    0  503 -0.58964653063E+02  0.16623166246E+03 -0.49575085359E+03  0.52619264984E+03  0.00000000000E+00 0.  1.
<mgrwt>
<rscale>  0 0.10642346E+04</rscale>
<asrwt>0</asrwt>
<pdfrwt beam="1">  1        2 0.36152190E-01 0.10642346E+04</pdfrwt>
<pdfrwt beam="2">  1       -3 0.18537596E+00 0.10642346E+04</pdfrwt>
<totfact> 0.16269623E+01</totfact>
</mgrwt>
</event>
<event>
12    6  0.1529770E-007  0.1134886E+04  0.7818608E-02  0.9171841E-01
          2   -1    0    0  501    0  0.00000000000E+00  0.00000000000E+00  0.15916963536E+04  0.15916963536E+04  0.00000000000E+00 0. -1.
         -1   -1    0    0    0  501 -0.00000000000E+00 -0.00000000000E+00 -0.20229473806E+03  0.20229473806E+03  0.00000000000E+00 0.  1.
         24    2    1    2    0    0 -0.14622274419E+03  0.19658546395E+01  0.46185976983E+03  0.49084302204E+03  0.78914319358E+02 0.  0.
        254    2    1    2    0    0  0.14622274419E+03 -0.19658546395E+01  0.92754184571E+03  0.13031480696E+04  0.90359064863E+03 0.  0.
         23    2    4    4    0    0 -0.37188028874E+03 -0.55585776848E+02  0.38194685067E+03  0.54340501057E+03  0.89559371571E+02 0.  0.
         23    2    4    4    0    0  0.51810303293E+03  0.53619922208E+02  0.54559499504E+03  0.75974305904E+03  0.90718070813E+02 0.  0.
          2    1    3    3  502    0 -0.11141113947E+03  0.25000894491E+02  0.24903665917E+03  0.27396485967E+03  0.00000000000E+00 0. -1.
         -1    1    3    3    0  502 -0.34811604719E+02 -0.23035039851E+02  0.21282311066E+03  0.21687816237E+03  0.00000000000E+00 0.  1.
         11    1    5    5    0    0 -0.19714816500E+03  0.88065277283E+01  0.16284735137E+03  0.25585975405E+03  0.00000000000E+00 0.  1.
        -11    1    5    5    0    0 -0.17473212374E+03 -0.64392304576E+02  0.21909949930E+03  0.28754525652E+03  0.00000000000E+00 0. -1.
          4    1    6    6  503    0  0.28304292357E+03  0.64706949999E+02  0.34151237095E+03  0.44825326042E+03  0.00000000000E+00 0. -1.
         -4    1    6    6    0  503  0.23506010935E+03 -0.11087027791E+02  0.20408262409E+03  0.31148979863E+03  0.00000000000E+00 0.  1.
<mgrwt>
<rscale>  0 0.11348864E+04</rscale>
<asrwt>0</asrwt>
<pdfrwt beam="1">  1        2 0.24487635E+00 0.11348864E+04</pdfrwt>
<pdfrwt beam="2">  1       -1 0.31122268E-01 0.11348864E+04</pdfrwt>
<totfact> 0.12164635E+02</totfact>
</mgrwt>
</event>
<event>
12    6  0.1529770E-007  0.2728838E+04  0.7818608E-02  0.8325708E-01
          2   -1    0    0  501    0  0.00000000000E+00  0.00000000000E+00  0.13594302412E+04  0.13594302412E+04  0.00000000000E+00 0. -1.
         -1   -1    0    0    0  501 -0.00000000000E+00 -0.00000000000E+00 -0.13694257171E+04  0.13694257171E+04  0.00000000000E+00 0.  1.
         24    2    1    2    0    0 -0.92833457434E+03  0.33722085340E+03  0.69756529140E+03  0.12116151023E+04  0.76751771226E+02 0.  0.
        254    2    1    2    0    0  0.92833457434E+03 -0.33722085340E+03 -0.70756076727E+03  0.15172408560E+04  0.90876542070E+03 0.  0.
         23    2    4    4    0    0  0.43261364253E+03 -0.61114066398E+03 -0.29091554711E+03  0.80828287945E+03  0.89676545338E+02 0.  0.
         23    2    4    4    0    0  0.49572093181E+03  0.27391981058E+03 -0.41664522016E+03  0.70895797655E+03  0.90867310810E+02 0.  0.
          4    1    3    3  502    0 -0.70586283728E+03  0.25229127389E+03  0.56823576346E+03  0.94063016898E+03  0.00000000000E+00 0. -1.
         -3    1    3    3    0  502 -0.22247173706E+03  0.84929579515E+02  0.12932952794E+03  0.27098493328E+03  0.00000000000E+00 0.  1.
         11    1    5    5    0    0  0.18636135431E+03 -0.33248321524E+03 -0.12551811312E+03  0.40128598221E+03  0.00000000000E+00 0. -1.
        -11    1    5    5    0    0  0.24625228821E+03 -0.27865744875E+03 -0.16539743399E+03  0.40699689724E+03  0.00000000000E+00 0.  1.
          2    1    6    6  503    0  0.39634206098E+03  0.21279008078E+03 -0.37303744603E+03  0.58440019158E+03  0.00000000000E+00 0. -1.
         -2    1    6    6    0  503  0.99378870828E+02  0.61129729793E+02 -0.43607774133E+02  0.12455778497E+03  0.00000000000E+00 0.  1.
<mgrwt>
<rscale>  0 0.27288377E+04</rscale>
<asrwt>0</asrwt>
<pdfrwt beam="1">  1        2 0.20914311E+00 0.27288377E+04</pdfrwt>
<pdfrwt beam="2">  1       -1 0.21068088E+00 0.27288377E+04</pdfrwt>
<totfact> 0.19364340E+00</totfact>
</mgrwt>
</event>
<event>
12    6  0.1529770E-007  0.1858870E+04  0.7818608E-02  0.8675605E-01
          2   -1    0    0  501    0  0.00000000000E+00  0.00000000000E+00  0.89798136189E+03  0.89798136189E+03  0.00000000000E+00 0. -1.
         -3   -1    0    0    0  501 -0.00000000000E+00 -0.00000000000E+00 -0.96199030489E+03  0.96199030489E+03  0.00000000000E+00 0.  1.
         24    2    1    2    0    0 -0.32305615394E+02  0.65512972413E+03  0.25232917891E+03  0.70733454021E+03  0.80084511757E+02 0.  0.
        254    2    1    2    0    0  0.32305615394E+02 -0.65512972413E+03 -0.31633812191E+03  0.11526371266E+04  0.89345617126E+03 0.  0.
         23    2    4    4    0    0 -0.18490917222E+03 -0.13305869063E+02  0.20671055208E+03  0.29181752130E+03  0.89776195492E+02 0.  0.
         23    2    4    4    0    0  0.21721478761E+03 -0.64182385506E+03 -0.52304867398E+03  0.86081960528E+03  0.91161135294E+02 0.  0.
          2    1    3    3  502    0  0.15714758642E+02  0.42697628092E+03  0.17465343015E+03  0.46158370722E+03  0.00000000000E+00 0. -1.
         -1    1    3    3    0  502 -0.48020374036E+02  0.22815344320E+03  0.77675748756E+02  0.24575083299E+03  0.00000000000E+00 0.  1.
         11    1    5    5    0    0 -0.18129613897E+03 -0.73103535792E+00  0.15514653994E+03  0.23861951571E+03  0.00000000000E+00 0. -1.
        -11    1    5    5    0    0 -0.36130332415E+01 -0.12574833706E+02  0.51564012132E+02  0.53198005593E+02  0.00000000000E+00 0.  1.
          1    1    6    6  503    0  0.22107471113E+03 -0.63288910454E+03 -0.50162094795E+03  0.83728503030E+03  0.00000000000E+00 0. -1.
         -1    1    6    6    0  503 -0.38599235153E+01 -0.89347505275E+01 -0.21427726028E+02  0.23534574975E+02  0.00000000000E+00 0.  1.
<mgrwt>
<rscale>  0 0.18588699E+04</rscale>
<asrwt>0</asrwt>
<pdfrwt beam="1">  1        2 0.13815098E+00 0.18588699E+04</pdfrwt>
<pdfrwt beam="2">  1       -3 0.14799851E+00 0.18588699E+04</pdfrwt>
<totfact> 0.58235781E+00</totfact>
</mgrwt>
</event>
<event>
12    6  0.1705422E-007  0.2169278E+04  0.7818608E-02  0.8531325E-01
         -1   -1    0    0    0  501 -0.00000000000E+00  0.00000000000E+00  0.47496495476E+03  0.47496495476E+03  0.00000000000E+00 0.  1.
          2   -1    0    0  501    0  0.00000000000E+00 -0.00000000000E+00 -0.24769024265E+04  0.24769024265E+04  0.00000000000E+00 0. -1.
         24    2    1    2    0    0 -0.30275456230E+03 -0.26008840285E+03 -0.19199349826E+04  0.19624723551E+04  0.76427120857E+02 0.  0.
        254    2    1    2    0    0  0.30275456230E+03  0.26008840285E+03 -0.82002489127E+02  0.98939502615E+03  0.90159403684E+03 0.  0.
         23    2    4    4    0    0 -0.22830643301E+03  0.29258570510E+03 -0.20697456783E+03  0.43495992293E+03  0.92851713188E+02 0.  0.
         23    2    4    4    0    0  0.53106099531E+03 -0.32497302249E+02  0.12497207871E+03  0.55443510323E+03  0.93265255288E+02 0.  0.
          2    1    3    3  502    0 -0.20962739402E+03 -0.18606153193E+03 -0.11664253415E+04  0.11996293658E+04  0.00000000000E+00 0. -1.
         -1    1    3    3    0  502 -0.93127168285E+02 -0.74026870920E+02 -0.75350964103E+03  0.76284298923E+03  0.00000000000E+00 0.  1.
         11    1    5    5    0    0 -0.35494097627E+02  0.49043624946E+01 -0.13715332921E+02  0.38366575231E+02  0.00000000000E+00 0.  1.
        -11    1    5    5    0    0 -0.19281233538E+03  0.28768134260E+03 -0.19325923491E+03  0.39659334769E+03  0.00000000000E+00 0. -1.
          1    1    6    6  503    0  0.50847563691E+03 -0.12348287232E+02  0.10885132362E+03  0.52014283056E+03  0.00000000000E+00 0. -1.
         -1    1    6    6    0  503  0.22585358396E+02 -0.20149015017E+02  0.16120755087E+02  0.34292272666E+02  0.00000000000E+00 0.  1.
<mgrwt>
<rscale>  0 0.21692781E+04</rscale>
<asrwt>0</asrwt>
<pdfrwt beam="1">  1        2 0.38106192E+00 0.21692781E+04</pdfrwt>
<pdfrwt beam="2">  1       -1 0.73071530E-01 0.21692781E+04</pdfrwt>
<totfact> 0.70686167E+00</totfact>
</mgrwt>
</event>
<event>
12    6  0.1529770E-007  0.2535861E+04  0.7818608E-02  0.8390320E-01
          2   -1    0    0  501    0  0.00000000000E+00  0.00000000000E+00  0.12195429134E+04  0.12195429134E+04  0.00000000000E+00 0. -1.
         -1   -1    0    0    0  501 -0.00000000000E+00 -0.00000000000E+00 -0.13182383242E+04  0.13182383242E+04  0.00000000000E+00 0.  1.
         24    2    1    2    0    0 -0.81558743661E+03  0.11545948265E+03  0.69733342735E+03  0.10825382116E+04  0.84269280914E+02 0.  0.
        254    2    1    2    0    0  0.81558743661E+03 -0.11545948265E+03 -0.79602883818E+03  0.14552430260E+04  0.89752804668E+03 0.  0.
         23    2    4    4    0    0  0.12811534995E+03 -0.16751411614E+03 -0.72002343951E+03  0.75562935301E+03  0.89818949487E+02 0.  0.
         23    2    4    4    0    0  0.68747208666E+03  0.52054633490E+02 -0.76005398668E+02  0.69961367298E+03  0.91405229479E+02 0.  0.
          2    1    3    3  502    0 -0.36091922314E+03  0.54993648560E+02  0.36396156881E+03  0.51551431657E+03  0.00000000000E+00 0. -1.
         -1    1    3    3    0  502 -0.45466821347E+03  0.60465834090E+02  0.33337185854E+03  0.56702389500E+03  0.00000000000E+00 0.  1.
         11    1    5    5    0    0  0.87638418241E+02 -0.14722844957E+03 -0.65031918443E+03  0.67251152433E+03  0.00000000000E+00 0.  1.
        -11    1    5    5    0    0  0.40476931708E+02 -0.20285666572E+02 -0.69704255081E+02  0.83117828684E+02  0.00000000000E+00 0. -1.
          2    1    6    6  503    0  0.21180688394E+03  0.19977103283E+02  0.18648059574E+02  0.21356261580E+03  0.00000000000E+00 0. -1.
         -2    1    6    6    0  503  0.47566520272E+03  0.32077530207E+02 -0.94653458242E+02  0.48605105718E+03  0.00000000000E+00 0.  1.
<mgrwt>
<rscale>  0 0.25358614E+04</rscale>
<asrwt>0</asrwt>
<pdfrwt beam="1">  1        2 0.18762199E+00 0.25358614E+04</pdfrwt>
<pdfrwt beam="2">  1       -1 0.20280590E+00 0.25358614E+04</pdfrwt>
<totfact> 0.26899254E+00</totfact>
</mgrwt>
</event>
<event>
12    6  0.1529770E-007  0.1976137E+04  0.7818608E-02  0.8617859E-01
          2   -1    0    0  501    0  0.00000000000E+00  0.00000000000E+00  0.12788489101E+04  0.12788489101E+04  0.00000000000E+00 0. -1.
         -1   -1    0    0    0  501 -0.00000000000E+00 -0.00000000000E+00 -0.76340459936E+03  0.76340459936E+03  0.00000000000E+00 0.  1.
         24    2    1    2    0    0  0.53389273605E+03  0.16524161740E+03  0.76523005895E+03  0.94999606189E+03  0.67596070680E+02 0.  0.
        254    2    1    2    0    0 -0.53389273605E+03 -0.16524161740E+03 -0.24978574823E+03  0.10922574476E+04  0.90459226505E+03 0.  0.
         23    2    4    4    0    0 -0.29497892940E+03 -0.34727478961E+03  0.23025425630E+03  0.51836707924E+03  0.89861326492E+02 0.  0.
         23    2    4    4    0    0 -0.23891380664E+03  0.18203317221E+03 -0.48004000452E+03  0.57389036832E+03  0.93251627947E+02 0.  0.
          4    1    3    3  502    0  0.42527678338E+03  0.13628184453E+03  0.65341308608E+03  0.79144282465E+03  0.00000000000E+00 0. -1.
         -3    1    3    3    0  502  0.10861595267E+03  0.28959772876E+02  0.11181697286E+03  0.15855323724E+03  0.00000000000E+00 0.  1.
         11    1    5    5    0    0 -0.55638435878E+02 -0.21460086171E+02  0.37941652636E+02  0.70680547891E+02  0.00000000000E+00 0. -1.
        -11    1    5    5    0    0 -0.23934049353E+03 -0.32581470344E+03  0.19231260366E+03  0.44768653134E+03  0.00000000000E+00 0.  1.
          4    1    6    6  503    0 -0.59907527602E+02  0.10063215800E+01 -0.91865958804E+02  0.10967806952E+03  0.00000000000E+00 0. -1.
         -4    1    6    6    0  503 -0.17900627904E+03  0.18102685063E+03 -0.38817404572E+03  0.46421229880E+03  0.00000000000E+00 0.  1.
<mgrwt>
<rscale>  0 0.19761368E+04</rscale>
<asrwt>0</asrwt>
<pdfrwt beam="1">  1        2 0.19674599E+00 0.19761368E+04</pdfrwt>
<pdfrwt beam="2">  1       -1 0.11744686E+00 0.19761368E+04</pdfrwt>
<totfact> 0.11776661E+01</totfact>
</mgrwt>
</event>
<event>
12    6  0.1529770E-007  0.2324989E+04  0.7818608E-02  0.8468133E-01
         -1   -1    0    0    0  501 -0.00000000000E+00  0.00000000000E+00  0.10044877082E+04  0.10044877082E+04  0.00000000000E+00 0.  1.
          2   -1    0    0  501    0  0.00000000000E+00 -0.00000000000E+00 -0.13453557156E+04  0.13453557156E+04  0.00000000000E+00 0. -1.
         24    2    1    2    0    0  0.53240314211E+03  0.53657434831E+03  0.49521678988E+03  0.90744123026E+03  0.82733188109E+02 0.  0.
        254    2    1    2    0    0 -0.53240314211E+03 -0.53657434831E+03 -0.83608479727E+03  0.14424021935E+04  0.90006731011E+03 0.  0.
         23    2    4    4    0    0 -0.14611613416E+03 -0.47773714577E+03  0.63296652883E+01  0.50858879620E+03  0.95077830474E+02 0.  0.
         23    2    4    4    0    0 -0.38628700795E+03 -0.58837202541E+02 -0.84241446256E+03  0.93381339735E+03  0.98315133265E+02 0.  0.
          2    1    3    3  502    0  0.79940830211E+02  0.99678552072E+02  0.51757136381E+02  0.13785917178E+03  0.00000000000E+00 0. -1.
         -1    1    3    3    0  502  0.45246231190E+03  0.43689579624E+03  0.44345965350E+03  0.76958205848E+03  0.00000000000E+00 0.  1.
         11    1    5    5    0    0 -0.80534368142E+01 -0.10537038895E+02  0.16675405094E+02  0.21306247165E+02  0.00000000000E+00 0. -1.
        -11    1    5    5    0    0 -0.13806269734E+03 -0.46720010687E+03 -0.10345739806E+02  0.48728254903E+03  0.00000000000E+00 0.  1.
          2    1    6    6  503    0 -0.14701940219E+03  0.16777367317E+01 -0.22371143501E+03  0.26770193420E+03  0.00000000000E+00 0. -1.
         -2    1    6    6    0  503 -0.23926760577E+03 -0.60514939273E+02 -0.61870302755E+03  0.66611146316E+03  0.00000000000E+00 0.  1.
<mgrwt>
<rscale>  0 0.23249888E+04</rscale>
<asrwt>0</asrwt>
<pdfrwt beam="1">  1        2 0.20697780E+00 0.23249888E+04</pdfrwt>
<pdfrwt beam="2">  1       -1 0.15453657E+00 0.23249888E+04</pdfrwt>
<totfact> 0.51612301E+00</totfact>
</mgrwt>
</event>
<event>
12    6  0.1529770E-007  0.1036890E+04  0.7818608E-02  0.9268985E-01
          2   -1    0    0  501    0  0.00000000000E+00  0.00000000000E+00  0.84910016246E+03  0.84910016246E+03  0.00000000000E+00 0. -1.
         -1   -1    0    0    0  501 -0.00000000000E+00 -0.00000000000E+00 -0.31655303047E+03  0.31655303047E+03  0.00000000000E+00 0.  1.
         24    2    1    2    0    0  0.90545427981E+02 -0.27527140076E+02  0.26532388947E+02  0.12676483088E+03  0.80057084114E+02 0.  0.
        254    2    1    2    0    0 -0.90545427981E+02  0.27527140076E+02  0.50601474305E+03  0.10388883620E+04  0.90237569262E+03 0.  0.
         23    2    4    4    0    0  0.11718109090E+02  0.88780209142E+02  0.74516310459E+03  0.75560488123E+03  0.87472535529E+02 0.  0.
         23    2    4    4    0    0 -0.10226353707E+03 -0.61253069066E+02 -0.23914836155E+03  0.28328348081E+03  0.94062862954E+02 0.  0.
          4    1    3    3  502    0  0.74463841495E+02  0.12223239627E+02  0.34794556163E+02  0.83095922980E+02  0.00000000000E+00 0. -1.
         -3    1    3    3    0  502  0.16081586486E+02 -0.39750379704E+02 -0.82621672166E+01  0.43668907905E+02  0.00000000000E+00 0.  1.
         11    1    5    5    0    0  0.30861018198E+02  0.97647329581E+02  0.56447333285E+03  0.57368767367E+03  0.00000000000E+00 0. -1.
        -11    1    5    5    0    0 -0.19142909108E+02 -0.88671204395E+01  0.18068977174E+03  0.18191720756E+03  0.00000000000E+00 0.  1.
          1    1    6    6  503    0 -0.95873835499E+02 -0.49447348394E+02 -0.11226816943E+03  0.15569513308E+03  0.00000000000E+00 0. -1.
         -1    1    6    6    0  503 -0.63897015730E+01 -0.11805720672E+02 -0.12688019212E+03  0.12758834774E+03  0.00000000000E+00 0.  1.
<mgrwt>
<rscale>  0 0.10368900E+04</rscale>
<asrwt>0</asrwt>
<pdfrwt beam="1">  1        2 0.13063079E+00 0.10368900E+04</pdfrwt>
<pdfrwt beam="2">  1       -1 0.48700467E-01 0.10368900E+04</pdfrwt>
<totfact> 0.15244383E+02</totfact>
</mgrwt>
</event>
<event>
12    6  0.1529770E-007  0.2108892E+04  0.7818608E-02  0.8557336E-01
         -1   -1    0    0    0  501 -0.00000000000E+00  0.00000000000E+00  0.55232307834E+03  0.55232307834E+03  0.00000000000E+00 0.  1.
          2   -1    0    0  501    0  0.00000000000E+00 -0.00000000000E+00 -0.20130546686E+04  0.20130546686E+04  0.00000000000E+00 0. -1.
         24    2    1    2    0    0  0.84902098240E+03  0.10334298188E+03 -0.53581916467E+03  0.10125833179E+04  0.81892600722E+02 0.  0.
        254    2    1    2    0    0 -0.84902098240E+03 -0.10334298188E+03 -0.92491242560E+03  0.15527944290E+04  0.90784973607E+03 0.  0.
         23    2    4    4    0    0 -0.20019319335E+02  0.16247551513E+03 -0.58377424372E+03  0.61313171442E+03  0.91318483474E+02 0.  0.
         23    2    4    4    0    0 -0.82900166307E+03 -0.26581849701E+03 -0.34113818187E+03  0.93966271460E+03  0.93206906136E+02 0.  0.
          2    1    3    3  502    0  0.19780943446E+03  0.36703774641E+02 -0.16530977774E+03  0.26039021113E+03  0.00000000000E+00 0. -1.
         -1    1    3    3    0  502  0.65121154794E+03  0.66639207240E+02 -0.37050938693E+03  0.75219310680E+03  0.00000000000E+00 0.  1.
         11    1    5    5    0    0 -0.11227522220E+02 -0.92660650269E+01 -0.31451339483E+02  0.34656946946E+02  0.00000000000E+00 0. -1.
        -11    1    5    5    0    0 -0.87917971150E+01  0.17174158016E+03 -0.55232290424E+03  0.57847476747E+03  0.00000000000E+00 0.  1.
          3    1    6    6  503    0 -0.77361455620E+02 -0.11339063345E+02 -0.65599245438E+01  0.78462741369E+02  0.00000000000E+00 0. -1.
         -3    1    6    6    0  503 -0.75164020745E+03 -0.25447943367E+03 -0.33457825733E+03  0.86119997323E+03  0.00000000000E+00 0.  1.
<mgrwt>
<rscale>  0 0.21088922E+04</rscale>
<asrwt>0</asrwt>
<pdfrwt beam="1">  1        2 0.30970072E+00 0.21088922E+04</pdfrwt>
<pdfrwt beam="2">  1       -1 0.84972781E-01 0.21088922E+04</pdfrwt>
<totfact> 0.94359140E+00</totfact>
</mgrwt>
</event>
<event>
12    6  0.1529770E-007  0.2205418E+04  0.7818608E-02  0.8516176E-01
         -1   -1    0    0    0  501 -0.00000000000E+00  0.00000000000E+00  0.99260257656E+03  0.99260257656E+03  0.00000000000E+00 0.  1.
          2   -1    0    0  501    0  0.00000000000E+00 -0.00000000000E+00 -0.12250290243E+04  0.12250290243E+04  0.00000000000E+00 0. -1.
         24    2    1    2    0    0 -0.84322470343E+03 -0.27582865350E+03 -0.34171534282E+03  0.95409636908E+03  0.80132137106E+02 0.  0.
        254    2    1    2    0    0  0.84322470343E+03  0.27582865350E+03  0.10928889510E+03  0.12635352318E+04  0.89301056697E+03 0.  0.
         23    2    4    4    0    0 -0.58582446367E+02 -0.32172662374E+02  0.27015733746E+03  0.29251035225E+03  0.90057403709E+02 0.  0.
         23    2    4    4    0    0  0.90180714980E+03  0.30800131588E+03 -0.16086844236E+03  0.97102487950E+03  0.94285284435E+02 0.  0.
          2    1    3    3  502    0 -0.77370697832E+03 -0.25086029721E+03 -0.33594047817E+03  0.88000533060E+03  0.00000000000E+00 0. -1.
         -1    1    3    3    0  502 -0.69517725113E+02 -0.24968356289E+02 -0.57748646558E+01  0.74091038476E+02  0.00000000000E+00 0.  1.
         11    1    5    5    0    0  0.10589136977E+02 -0.11499365066E+02  0.31910173274E+01  0.15954554535E+02  0.00000000000E+00 0.  1.
        -11    1    5    5    0    0 -0.69171583344E+02 -0.20673297307E+02  0.26696632014E+03  0.27655579772E+03  0.00000000000E+00 0. -1.
          3    1    6    6  503    0  0.35236227308E+03  0.73252971321E+02 -0.70537332323E+02  0.36674334970E+03  0.00000000000E+00 0. -1.
         -3    1    6    6    0  503  0.54944487672E+03  0.23474834455E+03 -0.90331110039E+02  0.60428152981E+03  0.00000000000E+00 0.  1.
<mgrwt>
<rscale>  0 0.22054178E+04</rscale>
<asrwt>0</asrwt>
<pdfrwt beam="1">  1        2 0.18846600E+00 0.22054178E+04</pdfrwt>
<pdfrwt beam="2">  1       -1 0.15270809E+00 0.22054178E+04</pdfrwt>
<totfact> 0.63354309E+00</totfact>
</mgrwt>
</event>
<event>
12    6  0.1529770E-007  0.1608073E+04  0.7818608E-02  0.8815604E-01
         -1   -1    0    0    0  501 -0.00000000000E+00  0.00000000000E+00  0.20931197036E+03  0.20931197036E+03  0.00000000000E+00 0.  1.
          2   -1    0    0  501    0  0.00000000000E+00 -0.00000000000E+00 -0.30885710852E+04  0.30885710852E+04  0.00000000000E+00 0. -1.
         24    2    1    2    0    0 -0.32804577353E+03 -0.33492254192E+02 -0.18978310040E+04  0.19278126448E+04  0.77222490182E+02 0.  0.
        254    2    1    2    0    0  0.32804577353E+03  0.33492254192E+02 -0.98142811078E+03  0.13700704107E+04  0.89730487187E+03 0.  0.
         23    2    4    4    0    0  0.19343762038E+03  0.19412738658E+03  0.67595837052E+02  0.29644406174E+03  0.90588792648E+02 0.  0.
         23    2    4    4    0    0  0.13460815315E+03 -0.16063513239E+03 -0.10490239478E+04  0.10736263490E+04  0.91100458030E+02 0.  0.
          2    1    3    3  502    0 -0.14788215467E+03 -0.45090439058E+02 -0.10154582254E+04  0.10271600104E+04  0.00000000000E+00 0. -1.
         -1    1    3    3    0  502 -0.18016361886E+03  0.11598184866E+02 -0.88237277862E+03  0.90065263443E+03  0.00000000000E+00 0.  1.
         11    1    5    5    0    0  0.75219827335E+02  0.13562683400E+03  0.20747873127E+02  0.15647087513E+03  0.00000000000E+00 0. -1.
        -11    1    5    5    0    0  0.11821779304E+03  0.58500552581E+02  0.46847963925E+02  0.13997318660E+03  0.00000000000E+00 0.  1.
          3    1    6    6  503    0  0.78756984490E+02 -0.50817872900E+02 -0.29291991594E+03  0.30755031453E+03  0.00000000000E+00 0. -1.
         -3    1    6    6    0  503  0.55851168658E+02 -0.10981725949E+03 -0.75610403190E+03  0.76607603446E+03  0.00000000000E+00 0.  1.
<mgrwt>
<rscale>  0 0.16080733E+04</rscale>
<asrwt>0</asrwt>
<pdfrwt beam="1">  1        2 0.47516480E+00 0.16080733E+04</pdfrwt>
<pdfrwt beam="2">  1       -1 0.32201840E-01 0.16080733E+04</pdfrwt>
<totfact> 0.15138442E+01</totfact>
</mgrwt>
</event>
<event>
12    6  0.1529770E-007  0.1482259E+04  0.7818608E-02  0.8896337E-01
          2   -1    0    0  501    0  0.00000000000E+00  0.00000000000E+00  0.54743551910E+03  0.54743551910E+03  0.00000000000E+00 0. -1.
         -1   -1    0    0    0  501 -0.00000000000E+00 -0.00000000000E+00 -0.10033566396E+04  0.10033566396E+04  0.00000000000E+00 0.  1.
         24    2    1    2    0    0 -0.16504926947E+03 -0.18585032556E+03 -0.56221069627E+03  0.61992892345E+03  0.80308145676E+02 0.  0.
        254    2    1    2    0    0  0.16504926947E+03  0.18585032556E+03  0.10628957581E+03  0.93086323522E+03  0.89074535300E+03 0.  0.
         23    2    4    4    0    0  0.88673215288E+02  0.41607903317E+02 -0.38369153977E+03  0.40640369901E+03  0.91381683887E+02 0.  0.
         23    2    4    4    0    0  0.76376054181E+02  0.14424242224E+03  0.48998111558E+03  0.52445953621E+03  0.91307904763E+02 0.  0.
          2    1    3    3  502    0 -0.57125632953E+02 -0.78211555528E+02 -0.13353701897E+03  0.16496217989E+03  0.00000000000E+00 0. -1.
         -1    1    3    3    0  502 -0.10792363652E+03 -0.10763877003E+03 -0.42867367731E+03  0.45496674356E+03  0.00000000000E+00 0.  1.
         11    1    5    5    0    0  0.24089159469E+01  0.34056131838E+02 -0.20514118923E+03  0.20796281041E+03  0.00000000000E+00 0.  1.
        -11    1    5    5    0    0  0.86264299341E+02  0.75517714796E+01 -0.17855035054E+03  0.19844088860E+03  0.00000000000E+00 0. -1.
          2    1    6    6  503    0  0.65032677722E+02  0.15364094370E+03  0.47500522411E+03  0.50345282965E+03  0.00000000000E+00 0. -1.
         -2    1    6    6    0  503  0.11343376459E+02 -0.93985214610E+01  0.14975891469E+02  0.21006706558E+02  0.00000000000E+00 0.  1.
<mgrwt>
<rscale>  0 0.14822592E+04</rscale>
<asrwt>0</asrwt>
<pdfrwt beam="1">  1        2 0.84220850E-01 0.14822592E+04</pdfrwt>
<pdfrwt beam="2">  1       -1 0.15436256E+00 0.14822592E+04</pdfrwt>
<totfact> 0.19757947E+01</totfact>
</mgrwt>
</event>
<event>
12    6  0.1529770E-007  0.1772471E+04  0.7818608E-02  0.8721077E-01
         -1   -1    0    0    0  501 -0.00000000000E+00  0.00000000000E+00  0.42127225949E+03  0.42127225949E+03  0.00000000000E+00 0.  1.
          2   -1    0    0  501    0  0.00000000000E+00 -0.00000000000E+00 -0.18643846643E+04  0.18643846643E+04  0.00000000000E+00 0. -1.
         24    2    1    2    0    0 -0.44906126228E+02 -0.45740751342E+03 -0.11334138403E+04  0.12256506389E+04  0.79714251112E+02 0.  0.
        254    2    1    2    0    0  0.44906126228E+02  0.45740751342E+03 -0.30969856455E+03  0.10600062849E+04  0.90358282942E+03 0.  0.
         23    2    4    4    0    0 -0.74004233026E+01  0.60748434593E+03  0.88686296318E+02  0.62092107924E+03  0.92659217986E+02 0.  0.
         23    2    4    4    0    0  0.52306549530E+02 -0.15007683252E+03 -0.39838486087E+03  0.43908520564E+03  0.93948335085E+02 0.  0.
          4    1    3    3  502    0 -0.39028134197E+02 -0.94984041769E+02 -0.29006755962E+03  0.30770822640E+03  0.00000000000E+00 0. -1.
         -3    1    3    3    0  502 -0.58779920306E+01 -0.36242347165E+03 -0.84334628064E+03  0.91794241250E+03  0.00000000000E+00 0.  1.
         11    1    5    5    0    0  0.34846317346E+01  0.51583988731E+03  0.10700235404E+03  0.52683245512E+03  0.00000000000E+00 0.  1.
        -11    1    5    5    0    0 -0.10885055037E+02  0.91644458623E+02 -0.18316057718E+02  0.94088624125E+02  0.00000000000E+00 0. -1.
          3    1    6    6  503    0  0.20969688374E+02 -0.50593051523E+02 -0.45790911864E+02  0.71387620091E+02  0.00000000000E+00 0. -1.
         -3    1    6    6    0  503  0.31336861156E+02 -0.99483780992E+02 -0.35259394900E+03  0.36769758555E+03  0.00000000000E+00 0.  1.
<mgrwt>
<rscale>  0 0.17724712E+04</rscale>
<asrwt>0</asrwt>
<pdfrwt beam="1">  1        2 0.28682841E+00 0.17724712E+04</pdfrwt>
<pdfrwt beam="2">  1       -1 0.64811116E-01 0.17724712E+04</pdfrwt>
<totfact> 0.20670975E+01</totfact>
</mgrwt>
</event>
<event>
12    6  0.1529770E-007  0.1623656E+04  0.7818608E-02  0.8806145E-01
         -1   -1    0    0    0  501 -0.00000000000E+00  0.00000000000E+00  0.30538705663E+03  0.30538705663E+03  0.00000000000E+00 0.  1.
          2   -1    0    0  501    0  0.00000000000E+00 -0.00000000000E+00 -0.21581295948E+04  0.21581295948E+04  0.00000000000E+00 0. -1.
         24    2    1    2    0    0  0.45427622626E+03  0.26086743723E+03 -0.37789143952E+03  0.65073302533E+03  0.78948214953E+02 0.  0.
        254    2    1    2    0    0 -0.45427622626E+03 -0.26086743723E+03 -0.14748510986E+04  0.18127836261E+04  0.91464747433E+03 0.  0.
         23    2    4    4    0    0  0.21214343823E+02  0.18940165353E+03 -0.93622545385E+03  0.95972922014E+03  0.90769162219E+02 0.  0.
         23    2    4    4    0    0 -0.47549057009E+03 -0.45026909076E+03 -0.53862564479E+03  0.85305440595E+03  0.93545165302E+02 0.  0.
          4    1    3    3  502    0  0.45472630012E+03  0.26436246440E+03 -0.37353297979E+03  0.64512821020E+03  0.00000000000E+00 0. -1.
         -3    1    3    3    0  502 -0.45007385982E+00 -0.34950271762E+01 -0.43584597261E+01  0.56048151286E+01  0.00000000000E+00 0.  1.
         11    1    5    5    0    0 -0.13525934918E+02  0.13998217949E+03 -0.77289577403E+03  0.78558630271E+03  0.00000000000E+00 0. -1.
        -11    1    5    5    0    0  0.34740278741E+02  0.49419474038E+02 -0.16332967982E+03  0.17414291743E+03  0.00000000000E+00 0.  1.
          2    1    6    6  503    0 -0.28887715121E+03 -0.20965562366E+03 -0.29656681443E+03  0.46406612077E+03  0.00000000000E+00 0.  1.
         -2    1    6    6    0  503 -0.18661341887E+03 -0.24061346709E+03 -0.24205883037E+03  0.38898828518E+03  0.00000000000E+00 0. -1.
<mgrwt>
<rscale>  0 0.16236562E+04</rscale>
<asrwt>0</asrwt>
<pdfrwt beam="1">  1        2 0.33201993E+00 0.16236562E+04</pdfrwt>
<pdfrwt beam="2">  1       -1 0.46982626E-01 0.16236562E+04</pdfrwt>
<totfact> 0.26857399E+01</totfact>
</mgrwt>
</event>
<event>
12    6  0.1529770E-007  0.1774903E+04  0.7818608E-02  0.8719761E-01
          2   -1    0    0  501    0  0.00000000000E+00  0.00000000000E+00  0.21299333951E+04  0.21299333951E+04  0.00000000000E+00 0. -1.
         -1   -1    0    0    0  501 -0.00000000000E+00 -0.00000000000E+00 -0.36976267721E+03  0.36976267721E+03  0.00000000000E+00 0.  1.
         24    2    1    2    0    0 -0.76036348676E+02  0.57952951827E+03  0.23674790587E+03  0.63563814517E+03  0.79688718169E+02 0.  0.
        254    2    1    2    0    0  0.76036348676E+02 -0.57952951827E+03  0.15234228120E+04  0.18640579272E+04  0.90125407221E+03 0.  0.
         23    2    4    4    0    0 -0.22979103418E+03  0.66920754090E+02  0.11225509860E+03  0.27936946942E+03  0.90353674875E+02 0.  0.
         23    2    4    4    0    0  0.30582738286E+03 -0.64645027236E+03  0.14111677134E+04  0.15846884577E+04  0.91732490872E+02 0.  0.
          2    1    3    3  502    0 -0.90182744229E+02  0.54522005409E+03  0.22543547021E+03  0.59684083805E+03  0.00000000000E+00 0. -1.
         -1    1    3    3    0  502  0.14146395553E+02  0.34309464181E+02  0.11312435654E+02  0.38797307122E+02  0.00000000000E+00 0.  1.
         11    1    5    5    0    0 -0.15800442388E+03  0.49697653749E+00  0.67812370947E+02  0.17194232348E+03  0.00000000000E+00 0.  1.
        -11    1    5    5    0    0 -0.71786610308E+02  0.66423777552E+02  0.44442727657E+02  0.10742714594E+03  0.00000000000E+00 0. -1.
          1    1    6    6  503    0  0.26800439379E+03 -0.61218241242E+03  0.12802130820E+04  0.14441396042E+04  0.00000000000E+00 0. -1.
         -1    1    6    6    0  503  0.37822989071E+02 -0.34267859934E+02  0.13095463144E+03  0.14054885351E+03  0.00000000000E+00 0.  1.
<mgrwt>
<rscale>  0 0.17749027E+04</rscale>
<asrwt>0</asrwt>
<pdfrwt beam="1">  1        2 0.32768205E+00 0.17749027E+04</pdfrwt>
<pdfrwt beam="2">  1       -1 0.56886567E-01 0.17749027E+04</pdfrwt>
<totfact> 0.19056471E+01</totfact>
</mgrwt>
</event>
<event>
12    6  0.1529770E-007  0.1169447E+04  0.7818608E-02  0.9140028E-01
          2   -1    0    0  501    0  0.00000000000E+00  0.00000000000E+00  0.29691317316E+04  0.29691317316E+04  0.00000000000E+00 0. -1.
         -1   -1    0    0    0  501 -0.00000000000E+00 -0.00000000000E+00 -0.11515211786E+03  0.11515211786E+03  0.00000000000E+00 0.  1.
         24    2    1    2    0    0 -0.12531864012E+03 -0.84512323052E+02  0.13185918951E+03  0.21599660440E+03  0.80128602545E+02 0.  0.
        254    2    1    2    0    0  0.12531864012E+03  0.84512323052E+02  0.27221204242E+04  0.28682872450E+04  0.89122669496E+03 0.  0.
         23    2    4    4    0    0  0.16868832157E+03  0.23683603839E+03  0.26595295909E+04  0.26768697990E+04  0.89371230914E+02 0.  0.
         23    2    4    4    0    0 -0.43369681458E+02 -0.15232371534E+03  0.62590833307E+02  0.19141744605E+03  0.87404706464E+02 0.  0.
          4    1    3    3  502    0 -0.41373470904E+02  0.12083258950E+02  0.32820234249E+02  0.54175059000E+02  0.00000000000E+00 0. -1.
         -3    1    3    3    0  502 -0.83945169211E+02 -0.96595582002E+02  0.99038955266E+02  0.16182154540E+03  0.00000000000E+00 0.  1.
         11    1    5    5    0    0  0.60518628570E+02  0.15937769769E+03  0.14049269738E+04  0.14152326864E+04  0.00000000000E+00 0.  1.
        -11    1    5    5    0    0  0.10816969300E+03  0.77458340706E+02  0.12546026171E+04  0.12616371126E+04  0.00000000000E+00 0. -1.
          3    1    6    6  503    0  0.15904043177E+02 -0.53337375879E+00  0.14468826917E+02  0.21507441254E+02  0.00000000000E+00 0. -1.
         -3    1    6    6    0  503 -0.59273724635E+02 -0.15179034158E+03  0.48122006390E+02  0.16991000479E+03  0.00000000000E+00 0.  1.
<mgrwt>
<rscale>  0 0.11694474E+04</rscale>
<asrwt>0</asrwt>
<pdfrwt beam="1">  1        2 0.45678944E+00 0.11694474E+04</pdfrwt>
<pdfrwt beam="2">  1       -1 0.17715713E-01 0.11694474E+04</pdfrwt>
<totfact> 0.52096568E+01</totfact>
</mgrwt>
</event>
<event>
12    6  0.1529770E-007  0.1495661E+04  0.7818608E-02  0.8887343E-01
         -1   -1    0    0    0  501 -0.00000000000E+00  0.00000000000E+00  0.90513036798E+03  0.90513036798E+03  0.00000000000E+00 0.  1.
          2   -1    0    0  501    0  0.00000000000E+00 -0.00000000000E+00 -0.61786744615E+03  0.61786744615E+03  0.00000000000E+00 0. -1.
         24    2    1    2    0    0  0.35563808187E+03  0.15482194920E+03 -0.18277816444E+03  0.43639381316E+03  0.81138286503E+02 0.  0.
        254    2    1    2    0    0 -0.35563808187E+03 -0.15482194920E+03  0.47004108627E+03  0.10866040010E+04  0.89962289373E+03 0.  0.
         23    2    4    4    0    0  0.13216703325E+03 -0.32205610828E+03 -0.34289367835E+02  0.36027856656E+03  0.86235858076E+02 0.  0.
         23    2    4    4    0    0 -0.48780511512E+03  0.16723415908E+03  0.50433045411E+03  0.72632543442E+03  0.85313161020E+02 0.  0.
          2    1    3    3  502    0  0.32443784141E+03  0.14434865809E+03 -0.18994659608E+03  0.40271100977E+03  0.00000000000E+00 0. -1.
         -1    1    3    3    0  502  0.31200240465E+02  0.10473291105E+02  0.71684316427E+01  0.33682803385E+02  0.00000000000E+00 0.  1.
         11    1    5    5    0    0  0.12388030427E+02 -0.11040595788E+02  0.16202706171E+02  0.23192363839E+02  0.00000000000E+00 0. -1.
        -11    1    5    5    0    0  0.11977900282E+03 -0.31101551249E+03 -0.50492074006E+02  0.33708620272E+03  0.00000000000E+00 0.  1.
          4    1    6    6  503    0 -0.40977194212E+03  0.13311952057E+03  0.37344138374E+03  0.57016867540E+03  0.00000000000E+00 0.  1.
         -4    1    6    6    0  503 -0.78033172998E+02  0.34114638505E+02  0.13088907036E+03  0.15615675902E+03  0.00000000000E+00 0. -1.
<mgrwt>
<rscale>  0 0.14956612E+04</rscale>
<asrwt>0</asrwt>
<pdfrwt beam="1">  1        2 0.95056530E-01 0.14956612E+04</pdfrwt>
<pdfrwt beam="2">  1       -1 0.13925083E+00 0.14956612E+04</pdfrwt>
<totfact> 0.22468870E+01</totfact>
</mgrwt>
</event>
<event>
12    6  0.1529770E-007  0.3181815E+04  0.7818608E-02  0.8193636E-01
         -1   -1    0    0    0  501 -0.00000000000E+00  0.00000000000E+00  0.11127711710E+04  0.11127711710E+04  0.00000000000E+00 0.  1.
          2   -1    0    0  501    0  0.00000000000E+00 -0.00000000000E+00 -0.22744893513E+04  0.22744893513E+04  0.00000000000E+00 0. -1.
         24    2    1    2    0    0 -0.10672899269E+04 -0.82999494388E+03 -0.10429129626E+04  0.17091142158E+04  0.73515712111E+02 0.  0.
        254    2    1    2    0    0  0.10672899269E+04  0.82999494388E+03 -0.11880521771E+03  0.16781463066E+04  0.98694526267E+03 0.  0.
         23    2    4    4    0    0  0.39499233466E+03 -0.18935110494E+03 -0.64660941312E+02  0.45243802842E+03  0.92985734616E+02 0.  0.
         23    2    4    4    0    0  0.67229759226E+03  0.10193460488E+04 -0.54144276396E+02  0.12257082781E+04  0.91535570377E+02 0.  0.
          2    1    3    3  502    0 -0.70093088719E+03 -0.53028251265E+03 -0.63571368186E+03  0.10847283241E+04  0.00000000000E+00 0. -1.
         -1    1    3    3    0  502 -0.36635903973E+03 -0.29971243123E+03 -0.40719928076E+03  0.62438589164E+03  0.00000000000E+00 0.  1.
         11    1    5    5    0    0  0.27175417921E+03 -0.16402705658E+03 -0.75131095364E+02  0.32618996106E+03  0.00000000000E+00 0. -1.
        -11    1    5    5    0    0  0.12323815546E+03 -0.25324048366E+02  0.10470154052E+02  0.12624806736E+03  0.00000000000E+00 0.  1.
          4    1    6    6  503    0  0.53228149216E+03  0.86760147430E+03 -0.37339559841E+02  0.10185529676E+04  0.00000000000E+00 0. -1.
         -4    1    6    6    0  503  0.14001610010E+03  0.15174457452E+03 -0.16804716554E+02  0.20715531054E+03  0.00000000000E+00 0.  1.
<mgrwt>
<rscale>  0 0.31818147E+04</rscale>
<asrwt>0</asrwt>
<pdfrwt beam="1">  1        2 0.34992144E+00 0.31818147E+04</pdfrwt>
<pdfrwt beam="2">  1       -1 0.17119556E+00 0.31818147E+04</pdfrwt>
<totfact> 0.10835514E+00</totfact>
</mgrwt>
</event>
<event>
12    6  0.1529770E-007  0.2002591E+04  0.7818608E-02  0.8605410E-01
         -1   -1    0    0    0  501 -0.00000000000E+00  0.00000000000E+00  0.41063184004E+03  0.41063184004E+03  0.00000000000E+00 0.  1.
          2   -1    0    0  501    0  0.00000000000E+00 -0.00000000000E+00 -0.24415859907E+04  0.24415859907E+04  0.00000000000E+00 0. -1.
         24    2    1    2    0    0 -0.12472681492E+03 -0.15596391441E+03  0.29078718490E+03  0.36182205884E+03  0.80476669914E+02 0.  0.
        254    2    1    2    0    0  0.12472681492E+03  0.15596391441E+03 -0.23217413355E+04  0.24903957719E+04  0.87846841176E+03 0.  0.
         23    2    4    4    0    0 -0.11170547667E+03 -0.14304597481E+03 -0.86064436839E+02  0.22058248647E+03  0.91155261076E+02 0.  0.
         23    2    4    4    0    0  0.23643229159E+03  0.29900988921E+03 -0.22356768987E+04  0.22698132854E+04  0.92162969140E+02 0.  0.
          4    1    3    3  502    0 -0.27222459033E+02 -0.78434465646E+01  0.10631372009E+02  0.30259015196E+02  0.00000000000E+00 0. -1.
         -3    1    3    3    0  502 -0.97504355887E+02 -0.14812046784E+03  0.28015581289E+03  0.33156304364E+03  0.00000000000E+00 0.  1.
         11    1    5    5    0    0 -0.84913065538E+02 -0.58998353648E+02 -0.82531678752E+02  0.13229706130E+03  0.00000000000E+00 0. -1.
        -11    1    5    5    0    0 -0.26792411131E+02 -0.84047621158E+02 -0.35327580869E+01  0.88285425163E+02  0.00000000000E+00 0.  1.
          3    1    6    6  503    0  0.12507273693E+03  0.21490541234E+03 -0.15804261630E+04  0.15998669890E+04  0.00000000000E+00 0. -1.
         -3    1    6    6    0  503  0.11135955466E+03  0.84104476873E+02 -0.65525073573E+03  0.66994629644E+03  0.00000000000E+00 0.  1.
<mgrwt>
<rscale>  0 0.20025913E+04</rscale>
<asrwt>0</asrwt>
<pdfrwt beam="1">  1        2 0.37562861E+00 0.20025913E+04</pdfrwt>
<pdfrwt beam="2">  1       -1 0.63174130E-01 0.20025913E+04</pdfrwt>
<totfact> 0.10114775E+01</totfact>
</mgrwt>
</event>
<event>
12    6  0.1529770E-007  0.4124699E+04  0.7818608E-02  0.7979853E-01
         -1   -1    0    0    0  501 -0.00000000000E+00  0.00000000000E+00  0.16198888223E+04  0.16198888223E+04  0.00000000000E+00 0.  1.
          2   -1    0    0  501    0  0.00000000000E+00 -0.00000000000E+00 -0.26256648932E+04  0.26256648932E+04  0.00000000000E+00 0. -1.
         24    2    1    2    0    0  0.92474379011E+03 -0.13927683993E+03 -0.22551255452E+04  0.24426261417E+04  0.79259876161E+02 0.  0.
        254    2    1    2    0    0 -0.92474379011E+03  0.13927683993E+03  0.12493494742E+04  0.18029275738E+04  0.90284251785E+03 0.  0.
         23    2    4    4    0    0 -0.76521427742E+03  0.47024014466E+03  0.73301432719E+03  0.11629320136E+04  0.91772438277E+02 0.  0.
         23    2    4    4    0    0 -0.15952951269E+03 -0.33096330473E+03  0.51633514706E+03  0.63999556017E+03  0.89476021618E+02 0.  0.
          2    1    3    3  502    0  0.59334525829E+03 -0.52406735701E+02 -0.14600167865E+04  0.15768494153E+04  0.00000000000E+00 0. -1.
         -1    1    3    3    0  502  0.33139853182E+03 -0.86870104230E+02 -0.79510875868E+03  0.86577672643E+03  0.00000000000E+00 0.  1.
         11    1    5    5    0    0 -0.11835010017E+03  0.70836534088E+02  0.15795634632E+03  0.20970161686E+03  0.00000000000E+00 0. -1.
        -11    1    5    5    0    0 -0.64686417725E+03  0.39940361057E+03  0.57505798087E+03  0.95323039676E+03  0.00000000000E+00 0.  1.
          3    1    6    6  503    0 -0.84221010919E+02 -0.10009210208E+03  0.22953981098E+03  0.26419714685E+03  0.00000000000E+00 0. -1.
         -3    1    6    6    0  503 -0.75308501775E+02 -0.23087120266E+03  0.28679533608E+03  0.37579841332E+03  0.00000000000E+00 0.  1.
<mgrwt>
<rscale>  0 0.41246989E+04</rscale>
<asrwt>0</asrwt>
<pdfrwt beam="1">  1        2 0.40394844E+00 0.41246989E+04</pdfrwt>
<pdfrwt beam="2">  1       -1 0.24921367E+00 0.41246989E+04</pdfrwt>
<totfact> 0.18402788E-01</totfact>
</mgrwt>
</event>
<event>
12    6  0.1529770E-007  0.1713597E+04  0.7818608E-02  0.8753647E-01
          2   -1    0    0  501    0  0.00000000000E+00  0.00000000000E+00  0.17061752780E+04  0.17061752780E+04  0.00000000000E+00 0. -1.
         -1   -1    0    0    0  501 -0.00000000000E+00 -0.00000000000E+00 -0.43026280969E+03  0.43026280969E+03  0.00000000000E+00 0.  1.
         24    2    1    2    0    0  0.56963607227E+03 -0.36016668449E+02  0.73664123826E+03  0.93545006741E+03  0.81511100355E+02 0.  0.
        254    2    1    2    0    0 -0.56963607227E+03  0.36016668449E+02  0.53927123003E+03  0.12009880203E+04  0.90872235035E+03 0.  0.
         23    2    4    4    0    0 -0.53762744013E+03  0.10984452308E+03  0.76423729943E+03  0.94509007970E+03  0.89596457976E+02 0.  0.
         23    2    4    4    0    0 -0.32008632137E+02 -0.73827854633E+02 -0.22496606940E+03  0.25589794055E+03  0.91645616074E+02 0.  0.
          4    1    3    3  502    0  0.50304604889E+02 -0.14143915042E+02  0.37794048087E+02  0.64490260323E+02  0.00000000000E+00 0. -1.
         -3    1    3    3    0  502  0.51933146738E+03 -0.21872753408E+02  0.69884719018E+03  0.87095980709E+03  0.00000000000E+00 0.  1.
         11    1    5    5    0    0 -0.61606007497E+02  0.40650670775E+01  0.46142903956E+02  0.77077834139E+02  0.00000000000E+00 0.  1.
        -11    1    5    5    0    0 -0.47602143263E+03  0.10577945600E+03  0.71809439547E+03  0.86801224556E+03  0.00000000000E+00 0. -1.
          3    1    6    6  503    0  0.19528274843E+02 -0.63915966832E+02 -0.15175089304E+03  0.16581597593E+03  0.00000000000E+00 0. -1.
         -3    1    6    6    0  503 -0.51536906980E+02 -0.99118878006E+01 -0.73215176365E+02  0.90081964627E+02  0.00000000000E+00 0.  1.
<mgrwt>
<rscale>  0 0.17135971E+04</rscale>
<asrwt>0</asrwt>
<pdfrwt beam="1">  1        2 0.26248850E+00 0.17135971E+04</pdfrwt>
<pdfrwt beam="2">  1       -1 0.66194279E-01 0.17135971E+04</pdfrwt>
<totfact> 0.24365500E+01</totfact>
</mgrwt>
</event>
<event>
12    6  0.1529770E-007  0.1337654E+04  0.7818608E-02  0.9000227E-01
          2   -1    0    0  501    0  0.00000000000E+00  0.00000000000E+00  0.21435890356E+04  0.21435890356E+04  0.00000000000E+00 0. -1.
         -1   -1    0    0    0  501 -0.00000000000E+00 -0.00000000000E+00 -0.20868255892E+03  0.20868255892E+03  0.00000000000E+00 0.  1.
         24    2    1    2    0    0  0.16060426806E+03 -0.20614057030E+02 -0.28054567221E+02  0.18359181211E+03  0.81854898850E+02 0.  0.
        254    2    1    2    0    0 -0.16060426806E+03  0.20614057030E+02  0.19629610439E+04  0.21686797824E+04  0.90759972921E+03 0.  0.
         23    2    4    4    0    0  0.18278115224E+03  0.14227321539E+03  0.10052729334E+03  0.26882727946E+03  0.92259156976E+02 0.  0.
         23    2    4    4    0    0 -0.34338542030E+03 -0.12165915836E+03  0.18624337506E+04  0.18998525029E+04  0.89808462842E+02 0.  0.
          2    1    3    3  502    0 -0.21561512042E+01 -0.16912111504E+02 -0.10065239147E+02  0.19798422731E+02  0.00000000000E+00 0. -1.
         -1    1    3    3    0  502  0.16276041927E+03 -0.37019455252E+01 -0.17989328074E+02  0.16379338938E+03  0.00000000000E+00 0.  1.
         11    1    5    5    0    0  0.71092977559E+02  0.10164589408E+03  0.20948608906E+02  0.12579723151E+03  0.00000000000E+00 0.  1.
        -11    1    5    5    0    0  0.11168817468E+03  0.40627321312E+02  0.79578684432E+02  0.14303004795E+03  0.00000000000E+00 0. -1.
          3    1    6    6  503    0 -0.31979812564E+03 -0.93674397156E+02  0.17549691660E+04  0.17863265400E+04  0.00000000000E+00 0. -1.
         -3    1    6    6    0  503 -0.23587294660E+02 -0.27984761206E+02  0.10746458456E+03  0.11352596295E+03  0.00000000000E+00 0.  1.
<mgrwt>
<rscale>  0 0.13376541E+04</rscale>
<asrwt>0</asrwt>
<pdfrwt beam="1">  1        2 0.32978291E+00 0.13376541E+04</pdfrwt>
<pdfrwt beam="2">  1       -1 0.32105011E-01 0.13376541E+04</pdfrwt>
<totfact> 0.56079271E+01</totfact>
</mgrwt>
</event>
<event>
12    6  0.1529770E-007  0.1733853E+04  0.7818608E-02  0.8742289E-01
         -1   -1    0    0    0  501 -0.00000000000E+00  0.00000000000E+00  0.76705098192E+03  0.76705098192E+03  0.00000000000E+00 0.  1.
          2   -1    0    0  501    0  0.00000000000E+00 -0.00000000000E+00 -0.97980624930E+03  0.97980624930E+03  0.00000000000E+00 0. -1.
         24    2    1    2    0    0  0.12308600446E+03 -0.44907509615E+03 -0.51120830621E+03  0.69631731866E+03  0.81885709658E+02 0.  0.
        254    2    1    2    0    0 -0.12308600446E+03  0.44907509615E+03  0.29845303883E+03  0.10505399126E+04  0.89316363843E+03 0.  0.
         23    2    4    4    0    0 -0.97430126708E+02  0.55971681253E+03 -0.13637310888E+03  0.59179311405E+03  0.94052778768E+02 0.  0.
         23    2    4    4    0    0 -0.25655877750E+02 -0.11064171638E+03  0.43482614770E+03  0.45874679850E+03  0.92059942119E+02 0.  0.
          4    1    3    3  502    0  0.11585047809E+03 -0.43377528047E+03 -0.46176176329E+03  0.64405454215E+03  0.00000000000E+00 0. -1.
         -3    1    3    3    0  502  0.72355263709E+01 -0.15299815675E+02 -0.49446542922E+02  0.52262776510E+02  0.00000000000E+00 0.  1.
         11    1    5    5    0    0  0.85190784039E+00  0.16639157527E+03 -0.81980990591E+01  0.16659559087E+03  0.00000000000E+00 0. -1.
        -11    1    5    5    0    0 -0.98282034549E+02  0.39332523726E+03 -0.12817500982E+03  0.42519752319E+03  0.00000000000E+00 0.  1.
          4    1    6    6  503    0 -0.25949741725E+02 -0.33392650963E+02  0.46679276048E+02  0.62987403870E+02  0.00000000000E+00 0. -1.
         -4    1    6    6    0  503  0.29386397489E+00 -0.77249065422E+02  0.38814687166E+03  0.39575939464E+03  0.00000000000E+00 0.  1.
<mgrwt>
<rscale>  0 0.17338528E+04</rscale>
<asrwt>0</asrwt>
<pdfrwt beam="1">  1        2 0.15073942E+00 0.17338528E+04</pdfrwt>
<pdfrwt beam="2">  1       -1 0.11800784E+00 0.17338528E+04</pdfrwt>
<totfact> 0.18129927E+01</totfact>
</mgrwt>
</event>
<event>
12    6  0.1529770E-007  0.1342402E+04  0.7818608E-02  0.8996600E-01
          2   -1    0    0  501    0  0.00000000000E+00  0.00000000000E+00  0.23498555129E+04  0.23498555129E+04  0.00000000000E+00 0. -1.
         -1   -1    0    0    0  501 -0.00000000000E+00 -0.00000000000E+00 -0.19171849296E+03  0.19171849296E+03  0.00000000000E+00 0.  1.
         24    2    1    2    0    0  0.90927910518E+02 -0.10097342218E+03  0.12274191261E+04  0.12372949056E+04  0.76664564921E+02 0.  0.
        254    2    1    2    0    0 -0.90927910518E+02  0.10097342218E+03  0.93071789389E+03  0.13042791003E+04  0.90357327122E+03 0.  0.
         23    2    4    4    0    0 -0.20026318269E+03  0.46967409206E+03  0.51069356523E+03  0.72752761840E+03  0.88257707173E+02 0.  0.
         23    2    4    4    0    0  0.10933527217E+03 -0.36870066988E+03  0.42002432866E+03  0.57675148186E+03  0.91254859900E+02 0.  0.
          2    1    3    3  502    0  0.40498996635E+02 -0.53719788315E+02  0.90781709451E+03  0.91030646569E+03  0.00000000000E+00 0. -1.
         -1    1    3    3    0  502  0.50428913883E+02 -0.47253633861E+02  0.31960203159E+03  0.32698843996E+03  0.00000000000E+00 0.  1.
         11    1    5    5    0    0  0.66543138978E+01  0.42718883431E+02  0.51641929240E+02  0.67350365631E+02  0.00000000000E+00 0. -1.
        -11    1    5    5    0    0 -0.20691749659E+03  0.42695520862E+03  0.45905163599E+03  0.66017725277E+03  0.00000000000E+00 0.  1.
          1    1    6    6  503    0  0.19150066322E+02 -0.12291430407E+03  0.81164583484E+02  0.14853397186E+03  0.00000000000E+00 0. -1.
         -1    1    6    6    0  503  0.90185205848E+02 -0.24578636581E+03  0.33885974517E+03  0.42821751000E+03  0.00000000000E+00 0.  1.
<mgrwt>
<rscale>  0 0.13424020E+04</rscale>
<asrwt>0</asrwt>
<pdfrwt beam="1">  1        2 0.36151621E+00 0.13424020E+04</pdfrwt>
<pdfrwt beam="2">  1       -1 0.29495154E-01 0.13424020E+04</pdfrwt>
<totfact> 0.49842684E+01</totfact>
</mgrwt>
</event>
<event>
12    6  0.1529770E-007  0.1878140E+04  0.7818608E-02  0.8665815E-01
          2   -1    0    0  501    0  0.00000000000E+00  0.00000000000E+00  0.12813033969E+04  0.12813033969E+04  0.00000000000E+00 0. -1.
         -1   -1    0    0    0  501 -0.00000000000E+00 -0.00000000000E+00 -0.68824637049E+03  0.68824637049E+03  0.00000000000E+00 0.  1.
         24    2    1    2    0    0 -0.39185302798E+03  0.39425014616E+03 -0.24783842615E+03  0.61393032730E+03  0.80651026129E+02 0.  0.
        254    2    1    2    0    0  0.39185302798E+03 -0.39425014616E+03  0.84089545258E+03  0.13556194401E+04  0.90643087490E+03 0.  0.
         23    2    4    4    0    0 -0.10973249819E+03 -0.49588389228E+03  0.56569205540E+03  0.76585972759E+03  0.92690695501E+02 0.  0.
         23    2    4    4    0    0  0.50158552618E+03  0.10163374612E+03  0.27520339718E+03  0.58975971252E+03  0.10080749118E+03 0.  0.
          2    1    3    3  502    0 -0.67238007321E+02  0.35653560262E+02 -0.51538788490E+02  0.91915029821E+02  0.00000000000E+00 0. -1.
         -1    1    3    3    0  502 -0.32461502066E+03  0.35859658590E+03 -0.19629963766E+03  0.52201529748E+03  0.00000000000E+00 0.  1.
         11    1    5    5    0    0  0.40306771814E+01 -0.17556089204E+03  0.21234024526E+03  0.27554718821E+03  0.00000000000E+00 0.  1.
        -11    1    5    5    0    0 -0.11376317537E+03 -0.32032300024E+03  0.35335181013E+03  0.49031253939E+03  0.00000000000E+00 0. -1.
          2    1    6    6  503    0  0.44402807168E+03  0.67964094107E+02  0.20776454688E+03  0.49492035063E+03  0.00000000000E+00 0. -1.
         -2    1    6    6    0  503  0.57557454492E+02  0.33669652009E+02  0.67438850300E+02  0.94839361890E+02  0.00000000000E+00 0.  1.
<mgrwt>
<rscale>  0 0.18781399E+04</rscale>
<asrwt>0</asrwt>
<pdfrwt beam="1">  1        2 0.19712360E+00 0.18781399E+04</pdfrwt>
<pdfrwt beam="2">  1       -1 0.10588406E+00 0.18781399E+04</pdfrwt>
<totfact> 0.15138768E+01</totfact>
</mgrwt>
</event>
<event>
12    6  0.1529770E-007  0.1134727E+04  0.7818608E-02  0.9171990E-01
          2   -1    0    0  501    0  0.00000000000E+00  0.00000000000E+00  0.41250933166E+03  0.41250933166E+03  0.00000000000E+00 0. -1.
         -1   -1    0    0    0  501 -0.00000000000E+00 -0.00000000000E+00 -0.78034973606E+03  0.78034973606E+03  0.00000000000E+00 0.  1.
         24    2    1    2    0    0 -0.17250696890E+02  0.75031172127E+02  0.11759185888E+03  0.16889608182E+03  0.93652431067E+02 0.  0.
        254    2    1    2    0    0  0.17250696890E+02 -0.75031172127E+02 -0.48543226328E+03  0.10239629859E+04  0.89829196308E+03 0.  0.
         23    2    4    4    0    0  0.20794176442E+03 -0.41202293801E+03 -0.12364594855E+03  0.48629732555E+03  0.90521209705E+02 0.  0.
         23    2    4    4    0    0 -0.19069106753E+03  0.33699176589E+03 -0.36178631473E+03  0.53766566035E+03  0.90931244803E+02 0.  0.
          2    1    3    3  502    0 -0.36667177350E+02  0.23879676977E+02  0.10354167520E+03  0.11240818195E+03  0.00000000000E+00 0. -1.
         -1    1    3    3    0  502  0.19416480460E+02  0.51151495151E+02  0.14050183680E+02  0.56487899864E+02  0.00000000000E+00 0.  1.
         11    1    5    5    0    0  0.10267237377E+03 -0.15591999364E+03 -0.90369040176E+02  0.20741076195E+03  0.00000000000E+00 0. -1.
        -11    1    5    5    0    0  0.10526939065E+03 -0.25610294437E+03 -0.33276908378E+02  0.27888656360E+03  0.00000000000E+00 0.  1.
          1    1    6    6  503    0 -0.19998805494E+03  0.30765765478E+03 -0.33231998598E+03  0.49506063038E+03  0.00000000000E+00 0. -1.
         -1    1    6    6    0  503  0.92969874093E+01  0.29334111104E+02 -0.29466328748E+02  0.42605029974E+02  0.00000000000E+00 0.  1.
<mgrwt>
<rscale>  0 0.11347274E+04</rscale>
<asrwt>0</asrwt>
<pdfrwt beam="1">  1        2 0.63462974E-01 0.11347274E+04</pdfrwt>
<pdfrwt beam="2">  1       -1 0.12005381E+00 0.11347274E+04</pdfrwt>
<totfact> 0.53872034E+01</totfact>
</mgrwt>
</event>
<event>
12    6  0.1529770E-007  0.1375992E+04  0.7818608E-02  0.8971383E-01
          2   -1    0    0  501    0  0.00000000000E+00  0.00000000000E+00  0.30068556779E+04  0.30068556779E+04  0.00000000000E+00 0. -1.
         -1   -1    0    0    0  501 -0.00000000000E+00 -0.00000000000E+00 -0.15741970616E+03  0.15741970616E+03  0.00000000000E+00 0.  1.
         24    2    1    2    0    0  0.69281672648E+02 -0.50294800174E+02 -0.49804869450E+02  0.12751341390E+03  0.80309579842E+02 0.  0.
        254    2    1    2    0    0 -0.69281672648E+02  0.50294800174E+02  0.28992408412E+04  0.30367619701E+04  0.89944221107E+03 0.  0.
         23    2    4    4    0    0  0.33752655160E+03 -0.85412630938E+02  0.20482747332E+04  0.20794229450E+04  0.85737452280E+02 0.  0.
         23    2    4    4    0    0 -0.40680822425E+03  0.13570743111E+03  0.85096610794E+03  0.95733902517E+03  0.91898063450E+02 0.  0.
          4    1    3    3  502    0 -0.12781329914E+02 -0.21517699844E+02  0.38630875741E+01  0.25323847389E+02  0.00000000000E+00 0. -1.
         -3    1    3    3    0  502  0.82063002562E+02 -0.28777100330E+02 -0.53667957024E+02  0.10218956651E+03  0.00000000000E+00 0.  1.
         11    1    5    5    0    0  0.26307655634E+02 -0.11378796328E+02  0.73258256058E+02  0.78666014463E+02  0.00000000000E+00 0.  1.
        -11    1    5    5    0    0  0.31121889596E+03 -0.74033834610E+02  0.19750164772E+04  0.20007569305E+04  0.00000000000E+00 0. -1.
          2    1    6    6  503    0 -0.38850315916E+03  0.10438231895E+03  0.77803183776E+03  0.87587893784E+03  0.00000000000E+00 0. -1.
         -2    1    6    6    0  503 -0.18305065086E+02  0.31325112163E+02  0.72934270184E+02  0.81460087325E+02  0.00000000000E+00 0.  1.
<mgrwt>
<rscale>  0 0.13759918E+04</rscale>
<asrwt>0</asrwt>
<pdfrwt beam="1">  1        2 0.46259314E+00 0.13759918E+04</pdfrwt>
<pdfrwt beam="2">  1       -1 0.24218419E-01 0.13759918E+04</pdfrwt>
<totfact> 0.28591483E+01</totfact>
</mgrwt>
</event>
<event>
12    6  0.1529770E-007  0.1010242E+04  0.7818608E-02  0.9297382E-01
         -1   -1    0    0    0  501 -0.00000000000E+00  0.00000000000E+00  0.20995115635E+03  0.20995115635E+03  0.00000000000E+00 0.  1.
          2   -1    0    0  501    0  0.00000000000E+00 -0.00000000000E+00 -0.12152693395E+04  0.12152693395E+04  0.00000000000E+00 0. -1.
         24    2    1    2    0    0  0.83218924677E+02 -0.14004945520E+02 -0.11155818236E+03  0.16149954271E+03  0.80717695224E+02 0.  0.
        254    2    1    2    0    0 -0.83218924677E+02  0.14004945520E+02 -0.89376000077E+03  0.12637209531E+04  0.88941676419E+03 0.  0.
         23    2    4    4    0    0 -0.21130924384E+03 -0.18575134702E+03 -0.95729893026E+03  0.10019405766E+04  0.91151070552E+02 0.  0.
         23    2    4    4    0    0  0.12809031917E+03  0.19975629254E+03  0.63538929490E+02  0.26178037653E+03  0.90454760525E+02 0.  0.
          2    1    3    3  502    0  0.22318166119E+02  0.22205768117E+02 -0.26797026358E+01  0.31597111937E+02  0.00000000000E+00 0. -1.
         -1    1    3    3    0  502  0.60900758558E+02 -0.36210713636E+02 -0.10887847972E+03  0.12990243078E+03  0.00000000000E+00 0.  1.
         11    1    5    5    0    0 -0.16704233375E+03 -0.10621565938E+03 -0.74708774290E+03  0.77286803735E+03  0.00000000000E+00 0.  1.
        -11    1    5    5    0    0 -0.44266910091E+02 -0.79535687645E+02 -0.21021118736E+03  0.22907253923E+03  0.00000000000E+00 0. -1.
          4    1    6    6  503    0  0.29030978921E+02  0.21292988401E+02  0.43826584546E+02  0.56718238734E+02  0.00000000000E+00 0.  1.
         -4    1    6    6    0  503  0.99059340246E+02  0.17846330414E+03  0.19712344945E+02  0.20506213780E+03  0.00000000000E+00 0. -1.
<mgrwt>
<rscale>  0 0.10102420E+04</rscale>
<asrwt>0</asrwt>
<pdfrwt beam="1">  1        2 0.18696451E+00 0.10102420E+04</pdfrwt>
<pdfrwt beam="2">  1       -1 0.32300178E-01 0.10102420E+04</pdfrwt>
<totfact> 0.18864097E+02</totfact>
</mgrwt>
</event>
<event>
12    6  0.1529770E-007  0.1306705E+04  0.7818608E-02  0.9024265E-01
          2   -1    0    0  501    0  0.00000000000E+00  0.00000000000E+00  0.41494114364E+03  0.41494114364E+03  0.00000000000E+00 0. -1.
         -1   -1    0    0    0  501 -0.00000000000E+00 -0.00000000000E+00 -0.10287471084E+04  0.10287471084E+04  0.00000000000E+00 0.  1.
         24    2    1    2    0    0  0.53660052081E+02 -0.30809462391E+03 -0.21088362765E+02  0.32286715621E+03  0.77438898761E+02 0.  0.
        254    2    1    2    0    0 -0.53660052081E+02  0.30809462391E+03 -0.59271760203E+03  0.11208210959E+04  0.89840084300E+03 0.  0.
         23    2    4    4    0    0  0.36734021626E+03  0.35233424908E+03 -0.31293135496E+03  0.60561366945E+03  0.98811062873E+02 0.  0.
         23    2    4    4    0    0 -0.42100026834E+03 -0.44239625171E+02 -0.27978624707E+03  0.51520742641E+03  0.89218707697E+02 0.  0.
          2    1    3    3  502    0  0.58919779414E+02 -0.30865369881E+03 -0.14696466205E+02  0.31457055220E+03  0.00000000000E+00 0. -1.
         -1    1    3    3    0  502 -0.52597273331E+01  0.55907489828E+00 -0.63918965602E+01  0.82966040039E+01  0.00000000000E+00 0.  1.
         11    1    5    5    0    0  0.27705315278E+03  0.29773357301E+03 -0.28452160002E+03  0.49634289643E+03  0.00000000000E+00 0. -1.
        -11    1    5    5    0    0  0.90287063478E+02  0.54600676075E+02 -0.28409754941E+02  0.10927077301E+03  0.00000000000E+00 0.  1.
          4    1    6    6  503    0 -0.27938545792E+03 -0.53979501183E+01 -0.22395177604E+03  0.35810580832E+03  0.00000000000E+00 0. -1.
         -4    1    6    6    0  503 -0.14161481042E+03 -0.38841675053E+02 -0.55834471030E+02  0.15710161809E+03  0.00000000000E+00 0.  1.
<mgrwt>
<rscale>  0 0.13067050E+04</rscale>
<asrwt>0</asrwt>
<pdfrwt beam="1">  1        2 0.63837100E-01 0.13067050E+04</pdfrwt>
<pdfrwt beam="2">  1       -1 0.15826878E+00 0.13067050E+04</pdfrwt>
<totfact> 0.25761532E+01</totfact>
</mgrwt>
</event>
<event>
12    6  0.1529770E-007  0.1578647E+04  0.7818608E-02  0.8833774E-01
          2   -1    0    0  501    0  0.00000000000E+00  0.00000000000E+00  0.10950683321E+04  0.10950683321E+04  0.00000000000E+00 0. -1.
         -1   -1    0    0    0  501 -0.00000000000E+00 -0.00000000000E+00 -0.56894303907E+03  0.56894303907E+03  0.00000000000E+00 0.  1.
         24    2    1    2    0    0 -0.25184126029E+03  0.33701469315E+03 -0.16180128647E+03  0.45738512979E+03  0.77579487404E+02 0.  0.
        254    2    1    2    0    0  0.25184126029E+03 -0.33701469315E+03  0.68792657950E+03  0.12066262414E+04  0.89760848026E+03 0.  0.
         23    2    4    4    0    0 -0.34221520309E+02 -0.49835370235E+03  0.70098000880E+03  0.86545741765E+03  0.90089088857E+02 0.  0.
         23    2    4    4    0    0  0.28606278060E+03  0.16133900920E+03 -0.13053429296E+02  0.34116882374E+03  0.91452632220E+02 0.  0.
          2    1    3    3  502    0  0.45814755643E+01  0.12817988346E+01 -0.46316071733E+01  0.66396318879E+01  0.00000000000E+00 0. -1.
         -1    1    3    3    0  502 -0.25642273586E+03  0.33573289431E+03 -0.15716967929E+03  0.45074549790E+03  0.00000000000E+00 0.  1.
         11    1    5    5    0    0  0.13328856545E+02 -0.20058711925E+02  0.16989708914E+02  0.29473047855E+02  0.00000000000E+00 0.  1.
        -11    1    5    5    0    0 -0.47550376854E+02 -0.47829499043E+03  0.68399029988E+03  0.83598436980E+03  0.00000000000E+00 0. -1.
          1    1    6    6  503    0  0.22858530725E+03  0.85133973652E+02  0.52412166189E+01  0.24398054535E+03  0.00000000000E+00 0. -1.
         -1    1    6    6    0  503  0.57477473352E+02  0.76205035553E+02 -0.18294645915E+02  0.97188278386E+02  0.00000000000E+00 0.  1.
<mgrwt>
<rscale>  0 0.15786469E+04</rscale>
<asrwt>0</asrwt>
<pdfrwt beam="1">  1        2 0.16847205E+00 0.15786469E+04</pdfrwt>
<pdfrwt beam="2">  1       -1 0.87529699E-01 0.15786469E+04</pdfrwt>
<totfact> 0.30873400E+01</totfact>
</mgrwt>
</event>
<event>
12    6  0.1529770E-007  0.2253609E+04  0.7818608E-02  0.8496440E-01
          2   -1    0    0  501    0  0.00000000000E+00  0.00000000000E+00  0.13202290602E+04  0.13202290602E+04  0.00000000000E+00 0. -1.
         -1   -1    0    0    0  501 -0.00000000000E+00 -0.00000000000E+00 -0.96171854083E+03  0.96171854083E+03  0.00000000000E+00 0.  1.
         24    2    1    2    0    0 -0.39152229480E+03  0.68143864059E+03 -0.38181074127E+03  0.87741771553E+03  0.80212699568E+02 0.  0.
        254    2    1    2    0    0  0.39152229480E+03 -0.68143864059E+03  0.74032126065E+03  0.14045298855E+04  0.89832082359E+03 0.  0.
         23    2    4    4    0    0  0.32134220673E+03  0.13718193220E+03  0.16422896649E+03  0.39663288440E+03  0.90921918167E+02 0.  0.
         23    2    4    4    0    0  0.70180088073E+02 -0.81862057278E+03  0.57609229416E+03  0.10078970011E+04  0.94388275305E+02 0.  0.
          2    1    3    3  502    0 -0.17173276640E+03  0.22491086234E+03 -0.14902159603E+03  0.31981944146E+03  0.00000000000E+00 0. -1.
         -1    1    3    3    0  502 -0.21978952840E+03  0.45652777825E+03 -0.23278914524E+03  0.55759827407E+03  0.00000000000E+00 0.  1.
         11    1    5    5    0    0  0.68984405877E+02  0.67880274930E+02  0.65815788475E+02  0.11703972826E+03  0.00000000000E+00 0. -1.
        -11    1    5    5    0    0  0.25235780085E+03  0.69301657267E+02  0.98413178018E+02  0.27959315613E+03  0.00000000000E+00 0.  1.
          2    1    6    6  503    0  0.47638394042E+02 -0.14301809017E+03  0.94602301098E+02  0.17796962122E+03  0.00000000000E+00 0. -1.
         -2    1    6    6    0  503  0.22541694031E+02 -0.67560248261E+03  0.48148999306E+03  0.82992737989E+03  0.00000000000E+00 0.  1.
<mgrwt>
<rscale>  0 0.22536093E+04</rscale>
<asrwt>0</asrwt>
<pdfrwt beam="1">  1        2 0.20311216E+00 0.22536093E+04</pdfrwt>
<pdfrwt beam="2">  1       -1 0.14795670E+00 0.22536093E+04</pdfrwt>
<totfact> 0.60410559E+00</totfact>
</mgrwt>
</event>
<event>
12    6  0.1529770E-007  0.1513924E+04  0.7818608E-02  0.8875246E-01
          2   -1    0    0  501    0  0.00000000000E+00  0.00000000000E+00  0.60866390962E+03  0.60866390962E+03  0.00000000000E+00 0. -1.
         -1   -1    0    0    0  501 -0.00000000000E+00 -0.00000000000E+00 -0.94139246607E+03  0.94139246607E+03  0.00000000000E+00 0.  1.
         24    2    1    2    0    0  0.47843777325E+03  0.48275283081E+02 -0.80835909419E+02  0.49408475866E+03  0.79700054329E+02 0.  0.
        254    2    1    2    0    0 -0.47843777325E+03 -0.48275283081E+02 -0.25189264703E+03  0.10559716170E+04  0.90575545515E+03 0.  0.
         23    2    4    4    0    0 -0.20239972188E+03 -0.29788181267E+03  0.23265218809E+03  0.43821139523E+03  0.90570218893E+02 0.  0.
         23    2    4    4    0    0 -0.27603805137E+03  0.24960652959E+03 -0.48454483511E+03  0.61776022181E+03  0.91343138760E+02 0.  0.
          4    1    3    3  502    0  0.33651629163E+03  0.29786686820E+01 -0.35674324945E+02  0.33841504763E+03  0.00000000000E+00 0. -1.
         -3    1    3    3    0  502  0.14192148161E+03  0.45296614399E+02 -0.45161584474E+02  0.15566971103E+03  0.00000000000E+00 0.  1.
         11    1    5    5    0    0 -0.64027083519E+02 -0.40869726516E+02  0.73732219021E+02  0.10585953944E+03  0.00000000000E+00 0.  1.
        -11    1    5    5    0    0 -0.13837263836E+03 -0.25701208615E+03  0.15891996906E+03  0.33235185578E+03  0.00000000000E+00 0. -1.
          3    1    6    6  503    0 -0.15503685943E+03  0.16180734781E+03 -0.22082765471E+03  0.31461547748E+03  0.00000000000E+00 0. -1.
         -3    1    6    6    0  503 -0.12100119193E+03  0.87799181772E+02 -0.26371718041E+03  0.30314474432E+03  0.00000000000E+00 0.  1.
<mgrwt>
<rscale>  0 0.15139242E+04</rscale>
<asrwt>0</asrwt>
<pdfrwt beam="1">  1        2 0.93640602E-01 0.15139242E+04</pdfrwt>
<pdfrwt beam="2">  1       -1 0.14482961E+00 0.15139242E+04</pdfrwt>
<totfact> 0.20604414E+01</totfact>
</mgrwt>
</event>
<event>
12    6  0.1529770E-007  0.1352057E+04  0.7818608E-02  0.8989273E-01
         -1   -1    0    0    0  501 -0.00000000000E+00  0.00000000000E+00  0.47615780062E+03  0.47615780062E+03  0.00000000000E+00 0.  1.
          2   -1    0    0  501    0  0.00000000000E+00 -0.00000000000E+00 -0.95979623858E+03  0.95979623858E+03  0.00000000000E+00 0. -1.
         24    2    1    2    0    0  0.36668390190E+03 -0.26190059573E+02 -0.69331168281E+02  0.38179632144E+03  0.76279859954E+02 0.  0.
        254    2    1    2    0    0 -0.36668390190E+03  0.26190059573E+02 -0.41430726968E+03  0.10541577178E+04  0.89691414141E+03 0.  0.
         23    2    4    4    0    0 -0.31022878251E+03 -0.14316484702E+03  0.20120522185E+03  0.40691081377E+03  0.91404584929E+02 0.  0.
         23    2    4    4    0    0 -0.56455119390E+02  0.16935490659E+03 -0.61551249153E+03  0.64724690399E+03  0.90579592622E+02 0.  0.
          4    1    3    3  502    0  0.75375204894E+02 -0.44896943934E+01  0.16583139342E+02  0.77308339647E+02  0.00000000000E+00 0. -1.
         -3    1    3    3    0  502  0.29130869701E+03 -0.21700365180E+02 -0.85914307623E+02  0.30448798179E+03  0.00000000000E+00 0.  1.
         11    1    5    5    0    0 -0.84401372706E+02 -0.38785922286E+02  0.10569229305E+02  0.93486085010E+02  0.00000000000E+00 0.  1.
        -11    1    5    5    0    0 -0.22582740980E+03 -0.10437892473E+03  0.19063599254E+03  0.31342472876E+03  0.00000000000E+00 0. -1.
          4    1    6    6  503    0 -0.47228230204E+02  0.17493224780E+03 -0.60712490460E+03  0.63358696864E+03  0.00000000000E+00 0. -1.
         -4    1    6    6    0  503 -0.92268891865E+01 -0.55773412134E+01 -0.83875869305E+01  0.13659935343E+02  0.00000000000E+00 0.  1.
<mgrwt>
<rscale>  0 0.13520569E+04</rscale>
<asrwt>0</asrwt>
<pdfrwt beam="1">  1        2 0.14766096E+00 0.13520569E+04</pdfrwt>
<pdfrwt beam="2">  1       -1 0.73255047E-01 0.13520569E+04</pdfrwt>
<totfact> 0.55994670E+01</totfact>
</mgrwt>
</event>
<event>
12    6  0.1529770E-007  0.1459938E+04  0.7818608E-02  0.8911539E-01
         -1   -1    0    0    0  501 -0.00000000000E+00  0.00000000000E+00  0.27750875718E+03  0.27750875718E+03  0.00000000000E+00 0.  1.
          2   -1    0    0  501    0  0.00000000000E+00 -0.00000000000E+00 -0.19201373482E+04  0.19201373482E+04  0.00000000000E+00 0. -1.
         24    2    1    2    0    0 -0.23435133574E+03 -0.21645391834E+03 -0.98280918836E+03  0.10363556619E+04  0.79663729675E+02 0.  0.
        254    2    1    2    0    0  0.23435133574E+03  0.21645391834E+03 -0.65981940267E+03  0.11612904435E+04  0.90081130253E+03 0.  0.
         23    2    4    4    0    0 -0.33671818350E+03  0.11264609473E+03 -0.20957902108E+03  0.42145168741E+03  0.87349189960E+02 0.  0.
         23    2    4    4    0    0  0.57106951924E+03  0.10380782360E+03 -0.45024038159E+03  0.73983875612E+03  0.88025699615E+02 0.  0.
          4    1    3    3  502    0 -0.19192021883E+03 -0.16812272268E+03 -0.86842875236E+03  0.90513375708E+03  0.00000000000E+00 0. -1.
         -3    1    3    3    0  502 -0.42431116911E+02 -0.48331195657E+02 -0.11438043600E+03  0.13122190478E+03  0.00000000000E+00 0.  1.
         11    1    5    5    0    0 -0.18436706459E+03  0.86560488633E+02 -0.16038565109E+03  0.25924407375E+03  0.00000000000E+00 0.  1.
        -11    1    5    5    0    0 -0.15235111892E+03  0.26085606099E+02 -0.49193369990E+02  0.16220761367E+03  0.00000000000E+00 0. -1.
          1    1    6    6  503    0  0.54027387144E+03  0.83337200464E+02 -0.43922104010E+03  0.70125321191E+03  0.00000000000E+00 0.  1.
         -1    1    6    6    0  503  0.30795647801E+02  0.20470623140E+02 -0.11019341488E+02  0.38585544211E+02  0.00000000000E+00 0. -1.
<mgrwt>
<rscale>  0 0.14599383E+04</rscale>
<asrwt>0</asrwt>
<pdfrwt beam="1">  1        2 0.29540574E+00 0.14599383E+04</pdfrwt>
<pdfrwt beam="2">  1       -1 0.42693655E-01 0.14599383E+04</pdfrwt>
<totfact> 0.44137672E+01</totfact>
</mgrwt>
</event>
<event>
12    6  0.1529770E-007  0.3764335E+04  0.7818608E-02  0.8053852E-01
          2   -1    0    0  501    0  0.00000000000E+00  0.00000000000E+00  0.34309177017E+04  0.34309177017E+04  0.00000000000E+00 0. -1.
         -1   -1    0    0    0  501 -0.00000000000E+00 -0.00000000000E+00 -0.10325385554E+04  0.10325385554E+04  0.00000000000E+00 0.  1.
         24    2    1    2    0    0 -0.15474857989E+04  0.86278826478E+03  0.10443516251E+04  0.20582900178E+04  0.82289689824E+02 0.  0.
        254    2    1    2    0    0  0.15474857989E+04 -0.86278826478E+03  0.13540275212E+04  0.24051662393E+04  0.90128698134E+03 0.  0.
         23    2    4    4    0    0  0.13468211559E+04 -0.36453100250E+03  0.73235735062E+03  0.15786304399E+04  0.94428273617E+02 0.  0.
         23    2    4    4    0    0  0.20066464297E+03 -0.49825726228E+03  0.62167017061E+03  0.82653579941E+03  0.90338410040E+02 0.  0.
          2    1    3    3  502    0 -0.13991760010E+04  0.77518079927E+03  0.91404280992E+03  0.18423010101E+04  0.00000000000E+00 0. -1.
         -1    1    3    3    0  502 -0.14830979789E+03  0.87607465514E+02  0.13030881513E+03  0.21598900774E+03  0.00000000000E+00 0.  1.
         11    1    5    5    0    0  0.12077582272E+04 -0.32371873221E+03  0.62252299086E+03  0.13967851041E+04  0.00000000000E+00 0. -1.
        -11    1    5    5    0    0  0.13906292878E+03 -0.40812270290E+02  0.10983435976E+03  0.18184533579E+03  0.00000000000E+00 0.  1.
          3    1    6    6  503    0  0.49716041038E+02 -0.22984930470E+03  0.23821493286E+03  0.33473682475E+03  0.00000000000E+00 0. -1.
         -3    1    6    6    0  503  0.15094860193E+03 -0.26840795758E+03  0.38345523775E+03  0.49179897466E+03  0.00000000000E+00 0.  1.
<mgrwt>
<rscale>  0 0.37643352E+04</rscale>
<asrwt>0</asrwt>
<pdfrwt beam="1">  1        2 0.52783349E+00 0.37643352E+04</pdfrwt>
<pdfrwt beam="2">  1       -1 0.15885209E+00 0.37643352E+04</pdfrwt>
<totfact> 0.24670645E-01</totfact>
</mgrwt>
</event>
<event>
12    6  0.1529770E-007  0.1467464E+04  0.7818608E-02  0.8906382E-01
          2   -1    0    0  501    0  0.00000000000E+00  0.00000000000E+00  0.70095497044E+03  0.70095497044E+03  0.00000000000E+00 0. -1.
         -1   -1    0    0    0  501 -0.00000000000E+00 -0.00000000000E+00 -0.76804139531E+03  0.76804139531E+03  0.00000000000E+00 0.  1.
         24    2    1    2    0    0 -0.10716899376E+03 -0.43950718893E+03  0.31638129288E+01  0.46097800691E+03  0.88537849524E+02 0.  0.
        254    2    1    2    0    0  0.10716899376E+03  0.43950718893E+03 -0.70250237794E+02  0.10080183588E+04  0.89806133059E+03 0.  0.
         23    2    4    4    0    0  0.32051163858E+03  0.62197909532E+03 -0.16235014993E+01  0.70545574970E+03  0.89885891842E+02 0.  0.
         23    2    4    4    0    0 -0.21334264482E+03 -0.18247190640E+03 -0.68626736295E+02  0.30256260913E+03  0.89573560773E+02 0.  0.
          4    1    3    3  502    0 -0.99755117597E+02 -0.42099981121E+03  0.22450327347E+02  0.43323889682E+03  0.00000000000E+00 0. -1.
         -3    1    3    3    0  502 -0.74138761624E+01 -0.18507377718E+02 -0.19286514418E+02  0.27739110082E+02  0.00000000000E+00 0.  1.
         11    1    5    5    0    0  0.12858195191E+03  0.34291855679E+03 -0.14500749718E+02  0.36651974939E+03  0.00000000000E+00 0. -1.
        -11    1    5    5    0    0  0.19192968666E+03  0.27906053853E+03  0.12877248219E+02  0.33893600031E+03  0.00000000000E+00 0.  1.
          1    1    6    6  503    0 -0.20257606558E+02 -0.49578900570E+02 -0.39101174826E+02  0.66312441352E+02  0.00000000000E+00 0. -1.
         -1    1    6    6    0  503 -0.19308503826E+03 -0.13289300583E+03 -0.29525561469E+02  0.23625016778E+03  0.00000000000E+00 0.  1.
<mgrwt>
<rscale>  0 0.14674637E+04</rscale>
<asrwt>0</asrwt>
<pdfrwt beam="1">  1        2 0.10783923E+00 0.14674637E+04</pdfrwt>
<pdfrwt beam="2">  1       -1 0.11816021E+00 0.14674637E+04</pdfrwt>
<totfact> 0.29100105E+01</totfact>
</mgrwt>
</event>
<event>
12    6  0.1529770E-007  0.2609576E+04  0.7818608E-02  0.8364956E-01
          2   -1    0    0  501    0  0.00000000000E+00  0.00000000000E+00  0.11348088793E+04  0.11348088793E+04  0.00000000000E+00 0. -1.
         -1   -1    0    0    0  501 -0.00000000000E+00 -0.00000000000E+00 -0.15002279599E+04  0.15002279599E+04  0.00000000000E+00 0.  1.
         24    2    1    2    0    0  0.44580211947E+03 -0.68196704808E+03  0.65442958223E+03  0.10481556217E+04  0.80830345426E+02 0.  0.
        254    2    1    2    0    0 -0.44580211947E+03  0.68196704808E+03 -0.10198486629E+04  0.15868812175E+04  0.90237581916E+03 0.  0.
         23    2    4    4    0    0  0.26638888804E+03  0.17617077640E+03 -0.22341400929E+03  0.40122833858E+03  0.95242732006E+02 0.  0.
         23    2    4    4    0    0 -0.71219100751E+03  0.50579627168E+03 -0.79643465360E+03  0.11856528790E+04  0.91753432243E+02 0.  0.
          4    1    3    3  502    0  0.41795642903E+03 -0.61111074481E+03  0.56924010318E+03  0.93390482066E+03  0.00000000000E+00 0. -1.
         -3    1    3    3    0  502  0.27845690446E+02 -0.70856303271E+02  0.85189479053E+02  0.11425080101E+03  0.00000000000E+00 0.  1.
         11    1    5    5    0    0  0.12299432513E+03  0.65367263841E+02 -0.15275532774E+03  0.20672366422E+03  0.00000000000E+00 0. -1.
        -11    1    5    5    0    0  0.14339456291E+03  0.11080351256E+03 -0.70658681556E+02  0.19450467436E+03  0.00000000000E+00 0.  1.
          1    1    6    6  503    0 -0.94882936770E+02  0.31921558385E+02 -0.90021924474E+02  0.13463173647E+03  0.00000000000E+00 0. -1.
         -1    1    6    6    0  503 -0.61730807075E+03  0.47387471329E+03 -0.70641272912E+03  0.10510211425E+04  0.00000000000E+00 0.  1.
<mgrwt>
<rscale>  0 0.26095762E+04</rscale>
<asrwt>0</asrwt>
<pdfrwt beam="1">  1        2 0.17458598E+00 0.26095762E+04</pdfrwt>
<pdfrwt beam="2">  1       -1 0.23080430E+00 0.26095762E+04</pdfrwt>
<totfact> 0.19479072E+00</totfact>
</mgrwt>
</event>
<event>
12    6  0.1529770E-007  0.1462818E+04  0.7818608E-02  0.8909562E-01
         -1   -1    0    0    0  501 -0.00000000000E+00  0.00000000000E+00  0.99204670565E+03  0.99204670565E+03  0.00000000000E+00 0.  1.
          2   -1    0    0  501    0  0.00000000000E+00 -0.00000000000E+00 -0.53924812671E+03  0.53924812671E+03  0.00000000000E+00 0. -1.
         24    2    1    2    0    0  0.23170562748E+03  0.10041579081E+02  0.53883550780E+03  0.59147148142E+03  0.75541232182E+02 0.  0.
        254    2    1    2    0    0 -0.23170562748E+03 -0.10041579081E+02 -0.86036928859E+02  0.93982335093E+03  0.90668475598E+03 0.  0.
         23    2    4    4    0    0  0.90389895725E+02  0.93890328181E+02  0.34725818932E+03  0.38208984239E+03  0.91753314002E+02 0.  0.
         23    2    4    4    0    0 -0.32209552320E+03 -0.10393190726E+03 -0.43329511818E+03  0.55773350854E+03  0.93673046803E+02 0.  0.
          2    1    3    3  502    0  0.31856184477E+02  0.28541560117E+02  0.81760534664E+02  0.92272542892E+02  0.00000000000E+00 0. -1.
         -1    1    3    3    0  502  0.19984944300E+03 -0.18499981036E+02  0.45707497313E+03  0.49919893853E+03  0.00000000000E+00 0.  1.
         11    1    5    5    0    0  0.10848078646E+03  0.79391990584E+02  0.27310431198E+03  0.30439634430E+03  0.00000000000E+00 0.  1.
        -11    1    5    5    0    0 -0.18090890736E+02  0.14498337597E+02  0.74153877343E+02  0.77693498091E+02  0.00000000000E+00 0. -1.
          4    1    6    6  503    0  0.51186562601E+01  0.10647971879E+01 -0.72996025336E+00  0.52789465741E+01  0.00000000000E+00 0. -1.
         -4    1    6    6    0  503 -0.32721417946E+03 -0.10499670445E+03 -0.43256515793E+03  0.55245456197E+03  0.00000000000E+00 0.  1.
<mgrwt>
<rscale>  0 0.14628183E+04</rscale>
<asrwt>0</asrwt>
<pdfrwt beam="1">  1        2 0.82961250E-01 0.14628183E+04</pdfrwt>
<pdfrwt beam="2">  1       -1 0.15262257E+00 0.14628183E+04</pdfrwt>
<totfact> 0.20777173E+01</totfact>
</mgrwt>
</event>
<event>
12    6  0.1529770E-007  0.1234406E+04  0.7818608E-02  0.9083263E-01
          2   -1    0    0  501    0  0.00000000000E+00  0.00000000000E+00  0.12397305776E+04  0.12397305776E+04  0.00000000000E+00 0. -1.
         -1   -1    0    0    0  501 -0.00000000000E+00 -0.00000000000E+00 -0.30727591245E+03  0.30727591245E+03  0.00000000000E+00 0.  1.
         24    2    1    2    0    0 -0.37388001330E+02  0.24142699967E+02 -0.12693078697E+03  0.15563259059E+03  0.78290139648E+02 0.  0.
        254    2    1    2    0    0  0.37388001330E+02 -0.24142699967E+02  0.10593854521E+04  0.13913738994E+04  0.90091234829E+03 0.  0.
         23    2    4    4    0    0 -0.75707417567E+02 -0.42386942406E+03  0.73314347178E+03  0.85503830636E+03  0.90522115500E+02 0.  0.
         23    2    4    4    0    0  0.11309541890E+03  0.39972672410E+03  0.32624198030E+03  0.53633559306E+03  0.93005435010E+02 0.  0.
          2    1    3    3  502    0 -0.11143016241E+02 -0.17900953814E+02 -0.93501969873E+02  0.95850035621E+02  0.00000000000E+00 0. -1.
         -1    1    3    3    0  502 -0.26244985089E+02  0.42043653781E+02 -0.33428817100E+02  0.59782554966E+02  0.00000000000E+00 0.  1.
         11    1    5    5    0    0  0.33258335405E+01 -0.78860397458E+02  0.81384355126E+02  0.11337299817E+03  0.00000000000E+00 0. -1.
        -11    1    5    5    0    0 -0.79033251108E+02 -0.34500902661E+03  0.65175911665E+03  0.74166530818E+03  0.00000000000E+00 0.  1.
          1    1    6    6  503    0  0.45633367148E+01  0.91910722616E+02  0.11610326901E+03  0.14814983648E+03  0.00000000000E+00 0. -1.
         -1    1    6    6    0  503  0.10853208218E+03  0.30781600148E+03  0.21013871129E+03  0.38818575658E+03  0.00000000000E+00 0.  1.
<mgrwt>
<rscale>  0 0.12344057E+04</rscale>
<asrwt>0</asrwt>
<pdfrwt beam="1">  1        2 0.19072778E+00 0.12344057E+04</pdfrwt>
<pdfrwt beam="2">  1       -1 0.47273218E-01 0.12344057E+04</pdfrwt>
<totfact> 0.89837417E+01</totfact>
</mgrwt>
</event>
<event>
12    6  0.1529770E-007  0.1183911E+04  0.7818608E-02  0.9127057E-01
          2   -1    0    0  501    0  0.00000000000E+00  0.00000000000E+00  0.21759626025E+03  0.21759626025E+03  0.00000000000E+00 0. -1.
         -1   -1    0    0    0  501 -0.00000000000E+00 -0.00000000000E+00 -0.16103747100E+04  0.16103747100E+04  0.00000000000E+00 0.  1.
         24    2    1    2    0    0 -0.17829477620E+03 -0.14038262408E+03 -0.42665180165E+03  0.48990645067E+03  0.80500075721E+02 0.  0.
        254    2    1    2    0    0  0.17829477620E+03  0.14038262408E+03 -0.96612664806E+03  0.13380645195E+04  0.89750746515E+03 0.  0.
         23    2    4    4    0    0  0.36666159373E+02  0.50513015739E+03 -0.43558272434E+03  0.67415089564E+03  0.90808794731E+02 0.  0.
         23    2    4    4    0    0  0.14162861683E+03 -0.36474753331E+03 -0.53054392373E+03  0.66391362391E+03  0.78771929306E+02 0.  0.
          4    1    3    3  502    0 -0.16416175870E+03 -0.10891339946E+03 -0.40145164674E+03  0.44718523709E+03  0.00000000000E+00 0. -1.
         -3    1    3    3    0  502 -0.14133017496E+02 -0.31469224627E+02 -0.25200154914E+02  0.42721213581E+02  0.00000000000E+00 0.  1.
         11    1    5    5    0    0 -0.25471132766E+02  0.20469310801E+03 -0.15040471438E+03  0.25528342127E+03  0.00000000000E+00 0.  1.
        -11    1    5    5    0    0  0.62137292139E+02  0.30043704939E+03 -0.28517800996E+03  0.41886747437E+03  0.00000000000E+00 0. -1.
          1    1    6    6  503    0  0.38517753785E+02 -0.20611754864E+03 -0.29055346398E+03  0.35831463359E+03  0.00000000000E+00 0. -1.
         -1    1    6    6    0  503  0.10311086304E+03 -0.15862998467E+03 -0.23999045975E+03  0.30559899032E+03  0.00000000000E+00 0.  1.
<mgrwt>
<rscale>  0 0.11839113E+04</rscale>
<asrwt>0</asrwt>
<pdfrwt beam="1">  1        2 0.33476346E-01 0.11839113E+04</pdfrwt>
<pdfrwt beam="2">  1       -1 0.24774996E+00 0.11839113E+04</pdfrwt>
<totfact> 0.12888467E+01</totfact>
</mgrwt>
</event>
<event>
12    6  0.1529770E-007  0.1074476E+04  0.7818608E-02  0.9230432E-01
         -1   -1    0    0    0  501 -0.00000000000E+00  0.00000000000E+00  0.11283470351E+03  0.11283470351E+03  0.00000000000E+00 0.  1.
          2   -1    0    0  501    0  0.00000000000E+00 -0.00000000000E+00 -0.25579441449E+04  0.25579441449E+04  0.00000000000E+00 0. -1.
         24    2    1    2    0    0  0.97038039597E+02 -0.47570220573E+02 -0.58103706080E+03  0.59635047485E+03  0.79690123756E+02 0.  0.
        254    2    1    2    0    0 -0.97038039597E+02  0.47570220573E+02 -0.18640723806E+04  0.20744283735E+04  0.90377426932E+03 0.  0.
         23    2    4    4    0    0 -0.42709315647E+03 -0.10863603831E+03 -0.56737463394E+03  0.72426725239E+03  0.91862530560E+02 0.  0.
         23    2    4    4    0    0  0.33005511687E+03  0.15620625888E+03 -0.12966977466E+04  0.13501611211E+04  0.90405925855E+02 0.  0.
          2    1    3    3  502    0  0.84117422267E+02 -0.38512502966E+02 -0.27975350674E+03  0.29465399734E+03  0.00000000000E+00 0. -1.
         -1    1    3    3    0  502  0.12920617329E+02 -0.90577176065E+01 -0.30128355406E+03  0.30169647751E+03  0.00000000000E+00 0.  1.
         11    1    5    5    0    0 -0.15880720927E+03 -0.84812807350E+02 -0.20651400711E+03  0.27397258465E+03  0.00000000000E+00 0. -1.
        -11    1    5    5    0    0 -0.26828594720E+03 -0.23823230959E+02 -0.36086062683E+03  0.45029466774E+03  0.00000000000E+00 0.  1.
          1    1    6    6  503    0  0.33552948355E+03  0.15290248727E+03 -0.12846769409E+04  0.13365455651E+04  0.00000000000E+00 0.  1.
         -1    1    6    6    0  503 -0.54743666802E+01  0.33037716103E+01 -0.12020805698E+02  0.13615556068E+02  0.00000000000E+00 0. -1.
<mgrwt>
<rscale>  0 0.10744764E+04</rscale>
<asrwt>0</asrwt>
<pdfrwt beam="1">  1        2 0.39352982E+00 0.10744764E+04</pdfrwt>
<pdfrwt beam="2">  1       -1 0.17359187E-01 0.10744764E+04</pdfrwt>
<totfact> 0.95458845E+01</totfact>
</mgrwt>
</event>
<event>
12    6  0.1529770E-007  0.1467262E+04  0.7818608E-02  0.8906520E-01
         -1   -1    0    0    0  501 -0.00000000000E+00  0.00000000000E+00  0.18493591575E+04  0.18493591575E+04  0.00000000000E+00 0.  1.
          2   -1    0    0  501    0  0.00000000000E+00 -0.00000000000E+00 -0.29102749790E+03  0.29102749790E+03  0.00000000000E+00 0. -1.
         24    2    1    2    0    0 -0.11976573996E+02 -0.37997276073E+03  0.92527489107E+03  0.10038929592E+04  0.84526399543E+02 0.  0.
        254    2    1    2    0    0  0.11976573996E+02  0.37997276073E+03  0.63305676849E+03  0.11364936962E+04  0.86390642555E+03 0.  0.
         23    2    4    4    0    0  0.14036339659E+03  0.35636305123E+03  0.80834359262E+03  0.89900913753E+03  0.90008656548E+02 0.  0.
         23    2    4    4    0    0 -0.12838682260E+03  0.23609709496E+02 -0.17528682412E+03  0.23748455865E+03  0.92913133017E+02 0.  0.
          4    1    3    3  502    0 -0.12368437884E+02 -0.31351023489E+03  0.83335298361E+03  0.89045990417E+03  0.00000000000E+00 0. -1.
         -3    1    3    3    0  502  0.39186388844E+00 -0.66462525836E+02  0.91921907464E+02  0.11343305501E+03  0.00000000000E+00 0.  1.
         11    1    5    5    0    0  0.10396858377E+03  0.16602948449E+03  0.34427988941E+03  0.39611096726E+03  0.00000000000E+00 0.  1.
        -11    1    5    5    0    0  0.36394812826E+02  0.19033356675E+03  0.46406370321E+03  0.50289817028E+03  0.00000000000E+00 0. -1.
          4    1    6    6  503    0  0.61187155460E+01  0.12593095381E+02 -0.54831161562E+02  0.56590467478E+02  0.00000000000E+00 0. -1.
         -4    1    6    6    0  503 -0.13450553814E+03  0.11016614115E+02 -0.12045566256E+03  0.18089409117E+03  0.00000000000E+00 0.  1.
<mgrwt>
<rscale>  0 0.14672619E+04</rscale>
<asrwt>0</asrwt>
<pdfrwt beam="1">  1        2 0.44773462E-01 0.14672619E+04</pdfrwt>
<pdfrwt beam="2">  1       -1 0.28451679E+00 0.14672619E+04</pdfrwt>
<totfact> 0.52529647E+00</totfact>
</mgrwt>
</event>
<event>
12    6  0.1529770E-007  0.1635659E+04  0.7818608E-02  0.8798936E-01
         -1   -1    0    0    0  501 -0.00000000000E+00  0.00000000000E+00  0.43657025252E+03  0.43657025252E+03  0.00000000000E+00 0.  1.
          2   -1    0    0  501    0  0.00000000000E+00 -0.00000000000E+00 -0.15320438356E+04  0.15320438356E+04  0.00000000000E+00 0. -1.
         24    2    1    2    0    0 -0.31644446854E+03 -0.33746282292E+03  0.63441609756E+02  0.47362081779E+03  0.79205951010E+02 0.  0.
        254    2    1    2    0    0  0.31644446854E+03  0.33746282292E+03 -0.11589151928E+04  0.14949932703E+04  0.82334816183E+03 0.  0.
         23    2    4    4    0    0  0.32449960971E+03  0.58595639668E+03 -0.89277291302E+03  0.11198377175E+04  0.91368176554E+02 0.  0.
         23    2    4    4    0    0 -0.80551411710E+01 -0.24849357376E+03 -0.26614227979E+03  0.37515555284E+03  0.89977965284E+02 0.  0.
          4    1    3    3  502    0 -0.27978641520E+02 -0.70610546101E+02  0.28037349879E+01  0.76003385003E+02  0.00000000000E+00 0. -1.
         -3    1    3    3    0  502 -0.28846582702E+03 -0.26685227682E+03  0.60637874769E+02  0.39761743279E+03  0.00000000000E+00 0.  1.
         11    1    5    5    0    0  0.19449725139E+03  0.36431916537E+03 -0.62137150762E+03  0.74609663284E+03  0.00000000000E+00 0.  1.
        -11    1    5    5    0    0  0.13000235832E+03  0.22163723131E+03 -0.27140140541E+03  0.37374108462E+03  0.00000000000E+00 0. -1.
          4    1    6    6  503    0 -0.79892924155E+01 -0.24779615269E+03 -0.22743622063E+03  0.33644315499E+03  0.00000000000E+00 0. -1.
         -4    1    6    6    0  503 -0.65848755482E-01 -0.69742106989E+00 -0.38706059157E+02  0.38712397855E+02  0.00000000000E+00 0.  1.
<mgrwt>
<rscale>  0 0.16356586E+04</rscale>
<asrwt>0</asrwt>
<pdfrwt beam="1">  1        2 0.23569905E+00 0.16356586E+04</pdfrwt>
<pdfrwt beam="2">  1       -1 0.67164654E-01 0.16356586E+04</pdfrwt>
<totfact> 0.29791703E+01</totfact>
</mgrwt>
</event>
<event>
12    6  0.1529770E-007  0.2053587E+04  0.7818608E-02  0.8581969E-01
         -1   -1    0    0    0  501 -0.00000000000E+00  0.00000000000E+00  0.73192827912E+03  0.73192827912E+03  0.00000000000E+00 0.  1.
          2   -1    0    0  501    0  0.00000000000E+00 -0.00000000000E+00 -0.14404479833E+04  0.14404479833E+04  0.00000000000E+00 0. -1.
         24    2    1    2    0    0 -0.25115517048E+03 -0.78167950932E+03 -0.47055850986E+03  0.95035144024E+03  0.87411519945E+02 0.  0.
        254    2    1    2    0    0  0.25115517048E+03  0.78167950932E+03 -0.23796119434E+03  0.12220248222E+04  0.87327965801E+03 0.  0.
         23    2    4    4    0    0  0.80858120830E+02 -0.17802363174E+03 -0.73722258062E+01  0.21614786064E+03  0.91842793858E+02 0.  0.
         23    2    4    4    0    0  0.17029704965E+03  0.95970314106E+03 -0.23058896853E+03  0.10058769616E+04  0.92660591890E+02 0.  0.
          4    1    3    3  502    0 -0.21212098224E+03 -0.70538484401E+03 -0.44644885662E+03  0.86132437028E+03  0.00000000000E+00 0. -1.
         -3    1    3    3    0  502 -0.39034188242E+02 -0.76294665313E+02 -0.24109653244E+02  0.89027069965E+02  0.00000000000E+00 0.  1.
         11    1    5    5    0    0  0.42266410357E+01 -0.16518442693E+01 -0.22783508281E+02  0.23231042454E+02  0.00000000000E+00 0. -1.
        -11    1    5    5    0    0  0.76631479795E+02 -0.17637178747E+03  0.15411282475E+02  0.19291681819E+03  0.00000000000E+00 0.  1.
          2    1    6    6  503    0 -0.81299764020E+01  0.13748814566E+03 -0.30908986337E+02  0.14115400154E+03  0.00000000000E+00 0. -1.
         -2    1    6    6    0  503  0.17842702605E+03  0.82221499541E+03 -0.19967998220E+03  0.86472296002E+03  0.00000000000E+00 0.  1.
<mgrwt>
<rscale>  0 0.20535867E+04</rscale>
<asrwt>0</asrwt>
<pdfrwt beam="1">  1        2 0.22160738E+00 0.20535867E+04</pdfrwt>
<pdfrwt beam="2">  1       -1 0.11260435E+00 0.20535867E+04</pdfrwt>
<totfact> 0.10440806E+01</totfact>
</mgrwt>
</event>
<event>
12    6  0.1529770E-007  0.1192567E+04  0.7818608E-02  0.9119388E-01
          2   -1    0    0  501    0  0.00000000000E+00  0.00000000000E+00  0.26768284752E+04  0.26768284752E+04  0.00000000000E+00 0. -1.
         -1   -1    0    0    0  501 -0.00000000000E+00 -0.00000000000E+00 -0.13282656933E+03  0.13282656933E+03  0.00000000000E+00 0.  1.
         24    2    1    2    0    0 -0.93712015391E+02  0.43072415757E+02  0.10777818140E+04  0.10856607027E+04  0.80052158651E+02 0.  0.
        254    2    1    2    0    0  0.93712015391E+02 -0.43072415757E+02  0.14662200919E+04  0.17239943418E+04  0.90095391548E+03 0.  0.
         23    2    4    4    0    0  0.43231296125E+03  0.19457117569E+03  0.76324471901E+03  0.90328205245E+03  0.92862943682E+02 0.  0.
         23    2    4    4    0    0 -0.33860094586E+03 -0.23764359144E+03  0.70297537291E+03  0.82071228936E+03  0.90935196194E+02 0.  0.
          2    1    3    3  502    0 -0.19513390023E+02 -0.23415472163E+02  0.29257923288E+03  0.29416264929E+03  0.00000000000E+00 0. -1.
         -1    1    3    3    0  502 -0.74198625368E+02  0.66487887920E+02  0.78520258109E+03  0.79149805344E+03  0.00000000000E+00 0.  1.
         11    1    5    5    0    0  0.40199642355E+03  0.16227156618E+03  0.64628457356E+03  0.77821393958E+03  0.00000000000E+00 0. -1.
        -11    1    5    5    0    0  0.30316537695E+02  0.32299609509E+02  0.11696014545E+03  0.12506811287E+03  0.00000000000E+00 0.  1.
          3    1    6    6  503    0 -0.29479381641E+03 -0.17840962996E+03  0.62323099359E+03  0.71214483191E+03  0.00000000000E+00 0. -1.
         -3    1    6    6    0  503 -0.43807129451E+02 -0.59233961482E+02  0.79744379318E+02  0.10856745745E+03  0.00000000000E+00 0.  1.
<mgrwt>
<rscale>  0 0.11925669E+04</rscale>
<asrwt>0</asrwt>
<pdfrwt beam="1">  1        2 0.41181972E+00 0.11925669E+04</pdfrwt>
<pdfrwt beam="2">  1       -1 0.20434859E-01 0.11925669E+04</pdfrwt>
<totfact> 0.61369899E+01</totfact>
</mgrwt>
</event>
<event>
12    6  0.1529770E-007  0.1545376E+04  0.7818608E-02  0.8854827E-01
          2   -1    0    0  501    0  0.00000000000E+00  0.00000000000E+00  0.24683172688E+04  0.24683172688E+04  0.00000000000E+00 0. -1.
         -1   -1    0    0    0  501 -0.00000000000E+00 -0.00000000000E+00 -0.24188411805E+03  0.24188411805E+03  0.00000000000E+00 0.  1.
         24    2    1    2    0    0  0.33363885525E+03  0.32114469456E+03  0.38082490237E+03  0.60498190642E+03  0.80787995714E+02 0.  0.
        254    2    1    2    0    0 -0.33363885525E+03 -0.32114469456E+03  0.18456082484E+04  0.21052194804E+04  0.90068332599E+03 0.  0.
         23    2    4    4    0    0  0.22958135308E+03  0.12768608427E+03  0.64534849547E+03  0.70251521856E+03  0.89675068492E+02 0.  0.
         23    2    4    4    0    0 -0.56322020834E+03 -0.44883077883E+03  0.12002597529E+04  0.14027042619E+04  0.91047793443E+02 0.  0.
          4    1    3    3  502    0  0.49024600261E+02  0.92051673518E+02  0.95472345454E+02  0.14139268289E+03  0.00000000000E+00 0. -1.
         -3    1    3    3    0  502  0.28461425499E+03  0.22909302104E+03  0.28535255692E+03  0.46358922353E+03  0.00000000000E+00 0.  1.
         11    1    5    5    0    0  0.45043218308E+02  0.26953439892E+02  0.24238128521E+03  0.24800013479E+03  0.00000000000E+00 0. -1.
        -11    1    5    5    0    0  0.18453813478E+03  0.10073264438E+03  0.40296721026E+03  0.45451508377E+03  0.00000000000E+00 0.  1.
          1    1    6    6  503    0 -0.23797593590E+03 -0.18619323601E+03  0.41839649489E+03  0.51609698133E+03  0.00000000000E+00 0. -1.
         -1    1    6    6    0  503 -0.32524427244E+03 -0.26263754282E+03  0.78186325802E+03  0.88660728054E+03  0.00000000000E+00 0.  1.
<mgrwt>
<rscale>  0 0.15453760E+04</rscale>
<asrwt>0</asrwt>
<pdfrwt beam="1">  1        2 0.37974110E+00 0.15453760E+04</pdfrwt>
<pdfrwt beam="2">  1       -1 0.37212943E-01 0.15453760E+04</pdfrwt>
<totfact> 0.27728890E+01</totfact>
</mgrwt>
</event>
<event>
12    6  0.1529770E-007  0.2906949E+04  0.7818608E-02  0.8270813E-01
          2   -1    0    0  501    0  0.00000000000E+00  0.00000000000E+00  0.19449208754E+04  0.19449208754E+04  0.00000000000E+00 0. -1.
         -1   -1    0    0    0  501 -0.00000000000E+00 -0.00000000000E+00 -0.10862079467E+04  0.10862079467E+04  0.00000000000E+00 0.  1.
         24    2    1    2    0    0 -0.40744625312E+03 -0.70574194545E+03  0.14623635771E+04  0.16757617374E+04  0.74739723868E+02 0.  0.
        254    2    1    2    0    0  0.40744625312E+03  0.70574194545E+03 -0.60365064845E+03  0.13553670846E+04  0.89918946055E+03 0.  0.
         23    2    4    4    0    0 -0.16925113056E+03  0.46203844055E+03 -0.32178720267E+02  0.50156248535E+03  0.91673283636E+02 0.  0.
         23    2    4    4    0    0  0.57669738367E+03  0.24370350489E+03 -0.57147192818E+03  0.85380459927E+03  0.10213157398E+03 0.  0.
          2    1    3    3  502    0 -0.32875093803E+03 -0.60319832365E+03  0.12721691126E+04  0.14458006944E+04  0.00000000000E+00 0. -1.
         -3    1    3    3    0  502 -0.78695315092E+02 -0.10254362179E+03  0.19019446452E+03  0.22996104305E+03  0.00000000000E+00 0.  1.
         11    1    5    5    0    0 -0.14233724433E+03  0.26464318320E+03 -0.33347188174E+02  0.30233746129E+03  0.00000000000E+00 0.  1.
        -11    1    5    5    0    0 -0.26913886225E+02  0.19739525735E+03  0.11684679068E+01  0.19922502407E+03  0.00000000000E+00 0. -1.
          2    1    6    6  503    0  0.24053507768E+03  0.66184514540E+02 -0.27818632065E+03  0.37366447859E+03  0.00000000000E+00 0. -1.
         -2    1    6    6    0  503  0.33616230599E+03  0.17751899035E+03 -0.29328560753E+03  0.48014012068E+03  0.00000000000E+00 0.  1.
<mgrwt>
<rscale>  0 0.29069493E+04</rscale>
<asrwt>0</asrwt>
<pdfrwt beam="1">  1        2 0.29921860E+00 0.29069493E+04</pdfrwt>
<pdfrwt beam="2">  1       -1 0.16710892E+00 0.29069493E+04</pdfrwt>
<totfact> 0.18185493E+00</totfact>
</mgrwt>
</event>
<event>
12    6  0.1529770E-007  0.1822322E+04  0.7818608E-02  0.8694518E-01
          2   -1    0    0  501    0  0.00000000000E+00  0.00000000000E+00  0.52560816678E+03  0.52560816678E+03  0.00000000000E+00 0. -1.
         -1   -1    0    0    0  501 -0.00000000000E+00 -0.00000000000E+00 -0.15795307620E+04  0.15795307620E+04  0.00000000000E+00 0.  1.
         24    2    1    2    0    0  0.23425261344E+03  0.64272376569E+03 -0.42763520448E+03  0.81049938426E+03  0.77905441947E+02 0.  0.
        254    2    1    2    0    0 -0.23425261344E+03 -0.64272376569E+03 -0.62628739073E+03  0.12946395445E+04  0.90326492710E+03 0.  0.
         23    2    4    4    0    0  0.40214462568E+02 -0.78177186920E+03 -0.55979311545E+03  0.96699720185E+03  0.94502898395E+02 0.  0.
         23    2    4    4    0    0 -0.27446707601E+03  0.13904810352E+03 -0.66494275276E+02  0.32764234266E+03  0.90892602284E+02 0.  0.
          4    1    3    3  502    0  0.14571992736E+03  0.36814994048E+03 -0.29044471204E+03  0.49104664407E+03  0.00000000000E+00 0. -1.
         -3    1    3    3    0  502  0.88532686087E+02  0.27457382521E+03 -0.13719049245E+03  0.31945274018E+03  0.00000000000E+00 0.  1.
         11    1    5    5    0    0 -0.67332137241E+01 -0.78848174675E+02 -0.26617599825E+02  0.83491720770E+02  0.00000000000E+00 0.  1.
        -11    1    5    5    0    0  0.46947676292E+02 -0.70292369453E+03 -0.53317551563E+03  0.88350548108E+03  0.00000000000E+00 0. -1.
          3    1    6    6  503    0 -0.17647949628E+03  0.81502468792E+02  0.30514429298E+01  0.19441444476E+03  0.00000000000E+00 0. -1.
         -3    1    6    6    0  503 -0.97987579734E+02  0.57545634725E+02 -0.69545718206E+02  0.13322789790E+03  0.00000000000E+00 0.  1.
<mgrwt>
<rscale>  0 0.18223219E+04</rscale>
<asrwt>0</asrwt>
<pdfrwt beam="1">  1        2 0.80862795E-01 0.18223219E+04</pdfrwt>
<pdfrwt beam="2">  1       -1 0.24300473E+00 0.18223219E+04</pdfrwt>
<totfact> 0.48453022E+00</totfact>
</mgrwt>
</event>
<event>
12    6  0.1529770E-007  0.1787726E+04  0.7818608E-02  0.8712854E-01
         -3   -1    0    0    0  501 -0.00000000000E+00  0.00000000000E+00  0.94318058025E+03  0.94318058025E+03  0.00000000000E+00 0.  1.
          4   -1    0    0  501    0  0.00000000000E+00 -0.00000000000E+00 -0.84712414598E+03  0.84712414598E+03  0.00000000000E+00 0. -1.
         24    2    1    2    0    0 -0.48558435372E+03 -0.42185076896E+02 -0.41824673956E+03  0.64673968783E+03  0.75961459827E+02 0.  0.
        254    2    1    2    0    0  0.48558435372E+03  0.42185076896E+02  0.51430317383E+03  0.11435650384E+04  0.89758648449E+03 0.  0.
         23    2    4    4    0    0  0.79021820603E+02  0.37430077140E+03  0.46307097719E+03  0.60739309380E+03  0.90255885577E+02 0.  0.
         23    2    4    4    0    0  0.40656253312E+03 -0.33211569451E+03  0.51232196642E+02  0.53617194459E+03  0.96237665796E+02 0.  0.
          4    1    3    3  502    0 -0.75619952624E+02  0.52451182117E+01 -0.10055035668E+03  0.12592165314E+03  0.00000000000E+00 0. -1.
         -3    1    3    3    0  502 -0.40996440109E+03 -0.47430195107E+02 -0.31769638288E+03  0.52081803470E+03  0.00000000000E+00 0.  1.
         11    1    5    5    0    0  0.50199901651E+02  0.24275296935E+03  0.22968700624E+03  0.33794253223E+03  0.00000000000E+00 0. -1.
        -11    1    5    5    0    0  0.28821918952E+02  0.13154780205E+03  0.23338397095E+03  0.26945056158E+03  0.00000000000E+00 0.  1.
          1    1    6    6  503    0  0.56063076526E+00 -0.24069875879E+02  0.28104710625E+01  0.24239884061E+02  0.00000000000E+00 0. -1.
         -1    1    6    6    0  503  0.40600190235E+03 -0.30804581863E+03  0.48421725580E+02  0.51193206053E+03  0.00000000000E+00 0.  1.
<mgrwt>
<rscale>  0 0.17877260E+04</rscale>
<asrwt>0</asrwt>
<pdfrwt beam="1">  1        4 0.13032679E+00 0.17877260E+04</pdfrwt>
<pdfrwt beam="2">  1       -3 0.14510470E+00 0.17877260E+04</pdfrwt>
<totfact> 0.32644253E-01</totfact>
</mgrwt>
</event>
<event>
12    6  0.1529770E-007  0.2190058E+04  0.7818608E-02  0.8522577E-01
          2   -1    0    0  501    0  0.00000000000E+00  0.00000000000E+00  0.10469755523E+04  0.10469755523E+04  0.00000000000E+00 0. -1.
         -1   -1    0    0    0  501 -0.00000000000E+00 -0.00000000000E+00 -0.11452882538E+04  0.11452882538E+04  0.00000000000E+00 0.  1.
         24    2    1    2    0    0 -0.54295205396E+03 -0.25026889551E+03 -0.72462657535E+03  0.94278608865E+03  0.79564327918E+02 0.  0.
        254    2    1    2    0    0  0.54295205396E+03  0.25026889551E+03  0.62631387393E+03  0.12494777175E+04  0.90082964250E+03 0.  0.
         23    2    4    4    0    0  0.19105455757E+03 -0.31046802271E+03  0.73777045940E+02  0.38287724756E+03  0.90882875708E+02 0.  0.
         23    2    4    4    0    0  0.35189749639E+03  0.56073691822E+03  0.55253682799E+03  0.86660046990E+03  0.86265223162E+02 0.  0.
          4    1    3    3  502    0 -0.15959660309E+03 -0.11226967977E+03 -0.21588626355E+03  0.29100246649E+03  0.00000000000E+00 0. -1.
         -3    1    3    3    0  502 -0.38335545087E+03 -0.13799921573E+03 -0.50874031180E+03  0.65178362215E+03  0.00000000000E+00 0.  1.
         11    1    5    5    0    0  0.14448498529E+03 -0.15131814705E+03  0.52393915881E+02  0.21568081747E+03  0.00000000000E+00 0. -1.
        -11    1    5    5    0    0  0.46569572279E+02 -0.15914987566E+03  0.21383130059E+02  0.16719643009E+03  0.00000000000E+00 0.  1.
          1    1    6    6  503    0  0.15935842326E+03  0.17731875645E+03  0.20636266194E+03  0.31531348956E+03  0.00000000000E+00 0. -1.
         -1    1    6    6    0  503  0.19253907313E+03  0.38341816177E+03  0.34617416605E+03  0.55128698035E+03  0.00000000000E+00 0.  1.
<mgrwt>
<rscale>  0 0.21900583E+04</rscale>
<asrwt>0</asrwt>
<pdfrwt beam="1">  1        2 0.16107316E+00 0.21900583E+04</pdfrwt>
<pdfrwt beam="2">  1       -1 0.17619819E+00 0.21900583E+04</pdfrwt>
<totfact> 0.54375780E+00</totfact>
</mgrwt>
</event>
<event>
12    6  0.1529770E-007  0.2196332E+04  0.7818608E-02  0.8519956E-01
         -1   -1    0    0    0  501 -0.00000000000E+00  0.00000000000E+00  0.40642355626E+03  0.40642355626E+03  0.00000000000E+00 0.  1.
          2   -1    0    0  501    0  0.00000000000E+00 -0.00000000000E+00 -0.29672715229E+04  0.29672715229E+04  0.00000000000E+00 0. -1.
         24    2    1    2    0    0  0.82030921978E+03  0.24641135324E+03 -0.59864943067E+03  0.10489607665E+04  0.91168952038E+02 0.  0.
        254    2    1    2    0    0 -0.82030921978E+03 -0.24641135324E+03 -0.19621985360E+04  0.23247343126E+04  0.90583704865E+03 0.  0.
         23    2    4    4    0    0 -0.39272727804E+03  0.97273466524E+02 -0.17064980415E+03  0.44884942671E+03  0.92992526560E+02 0.  0.
         23    2    4    4    0    0 -0.42758194174E+03 -0.34368481977E+03 -0.17915487318E+04  0.18758848859E+04  0.91387496373E+02 0.  0.
          2    1    3    3  502    0  0.49393218355E+03  0.13335929989E+03 -0.40837188149E+03  0.65461538204E+03  0.00000000000E+00 0. -1.
         -1    1    3    3    0  502  0.32637703623E+03  0.11305205335E+03 -0.19027754918E+03  0.39434538449E+03  0.00000000000E+00 0.  1.
         11    1    5    5    0    0 -0.42297480918E+02  0.24948980993E+02 -0.52846404295E+02  0.72140633429E+02  0.00000000000E+00 0. -1.
        -11    1    5    5    0    0 -0.35042979713E+03  0.72324485531E+02 -0.11780339985E+03  0.37670879329E+03  0.00000000000E+00 0.  1.
          3    1    6    6  503    0 -0.42681922080E+03 -0.34855783033E+03 -0.17793235972E+04  0.18627022499E+04  0.00000000000E+00 0.  1.
         -3    1    6    6    0  503 -0.76272093467E+00  0.48730105656E+01 -0.12225134629E+02  0.13182635999E+02  0.00000000000E+00 0. -1.
<mgrwt>
<rscale>  0 0.21963324E+04</rscale>
<asrwt>0</asrwt>
<pdfrwt beam="1">  1        2 0.45650331E+00 0.21963324E+04</pdfrwt>
<pdfrwt beam="2">  1       -1 0.62526701E-01 0.21963324E+04</pdfrwt>
<totfact> 0.49320120E+00</totfact>
</mgrwt>
</event>
<event>
12    6  0.1529770E-007  0.1523567E+04  0.7818608E-02  0.8868931E-01
         -1   -1    0    0    0  501 -0.00000000000E+00  0.00000000000E+00  0.15573843690E+04  0.15573843690E+04  0.00000000000E+00 0.  1.
          2   -1    0    0  501    0  0.00000000000E+00 -0.00000000000E+00 -0.37262094226E+03  0.37262094226E+03  0.00000000000E+00 0. -1.
         24    2    1    2    0    0 -0.89242607504E+02  0.51004618297E+03  0.54924632102E+03  0.75904280906E+03  0.79769123600E+02 0.  0.
        254    2    1    2    0    0  0.89242607504E+02 -0.51004618297E+03  0.63551710573E+03  0.11709625022E+04  0.83615778303E+03 0.  0.
         23    2    4    4    0    0  0.82222856250E+02  0.17347496672E+03  0.38127842328E+03  0.43592735948E+03  0.88347408120E+02 0.  0.
         23    2    4    4    0    0  0.70197512543E+01 -0.68352114969E+03  0.25423868245E+03  0.73503514272E+03  0.91591017002E+02 0.  0.
          4    1    3    3  502    0 -0.59484607131E+02  0.14241283529E+03  0.18062213500E+03  0.23757985982E+03  0.00000000000E+00 0. -1.
         -3    1    3    3    0  502 -0.29758000373E+02  0.36763334768E+03  0.36862418602E+03  0.52146294924E+03  0.00000000000E+00 0.  1.
         11    1    5    5    0    0  0.88522779359E+02  0.12899485031E+03  0.34266219248E+03  0.37668731334E+03  0.00000000000E+00 0. -1.
        -11    1    5    5    0    0 -0.62999231095E+01  0.44480116404E+02  0.38616230796E+02  0.59240046146E+02  0.00000000000E+00 0.  1.
          1    1    6    6  503    0  0.12766381150E+02 -0.16281907778E+03  0.21755542407E+02  0.16476145241E+03  0.00000000000E+00 0. -1.
         -1    1    6    6    0  503 -0.57466298959E+01 -0.52070207191E+03  0.23248314004E+03  0.57027369030E+03  0.00000000000E+00 0.  1.
<mgrwt>
<rscale>  0 0.15235669E+04</rscale>
<asrwt>0</asrwt>
<pdfrwt beam="1">  1        2 0.57326300E-01 0.15235669E+04</pdfrwt>
<pdfrwt beam="2">  1       -1 0.23959759E+00 0.15235669E+04</pdfrwt>
<totfact> 0.77561812E+00</totfact>
</mgrwt>
</event>
<event>
12    6  0.1529770E-007  0.1420836E+04  0.7818608E-02  0.8938873E-01
          2   -1    0    0  501    0  0.00000000000E+00  0.00000000000E+00  0.22522821518E+04  0.22522821518E+04  0.00000000000E+00 0. -1.
         -1   -1    0    0    0  501 -0.00000000000E+00 -0.00000000000E+00 -0.22408119606E+03  0.22408119606E+03  0.00000000000E+00 0.  1.
         24    2    1    2    0    0 -0.26407807807E+03  0.31746380662E+03  0.74553804593E+03  0.85632692557E+03  0.83356617594E+02 0.  0.
        254    2    1    2    0    0  0.26407807807E+03 -0.31746380662E+03  0.12826629099E+04  0.16200364223E+04  0.89931828043E+03 0.  0.
         23    2    4    4    0    0  0.27324505322E+03 -0.14743696014E+03  0.13709131922E+04  0.14081530497E+04  0.84211129967E+02 0.  0.
         23    2    4    4    0    0 -0.91669751460E+01 -0.17002684648E+03 -0.88250282332E+02  0.21188337267E+03  0.90073799328E+02 0.  0.
          2    1    3    3  502    0 -0.20766737708E+03  0.21745306939E+03  0.47164787309E+03  0.55934183921E+03  0.00000000000E+00 0. -1.
         -1    1    3    3    0  502 -0.56410700990E+02  0.10001073723E+03  0.27389017283E+03  0.29698508636E+03  0.00000000000E+00 0.  1.
         11    1    5    5    0    0  0.66263374696E+02 -0.48832382706E+02  0.22632678749E+03  0.24083033688E+03  0.00000000000E+00 0.  1.
        -11    1    5    5    0    0  0.20698167852E+03 -0.98604577431E+02  0.11445864047E+04  0.11673227128E+04  0.00000000000E+00 0. -1.
          3    1    6    6  503    0 -0.47089782763E+02 -0.70084219770E+02 -0.51217881080E+02  0.98754832002E+02  0.00000000000E+00 0. -1.
         -3    1    6    6    0  503  0.37922807617E+02 -0.99942626713E+02 -0.37032401252E+02  0.11312854067E+03  0.00000000000E+00 0.  1.
<mgrwt>
<rscale>  0 0.14208365E+04</rscale>
<asrwt>0</asrwt>
<pdfrwt beam="1">  1        2 0.34650493E+00 0.14208365E+04</pdfrwt>
<pdfrwt beam="2">  1       -1 0.34474032E-01 0.14208365E+04</pdfrwt>
<totfact> 0.42656822E+01</totfact>
</mgrwt>
</event>
<event>
12    6  0.1529770E-007  0.1603653E+04  0.7818608E-02  0.8818307E-01
          2   -1    0    0  501    0  0.00000000000E+00  0.00000000000E+00  0.17542498751E+04  0.17542498751E+04  0.00000000000E+00 0. -1.
         -1   -1    0    0    0  501 -0.00000000000E+00 -0.00000000000E+00 -0.36649610028E+03  0.36649610028E+03  0.00000000000E+00 0.  1.
         24    2    1    2    0    0 -0.11264353322E+03 -0.53445546589E+03  0.45938355812E+03  0.71827245919E+03  0.80937392853E+02 0.  0.
        254    2    1    2    0    0  0.11264353322E+03  0.53445546589E+03  0.92837021669E+03  0.14024735162E+04  0.89818121433E+03 0.  0.
         23    2    4    4    0    0  0.70348578613E+02 -0.13628909484E+03  0.64116768150E+03  0.66540695775E+03  0.90259535446E+02 0.  0.
         23    2    4    4    0    0  0.42294954604E+02  0.67074456074E+03  0.28720253520E+03  0.73706655844E+03  0.95366065268E+02 0.  0.
          4    1    3    3  502    0 -0.12364845871E+03 -0.49060938662E+03  0.40907630431E+03  0.65063809781E+03  0.00000000000E+00 0. -1.
         -3    1    3    3    0  502  0.11004925491E+02 -0.43846079274E+02  0.50307253815E+02  0.67634361379E+02  0.00000000000E+00 0.  1.
         11    1    5    5    0    0 -0.37078460752E+01 -0.41181452632E+02  0.67069048453E+02  0.78790338391E+02  0.00000000000E+00 0. -1.
        -11    1    5    5    0    0  0.74056424688E+02 -0.95107642213E+02  0.57409863304E+03  0.58661661936E+03  0.00000000000E+00 0.  1.
          2    1    6    6  503    0 -0.18989493307E+02  0.15334231255E+03  0.96882527973E+02  0.18237513510E+03  0.00000000000E+00 0. -1.
         -2    1    6    6    0  503  0.61284447911E+02  0.51740224818E+03  0.19032000723E+03  0.55469142334E+03  0.00000000000E+00 0.  1.
<mgrwt>
<rscale>  0 0.16036530E+04</rscale>
<asrwt>0</asrwt>
<pdfrwt beam="1">  1        2 0.26988459E+00 0.16036530E+04</pdfrwt>
<pdfrwt beam="2">  1       -1 0.56384016E-01 0.16036530E+04</pdfrwt>
<totfact> 0.31802296E+01</totfact>
</mgrwt>
</event>
<event>
12    6  0.1529770E-007  0.2055043E+04  0.7818608E-02  0.8581310E-01
          2   -1    0    0  501    0  0.00000000000E+00  0.00000000000E+00  0.13807465162E+04  0.13807465162E+04  0.00000000000E+00 0. -1.
         -1   -1    0    0    0  501 -0.00000000000E+00 -0.00000000000E+00 -0.76465926288E+03  0.76465926288E+03  0.00000000000E+00 0.  1.
         24    2    1    2    0    0 -0.62165702652E+03  0.54339865645E+03  0.26721618609E+03  0.87145997165E+03  0.79362671557E+02 0.  0.
        254    2    1    2    0    0  0.62165702652E+03 -0.54339865645E+03  0.34887106721E+03  0.12739458074E+04  0.90525540055E+03 0.  0.
         23    2    4    4    0    0 -0.45410854406E+02 -0.10355598550E+03  0.44119062060E+03  0.46440317788E+03  0.90747782864E+02 0.  0.
         23    2    4    4    0    0  0.66706788093E+03 -0.43984267095E+03 -0.92319553385E+02  0.80954262953E+03  0.91625521213E+02 0.  0.
          2    1    3    3  502    0 -0.51485045220E+03  0.40829430964E+03  0.21866522894E+03  0.69252416114E+03  0.00000000000E+00 0. -1.
         -1    1    3    3    0  502 -0.10680657432E+03  0.13510434681E+03  0.48550957146E+02  0.17893581052E+03  0.00000000000E+00 0.  1.
         11    1    5    5    0    0 -0.51792490614E+02 -0.10530499788E+03  0.28692982399E+03  0.31000052993E+03  0.00000000000E+00 0. -1.
        -11    1    5    5    0    0  0.63816362084E+01  0.17490123790E+01  0.15426079660E+03  0.15440264795E+03  0.00000000000E+00 0.  1.
          3    1    6    6  503    0  0.44050410046E+03 -0.30512365496E+03 -0.20093044464E+02  0.53623505832E+03  0.00000000000E+00 0. -1.
         -3    1    6    6    0  503  0.22656378047E+03 -0.13471901599E+03 -0.72226508921E+02  0.27330757121E+03  0.00000000000E+00 0.  1.
<mgrwt>
<rscale>  0 0.20550432E+04</rscale>
<asrwt>0</asrwt>
<pdfrwt beam="1">  1        2 0.21242254E+00 0.20550432E+04</pdfrwt>
<pdfrwt beam="2">  1       -1 0.11763989E+00 0.20550432E+04</pdfrwt>
<totfact> 0.10168076E+01</totfact>
</mgrwt>
</event>
<event>
12    6  0.1529770E-007  0.1458179E+04  0.7818608E-02  0.8912750E-01
         -1   -1    0    0    0  501 -0.00000000000E+00  0.00000000000E+00  0.19454607894E+03  0.19454607894E+03  0.00000000000E+00 0.  1.
          2   -1    0    0  501    0  0.00000000000E+00 -0.00000000000E+00 -0.27323668888E+04  0.27323668888E+04  0.00000000000E+00 0. -1.
         24    2    1    2    0    0  0.88261250288E+02  0.18034229314E+03 -0.15890352055E+04  0.16036854195E+04  0.80378164230E+02 0.  0.
        254    2    1    2    0    0 -0.88261250288E+02 -0.18034229314E+03 -0.94878560435E+03  0.13232275483E+04  0.90023531949E+03 0.  0.
         23    2    4    4    0    0  0.22093951678E+03 -0.24334819276E+03 -0.21397718257E+02  0.33949658910E+03  0.82264565093E+02 0.  0.
         23    2    4    4    0    0 -0.30920076706E+03  0.63005899626E+02 -0.92738788609E+03  0.98373095916E+03  0.90019170199E+02 0.  0.
          2    1    3    3  502    0  0.48168891202E+02  0.14503541092E+03 -0.13570674631E+04  0.13656454928E+04  0.00000000000E+00 0. -1.
         -1    1    3    3    0  502  0.40092359087E+02  0.35306882218E+02 -0.23196774238E+03  0.23803992668E+03  0.00000000000E+00 0.  1.
         11    1    5    5    0    0  0.13618446838E+03 -0.13234029634E+03 -0.51224336648E+02  0.19668272961E+03  0.00000000000E+00 0. -1.
        -11    1    5    5    0    0  0.84755048399E+02 -0.11100789642E+03  0.29826618391E+02  0.14281385949E+03  0.00000000000E+00 0.  1.
          3    1    6    6  503    0  0.11270570208E-01  0.14248283526E+02 -0.57335443784E+02  0.59079326540E+02  0.00000000000E+00 0. -1.
         -3    1    6    6    0  503 -0.30921203763E+03  0.48757616101E+02 -0.87005244231E+03  0.92465163262E+03  0.00000000000E+00 0.  1.
<mgrwt>
<rscale>  0 0.14581787E+04</rscale>
<asrwt>0</asrwt>
<pdfrwt beam="1">  1        2 0.42036412E+00 0.14581787E+04</pdfrwt>
<pdfrwt beam="2">  1       -1 0.29930167E-01 0.14581787E+04</pdfrwt>
<totfact> 0.28870196E+01</totfact>
</mgrwt>
</event>
<event>
12    6  0.1529770E-007  0.2792886E+04  0.7818608E-02  0.8305480E-01
         -1   -1    0    0    0  501 -0.00000000000E+00  0.00000000000E+00  0.30134869110E+04  0.30134869110E+04  0.00000000000E+00 0.  1.
          2   -1    0    0  501    0  0.00000000000E+00 -0.00000000000E+00 -0.64710849395E+03  0.64710849395E+03  0.00000000000E+00 0. -1.
         24    2    1    2    0    0  0.55383182909E+02 -0.50944130240E+03 -0.43423444632E+03  0.67649651455E+03  0.80562040038E+02 0.  0.
        254    2    1    2    0    0 -0.55383182909E+02  0.50944130240E+03  0.28006128634E+04  0.29840988904E+04  0.89376509200E+03 0.  0.
         23    2    4    4    0    0  0.83430382660E+02 -0.20920941431E+03  0.36032610342E+03  0.43479913848E+03  0.92120476735E+02 0.  0.
         23    2    4    4    0    0 -0.13881356557E+03  0.71865071670E+03  0.24402867600E+04  0.25492997520E+04  0.90563214042E+02 0.  0.
          4    1    3    3  502    0  0.26407982818E+02 -0.86198855900E+02 -0.11190318397E+03  0.14370089386E+03  0.00000000000E+00 0. -1.
         -3    1    3    3    0  502  0.28975200091E+02 -0.42324244650E+03 -0.32233126235E+03  0.53279562069E+03  0.00000000000E+00 0.  1.
         11    1    5    5    0    0  0.81971886363E+02 -0.21848724507E+03  0.35150424521E+03  0.42191385473E+03  0.00000000000E+00 0. -1.
        -11    1    5    5    0    0  0.14584962964E+01  0.92778307629E+01  0.88218582092E+01  0.12885283752E+02  0.00000000000E+00 0.  1.
          1    1    6    6  503    0 -0.10288375480E+03  0.65092447804E+03  0.21258762629E+04  0.22256768922E+04  0.00000000000E+00 0. -1.
         -1    1    6    6    0  503 -0.35929810771E+02  0.67726238665E+02  0.31441049707E+03  0.32362285979E+03  0.00000000000E+00 0.  1.
<mgrwt>
<rscale>  0 0.27928859E+04</rscale>
<asrwt>0</asrwt>
<pdfrwt beam="1">  1        2 0.99555155E-01 0.27928859E+04</pdfrwt>
<pdfrwt beam="2">  1       -1 0.46361336E+00 0.27928859E+04</pdfrwt>
<totfact> 0.11694146E-01</totfact>
</mgrwt>
</event>
<event>
12    6  0.1529770E-007  0.2177771E+04  0.7818608E-02  0.8527737E-01
          2   -1    0    0  501    0  0.00000000000E+00  0.00000000000E+00  0.23384788083E+04  0.23384788083E+04  0.00000000000E+00 0. -1.
         -1   -1    0    0    0  501 -0.00000000000E+00 -0.00000000000E+00 -0.50702708493E+03  0.50702708493E+03  0.00000000000E+00 0.  1.
         24    2    1    2    0    0  0.85906990045E+01  0.81609607411E+03  0.12650202301E+04  0.15075987273E+04  0.80567597619E+02 0.  0.
        254    2    1    2    0    0 -0.85906990045E+01 -0.81609607411E+03  0.56643149330E+03  0.13379071659E+04  0.89613857510E+03 0.  0.
         23    2    4    4    0    0 -0.19035200962E+03 -0.28939810582E+03  0.67348839885E+03  0.76240662524E+03  0.87704547228E+02 0.  0.
         23    2    4    4    0    0  0.18176131061E+03 -0.52669796828E+03 -0.10705690555E+03  0.57550054070E+03  0.96393814565E+02 0.  0.
          2    1    3    3  502    0  0.37308354083E+02  0.64130936253E+03  0.96765672166E+03  0.11614771383E+04  0.00000000000E+00 0. -1.
         -1    1    3    3    0  502 -0.28717655078E+02  0.17478671158E+03  0.29736350845E+03  0.34612158906E+03  0.00000000000E+00 0.  1.
         11    1    5    5    0    0 -0.15400148350E+03 -0.26945741337E+03  0.54239234003E+03  0.62491055765E+03  0.00000000000E+00 0.  1.
        -11    1    5    5    0    0 -0.36350526118E+02 -0.19940692456E+02  0.13109605882E+03  0.13749606759E+03  0.00000000000E+00 0. -1.
          4    1    6    6  503    0  0.11958787004E+03 -0.28578850675E+03 -0.10363198671E+03  0.32667402395E+03  0.00000000000E+00 0.  1.
         -4    1    6    6    0  503  0.62173440569E+02 -0.24090946153E+03 -0.34249188367E+01  0.24882651675E+03  0.00000000000E+00 0. -1.
<mgrwt>
<rscale>  0 0.21777714E+04</rscale>
<asrwt>0</asrwt>
<pdfrwt beam="1">  1        2 0.35976597E+00 0.21777714E+04</pdfrwt>
<pdfrwt beam="2">  1       -1 0.78004168E-01 0.21777714E+04</pdfrwt>
<totfact> 0.73941697E+00</totfact>
</mgrwt>
</event>
<event>
12    6  0.1529770E-007  0.1568716E+04  0.7818608E-02  0.8840001E-01
         -1   -1    0    0    0  501 -0.00000000000E+00  0.00000000000E+00  0.29557667654E+03  0.29557667654E+03  0.00000000000E+00 0.  1.
          2   -1    0    0  501    0  0.00000000000E+00 -0.00000000000E+00 -0.20814135935E+04  0.20814135935E+04  0.00000000000E+00 0. -1.
         24    2    1    2    0    0  0.11532958840E+03  0.44642287193E+03 -0.22308285594E+03  0.51798993751E+03  0.77157761792E+02 0.  0.
        254    2    1    2    0    0 -0.11532958840E+03 -0.44642287193E+03 -0.15627540610E+04  0.18590003325E+04  0.89503501977E+03 0.  0.
         23    2    4    4    0    0  0.23978537238E+03 -0.54944257967E+03 -0.76803775399E+03  0.97788062336E+03  0.83572416684E+02 0.  0.
         23    2    4    4    0    0 -0.35511496078E+03  0.10301970775E+03 -0.79471630702E+03  0.88111970917E+03  0.89879016950E+02 0.  0.
          2    1    3    3  502    0  0.85768336936E+02  0.24259983517E+03 -0.89172205416E+02  0.27232805559E+03  0.00000000000E+00 0. -1.
         -1    1    3    3    0  502  0.29561251460E+02  0.20382303676E+03 -0.13391065052E+03  0.24566188191E+03  0.00000000000E+00 0.  1.
         11    1    5    5    0    0  0.46703423100E+02 -0.18718383991E+03 -0.21066518031E+03  0.28565506795E+03  0.00000000000E+00 0. -1.
        -11    1    5    5    0    0  0.19308194928E+03 -0.36225873977E+03 -0.55737257367E+03  0.69222555541E+03  0.00000000000E+00 0.  1.
          4    1    6    6  503    0 -0.11931134029E+03 -0.60416370859E+01 -0.21805242152E+03  0.24863337634E+03  0.00000000000E+00 0.  1.
         -4    1    6    6    0  503 -0.23580362049E+03  0.10906134483E+03 -0.57666388551E+03  0.63248633284E+03  0.00000000000E+00 0. -1.
<mgrwt>
<rscale>  0 0.15687158E+04</rscale>
<asrwt>0</asrwt>
<pdfrwt beam="1">  1        2 0.32021747E+00 0.15687158E+04</pdfrwt>
<pdfrwt beam="2">  1       -1 0.45473335E-01 0.15687158E+04</pdfrwt>
<totfact> 0.31657066E+01</totfact>
</mgrwt>
</event>
<event>
12    6  0.1529770E-007  0.5939900E+04  0.7818608E-02  0.7697898E-01
          2   -1    0    0  501    0  0.00000000000E+00  0.00000000000E+00  0.30755337982E+04  0.30755337982E+04  0.00000000000E+00 0. -1.
         -1   -1    0    0    0  501 -0.00000000000E+00 -0.00000000000E+00 -0.28679911576E+04  0.28679911576E+04  0.00000000000E+00 0.  1.
         24    2    1    2    0    0  0.21965998566E+04 -0.18803174952E+04  0.40291969017E+03  0.29204678843E+04  0.78380952071E+02 0.  0.
        254    2    1    2    0    0 -0.21965998566E+04  0.18803174952E+04 -0.19537704957E+03  0.30230570715E+04  0.86026568747E+03 0.  0.
         23    2    4    4    0    0 -0.65897562027E+03  0.42458759621E+03  0.30449918118E+03  0.84561463198E+03  0.88435623552E+02 0.  0.
         23    2    4    4    0    0 -0.15376242364E+04  0.14557298990E+04 -0.49987623075E+03  0.21774424395E+04  0.89115095406E+02 0.  0.
          2    1    3    3  502    0  0.11094286297E+04 -0.92406168081E+03  0.16683661762E+03  0.14534635638E+04  0.00000000000E+00 0. -1.
         -1    1    3    3    0  502  0.10871712269E+04 -0.95625581437E+03  0.23608307255E+03  0.14670043205E+04  0.00000000000E+00 0.  1.
         11    1    5    5    0    0 -0.65592890519E+03  0.41107627765E+03  0.29328632110E+03  0.82779423823E+03  0.00000000000E+00 0. -1.
        -11    1    5    5    0    0 -0.30467150792E+01  0.13511318558E+02  0.11212860084E+02  0.17820393744E+02  0.00000000000E+00 0.  1.
          2    1    6    6  503    0 -0.13463251625E+04  0.12332407889E+04 -0.42393198921E+03  0.18743512525E+04  0.00000000000E+00 0. -1.
         -2    1    6    6    0  503 -0.19129907391E+03  0.22248911008E+03 -0.75944241546E+02  0.30309118695E+03  0.00000000000E+00 0.  1.
<mgrwt>
<rscale>  0 0.59399002E+04</rscale>
<asrwt>0</asrwt>
<pdfrwt beam="1">  1        2 0.47315905E+00 0.59399002E+04</pdfrwt>
<pdfrwt beam="2">  1       -1 0.44122941E+00 0.59399002E+04</pdfrwt>
<totfact> 0.44776402E-03</totfact>
</mgrwt>
</event>
<event>
12    6  0.1529770E-007  0.1046146E+04  0.7818608E-02  0.9259332E-01
         -3   -1    0    0    0  501 -0.00000000000E+00  0.00000000000E+00  0.43355569811E+03  0.43355569811E+03  0.00000000000E+00 0.  1.
          2   -1    0    0  501    0  0.00000000000E+00 -0.00000000000E+00 -0.63107343992E+03  0.63107343992E+03  0.00000000000E+00 0. -1.
         24    2    1    2    0    0  0.10355589660E+03 -0.18558921079E+02  0.12978383787E+02  0.13387576491E+03  0.81768115495E+02 0.  0.
        254    2    1    2    0    0 -0.10355589660E+03  0.18558921079E+02 -0.21049612559E+03  0.93075337312E+03  0.90051372306E+03 0.  0.
         23    2    4    4    0    0 -0.13583435125E+03 -0.36787368700E+03 -0.32354032216E+03  0.51661454738E+03  0.91816283646E+02 0.  0.
         23    2    4    4    0    0  0.32278454645E+02  0.38643260808E+03  0.11304419656E+03  0.41413882574E+03  0.91432583857E+02 0.  0.
          2    1    3    3  502    0 -0.10893157078E+02 -0.14723690396E+02  0.54788497309E+01  0.19117157853E+02  0.00000000000E+00 0. -1.
         -1    1    3    3    0  502  0.11444905368E+03 -0.38352306834E+01  0.74995340566E+01  0.11475860706E+03  0.00000000000E+00 0.  1.
         11    1    5    5    0    0 -0.14952673516E+03 -0.34587425865E+03 -0.30111774203E+03  0.48234753228E+03  0.00000000000E+00 0.  1.
        -11    1    5    5    0    0  0.13692383917E+02 -0.21999428345E+02 -0.22422580125E+02  0.34267015107E+02  0.00000000000E+00 0. -1.
          1    1    6    6  503    0 -0.56652135201E+01 -0.14641511679E+01  0.90126010108E+01  0.10745480904E+02  0.00000000000E+00 0. -1.
         -1    1    6    6    0  503  0.37943668165E+02  0.38789675924E+03  0.10403159555E+03  0.40339334484E+03  0.00000000000E+00 0.  1.
<mgrwt>
<rscale>  0 0.10461462E+04</rscale>
<asrwt>0</asrwt>
<pdfrwt beam="1">  1        2 0.97088221E-01 0.10461462E+04</pdfrwt>
<pdfrwt beam="2">  1       -3 0.66700877E-01 0.10461462E+04</pdfrwt>
<totfact> 0.63684141E+01</totfact>
</mgrwt>
</event>
<event>
12    6  0.1529770E-007  0.2110851E+04  0.7818608E-02  0.8556479E-01
         -1   -1    0    0    0  501 -0.00000000000E+00  0.00000000000E+00  0.26129699975E+03  0.26129699975E+03  0.00000000000E+00 0.  1.
          2   -1    0    0  501    0  0.00000000000E+00 -0.00000000000E+00 -0.42630518660E+04  0.42630518660E+04  0.00000000000E+00 0. -1.
         24    2    1    2    0    0 -0.64768122705E+02 -0.85693501095E+03 -0.17216739692E+04  0.19258055868E+04  0.77674831022E+02 0.  0.
        254    2    1    2    0    0  0.64768122705E+02  0.85693501095E+03 -0.22800808970E+04  0.25985432789E+04  0.90284314950E+03 0.  0.
         23    2    4    4    0    0  0.22252098010E+03  0.52192870684E+03 -0.20998182930E+04  0.21769524665E+04  0.89218922709E+02 0.  0.
         23    2    4    4    0    0 -0.15775285739E+03  0.33500630410E+03 -0.18026260406E+03  0.42159081243E+03  0.90161071956E+02 0.  0.
          2    1    3    3  502    0 -0.11757697132E+02 -0.15250249400E+03 -0.24442432577E+03  0.28833748480E+03  0.00000000000E+00 0. -1.
         -1    1    3    3    0  502 -0.53010425572E+02 -0.70443251695E+03 -0.14772496434E+04  0.16374681020E+04  0.00000000000E+00 0.  1.
         11    1    5    5    0    0  0.19161455912E+03  0.43818579433E+03 -0.16292472916E+04  0.16979898901E+04  0.00000000000E+00 0. -1.
        -11    1    5    5    0    0  0.30906420980E+02  0.83742912511E+02 -0.47057100140E+03  0.47896257642E+03  0.00000000000E+00 0.  1.
          3    1    6    6  503    0 -0.16669327272E+03  0.30628032717E+03 -0.15228144326E+03  0.38050482775E+03  0.00000000000E+00 0. -1.
         -3    1    6    6    0  503  0.89404153272E+01  0.28725976935E+02 -0.27981160802E+02  0.41085984678E+02  0.00000000000E+00 0.  1.
<mgrwt>
<rscale>  0 0.21108507E+04</rscale>
<asrwt>0</asrwt>
<pdfrwt beam="1">  1        2 0.65585413E+00 0.21108507E+04</pdfrwt>
<pdfrwt beam="2">  1       -1 0.40199539E-01 0.21108507E+04</pdfrwt>
<totfact> 0.13090739E+00</totfact>
</mgrwt>
</event>
<event>
12    6  0.1529770E-007  0.2306136E+04  0.7818608E-02  0.8475506E-01
         -1   -1    0    0    0  501 -0.00000000000E+00  0.00000000000E+00  0.17940600082E+04  0.17940600082E+04  0.00000000000E+00 0.  1.
          2   -1    0    0  501    0  0.00000000000E+00 -0.00000000000E+00 -0.74109353044E+03  0.74109353044E+03  0.00000000000E+00 0. -1.
         24    2    1    2    0    0 -0.33864191926E+03  0.11094171190E+03 -0.55209015948E+03  0.66216121430E+03  0.81654862759E+02 0.  0.
        254    2    1    2    0    0  0.33864191926E+03 -0.11094171190E+03  0.16050566373E+04  0.18729923244E+04  0.89716610804E+03 0.  0.
         23    2    4    4    0    0  0.77530276311E+02  0.32670154842E+03  0.10835000611E+04  0.11381142567E+04  0.92665167864E+02 0.  0.
         23    2    4    4    0    0  0.26111164295E+03 -0.43764326031E+03  0.52155657612E+03  0.73487806767E+03  0.91178938709E+02 0.  0.
          2    1    3    3  502    0 -0.30598425501E+03  0.72645482065E+02 -0.48990739456E+03  0.58216233614E+03  0.00000000000E+00 0. -1.
         -1    1    3    3    0  502 -0.32657664247E+02  0.38296229831E+02 -0.62182764917E+02  0.79998878155E+02  0.00000000000E+00 0.  1.
         11    1    5    5    0    0  0.13643896707E+02  0.23870659091E+03  0.77218267248E+03  0.80835207190E+03  0.00000000000E+00 0.  1.
        -11    1    5    5    0    0  0.63886379604E+02  0.87994957505E+02  0.31131738866E+03  0.32976218480E+03  0.00000000000E+00 0. -1.
          1    1    6    6  503    0  0.18357867122E+03 -0.34207625740E+03  0.44225045683E+03  0.58847494506E+03  0.00000000000E+00 0. -1.
         -1    1    6    6    0  503  0.77532971726E+02 -0.95567002918E+02  0.79306119289E+02  0.14640312260E+03  0.00000000000E+00 0.  1.
<mgrwt>
<rscale>  0 0.23061364E+04</rscale>
<asrwt>0</asrwt>
<pdfrwt beam="1">  1        2 0.11401439E+00 0.23061364E+04</pdfrwt>
<pdfrwt beam="2">  1       -1 0.27600923E+00 0.23061364E+04</pdfrwt>
<totfact> 0.18601305E+00</totfact>
</mgrwt>
</event>
<event>
12    6  0.1529770E-007  0.1975916E+04  0.7818608E-02  0.8617964E-01
          2   -1    0    0  501    0  0.00000000000E+00  0.00000000000E+00  0.91541882596E+03  0.91541882596E+03  0.00000000000E+00 0. -1.
         -1   -1    0    0    0  501 -0.00000000000E+00 -0.00000000000E+00 -0.10662453990E+04  0.10662453990E+04  0.00000000000E+00 0.  1.
         24    2    1    2    0    0 -0.74661405663E+03  0.16081949899E+03  0.99645779077E+02  0.77445850210E+03  0.81001415841E+02 0.  0.
        254    2    1    2    0    0  0.74661405663E+03 -0.16081949899E+03 -0.25047235213E+03  0.12072057229E+04  0.90072959170E+03 0.  0.
         23    2    4    4    0    0  0.61053700379E+03  0.14227241646E+03 -0.47860116737E+03  0.79422288907E+03  0.93456121395E+02 0.  0.
         23    2    4    4    0    0  0.13607705284E+03 -0.30309191545E+03  0.22812881524E+03  0.41298283381E+03  0.90168681738E+02 0.  0.
          2    1    3    3  502    0 -0.48991740286E+03  0.11552015619E+03  0.28011565557E+02  0.50413154625E+03  0.00000000000E+00 0. -1.
         -1    1    3    3    0  502 -0.25669665377E+03  0.45299342800E+02  0.71634213520E+02  0.27032695585E+03  0.00000000000E+00 0.  1.
         11    1    5    5    0    0  0.58732141755E+03  0.11955009593E+03 -0.46666333858E+03  0.75961394440E+03  0.00000000000E+00 0.  1.
        -11    1    5    5    0    0  0.23215586243E+02  0.22722320533E+02 -0.11937828791E+02  0.34608944671E+02  0.00000000000E+00 0. -1.
          1    1    6    6  503    0  0.42909645328E+02 -0.53696921677E+02  0.89421861495E+02  0.11278681826E+03  0.00000000000E+00 0. -1.
         -1    1    6    6    0  503  0.93167407509E+02 -0.24939499377E+03  0.13870695374E+03  0.30019601556E+03  0.00000000000E+00 0.  1.
<mgrwt>
<rscale>  0 0.19759161E+04</rscale>
<asrwt>0</asrwt>
<pdfrwt beam="1">  1        2 0.14083367E+00 0.19759161E+04</pdfrwt>
<pdfrwt beam="2">  1       -1 0.16403775E+00 0.19759161E+04</pdfrwt>
<totfact> 0.82843041E+00</totfact>
</mgrwt>
</event>
<event>
12    6  0.1529770E-007  0.1978326E+04  0.7818608E-02  0.8616822E-01
          2   -1    0    0  501    0  0.00000000000E+00  0.00000000000E+00  0.13715485601E+04  0.13715485601E+04  0.00000000000E+00 0. -1.
         -1   -1    0    0    0  501 -0.00000000000E+00 -0.00000000000E+00 -0.71338576656E+03  0.71338576656E+03  0.00000000000E+00 0.  1.
         24    2    1    2    0    0 -0.61007415033E+03  0.38328333067E+03  0.55346648040E+03  0.91202360257E+03  0.79782994731E+02 0.  0.
        254    2    1    2    0    0  0.61007415033E+03 -0.38328333067E+03  0.10469631314E+03  0.11729107241E+04  0.91959864519E+03 0.  0.
         23    2    4    4    0    0  0.58024621745E+03 -0.29083592395E+03  0.45493805620E+03  0.79782250572E+03  0.90999495227E+02 0.  0.
         23    2    4    4    0    0  0.29827932883E+02 -0.92447406720E+02 -0.35024174306E+03  0.37508821837E+03  0.92658860292E+02 0.  0.
          2    1    3    3  502    0 -0.56595928242E+03  0.33256516028E+03  0.48581702596E+03  0.81665640137E+03  0.00000000000E+00 0. -1.
         -1    1    3    3    0  502 -0.44114867913E+02  0.50718170396E+02  0.67649454434E+02  0.95367201199E+02  0.00000000000E+00 0.  1.
         11    1    5    5    0    0  0.33414574993E+03 -0.21715237238E+03  0.27671796086E+03  0.48516117414E+03  0.00000000000E+00 0.  1.
        -11    1    5    5    0    0  0.24610046752E+03 -0.73683551570E+02  0.17822009534E+03  0.31266133158E+03  0.00000000000E+00 0. -1.
          3    1    6    6  503    0 -0.31991961903E+02 -0.15592849205E+02 -0.96011606574E+02  0.10239556226E+03  0.00000000000E+00 0. -1.
         -3    1    6    6    0  503  0.61819894786E+02 -0.76854557515E+02 -0.25423013649E+03  0.27269265612E+03  0.00000000000E+00 0.  1.
<mgrwt>
<rscale>  0 0.19783258E+04</rscale>
<asrwt>0</asrwt>
<pdfrwt beam="1">  1        2 0.21100747E+00 0.19783258E+04</pdfrwt>
<pdfrwt beam="2">  1       -1 0.10975166E+00 0.19783258E+04</pdfrwt>
<totfact> 0.12229314E+01</totfact>
</mgrwt>
</event>
<event>
12    6  0.1529770E-007  0.2400135E+04  0.7818608E-02  0.8439453E-01
          2   -1    0    0  501    0  0.00000000000E+00  0.00000000000E+00  0.20369835931E+04  0.20369835931E+04  0.00000000000E+00 0. -1.
         -1   -1    0    0    0  501 -0.00000000000E+00 -0.00000000000E+00 -0.70700744790E+03  0.70700744790E+03  0.00000000000E+00 0.  1.
         24    2    1    2    0    0 -0.13585174266E+03  0.10211131976E+04  0.52810542890E+03  0.11603663303E+04  0.80167438904E+02 0.  0.
        254    2    1    2    0    0  0.13585174266E+03 -0.10211131976E+04  0.80187071632E+03  0.15836247107E+04  0.89651699398E+03 0.  0.
         23    2    4    4    0    0  0.12220750734E+03 -0.93508007518E+02  0.60506635091E+03  0.63089287553E+03  0.90786062082E+02 0.  0.
         23    2    4    4    0    0  0.13644235320E+02 -0.92760519004E+03  0.19680436542E+03  0.95273183519E+03  0.91260274990E+02 0.  0.
          2    1    3    3  502    0 -0.35520740270E+02  0.96792851844E+02  0.43543003508E+02  0.11192217078E+03  0.00000000000E+00 0. -1.
         -1    1    3    3    0  502 -0.10033100239E+03  0.92432034572E+03  0.48456242539E+03  0.10484441595E+04  0.00000000000E+00 0.  1.
         11    1    5    5    0    0  0.36644610917E+02 -0.48817426726E+02  0.10381019460E+03  0.12042643051E+03  0.00000000000E+00 0. -1.
        -11    1    5    5    0    0  0.85562896423E+02 -0.44690580792E+02  0.50125615631E+03  0.51046644502E+03  0.00000000000E+00 0.  1.
          3    1    6    6  503    0  0.48079821024E+01 -0.33924559730E+02  0.25566192412E+02  0.42750703377E+02  0.00000000000E+00 0. -1.
         -3    1    6    6    0  503  0.88362532173E+01 -0.89368063031E+03  0.17123817300E+03  0.90998113182E+03  0.00000000000E+00 0.  1.
<mgrwt>
<rscale>  0 0.24001355E+04</rscale>
<asrwt>0</asrwt>
<pdfrwt beam="1">  1        2 0.31338209E+00 0.24001355E+04</pdfrwt>
<pdfrwt beam="2">  1       -1 0.10877038E+00 0.24001355E+04</pdfrwt>
<totfact> 0.51094276E+00</totfact>
</mgrwt>
</event>
<event>
12    6  0.1529770E-007  0.2110593E+04  0.7818608E-02  0.8556591E-01
         -1   -1    0    0    0  501 -0.00000000000E+00  0.00000000000E+00  0.61333678659E+03  0.61333678659E+03  0.00000000000E+00 0.  1.
          2   -1    0    0  501    0  0.00000000000E+00 -0.00000000000E+00 -0.18157245746E+04  0.18157245746E+04  0.00000000000E+00 0. -1.
         24    2    1    2    0    0 -0.28526871566E+03  0.52943423214E+03  0.21526592186E+03  0.64363336008E+03  0.79029354025E+02 0.  0.
        254    2    1    2    0    0  0.28526871566E+03 -0.52943423214E+03 -0.14176537099E+04  0.17854280012E+04  0.90351107343E+03 0.  0.
         23    2    4    4    0    0 -0.64488707821E+02  0.33765099432E+01 -0.10243677991E+04  0.10308581133E+04  0.95754204692E+02 0.  0.
         23    2    4    4    0    0  0.34975742348E+03 -0.53281074208E+03 -0.39328591082E+03  0.75456988784E+03  0.92110617364E+02 0.  0.
          2    1    3    3  502    0 -0.10898272071E+03  0.21933100428E+03  0.47652355835E+02  0.24950765493E+03  0.00000000000E+00 0. -1.
         -1    1    3    3    0  502 -0.17628599495E+03  0.31010322786E+03  0.16761356603E+03  0.39412570515E+03  0.00000000000E+00 0.  1.
         11    1    5    5    0    0 -0.83277912578E+02  0.24806928127E+02 -0.75242641475E+03  0.75742729289E+03  0.00000000000E+00 0.  1.
        -11    1    5    5    0    0  0.18789204756E+02 -0.21430418184E+02 -0.27194138434E+03  0.27343082042E+03  0.00000000000E+00 0. -1.
          3    1    6    6  503    0  0.10875352147E+03 -0.13300771952E+03 -0.64206692838E+02  0.18341450676E+03  0.00000000000E+00 0. -1.
         -3    1    6    6    0  503  0.24100390201E+03 -0.39980302257E+03 -0.32907921798E+03  0.57115538109E+03  0.00000000000E+00 0.  1.
<mgrwt>
<rscale>  0 0.21105930E+04</rscale>
<asrwt>0</asrwt>
<pdfrwt beam="1">  1        2 0.27934223E+00 0.21105930E+04</pdfrwt>
<pdfrwt beam="2">  1       -1 0.94359509E-01 0.21105930E+04</pdfrwt>
<totfact> 0.96387765E+00</totfact>
</mgrwt>
</event>
<event>
12    6  0.1529770E-007  0.1336943E+04  0.7818608E-02  0.9000772E-01
         -1   -1    0    0    0  501 -0.00000000000E+00  0.00000000000E+00  0.26190996622E+03  0.26190996622E+03  0.00000000000E+00 0.  1.
          2   -1    0    0  501    0  0.00000000000E+00 -0.00000000000E+00 -0.17061352387E+04  0.17061352387E+04  0.00000000000E+00 0. -1.
         24    2    1    2    0    0 -0.28088859805E+03 -0.12649749697E+03 -0.10250207468E+03  0.33431488015E+03  0.79747993840E+02 0.  0.
        254    2    1    2    0    0  0.28088859805E+03  0.12649749697E+03 -0.13417231978E+04  0.16337303248E+04  0.87974633466E+03 0.  0.
         23    2    4    4    0    0  0.40135935400E+03  0.69899567874E+02 -0.13993243628E+04  0.14597390588E+04  0.82183738488E+02 0.  0.
         23    2    4    4    0    0 -0.12047075595E+03  0.56597929092E+02  0.57601164981E+02  0.17399126598E+03  0.96117312772E+02 0.  0.
          2    1    3    3  502    0 -0.30057565465E+02  0.19358852901E+01  0.87250181803E+01  0.31358106381E+02  0.00000000000E+00 0. -1.
         -1    1    3    3    0  502 -0.25083103258E+03 -0.12843338226E+03 -0.11122709286E+03  0.30295677377E+03  0.00000000000E+00 0.  1.
         11    1    5    5    0    0  0.18590525082E+03 -0.77650063988E+01 -0.66357765862E+03  0.68917078190E+03  0.00000000000E+00 0. -1.
        -11    1    5    5    0    0  0.21545410317E+03  0.77664574272E+02 -0.73574670420E+03  0.77056827693E+03  0.00000000000E+00 0.  1.
          1    1    6    6  503    0 -0.11746450532E+03  0.78976072940E+02  0.48106655093E+02  0.14949709151E+03  0.00000000000E+00 0. -1.
         -1    1    6    6    0  503 -0.30062506322E+01 -0.22378143849E+02  0.94945098876E+01  0.24494174470E+02  0.00000000000E+00 0.  1.
<mgrwt>
<rscale>  0 0.13369425E+04</rscale>
<asrwt>0</asrwt>
<pdfrwt beam="1">  1        2 0.26248235E+00 0.13369425E+04</pdfrwt>
<pdfrwt beam="2">  1       -1 0.40293840E-01 0.13369425E+04</pdfrwt>
<totfact> 0.65126690E+01</totfact>
</mgrwt>
</event>
<event>
12    6  0.1529770E-007  0.1227389E+04  0.7818608E-02  0.9089215E-01
          2   -1    0    0  501    0  0.00000000000E+00  0.00000000000E+00  0.53777320219E+03  0.53777320219E+03  0.00000000000E+00 0. -1.
         -1   -1    0    0    0  501 -0.00000000000E+00 -0.00000000000E+00 -0.70033368785E+03  0.70033368785E+03  0.00000000000E+00 0.  1.
         24    2    1    2    0    0 -0.34268140320E+02 -0.31480495120E+02  0.23926746068E+03  0.25624797201E+03  0.79049215060E+02 0.  0.
        254    2    1    2    0    0  0.34268140320E+02  0.31480495120E+02 -0.40182794634E+03  0.98185891804E+03  0.89465966124E+03 0.  0.
         23    2    4    4    0    0 -0.36083782396E+03 -0.15770185031E+03 -0.34279226008E+03  0.52994325523E+03  0.90881854130E+02 0.  0.
         23    2    4    4    0    0  0.39510596428E+03  0.18918234543E+03 -0.59035686262E+02  0.45191566280E+03  0.94041858798E+02 0.  0.
          2    1    3    3  502    0  0.21544074708E+02  0.51329837564E+01  0.35655691621E+02  0.41974075598E+02  0.00000000000E+00 0. -1.
         -1    1    3    3    0  502 -0.55812215028E+02 -0.36613478876E+02  0.20361176906E+03  0.21427389641E+03  0.00000000000E+00 0.  1.
         11    1    5    5    0    0 -0.19379385752E+03 -0.44459127508E+02 -0.13531625860E+03  0.24050605621E+03  0.00000000000E+00 0.  1.
        -11    1    5    5    0    0 -0.16704396644E+03 -0.11324272280E+03 -0.20747600148E+03  0.28943719903E+03  0.00000000000E+00 0. -1.
          2    1    6    6  503    0  0.10841185183E+03  0.28375731456E+02 -0.50951822397E+02  0.12310320856E+03  0.00000000000E+00 0. -1.
         -2    1    6    6    0  503  0.28669411245E+03  0.16080661398E+03 -0.80838638651E+01  0.32881245425E+03  0.00000000000E+00 0.  1.
<mgrwt>
<rscale>  0 0.12273886E+04</rscale>
<asrwt>0</asrwt>
<pdfrwt beam="1">  1        2 0.82734338E-01 0.12273886E+04</pdfrwt>
<pdfrwt beam="2">  1       -1 0.10774364E+00 0.12273886E+04</pdfrwt>
<totfact> 0.51051731E+01</totfact>
</mgrwt>
</event>
<event>
12    6  0.1529770E-007  0.2030406E+04  0.7818608E-02  0.8592535E-01
         -1   -1    0    0    0  501 -0.00000000000E+00  0.00000000000E+00  0.71102758986E+03  0.71102758986E+03  0.00000000000E+00 0.  1.
          2   -1    0    0  501    0  0.00000000000E+00 -0.00000000000E+00 -0.14495033986E+04  0.14495033986E+04  0.00000000000E+00 0. -1.
         24    2    1    2    0    0 -0.32953003742E+03 -0.47178724462E+03  0.31280980823E+03  0.65889270175E+03  0.71528781263E+02 0.  0.
        254    2    1    2    0    0  0.32953003742E+03  0.47178724462E+03 -0.10512856170E+04  0.15016382867E+04  0.90473357731E+03 0.  0.
         23    2    4    4    0    0  0.12140318765E+03 -0.26103359859E+03 -0.25398633189E+03  0.39519628449E+03  0.93775118881E+02 0.  0.
         23    2    4    4    0    0  0.20812684976E+03  0.73282084321E+03 -0.79729928510E+03  0.11064420022E+04  0.90468671099E+02 0.  0.
          2    1    3    3  502    0 -0.13544626417E+03 -0.17571527154E+03  0.15875989937E+03  0.27281175337E+03  0.00000000000E+00 0. -1.
         -1    1    3    3    0  502 -0.19408377324E+03 -0.29607197308E+03  0.15404990886E+03  0.38608094838E+03  0.00000000000E+00 0.  1.
         11    1    5    5    0    0  0.91423599475E+02 -0.11337570995E+03 -0.16551567515E+03  0.22047168723E+03  0.00000000000E+00 0.  1.
        -11    1    5    5    0    0  0.29979588177E+02 -0.14765788864E+03 -0.88470656738E+02  0.17472459726E+03  0.00000000000E+00 0. -1.
          4    1    6    6  503    0  0.19388390962E+03  0.66628744468E+03 -0.75883987970E+03  0.10282839551E+04  0.00000000000E+00 0. -1.
         -4    1    6    6    0  503  0.14242940145E+02  0.66533398530E+02 -0.38459405400E+02  0.78158047107E+02  0.00000000000E+00 0.  1.
<mgrwt>
<rscale>  0 0.20304058E+04</rscale>
<asrwt>0</asrwt>
<pdfrwt beam="1">  1        2 0.22300052E+00 0.20304058E+04</pdfrwt>
<pdfrwt beam="2">  1       -1 0.10938886E+00 0.20304058E+04</pdfrwt>
<totfact> 0.11073177E+01</totfact>
</mgrwt>
</event>
<event>
12    6  0.1529770E-007  0.1825620E+04  0.7818608E-02  0.8692793E-01
         -1   -1    0    0    0  501 -0.00000000000E+00  0.00000000000E+00  0.45070863439E+03  0.45070863439E+03  0.00000000000E+00 0.  1.
          2   -1    0    0  501    0  0.00000000000E+00 -0.00000000000E+00 -0.18486929237E+04  0.18486929237E+04  0.00000000000E+00 0. -1.
         24    2    1    2    0    0 -0.41351289306E+03 -0.16129228417E+03  0.13528435094E+03  0.47141986358E+03  0.83226909756E+02 0.  0.
        254    2    1    2    0    0  0.41351289306E+03  0.16129228417E+03 -0.15332686403E+04  0.18279816945E+04  0.89084018691E+03 0.  0.
         23    2    4    4    0    0  0.13821597450E+03  0.25944475916E+03 -0.14856449281E+04  0.15172338484E+04  0.91882857757E+02 0.  0.
         23    2    4    4    0    0  0.27529691856E+03 -0.98152474989E+02 -0.47623712112E+02  0.31074784611E+03  0.94201402299E+02 0.  0.
          4    1    3    3  502    0 -0.72756405331E+02 -0.12480282681E+02  0.52218217604E+02  0.90421204495E+02  0.00000000000E+00 0. -1.
         -3    1    3    3    0  502 -0.34075648773E+03 -0.14881200149E+03  0.83066133337E+02  0.38099865908E+03  0.00000000000E+00 0.  1.
         11    1    5    5    0    0  0.10025264422E+03  0.10934887169E+03 -0.59383860607E+03  0.61208827670E+03  0.00000000000E+00 0. -1.
        -11    1    5    5    0    0  0.37963330287E+02  0.15009588748E+03 -0.89180632207E+03  0.90514557170E+03  0.00000000000E+00 0.  1.
          3    1    6    6  503    0  0.17150961280E+03 -0.79091987893E+02  0.12530800951E+02  0.18928314982E+03  0.00000000000E+00 0. -1.
         -3    1    6    6    0  503  0.10378730575E+03 -0.19060487096E+02 -0.60154513064E+02  0.12146469629E+03  0.00000000000E+00 0.  1.
<mgrwt>
<rscale>  0 0.18256197E+04</rscale>
<asrwt>0</asrwt>
<pdfrwt beam="1">  1        2 0.28441429E+00 0.18256197E+04</pdfrwt>
<pdfrwt beam="2">  1       -1 0.69339790E-01 0.18256197E+04</pdfrwt>
<totfact> 0.18302260E+01</totfact>
</mgrwt>
</event>
<event>
12    6  0.1529770E-007  0.3115610E+04  0.7818608E-02  0.8211467E-01
          2   -1    0    0  501    0  0.00000000000E+00  0.00000000000E+00  0.31624014715E+04  0.31624014715E+04  0.00000000000E+00 0. -1.
         -1   -1    0    0    0  501 -0.00000000000E+00 -0.00000000000E+00 -0.76737770248E+03  0.76737770248E+03  0.00000000000E+00 0.  1.
         24    2    1    2    0    0  0.46073710467E+03  0.10181327926E+04  0.22154336887E+04  0.24827024780E+04  0.82414209512E+02 0.  0.
        254    2    1    2    0    0 -0.46073710467E+03 -0.10181327926E+04  0.17959008027E+03  0.14470766960E+04  0.90161261312E+03 0.  0.
         23    2    4    4    0    0 -0.55969283403E+03 -0.10059476360E+04 -0.76468433128E+02  0.11574462624E+04  0.92993086566E+02 0.  0.
         23    2    4    4    0    0  0.98955729359E+02 -0.12185156605E+02  0.25605851340E+03  0.28963043363E+03  0.91537486216E+02 0.  0.
          2    1    3    3  502    0  0.31327356906E+03  0.63200090892E+03  0.14647703238E+04  0.16257667666E+04  0.00000000000E+00 0. -1.
         -1    1    3    3    0  502  0.14746353560E+03  0.38613188371E+03  0.75066336491E+03  0.85693571134E+03  0.00000000000E+00 0.  1.
         11    1    5    5    0    0 -0.53615873442E+03 -0.97987242427E+03 -0.88122837836E+02  0.11204382138E+04  0.00000000000E+00 0.  1.
        -11    1    5    5    0    0 -0.23534099608E+02 -0.26075211747E+02  0.11654404709E+02  0.37008048599E+02  0.00000000000E+00 0. -1.
          4    1    6    6  503    0  0.28794548719E+02 -0.20417029522E+02  0.14858278168E+02  0.38298166543E+02  0.00000000000E+00 0. -1.
         -4    1    6    6    0  503  0.70161180640E+02  0.82318729175E+01  0.24120023523E+03  0.25133226708E+03  0.00000000000E+00 0.  1.
<mgrwt>
<rscale>  0 0.31156100E+04</rscale>
<asrwt>0</asrwt>
<pdfrwt beam="1">  1        2 0.48652330E+00 0.31156100E+04</pdfrwt>
<pdfrwt beam="2">  1       -1 0.11805811E+00 0.31156100E+04</pdfrwt>
<totfact> 0.85060878E-01</totfact>
</mgrwt>
</event>
<event>
12    6  0.1529770E-007  0.1359559E+04  0.7818608E-02  0.8983624E-01
          2   -1    0    0  501    0  0.00000000000E+00  0.00000000000E+00  0.77617085092E+03  0.77617085092E+03  0.00000000000E+00 0. -1.
         -1   -1    0    0    0  501 -0.00000000000E+00 -0.00000000000E+00 -0.59535850121E+03  0.59535850121E+03  0.00000000000E+00 0.  1.
         24    2    1    2    0    0 -0.19703034406E+03  0.26679731459E+01 -0.23482099425E+03  0.31710261427E+03  0.81148592562E+02 0.  0.
        254    2    1    2    0    0  0.19703034406E+03 -0.26679731459E+01  0.41563334397E+03  0.10544267379E+04  0.94880798602E+03 0.  0.
         23    2    4    4    0    0  0.33560482541E+03 -0.74417680294E+02 -0.20337579914E+03  0.40948344959E+03  0.90257353306E+02 0.  0.
         23    2    4    4    0    0 -0.13857448136E+03  0.71749707149E+02  0.61900914311E+03  0.64494328827E+03  0.91807507702E+02 0.  0.
          4    1    3    3  502    0 -0.25785989095E+02  0.29565779427E+02 -0.52379749376E+02  0.65442269914E+02  0.00000000000E+00 0. -1.
         -3    1    3    3    0  502 -0.17124435496E+03 -0.26897806282E+02 -0.18244124488E+03  0.25166034436E+03  0.00000000000E+00 0.  1.
         11    1    5    5    0    0  0.20900810739E+03 -0.23595401272E+01 -0.13258574064E+03  0.24752562495E+03  0.00000000000E+00 0.  1.
        -11    1    5    5    0    0  0.12659671802E+03 -0.72058140167E+02 -0.70790058507E+02  0.16195782464E+03  0.00000000000E+00 0. -1.
          1    1    6    6  503    0 -0.68893631119E+02  0.75294192507E+02  0.46187014663E+03  0.47301118400E+03  0.00000000000E+00 0. -1.
         -1    1    6    6    0  503 -0.69680850236E+02 -0.35444853580E+01  0.15713899648E+03  0.17193210427E+03  0.00000000000E+00 0.  1.
<mgrwt>
<rscale>  0 0.13595586E+04</rscale>
<asrwt>0</asrwt>
<pdfrwt beam="1">  1        2 0.11941090E+00 0.13595586E+04</pdfrwt>
<pdfrwt beam="2">  1       -1 0.91593616E-01 0.13595586E+04</pdfrwt>
<totfact> 0.46450488E+01</totfact>
</mgrwt>
</event>
<event>
12    6  0.1529770E-007  0.1730460E+04  0.7818608E-02  0.8744180E-01
          2   -1    0    0  501    0  0.00000000000E+00  0.00000000000E+00  0.37852734593E+04  0.37852734593E+04  0.00000000000E+00 0. -1.
         -1   -1    0    0    0  501 -0.00000000000E+00 -0.00000000000E+00 -0.19777246573E+03  0.19777246573E+03  0.00000000000E+00 0.  1.
         24    2    1    2    0    0  0.33372621846E+03 -0.51744731399E+03  0.13075671372E+04  0.14475652436E+04  0.81168986999E+02 0.  0.
        254    2    1    2    0    0 -0.33372621846E+03  0.51744731399E+03  0.22799338564E+04  0.25354806815E+04  0.92273451492E+03 0.  0.
         23    2    4    4    0    0  0.30447395165E+03  0.72199177780E+02  0.66206655562E+03  0.73779599970E+03  0.89965018713E+02 0.  0.
         23    2    4    4    0    0 -0.63820017010E+03  0.44524813621E+03  0.16178673007E+04  0.17976846818E+04  0.92899151307E+02 0.  0.
          2    1    3    3  502    0  0.21117040304E+03 -0.28369845889E+03  0.82327775199E+03  0.89602679180E+03  0.00000000000E+00 0. -1.
         -1    1    3    3    0  502  0.12255581542E+03 -0.23374885510E+03  0.48428938526E+03  0.55153845181E+03  0.00000000000E+00 0.  1.
         11    1    5    5    0    0  0.16335369813E+03  0.80805805707E+02  0.33219825966E+03  0.37890591530E+03  0.00000000000E+00 0.  1.
        -11    1    5    5    0    0  0.14112025351E+03 -0.86066279269E+01  0.32986829596E+03  0.35889008439E+03  0.00000000000E+00 0. -1.
          2    1    6    6  503    0 -0.61491607125E+03  0.43209115723E+03  0.15919899021E+04  0.17604705028E+04  0.00000000000E+00 0. -1.
         -2    1    6    6    0  503 -0.23284098858E+02  0.13156978985E+02  0.25877398643E+02  0.37214178967E+02  0.00000000000E+00 0.  1.
<mgrwt>
<rscale>  0 0.17304599E+04</rscale>
<asrwt>0</asrwt>
<pdfrwt beam="1">  1        2 0.58234971E+00 0.17304599E+04</pdfrwt>
<pdfrwt beam="2">  1       -1 0.30426536E-01 0.17304599E+04</pdfrwt>
<totfact> 0.54926878E+00</totfact>
</mgrwt>
</event>
<event>
12    6  0.1529770E-007  0.1044620E+04  0.7818608E-02  0.9260916E-01
          2   -1    0    0  501    0  0.00000000000E+00  0.00000000000E+00  0.69243599977E+03  0.69243599977E+03  0.00000000000E+00 0. -1.
         -1   -1    0    0    0  501 -0.00000000000E+00 -0.00000000000E+00 -0.39398244790E+03  0.39398244790E+03  0.00000000000E+00 0.  1.
         24    2    1    2    0    0 -0.51200999346E+02  0.82253589197E+02  0.97370731280E+02  0.15975630332E+03  0.81570962171E+02 0.  0.
        254    2    1    2    0    0  0.51200999346E+02 -0.82253589197E+02  0.20108282060E+03  0.92666214435E+03  0.89937824844E+03 0.  0.
         23    2    4    4    0    0  0.28936326191E+03 -0.32039976007E+03 -0.11586863346E+03  0.45619583680E+03  0.91115298913E+02 0.  0.
         23    2    4    4    0    0 -0.23816226257E+03  0.23814617087E+03  0.31695145406E+03  0.47046630756E+03  0.86287080747E+02 0.  0.
          4    1    3    3  502    0 -0.71886303936E+02  0.68322592184E+02  0.89544180816E+02  0.13361802878E+03  0.00000000000E+00 0. -1.
         -3    1    3    3    0  502  0.20685304590E+02  0.13930997013E+02  0.78265504642E+01  0.26138274540E+02  0.00000000000E+00 0.  1.
         11    1    5    5    0    0  0.26573733658E+03 -0.27813044013E+03 -0.12950716792E+03  0.40588789132E+03  0.00000000000E+00 0.  1.
        -11    1    5    5    0    0  0.23625925331E+02 -0.42269319939E+02  0.13638534458E+02  0.50307945476E+02  0.00000000000E+00 0. -1.
          4    1    6    6  503    0 -0.84272648668E+02  0.75474145468E+02  0.54826416364E+02  0.12571460488E+03  0.00000000000E+00 0. -1.
         -4    1    6    6    0  503 -0.15388961390E+03  0.16267202540E+03  0.26212503769E+03  0.34475170268E+03  0.00000000000E+00 0.  1.
<mgrwt>
<rscale>  0 0.10446198E+04</rscale>
<asrwt>0</asrwt>
<pdfrwt beam="1">  1        2 0.10652862E+00 0.10446198E+04</pdfrwt>
<pdfrwt beam="2">  1       -1 0.60612684E-01 0.10446198E+04</pdfrwt>
<totfact> 0.13044858E+02</totfact>
</mgrwt>
</event>
<event>
12    6  0.1529770E-007  0.1586899E+04  0.7818608E-02  0.8828637E-01
         -1   -1    0    0    0  501 -0.00000000000E+00  0.00000000000E+00  0.28954531010E+03  0.28954531010E+03  0.00000000000E+00 0.  1.
          2   -1    0    0  501    0  0.00000000000E+00 -0.00000000000E+00 -0.21743131922E+04  0.21743131922E+04  0.00000000000E+00 0. -1.
         24    2    1    2    0    0  0.97711554488E+02 -0.48693003807E+03 -0.37131670816E+03  0.62454524094E+03  0.74379098934E+02 0.  0.
        254    2    1    2    0    0 -0.97711554488E+02  0.48693003807E+03 -0.15134511739E+04  0.18393132613E+04  0.91972300592E+03 0.  0.
         23    2    4    4    0    0  0.25153138983E+03 -0.34989724157E+02 -0.95618300997E+03  0.99353608398E+03  0.91299949273E+02 0.  0.
         23    2    4    4    0    0 -0.34924294432E+03  0.52191976223E+03 -0.55726816392E+03  0.84577717733E+03  0.10208013920E+03 0.  0.
          4    1    3    3  502    0  0.67545782589E+01 -0.28622579443E+02 -0.29518946776E+01  0.29556557033E+02  0.00000000000E+00 0. -1.
         -3    1    3    3    0  502  0.90956976229E+02 -0.45830745863E+03 -0.36836481349E+03  0.59498868390E+03  0.00000000000E+00 0.  1.
         11    1    5    5    0    0  0.18214279687E+03 -0.51232490393E+02 -0.79661918233E+03  0.81878134332E+03  0.00000000000E+00 0. -1.
        -11    1    5    5    0    0  0.69388592959E+02  0.16242766236E+02 -0.15956382765E+03  0.17475474065E+03  0.00000000000E+00 0.  1.
          1    1    6    6  503    0 -0.33723093705E+03  0.44999326411E+03 -0.50760270080E+03  0.75754811366E+03  0.00000000000E+00 0. -1.
         -1    1    6    6    0  503 -0.12012007273E+02  0.71926498118E+02 -0.49665463117E+02  0.88229063675E+02  0.00000000000E+00 0.  1.
<mgrwt>
<rscale>  0 0.15868991E+04</rscale>
<asrwt>0</asrwt>
<pdfrwt beam="1">  1        2 0.33450972E+00 0.15868991E+04</pdfrwt>
<pdfrwt beam="2">  1       -1 0.44545433E-01 0.15868991E+04</pdfrwt>
<totfact> 0.29151356E+01</totfact>
</mgrwt>
</event>
<event>
12    6  0.1529770E-007  0.1286854E+04  0.7818608E-02  0.9040055E-01
         -1   -1    0    0    0  501 -0.00000000000E+00  0.00000000000E+00  0.10123053473E+04  0.10123053473E+04  0.00000000000E+00 0.  1.
          2   -1    0    0  501    0  0.00000000000E+00 -0.00000000000E+00 -0.40896585970E+03  0.40896585970E+03  0.00000000000E+00 0. -1.
         24    2    1    2    0    0  0.20554934102E+03  0.31613068485E+01 -0.11292703127E+03  0.24670357661E+03  0.76482774974E+02 0.  0.
        254    2    1    2    0    0 -0.20554934102E+03 -0.31613068485E+01  0.71626651892E+03  0.11745676304E+04  0.90791567168E+03 0.  0.
         23    2    4    4    0    0 -0.21816292779E+03 -0.42545573346E+03  0.27944058632E+03  0.56035747532E+03  0.85474058454E+02 0.  0.
         23    2    4    4    0    0  0.12613586775E+02  0.42229442661E+03  0.43682593260E+03  0.61421015511E+03  0.89137724549E+02 0.  0.
          4    1    3    3  502    0  0.17593867064E+03  0.31032173881E+02 -0.93327432262E+02  0.20156245001E+03  0.00000000000E+00 0. -1.
         -1    1    3    3    0  502  0.29610670376E+02 -0.27870867032E+02 -0.19599599008E+02  0.45141126598E+02  0.00000000000E+00 0.  1.
         11    1    5    5    0    0 -0.20403226877E+03 -0.41543266930E+03  0.24958257310E+03  0.52583736099E+03  0.00000000000E+00 0. -1.
        -11    1    5    5    0    0 -0.14130659021E+02 -0.10023064157E+02  0.29858013225E+02  0.34520114328E+02  0.00000000000E+00 0.  1.
          1    1    6    6  503    0  0.30984985021E+02  0.20965641637E+03  0.27042801744E+03  0.34357996862E+03  0.00000000000E+00 0. -1.
         -1    1    6    6    0  503 -0.18371398246E+02  0.21263801023E+03  0.16639791516E+03  0.27063018649E+03  0.00000000000E+00 0.  1.
<mgrwt>
<rscale>  0 0.12868540E+04</rscale>
<asrwt>0</asrwt>
<pdfrwt beam="1">  1        2 0.62917825E-01 0.12868540E+04</pdfrwt>
<pdfrwt beam="2">  1       -1 0.15573928E+00 0.12868540E+04</pdfrwt>
<totfact> 0.27422737E+01</totfact>
</mgrwt>
</event>
<event>
12    6  0.1529770E-007  0.1433794E+04  0.7818608E-02  0.8929713E-01
          2   -1    0    0  501    0  0.00000000000E+00  0.00000000000E+00  0.12761055780E+04  0.12761055780E+04  0.00000000000E+00 0. -1.
         -1   -1    0    0    0  501 -0.00000000000E+00 -0.00000000000E+00 -0.40274226358E+03  0.40274226358E+03  0.00000000000E+00 0.  1.
         24    2    1    2    0    0  0.40115572675E+03  0.15107110998E+03  0.34451078564E+03  0.55562853108E+03  0.79290514952E+02 0.  0.
        254    2    1    2    0    0 -0.40115572675E+03 -0.15107110998E+03  0.52885252875E+03  0.11232193105E+04  0.89341380382E+03 0.  0.
         23    2    4    4    0    0 -0.47584718300E+03 -0.38560681618E+03  0.10998156092E+03  0.62893988729E+03  0.91357976264E+02 0.  0.
         23    2    4    4    0    0  0.74691456252E+02  0.23453570621E+03  0.41887096783E+03  0.49427942317E+03  0.90958503464E+02 0.  0.
          2    1    3    3  502    0  0.13228174681E+03  0.10962853130E+02  0.10627557528E+03  0.17003865028E+03  0.00000000000E+00 0. -1.
         -1    1    3    3    0  502  0.26887397994E+03  0.14010825685E+03  0.23823521036E+03  0.38558988080E+03  0.00000000000E+00 0.  1.
         11    1    5    5    0    0 -0.14729292677E+03 -0.12313524500E+03 -0.80983738327E+01  0.19215378866E+03  0.00000000000E+00 0.  1.
        -11    1    5    5    0    0 -0.32855425623E+03 -0.26247157118E+03  0.11807993475E+03  0.43678609863E+03  0.00000000000E+00 0. -1.
          1    1    6    6  503    0  0.70147468876E+02  0.21265551903E+03  0.30579643152E+03  0.37901780261E+03  0.00000000000E+00 0. -1.
         -1    1    6    6    0  503  0.45439873766E+01  0.21880187175E+02  0.11307453631E+03  0.11526162055E+03  0.00000000000E+00 0.  1.
<mgrwt>
<rscale>  0 0.14337945E+04</rscale>
<asrwt>0</asrwt>
<pdfrwt beam="1">  1        2 0.19632393E+00 0.14337945E+04</pdfrwt>
<pdfrwt beam="2">  1       -1 0.61960349E-01 0.14337945E+04</pdfrwt>
<totfact> 0.49924715E+01</totfact>
</mgrwt>
</event>
<event>
12    6  0.1529770E-007  0.2099704E+04  0.7818608E-02  0.8561374E-01
          2   -1    0    0  501    0  0.00000000000E+00  0.00000000000E+00  0.10588757323E+04  0.10588757323E+04  0.00000000000E+00 0. -1.
         -1   -1    0    0    0  501 -0.00000000000E+00 -0.00000000000E+00 -0.10409050422E+04  0.10409050422E+04  0.00000000000E+00 0.  1.
         24    2    1    2    0    0  0.95725313698E+02  0.77570029871E+02  0.85120765432E+03  0.86399900900E+03  0.82215397411E+02 0.  0.
        254    2    1    2    0    0 -0.95725313698E+02 -0.77570029871E+02 -0.83323696424E+03  0.12357817656E+04  0.90426339542E+03 0.  0.
         23    2    4    4    0    0 -0.43894082975E+03  0.35931370217E+02 -0.18185273907E+03  0.48515533290E+03  0.91351863411E+02 0.  0.
         23    2    4    4    0    0  0.34321551605E+03 -0.11350140009E+03 -0.65138422517E+03  0.75062643266E+03  0.91973769764E+02 0.  0.
          4    1    3    3  502    0  0.10843733823E+03  0.72806383894E+02  0.69234051020E+03  0.70455291350E+03  0.00000000000E+00 0. -1.
         -3    1    3    3    0  502 -0.12712024532E+02  0.47636459775E+01  0.15886714412E+03  0.15944609550E+03  0.00000000000E+00 0.  1.
         11    1    5    5    0    0 -0.36992291709E+02 -0.17125528523E+02  0.97216946610E-01  0.40764234621E+02  0.00000000000E+00 0. -1.
        -11    1    5    5    0    0 -0.40194853804E+03  0.53056898740E+02 -0.18194995602E+03  0.44439109828E+03  0.00000000000E+00 0.  1.
          1    1    6    6  503    0  0.55554906033E+02 -0.51519421728E+02 -0.17483832288E+03  0.19054930477E+03  0.00000000000E+00 0. -1.
         -1    1    6    6    0  503  0.28766061002E+03 -0.61981978360E+02 -0.47654590229E+03  0.56007712789E+03  0.00000000000E+00 0.  1.
<mgrwt>
<rscale>  0 0.20997039E+04</rscale>
<asrwt>0</asrwt>
<pdfrwt beam="1">  1        2 0.16290396E+00 0.20997039E+04</pdfrwt>
<pdfrwt beam="2">  1       -1 0.16013924E+00 0.20997039E+04</pdfrwt>
<totfact> 0.70809989E+00</totfact>
</mgrwt>
</event>
<event>
12    6  0.1529770E-007  0.3229498E+04  0.7818608E-02  0.8181070E-01
         -1   -1    0    0    0  501 -0.00000000000E+00  0.00000000000E+00  0.24310589921E+04  0.24310589921E+04  0.00000000000E+00 0.  1.
          2   -1    0    0  501    0  0.00000000000E+00 -0.00000000000E+00 -0.10725422732E+04  0.10725422732E+04  0.00000000000E+00 0. -1.
         24    2    1    2    0    0 -0.13260139668E+04 -0.19271302882E+03  0.13311727997E+04  0.18904874897E+04  0.80439879589E+02 0.  0.
        254    2    1    2    0    0  0.13260139668E+04  0.19271302882E+03  0.27343919113E+02  0.16131137756E+04  0.89773994644E+03 0.  0.
         23    2    4    4    0    0  0.14187064119E+04  0.14252751668E+03 -0.89020082656E+02  0.14317068532E+04  0.93904004722E+02 0.  0.
         23    2    4    4    0    0 -0.92692445112E+02  0.50185512146E+02  0.11636400177E+03  0.18140692241E+03  0.90870322877E+02 0.  0.
          2    1    3    3  502    0 -0.50744499404E+03 -0.66863995535E+02  0.45479501894E+03  0.68469681256E+03  0.00000000000E+00 0. -1.
         -1    1    3    3    0  502 -0.81856897276E+03 -0.12584903329E+03  0.87637778080E+03  0.12057906771E+04  0.00000000000E+00 0.  1.
         11    1    5    5    0    0  0.72862154894E+02  0.17448931824E+02  0.13702774234E+02  0.76165115764E+02  0.00000000000E+00 0.  1.
        -11    1    5    5    0    0  0.13458442570E+04  0.12507858485E+03 -0.10272285689E+03  0.13555417374E+04  0.00000000000E+00 0. -1.
          3    1    6    6  503    0 -0.52788096420E+02  0.10974796489E+02  0.18394278314E+01  0.53948241643E+02  0.00000000000E+00 0. -1.
         -3    1    6    6    0  503 -0.39904348692E+02  0.39210715658E+02  0.11452457394E+03  0.12745868077E+03  0.00000000000E+00 0.  1.
<mgrwt>
<rscale>  0 0.32294975E+04</rscale>
<asrwt>0</asrwt>
<pdfrwt beam="1">  1        2 0.16500650E+00 0.32294975E+04</pdfrwt>
<pdfrwt beam="2">  1       -1 0.37400907E+00 0.32294975E+04</pdfrwt>
<totfact> 0.23274396E-01</totfact>
</mgrwt>
</event>
<event>
12    6  0.1529770E-007  0.2793682E+04  0.7818608E-02  0.8305232E-01
          2   -1    0    0  501    0  0.00000000000E+00  0.00000000000E+00  0.21355338297E+04  0.21355338297E+04  0.00000000000E+00 0. -1.
         -3   -1    0    0    0  501 -0.00000000000E+00 -0.00000000000E+00 -0.91366623797E+03  0.91366623797E+03  0.00000000000E+00 0.  1.
         24    2    1    2    0    0  0.10339123400E+04  0.44043984586E+03  0.11573867840E+04  0.16152171023E+04  0.80125746805E+02 0.  0.
        254    2    1    2    0    0 -0.10339123400E+04 -0.44043984586E+03  0.64480807754E+02  0.14339829653E+04  0.88836219284E+03 0.  0.
         23    2    4    4    0    0  0.71721237677E+02  0.13364971000E+03  0.50484584902E+02  0.18459296365E+03  0.92302155988E+02 0.  0.
         23    2    4    4    0    0 -0.11056335777E+04 -0.57408955586E+03  0.13996222852E+02  0.12493900017E+04  0.93675267859E+02 0.  0.
          2    1    3    3  502    0  0.42483505918E+03  0.15923107938E+03  0.41884732443E+03  0.61747262719E+03  0.00000000000E+00 0. -1.
         -1    1    3    3    0  502  0.60907728083E+03  0.28120876648E+03  0.73853945955E+03  0.99774447514E+03  0.00000000000E+00 0.  1.
         11    1    5    5    0    0  0.84503192209E+01  0.35717778825E+02 -0.26152855448E+02  0.45068164676E+02  0.00000000000E+00 0. -1.
        -11    1    5    5    0    0  0.63270918456E+02  0.97931931175E+02  0.76637440350E+02  0.13952479898E+03  0.00000000000E+00 0.  1.
          3    1    6    6  503    0 -0.53442985632E+03 -0.32766994694E+03  0.21552421282E+02  0.62725383404E+03  0.00000000000E+00 0. -1.
         -3    1    6    6    0  503 -0.57120372136E+03 -0.24641960893E+03 -0.75561984301E+01  0.62213616765E+03  0.00000000000E+00 0.  1.
<mgrwt>
<rscale>  0 0.27936823E+04</rscale>
<asrwt>0</asrwt>
<pdfrwt beam="1">  1        2 0.32854367E+00 0.27936823E+04</pdfrwt>
<pdfrwt beam="2">  1       -3 0.14056404E+00 0.27936823E+04</pdfrwt>
<totfact> 0.11843071E+00</totfact>
</mgrwt>
</event>
<event>
12    6  0.1529770E-007  0.1829080E+04  0.7818608E-02  0.8690986E-01
          2   -1    0    0  501    0  0.00000000000E+00  0.00000000000E+00  0.26985890467E+04  0.26985890467E+04  0.00000000000E+00 0. -1.
         -1   -1    0    0    0  501 -0.00000000000E+00 -0.00000000000E+00 -0.30993358884E+03  0.30993358884E+03  0.00000000000E+00 0.  1.
         24    2    1    2    0    0  0.16520474608E+03  0.17404712546E+03  0.19393986565E+04  0.19558225466E+04  0.79935441463E+02 0.  0.
        254    2    1    2    0    0 -0.16520474608E+03 -0.17404712546E+03  0.44925680138E+03  0.10527000890E+04  0.92128214668E+03 0.  0.
         23    2    4    4    0    0 -0.81130584853E+02  0.14336000833E+02 -0.26941671455E+03  0.29955874255E+03  0.10179578302E+03 0.  0.
         23    2    4    4    0    0 -0.84074161225E+02 -0.18838312630E+03  0.71867351593E+03  0.75314134646E+03  0.90407955318E+02 0.  0.
          2    1    3    3  502    0  0.98917148630E+02  0.14500127855E+03  0.15345385584E+04  0.15445447744E+04  0.00000000000E+00 0. -1.
         -1    1    3    3    0  502  0.66287597448E+02  0.29045846912E+02  0.40486009813E+03  0.41127777214E+03  0.00000000000E+00 0.  1.
         11    1    5    5    0    0  0.14896813474E+02  0.15249543478E+02 -0.11238815106E+02  0.24099265403E+02  0.00000000000E+00 0.  1.
        -11    1    5    5    0    0 -0.96027398327E+02 -0.91354264457E+00 -0.25817789944E+03  0.27545947714E+03  0.00000000000E+00 0. -1.
          2    1    6    6  503    0 -0.34944917757E+02 -0.25478407368E+02  0.26703267313E+03  0.27051200535E+03  0.00000000000E+00 0.  1.
         -2    1    6    6    0  503 -0.49129243468E+02 -0.16290471893E+03  0.45164084280E+03  0.48262934111E+03  0.00000000000E+00 0. -1.
<mgrwt>
<rscale>  0 0.18290800E+04</rscale>
<asrwt>0</asrwt>
<pdfrwt beam="1">  1        2 0.41516753E+00 0.18290800E+04</pdfrwt>
<pdfrwt beam="2">  1       -1 0.47682092E-01 0.18290800E+04</pdfrwt>
<totfact> 0.12555604E+01</totfact>
</mgrwt>
</event>
<event>
12    6  0.1936974E-007  0.1738803E+04  0.7818608E-02  0.8739538E-01
         -1   -1    0    0    0  501 -0.00000000000E+00  0.00000000000E+00  0.45374147596E+03  0.45374147596E+03  0.00000000000E+00 0.  1.
          2   -1    0    0  501    0  0.00000000000E+00 -0.00000000000E+00 -0.16658364047E+04  0.16658364047E+04  0.00000000000E+00 0. -1.
         24    2    1    2    0    0  0.38775744463E+03 -0.22004444236E+03  0.10604272595E+03  0.46472165970E+03  0.77108811377E+02 0.  0.
        254    2    1    2    0    0 -0.38775744463E+03  0.22004444236E+03 -0.13181376547E+04  0.16548562210E+04  0.89570466274E+03 0.  0.
         23    2    4    4    0    0 -0.56007713415E+03  0.42396498290E+03 -0.10495625037E+04  0.12662642813E+04  0.91711929079E+02 0.  0.
         23    2    4    4    0    0  0.17231968952E+03 -0.20392054054E+03 -0.26857515102E+03  0.38859193971E+03  0.87140241061E+02 0.  0.
          4    1    3    3  502    0  0.53769886935E+02 -0.30339206025E+01  0.18242881987E+02  0.56861306338E+02  0.00000000000E+00 0. -1.
         -1    1    3    3    0  502  0.33398755769E+03 -0.21701052176E+03  0.87799843961E+02  0.40786035337E+03  0.00000000000E+00 0.  1.
         11    1    5    5    0    0 -0.37794945220E+03  0.23049627270E+03 -0.65940324046E+03  0.79422097283E+03  0.00000000000E+00 0. -1.
        -11    1    5    5    0    0 -0.18212768195E+03  0.19346871020E+03 -0.39015926326E+03  0.47204330846E+03  0.00000000000E+00 0.  1.
          1    1    6    6  503    0  0.14929089840E+03 -0.12955994696E+03 -0.15644122724E+03  0.25208611580E+03  0.00000000000E+00 0. -1.
         -1    1    6    6    0  503  0.23028791121E+02 -0.74360593581E+02 -0.11213392378E+03  0.13650582390E+03  0.00000000000E+00 0.  1.
<mgrwt>
<rscale>  0 0.17388031E+04</rscale>
<asrwt>0</asrwt>
<pdfrwt beam="1">  1        2 0.25628252E+00 0.17388031E+04</pdfrwt>
<pdfrwt beam="2">  1       -1 0.69806382E-01 0.17388031E+04</pdfrwt>
<totfact> 0.22976118E+01</totfact>
</mgrwt>
</event>
<event>
12    6  0.1529770E-007  0.2619402E+04  0.7818608E-02  0.8361641E-01
         -1   -1    0    0    0  501 -0.00000000000E+00  0.00000000000E+00  0.68886981869E+03  0.68886981869E+03  0.00000000000E+00 0.  1.
          2   -1    0    0  501    0  0.00000000000E+00 -0.00000000000E+00 -0.24900443594E+04  0.24900443594E+04  0.00000000000E+00 0. -1.
         24    2    1    2    0    0 -0.10212303860E+04 -0.60896008933E+02 -0.14881278434E+03  0.10369080720E+04  0.80082955079E+02 0.  0.
        254    2    1    2    0    0  0.10212303860E+04  0.60896008933E+02 -0.16523617564E+04  0.21420061061E+04  0.90070581189E+03 0.  0.
         23    2    4    4    0    0  0.16878500619E+03  0.23991572215E+03 -0.10098694025E+04  0.10556344998E+04  0.92087214821E+02 0.  0.
         23    2    4    4    0    0  0.85244537982E+03 -0.17901971322E+03 -0.64249235389E+03  0.10863716063E+04  0.93250516649E+02 0.  0.
          2    1    3    3  502    0 -0.47557513095E+03 -0.33900097104E+02 -0.29400732122E+02  0.47768747609E+03  0.00000000000E+00 0. -1.
         -1    1    3    3    0  502 -0.54565525506E+03 -0.26995911829E+02 -0.11941205222E+03  0.55922059587E+03  0.00000000000E+00 0.  1.
         11    1    5    5    0    0  0.13595508039E+03  0.22468967469E+03 -0.95042351985E+03  0.98603960411E+03  0.00000000000E+00 0. -1.
        -11    1    5    5    0    0  0.32829925799E+02  0.15226047458E+02 -0.59445882631E+02  0.69594895725E+02  0.00000000000E+00 0.  1.
          2    1    6    6  503    0  0.29119139908E+03 -0.51240266263E+02 -0.16568961658E+03  0.33892631179E+03  0.00000000000E+00 0.  1.
         -2    1    6    6    0  503  0.56125398075E+03 -0.12777944696E+03 -0.47680273731E+03  0.74744529450E+03  0.00000000000E+00 0. -1.
<mgrwt>
<rscale>  0 0.26194018E+04</rscale>
<asrwt>0</asrwt>
<pdfrwt beam="1">  1        2 0.38308375E+00 0.26194018E+04</pdfrwt>
<pdfrwt beam="2">  1       -1 0.10597997E+00 0.26194018E+04</pdfrwt>
<totfact> 0.29507163E+00</totfact>
</mgrwt>
</event>
<event>
12    6  0.1529770E-007  0.2403992E+04  0.7818608E-02  0.8438010E-01
          2   -1    0    0  501    0  0.00000000000E+00  0.00000000000E+00  0.18116551040E+04  0.18116551040E+04  0.00000000000E+00 0. -1.
         -1   -1    0    0    0  501 -0.00000000000E+00 -0.00000000000E+00 -0.79749985986E+03  0.79749985986E+03  0.00000000000E+00 0.  1.
         24    2    1    2    0    0  0.97461284022E+03  0.19558247611E+03  0.14096664549E+03  0.10072458181E+04  0.80931141138E+02 0.  0.
        254    2    1    2    0    0 -0.97461284022E+03 -0.19558247611E+03  0.87318859861E+03  0.16019091457E+04  0.90306804239E+03 0.  0.
         23    2    4    4    0    0 -0.44524625474E+03 -0.18683797619E+03 -0.89234090690E+02  0.49956956035E+03  0.91947626320E+02 0.  0.
         23    2    4    4    0    0 -0.52936658548E+03 -0.87444999191E+01  0.96242268930E+03  0.11023395854E+04  0.92680529439E+02 0.  0.
          4    1    3    3  502    0  0.60204984850E+03  0.14552585102E+03  0.56481592276E+02  0.62195816874E+03  0.00000000000E+00 0. -1.
         -3    1    3    3    0  502  0.37256299172E+03  0.50056625087E+02  0.84485053218E+02  0.38528764934E+03  0.00000000000E+00 0.  1.
         11    1    5    5    0    0 -0.74239564732E+02 -0.57710446014E+02  0.95159007241E+01  0.94512226285E+02  0.00000000000E+00 0. -1.
        -11    1    5    5    0    0 -0.37100669001E+03 -0.12912753017E+03 -0.98749991414E+02  0.40505733407E+03  0.00000000000E+00 0.  1.
          4    1    6    6  503    0 -0.20964612398E+03  0.39240542225E+02  0.41411332694E+03  0.46581237103E+03  0.00000000000E+00 0. -1.
         -4    1    6    6    0  503 -0.31972046150E+03 -0.47985042144E+02  0.54830936236E+03  0.63652721436E+03  0.00000000000E+00 0.  1.
<mgrwt>
<rscale>  0 0.24039923E+04</rscale>
<asrwt>0</asrwt>
<pdfrwt beam="1">  1        2 0.27871617E+00 0.24039923E+04</pdfrwt>
<pdfrwt beam="2">  1       -1 0.12269229E+00 0.24039923E+04</pdfrwt>
<totfact> 0.50988841E+00</totfact>
</mgrwt>
</event>
<event>
12    6  0.1529770E-007  0.2043858E+04  0.7818608E-02  0.8586386E-01
         -1   -1    0    0    0  501 -0.00000000000E+00  0.00000000000E+00  0.20618943882E+04  0.20618943882E+04  0.00000000000E+00 0.  1.
          2   -1    0    0  501    0  0.00000000000E+00 -0.00000000000E+00 -0.50649473029E+03  0.50649473029E+03  0.00000000000E+00 0. -1.
         24    2    1    2    0    0  0.15403180202E+03 -0.77795024692E+03  0.89370541802E+03  0.11974670503E+04  0.79281647296E+02 0.  0.
        254    2    1    2    0    0 -0.15403180202E+03  0.77795024692E+03  0.66169423985E+03  0.13709220682E+04  0.90147416336E+03 0.  0.
         23    2    4    4    0    0 -0.24498791023E+03 -0.71750281055E+02 -0.23607260855E+02  0.27196223248E+03  0.90768794978E+02 0.  0.
         23    2    4    4    0    0  0.90956108205E+02  0.84970052798E+03  0.68530150071E+03  0.10989598357E+04  0.88377444535E+02 0.  0.
          4    1    3    3  502    0  0.34756419591E+02 -0.28916164787E+03  0.28158194338E+03  0.40510598384E+03  0.00000000000E+00 0. -1.
         -3    1    3    3    0  502  0.11927538243E+03 -0.48878859905E+03  0.61212347464E+03  0.79236106645E+03  0.00000000000E+00 0.  1.
         11    1    5    5    0    0 -0.40495702535E+01  0.16270832422E+01 -0.19585692329E+02  0.20066035062E+02  0.00000000000E+00 0.  1.
        -11    1    5    5    0    0 -0.24093833998E+03 -0.73377364298E+02 -0.40215685260E+01  0.25189619742E+03  0.00000000000E+00 0. -1.
          1    1    6    6  503    0  0.90997018672E+02  0.74513608057E+03  0.56481884103E+03  0.93942991179E+03  0.00000000000E+00 0. -1.
         -1    1    6    6    0  503 -0.40910466144E-01  0.10456444741E+03  0.12048265967E+03  0.15952992389E+03  0.00000000000E+00 0.  1.
<mgrwt>
<rscale>  0 0.20438578E+04</rscale>
<asrwt>0</asrwt>
<pdfrwt beam="1">  1        2 0.77922267E-01 0.20438578E+04</pdfrwt>
<pdfrwt beam="2">  1       -1 0.31721452E+00 0.20438578E+04</pdfrwt>
<totfact> 0.16385295E+00</totfact>
</mgrwt>
</event>
<event>
12    6  0.1529770E-007  0.1697387E+04  0.7818608E-02  0.8762856E-01
         -1   -1    0    0    0  501 -0.00000000000E+00  0.00000000000E+00  0.20094017270E+03  0.20094017270E+03  0.00000000000E+00 0.  1.
          2   -1    0    0  501    0  0.00000000000E+00 -0.00000000000E+00 -0.35845524568E+04  0.35845524568E+04  0.00000000000E+00 0. -1.
         24    2    1    2    0    0  0.52969163287E+03 -0.17998354925E+03 -0.68613805303E+03  0.88895030420E+03  0.80497898101E+02 0.  0.
        254    2    1    2    0    0 -0.52969163287E+03  0.17998354925E+03 -0.26974742311E+04  0.28965423253E+04  0.89477534108E+03 0.  0.
         23    2    4    4    0    0 -0.22403592510E+03  0.52542741720E+03 -0.16472658007E+04  0.17458796748E+04  0.91351817046E+02 0.  0.
         23    2    4    4    0    0 -0.30565570777E+03 -0.34544386795E+03 -0.10502084304E+04  0.11506626505E+04  0.91268342132E+02 0.  0.
          2    1    3    3  502    0  0.72062340544E+02 -0.44253197739E+02 -0.14052857813E+03  0.16401099873E+03  0.00000000000E+00 0. -1.
         -1    1    3    3    0  502  0.45762929232E+03 -0.13573035151E+03 -0.54560947490E+03  0.72493930547E+03  0.00000000000E+00 0.  1.
         11    1    5    5    0    0 -0.19694293557E+03  0.40349855863E+03 -0.11908760343E+04  0.12727070895E+04  0.00000000000E+00 0. -1.
        -11    1    5    5    0    0 -0.27092989524E+02  0.12192885857E+03 -0.45638976637E+03  0.47317258530E+03  0.00000000000E+00 0.  1.
          3    1    6    6  503    0 -0.29803355556E+03 -0.35111593937E+03 -0.10245938598E+04  0.11233427708E+04  0.00000000000E+00 0. -1.
         -3    1    6    6    0  503 -0.76221522150E+01  0.56720714241E+01 -0.25614570596E+02  0.27319879675E+02  0.00000000000E+00 0.  1.
<mgrwt>
<rscale>  0 0.16973869E+04</rscale>
<asrwt>0</asrwt>
<pdfrwt beam="1">  1        2 0.55146957E+00 0.16973869E+04</pdfrwt>
<pdfrwt beam="2">  1       -1 0.30913875E-01 0.16973869E+04</pdfrwt>
<totfact> 0.75105933E+00</totfact>
</mgrwt>
</event>
<event>
12    6  0.1529770E-007  0.1607261E+04  0.7818608E-02  0.8816100E-01
          2   -1    0    0  501    0  0.00000000000E+00  0.00000000000E+00  0.64684214382E+03  0.64684214382E+03  0.00000000000E+00 0. -1.
         -1   -1    0    0    0  501 -0.00000000000E+00 -0.00000000000E+00 -0.99842312786E+03  0.99842312786E+03  0.00000000000E+00 0.  1.
         24    2    1    2    0    0 -0.14682516890E+03 -0.52646827307E+03 -0.75623621037E+02  0.55730563920E+03  0.78384760344E+02 0.  0.
        254    2    1    2    0    0  0.14682516890E+03  0.52646827307E+03 -0.27595736300E+03  0.10879596325E+04  0.89932042284E+03 0.  0.
         23    2    4    4    0    0  0.40712220151E+03  0.62941893521E+03 -0.15808816947E+03  0.77108842066E+03  0.87571686015E+02 0.  0.
         23    2    4    4    0    0 -0.26029703261E+03 -0.10295066214E+03 -0.11786919353E+03  0.31687121182E+03  0.90337334894E+02 0.  0.
          2    1    3    3  502    0 -0.97138436522E+02 -0.36477622008E+03 -0.88296644064E+02  0.38767752571E+03  0.00000000000E+00 0. -1.
         -1    1    3    3    0  502 -0.49686732376E+02 -0.16169205299E+03  0.12673023027E+02  0.16962811350E+03  0.00000000000E+00 0.  1.
         11    1    5    5    0    0  0.28898319686E+03  0.46046837112E+03 -0.15344338406E+03  0.56487811161E+03  0.00000000000E+00 0. -1.
        -11    1    5    5    0    0  0.11813900465E+03  0.16895056410E+03 -0.46447854058E+01  0.20621030905E+03  0.00000000000E+00 0.  1.
          3    1    6    6  503    0 -0.21449277889E+03 -0.11249801203E+03 -0.11944568623E+03  0.27005596988E+03  0.00000000000E+00 0. -1.
         -3    1    6    6    0  503 -0.45804253721E+02  0.95473498929E+01  0.15764927010E+01  0.46815241943E+02  0.00000000000E+00 0.  1.
<mgrwt>
<rscale>  0 0.16072612E+04</rscale>
<asrwt>0</asrwt>
<pdfrwt beam="1">  1        2 0.99514176E-01 0.16072612E+04</pdfrwt>
<pdfrwt beam="2">  1       -1 0.15360356E+00 0.16072612E+04</pdfrwt>
<totfact> 0.16200733E+01</totfact>
</mgrwt>
</event>
<event>
12    6  0.1572390E-007  0.2444783E+04  0.7818608E-02  0.8422925E-01
         -1   -1    0    0    0  501 -0.00000000000E+00  0.00000000000E+00  0.11052121107E+04  0.11052121107E+04  0.00000000000E+00 0.  1.
          2   -1    0    0  501    0  0.00000000000E+00 -0.00000000000E+00 -0.13519950892E+04  0.13519950892E+04  0.00000000000E+00 0. -1.
         24    2    1    2    0    0  0.14334686599E+03  0.33205533243E+03  0.89122836821E+03  0.96505107573E+03  0.78908216855E+02 0.  0.
        254    2    1    2    0    0 -0.14334686599E+03 -0.33205533243E+03 -0.11380113467E+04  0.14921561242E+04  0.89479104036E+03 0.  0.
         23    2    4    4    0    0 -0.40621851087E+03 -0.32818666827E+03 -0.10880910474E+04  0.12102597389E+04  0.89813921909E+02 0.  0.
         23    2    4    4    0    0  0.26287164488E+03 -0.38686641601E+01 -0.49920299332E+02  0.28189638522E+03  0.88640100793E+02 0.  0.
          2    1    3    3  502    0  0.44982791460E+02  0.68875839006E+02  0.28949368811E+03  0.30095502684E+03  0.00000000000E+00 0. -1.
         -1    1    3    3    0  502  0.98364074531E+02  0.26317949342E+03  0.60173468010E+03  0.66409604889E+03  0.00000000000E+00 0.  1.
         11    1    5    5    0    0 -0.30653654874E+03 -0.29135021868E+03 -0.89391888747E+03  0.98890878397E+03  0.00000000000E+00 0. -1.
        -11    1    5    5    0    0 -0.99681962134E+02 -0.36836449587E+02 -0.19417215989E+03  0.22135095497E+03  0.00000000000E+00 0.  1.
          1    1    6    6  503    0  0.15871655106E+03  0.29648042713E+02  0.40549669542E+00  0.16146242425E+03  0.00000000000E+00 0. -1.
         -1    1    6    6    0  503  0.10415509382E+03 -0.33516706873E+02 -0.50325796027E+02  0.12043396096E+03  0.00000000000E+00 0.  1.
<mgrwt>
<rscale>  0 0.24447833E+04</rscale>
<asrwt>0</asrwt>
<pdfrwt beam="1">  1        2 0.20799924E+00 0.24447833E+04</pdfrwt>
<pdfrwt beam="2">  1       -1 0.17003263E+00 0.24447833E+04</pdfrwt>
<totfact> 0.38715686E+00</totfact>
</mgrwt>
</event>
<event>
12    6  0.1529770E-007  0.2649873E+04  0.7818608E-02  0.8351455E-01
          2   -1    0    0  501    0  0.00000000000E+00  0.00000000000E+00  0.14055984819E+04  0.14055984819E+04  0.00000000000E+00 0. -1.
         -1   -1    0    0    0  501 -0.00000000000E+00 -0.00000000000E+00 -0.12489037488E+04  0.12489037488E+04  0.00000000000E+00 0.  1.
         24    2    1    2    0    0 -0.62036442605E+03  0.40006298513E+03 -0.85265895366E+03  0.11304180929E+04  0.76911379424E+02 0.  0.
        254    2    1    2    0    0  0.62036442605E+03 -0.40006298513E+03  0.10093536867E+04  0.15240841379E+04  0.87128363994E+03 0.  0.
         23    2    4    4    0    0  0.81105718770E+03 -0.21023660072E+03  0.85584434766E+03  0.12016545849E+04  0.97421784271E+02 0.  0.
         23    2    4    4    0    0 -0.19069276165E+03 -0.18982638441E+03  0.15350933904E+03  0.32242955293E+03  0.89431056514E+02 0.  0.
          4    1    3    3  502    0 -0.38523926389E+02  0.42840380966E+02 -0.89354425003E+02  0.10631841051E+03  0.00000000000E+00 0. -1.
         -3    1    3    3    0  502 -0.58184049966E+03  0.35722260416E+03 -0.76330452865E+03  0.10240996824E+04  0.00000000000E+00 0.  1.
         11    1    5    5    0    0  0.17017860014E+03 -0.85892119266E+02  0.19899773801E+03  0.27556906907E+03  0.00000000000E+00 0.  1.
        -11    1    5    5    0    0  0.64087858756E+03 -0.12434448145E+03  0.65684660965E+03  0.92608551585E+03  0.00000000000E+00 0. -1.
          4    1    6    6  503    0 -0.14119119179E+03 -0.14736785873E+03  0.15643769767E+03  0.25714780123E+03  0.00000000000E+00 0. -1.
         -4    1    6    6    0  503 -0.49501569853E+02 -0.42458525679E+02 -0.29283586276E+01  0.65281751700E+02  0.00000000000E+00 0.  1.
<mgrwt>
<rscale>  0 0.26498734E+04</rscale>
<asrwt>0</asrwt>
<pdfrwt beam="1">  1        2 0.21624592E+00 0.26498734E+04</pdfrwt>
<pdfrwt beam="2">  1       -1 0.19213904E+00 0.26498734E+04</pdfrwt>
<totfact> 0.24605303E+00</totfact>
</mgrwt>
</event>
<event>
12    6  0.1529770E-007  0.1476528E+04  0.7818608E-02  0.8900213E-01
          2   -1    0    0  501    0  0.00000000000E+00  0.00000000000E+00  0.15668143402E+04  0.15668143402E+04  0.00000000000E+00 0. -1.
         -1   -1    0    0    0  501 -0.00000000000E+00 -0.00000000000E+00 -0.34786110119E+03  0.34786110119E+03  0.00000000000E+00 0.  1.
         24    2    1    2    0    0  0.44350918962E+03  0.10854086479E+03  0.33109640438E+03  0.56990008646E+03  0.81729792273E+02 0.  0.
        254    2    1    2    0    0 -0.44350918962E+03 -0.10854086479E+03  0.88785683460E+03  0.13447753549E+04  0.90091590939E+03 0.  0.
         23    2    4    4    0    0  0.19115341664E+03 -0.11363253368E+03  0.59210867920E+03  0.63862235743E+03  0.88282761805E+02 0.  0.
         23    2    4    4    0    0 -0.63466260626E+03  0.50916688891E+01  0.29574815541E+03  0.70615299747E+03  0.91446900041E+02 0.  0.
          2    1    3    3  502    0  0.54691415896E+02 -0.12069355815E+02  0.29844275369E+02  0.63462596029E+02  0.00000000000E+00 0. -1.
         -3    1    3    3    0  502  0.38881777373E+03  0.12061022061E+03  0.30125212901E+03  0.50643749043E+03  0.00000000000E+00 0.  1.
         11    1    5    5    0    0  0.33666322394E+01 -0.10169513964E+02  0.11566343935E+03  0.11615844537E+03  0.00000000000E+00 0.  1.
        -11    1    5    5    0    0  0.18778678440E+03 -0.10346301972E+03  0.47644523984E+03  0.52246391207E+03  0.00000000000E+00 0. -1.
          2    1    6    6  503    0 -0.47891531756E+03 -0.29078705365E+02  0.19745224099E+03  0.51883797083E+03  0.00000000000E+00 0.  1.
         -2    1    6    6    0  503 -0.15574728870E+03  0.34170374254E+02  0.98295914413E+02  0.18731502663E+03  0.00000000000E+00 0. -1.
<mgrwt>
<rscale>  0 0.14765280E+04</rscale>
<asrwt>0</asrwt>
<pdfrwt beam="1">  1        2 0.24104836E+00 0.14765280E+04</pdfrwt>
<pdfrwt beam="2">  1       -1 0.53517094E-01 0.14765280E+04</pdfrwt>
<totfact> 0.45218176E+01</totfact>
</mgrwt>
</event>
<event>
12    6  0.1529770E-007  0.1817753E+04  0.7818608E-02  0.8696915E-01
         -1   -1    0    0    0  501 -0.00000000000E+00  0.00000000000E+00  0.10182042788E+04  0.10182042788E+04  0.00000000000E+00 0.  1.
          2   -1    0    0  501    0  0.00000000000E+00 -0.00000000000E+00 -0.81128729518E+03  0.81128729518E+03  0.00000000000E+00 0. -1.
         24    2    1    2    0    0  0.25474498757E+03  0.53951455632E+03  0.41461036957E+03  0.73065189691E+03  0.77327037459E+02 0.  0.
        254    2    1    2    0    0 -0.25474498757E+03 -0.53951455632E+03 -0.20769338591E+03  0.10988396771E+04  0.89907793226E+03 0.  0.
         23    2    4    4    0    0 -0.22481435909E+03 -0.88716787729E+02  0.31137044189E+03  0.40462854481E+03  0.91436003370E+02 0.  0.
         23    2    4    4    0    0 -0.29930628486E+02 -0.45079776859E+03 -0.51906382781E+03  0.69421113231E+03  0.91582575825E+02 0.  0.
          4    1    3    3  502    0  0.17149844522E+03  0.40064895084E+03  0.26407004201E+03  0.50957264998E+03  0.00000000000E+00 0. -1.
         -1    1    3    3    0  502  0.83246542355E+02  0.13886560548E+03  0.15054032756E+03  0.22107924693E+03  0.00000000000E+00 0.  1.
         11    1    5    5    0    0 -0.19131272272E+03 -0.83999929296E+02  0.20384570825E+03  0.29190686660E+03  0.00000000000E+00 0.  1.
        -11    1    5    5    0    0 -0.33501636364E+02 -0.47168584330E+01  0.10752473364E+03  0.11272167821E+03  0.00000000000E+00 0. -1.
          1    1    6    6  503    0  0.32050606650E+02 -0.11005038324E+03 -0.13173444049E+03  0.17462041991E+03  0.00000000000E+00 0. -1.
         -1    1    6    6    0  503 -0.61981235136E+02 -0.34074738535E+03 -0.38732938732E+03  0.51959071240E+03  0.00000000000E+00 0.  1.
<mgrwt>
<rscale>  0 0.18177527E+04</rscale>
<asrwt>0</asrwt>
<pdfrwt beam="1">  1        2 0.12481343E+00 0.18177527E+04</pdfrwt>
<pdfrwt beam="2">  1       -1 0.15664681E+00 0.18177527E+04</pdfrwt>
<totfact> 0.11276285E+01</totfact>
</mgrwt>
</event>
<event>
12    6  0.1529770E-007  0.1066565E+04  0.7818608E-02  0.9238406E-01
          2   -1    0    0  501    0  0.00000000000E+00  0.00000000000E+00  0.37231305015E+04  0.37231305015E+04  0.00000000000E+00 0. -1.
         -1   -1    0    0    0  501 -0.00000000000E+00 -0.00000000000E+00 -0.76384768242E+02  0.76384768242E+02  0.00000000000E+00 0.  1.
         24    2    1    2    0    0  0.12070367101E+02 -0.79652697233E+02  0.42600792561E+03  0.44082617401E+03  0.79716479281E+02 0.  0.
        254    2    1    2    0    0 -0.12070367101E+02  0.79652697233E+02  0.32207378077E+04  0.33586890957E+04  0.94928929745E+03 0.  0.
         23    2    4    4    0    0  0.40631147347E+03  0.62867306109E+02  0.23562258341E+04  0.23935735324E+04  0.91393445179E+02 0.  0.
         23    2    4    4    0    0 -0.41838184057E+03  0.16785391124E+02  0.86451197352E+03  0.96511556336E+03  0.93498579673E+02 0.  0.
          4    1    3    3  502    0  0.21817922441E+01 -0.65973168193E+02  0.41599672576E+03  0.42120125236E+03  0.00000000000E+00 0. -1.
         -1    1    3    3    0  502  0.98885748571E+01 -0.13679529040E+02  0.10011199843E+02  0.19624921650E+02  0.00000000000E+00 0.  1.
         11    1    5    5    0    0  0.21198053227E+03  0.70943799284E+02  0.14043895678E+04  0.14220685028E+04  0.00000000000E+00 0.  1.
        -11    1    5    5    0    0  0.19433094121E+03 -0.80764931748E+01  0.95183626637E+03  0.97150502955E+03  0.00000000000E+00 0. -1.
          4    1    6    6  503    0 -0.10947061172E+03 -0.19217203585E+02  0.31031035604E+03  0.32961436985E+03  0.00000000000E+00 0. -1.
         -4    1    6    6    0  503 -0.30891122885E+03  0.36002594709E+02  0.55420161748E+03  0.63550119351E+03  0.00000000000E+00 0.  1.
<mgrwt>
<rscale>  0 0.10665654E+04</rscale>
<asrwt>0</asrwt>
<pdfrwt beam="1">  1        2 0.57278917E+00 0.10665654E+04</pdfrwt>
<pdfrwt beam="2">  1       -1 0.11751506E-01 0.10665654E+04</pdfrwt>
<totfact> 0.32325782E+01</totfact>
</mgrwt>
</event>
<event>
12    6  0.1529770E-007  0.1805512E+04  0.7818608E-02  0.8703374E-01
          2   -1    0    0  501    0  0.00000000000E+00  0.00000000000E+00  0.26959157227E+04  0.26959157227E+04  0.00000000000E+00 0. -1.
         -1   -1    0    0    0  501 -0.00000000000E+00 -0.00000000000E+00 -0.30229752921E+03  0.30229752921E+03  0.00000000000E+00 0.  1.
         24    2    1    2    0    0 -0.25894977233E+03 -0.56431081025E+03  0.13444899441E+04  0.14828137490E+04  0.74710970180E+02 0.  0.
        254    2    1    2    0    0  0.25894977233E+03  0.56431081025E+03  0.10491282493E+04  0.15153995029E+04  0.90014659625E+03 0.  0.
         23    2    4    4    0    0 -0.24957741692E+03  0.32873594278E+02  0.54549785925E+02  0.27497649805E+03  0.96264402044E+02 0.  0.
         23    2    4    4    0    0  0.50852718924E+03  0.53143721597E+03  0.99457846338E+03  0.12404230048E+04  0.91855834862E+02 0.  0.
          4    1    3    3  502    0 -0.25622400846E+03 -0.51657606785E+03  0.12613754285E+04  0.13869280976E+04  0.00000000000E+00 0. -1.
         -3    1    3    3    0  502 -0.27257638685E+01 -0.47734742400E+02  0.83114515671E+02  0.95885651356E+02  0.00000000000E+00 0.  1.
         11    1    5    5    0    0 -0.24967505396E+03  0.40135998152E+02  0.36475567130E+02  0.25549754972E+03  0.00000000000E+00 0. -1.
        -11    1    5    5    0    0  0.97637040134E-01 -0.72624038747E+01  0.18074218794E+02  0.19478948330E+02  0.00000000000E+00 0.  1.
          2    1    6    6  503    0  0.30530703303E+03  0.37982082984E+03  0.67325928020E+03  0.83111630087E+03  0.00000000000E+00 0. -1.
         -2    1    6    6    0  503  0.20322015621E+03  0.15161638613E+03  0.32131918318E+03  0.40930670397E+03  0.00000000000E+00 0.  1.
<mgrwt>
<rscale>  0 0.18055123E+04</rscale>
<asrwt>0</asrwt>
<pdfrwt beam="1">  1        2 0.41475625E+00 0.18055123E+04</pdfrwt>
<pdfrwt beam="2">  1       -1 0.46507314E-01 0.18055123E+04</pdfrwt>
<totfact> 0.13235608E+01</totfact>
</mgrwt>
</event>
<event>
12    6  0.1529770E-007  0.2582533E+04  0.7818608E-02  0.8374159E-01
          2   -1    0    0  501    0  0.00000000000E+00  0.00000000000E+00  0.11095572170E+04  0.11095572170E+04  0.00000000000E+00 0. -1.
         -1   -1    0    0    0  501 -0.00000000000E+00 -0.00000000000E+00 -0.15027337875E+04  0.15027337875E+04  0.00000000000E+00 0.  1.
         24    2    1    2    0    0  0.10938614651E+04 -0.17107277085E+02  0.12802128226E+03  0.11046711277E+04  0.84162271817E+02 0.  0.
        254    2    1    2    0    0 -0.10938614651E+04  0.17107277085E+02 -0.52119785275E+03  0.15076198768E+04  0.89690853917E+03 0.  0.
         23    2    4    4    0    0  0.72603261047E+02 -0.14932072469E+03 -0.21462524887E+03  0.28667359015E+03  0.92465331343E+02 0.  0.
         23    2    4    4    0    0 -0.11664647261E+04  0.16642800178E+03 -0.30657260387E+03  0.12209462867E+04  0.91568752676E+02 0.  0.
          2    1    3    3  502    0  0.79015516054E+03 -0.53985010015E+01  0.54969820949E+02  0.79208333069E+03  0.00000000000E+00 0. -1.
         -1    1    3    3    0  502  0.30370630453E+03 -0.11708776084E+02  0.73051461310E+02  0.31258779703E+03  0.00000000000E+00 0.  1.
         11    1    5    5    0    0  0.13459503845E+02 -0.93609470711E+02 -0.59997237791E+02  0.11199803477E+03  0.00000000000E+00 0.  1.
        -11    1    5    5    0    0  0.59143757203E+02 -0.55711253981E+02 -0.15462801108E+03  0.17467555538E+03  0.00000000000E+00 0. -1.
          4    1    6    6  503    0 -0.88398543984E+03  0.13178086320E+03 -0.19194631017E+03  0.91413338181E+03  0.00000000000E+00 0. -1.
         -4    1    6    6    0  503 -0.28247928628E+03  0.34647138576E+02 -0.11462629370E+03  0.30681290487E+03  0.00000000000E+00 0.  1.
<mgrwt>
<rscale>  0 0.25825330E+04</rscale>
<asrwt>0</asrwt>
<pdfrwt beam="1">  1        2 0.17070111E+00 0.25825330E+04</pdfrwt>
<pdfrwt beam="2">  1       -1 0.23118981E+00 0.25825330E+04</pdfrwt>
<totfact> 0.20113805E+00</totfact>
</mgrwt>
</event>
<event>
12    6  0.1529770E-007  0.1419360E+04  0.7818608E-02  0.8939923E-01
          2   -1    0    0  501    0  0.00000000000E+00  0.00000000000E+00  0.72601426114E+03  0.72601426114E+03  0.00000000000E+00 0. -1.
         -1   -1    0    0    0  501 -0.00000000000E+00 -0.00000000000E+00 -0.69371299241E+03  0.69371299241E+03  0.00000000000E+00 0.  1.
         24    2    1    2    0    0 -0.16148245475E+03  0.47940748928E+02 -0.38108697901E+03  0.42271134138E+03  0.71293014793E+02 0.  0.
        254    2    1    2    0    0  0.16148245475E+03 -0.47940748928E+02  0.41338824774E+03  0.99701591217E+03  0.89150209599E+03 0.  0.
         23    2    4    4    0    0  0.32452948179E+03  0.33900935517E+03  0.21999761484E+03  0.52661701436E+03  0.93165454105E+02 0.  0.
         23    2    4    4    0    0 -0.16304702704E+03 -0.38695010410E+03  0.19339063290E+03  0.47039889781E+03  0.86950963635E+02 0.  0.
          4    1    3    3  502    0 -0.58474798271E+02  0.52678422913E+02 -0.14239365723E+03  0.16269687118E+03  0.00000000000E+00 0. -1.
         -3    1    3    3    0  502 -0.10300765648E+03 -0.47376739849E+01 -0.23869332178E+03  0.26001447020E+03  0.00000000000E+00 0.  1.
         11    1    5    5    0    0  0.15570535983E+03  0.97998039125E+02  0.76773107139E+02  0.19935366746E+03  0.00000000000E+00 0.  1.
        -11    1    5    5    0    0  0.16882412196E+03  0.24101131605E+03  0.14322450770E+03  0.32726334690E+03  0.00000000000E+00 0. -1.
          4    1    6    6  503    0 -0.60035723420E+02 -0.79557516154E+02  0.76993047033E+02  0.12594290673E+03  0.00000000000E+00 0.  1.
         -4    1    6    6    0  503 -0.10301130362E+03 -0.30739258795E+03  0.11639758587E+03  0.34445599108E+03  0.00000000000E+00 0. -1.
<mgrwt>
<rscale>  0 0.14193598E+04</rscale>
<asrwt>0</asrwt>
<pdfrwt beam="1">  1        2 0.11169450E+00 0.14193598E+04</pdfrwt>
<pdfrwt beam="2">  1       -1 0.10672508E+00 0.14193598E+04</pdfrwt>
<totfact> 0.35591534E+01</totfact>
</mgrwt>
</event>
<event>
12    6  0.1529770E-007  0.2172804E+04  0.7818608E-02  0.8529834E-01
         -1   -1    0    0    0  501 -0.00000000000E+00  0.00000000000E+00  0.20819570065E+04  0.20819570065E+04  0.00000000000E+00 0.  1.
          2   -1    0    0  501    0  0.00000000000E+00 -0.00000000000E+00 -0.56690385671E+03  0.56690385671E+03  0.00000000000E+00 0. -1.
         24    2    1    2    0    0 -0.89259553844E+03  0.45657396964E+02  0.59653389745E+03  0.10777225927E+04  0.82594811804E+02 0.  0.
        254    2    1    2    0    0  0.89259553844E+03 -0.45657396964E+02  0.91851925233E+03  0.15711382705E+04  0.90883796953E+03 0.  0.
         23    2    4    4    0    0  0.48221042904E+03  0.41051409258E+03  0.57968181237E+03  0.86396624402E+03  0.96736493298E+02 0.  0.
         23    2    4    4    0    0  0.41038510940E+03 -0.45617148954E+03  0.33883743997E+03  0.70717202644E+03  0.93664819299E+02 0.  0.
          4    1    3    3  502    0 -0.72019783380E+03  0.12873745457E+02  0.45207192071E+03  0.85042323264E+03  0.00000000000E+00 0. -1.
         -3    1    3    3    0  502 -0.17239770464E+03  0.32783651507E+02  0.14446197674E+03  0.22729936009E+03  0.00000000000E+00 0.  1.
         11    1    5    5    0    0  0.36027749879E+03  0.34632340322E+03  0.41782206702E+03  0.65139470020E+03  0.00000000000E+00 0. -1.
        -11    1    5    5    0    0  0.12193293025E+03  0.64190689352E+02  0.16185974535E+03  0.21257154382E+03  0.00000000000E+00 0.  1.
          1    1    6    6  503    0  0.26325610273E+03 -0.25668962033E+03  0.24646214154E+03  0.44264762963E+03  0.00000000000E+00 0. -1.
         -1    1    6    6    0  503  0.14712900668E+03 -0.19948186921E+03  0.92375298428E+02  0.26452439681E+03  0.00000000000E+00 0.  1.
<mgrwt>
<rscale>  0 0.21728041E+04</rscale>
<asrwt>0</asrwt>
<pdfrwt beam="1">  1        2 0.87215979E-01 0.21728041E+04</pdfrwt>
<pdfrwt beam="2">  1       -1 0.32030107E+00 0.21728041E+04</pdfrwt>
<totfact> 0.13541352E+00</totfact>
</mgrwt>
</event>
<event>
12    6  0.1529770E-007  0.2455438E+04  0.7818608E-02  0.8419035E-01
         -1   -1    0    0    0  501 -0.00000000000E+00  0.00000000000E+00  0.10023444140E+04  0.10023444140E+04  0.00000000000E+00 0.  1.
          2   -1    0    0  501    0  0.00000000000E+00 -0.00000000000E+00 -0.15037686299E+04  0.15037686299E+04  0.00000000000E+00 0. -1.
         24    2    1    2    0    0 -0.95739031615E+03  0.42264074913E+03 -0.43446859885E+03  0.11358894138E+04  0.79122541871E+02 0.  0.
        254    2    1    2    0    0  0.95739031615E+03 -0.42264074913E+03 -0.66955617121E+02  0.13702236301E+04  0.88193442023E+03 0.  0.
         23    2    4    4    0    0  0.66751020979E+03 -0.52114727985E+03  0.28202149034E+03  0.89722627743E+03  0.91183904456E+02 0.  0.
         23    2    4    4    0    0  0.28988010637E+03  0.98506530725E+02 -0.34897710747E+03  0.47299735269E+03  0.90595040972E+02 0.  0.
          4    1    3    3  502    0 -0.42715442079E+03  0.19924182518E+03 -0.23703179535E+03  0.52758153503E+03  0.00000000000E+00 0. -1.
         -3    1    3    3    0  502 -0.53023589537E+03  0.22339892395E+03 -0.19743680351E+03  0.60830787874E+03  0.00000000000E+00 0.  1.
         11    1    5    5    0    0  0.47248502374E+01 -0.94341129735E+01  0.15007965734E+02  0.18345727918E+02  0.00000000000E+00 0.  1.
        -11    1    5    5    0    0  0.66278535955E+03 -0.51171316688E+03  0.26701352461E+03  0.87888054951E+03  0.00000000000E+00 0. -1.
          1    1    6    6  503    0  0.28467320149E+03  0.97179317323E+02 -0.35474836637E+03  0.46511187343E+03  0.00000000000E+00 0. -1.
         -1    1    6    6    0  503  0.52069048743E+01  0.13272134013E+01  0.57712589021E+01  0.78854792561E+01  0.00000000000E+00 0.  1.
<mgrwt>
<rscale>  0 0.24554381E+04</rscale>
<asrwt>0</asrwt>
<pdfrwt beam="1">  1        2 0.23134902E+00 0.24554381E+04</pdfrwt>
<pdfrwt beam="2">  1       -1 0.15420683E+00 0.24554381E+04</pdfrwt>
<totfact> 0.41684287E+00</totfact>
</mgrwt>
</event>
<event>
12    6  0.1529770E-007  0.9758051E+03  0.7818608E-02  0.9335487E-01
         -1   -1    0    0    0  501 -0.00000000000E+00  0.00000000000E+00  0.20651086026E+03  0.20651086026E+03  0.00000000000E+00 0.  1.
          2   -1    0    0  501    0  0.00000000000E+00 -0.00000000000E+00 -0.11527186484E+04  0.11527186484E+04  0.00000000000E+00 0. -1.
         24    2    1    2    0    0 -0.25350707523E+02 -0.89279959586E+02 -0.82539456479E+02  0.14756759732E+03  0.79686036083E+02 0.  0.
        254    2    1    2    0    0  0.25350707523E+02  0.89279959586E+02 -0.86366833167E+03  0.12116619114E+04  0.84474139874E+03 0.  0.
         23    2    4    4    0    0  0.41648981262E+03  0.13296355460E+03 -0.45849847565E+03  0.63956478154E+03  0.87630969082E+02 0.  0.
         23    2    4    4    0    0 -0.39113910510E+03 -0.43683595013E+02 -0.40516985602E+03  0.57209712982E+03  0.90743912772E+02 0.  0.
          2    1    3    3  502    0  0.11777286790E+02 -0.55039848961E+02 -0.78915400683E+02  0.96931573405E+02  0.00000000000E+00 0. -1.
         -1    1    3    3    0  502 -0.37127994312E+02 -0.34240110625E+02 -0.36240557959E+01  0.50636023913E+02  0.00000000000E+00 0.  1.
         11    1    5    5    0    0  0.35377384336E+01  0.45836924875E+01  0.34880697164E+01  0.67596198408E+01  0.00000000000E+00 0. -1.
        -11    1    5    5    0    0  0.41295207419E+03  0.12837986211E+03 -0.46198654537E+03  0.63280516170E+03  0.00000000000E+00 0.  1.
          4    1    6    6  503    0 -0.29032582585E+02 -0.26212168949E+02 -0.59351604464E+02  0.71081513806E+02  0.00000000000E+00 0. -1.
         -4    1    6    6    0  503 -0.36210652252E+03 -0.17471426065E+02 -0.34581825156E+03  0.50101561601E+03  0.00000000000E+00 0.  1.
<mgrwt>
<rscale>  0 0.97580514E+03</rscale>
<asrwt>0</asrwt>
<pdfrwt beam="1">  1        2 0.17734133E+00 0.97580514E+03</pdfrwt>
<pdfrwt beam="2">  1       -1 0.31770902E-01 0.97580514E+03</pdfrwt>
<totfact> 0.21217171E+02</totfact>
</mgrwt>
</event>
<event>
12    6  0.1529770E-007  0.1664424E+04  0.7818608E-02  0.8781919E-01
         -1   -1    0    0    0  501 -0.00000000000E+00  0.00000000000E+00  0.22724077230E+03  0.22724077230E+03  0.00000000000E+00 0.  1.
          2   -1    0    0  501    0  0.00000000000E+00 -0.00000000000E+00 -0.30477681278E+04  0.30477681278E+04  0.00000000000E+00 0. -1.
         24    2    1    2    0    0  0.26899056068E+03  0.52402545888E+03 -0.11455529806E+04  0.12909918437E+04  0.86079647789E+02 0.  0.
        254    2    1    2    0    0 -0.26899056068E+03 -0.52402545888E+03 -0.16749743749E+04  0.19840170564E+04  0.88533943792E+03 0.  0.
         23    2    4    4    0    0 -0.84269704266E+01 -0.61481863022E+03 -0.15400176292E+04  0.16607025494E+04  0.90585305249E+02 0.  0.
         23    2    4    4    0    0 -0.26056359025E+03  0.90793171335E+02 -0.13495674569E+03  0.32331450700E+03  0.10090670295E+03 0.  0.
          2    1    3    3  502    0  0.26070434553E+03  0.49689255134E+03 -0.10403521154E+04  0.11820327776E+04  0.00000000000E+00 0. -1.
         -1    1    3    3    0  502  0.82862151551E+01  0.27132907540E+02 -0.10520086529E+03  0.10895906613E+03  0.00000000000E+00 0.  1.
         11    1    5    5    0    0 -0.45757153539E+02 -0.44054045326E+03 -0.11237007194E+04  0.12078381161E+04  0.00000000000E+00 0. -1.
        -11    1    5    5    0    0  0.37330183113E+02 -0.17427817696E+03 -0.41631690979E+03  0.45286443326E+03  0.00000000000E+00 0.  1.
          1    1    6    6  503    0 -0.17650156387E+03  0.10882678157E+03 -0.10364682048E+03  0.23181616387E+03  0.00000000000E+00 0. -1.
         -1    1    6    6    0  503 -0.84062026388E+02 -0.18033610240E+02 -0.31309925212E+02  0.91498343130E+02  0.00000000000E+00 0.  1.
<mgrwt>
<rscale>  0 0.16644244E+04</rscale>
<asrwt>0</asrwt>
<pdfrwt beam="1">  1        2 0.46888739E+00 0.16644244E+04</pdfrwt>
<pdfrwt beam="2">  1       -1 0.34960120E-01 0.16644244E+04</pdfrwt>
<totfact> 0.13801966E+01</totfact>
</mgrwt>
</event>
<event>
12    6  0.1529770E-007  0.1556996E+04  0.7818608E-02  0.8847412E-01
          2   -1    0    0  501    0  0.00000000000E+00  0.00000000000E+00  0.21018006461E+04  0.21018006461E+04  0.00000000000E+00 0. -1.
         -1   -1    0    0    0  501 -0.00000000000E+00 -0.00000000000E+00 -0.28835224041E+03  0.28835224041E+03  0.00000000000E+00 0.  1.
         24    2    1    2    0    0 -0.40521533930E+03  0.16588293311E+03  0.10689862723E+04  0.11581366075E+04  0.82656715894E+02 0.  0.
        254    2    1    2    0    0  0.40521533930E+03 -0.16588293311E+03  0.74446213339E+03  0.12320162790E+04  0.87859184203E+03 0.  0.
         23    2    4    4    0    0 -0.18678732166E+03 -0.11413601932E+03  0.55302746560E+03  0.60170384478E+03  0.91058248815E+02 0.  0.
         23    2    4    4    0    0  0.59200266095E+03 -0.51746913793E+02  0.19143466779E+03  0.63031243419E+03  0.86612002614E+02 0.  0.
          4    1    3    3  502    0 -0.21632808995E+03  0.13275406506E+03  0.61126580124E+03  0.66186657573E+03  0.00000000000E+00 0. -1.
         -3    1    3    3    0  502 -0.18888724934E+03  0.33128868053E+02  0.45772047103E+03  0.49627003180E+03  0.00000000000E+00 0.  1.
         11    1    5    5    0    0 -0.18765234590E+03 -0.11811044610E+03  0.55464786575E+03  0.59732548529E+03  0.00000000000E+00 0.  1.
        -11    1    5    5    0    0  0.86502424913E+00  0.39744267793E+01 -0.16204001464E+01  0.43783594885E+01  0.00000000000E+00 0. -1.
          3    1    6    6  503    0  0.15525199166E+03  0.87771345633E+01  0.82938383977E+02  0.17623562222E+03  0.00000000000E+00 0. -1.
         -3    1    6    6    0  503  0.43675066930E+03 -0.60524048357E+02  0.10849628381E+03  0.45407681196E+03  0.00000000000E+00 0.  1.
<mgrwt>
<rscale>  0 0.15569957E+04</rscale>
<asrwt>0</asrwt>
<pdfrwt beam="1">  1        2 0.32335394E+00 0.15569957E+04</pdfrwt>
<pdfrwt beam="2">  1       -1 0.44361885E-01 0.15569957E+04</pdfrwt>
<totfact> 0.32328628E+01</totfact>
</mgrwt>
</event>
<event>
12    6  0.1529770E-007  0.4387222E+04  0.7818608E-02  0.7930684E-01
         -1   -1    0    0    0  501 -0.00000000000E+00  0.00000000000E+00  0.78803727734E+03  0.78803727734E+03  0.00000000000E+00 0.  1.
          2   -1    0    0  501    0  0.00000000000E+00 -0.00000000000E+00 -0.61062203351E+04  0.61062203351E+04  0.00000000000E+00 0. -1.
         24    2    1    2    0    0 -0.19069090136E+03  0.11271739337E+04 -0.53174582829E+04  0.54395347871E+04  0.79322213123E+02 0.  0.
        254    2    1    2    0    0  0.19069090136E+03 -0.11271739337E+04 -0.72477485668E+00  0.14547228253E+04  0.89962985521E+03 0.  0.
         23    2    4    4    0    0  0.10457489324E+03 -0.11304283534E+04  0.25768596766E+03  0.11675538926E+04  0.89307691720E+02 0.  0.
         23    2    4    4    0    0  0.86116008120E+02  0.32544196378E+01 -0.25841074252E+03  0.28716893269E+03  0.90902837979E+02 0.  0.
          4    1    3    3  502    0 -0.97327535251E+02  0.40744853962E+03 -0.20710151096E+04  0.21129577719E+04  0.00000000000E+00 0. -1.
         -3    1    3    3    0  502 -0.93363366105E+02  0.71972539410E+03 -0.32464431732E+04  0.33265770152E+04  0.00000000000E+00 0.  1.
         11    1    5    5    0    0  0.18481099545E+02 -0.42593772509E+03  0.13571133266E+03  0.44741710127E+03  0.00000000000E+00 0.  1.
        -11    1    5    5    0    0  0.86093793691E+02 -0.70449062827E+03  0.12197463500E+03  0.72013679132E+03  0.00000000000E+00 0. -1.
          1    1    6    6  503    0  0.32876923270E+02 -0.69045299222E+01 -0.21532627780E+03  0.21793111419E+03  0.00000000000E+00 0. -1.
         -1    1    6    6    0  503  0.53239084849E+02  0.10158949560E+02 -0.43084464715E+02  0.69237818506E+02  0.00000000000E+00 0.  1.
<mgrwt>
<rscale>  0 0.43872220E+04</rscale>
<asrwt>0</asrwt>
<pdfrwt beam="1">  1        2 0.93941856E+00 0.43872220E+04</pdfrwt>
<pdfrwt beam="2">  1       -1 0.12123650E+00 0.43872220E+04</pdfrwt>
<totfact> 0.62155986E-05</totfact>
</mgrwt>
</event>
<event>
12    6  0.1529770E-007  0.2718192E+04  0.7818608E-02  0.8329126E-01
         -1   -1    0    0    0  501 -0.00000000000E+00  0.00000000000E+00  0.59570110180E+03  0.59570110180E+03  0.00000000000E+00 0.  1.
          2   -1    0    0  501    0  0.00000000000E+00 -0.00000000000E+00 -0.31007870571E+04  0.31007870571E+04  0.00000000000E+00 0. -1.
         24    2    1    2    0    0  0.54610486230E+03  0.10377400197E+04 -0.15682616850E+04  0.19598882546E+04  0.81131923399E+02 0.  0.
        254    2    1    2    0    0 -0.54610486230E+03 -0.10377400197E+04 -0.93682427033E+03  0.17365999043E+04  0.87350137093E+03 0.  0.
         23    2    4    4    0    0 -0.15828098570E+03  0.12797386063E+03 -0.20430605227E+03  0.30328462943E+03  0.93863858960E+02 0.  0.
         23    2    4    4    0    0 -0.38782387660E+03 -0.11657138803E+04 -0.73251821806E+03  0.14333152749E+04  0.92268777690E+02 0.  0.
          4    1    3    3  502    0  0.49460917201E+03  0.98212197524E+03 -0.14636212382E+04  0.18306799109E+04  0.00000000000E+00 0. -1.
         -1    1    3    3    0  502  0.51495690291E+02  0.55618044434E+02 -0.10464044679E+03  0.12920834373E+03  0.00000000000E+00 0.  1.
         11    1    5    5    0    0 -0.14149884229E+02  0.59960921491E+02 -0.35379247209E+02  0.71043806646E+02  0.00000000000E+00 0.  1.
        -11    1    5    5    0    0 -0.14413110147E+03  0.68012939139E+02 -0.16892680506E+03  0.23224082279E+03  0.00000000000E+00 0. -1.
          3    1    6    6  503    0 -0.35253574453E+03 -0.11156522896E+04 -0.68502211720E+03  0.13558085350E+04  0.00000000000E+00 0. -1.
         -3    1    6    6    0  503 -0.35288132070E+02 -0.50061590697E+02 -0.47496100867E+02  0.77506739872E+02  0.00000000000E+00 0.  1.
<mgrwt>
<rscale>  0 0.27181922E+04</rscale>
<asrwt>0</asrwt>
<pdfrwt beam="1">  1        2 0.47704416E+00 0.27181922E+04</pdfrwt>
<pdfrwt beam="2">  1       -1 0.91646323E-01 0.27181922E+04</pdfrwt>
<totfact> 0.17362849E+00</totfact>
</mgrwt>
</event>
<event>
12    6  0.1529770E-007  0.1543163E+04  0.7818608E-02  0.8856247E-01
          2   -1    0    0  501    0  0.00000000000E+00  0.00000000000E+00  0.25010205854E+04  0.25010205854E+04  0.00000000000E+00 0. -1.
         -3   -1    0    0    0  501 -0.00000000000E+00 -0.00000000000E+00 -0.23803795577E+03  0.23803795577E+03  0.00000000000E+00 0.  1.
         24    2    1    2    0    0 -0.76896571942E+02 -0.22114649825E+03 -0.41926079168E+02  0.25111541135E+03  0.80512714753E+02 0.  0.
        254    2    1    2    0    0  0.76896571942E+02  0.22114649825E+03  0.23049087088E+04  0.24879431298E+04  0.90688367769E+03 0.  0.
         23    2    4    4    0    0 -0.13260657574E+03  0.30031494564E+03  0.25992555964E+03  0.42880430938E+03  0.92402752581E+02 0.  0.
         23    2    4    4    0    0  0.20950314768E+03 -0.79168447394E+02  0.20449831491E+04  0.20591388204E+04  0.89092028631E+02 0.  0.
          2    1    3    3  502    0  0.72677884281E+01 -0.57242923736E+01 -0.15873683752E+02  0.18372863350E+02  0.00000000000E+00 0. -1.
         -1    1    3    3    0  502 -0.84164360370E+02 -0.21542220588E+03 -0.26052395416E+02  0.23274254800E+03  0.00000000000E+00 0.  1.
         11    1    5    5    0    0 -0.10002081859E+03  0.26960843144E+03  0.18631404152E+03  0.34264528674E+03  0.00000000000E+00 0. -1.
        -11    1    5    5    0    0 -0.32585757143E+02  0.30706514203E+02  0.73611518120E+02  0.86159022644E+02  0.00000000000E+00 0.  1.
          2    1    6    6  503    0  0.14719238379E+03 -0.26907897419E+02  0.15826315397E+04  0.15896893480E+04  0.00000000000E+00 0. -1.
         -2    1    6    6    0  503  0.62310763889E+02 -0.52260549975E+02  0.46235160948E+03  0.46944947244E+03  0.00000000000E+00 0.  1.
<mgrwt>
<rscale>  0 0.15431628E+04</rscale>
<asrwt>0</asrwt>
<pdfrwt beam="1">  1        2 0.38477238E+00 0.15431628E+04</pdfrwt>
<pdfrwt beam="2">  1       -3 0.36621226E-01 0.15431628E+04</pdfrwt>
<totfact> 0.16042148E+01</totfact>
</mgrwt>
</event>
<event>
12    6  0.1529770E-007  0.2562473E+04  0.7818608E-02  0.8381061E-01
         -1   -1    0    0    0  501 -0.00000000000E+00  0.00000000000E+00  0.86103315910E+03  0.86103315910E+03  0.00000000000E+00 0.  1.
          2   -1    0    0  501    0  0.00000000000E+00 -0.00000000000E+00 -0.19065086353E+04  0.19065086353E+04  0.00000000000E+00 0. -1.
         24    2    1    2    0    0  0.46330729976E+03 -0.53837305148E+03  0.47797443329E+03  0.85993741484E+03  0.80830699621E+02 0.  0.
        254    2    1    2    0    0 -0.46330729976E+03  0.53837305148E+03 -0.15234499095E+04  0.19076043796E+04  0.90197319564E+03 0.  0.
         23    2    4    4    0    0  0.23311918452E+03  0.23765872177E+03 -0.26352054815E+03  0.43414956426E+03  0.90645146708E+02 0.  0.
         23    2    4    4    0    0 -0.69642648428E+03  0.30071432971E+03 -0.12599293614E+04  0.14734548153E+04  0.90598791845E+02 0.  0.
          4    1    3    3  502    0  0.61639893955E+02 -0.47849398344E+02  0.29800993117E+02  0.83529280133E+02  0.00000000000E+00 0. -1.
         -3    1    3    3    0  502  0.40166740580E+03 -0.49052365314E+03  0.44817344017E+03  0.77640813471E+03  0.00000000000E+00 0.  1.
         11    1    5    5    0    0  0.10254522768E+03  0.15462866297E+03 -0.10761887088E+03  0.21449328312E+03  0.00000000000E+00 0. -1.
        -11    1    5    5    0    0  0.13057395684E+03  0.83030058799E+02 -0.15590167727E+03  0.21965628114E+03  0.00000000000E+00 0.  1.
          1    1    6    6  503    0 -0.66586455615E+03  0.30600622715E+03 -0.12140903491E+04  0.14181081743E+04  0.00000000000E+00 0. -1.
         -1    1    6    6    0  503 -0.30561928133E+02 -0.52918974373E+01 -0.45839012260E+02  0.55346641043E+02  0.00000000000E+00 0.  1.
<mgrwt>
<rscale>  0 0.25624731E+04</rscale>
<asrwt>0</asrwt>
<pdfrwt beam="1">  1        2 0.29330902E+00 0.25624731E+04</pdfrwt>
<pdfrwt beam="2">  1       -1 0.13246664E+00 0.25624731E+04</pdfrwt>
<totfact> 0.36765420E+00</totfact>
</mgrwt>
</event>
<event>
12    6  0.1529770E-007  0.1586266E+04  0.7818608E-02  0.8829030E-01
          2   -1    0    0  501    0  0.00000000000E+00  0.00000000000E+00  0.11190575598E+04  0.11190575598E+04  0.00000000000E+00 0. -1.
         -1   -1    0    0    0  501 -0.00000000000E+00 -0.00000000000E+00 -0.56213398520E+03  0.56213398520E+03  0.00000000000E+00 0.  1.
         24    2    1    2    0    0  0.44446778379E+03 -0.28308016625E+03  0.11944586050E+03  0.54545055366E+03  0.74585531731E+02 0.  0.
        254    2    1    2    0    0 -0.44446778379E+03  0.28308016625E+03  0.43747771407E+03  0.11357409913E+04  0.90599936958E+03 0.  0.
         23    2    4    4    0    0  0.25611234237E+03  0.19435635261E+03  0.17581176537E+03  0.37735643312E+03  0.90112025061E+02 0.  0.
         23    2    4    4    0    0 -0.70058012616E+03  0.88723813639E+02  0.26166594870E+03  0.75838455819E+03  0.89407164825E+02 0.  0.
          4    1    3    3  502    0  0.16353806181E+02 -0.31905019111E+02  0.84213484330E+01  0.36827928675E+02  0.00000000000E+00 0. -1.
         -3    1    3    3    0  502  0.42811397761E+03 -0.25117514714E+03  0.11102451206E+03  0.50862262498E+03  0.00000000000E+00 0.  1.
         11    1    5    5    0    0  0.14175835944E+03  0.15453046263E+03  0.13577001081E+03  0.24981711749E+03  0.00000000000E+00 0. -1.
        -11    1    5    5    0    0  0.11435398293E+03  0.39825889974E+02  0.40041754556E+02  0.12753931563E+03  0.00000000000E+00 0.  1.
          1    1    6    6  503    0 -0.50857773655E+03  0.28991305008E+02  0.16651058406E+03  0.53592684621E+03  0.00000000000E+00 0. -1.
         -1    1    6    6    0  503 -0.19200238961E+03  0.59732508631E+02  0.95155364641E+02  0.22245771199E+03  0.00000000000E+00 0.  1.
<mgrwt>
<rscale>  0 0.15862664E+04</rscale>
<asrwt>0</asrwt>
<pdfrwt beam="1">  1        2 0.17216270E+00 0.15862664E+04</pdfrwt>
<pdfrwt beam="2">  1       -1 0.86482152E-01 0.15862664E+04</pdfrwt>
<totfact> 0.30615836E+01</totfact>
</mgrwt>
</event>
<event>
12    6  0.1529770E-007  0.2268482E+04  0.7818608E-02  0.8490453E-01
         -1   -1    0    0    0  501 -0.00000000000E+00  0.00000000000E+00  0.75236653153E+03  0.75236653153E+03  0.00000000000E+00 0.  1.
          2   -1    0    0  501    0  0.00000000000E+00 -0.00000000000E+00 -0.17099408695E+04  0.17099408695E+04  0.00000000000E+00 0. -1.
         24    2    1    2    0    0  0.56861206212E+03  0.46181986247E+03 -0.10634099676E+04  0.12939287495E+04  0.82544454045E+02 0.  0.
        254    2    1    2    0    0 -0.56861206212E+03 -0.46181986247E+03  0.10583562967E+03  0.11683786515E+04  0.90405211704E+03 0.  0.
         23    2    4    4    0    0 -0.50386137167E+03 -0.34190679891E+03 -0.33403828622E+03  0.70053612901E+03  0.91611955507E+02 0.  0.
         23    2    4    4    0    0 -0.64750690455E+02 -0.11991306356E+03  0.43987391589E+03  0.46784252253E+03  0.82557672486E+02 0.  0.
          4    1    3    3  502    0  0.34380914589E+03  0.33003868709E+03 -0.68654960820E+03  0.83575153502E+03  0.00000000000E+00 0. -1.
         -3    1    3    3    0  502  0.22480291623E+03  0.13178117538E+03 -0.37686035942E+03  0.45817721445E+03  0.00000000000E+00 0.  1.
         11    1    5    5    0    0 -0.72935935061E+02 -0.48989594205E+02 -0.13796047130E+02  0.88937966471E+02  0.00000000000E+00 0.  1.
        -11    1    5    5    0    0 -0.43092543661E+03 -0.29291720470E+03 -0.32024223909E+03  0.61159816254E+03  0.00000000000E+00 0. -1.
          3    1    6    6  503    0 -0.14368543503E+02 -0.10491269416E+03  0.31620724030E+03  0.33346686081E+03  0.00000000000E+00 0. -1.
         -3    1    6    6    0  503 -0.50382146952E+02 -0.15000369397E+02  0.12366667559E+03  0.13437566173E+03  0.00000000000E+00 0.  1.
<mgrwt>
<rscale>  0 0.22684817E+04</rscale>
<asrwt>0</asrwt>
<pdfrwt beam="1">  1        2 0.26306782E+00 0.22684817E+04</pdfrwt>
<pdfrwt beam="2">  1       -1 0.11574870E+00 0.22684817E+04</pdfrwt>
<totfact> 0.67722611E+00</totfact>
</mgrwt>
</event>
<event>
12    6  0.1529770E-007  0.1195918E+04  0.7818608E-02  0.9116437E-01
          2   -1    0    0  501    0  0.00000000000E+00  0.00000000000E+00  0.48884174777E+03  0.48884174777E+03  0.00000000000E+00 0. -1.
         -1   -1    0    0    0  501 -0.00000000000E+00 -0.00000000000E+00 -0.73143332961E+03  0.73143332961E+03  0.00000000000E+00 0.  1.
         24    2    1    2    0    0  0.15727557066E+03 -0.85218912442E+02 -0.64166504237E+02  0.20559166121E+03  0.78439293280E+02 0.  0.
        254    2    1    2    0    0 -0.15727557066E+03  0.85218912442E+02 -0.17842507760E+03  0.10146834162E+04  0.98272532203E+03 0.  0.
         23    2    4    4    0    0  0.11795832817E+03  0.48362727524E+03 -0.91391225213E+02  0.51438073004E+03  0.91791453008E+02 0.  0.
         23    2    4    4    0    0 -0.27523389883E+03 -0.39840836280E+03 -0.87033852390E+02  0.50030268613E+03  0.90801782291E+02 0.  0.
          4    1    3    3  502    0  0.53442052707E+01 -0.83081600485E+01 -0.30429380636E+02  0.31992706344E+02  0.00000000000E+00 0. -1.
         -3    1    3    3    0  502  0.15193136539E+03 -0.76910752393E+02 -0.33737123601E+02  0.17359895487E+03  0.00000000000E+00 0.  1.
         11    1    5    5    0    0  0.13281543563E+03  0.42747778075E+03 -0.73679004267E+02  0.45365822890E+03  0.00000000000E+00 0.  1.
        -11    1    5    5    0    0 -0.14857107461E+02  0.56149494495E+02 -0.17712220946E+02  0.60722501143E+02  0.00000000000E+00 0. -1.
          1    1    6    6  503    0 -0.14234815837E+03 -0.23794215024E+03 -0.91290205926E+02  0.29191328635E+03  0.00000000000E+00 0. -1.
         -1    1    6    6    0  503 -0.13288574046E+03 -0.16046621256E+03  0.42563535358E+01  0.20838939978E+03  0.00000000000E+00 0.  1.
<mgrwt>
<rscale>  0 0.11959183E+04</rscale>
<asrwt>0</asrwt>
<pdfrwt beam="1">  1        2 0.75206423E-01 0.11959183E+04</pdfrwt>
<pdfrwt beam="2">  1       -1 0.11252820E+00 0.11959183E+04</pdfrwt>
<totfact> 0.51623134E+01</totfact>
</mgrwt>
</event>
<event>
12    6  0.1529770E-007  0.1827465E+04  0.7818608E-02  0.8691829E-01
         -1   -1    0    0    0  501 -0.00000000000E+00  0.00000000000E+00  0.93959708305E+03  0.93959708305E+03  0.00000000000E+00 0.  1.
          2   -1    0    0  501    0  0.00000000000E+00 -0.00000000000E+00 -0.88858000331E+03  0.88858000331E+03  0.00000000000E+00 0. -1.
         24    2    1    2    0    0 -0.29419312249E+03 -0.37128565902E+03  0.51932625116E+03  0.70744418977E+03  0.79842924449E+02 0.  0.
        254    2    1    2    0    0  0.29419312249E+03  0.37128565902E+03 -0.46830917142E+03  0.11207328966E+04  0.90129135773E+03 0.  0.
         23    2    4    4    0    0 -0.73718851531E+02  0.18440484697E+03  0.22179000195E+03  0.31148600846E+03  0.91613928207E+02 0.  0.
         23    2    4    4    0    0  0.36791197402E+03  0.18688081205E+03 -0.69009917337E+03  0.80924688813E+03  0.91433026342E+02 0.  0.
          2    1    3    3  502    0 -0.14905318628E+02 -0.25470027759E+02  0.67242517229E+02  0.73433282378E+02  0.00000000000E+00 0. -1.
         -1    1    3    3    0  502 -0.27928780387E+03 -0.34581563126E+03  0.45208373393E+03  0.63401090739E+03  0.00000000000E+00 0.  1.
         11    1    5    5    0    0 -0.38369241506E+02  0.10964968445E+03  0.62267534747E+02  0.13180477183E+03  0.00000000000E+00 0.  1.
        -11    1    5    5    0    0 -0.35349610025E+02  0.74755162518E+02  0.15952246720E+03  0.17968123663E+03  0.00000000000E+00 0. -1.
          2    1    6    6  503    0  0.44385844944E+02  0.44127056206E+02 -0.60008354734E+02  0.86708148167E+02  0.00000000000E+00 0. -1.
         -2    1    6    6    0  503  0.32352612908E+03  0.14275375585E+03 -0.63009081864E+03  0.72253873996E+03  0.00000000000E+00 0.  1.
<mgrwt>
<rscale>  0 0.18274651E+04</rscale>
<asrwt>0</asrwt>
<pdfrwt beam="1">  1        2 0.13670462E+00 0.18274651E+04</pdfrwt>
<pdfrwt beam="2">  1       -1 0.14455340E+00 0.18274651E+04</pdfrwt>
<totfact> 0.12362609E+01</totfact>
</mgrwt>
</event>
<event>
12    6  0.1529770E-007  0.2879333E+04  0.7818608E-02  0.8279053E-01
         -1   -1    0    0    0  501 -0.00000000000E+00  0.00000000000E+00  0.64614724928E+03  0.64614724928E+03  0.00000000000E+00 0.  1.
          2   -1    0    0  501    0  0.00000000000E+00 -0.00000000000E+00 -0.32076902485E+04  0.32076902485E+04  0.00000000000E+00 0. -1.
         24    2    1    2    0    0 -0.98649924616E+03  0.14356974597E+03 -0.47460299166E+02  0.10011055027E+04  0.78528420781E+02 0.  0.
        254    2    1    2    0    0  0.98649924616E+03 -0.14356974597E+03 -0.25140827001E+04  0.28527319951E+04  0.90756541278E+03 0.  0.
         23    2    4    4    0    0  0.97840087608E+03 -0.35800318868E+03 -0.16198612061E+04  0.19281822598E+04  0.92205977894E+02 0.  0.
         23    2    4    4    0    0  0.80983700799E+01  0.21443344271E+03 -0.89422149393E+03  0.92454973532E+03  0.95461237812E+02 0.  0.
          2    1    3    3  502    0 -0.14142199822E+03  0.26547908634E+02 -0.34017269487E+02  0.14785853935E+03  0.00000000000E+00 0. -1.
         -1    1    3    3    0  502 -0.84507724794E+03  0.11702183734E+03 -0.13443029679E+02  0.85324696334E+03  0.00000000000E+00 0.  1.
         11    1    5    5    0    0  0.81964992381E+03 -0.33443977937E+03 -0.13585750535E+04  0.16215431353E+04  0.00000000000E+00 0. -1.
        -11    1    5    5    0    0  0.15875095228E+03 -0.23563409311E+02 -0.26128615264E+03  0.30663912449E+03  0.00000000000E+00 0.  1.
          2    1    6    6  503    0  0.19898162792E+01  0.22002976663E+03 -0.79215438903E+03  0.82214696595E+03  0.00000000000E+00 0. -1.
         -2    1    6    6    0  503  0.61085538006E+01 -0.55963239167E+01 -0.10206710490E+03  0.10240276937E+03  0.00000000000E+00 0.  1.
<mgrwt>
<rscale>  0 0.28793334E+04</rscale>
<asrwt>0</asrwt>
<pdfrwt beam="1">  1        2 0.49349080E+00 0.28793334E+04</pdfrwt>
<pdfrwt beam="2">  1       -1 0.99407270E-01 0.28793334E+04</pdfrwt>
<totfact> 0.12160434E+00</totfact>
</mgrwt>
</event>
<event>
12    6  0.1529770E-007  0.1697119E+04  0.7818608E-02  0.8763009E-01
         -1   -1    0    0    0  501 -0.00000000000E+00  0.00000000000E+00  0.11255329895E+04  0.11255329895E+04  0.00000000000E+00 0.  1.
          2   -1    0    0  501    0  0.00000000000E+00 -0.00000000000E+00 -0.63974455846E+03  0.63974455846E+03  0.00000000000E+00 0. -1.
         24    2    1    2    0    0 -0.24515451274E+03  0.48809149516E+03 -0.10345841284E+03  0.56216853622E+03  0.83640762591E+02 0.  0.
        254    2    1    2    0    0  0.24515451274E+03 -0.48809149516E+03  0.58924684384E+03  0.12031090117E+04  0.89550288010E+03 0.  0.
         23    2    4    4    0    0  0.46837172006E+03 -0.58127484070E+03  0.28535354550E+03  0.80413430828E+03  0.89178647864E+02 0.  0.
         23    2    4    4    0    0 -0.22321720732E+03  0.93183345537E+02  0.30389329834E+03  0.39897470342E+03  0.91217430674E+02 0.  0.
          2    1    3    3  502    0 -0.47070563585E+02  0.37051061609E+02 -0.13401132441E+02  0.61384114177E+02  0.00000000000E+00 0. -1.
         -1    1    3    3    0  502 -0.19808394915E+03  0.45104043355E+03 -0.90057280399E+02  0.50078442205E+03  0.00000000000E+00 0.  1.
         11    1    5    5    0    0  0.32289585267E+03 -0.45902126897E+03  0.22658906910E+03  0.60523124777E+03  0.00000000000E+00 0. -1.
        -11    1    5    5    0    0  0.14547586739E+03 -0.12225357173E+03  0.58764476407E+02  0.19890306051E+03  0.00000000000E+00 0.  1.
          3    1    6    6  503    0 -0.45443877130E+02  0.63153863193E+02  0.81395075155E+02  0.11259979869E+03  0.00000000000E+00 0. -1.
         -3    1    6    6    0  503 -0.17777333019E+03  0.30029482344E+02  0.22249822319E+03  0.28637490473E+03  0.00000000000E+00 0.  1.
<mgrwt>
<rscale>  0 0.16971194E+04</rscale>
<asrwt>0</asrwt>
<pdfrwt beam="1">  1        2 0.98422240E-01 0.16971194E+04</pdfrwt>
<pdfrwt beam="2">  1       -1 0.17315892E+00 0.16971194E+04</pdfrwt>
<totfact> 0.11628927E+01</totfact>
</mgrwt>
</event>
<event>
12    6  0.1529770E-007  0.1311692E+04  0.7818608E-02  0.9020344E-01
         -1   -1    0    0    0  501 -0.00000000000E+00  0.00000000000E+00  0.17800900623E+03  0.17800900623E+03  0.00000000000E+00 0.  1.
          2   -1    0    0  501    0  0.00000000000E+00 -0.00000000000E+00 -0.24163617711E+04  0.24163617711E+04  0.00000000000E+00 0. -1.
         24    2    1    2    0    0  0.14245867847E+03  0.10723961992E+02 -0.12146397148E+04  0.12266004000E+04  0.93751939297E+02 0.  0.
        254    2    1    2    0    0 -0.14245867847E+03 -0.10723961992E+02 -0.10237130501E+04  0.13677703773E+04  0.89576666479E+03 0.  0.
         23    2    4    4    0    0  0.15428757774E+03 -0.36979570827E+03 -0.32749295051E+03  0.52549999630E+03  0.91351469496E+02 0.  0.
         23    2    4    4    0    0 -0.29674625621E+03  0.35907174628E+03 -0.69622009955E+03  0.84227038101E+03  0.87784441456E+02 0.  0.
          4    1    3    3  502    0  0.11669967487E+03 -0.28546414271E+02 -0.74585374345E+03  0.75546774815E+03  0.00000000000E+00 0. -1.
         -3    1    3    3    0  502  0.25759003608E+02  0.39270376263E+02 -0.46878597133E+03  0.47113265185E+03  0.00000000000E+00 0.  1.
         11    1    5    5    0    0  0.80184405359E+02 -0.29060530425E+03 -0.25705004527E+03  0.39617635908E+03  0.00000000000E+00 0.  1.
        -11    1    5    5    0    0  0.74103172376E+02 -0.79190404023E+02 -0.70442905240E+02  0.12932363722E+03  0.00000000000E+00 0. -1.
          2    1    6    6  503    0 -0.18383181116E+01  0.90886376369E+01 -0.21571139187E+00  0.92751969779E+01  0.00000000000E+00 0. -1.
         -2    1    6    6    0  503 -0.29490793810E+03  0.34998310864E+03 -0.69600438816E+03  0.83299518404E+03  0.00000000000E+00 0.  1.
<mgrwt>
<rscale>  0 0.13116923E+04</rscale>
<asrwt>0</asrwt>
<pdfrwt beam="1">  1        2 0.37174796E+00 0.13116923E+04</pdfrwt>
<pdfrwt beam="2">  1       -1 0.27386002E-01 0.13116923E+04</pdfrwt>
<totfact> 0.52130116E+01</totfact>
</mgrwt>
</event>
<event>
12    6  0.1529770E-007  0.1583977E+04  0.7818608E-02  0.8830452E-01
         -1   -1    0    0    0  501 -0.00000000000E+00  0.00000000000E+00  0.35266707858E+03  0.35266707858E+03  0.00000000000E+00 0.  1.
          2   -1    0    0  501    0  0.00000000000E+00 -0.00000000000E+00 -0.17785775949E+04  0.17785775949E+04  0.00000000000E+00 0. -1.
         24    2    1    2    0    0 -0.95125639469E+02 -0.51790304010E+03 -0.65658681266E+03  0.84546528884E+03  0.80205148535E+02 0.  0.
        254    2    1    2    0    0  0.95125639469E+02  0.51790304010E+03 -0.76932370361E+03  0.12857793846E+04  0.88549264180E+03 0.  0.
         23    2    4    4    0    0  0.32296186730E+01  0.55650599724E+03 -0.92482598810E+03  0.10831893248E+04  0.91031037100E+02 0.  0.
         23    2    4    4    0    0  0.91896020796E+02 -0.38602957145E+02  0.15550228449E+03  0.20259005978E+03  0.83226828030E+02 0.  0.
          2    1    3    3  502    0 -0.57912518116E+02 -0.35015597508E+03 -0.49882159225E+03  0.61219771931E+03  0.00000000000E+00 0. -1.
         -1    1    3    3    0  502 -0.37213121353E+02 -0.16774706501E+03 -0.15776522041E+03  0.23326756953E+03  0.00000000000E+00 0.  1.
         11    1    5    5    0    0 -0.73671230565E+01  0.13187889851E+02 -0.59430879948E+02  0.61320668883E+02  0.00000000000E+00 0. -1.
        -11    1    5    5    0    0  0.10596741730E+02  0.54331810739E+03 -0.86539510815E+03  0.10218686559E+04  0.00000000000E+00 0.  1.
          4    1    6    6  503    0  0.67397087326E+02 -0.16353511006E+02  0.15464551146E+03  0.16948462738E+03  0.00000000000E+00 0.  1.
         -4    1    6    6    0  503  0.24498933470E+02 -0.22249446139E+02  0.85677302418E+00  0.33105432404E+02  0.00000000000E+00 0. -1.
<mgrwt>
<rscale>  0 0.15839770E+04</rscale>
<asrwt>0</asrwt>
<pdfrwt beam="1">  1        2 0.27362732E+00 0.15839770E+04</pdfrwt>
<pdfrwt beam="2">  1       -1 0.54256474E-01 0.15839770E+04</pdfrwt>
<totfact> 0.33273788E+01</totfact>
</mgrwt>
</event>
<event>
12    6  0.1529770E-007  0.2235382E+04  0.7818608E-02  0.8503844E-01
          2   -1    0    0  501    0  0.00000000000E+00  0.00000000000E+00  0.16042549684E+04  0.16042549684E+04  0.00000000000E+00 0. -1.
         -1   -1    0    0    0  501 -0.00000000000E+00 -0.00000000000E+00 -0.77869959028E+03  0.77869959028E+03  0.00000000000E+00 0.  1.
         24    2    1    2    0    0  0.36604364036E+03  0.62727471524E+03  0.97132654278E+03  0.12153179223E+04  0.77851682777E+02 0.  0.
        254    2    1    2    0    0 -0.36604364036E+03 -0.62727471524E+03 -0.14577116463E+03  0.11676366364E+04  0.90258770611E+03 0.  0.
         23    2    4    4    0    0 -0.29065658935E+03  0.33424040113E+02  0.24375000506E+03  0.39140746677E+03  0.90483814477E+02 0.  0.
         23    2    4    4    0    0 -0.75387051010E+02 -0.66069875536E+03 -0.38952116969E+03  0.77622916964E+03  0.92730412369E+02 0.  0.
          2    1    3    3  502    0  0.30255506024E+03  0.47332887223E+03  0.70862480827E+03  0.90428364171E+03  0.00000000000E+00 0. -1.
         -1    1    3    3    0  502  0.63488580124E+02  0.15394584302E+03  0.26270173451E+03  0.31103428059E+03  0.00000000000E+00 0.  1.
         11    1    5    5    0    0 -0.17963350582E+03 -0.24005276171E+02  0.14221430599E+03  0.23036787651E+03  0.00000000000E+00 0.  1.
        -11    1    5    5    0    0 -0.11102308354E+03  0.57429316285E+02  0.10153569907E+03  0.16103959026E+03  0.00000000000E+00 0. -1.
          4    1    6    6  503    0 -0.55842992454E+02 -0.17691151490E+03 -0.83465547214E+02  0.20342718964E+03  0.00000000000E+00 0. -1.
         -4    1    6    6    0  503 -0.19544058556E+02 -0.48378724045E+03 -0.30605562247E+03  0.57280198001E+03  0.00000000000E+00 0.  1.
<mgrwt>
<rscale>  0 0.22353816E+04</rscale>
<asrwt>0</asrwt>
<pdfrwt beam="1">  1        2 0.24680846E+00 0.22353816E+04</pdfrwt>
<pdfrwt beam="2">  1       -1 0.11979994E+00 0.22353816E+04</pdfrwt>
<totfact> 0.71566358E+00</totfact>
</mgrwt>
</event>
<event>
12    6  0.1529770E-007  0.2117479E+04  0.7818608E-02  0.8553583E-01
          2   -1    0    0  501    0  0.00000000000E+00  0.00000000000E+00  0.70056591871E+03  0.70056591871E+03  0.00000000000E+00 0. -1.
         -1   -1    0    0    0  501 -0.00000000000E+00 -0.00000000000E+00 -0.16000336609E+04  0.16000336609E+04  0.00000000000E+00 0.  1.
         24    2    1    2    0    0 -0.72885343407E+03 -0.87919165112E+00  0.14197961345E+03  0.74710063397E+03  0.82298513465E+02 0.  0.
        254    2    1    2    0    0  0.72885343407E+03  0.87919165112E+00 -0.10414473557E+04  0.15534989457E+04  0.89303878877E+03 0.  0.
         23    2    4    4    0    0  0.15402515542E+03  0.33578138071E+03 -0.70756419364E+03  0.80355619209E+03  0.92642223594E+02 0.  0.
         23    2    4    4    0    0  0.57482827865E+03 -0.33490218906E+03 -0.33388316205E+03  0.74994275360E+03  0.91373637328E+02 0.  0.
          4    1    3    3  502    0 -0.67154811293E+03 -0.23075338113E+02  0.13326452305E+03  0.68503194985E+03  0.00000000000E+00 0. -1.
         -3    1    3    3    0  502 -0.57305321133E+02  0.22196146461E+02  0.87150904045E+01  0.62068684122E+02  0.00000000000E+00 0.  1.
         11    1    5    5    0    0  0.11535459859E+03  0.23681516179E+03 -0.40741126266E+03  0.48515156519E+03  0.00000000000E+00 0.  1.
        -11    1    5    5    0    0  0.38670556828E+02  0.98966218926E+02 -0.30015293098E+03  0.31840462690E+03  0.00000000000E+00 0. -1.
          3    1    6    6  503    0  0.46989164688E+03 -0.26131898817E+03 -0.22929135474E+03  0.58451715008E+03  0.00000000000E+00 0. -1.
         -3    1    6    6    0  503  0.10493663177E+03 -0.73583200893E+02 -0.10459180731E+03  0.16542560351E+03  0.00000000000E+00 0.  1.
<mgrwt>
<rscale>  0 0.21174787E+04</rscale>
<asrwt>0</asrwt>
<pdfrwt beam="1">  1        2 0.10777937E+00 0.21174787E+04</pdfrwt>
<pdfrwt beam="2">  1       -1 0.24615903E+00 0.21174787E+04</pdfrwt>
<totfact> 0.31757724E+00</totfact>
</mgrwt>
</event>
<event>
12    6  0.1529770E-007  0.2038906E+04  0.7818608E-02  0.8588644E-01
         -1   -1    0    0    0  501 -0.00000000000E+00  0.00000000000E+00  0.13333250171E+04  0.13333250171E+04  0.00000000000E+00 0.  1.
          2   -1    0    0  501    0  0.00000000000E+00 -0.00000000000E+00 -0.77946850192E+03  0.77946850192E+03  0.00000000000E+00 0. -1.
         24    2    1    2    0    0  0.51232353115E+03 -0.48104920539E+03  0.66440238074E+03  0.97039329340E+03  0.79679870411E+02 0.  0.
        254    2    1    2    0    0 -0.51232353115E+03  0.48104920539E+03 -0.11054586562E+03  0.11424002256E+04  0.89385353857E+03 0.  0.
         23    2    4    4    0    0 -0.34923841294E+03  0.69217335175E+03 -0.26073707105E+03  0.82309699104E+03  0.91833645714E+02 0.  0.
         23    2    4    4    0    0 -0.16308511821E+03 -0.21112414636E+03  0.15019120543E+03  0.31930323454E+03  0.90702791816E+02 0.  0.
          2    1    3    3  502    0  0.11757019751E+03 -0.93738323069E+02  0.10239413960E+03  0.18191807051E+03  0.00000000000E+00 0. -1.
         -1    1    3    3    0  502  0.39475333364E+03 -0.38731088233E+03  0.56200824115E+03  0.78847522289E+03  0.00000000000E+00 0.  1.
         11    1    5    5    0    0 -0.35213369782E+03  0.69163344813E+03 -0.26291020267E+03  0.81943684466E+03  0.00000000000E+00 0.  1.
        -11    1    5    5    0    0  0.28952848804E+01  0.53990361988E+00  0.21731316221E+01  0.36601463774E+01  0.00000000000E+00 0. -1.
          4    1    6    6  503    0 -0.87289410569E+02 -0.74239856320E+02  0.10748530315E+03  0.15711170503E+03  0.00000000000E+00 0. -1.
         -4    1    6    6    0  503 -0.75795707644E+02 -0.13688429004E+03  0.42705902280E+02  0.16219152951E+03  0.00000000000E+00 0.  1.
<mgrwt>
<rscale>  0 0.20389064E+04</rscale>
<asrwt>0</asrwt>
<pdfrwt beam="1">  1        2 0.11991823E+00 0.20389064E+04</pdfrwt>
<pdfrwt beam="2">  1       -1 0.20512693E+00 0.20389064E+04</pdfrwt>
<totfact> 0.52292932E+00</totfact>
</mgrwt>
</event>
<event>
12    6  0.1723863E-007  0.2743844E+04  0.7818608E-02  0.8320918E-01
          2   -1    0    0  501    0  0.00000000000E+00  0.00000000000E+00  0.13639524622E+04  0.13639524622E+04  0.00000000000E+00 0. -1.
         -1   -1    0    0    0  501 -0.00000000000E+00 -0.00000000000E+00 -0.13799378589E+04  0.13799378589E+04  0.00000000000E+00 0.  1.
         24    2    1    2    0    0 -0.10618112650E+04  0.40434616053E+03  0.44068025709E+03  0.12213715401E+04  0.81304181739E+02 0.  0.
        254    2    1    2    0    0  0.10618112650E+04 -0.40434616053E+03 -0.45666565376E+03  0.15225187810E+04  0.90475462918E+03 0.  0.
         23    2    4    4    0    0  0.73921782616E+03  0.25041825315E+01  0.10486555733E+03  0.75215425352E+03  0.91049275246E+02 0.  0.
         23    2    4    4    0    0  0.32259343885E+03 -0.40685034306E+03 -0.56153121109E+03  0.77036452745E+03  0.92468782262E+02 0.  0.
          4    1    3    3  502    0 -0.89205475429E+03  0.31913510808E+03  0.34147228761E+03  0.10070810420E+04  0.00000000000E+00 0. -1.
         -3    1    3    3    0  502 -0.16975651072E+03  0.85211052449E+02  0.99207969483E+02  0.21429049816E+03  0.00000000000E+00 0.  1.
         11    1    5    5    0    0  0.46079253058E+03  0.30820020602E+01  0.10972310729E+03  0.47368598802E+03  0.00000000000E+00 0. -1.
        -11    1    5    5    0    0  0.27842529558E+03 -0.57781952876E+00 -0.48575499646E+01  0.27846826550E+03  0.00000000000E+00 0.  1.
          2    1    6    6  503    0  0.30242752488E+03 -0.33115847888E+03 -0.49055213788E+03  0.66465761556E+03  0.00000000000E+00 0. -1.
         -2    1    6    6    0  503  0.20165913973E+02 -0.75691864175E+02 -0.70979073209E+02  0.10570691189E+03  0.00000000000E+00 0.  1.
<mgrwt>
<rscale>  0 0.27438438E+04</rscale>
<asrwt>0</asrwt>
<pdfrwt beam="1">  1        2 0.20983884E+00 0.27438438E+04</pdfrwt>
<pdfrwt beam="2">  1       -1 0.21229813E+00 0.27438438E+04</pdfrwt>
<totfact> 0.18744730E+00</totfact>
</mgrwt>
</event>
<event>
12    6  0.1529770E-007  0.2554992E+04  0.7818608E-02  0.8383652E-01
         -1   -1    0    0    0  501 -0.00000000000E+00  0.00000000000E+00  0.51381787332E+03  0.51381787332E+03  0.00000000000E+00 0.  1.
          2   -1    0    0  501    0  0.00000000000E+00 -0.00000000000E+00 -0.31762159723E+04  0.31762159723E+04  0.00000000000E+00 0. -1.
         24    2    1    2    0    0 -0.30908092148E+02 -0.75339411448E+03 -0.23433979738E+04  0.24630312282E+04  0.80316658164E+02 0.  0.
        254    2    1    2    0    0  0.30908092148E+02  0.75339411448E+03 -0.31900012512E+03  0.12270026174E+04  0.91390171315E+03 0.  0.
         23    2    4    4    0    0  0.25931152793E+02  0.17590657938E+03  0.30938625991E+03  0.36896975480E+03  0.93825757568E+02 0.  0.
         23    2    4    4    0    0  0.49769393550E+01  0.57748753510E+03 -0.62838638503E+03  0.85803286257E+03  0.88511701127E+02 0.  0.
          4    1    3    3  502    0 -0.91596951071E+01 -0.51080220659E+03 -0.16985579342E+04  0.17737254157E+04  0.00000000000E+00 0. -1.
         -3    1    3    3    0  502 -0.21748397041E+02 -0.24259190789E+03 -0.64484003956E+03  0.68930581251E+03  0.00000000000E+00 0.  1.
         11    1    5    5    0    0  0.48562322128E+02  0.12964214944E+03  0.16337872158E+03  0.21414479379E+03  0.00000000000E+00 0.  1.
        -11    1    5    5    0    0 -0.22631169335E+02  0.46264429937E+02  0.14600753833E+03  0.15482496101E+03  0.00000000000E+00 0. -1.
          1    1    6    6  503    0  0.34384506324E+01  0.48218824097E+02 -0.95126186658E+02  0.10670458907E+03  0.00000000000E+00 0. -1.
         -1    1    6    6    0  503  0.15384887226E+01  0.52926871101E+03 -0.53326019837E+03  0.75132827350E+03  0.00000000000E+00 0.  1.
<mgrwt>
<rscale>  0 0.25549924E+04</rscale>
<asrwt>0</asrwt>
<pdfrwt beam="1">  1        2 0.48864862E+00 0.25549924E+04</pdfrwt>
<pdfrwt beam="2">  1       -1 0.79048903E-01 0.25549924E+04</pdfrwt>
<totfact> 0.21715163E+00</totfact>
</mgrwt>
</event>
<event>
12    6  0.1529770E-007  0.1720950E+04  0.7818608E-02  0.8749505E-01
         -1   -1    0    0    0  501 -0.00000000000E+00  0.00000000000E+00  0.69075360791E+03  0.69075360791E+03  0.00000000000E+00 0.  1.
          2   -1    0    0  501    0  0.00000000000E+00 -0.00000000000E+00 -0.10718979982E+04  0.10718979982E+04  0.00000000000E+00 0. -1.
         24    2    1    2    0    0  0.37023073434E+03 -0.18437956015E+03  0.33388565500E+03  0.53760470559E+03  0.80452283984E+02 0.  0.
        254    2    1    2    0    0 -0.37023073434E+03  0.18437956015E+03 -0.71503004531E+03  0.12250469005E+04  0.90465757278E+03 0.  0.
         23    2    4    4    0    0  0.42372222549E+02 -0.31981142414E+03 -0.21917488139E+03  0.40130433903E+03  0.94513446888E+02 0.  0.
         23    2    4    4    0    0 -0.41260295689E+03  0.50419098429E+03 -0.49585516392E+03  0.82374256151E+03  0.90717778716E+02 0.  0.
          2    1    3    3  502    0  0.23170724543E+01 -0.10911757377E+02 -0.31919965027E+00  0.11159621957E+02  0.00000000000E+00 0. -1.
         -1    1    3    3    0  502  0.36791366189E+03 -0.17346780277E+03  0.33420485465E+03  0.52644508363E+03  0.00000000000E+00 0.  1.
         11    1    5    5    0    0  0.49683533876E+02 -0.17020398911E+03 -0.72170298270E+02  0.19143250351E+03  0.00000000000E+00 0. -1.
        -11    1    5    5    0    0 -0.73113113267E+01 -0.14960743503E+03 -0.14700458312E+03  0.20987183553E+03  0.00000000000E+00 0.  1.
          2    1    6    6  503    0 -0.21081249816E+03  0.19769427399E+03 -0.24900360874E+03  0.38148097268E+03  0.00000000000E+00 0. -1.
         -2    1    6    6    0  503 -0.20179045873E+03  0.30649671029E+03 -0.24685155519E+03  0.44226158883E+03  0.00000000000E+00 0.  1.
<mgrwt>
<rscale>  0 0.17209502E+04</rscale>
<asrwt>0</asrwt>
<pdfrwt beam="1">  1        2 0.16490738E+00 0.17209502E+04</pdfrwt>
<pdfrwt beam="2">  1       -1 0.10626979E+00 0.17209502E+04</pdfrwt>
<totfact> 0.20346846E+01</totfact>
</mgrwt>
</event>
<event>
12    6  0.1529770E-007  0.1600751E+04  0.7818608E-02  0.8820087E-01
         -1   -1    0    0    0  501 -0.00000000000E+00  0.00000000000E+00  0.25395448074E+03  0.25395448074E+03  0.00000000000E+00 0.  1.
          2   -1    0    0  501    0  0.00000000000E+00 -0.00000000000E+00 -0.25225024988E+04  0.25225024988E+04  0.00000000000E+00 0. -1.
         24    2    1    2    0    0 -0.26138169741E+03  0.36217420835E+03 -0.24156613250E+03  0.51409435921E+03  0.80301088786E+02 0.  0.
        254    2    1    2    0    0  0.26138169741E+03 -0.36217420835E+03 -0.20269818856E+04  0.22623626204E+04  0.90007694815E+03 0.  0.
         23    2    4    4    0    0 -0.79331407359E+02  0.76738106546E+02 -0.14475284430E+04  0.14545567110E+04  0.90633454031E+02 0.  0.
         23    2    4    4    0    0  0.34071310477E+03 -0.43891231490E+03 -0.57945344257E+03  0.80780590936E+03  0.89747730692E+02 0.  0.
          2    1    3    3  502    0 -0.15153313653E+02  0.70424170204E+02 -0.37912788327E+02  0.81403723393E+02  0.00000000000E+00 0. -1.
         -1    1    3    3    0  502 -0.24622838376E+03  0.29175003815E+03 -0.20365334417E+03  0.43269063581E+03  0.00000000000E+00 0.  1.
         11    1    5    5    0    0 -0.62315756511E+02  0.92798432354E+00 -0.78980056028E+03  0.79225566560E+03  0.00000000000E+00 0.  1.
        -11    1    5    5    0    0 -0.17015650848E+02  0.75810122223E+02 -0.65772788273E+03  0.66230104539E+03  0.00000000000E+00 0. -1.
          2    1    6    6  503    0  0.17520542026E+03 -0.28693164561E+03 -0.31408323457E+03  0.46008150015E+03  0.00000000000E+00 0. -1.
         -2    1    6    6    0  503  0.16550768451E+03 -0.15198066928E+03 -0.26537020800E+03  0.34772440922E+03  0.00000000000E+00 0.  1.
<mgrwt>
<rscale>  0 0.16007508E+04</rscale>
<asrwt>0</asrwt>
<pdfrwt beam="1">  1        2 0.38807732E+00 0.16007508E+04</pdfrwt>
<pdfrwt beam="2">  1       -1 0.39069919E-01 0.16007508E+04</pdfrwt>
<totfact> 0.23508112E+01</totfact>
</mgrwt>
</event>
<event>
12    6  0.1529770E-007  0.1561165E+04  0.7818608E-02  0.8844767E-01
          2   -1    0    0  501    0  0.00000000000E+00  0.00000000000E+00  0.27148536324E+04  0.27148536324E+04  0.00000000000E+00 0. -1.
         -1   -1    0    0    0  501 -0.00000000000E+00 -0.00000000000E+00 -0.22443537227E+03  0.22443537227E+03  0.00000000000E+00 0.  1.
         24    2    1    2    0    0 -0.10103901691E+03 -0.32176785482E+03  0.10450719350E+03  0.36288130859E+03  0.83771446776E+02 0.  0.
        254    2    1    2    0    0  0.10103901691E+03  0.32176785482E+03  0.23859110667E+04  0.25764076961E+04  0.91189997433E+03 0.  0.
         23    2    4    4    0    0  0.24651031807E+03  0.42314421462E+03  0.60167168508E+03  0.78099203784E+03  0.90118717638E+02 0.  0.
         23    2    4    4    0    0 -0.14547130116E+03 -0.10137635979E+03  0.17842393816E+04  0.17954156583E+04  0.92564298447E+02 0.  0.
          2    1    3    3  502    0 -0.10428659770E+02 -0.17276714872E+03  0.49424866505E+02  0.18000017236E+03  0.00000000000E+00 0. -1.
         -1    1    3    3    0  502 -0.90610357145E+02 -0.14900070610E+03  0.55082326998E+02  0.18288113623E+03  0.00000000000E+00 0.  1.
         11    1    5    5    0    0  0.10124274489E+03  0.15409744266E+03  0.29540267497E+03  0.34822242261E+03  0.00000000000E+00 0.  1.
        -11    1    5    5    0    0  0.14526757318E+03  0.26904677196E+03  0.30626901011E+03  0.43276961524E+03  0.00000000000E+00 0. -1.
          2    1    6    6  503    0 -0.14997767518E+03 -0.90485254125E+02  0.17573339702E+04  0.17660417795E+04  0.00000000000E+00 0. -1.
         -2    1    6    6    0  503  0.45063740195E+01 -0.10891105669E+02  0.26905411427E+02  0.29373878763E+02  0.00000000000E+00 0.  1.
<mgrwt>
<rscale>  0 0.15611652E+04</rscale>
<asrwt>0</asrwt>
<pdfrwt beam="1">  1        2 0.41766977E+00 0.15611652E+04</pdfrwt>
<pdfrwt beam="2">  1       -1 0.34528521E-01 0.15611652E+04</pdfrwt>
<totfact> 0.22744928E+01</totfact>
</mgrwt>
</event>
<event>
12    6  0.1529770E-007  0.2314136E+04  0.7818608E-02  0.8472368E-01
         -3   -1    0    0    0  501 -0.00000000000E+00  0.00000000000E+00  0.22704302351E+04  0.22704302351E+04  0.00000000000E+00 0.  1.
          4   -1    0    0  501    0  0.00000000000E+00 -0.00000000000E+00 -0.58967071877E+03  0.58967071877E+03  0.00000000000E+00 0. -1.
         24    2    1    2    0    0  0.49951529215E+03  0.48305910343E+03 -0.14171882128E+03  0.71358731396E+03  0.79126517941E+02 0.  0.
        254    2    1    2    0    0 -0.49951529215E+03 -0.48305910343E+03  0.18224783376E+04  0.21465136399E+04  0.89623205183E+03 0.  0.
         23    2    4    4    0    0 -0.39464263841E+02 -0.40726688856E+03  0.15353569967E+04  0.15915546817E+04  0.91112297299E+02 0.  0.
         23    2    4    4    0    0 -0.46005102831E+03 -0.75792214873E+02  0.28712134089E+03  0.55495895824E+03  0.90273874677E+02 0.  0.
          4    1    3    3  502    0  0.91050489914E+02  0.12309532994E+03 -0.99891517812E+01  0.15343544285E+03  0.00000000000E+00 0. -1.
         -1    1    3    3    0  502  0.40846480224E+03  0.35996377349E+03 -0.13172966949E+03  0.56015187112E+03  0.00000000000E+00 0.  1.
         11    1    5    5    0    0  0.10983478498E+02 -0.17106442374E+03  0.50622405019E+03  0.53445903759E+03  0.00000000000E+00 0. -1.
        -11    1    5    5    0    0 -0.50447742339E+02 -0.23620246482E+03  0.10291329465E+04  0.10570956441E+04  0.00000000000E+00 0.  1.
          2    1    6    6  503    0 -0.14974209311E+03 -0.22932607810E+02  0.14458635402E+03  0.20941301946E+03  0.00000000000E+00 0. -1.
         -2    1    6    6    0  503 -0.31030893520E+03 -0.52859607062E+02  0.14253498687E+03  0.34554593878E+03  0.00000000000E+00 0.  1.
<mgrwt>
<rscale>  0 0.23141359E+04</rscale>
<asrwt>0</asrwt>
<pdfrwt beam="1">  1        4 0.90718573E-01 0.23141359E+04</pdfrwt>
<pdfrwt beam="2">  1       -3 0.34929696E+00 0.23141359E+04</pdfrwt>
<totfact> 0.43490388E-02</totfact>
</mgrwt>
</event>
<event>
12    6  0.1529770E-007  0.2010005E+04  0.7818608E-02  0.8601957E-01
         -1   -1    0    0    0  501 -0.00000000000E+00  0.00000000000E+00  0.36725888452E+03  0.36725888452E+03  0.00000000000E+00 0.  1.
          2   -1    0    0  501    0  0.00000000000E+00 -0.00000000000E+00 -0.27501842062E+04  0.27501842062E+04  0.00000000000E+00 0. -1.
         24    2    1    2    0    0 -0.62136940979E+03  0.38937085115E+03 -0.14891081295E+04  0.16617651406E+04  0.79440278153E+02 0.  0.
        254    2    1    2    0    0  0.62136940979E+03 -0.38937085115E+03 -0.89381719219E+03  0.14556779502E+04  0.88452219785E+03 0.  0.
         23    2    4    4    0    0  0.14691079639E+03  0.10510947768E+03  0.11493104057E+03  0.23227191345E+03  0.90057277871E+02 0.  0.
         23    2    4    4    0    0  0.47445861339E+03 -0.49448032883E+03 -0.10087482328E+04  0.12234060367E+04  0.97609232151E+02 0.  0.
          4    1    3    3  502    0 -0.33798865167E+03  0.23828667368E+03 -0.91043108056E+03  0.99995080877E+03  0.00000000000E+00 0. -1.
         -3    1    3    3    0  502 -0.28338075812E+03  0.15108417747E+03 -0.57867704897E+03  0.66181433179E+03  0.00000000000E+00 0.  1.
         11    1    5    5    0    0  0.15045698183E+03  0.10943172518E+03  0.89904905622E+02  0.20662888935E+03  0.00000000000E+00 0. -1.
        -11    1    5    5    0    0 -0.35461854407E+01 -0.43222475015E+01  0.25026134953E+02  0.25643024106E+02  0.00000000000E+00 0.  1.
          1    1    6    6  503    0  0.45801809661E+03 -0.49648033632E+03 -0.98846298283E+03  0.11972185972E+04  0.00000000000E+00 0. -1.
         -1    1    6    6    0  503  0.16440516785E+02  0.20000074922E+01 -0.20285249943E+02  0.26187439496E+02  0.00000000000E+00 0.  1.
<mgrwt>
<rscale>  0 0.20100046E+04</rscale>
<asrwt>0</asrwt>
<pdfrwt beam="1">  1        2 0.42310525E+00 0.20100046E+04</pdfrwt>
<pdfrwt beam="2">  1       -1 0.56501368E-01 0.20100046E+04</pdfrwt>
<totfact> 0.83115947E+00</totfact>
</mgrwt>
</event>
<event>
12    6  0.1529770E-007  0.1277949E+04  0.7818608E-02  0.9047237E-01
         -1   -1    0    0    0  501 -0.00000000000E+00  0.00000000000E+00  0.29906183753E+03  0.29906183753E+03  0.00000000000E+00 0.  1.
          2   -1    0    0  501    0  0.00000000000E+00 -0.00000000000E+00 -0.13652306443E+04  0.13652306443E+04  0.00000000000E+00 0. -1.
         24    2    1    2    0    0  0.21595730965E+03  0.23553310169E+03 -0.26863800769E+03  0.42493079533E+03  0.79286821492E+02 0.  0.
        254    2    1    2    0    0 -0.21595730965E+03 -0.23553310169E+03 -0.79753079911E+03  0.12393616865E+04  0.89322371942E+03 0.  0.
         23    2    4    4    0    0 -0.39994707970E+03  0.84375786841E+02 -0.74735413472E+03  0.85645954653E+03  0.88925880311E+02 0.  0.
         23    2    4    4    0    0  0.18398977004E+03 -0.31990888853E+03 -0.50176664389E+02  0.38290214001E+03  0.88895549572E+02 0.  0.
          4    1    3    3  502    0  0.12770841012E+03  0.16398041923E+03 -0.12784315346E+03  0.24401411392E+03  0.00000000000E+00 0. -1.
         -3    1    3    3    0  502  0.88248899537E+02  0.71552682459E+02 -0.14079485422E+03  0.18091668141E+03  0.00000000000E+00 0.  1.
         11    1    5    5    0    0 -0.15326098039E+03 -0.34141612628E+01 -0.32827652361E+03  0.36230658365E+03  0.00000000000E+00 0. -1.
        -11    1    5    5    0    0 -0.24668609931E+03  0.87789948104E+02 -0.41907761112E+03  0.49415296287E+03  0.00000000000E+00 0.  1.
          3    1    6    6  503    0  0.10706786604E+03 -0.15855690190E+03  0.16706579773E+02  0.19204928765E+03  0.00000000000E+00 0. -1.
         -3    1    6    6    0  503  0.76921904004E+02 -0.16135198662E+03 -0.66883244162E+02  0.19085285236E+03  0.00000000000E+00 0.  1.
<mgrwt>
<rscale>  0 0.12779490E+04</rscale>
<asrwt>0</asrwt>
<pdfrwt beam="1">  1        2 0.21003548E+00 0.12779490E+04</pdfrwt>
<pdfrwt beam="2">  1       -1 0.46009513E-01 0.12779490E+04</pdfrwt>
<totfact> 0.79612325E+01</totfact>
</mgrwt>
</event>
<event>
12    6  0.1529770E-007  0.2825279E+04  0.7818608E-02  0.8295463E-01
         -1   -1    0    0    0  501 -0.00000000000E+00  0.00000000000E+00  0.68480667883E+03  0.68480667883E+03  0.00000000000E+00 0.  1.
          2   -1    0    0  501    0  0.00000000000E+00 -0.00000000000E+00 -0.29140348363E+04  0.29140348363E+04  0.00000000000E+00 0. -1.
         24    2    1    2    0    0 -0.26666179662E+03 -0.39611825835E+03 -0.24984182888E+04  0.25447617917E+04  0.75501271021E+02 0.  0.
        254    2    1    2    0    0  0.26666179662E+03  0.39611825835E+03  0.26919013135E+03  0.10540797235E+04  0.90033468682E+03 0.  0.
         23    2    4    4    0    0 -0.13801740273E+03  0.19008160153E+03 -0.25205999385E+03  0.35670047376E+03  0.92310177030E+02 0.  0.
         23    2    4    4    0    0  0.40467919935E+03  0.20603665682E+03  0.52125012520E+03  0.69737924974E+03  0.91759286185E+02 0.  0.
          4    1    3    3  502    0 -0.24970827312E+03 -0.34583400490E+03 -0.23080129159E+04  0.23471001258E+04  0.00000000000E+00 0. -1.
         -3    1    3    3    0  502 -0.16953523498E+02 -0.50284253454E+02 -0.19040537296E+03  0.19766166587E+03  0.00000000000E+00 0.  1.
         11    1    5    5    0    0 -0.10723544314E+03  0.19366984878E+03 -0.22270008294E+03  0.31401079206E+03  0.00000000000E+00 0.  1.
        -11    1    5    5    0    0 -0.30781959584E+02 -0.35882472522E+01 -0.29359910914E+02  0.42689681693E+02  0.00000000000E+00 0. -1.
          3    1    6    6  503    0  0.20543682579E+03  0.11674758828E+03  0.20348186132E+03  0.31183193654E+03  0.00000000000E+00 0. -1.
         -3    1    6    6    0  503  0.19924237356E+03  0.89289068539E+02  0.31776826388E+03  0.38554731319E+03  0.00000000000E+00 0.  1.
<mgrwt>
<rscale>  0 0.28252791E+04</rscale>
<asrwt>0</asrwt>
<pdfrwt beam="1">  1        2 0.44831305E+00 0.28252791E+04</pdfrwt>
<pdfrwt beam="2">  1       -1 0.10535487E+00 0.28252791E+04</pdfrwt>
<totfact> 0.16410688E+00</totfact>
</mgrwt>
</event>
<event>
12    6  0.1529770E-007  0.1460579E+04  0.7818608E-02  0.8911099E-01
          2   -1    0    0  501    0  0.00000000000E+00  0.00000000000E+00  0.20023821247E+04  0.20023821247E+04  0.00000000000E+00 0. -1.
         -1   -1    0    0    0  501 -0.00000000000E+00 -0.00000000000E+00 -0.26634413940E+03  0.26634413940E+03  0.00000000000E+00 0.  1.
         24    2    1    2    0    0  0.14015177542E+03  0.47110098150E+02  0.11898534504E+04  0.12015847586E+04  0.78694454601E+02 0.  0.
        254    2    1    2    0    0 -0.14015177542E+03 -0.47110098150E+02  0.54618453488E+03  0.10671415055E+04  0.90477155408E+03 0.  0.
         23    2    4    4    0    0 -0.45155885311E+02 -0.42072374497E+03  0.54739225243E+02  0.43611574479E+03  0.90294166548E+02 0.  0.
         23    2    4    4    0    0 -0.94995890112E+02  0.37361364682E+03  0.49144530963E+03  0.63102576069E+03  0.89797784335E+02 0.  0.
          4    1    3    3  502    0  0.13388271962E+03  0.64778062491E+02  0.10620578245E+04  0.10724213736E+04  0.00000000000E+00 0. -1.
         -3    1    3    3    0  502  0.62690557988E+01 -0.17667964341E+02  0.12779562590E+03  0.12916338499E+03  0.00000000000E+00 0.  1.
         11    1    5    5    0    0 -0.17937613800E+01 -0.19381664013E+03  0.66200217694E+02  0.20481839858E+03  0.00000000000E+00 0.  1.
        -11    1    5    5    0    0 -0.43362123931E+02 -0.22690710483E+03 -0.11460992451E+02  0.23129734621E+03  0.00000000000E+00 0. -1.
          2    1    6    6  503    0  0.31669460996E+01  0.15781639754E+03  0.21747537245E+03  0.26872212879E+03  0.00000000000E+00 0. -1.
         -2    1    6    6    0  503 -0.98162836212E+02  0.21579724927E+03  0.27396993719E+03  0.36230363190E+03  0.00000000000E+00 0.  1.
<mgrwt>
<rscale>  0 0.14605790E+04</rscale>
<asrwt>0</asrwt>
<pdfrwt beam="1">  1        2 0.30805878E+00 0.14605790E+04</pdfrwt>
<pdfrwt beam="2">  1       -1 0.40976023E-01 0.14605790E+04</pdfrwt>
<totfact> 0.42862793E+01</totfact>
</mgrwt>
</event>
<event>
12    6  0.1529770E-007  0.1670971E+04  0.7818608E-02  0.8778096E-01
          2   -1    0    0  501    0  0.00000000000E+00  0.00000000000E+00  0.90433838246E+03  0.90433838246E+03  0.00000000000E+00 0. -1.
         -1   -1    0    0    0  501 -0.00000000000E+00 -0.00000000000E+00 -0.77187463805E+03  0.77187463805E+03  0.00000000000E+00 0.  1.
         24    2    1    2    0    0  0.15989919037E+03 -0.22895240646E+03 -0.47268806235E+03  0.55515405339E+03  0.82310772107E+02 0.  0.
        254    2    1    2    0    0 -0.15989919037E+03  0.22895240646E+03  0.60515180676E+03  0.11210589671E+04  0.90143083097E+03 0.  0.
         23    2    4    4    0    0 -0.37707577587E+03  0.20657485137E+03 -0.32771270688E+02  0.44062220696E+03  0.90634778762E+02 0.  0.
         23    2    4    4    0    0  0.21717658550E+03  0.22377555094E+02  0.63792307745E+03  0.68043676016E+03  0.91552758422E+02 0.  0.
          2    1    3    3  502    0  0.28898978293E+02 -0.23421730823E+01 -0.38967136320E+02  0.48570304036E+02  0.00000000000E+00 0. -1.
         -1    1    3    3    0  502  0.13100021207E+03 -0.22661023338E+03 -0.43372092603E+03  0.50658374935E+03  0.00000000000E+00 0.  1.
         11    1    5    5    0    0 -0.32644460121E+02  0.31027353487E+02  0.22087323592E+02  0.50161811216E+02  0.00000000000E+00 0. -1.
        -11    1    5    5    0    0 -0.34443131575E+03  0.17554749788E+03 -0.54858594281E+02  0.39046039574E+03  0.00000000000E+00 0.  1.
          3    1    6    6  503    0  0.47004170193E+02 -0.30090980802E+02  0.11109936850E+03  0.12432991926E+03  0.00000000000E+00 0. -1.
         -3    1    6    6    0  503  0.17017241531E+03  0.52468535896E+02  0.52682370894E+03  0.55610684090E+03  0.00000000000E+00 0.  1.
<mgrwt>
<rscale>  0 0.16709708E+04</rscale>
<asrwt>0</asrwt>
<pdfrwt beam="1">  1        2 0.13912898E+00 0.16709708E+04</pdfrwt>
<pdfrwt beam="2">  1       -1 0.11874994E+00 0.16709708E+04</pdfrwt>
<totfact> 0.20138034E+01</totfact>
</mgrwt>
</event>
<event>
12    6  0.1529770E-007  0.1331598E+04  0.7818608E-02  0.9004876E-01
         -1   -1    0    0    0  501 -0.00000000000E+00  0.00000000000E+00  0.30106771454E+03  0.30106771454E+03  0.00000000000E+00 0.  1.
          2   -1    0    0  501    0  0.00000000000E+00 -0.00000000000E+00 -0.14723883669E+04  0.14723883669E+04  0.00000000000E+00 0. -1.
         24    2    1    2    0    0 -0.35435259046E+03  0.83269707636E+02 -0.26639640573E+03  0.45819825762E+03  0.80492209098E+02 0.  0.
        254    2    1    2    0    0  0.35435259046E+03 -0.83269707636E+02 -0.90492424665E+03  0.13152578238E+04  0.88233533786E+03 0.  0.
         23    2    4    4    0    0 -0.11781417471E+03  0.30154271183E+03 -0.27444012580E+03  0.43385445686E+03  0.90022887461E+02 0.  0.
         23    2    4    4    0    0  0.47216676517E+03 -0.38481241947E+03 -0.63048412086E+03  0.88140336699E+03  0.91321500093E+02 0.  0.
          4    1    3    3  502    0 -0.15093844958E+02  0.11781064944E+02  0.26689043411E+01  0.19332374329E+02  0.00000000000E+00 0. -1.
         -3    1    3    3    0  502 -0.33925874550E+03  0.71488642692E+02 -0.26906531007E+03  0.43886588329E+03  0.00000000000E+00 0.  1.
         11    1    5    5    0    0 -0.71920833594E+01  0.13909863969E+03 -0.12134981604E+03  0.18473206403E+03  0.00000000000E+00 0.  1.
        -11    1    5    5    0    0 -0.11062209135E+03  0.16244407214E+03 -0.15309030976E+03  0.24912239283E+03  0.00000000000E+00 0. -1.
          2    1    6    6  503    0  0.34571062664E+03 -0.31734194458E+03 -0.44242249951E+03  0.64494915709E+03  0.00000000000E+00 0. -1.
         -2    1    6    6    0  503  0.12645613853E+03 -0.67470474884E+02 -0.18806162135E+03  0.23645420990E+03  0.00000000000E+00 0.  1.
<mgrwt>
<rscale>  0 0.13315984E+04</rscale>
<asrwt>0</asrwt>
<pdfrwt beam="1">  1        2 0.22652129E+00 0.13315984E+04</pdfrwt>
<pdfrwt beam="2">  1       -1 0.46318109E-01 0.13315984E+04</pdfrwt>
<totfact> 0.68023360E+01</totfact>
</mgrwt>
</event>
<event>
12    6  0.1529770E-007  0.1341318E+04  0.7818608E-02  0.8997427E-01
          2   -1    0    0  501    0  0.00000000000E+00  0.00000000000E+00  0.14057476360E+04  0.14057476360E+04  0.00000000000E+00 0. -1.
         -1   -1    0    0    0  501 -0.00000000000E+00 -0.00000000000E+00 -0.31996017251E+03  0.31996017251E+03  0.00000000000E+00 0.  1.
         24    2    1    2    0    0 -0.25011984697E+03  0.53540152765E+01 -0.79266892273E+02  0.27467569768E+03  0.81085728449E+02 0.  0.
        254    2    1    2    0    0  0.25011984697E+03 -0.53540152765E+01  0.11650543557E+04  0.14510321108E+04  0.82798184244E+03 0.  0.
         23    2    4    4    0    0  0.63754494710E+02 -0.39080787956E+03  0.40347215769E+03  0.57263191217E+03  0.91225492483E+02 0.  0.
         23    2    4    4    0    0  0.18636535226E+03  0.38545386429E+03  0.76158219805E+03  0.87840019863E+03  0.90954596066E+02 0.  0.
          4    1    3    3  502    0 -0.46915387375E+02 -0.27119077799E+02 -0.34001012935E+02  0.63973172767E+02  0.00000000000E+00 0. -1.
         -3    1    3    3    0  502 -0.20320445959E+03  0.32473093075E+02 -0.45265879338E+02  0.21070252491E+03  0.00000000000E+00 0.  1.
         11    1    5    5    0    0  0.40668528134E+02 -0.36768171348E+03  0.34598732711E+03  0.50650863974E+03  0.00000000000E+00 0.  1.
        -11    1    5    5    0    0  0.23085966576E+02 -0.23126166089E+02  0.57484830581E+02  0.66123272436E+02  0.00000000000E+00 0. -1.
          3    1    6    6  503    0  0.12423849853E+03  0.33146346006E+03  0.64397541919E+03  0.73485207381E+03  0.00000000000E+00 0. -1.
         -3    1    6    6    0  503  0.62126853731E+02  0.53990404231E+02  0.11760677887E+03  0.14354812482E+03  0.00000000000E+00 0.  1.
<mgrwt>
<rscale>  0 0.13413176E+04</rscale>
<asrwt>0</asrwt>
<pdfrwt beam="1">  1        2 0.21626886E+00 0.13413176E+04</pdfrwt>
<pdfrwt beam="2">  1       -1 0.49224643E-01 0.13413176E+04</pdfrwt>
<totfact> 0.66133616E+01</totfact>
</mgrwt>
</event>
<event>
12    6  0.1529770E-007  0.1134290E+04  0.7818608E-02  0.9172401E-01
          2   -1    0    0  501    0  0.00000000000E+00  0.00000000000E+00  0.68879634745E+03  0.68879634745E+03  0.00000000000E+00 0. -1.
         -1   -1    0    0    0  501 -0.00000000000E+00 -0.00000000000E+00 -0.46697866050E+03  0.46697866050E+03  0.00000000000E+00 0.  1.
         24    2    1    2    0    0  0.18357898269E+03 -0.78091460043E+02  0.75002652051E+01  0.21668078201E+03  0.84230566277E+02 0.  0.
        254    2    1    2    0    0 -0.18357898269E+03  0.78091460043E+02  0.21431742175E+03  0.93909422594E+03  0.89228161973E+03 0.  0.
         23    2    4    4    0    0 -0.18693950699E+03  0.35512609957E+03  0.41450080464E+03  0.58471322316E+03  0.94961626007E+02 0.  0.
         23    2    4    4    0    0  0.33605243012E+01 -0.27703463953E+03 -0.20018338289E+03  0.35438100278E+03  0.93557595760E+02 0.  0.
          2    1    3    3  502    0 -0.15868619166E+01  0.56799230276E+01  0.12028463189E+02  0.13396401869E+02  0.00000000000E+00 0. -1.
         -1    1    3    3    0  502  0.18516584461E+03 -0.83771383071E+02 -0.45281979841E+01  0.20328438014E+03  0.00000000000E+00 0.  1.
         11    1    5    5    0    0 -0.41231734148E+02  0.37004858981E+02  0.99615930140E+02  0.11398574045E+03  0.00000000000E+00 0.  1.
        -11    1    5    5    0    0 -0.14570777285E+03  0.31812124059E+03  0.31488487450E+03  0.47072748270E+03  0.00000000000E+00 0. -1.
          2    1    6    6  503    0  0.45155643407E+02 -0.10560100212E+03 -0.94231767089E+02  0.14856052541E+03  0.00000000000E+00 0.  1.
         -2    1    6    6    0  503 -0.41795119105E+02 -0.17143363740E+03 -0.10595161580E+03  0.20582047737E+03  0.00000000000E+00 0. -1.
<mgrwt>
<rscale>  0 0.11342895E+04</rscale>
<asrwt>0</asrwt>
<pdfrwt beam="1">  1        2 0.10596867E+00 0.11342895E+04</pdfrwt>
<pdfrwt beam="2">  1       -1 0.71842871E-01 0.11342895E+04</pdfrwt>
<totfact> 0.92583739E+01</totfact>
</mgrwt>
</event>
<event>
12    6  0.1529770E-007  0.2014931E+04  0.7818608E-02  0.8599671E-01
         -1   -1    0    0    0  501 -0.00000000000E+00  0.00000000000E+00  0.55551662400E+03  0.55551662400E+03  0.00000000000E+00 0.  1.
          2   -1    0    0  501    0  0.00000000000E+00 -0.00000000000E+00 -0.18271050020E+04  0.18271050020E+04  0.00000000000E+00 0. -1.
         24    2    1    2    0    0 -0.60165627189E+03 -0.24043219880E+03  0.56479307347E+02  0.65509663058E+03  0.78509690580E+02 0.  0.
        254    2    1    2    0    0  0.60165627189E+03  0.24043219880E+03 -0.13280676853E+04  0.17275249954E+04  0.89486363271E+03 0.  0.
         23    2    4    4    0    0 -0.30152674945E+01  0.44766777054E+03 -0.60621858736E+03  0.75903771713E+03  0.90673897810E+02 0.  0.
         23    2    4    4    0    0  0.60467153939E+03 -0.20723557174E+03 -0.72184909796E+03  0.96848727825E+03  0.91253685822E+02 0.  0.
          2    1    3    3  502    0 -0.48277161807E+02 -0.43540242696E+02 -0.14157582754E+00  0.65011207725E+02  0.00000000000E+00 0. -1.
         -1    1    3    3    0  502 -0.55337911009E+03 -0.19689195611E+03  0.56620883175E+02  0.59008542286E+03  0.00000000000E+00 0.  1.
         11    1    5    5    0    0 -0.81122243155E+01  0.20770695995E+01 -0.26797721748E+02  0.28075617400E+02  0.00000000000E+00 0. -1.
        -11    1    5    5    0    0  0.50969568210E+01  0.44559070094E+03 -0.57942086562E+03  0.73096209973E+03  0.00000000000E+00 0.  1.
          1    1    6    6  503    0  0.41196528526E+03 -0.95409658796E+02 -0.47502587854E+03  0.63597797488E+03  0.00000000000E+00 0. -1.
         -1    1    6    6    0  503  0.19270625413E+03 -0.11182591294E+03 -0.24682321942E+03  0.33250930337E+03  0.00000000000E+00 0.  1.
<mgrwt>
<rscale>  0 0.20149315E+04</rscale>
<asrwt>0</asrwt>
<pdfrwt beam="1">  1        2 0.28109308E+00 0.20149315E+04</pdfrwt>
<pdfrwt beam="2">  1       -1 0.85464096E-01 0.20149315E+04</pdfrwt>
<totfact> 0.11915521E+01</totfact>
</mgrwt>
</event>
<event>
12    6  0.1529770E-007  0.1611035E+04  0.7818608E-02  0.8813797E-01
         -1   -1    0    0    0  501 -0.00000000000E+00  0.00000000000E+00  0.13603970223E+04  0.13603970223E+04  0.00000000000E+00 0.  1.
          2   -1    0    0  501    0  0.00000000000E+00 -0.00000000000E+00 -0.47696284525E+03  0.47696284525E+03  0.00000000000E+00 0. -1.
         24    2    1    2    0    0  0.28947195886E+03 -0.77516286317E+02  0.83009776986E+03  0.88595746930E+03  0.77817351978E+02 0.  0.
        254    2    1    2    0    0 -0.28947195886E+03  0.77516286317E+02  0.53336407212E+02  0.95140239828E+03  0.90139833676E+03 0.  0.
         23    2    4    4    0    0 -0.26414975515E+03 -0.32183885937E+03 -0.19686907528E+03  0.47000724680E+03  0.93776514635E+02 0.  0.
         23    2    4    4    0    0 -0.25322203714E+02  0.39935514568E+03  0.25020548249E+03  0.48139515148E+03  0.94935567724E+02 0.  0.
          2    1    3    3  502    0  0.58827829971E+02  0.28292654287E+01  0.99588472864E+02  0.11570039866E+03  0.00000000000E+00 0. -1.
         -1    1    3    3    0  502  0.23064412889E+03 -0.80345551746E+02  0.73050929700E+03  0.77025707065E+03  0.00000000000E+00 0.  1.
         11    1    5    5    0    0 -0.24001985439E+03 -0.24856028556E+03 -0.18503324471E+03  0.39195541546E+03  0.00000000000E+00 0.  1.
        -11    1    5    5    0    0 -0.24129900755E+02 -0.73278573807E+02 -0.11835830565E+02  0.78051831335E+02  0.00000000000E+00 0. -1.
          2    1    6    6  503    0  0.96893606058E+00  0.42728486032E+01  0.26003708451E+02  0.26370228013E+02  0.00000000000E+00 0. -1.
         -2    1    6    6    0  503 -0.26291139775E+02  0.39508229708E+03  0.22420177404E+03  0.45502492347E+03  0.00000000000E+00 0.  1.
<mgrwt>
<rscale>  0 0.16110355E+04</rscale>
<asrwt>0</asrwt>
<pdfrwt beam="1">  1        2 0.73378900E-01 0.16110355E+04</pdfrwt>
<pdfrwt beam="2">  1       -1 0.20929185E+00 0.16110355E+04</pdfrwt>
<totfact> 0.92601675E+00</totfact>
</mgrwt>
</event>
<event>
12    6  0.1529770E-007  0.1160732E+04  0.7818608E-02  0.9147940E-01
         -1   -1    0    0    0  501 -0.00000000000E+00  0.00000000000E+00  0.13310656571E+03  0.13310656571E+03  0.00000000000E+00 0.  1.
          2   -1    0    0  501    0  0.00000000000E+00 -0.00000000000E+00 -0.25304874450E+04  0.25304874450E+04  0.00000000000E+00 0. -1.
         24    2    1    2    0    0  0.24976408466E+02 -0.14458248394E+03 -0.81429091070E+03  0.83122932457E+03  0.79652916659E+02 0.  0.
        254    2    1    2    0    0 -0.24976408466E+02  0.14458248394E+03 -0.15830899686E+04  0.18323646861E+04  0.91096573958E+03 0.  0.
         23    2    4    4    0    0  0.91997751664E+02 -0.28821739937E+03 -0.11831983830E+04  0.12245603051E+04  0.89758964499E+02 0.  0.
         23    2    4    4    0    0 -0.11697416013E+03  0.43279988331E+03 -0.39989158557E+03  0.60780438100E+03  0.92272380634E+02 0.  0.
          4    1    3    3  502    0 -0.49572873594E+01 -0.71564819469E+02 -0.57029450862E+03  0.57478859126E+03  0.00000000000E+00 0. -1.
         -3    1    3    3    0  502  0.29933695826E+02 -0.73017664472E+02 -0.24399640208E+03  0.25644073331E+03  0.00000000000E+00 0.  1.
         11    1    5    5    0    0  0.10022052333E+03 -0.28156214328E+03 -0.10726741089E+04  0.11135309326E+04  0.00000000000E+00 0. -1.
        -11    1    5    5    0    0 -0.82227716663E+01 -0.66552560841E+01 -0.11052427406E+03  0.11102937253E+03  0.00000000000E+00 0.  1.
          3    1    6    6  503    0 -0.13088950963E+03  0.41451427836E+03 -0.37763645759E+03  0.57581546071E+03  0.00000000000E+00 0. -1.
         -3    1    6    6    0  503  0.13915349498E+02  0.18285604947E+02 -0.22255127976E+02  0.31988920288E+02  0.00000000000E+00 0.  1.
<mgrwt>
<rscale>  0 0.11607317E+04</rscale>
<asrwt>0</asrwt>
<pdfrwt beam="1">  1        2 0.38930574E+00 0.11607317E+04</pdfrwt>
<pdfrwt beam="2">  1       -1 0.20477934E-01 0.11607317E+04</pdfrwt>
<totfact> 0.74600645E+01</totfact>
</mgrwt>
</event>
<event>
12    6  0.1529770E-007  0.1371768E+04  0.7818608E-02  0.8974512E-01
          2   -1    0    0  501    0  0.00000000000E+00  0.00000000000E+00  0.95872120767E+03  0.95872120767E+03  0.00000000000E+00 0. -1.
         -1   -1    0    0    0  501 -0.00000000000E+00 -0.00000000000E+00 -0.49069210239E+03  0.49069210239E+03  0.00000000000E+00 0.  1.
         24    2    1    2    0    0 -0.24054369448E+03 -0.28084607265E+03  0.27475428054E+02  0.37926221761E+03  0.79681522854E+02 0.  0.
        254    2    1    2    0    0  0.24054369448E+03  0.28084607265E+03  0.44055367723E+03  0.10701510925E+04  0.90244115192E+03 0.  0.
         23    2    4    4    0    0  0.39524917035E+03 -0.66669457602E+02 -0.81118648693E+02  0.41907267597E+03  0.91514749281E+02 0.  0.
         23    2    4    4    0    0 -0.15470547587E+03  0.34751553025E+03  0.52167232592E+03  0.65107841649E+03  0.84025357821E+02 0.  0.
          4    1    3    3  502    0 -0.11370570046E+03 -0.16937675049E+03 -0.16803391298E+02  0.20469446471E+03  0.00000000000E+00 0. -1.
         -3    1    3    3    0  502 -0.12683799402E+03 -0.11146932216E+03  0.44278819352E+02  0.17456775290E+03  0.00000000000E+00 0.  1.
         11    1    5    5    0    0  0.14599802678E+03  0.15828005957E+02 -0.47696207535E+02  0.15440491511E+03  0.00000000000E+00 0.  1.
        -11    1    5    5    0    0  0.24925114357E+03 -0.82497463558E+02 -0.33422441157E+02  0.26466776086E+03  0.00000000000E+00 0. -1.
          4    1    6    6  503    0 -0.16529862657E+03  0.32997019676E+03  0.49534492049E+03  0.61771397665E+03  0.00000000000E+00 0.  1.
         -4    1    6    6    0  503  0.10593150697E+02  0.17545333489E+02  0.26327405430E+02  0.33364439837E+02  0.00000000000E+00 0. -1.
<mgrwt>
<rscale>  0 0.13717681E+04</rscale>
<asrwt>0</asrwt>
<pdfrwt beam="1">  1        2 0.14749557E+00 0.13717681E+04</pdfrwt>
<pdfrwt beam="2">  1       -1 0.75491093E-01 0.13717681E+04</pdfrwt>
<totfact> 0.52597479E+01</totfact>
</mgrwt>
</event>
<event>
12    6  0.1529770E-007  0.2405442E+04  0.7818608E-02  0.8437469E-01
         -1   -1    0    0    0  501 -0.00000000000E+00  0.00000000000E+00  0.12396382202E+04  0.12396382202E+04  0.00000000000E+00 0.  1.
          2   -1    0    0  501    0  0.00000000000E+00 -0.00000000000E+00 -0.11669034844E+04  0.11669034844E+04  0.00000000000E+00 0. -1.
         24    2    1    2    0    0 -0.85067272519E+03  0.77236149262E+02  0.60884518907E+03  0.10518985055E+04  0.78666978379E+02 0.  0.
        254    2    1    2    0    0  0.85067272519E+03 -0.77236149262E+02 -0.53611045330E+03  0.13546431991E+04  0.90445247008E+03 0.  0.
         23    2    4    4    0    0  0.61008603337E+01  0.27099891095E+03 -0.28227789146E+03  0.40203375423E+03  0.92047277547E+02 0.  0.
         23    2    4    4    0    0  0.84457186486E+03 -0.34823506021E+03 -0.25383256184E+03  0.95260944489E+03  0.92002679096E+02 0.  0.
          2    1    3    3  502    0 -0.62672059519E+03  0.84393956294E+02  0.42323048191E+03  0.76093697840E+03  0.00000000000E+00 0. -1.
         -1    1    3    3    0  502 -0.22395213001E+03 -0.71578070319E+01  0.18561470717E+03  0.29096152710E+03  0.00000000000E+00 0.  1.
         11    1    5    5    0    0  0.57346000753E+01  0.84156328360E+02 -0.15337388186E+03  0.17503919812E+03  0.00000000000E+00 0.  1.
        -11    1    5    5    0    0  0.36626025835E+00  0.18684258259E+03 -0.12890400960E+03  0.22699455612E+03  0.00000000000E+00 0. -1.
          2    1    6    6  503    0  0.79546606802E+03 -0.33897874422E+03 -0.25830801103E+03  0.90243885276E+03  0.00000000000E+00 0. -1.
         -2    1    6    6    0  503  0.49105796836E+02 -0.92563159896E+01  0.44754491892E+01  0.50170592123E+02  0.00000000000E+00 0.  1.
<mgrwt>
<rscale>  0 0.24054423E+04</rscale>
<asrwt>0</asrwt>
<pdfrwt beam="1">  1        2 0.17952361E+00 0.24054423E+04</pdfrwt>
<pdfrwt beam="2">  1       -1 0.19071357E+00 0.24054423E+04</pdfrwt>
<totfact> 0.35486369E+00</totfact>
</mgrwt>
</event>
<event>
12    6  0.1529770E-007  0.2249050E+04  0.7818608E-02  0.8498286E-01
          2   -1    0    0  501    0  0.00000000000E+00  0.00000000000E+00  0.11039131274E+04  0.11039131274E+04  0.00000000000E+00 0. -1.
         -1   -1    0    0    0  501 -0.00000000000E+00 -0.00000000000E+00 -0.11455212238E+04  0.11455212238E+04  0.00000000000E+00 0.  1.
         24    2    1    2    0    0  0.16844841083E+02  0.74911756336E+03 -0.59178474989E+03  0.95783593178E+03  0.76023743651E+02 0.  0.
        254    2    1    2    0    0 -0.16844841083E+02 -0.74911756336E+03  0.55017665345E+03  0.12915984194E+04  0.89670020336E+03 0.  0.
         23    2    4    4    0    0 -0.23027061227E+03 -0.86973968217E+03  0.46414323187E+03  0.10162197933E+04  0.88329264122E+02 0.  0.
         23    2    4    4    0    0  0.21342577119E+03  0.12062211881E+03  0.86033421583E+02  0.27537862619E+03  0.91276408652E+02 0.  0.
          4    1    3    3  502    0  0.32290912410E+02  0.17989998932E+03 -0.12352672541E+03  0.22060272227E+03  0.00000000000E+00 0. -1.
         -3    1    3    3    0  502 -0.15446071327E+02  0.56921757403E+03 -0.46825802448E+03  0.73723320951E+03  0.00000000000E+00 0.  1.
         11    1    5    5    0    0 -0.14372972580E+03 -0.43510298835E+03  0.27469020751E+03  0.53425420415E+03  0.00000000000E+00 0. -1.
        -11    1    5    5    0    0 -0.86540886477E+02 -0.43463669382E+03  0.18945302436E+03  0.48196558911E+03  0.00000000000E+00 0.  1.
          2    1    6    6  503    0  0.19480655717E+03  0.10423942434E+03  0.42083820779E+02  0.22491442878E+03  0.00000000000E+00 0. -1.
         -2    1    6    6    0  503  0.18619214020E+02  0.16382694475E+02  0.43949600804E+02  0.50464197405E+02  0.00000000000E+00 0.  1.
<mgrwt>
<rscale>  0 0.22490495E+04</rscale>
<asrwt>0</asrwt>
<pdfrwt beam="1">  1        2 0.16983279E+00 0.22490495E+04</pdfrwt>
<pdfrwt beam="2">  1       -1 0.17623403E+00 0.22490495E+04</pdfrwt>
<totfact> 0.49826980E+00</totfact>
</mgrwt>
</event>
<event>
12    6  0.1529770E-007  0.2684775E+04  0.7818608E-02  0.8339962E-01
          2   -1    0    0  501    0  0.00000000000E+00  0.00000000000E+00  0.28914225975E+04  0.28914225975E+04  0.00000000000E+00 0. -1.
         -1   -1    0    0    0  501 -0.00000000000E+00 -0.00000000000E+00 -0.62322418516E+03  0.62322418516E+03  0.00000000000E+00 0.  1.
         24    2    1    2    0    0  0.10239280943E+04 -0.60461128454E+03  0.11204229283E+04  0.16357392199E+04  0.79446267038E+02 0.  0.
        254    2    1    2    0    0 -0.10239280943E+04  0.60461128454E+03  0.11477754841E+04  0.18789075629E+04  0.89382409908E+03 0.  0.
         23    2    4    4    0    0 -0.88232106804E+03  0.62225064635E+03  0.12703343108E+04  0.16696574679E+04  0.91216582775E+02 0.  0.
         23    2    4    4    0    0 -0.14160702630E+03 -0.17639361814E+02 -0.12255882675E+03  0.20925009491E+03  0.91658274163E+02 0.  0.
          4    1    3    3  502    0  0.10193796181E+04 -0.59479834991E+03  0.11150792374E+04  0.16236753335E+04  0.00000000000E+00 0. -1.
         -3    1    3    3    0  502  0.45484762652E+01 -0.98129346277E+01  0.53436908608E+01  0.12063886370E+02  0.00000000000E+00 0.  1.
         11    1    5    5    0    0 -0.19134151975E+03  0.14550469127E+03  0.34217196320E+03  0.41816844066E+03  0.00000000000E+00 0.  1.
        -11    1    5    5    0    0 -0.69097954830E+03  0.47674595509E+03  0.92816234764E+03  0.12514890273E+04  0.00000000000E+00 0. -1.
          3    1    6    6  503    0 -0.15536028696E+02  0.14431924837E+02  0.10069272557E+02  0.23474217601E+02  0.00000000000E+00 0. -1.
         -3    1    6    6    0  503 -0.12607099761E+03 -0.32071286651E+02 -0.13262809930E+03  0.18577587731E+03  0.00000000000E+00 0.  1.
<mgrwt>
<rscale>  0 0.26847752E+04</rscale>
<asrwt>0</asrwt>
<pdfrwt beam="1">  1        2 0.44483424E+00 0.26847752E+04</pdfrwt>
<pdfrwt beam="2">  1       -1 0.95880646E-01 0.26847752E+04</pdfrwt>
<totfact> 0.21290768E+00</totfact>
</mgrwt>
</event>
<event>
12    6  0.1529770E-007  0.1638783E+04  0.7818608E-02  0.8797070E-01
          2   -1    0    0  501    0  0.00000000000E+00  0.00000000000E+00  0.63910312718E+03  0.63910312718E+03  0.00000000000E+00 0. -1.
         -1   -1    0    0    0  501 -0.00000000000E+00 -0.00000000000E+00 -0.10505386733E+04  0.10505386733E+04  0.00000000000E+00 0.  1.
         24    2    1    2    0    0 -0.19946088971E+03  0.46699104789E+03 -0.40874562793E+03  0.65701227553E+03  0.82017415900E+02 0.  0.
        254    2    1    2    0    0  0.19946088971E+03 -0.46699104789E+03 -0.26899181933E+01  0.10326295250E+04  0.89913915209E+03 0.  0.
         23    2    4    4    0    0 -0.13502898971E+03  0.19809835923E+03  0.10141606627E+03  0.27530211319E+03  0.89611645658E+02 0.  0.
         23    2    4    4    0    0  0.33448987942E+03 -0.66508940712E+03 -0.10410598446E+03  0.75732741176E+03  0.92083406230E+02 0.  0.
          4    1    3    3  502    0 -0.87337327183E+02  0.13201720226E+03 -0.95376681791E+02  0.18480547027E+03  0.00000000000E+00 0. -1.
         -3    1    3    3    0  502 -0.11212356253E+03  0.33497384563E+03 -0.31336894614E+03  0.47220680526E+03  0.00000000000E+00 0.  1.
         11    1    5    5    0    0 -0.86980713861E+02  0.18473243084E+03  0.67758378569E+02  0.21513464029E+03  0.00000000000E+00 0.  1.
        -11    1    5    5    0    0 -0.48048275849E+02  0.13365928396E+02  0.33657687701E+02  0.60167472902E+02  0.00000000000E+00 0. -1.
          2    1    6    6  503    0  0.26023993274E+03 -0.42992957263E+03 -0.87949181579E+02  0.51019537293E+03  0.00000000000E+00 0. -1.
         -2    1    6    6    0  503  0.74249946688E+02 -0.23515983449E+03 -0.16156802885E+02  0.24713203883E+03  0.00000000000E+00 0.  1.
<mgrwt>
<rscale>  0 0.16387831E+04</rscale>
<asrwt>0</asrwt>
<pdfrwt beam="1">  1        2 0.98323558E-01 0.16387831E+04</pdfrwt>
<pdfrwt beam="2">  1       -1 0.16162133E+00 0.16387831E+04</pdfrwt>
<totfact> 0.14245505E+01</totfact>
</mgrwt>
</event>
<event>
12    6  0.1529770E-007  0.1553661E+04  0.7818608E-02  0.8849533E-01
          2   -1    0    0  501    0  0.00000000000E+00  0.00000000000E+00  0.10518167712E+04  0.10518167712E+04  0.00000000000E+00 0. -1.
         -1   -1    0    0    0  501 -0.00000000000E+00 -0.00000000000E+00 -0.57373664601E+03  0.57373664601E+03  0.00000000000E+00 0.  1.
         24    2    1    2    0    0  0.74302497581E+01  0.27961512223E+03 -0.28665347183E+03  0.40863037544E+03  0.81047798460E+02 0.  0.
        254    2    1    2    0    0 -0.74302497581E+01 -0.27961512223E+03  0.76473359704E+03  0.12169230418E+04  0.90434749405E+03 0.  0.
         23    2    4    4    0    0  0.40243443821E+03  0.39181039314E+02  0.27345130784E+03  0.49634886857E+03  0.89988614129E+02 0.  0.
         23    2    4    4    0    0 -0.40986468797E+03 -0.31879616154E+03  0.49128228920E+03  0.72057417321E+03  0.90822884580E+02 0.  0.
          2    1    3    3  502    0  0.61366670222E+01  0.52548678156E+02 -0.10597982384E+03  0.11845144710E+03  0.00000000000E+00 0. -1.
         -1    1    3    3    0  502  0.12935827359E+01  0.22706644407E+03 -0.18067364798E+03  0.29017892834E+03  0.00000000000E+00 0.  1.
         11    1    5    5    0    0  0.22718511847E+03  0.66760590547E+02  0.15323667029E+03  0.28204881071E+03  0.00000000000E+00 0.  1.
        -11    1    5    5    0    0  0.17524931974E+03 -0.27579551233E+02  0.12021463755E+03  0.21430005786E+03  0.00000000000E+00 0. -1.
          1    1    6    6  503    0 -0.34589004343E+03 -0.24691101702E+03  0.35500082099E+03  0.55374231857E+03  0.00000000000E+00 0. -1.
         -1    1    6    6    0  503 -0.63974644536E+02 -0.71885144518E+02  0.13628146821E+03  0.16683185464E+03  0.00000000000E+00 0.  1.
<mgrwt>
<rscale>  0 0.15536613E+04</rscale>
<asrwt>0</asrwt>
<pdfrwt beam="1">  1        2 0.16181796E+00 0.15536613E+04</pdfrwt>
<pdfrwt beam="2">  1       -1 0.88267177E-01 0.15536613E+04</pdfrwt>
<totfact> 0.32320076E+01</totfact>
</mgrwt>
</event>
<event>
12    6  0.1529770E-007  0.1437884E+04  0.7818608E-02  0.8926843E-01
          2   -1    0    0  501    0  0.00000000000E+00  0.00000000000E+00  0.18463587622E+04  0.18463587622E+04  0.00000000000E+00 0. -1.
         -1   -1    0    0    0  501 -0.00000000000E+00 -0.00000000000E+00 -0.27994443667E+03  0.27994443667E+03  0.00000000000E+00 0.  1.
         24    2    1    2    0    0  0.36930245494E+03 -0.22465020673E+03  0.37827821514E+03  0.57983845220E+03  0.79159358224E+02 0.  0.
        254    2    1    2    0    0 -0.36930245494E+03  0.22465020673E+03  0.11881361104E+04  0.15464647467E+04  0.89052443945E+03 0.  0.
         23    2    4    4    0    0 -0.26620790605E+03 -0.13184945438E+03  0.13104605967E+02  0.31076487224E+03  0.90289242198E+02 0.  0.
         23    2    4    4    0    0 -0.10309454890E+03  0.35649966111E+03  0.11750315044E+04  0.12356998744E+04  0.92383163512E+02 0.  0.
          4    1    3    3  502    0  0.14335043699E+03 -0.78910615063E+02  0.94725451830E+02  0.18907444084E+03  0.00000000000E+00 0. -1.
         -3    1    3    3    0  502  0.22595201795E+03 -0.14573959166E+03  0.28355276331E+03  0.39076401137E+03  0.00000000000E+00 0.  1.
         11    1    5    5    0    0 -0.10838431903E+03 -0.40974272002E+02  0.47851590269E+02  0.12536277864E+03  0.00000000000E+00 0.  1.
        -11    1    5    5    0    0 -0.15782358701E+03 -0.90875182379E+02 -0.34746984302E+02  0.18540209359E+03  0.00000000000E+00 0. -1.
          4    1    6    6  503    0  0.65468950169E+00 -0.24596589604E+01  0.53540969266E+02  0.53601435900E+02  0.00000000000E+00 0.  1.
         -4    1    6    6    0  503 -0.10374923840E+03  0.35895932007E+03  0.11214905351E+04  0.11820984385E+04  0.00000000000E+00 0. -1.
<mgrwt>
<rscale>  0 0.14378844E+04</rscale>
<asrwt>0</asrwt>
<pdfrwt beam="1">  1        2 0.28405519E+00 0.14378844E+04</pdfrwt>
<pdfrwt beam="2">  1       -1 0.43068376E-01 0.14378844E+04</pdfrwt>
<totfact> 0.47796307E+01</totfact>
</mgrwt>
</event>
<event>
12    6  0.1529770E-007  0.1491917E+04  0.7818608E-02  0.8889846E-01
         -1   -1    0    0    0  501 -0.00000000000E+00  0.00000000000E+00  0.28537174980E+03  0.28537174980E+03  0.00000000000E+00 0.  1.
          2   -1    0    0  501    0  0.00000000000E+00 -0.00000000000E+00 -0.19499275202E+04  0.19499275202E+04  0.00000000000E+00 0. -1.
         24    2    1    2    0    0 -0.37358744151E+02  0.44003280680E+03 -0.26099746238E+03  0.52047344736E+03  0.88024923845E+02 0.  0.
        254    2    1    2    0    0  0.37358744151E+02 -0.44003280680E+03 -0.14035583080E+04  0.17148258226E+04  0.88069695762E+03 0.  0.
         23    2    4    4    0    0  0.36913579393E+03  0.47529142066E+02 -0.46642733948E+03  0.60374484797E+03  0.91832046291E+02 0.  0.
         23    2    4    4    0    0 -0.33177704977E+03 -0.48756194886E+03 -0.93713096851E+03  0.11110809747E+04  0.92161897523E+02 0.  0.
          2    1    3    3  502    0 -0.30076040690E+02  0.31041117539E+03 -0.13591560302E+03  0.34019511633E+03  0.00000000000E+00 0. -1.
         -1    1    3    3    0  502 -0.72827034610E+01  0.12962163140E+03 -0.12508185936E+03  0.18027833103E+03  0.00000000000E+00 0.  1.
         11    1    5    5    0    0  0.33243241085E+03  0.48892926233E+02 -0.36617771896E+03  0.49697882036E+03  0.00000000000E+00 0.  1.
        -11    1    5    5    0    0  0.36703383072E+02 -0.13637841668E+01 -0.10024962052E+03  0.10676602761E+03  0.00000000000E+00 0. -1.
          3    1    6    6  503    0 -0.81364240855E+01 -0.57847780440E+02 -0.10630615835E+03  0.12129949052E+03  0.00000000000E+00 0. -1.
         -3    1    6    6    0  503 -0.32364062569E+03 -0.42971416842E+03 -0.83082481017E+03  0.98978148413E+03  0.00000000000E+00 0.  1.
<mgrwt>
<rscale>  0 0.14919172E+04</rscale>
<asrwt>0</asrwt>
<pdfrwt beam="1">  1        2 0.29998886E+00 0.14919172E+04</pdfrwt>
<pdfrwt beam="2">  1       -1 0.43903345E-01 0.14919172E+04</pdfrwt>
<totfact> 0.40242190E+01</totfact>
</mgrwt>
</event>
<event>
12    6  0.1529770E-007  0.2177971E+04  0.7818608E-02  0.8527653E-01
          2   -1    0    0  501    0  0.00000000000E+00  0.00000000000E+00  0.11846703434E+04  0.11846703434E+04  0.00000000000E+00 0. -1.
         -1   -1    0    0    0  501 -0.00000000000E+00 -0.00000000000E+00 -0.10010287720E+04  0.10010287720E+04  0.00000000000E+00 0.  1.
         24    2    1    2    0    0 -0.15898485351E+03 -0.83673859224E+03 -0.20531870698E+03  0.87983064934E+03  0.80861268133E+02 0.  0.
        254    2    1    2    0    0  0.15898485351E+03  0.83673859224E+03  0.38896027839E+03  0.13058684660E+04  0.91027177099E+03 0.  0.
         23    2    4    4    0    0 -0.53002744644E+02 -0.15770954592E+03  0.18444430477E+03  0.26472899620E+03  0.91543148577E+02 0.  0.
         23    2    4    4    0    0  0.21198759815E+03  0.99444813816E+03  0.20451597361E+03  0.10411394698E+04  0.90987751601E+02 0.  0.
          4    1    3    3  502    0 -0.54396447837E+02 -0.17133400437E+03 -0.17795940533E+02  0.18064055494E+03  0.00000000000E+00 0. -1.
         -3    1    3    3    0  502 -0.10458840567E+03 -0.66540458787E+03 -0.18752276645E+03  0.69919009439E+03  0.00000000000E+00 0.  1.
         11    1    5    5    0    0 -0.64787993251E+02 -0.58856393672E+02  0.63806061226E+02  0.10831792370E+03  0.00000000000E+00 0.  1.
        -11    1    5    5    0    0  0.11785248607E+02 -0.98853152250E+02  0.12063824355E+03  0.15641107250E+03  0.00000000000E+00 0. -1.
          2    1    6    6  503    0  0.14549774244E+02  0.12771479102E+02  0.64327481365E+01  0.20400658263E+02  0.00000000000E+00 0.  1.
         -2    1    6    6    0  503  0.19743782391E+03  0.98167665906E+03  0.19808322548E+03  0.10207388116E+04  0.00000000000E+00 0. -1.
<mgrwt>
<rscale>  0 0.21779707E+04</rscale>
<asrwt>0</asrwt>
<pdfrwt beam="1">  1        2 0.18225698E+00 0.21779707E+04</pdfrwt>
<pdfrwt beam="2">  1       -1 0.15400443E+00 0.21779707E+04</pdfrwt>
<totfact> 0.65601724E+00</totfact>
</mgrwt>
</event>
<event>
12    6  0.1529770E-007  0.1473319E+04  0.7818608E-02  0.8902392E-01
          2   -1    0    0  501    0  0.00000000000E+00  0.00000000000E+00  0.12287753069E+04  0.12287753069E+04  0.00000000000E+00 0. -1.
         -1   -1    0    0    0  501 -0.00000000000E+00 -0.00000000000E+00 -0.44163279571E+03  0.44163279571E+03  0.00000000000E+00 0.  1.
         24    2    1    2    0    0  0.31048809887E+03 -0.17495514172E+03  0.57900764422E+03  0.68280762989E+03  0.62962260325E+02 0.  0.
        254    2    1    2    0    0 -0.31048809887E+03  0.17495514172E+03  0.20813486701E+03  0.98760047276E+03  0.89723041064E+03 0.  0.
         23    2    4    4    0    0 -0.50913091114E+03  0.27483921266E+03 -0.10225291321E+03  0.59496288338E+03  0.93671216747E+02 0.  0.
         23    2    4    4    0    0  0.19864281228E+03 -0.99884070944E+02  0.31038778022E+03  0.39263758937E+03  0.91585522767E+02 0.  0.
          2    1    3    3  502    0  0.30303942924E+03 -0.15910045718E+03  0.53145907620E+03  0.63213495460E+03  0.00000000000E+00 0. -1.
         -1    1    3    3    0  502  0.74486696260E+01 -0.15854684535E+02  0.47548568014E+02  0.50672675290E+02  0.00000000000E+00 0.  1.
         11    1    5    5    0    0 -0.28364335290E+03  0.11400799112E+03 -0.21455187218E+02  0.30645015703E+03  0.00000000000E+00 0. -1.
        -11    1    5    5    0    0 -0.22548755825E+03  0.16083122154E+03 -0.80797725991E+02  0.28851272636E+03  0.00000000000E+00 0.  1.
          2    1    6    6  503    0  0.83232878023E+00 -0.24675914295E+02  0.13785941245E+02  0.28278007240E+02  0.00000000000E+00 0. -1.
         -2    1    6    6    0  503  0.19781048350E+03 -0.75208156649E+02  0.29660183898E+03  0.36435958213E+03  0.00000000000E+00 0.  1.
<mgrwt>
<rscale>  0 0.14733193E+04</rscale>
<asrwt>0</asrwt>
<pdfrwt beam="1">  1        2 0.18904235E+00 0.14733193E+04</pdfrwt>
<pdfrwt beam="2">  1       -1 0.67943507E-01 0.14733193E+04</pdfrwt>
<totfact> 0.44080365E+01</totfact>
</mgrwt>
</event>
<event>
12    6  0.1529770E-007  0.1789644E+04  0.7818608E-02  0.8711826E-01
         -1   -1    0    0    0  501 -0.00000000000E+00  0.00000000000E+00  0.66663796036E+03  0.66663796036E+03  0.00000000000E+00 0.  1.
          2   -1    0    0  501    0  0.00000000000E+00 -0.00000000000E+00 -0.12011115469E+04  0.12011115469E+04  0.00000000000E+00 0. -1.
         24    2    1    2    0    0  0.45869910514E+03 -0.26027661579E+03 -0.62199390076E+03  0.81938999505E+03  0.79842129403E+02 0.  0.
        254    2    1    2    0    0 -0.45869910514E+03  0.26027661579E+03  0.87520314240E+02  0.10483595122E+04  0.90180323552E+03 0.  0.
         23    2    4    4    0    0 -0.34441377248E+02 -0.12866822562E+03  0.36762470574E+03  0.40156505465E+03  0.91459543493E+02 0.  0.
         23    2    4    4    0    0 -0.42425772789E+03  0.38894484141E+03 -0.28010439150E+03  0.64679445753E+03  0.92800273798E+02 0.  0.
          2    1    3    3  502    0  0.33891127545E+03 -0.18798284788E+03 -0.50777851053E+03  0.63877806747E+03  0.00000000000E+00 0. -1.
         -1    1    3    3    0  502  0.11978782969E+03 -0.72293767905E+02 -0.11421539023E+03  0.18061192758E+03  0.00000000000E+00 0.  1.
         11    1    5    5    0    0 -0.16345323073E+02 -0.13082921864E+03  0.35676978550E+03  0.38035264411E+03  0.00000000000E+00 0. -1.
        -11    1    5    5    0    0 -0.18096054176E+02  0.21609930193E+01  0.10854920241E+02  0.21212410542E+02  0.00000000000E+00 0.  1.
          3    1    6    6  503    0 -0.38477814456E+03  0.34204730641E+03 -0.27880821154E+03  0.58547809453E+03  0.00000000000E+00 0. -1.
         -3    1    6    6    0  503 -0.39479583327E+02  0.46897534996E+02 -0.12961799648E+01  0.61316362995E+02  0.00000000000E+00 0.  1.
<mgrwt>
<rscale>  0 0.17896442E+04</rscale>
<asrwt>0</asrwt>
<pdfrwt beam="1">  1        2 0.18478639E+00 0.17896442E+04</pdfrwt>
<pdfrwt beam="2">  1       -1 0.10255969E+00 0.17896442E+04</pdfrwt>
<totfact> 0.18322815E+01</totfact>
</mgrwt>
</event>
<event>
12    6  0.1529770E-007  0.1755459E+04  0.7818608E-02  0.8730351E-01
          2   -1    0    0  501    0  0.00000000000E+00  0.00000000000E+00  0.22368340322E+04  0.22368340322E+04  0.00000000000E+00 0. -1.
         -1   -1    0    0    0  501 -0.00000000000E+00 -0.00000000000E+00 -0.34441937017E+03  0.34441937017E+03  0.00000000000E+00 0.  1.
         24    2    1    2    0    0  0.14998454665E+03 -0.31892350457E+03  0.14886348182E+04  0.15319772689E+04  0.81933902835E+02 0.  0.
        254    2    1    2    0    0 -0.14998454665E+03  0.31892350457E+03  0.40377984387E+03  0.10492761335E+04  0.90207243394E+03 0.  0.
         23    2    4    4    0    0  0.30989252223E+03  0.24086124048E+03  0.40878552607E+03  0.57398369885E+03  0.91127206302E+02 0.  0.
         23    2    4    4    0    0 -0.45987706887E+03  0.78062264087E+02 -0.50056822023E+01  0.47529243467E+03  0.91089000711E+02 0.  0.
          2    1    3    3  502    0  0.13110248519E+03 -0.26749635769E+03  0.13585501199E+04  0.13908273046E+04  0.00000000000E+00 0. -1.
         -1    1    3    3    0  502  0.18882061456E+02 -0.51427146874E+02  0.13008469830E+03  0.14114996426E+03  0.00000000000E+00 0.  1.
         11    1    5    5    0    0 -0.53132308479E+01  0.55724299635E+01  0.16413397694E+01  0.78725087475E+01  0.00000000000E+00 0.  1.
        -11    1    5    5    0    0  0.31520575307E+03  0.23528881052E+03  0.40714418630E+03  0.56611119011E+03  0.00000000000E+00 0. -1.
          1    1    6    6  503    0 -0.34957123863E+03  0.23785605440E+02  0.15188580668E+02  0.35070856688E+03  0.00000000000E+00 0. -1.
         -1    1    6    6    0  503 -0.11030583024E+03  0.54276658647E+02 -0.20194262870E+02  0.12458386778E+03  0.00000000000E+00 0.  1.
<mgrwt>
<rscale>  0 0.17554589E+04</rscale>
<asrwt>0</asrwt>
<pdfrwt beam="1">  1        2 0.34412830E+00 0.17554589E+04</pdfrwt>
<pdfrwt beam="2">  1       -1 0.52987597E-01 0.17554589E+04</pdfrwt>
<totfact> 0.19081547E+01</totfact>
</mgrwt>
</event>
<event>
12    6  0.1529770E-007  0.2609666E+04  0.7818608E-02  0.8364925E-01
          2   -1    0    0  501    0  0.00000000000E+00  0.00000000000E+00  0.12175791598E+04  0.12175791598E+04  0.00000000000E+00 0. -1.
         -1   -1    0    0    0  501 -0.00000000000E+00 -0.00000000000E+00 -0.13983396510E+04  0.13983396510E+04  0.00000000000E+00 0.  1.
         24    2    1    2    0    0 -0.82804220110E+03 -0.44750888976E+03  0.58013177250E+03  0.11085329974E+04  0.79840087837E+02 0.  0.
        254    2    1    2    0    0  0.82804220110E+03  0.44750888976E+03 -0.76089226369E+03  0.15073858135E+04  0.89851925992E+03 0.  0.
         23    2    4    4    0    0 -0.16942670404E+03  0.17689432756E+03 -0.18882873831E+03  0.32262903883E+03  0.91848751343E+02 0.  0.
         23    2    4    4    0    0  0.99746890514E+03  0.27061456219E+03 -0.57206352538E+03  0.11847567746E+04  0.90639284800E+02 0.  0.
          2    1    3    3  502    0 -0.77271888220E+03 -0.39639668947E+03  0.52077969238E+03  0.10126382841E+04  0.00000000000E+00 0. -1.
         -1    1    3    3    0  502 -0.55323318903E+02 -0.51112200281E+02  0.59352080111E+02  0.95894713335E+02  0.00000000000E+00 0.  1.
         11    1    5    5    0    0 -0.16360696816E+03  0.16364325840E+03 -0.13721536246E+03  0.26902492774E+03  0.00000000000E+00 0.  1.
        -11    1    5    5    0    0 -0.58197358772E+01  0.13251069165E+02 -0.51613375853E+02  0.53604111099E+02  0.00000000000E+00 0. -1.
          2    1    6    6  503    0  0.41462503463E+03  0.15848982347E+03 -0.23757780895E+03  0.50346415840E+03  0.00000000000E+00 0. -1.
         -2    1    6    6    0  503  0.58284387051E+03  0.11212473872E+03 -0.33448571643E+03  0.68129261622E+03  0.00000000000E+00 0.  1.
<mgrwt>
<rscale>  0 0.26096660E+04</rscale>
<asrwt>0</asrwt>
<pdfrwt beam="1">  1        2 0.18731987E+00 0.26096660E+04</pdfrwt>
<pdfrwt beam="2">  1       -1 0.21512918E+00 0.26096660E+04</pdfrwt>
<totfact> 0.22098936E+00</totfact>
</mgrwt>
</event>
<event>
12    6  0.1529770E-007  0.1303545E+04  0.7818608E-02  0.9026759E-01
         -1   -1    0    0    0  501 -0.00000000000E+00  0.00000000000E+00  0.36725275232E+03  0.36725275232E+03  0.00000000000E+00 0.  1.
          2   -1    0    0  501    0  0.00000000000E+00 -0.00000000000E+00 -0.11567162510E+04  0.11567162510E+04  0.00000000000E+00 0. -1.
         24    2    1    2    0    0  0.12279701741E+03  0.63526460759E+02  0.14242001168E+03  0.22049337694E+03  0.96016409254E+02 0.  0.
        254    2    1    2    0    0 -0.12279701741E+03 -0.63526460759E+02 -0.93188351035E+03  0.13034756264E+04  0.90084799662E+03 0.  0.
         23    2    4    4    0    0  0.34154834524E+03  0.76461049215E+02 -0.17950144069E+03  0.40375632010E+03  0.91086961913E+02 0.  0.
         23    2    4    4    0    0 -0.46434536264E+03 -0.13998750997E+03 -0.75238206966E+03  0.89971930629E+03  0.90570042508E+02 0.  0.
          2    1    3    3  502    0  0.69850174258E+01 -0.22627194138E+02  0.24866191116E+02  0.34338139781E+02  0.00000000000E+00 0. -1.
         -1    1    3    3    0  502  0.11581199998E+03  0.86153654897E+02  0.11755382056E+03  0.18615523715E+03  0.00000000000E+00 0.  1.
         11    1    5    5    0    0  0.30105972653E+03  0.39215363247E+02 -0.16990405809E+03  0.34791118494E+03  0.00000000000E+00 0. -1.
        -11    1    5    5    0    0  0.40488618712E+02  0.37245685968E+02 -0.95973825968E+01  0.55845135161E+02  0.00000000000E+00 0.  1.
          2    1    6    6  503    0 -0.39328661514E+03 -0.11504523851E+03 -0.68731368475E+03  0.80019364519E+03  0.00000000000E+00 0. -1.
         -2    1    6    6    0  503 -0.71058747500E+02 -0.24942271460E+02 -0.65068384907E+02  0.99525661095E+02  0.00000000000E+00 0.  1.
<mgrwt>
<rscale>  0 0.13035447E+04</rscale>
<asrwt>0</asrwt>
<pdfrwt beam="1">  1        2 0.17795635E+00 0.13035447E+04</pdfrwt>
<pdfrwt beam="2">  1       -1 0.56500424E-01 0.13035447E+04</pdfrwt>
<totfact> 0.71241810E+01</totfact>
</mgrwt>
</event>
<event>
12    6  0.1529770E-007  0.1411748E+04  0.7818608E-02  0.8945358E-01
         -1   -1    0    0    0  501 -0.00000000000E+00  0.00000000000E+00  0.16258228041E+03  0.16258228041E+03  0.00000000000E+00 0.  1.
          2   -1    0    0  501    0  0.00000000000E+00 -0.00000000000E+00 -0.30646530948E+04  0.30646530948E+04  0.00000000000E+00 0. -1.
         24    2    1    2    0    0 -0.18417911933E+02 -0.34451009245E+03 -0.34223623448E+03  0.49255661523E+03  0.80373849773E+02 0.  0.
        254    2    1    2    0    0  0.18417911933E+02  0.34451009245E+03 -0.25598345799E+04  0.27346787600E+04  0.89815834938E+03 0.  0.
         23    2    4    4    0    0 -0.35308964575E+03  0.30573628601E+03 -0.19930373753E+04  0.20490958940E+04  0.91918598635E+02 0.  0.
         23    2    4    4    0    0  0.37150755769E+03  0.38773806442E+02 -0.56679720456E+03  0.68558286598E+03  0.96143234552E+02 0.  0.
          2    1    3    3  502    0 -0.36622903613E+01 -0.29271449930E+02 -0.36860736935E+01  0.29729064751E+02  0.00000000000E+00 0. -1.
         -1    1    3    3    0  502 -0.14755621572E+02 -0.31523864252E+03 -0.33855016079E+03  0.46282755048E+03  0.00000000000E+00 0.  1.
         11    1    5    5    0    0 -0.45865591010E+02  0.65978220871E+02 -0.23417078414E+03  0.24757369451E+03  0.00000000000E+00 0.  1.
        -11    1    5    5    0    0 -0.30722405474E+03  0.23975806514E+03 -0.17588665912E+04  0.18015221995E+04  0.00000000000E+00 0. -1.
          3    1    6    6  503    0  0.29765780356E+03  0.59564477705E+02 -0.49404659606E+03  0.57985354539E+03  0.00000000000E+00 0. -1.
         -3    1    6    6    0  503  0.73849754123E+02 -0.20790671263E+02 -0.72750608501E+02  0.10572932059E+03  0.00000000000E+00 0.  1.
<mgrwt>
<rscale>  0 0.14117483E+04</rscale>
<asrwt>0</asrwt>
<pdfrwt beam="1">  1        2 0.47148508E+00 0.14117483E+04</pdfrwt>
<pdfrwt beam="2">  1       -1 0.25012659E-01 0.14117483E+04</pdfrwt>
<totfact> 0.24807917E+01</totfact>
</mgrwt>
</event>
<event>
12    6  0.1529770E-007  0.2271757E+04  0.7818608E-02  0.8489141E-01
         -1   -1    0    0    0  501 -0.00000000000E+00  0.00000000000E+00  0.68728929987E+03  0.68728929987E+03  0.00000000000E+00 0.  1.
          2   -1    0    0  501    0  0.00000000000E+00 -0.00000000000E+00 -0.18772585454E+04  0.18772585454E+04  0.00000000000E+00 0. -1.
         24    2    1    2    0    0  0.37175905970E+03  0.81903323187E+03 -0.85757992804E+03  0.12454360543E+04  0.81531582539E+02 0.  0.
        254    2    1    2    0    0 -0.37175905970E+03 -0.81903323187E+03 -0.33238931750E+03  0.13191117910E+04  0.90584381952E+03 0.  0.
         23    2    4    4    0    0  0.20779055959E+03  0.46396164634E+02 -0.82660225264E+02  0.24407092584E+03  0.86071965525E+02 0.  0.
         23    2    4    4    0    0 -0.57954961930E+03 -0.86542939650E+03 -0.24972909223E+03  0.10750408652E+04  0.92208680067E+02 0.  0.
          4    1    3    3  502    0  0.32145703954E+03  0.68833126469E+03 -0.68258982002E+03  0.10213047638E+04  0.00000000000E+00 0. -1.
         -1    1    3    3    0  502  0.50302020166E+02  0.13070196718E+03 -0.17499010801E+03  0.22413129045E+03  0.00000000000E+00 0.  1.
         11    1    5    5    0    0  0.19476038439E+02 -0.99186128873E+01 -0.35901512734E+02  0.42031102430E+02  0.00000000000E+00 0.  1.
        -11    1    5    5    0    0  0.18831452115E+03  0.56314777521E+02 -0.46758712530E+02  0.20203982341E+03  0.00000000000E+00 0. -1.
          3    1    6    6  503    0 -0.53946241943E+03 -0.76778512614E+03 -0.24280324787E+03  0.96926112017E+03  0.00000000000E+00 0. -1.
         -3    1    6    6    0  503 -0.40087199865E+02 -0.97644270363E+02 -0.69258443615E+01  0.10577974498E+03  0.00000000000E+00 0.  1.
<mgrwt>
<rscale>  0 0.22717568E+04</rscale>
<asrwt>0</asrwt>
<pdfrwt beam="1">  1        2 0.28880901E+00 0.22717568E+04</pdfrwt>
<pdfrwt beam="2">  1       -1 0.10573681E+00 0.22717568E+04</pdfrwt>
<totfact> 0.67726458E+00</totfact>
</mgrwt>
</event>
<event>
12    6  0.1529770E-007  0.1988196E+04  0.7818608E-02  0.8612159E-01
         -1   -1    0    0    0  501 -0.00000000000E+00  0.00000000000E+00  0.23006284719E+04  0.23006284719E+04  0.00000000000E+00 0.  1.
          2   -1    0    0  501    0  0.00000000000E+00 -0.00000000000E+00 -0.42954825973E+03  0.42954825973E+03  0.00000000000E+00 0. -1.
         24    2    1    2    0    0  0.28607486003E+02  0.40756339916E+03 -0.17816323053E+03  0.45252410228E+03  0.78164018798E+02 0.  0.
        254    2    1    2    0    0 -0.28607486003E+02 -0.40756339916E+03  0.20492434427E+04  0.22776526293E+04  0.90629824008E+03 0.  0.
         23    2    4    4    0    0  0.71584576836E+02 -0.45318885740E+03  0.20793484205E+04  0.21312779220E+04  0.90284190713E+02 0.  0.
         23    2    4    4    0    0 -0.10019206284E+03  0.45625458234E+02 -0.30104977812E+02  0.14637470729E+03  0.91646676706E+02 0.  0.
          2    1    3    3  502    0  0.18605565979E+02  0.39020486078E+03 -0.15109940743E+03  0.41885203997E+03  0.00000000000E+00 0. -1.
         -1    1    3    3    0  502  0.10001920024E+02  0.17358538380E+02 -0.27063823101E+02  0.33672062303E+02  0.00000000000E+00 0.  1.
         11    1    5    5    0    0  0.52775443283E+02 -0.37922173509E+03  0.18609285656E+04  0.18999077604E+04  0.00000000000E+00 0.  1.
        -11    1    5    5    0    0  0.18809133553E+02 -0.73967122306E+02  0.21841985488E+03  0.23137016163E+03  0.00000000000E+00 0. -1.
          3    1    6    6  503    0 -0.97909522222E+02  0.16704975931E+02  0.66540856750E+01  0.99547012104E+02  0.00000000000E+00 0. -1.
         -3    1    6    6    0  503 -0.22825406165E+01  0.28920482303E+02 -0.36759063487E+02  0.46827695189E+02  0.00000000000E+00 0.  1.
<mgrwt>
<rscale>  0 0.19881961E+04</rscale>
<asrwt>0</asrwt>
<pdfrwt beam="1">  1        2 0.66084349E-01 0.19881961E+04</pdfrwt>
<pdfrwt beam="2">  1       -1 0.35394283E+00 0.19881961E+04</pdfrwt>
<totfact> 0.11421141E+00</totfact>
</mgrwt>
</event>
<event>
12    6  0.1529770E-007  0.1180679E+04  0.7818608E-02  0.9129938E-01
          2   -1    0    0  501    0  0.00000000000E+00  0.00000000000E+00  0.15867690000E+04  0.15867690000E+04  0.00000000000E+00 0. -1.
         -1   -1    0    0    0  501 -0.00000000000E+00 -0.00000000000E+00 -0.21962922869E+03  0.21962922869E+03  0.00000000000E+00 0.  1.
         24    2    1    2    0    0 -0.13507444240E+03  0.51989447993E+02 -0.64837307426E+01  0.16611541165E+03  0.81266743090E+02 0.  0.
        254    2    1    2    0    0  0.13507444240E+03 -0.51989447993E+02  0.13736235021E+04  0.16402828170E+04  0.88472492152E+03 0.  0.
         23    2    4    4    0    0  0.20623558260E+03 -0.25578706843E+03  0.13626398821E+04  0.14047370579E+04  0.92404618028E+02 0.  0.
         23    2    4    4    0    0 -0.71161140205E+02  0.20379762044E+03  0.10983619917E+02  0.23554575917E+03  0.93615099118E+02 0.  0.
          2    1    3    3  502    0 -0.63098994568E+02 -0.16860600654E+02  0.66481423213E+01  0.65650291440E+02  0.00000000000E+00 0. -1.
         -1    1    3    3    0  502 -0.71975447833E+02  0.68850048647E+02 -0.13131873064E+02  0.10046512021E+03  0.00000000000E+00 0.  1.
         11    1    5    5    0    0  0.18361081255E+01  0.73832125054E+01  0.43531077084E+02  0.44190924317E+02  0.00000000000E+00 0.  1.
        -11    1    5    5    0    0  0.20439947448E+03 -0.26317028094E+03  0.13191088051E+04  0.13605461335E+04  0.00000000000E+00 0. -1.
          2    1    6    6  503    0 -0.91218765557E+02  0.14626269169E+03  0.21506403721E+02  0.17371287681E+03  0.00000000000E+00 0. -1.
         -2    1    6    6    0  503  0.20057625352E+02  0.57534928751E+02 -0.10522783804E+02  0.61832882353E+02  0.00000000000E+00 0.  1.
<mgrwt>
<rscale>  0 0.11806792E+04</rscale>
<asrwt>0</asrwt>
<pdfrwt beam="1">  1        2 0.24411830E+00 0.11806792E+04</pdfrwt>
<pdfrwt beam="2">  1       -1 0.33789113E-01 0.11806792E+04</pdfrwt>
<totfact> 0.10549155E+02</totfact>
</mgrwt>
</event>
<event>
12    6  0.1529770E-007  0.1121459E+04  0.7818608E-02  0.9184526E-01
          2   -1    0    0  501    0  0.00000000000E+00  0.00000000000E+00  0.21605903168E+03  0.21605903168E+03  0.00000000000E+00 0. -1.
         -1   -1    0    0    0  501 -0.00000000000E+00 -0.00000000000E+00 -0.14552381458E+04  0.14552381458E+04  0.00000000000E+00 0.  1.
         24    2    1    2    0    0  0.71310853980E+02  0.10999644840E+00 -0.48037493367E+03  0.49217654346E+03  0.79952629976E+02 0.  0.
        254    2    1    2    0    0 -0.71310853980E+02 -0.10999644840E+00 -0.75880418046E+03  0.11791206340E+04  0.89969796894E+03 0.  0.
         23    2    4    4    0    0  0.32348253049E+03 -0.21547041715E+03 -0.53460565271E+03  0.66715541349E+03  0.90690096722E+02 0.  0.
         23    2    4    4    0    0 -0.39479338447E+03  0.21536042070E+03 -0.22419852776E+03  0.51196522054E+03  0.97987141844E+02 0.  0.
          2    1    3    3  502    0  0.69481520052E+02  0.20249176885E+02 -0.23310856444E+03  0.24408464436E+03  0.00000000000E+00 0. -1.
         -1    1    3    3    0  502  0.18293339279E+01 -0.20139180437E+02 -0.24726636922E+03  0.24809189910E+03  0.00000000000E+00 0.  1.
         11    1    5    5    0    0  0.20597391845E+03 -0.15529628912E+03 -0.28237080365E+03  0.38245975377E+03  0.00000000000E+00 0.  1.
        -11    1    5    5    0    0  0.11750861203E+03 -0.60174128036E+02 -0.25223484905E+03  0.28469565972E+03  0.00000000000E+00 0. -1.
          1    1    6    6  503    0 -0.18734544268E+03  0.10430068936E+03 -0.52727359322E+02  0.22081015174E+03  0.00000000000E+00 0. -1.
         -1    1    6    6    0  503 -0.20744794179E+03  0.11105973135E+03 -0.17147116843E+03  0.29115506879E+03  0.00000000000E+00 0.  1.
<mgrwt>
<rscale>  0 0.11214586E+04</rscale>
<asrwt>0</asrwt>
<pdfrwt beam="1">  1        2 0.33239852E-01 0.11214586E+04</pdfrwt>
<pdfrwt beam="2">  1       -1 0.22388278E+00 0.11214586E+04</pdfrwt>
<totfact> 0.18735382E+01</totfact>
</mgrwt>
</event>
<event>
12    6  0.1803439E-007  0.1986889E+04  0.7818608E-02  0.8612775E-01
         -1   -1    0    0    0  501 -0.00000000000E+00  0.00000000000E+00  0.58372903313E+03  0.58372903313E+03  0.00000000000E+00 0.  1.
          2   -1    0    0  501    0  0.00000000000E+00 -0.00000000000E+00 -0.16907362154E+04  0.16907362154E+04  0.00000000000E+00 0. -1.
         24    2    1    2    0    0 -0.50895222662E+03  0.52619070490E+03 -0.78367076952E+03  0.10750663524E+04  0.75622484114E+02 0.  0.
        254    2    1    2    0    0  0.50895222662E+03 -0.52619070490E+03 -0.32333641279E+03  0.11993988962E+04  0.89336568629E+03 0.  0.
         23    2    4    4    0    0  0.40598710519E+03 -0.75973352312E+03 -0.33514317001E+03  0.92885123569E+03  0.91777545693E+02 0.  0.
         23    2    4    4    0    0  0.10296512143E+03  0.23354281822E+03  0.11806757222E+02  0.27054766050E+03  0.88952644219E+02 0.  0.
          4    1    3    3  502    0 -0.49921269434E+03  0.49560881516E+03 -0.74174034330E+03  0.10222622700E+04  0.00000000000E+00 0. -1.
         -3    1    3    3    0  502 -0.97395322835E+01  0.30581889732E+02 -0.41930426225E+02  0.52804082343E+02  0.00000000000E+00 0.  1.
         11    1    5    5    0    0  0.30068565264E+03 -0.63621384730E+03 -0.26307102038E+03  0.75125646950E+03  0.00000000000E+00 0. -1.
        -11    1    5    5    0    0  0.10530145256E+03 -0.12351967582E+03 -0.72072149629E+02  0.17759476619E+03  0.00000000000E+00 0.  1.
          3    1    6    6  503    0  0.11778579856E+03  0.20781808618E+03  0.20105925183E+02  0.23972087834E+03  0.00000000000E+00 0. -1.
         -3    1    6    6    0  503 -0.14820677136E+02  0.25724732045E+02 -0.82991679603E+01  0.30826782160E+02  0.00000000000E+00 0.  1.
<mgrwt>
<rscale>  0 0.19868888E+04</rscale>
<asrwt>0</asrwt>
<pdfrwt beam="1">  1        2 0.26011326E+00 0.19868888E+04</pdfrwt>
<pdfrwt beam="2">  1       -1 0.89804467E-01 0.19868888E+04</pdfrwt>
<totfact> 0.12759387E+01</totfact>
</mgrwt>
</event>
<event>
12    6  0.1529770E-007  0.2817077E+04  0.7818608E-02  0.8297986E-01
          2   -1    0    0  501    0  0.00000000000E+00  0.00000000000E+00  0.31848900918E+04  0.31848900918E+04  0.00000000000E+00 0. -1.
         -1   -1    0    0    0  501 -0.00000000000E+00 -0.00000000000E+00 -0.62293535150E+03  0.62293535150E+03  0.00000000000E+00 0.  1.
         24    2    1    2    0    0 -0.91097562129E+03 -0.69232955464E+03  0.42463338862E+03  0.12236604997E+04  0.88513890866E+02 0.  0.
        254    2    1    2    0    0  0.91097562129E+03  0.69232955464E+03  0.21373213517E+04  0.25841649436E+04  0.89474527143E+03 0.  0.
         23    2    4    4    0    0  0.10161400012E+04  0.68165877997E+03  0.15320258201E+04  0.19627618622E+04  0.90176602603E+02 0.  0.
         23    2    4    4    0    0 -0.10516437991E+03  0.10670774674E+02  0.60529553157E+03  0.62140308149E+03  0.92659035794E+02 0.  0.
          2    1    3    3  502    0 -0.31076048587E+03 -0.18958487970E+03  0.11576654559E+03  0.38199005127E+03  0.00000000000E+00 0. -1.
         -1    1    3    3    0  502 -0.60021513542E+03 -0.50274467495E+03  0.30886684303E+03  0.84167044839E+03  0.00000000000E+00 0.  1.
         11    1    5    5    0    0  0.78944518106E+03  0.49973448185E+03  0.12140901755E+04  0.15319834205E+04  0.00000000000E+00 0. -1.
        -11    1    5    5    0    0  0.22669482014E+03  0.18192429812E+03  0.31793564458E+03  0.43077844168E+03  0.00000000000E+00 0.  1.
          2    1    6    6  503    0 -0.62531388084E+02 -0.37293563474E+02  0.25116038077E+03  0.26150051863E+03  0.00000000000E+00 0. -1.
         -2    1    6    6    0  503 -0.42632991824E+02  0.47964338148E+02  0.35413515080E+03  0.35990256287E+03  0.00000000000E+00 0.  1.
<mgrwt>
<rscale>  0 0.28170769E+04</rscale>
<asrwt>0</asrwt>
<pdfrwt beam="1">  1        2 0.48998308E+00 0.28170769E+04</pdfrwt>
<pdfrwt beam="2">  1       -1 0.95836210E-01 0.28170769E+04</pdfrwt>
<totfact> 0.13746940E+00</totfact>
</mgrwt>
</event>
<event>
12    6  0.1529770E-007  0.1651945E+04  0.7818608E-02  0.8789257E-01
          2   -1    0    0  501    0  0.00000000000E+00  0.00000000000E+00  0.19186086206E+04  0.19186086206E+04  0.00000000000E+00 0. -1.
         -1   -1    0    0    0  501 -0.00000000000E+00 -0.00000000000E+00 -0.35558593753E+03  0.35558593753E+03  0.00000000000E+00 0.  1.
         24    2    1    2    0    0 -0.56475781260E+03  0.10354405133E+03  0.55175634631E+03  0.80018890461E+03  0.78704891210E+02 0.  0.
        254    2    1    2    0    0  0.56475781260E+03 -0.10354405133E+03  0.10112663367E+04  0.14740056535E+04  0.90573743727E+03 0.  0.
         23    2    4    4    0    0 -0.43091399329E+02 -0.25423712366E+03  0.73268427887E+03  0.78239751179E+03  0.93948018658E+02 0.  0.
         23    2    4    4    0    0  0.60784921193E+03  0.15069307233E+03  0.27858205786E+03  0.69160814171E+03  0.92329801368E+02 0.  0.
          2    1    3    3  502    0 -0.11040963670E+03 -0.11057096862E+02  0.10535868769E+03  0.15301307245E+03  0.00000000000E+00 0. -1.
         -1    1    3    3    0  502 -0.45434817590E+03  0.11460114819E+03  0.44639765862E+03  0.64717583216E+03  0.00000000000E+00 0.  1.
         11    1    5    5    0    0 -0.31730283100E+02 -0.12014463511E+03  0.48331444079E+03  0.49903345869E+03  0.00000000000E+00 0. -1.
        -11    1    5    5    0    0 -0.11361116229E+02 -0.13409248855E+03  0.24936983807E+03  0.28336405310E+03  0.00000000000E+00 0.  1.
          4    1    6    6  503    0  0.46046612332E+02  0.24631011293E+02  0.49449669195E+02  0.71918335688E+02  0.00000000000E+00 0.  1.
         -4    1    6    6    0  503  0.56180259960E+03  0.12606206104E+03  0.22913238867E+03  0.61968980602E+03  0.00000000000E+00 0. -1.
<mgrwt>
<rscale>  0 0.16519446E+04</rscale>
<asrwt>0</asrwt>
<pdfrwt beam="1">  1        2 0.29517055E+00 0.16519446E+04</pdfrwt>
<pdfrwt beam="2">  1       -1 0.54705530E-01 0.16519446E+04</pdfrwt>
<totfact> 0.27235752E+01</totfact>
</mgrwt>
</event>
<event>
12    6  0.1529770E-007  0.2866458E+04  0.7818608E-02  0.8282928E-01
          2   -1    0    0  501    0  0.00000000000E+00  0.00000000000E+00  0.79017660272E+03  0.79017660272E+03  0.00000000000E+00 0. -1.
         -1   -1    0    0    0  501 -0.00000000000E+00 -0.00000000000E+00 -0.25996032200E+04  0.25996032200E+04  0.00000000000E+00 0.  1.
         24    2    1    2    0    0 -0.65260847559E+03 -0.10188081588E+04 -0.28764260453E+03  0.12462653154E+04  0.81062207787E+02 0.  0.
        254    2    1    2    0    0  0.65260847559E+03  0.10188081588E+04 -0.15217840128E+04  0.21435145073E+04  0.90275133598E+03 0.  0.
         23    2    4    4    0    0  0.78205079965E+03  0.96999704238E+03 -0.15323857076E+04  0.19771102905E+04  0.90892400767E+02 0.  0.
         23    2    4    4    0    0 -0.12944232406E+03  0.48811116468E+02  0.10601694867E+02  0.16640421678E+03  0.91870164250E+02 0.  0.
          4    1    3    3  502    0 -0.57314674227E+03 -0.85357196949E+03 -0.22470187449E+03  0.10524130499E+04  0.00000000000E+00 0. -1.
         -3    1    3    3    0  502 -0.79461733318E+02 -0.16523618936E+03 -0.62940730037E+02  0.19385226549E+03  0.00000000000E+00 0.  1.
         11    1    5    5    0    0  0.23907339576E+03  0.33574802306E+03 -0.56271132502E+03  0.69751477322E+03  0.00000000000E+00 0.  1.
        -11    1    5    5    0    0  0.54297740389E+03  0.63424901932E+03 -0.96967438261E+03  0.12795955173E+04  0.00000000000E+00 0. -1.
          1    1    6    6  503    0 -0.96272125264E+02  0.35586449247E+02 -0.35038262820E+02  0.10845458651E+03  0.00000000000E+00 0. -1.
         -1    1    6    6    0  503 -0.33170198799E+02  0.13224667221E+02  0.45639957687E+02  0.57949630276E+02  0.00000000000E+00 0.  1.
<mgrwt>
<rscale>  0 0.28664582E+04</rscale>
<asrwt>0</asrwt>
<pdfrwt beam="1">  1        2 0.12156563E+00 0.28664582E+04</pdfrwt>
<pdfrwt beam="2">  1       -1 0.39993895E+00 0.28664582E+04</pdfrwt>
<totfact> 0.24727259E-01</totfact>
</mgrwt>
</event>
<event>
12    6  0.1529770E-007  0.2261981E+04  0.7818608E-02  0.8493064E-01
         -1   -1    0    0    0  501 -0.00000000000E+00  0.00000000000E+00  0.11024962280E+04  0.11024962280E+04  0.00000000000E+00 0.  1.
          2   -1    0    0  501    0  0.00000000000E+00 -0.00000000000E+00 -0.11602209278E+04  0.11602209278E+04  0.00000000000E+00 0. -1.
         24    2    1    2    0    0 -0.85685564390E+02  0.66799924755E+03 -0.70977035662E+03  0.98165073616E+03  0.79367487048E+02 0.  0.
        254    2    1    2    0    0  0.85685564390E+02 -0.66799924755E+03  0.65204565682E+03  0.12810664196E+04  0.87315669973E+03 0.  0.
         23    2    4    4    0    0  0.24879182526E+03 -0.57515273587E+03  0.80367166093E+03  0.10231281809E+04  0.90581974135E+02 0.  0.
         23    2    4    4    0    0 -0.16310626087E+03 -0.92846511675E+02 -0.15162600411E+03  0.25793823876E+03  0.91200673404E+02 0.  0.
          2    1    3    3  502    0 -0.35567279374E+02  0.53127216896E+03 -0.55250672460E+03  0.76731924881E+03  0.00000000000E+00 0. -1.
         -1    1    3    3    0  502 -0.50118285016E+02  0.13672707859E+03 -0.15726363203E+03  0.21433148735E+03  0.00000000000E+00 0.  1.
         11    1    5    5    0    0  0.17504037551E+03 -0.29349675595E+03  0.41856332466E+03  0.54034686597E+03  0.00000000000E+00 0.  1.
        -11    1    5    5    0    0  0.73751449749E+02 -0.28165597992E+03  0.38510833626E+03  0.48278131491E+03  0.00000000000E+00 0. -1.
          1    1    6    6  503    0 -0.77884632980E+02 -0.12445148226E+02 -0.10618280913E+03  0.13227126190E+03  0.00000000000E+00 0. -1.
         -1    1    6    6    0  503 -0.85221627889E+02 -0.80401363450E+02 -0.45443194973E+02  0.12566697686E+03  0.00000000000E+00 0.  1.
<mgrwt>
<rscale>  0 0.22619807E+04</rscale>
<asrwt>0</asrwt>
<pdfrwt beam="1">  1        2 0.17849553E+00 0.22619807E+04</pdfrwt>
<pdfrwt beam="2">  1       -1 0.16961481E+00 0.22619807E+04</pdfrwt>
<totfact> 0.51395749E+00</totfact>
</mgrwt>
</event>
<event>
12    6  0.1529770E-007  0.1589794E+04  0.7818608E-02  0.8826842E-01
         -1   -1    0    0    0  501 -0.00000000000E+00  0.00000000000E+00  0.75770735249E+03  0.75770735249E+03  0.00000000000E+00 0.  1.
          2   -1    0    0  501    0  0.00000000000E+00 -0.00000000000E+00 -0.83391249675E+03  0.83391249675E+03  0.00000000000E+00 0. -1.
         24    2    1    2    0    0  0.37382679203E+03 -0.31232850135E+03  0.21160496028E+03  0.53689568648E+03  0.78643218080E+02 0.  0.
        254    2    1    2    0    0 -0.37382679203E+03  0.31232850135E+03 -0.28781010454E+03  0.10547241628E+04  0.89011956503E+03 0.  0.
         23    2    4    4    0    0 -0.20142741630E+03  0.32386402434E+03 -0.58230626415E+03  0.70196350441E+03  0.90616035862E+02 0.  0.
         23    2    4    4    0    0 -0.17239937573E+03 -0.11535522991E+02  0.29449615961E+03  0.35276065835E+03  0.88642433475E+02 0.  0.
          2    1    3    3  502    0  0.14230257069E+03 -0.14317505136E+03  0.50838057937E+02  0.20816730073E+03  0.00000000000E+00 0. -1.
         -1    1    3    3    0  502  0.23152422134E+03 -0.16915344999E+03  0.16076690235E+03  0.32872838575E+03  0.00000000000E+00 0.  1.
         11    1    5    5    0    0 -0.17120629261E+03  0.31750303216E+03 -0.54450561412E+03  0.65315092733E+03  0.00000000000E+00 0. -1.
        -11    1    5    5    0    0 -0.30221123689E+02  0.63609921748E+01 -0.37800650030E+02  0.48812577079E+02  0.00000000000E+00 0.  1.
          1    1    6    6  503    0 -0.12346882984E+03  0.13581744927E+02  0.13220728665E+03  0.18140502303E+03  0.00000000000E+00 0. -1.
         -1    1    6    6    0  503 -0.48930545886E+02 -0.25117267918E+02  0.16228887297E+03  0.17135563532E+03  0.00000000000E+00 0.  1.
<mgrwt>
<rscale>  0 0.15897945E+04</rscale>
<asrwt>0</asrwt>
<pdfrwt beam="1">  1        2 0.12829423E+00 0.15897945E+04</pdfrwt>
<pdfrwt beam="2">  1       -1 0.11657036E+00 0.15897945E+04</pdfrwt>
<totfact> 0.23714590E+01</totfact>
</mgrwt>
</event>
<event>
12    6  0.1529770E-007  0.2491934E+04  0.7818608E-02  0.8405865E-01
          2   -1    0    0  501    0  0.00000000000E+00  0.00000000000E+00  0.26478029918E+04  0.26478029918E+04  0.00000000000E+00 0. -1.
         -1   -1    0    0    0  501 -0.00000000000E+00 -0.00000000000E+00 -0.58630994454E+03  0.58630994454E+03  0.00000000000E+00 0.  1.
         24    2    1    2    0    0 -0.91045315841E+03 -0.89478913521E+02  0.16434714179E+04  0.18831148855E+04  0.90509342097E+02 0.  0.
        254    2    1    2    0    0  0.91045315841E+03  0.89478913521E+02  0.41802162941E+03  0.13509980509E+04  0.90195466690E+03 0.  0.
         23    2    4    4    0    0  0.33909074515E+03  0.46132193851E+03  0.29886621732E+03  0.65294504321E+03  0.95998693680E+02 0.  0.
         23    2    4    4    0    0  0.57136241325E+03 -0.37184302499E+03  0.11915541209E+03  0.69805300765E+03  0.91420712906E+02 0.  0.
          4    1    3    3  502    0 -0.77202945801E+03 -0.42939056211E+02  0.13754895280E+04  0.15779241706E+04  0.00000000000E+00 0. -1.
         -3    1    3    3    0  502 -0.13842370040E+03 -0.46539857310E+02  0.26798188987E+03  0.30519071488E+03  0.00000000000E+00 0.  1.
         11    1    5    5    0    0  0.70836709437E+02  0.15455475147E+03  0.58349824337E+02  0.17974902672E+03  0.00000000000E+00 0. -1.
        -11    1    5    5    0    0  0.26825403572E+03  0.30676718704E+03  0.24051639299E+03  0.47319601648E+03  0.00000000000E+00 0.  1.
          2    1    6    6  503    0  0.28612696952E+03 -0.13248591147E+03  0.61606497867E+02  0.32127327932E+03  0.00000000000E+00 0. -1.
         -2    1    6    6    0  503  0.28523544373E+03 -0.23935711352E+03  0.57548914220E+02  0.37677972833E+03  0.00000000000E+00 0.  1.
<mgrwt>
<rscale>  0 0.24919336E+04</rscale>
<asrwt>0</asrwt>
<pdfrwt beam="1">  1        2 0.40735430E+00 0.24919336E+04</pdfrwt>
<pdfrwt beam="2">  1       -1 0.90201531E-01 0.24919336E+04</pdfrwt>
<totfact> 0.34791068E+00</totfact>
</mgrwt>
</event>
<event>
12    6  0.1529770E-007  0.3813997E+04  0.7818608E-02  0.8043158E-01
          2   -1    0    0  501    0  0.00000000000E+00  0.00000000000E+00  0.10723581056E+04  0.10723581056E+04  0.00000000000E+00 0. -1.
         -1   -1    0    0    0  501 -0.00000000000E+00 -0.00000000000E+00 -0.33912589122E+04  0.33912589122E+04  0.00000000000E+00 0.  1.
         24    2    1    2    0    0 -0.17336291175E+04 -0.31995712790E+03 -0.67054982410E+03  0.18880664967E+04  0.85530980247E+02 0.  0.
        254    2    1    2    0    0  0.17336291175E+04  0.31995712790E+03 -0.16483509825E+04  0.25755505212E+04  0.89919800089E+03 0.  0.
         23    2    4    4    0    0  0.42398344550E+03  0.47421520967E+03 -0.39721878817E+03  0.75550815342E+03  0.91475554477E+02 0.  0.
         23    2    4    4    0    0  0.13096456720E+04 -0.15425808177E+03 -0.12511321943E+04  0.18200423677E+04  0.90857639735E+02 0.  0.
          2    1    3    3  502    0 -0.14669949083E+04 -0.28513785645E+03 -0.59708965522E+03  0.16093146723E+04  0.00000000000E+00 0. -1.
         -1    1    3    3    0  502 -0.26663420921E+03 -0.34819271450E+02 -0.73460168885E+02  0.27875182438E+03  0.00000000000E+00 0.  1.
         11    1    5    5    0    0  0.22716032567E+03  0.21581216089E+03 -0.23970740392E+03  0.39450772089E+03  0.00000000000E+00 0. -1.
        -11    1    5    5    0    0  0.19682311983E+03  0.25840304879E+03 -0.15751138425E+03  0.36100043254E+03  0.00000000000E+00 0.  1.
          1    1    6    6  503    0  0.28544259506E+03 -0.66378053402E+02 -0.25165977828E+03  0.38628508261E+03  0.00000000000E+00 0. -1.
         -1    1    6    6    0  503  0.10242030770E+04 -0.87880028371E+02 -0.99947241605E+03  0.14337572851E+04  0.00000000000E+00 0.  1.
<mgrwt>
<rscale>  0 0.38139974E+04</rscale>
<asrwt>0</asrwt>
<pdfrwt beam="1">  1        2 0.16497817E+00 0.38139974E+04</pdfrwt>
<pdfrwt beam="2">  1       -1 0.52173214E+00 0.38139974E+04</pdfrwt>
<totfact> 0.22530500E-02</totfact>
</mgrwt>
</event>
<event>
12    6  0.1529770E-007  0.1200768E+04  0.7818608E-02  0.9112185E-01
          2   -1    0    0  501    0  0.00000000000E+00  0.00000000000E+00  0.87987088426E+03  0.87987088426E+03  0.00000000000E+00 0. -1.
         -1   -1    0    0    0  501 -0.00000000000E+00 -0.00000000000E+00 -0.40967482940E+03  0.40967482940E+03  0.00000000000E+00 0.  1.
         24    2    1    2    0    0  0.65689327550E+02  0.10952268678E+03 -0.11897808547E+03  0.19167999841E+03  0.79215720000E+02 0.  0.
        254    2    1    2    0    0 -0.65689327550E+02 -0.10952268678E+03  0.58917414032E+03  0.10978657153E+04  0.91753618699E+03 0.  0.
         23    2    4    4    0    0  0.22919210172E+03  0.29047254112E+03  0.41440274597E+03  0.56282576842E+03  0.90221356064E+02 0.  0.
         23    2    4    4    0    0 -0.29488142927E+03 -0.39999522790E+03  0.17477139435E+03  0.53503994683E+03  0.93656098339E+02 0.  0.
          4    1    3    3  502    0  0.11605186886E+02  0.46114087673E+02 -0.14150037397E+01  0.47573014201E+02  0.00000000000E+00 0. -1.
         -3    1    3    3    0  502  0.54084140664E+02  0.63408599105E+02 -0.11756308173E+03  0.14410698421E+03  0.00000000000E+00 0.  1.
         11    1    5    5    0    0  0.15720593182E+03  0.15868437068E+03  0.30010450171E+03  0.37410846883E+03  0.00000000000E+00 0. -1.
        -11    1    5    5    0    0  0.71986169894E+02  0.13178817044E+03  0.11429824426E+03  0.18871729959E+03  0.00000000000E+00 0.  1.
          4    1    6    6  503    0 -0.20996825952E+03 -0.20806687519E+03  0.10994504917E+03  0.31538295514E+03  0.00000000000E+00 0. -1.
         -4    1    6    6    0  503 -0.84913169750E+02 -0.19192835271E+03  0.64826345175E+02  0.21965699169E+03  0.00000000000E+00 0.  1.
<mgrwt>
<rscale>  0 0.12007680E+04</rscale>
<asrwt>0</asrwt>
<pdfrwt beam="1">  1        2 0.13536475E+00 0.12007680E+04</pdfrwt>
<pdfrwt beam="2">  1       -1 0.63026897E-01 0.12007680E+04</pdfrwt>
<totfact> 0.87019491E+01</totfact>
</mgrwt>
</event>
<event>
12    6  0.1529770E-007  0.1506488E+04  0.7818608E-02  0.8880150E-01
          2   -1    0    0  501    0  0.00000000000E+00  0.00000000000E+00  0.20899153955E+04  0.20899153955E+04  0.00000000000E+00 0. -1.
         -1   -1    0    0    0  501 -0.00000000000E+00 -0.00000000000E+00 -0.27148305601E+03  0.27148305601E+03  0.00000000000E+00 0.  1.
         24    2    1    2    0    0  0.13623671826E+01  0.41784256542E+03  0.73490960203E+03  0.84884656569E+03  0.76512112790E+02 0.  0.
        254    2    1    2    0    0 -0.13623671826E+01 -0.41784256542E+03  0.10835227374E+04  0.15125518858E+04  0.96912198364E+03 0.  0.
         23    2    4    4    0    0 -0.44023937109E+03 -0.24711141790E+02  0.56970505326E+03  0.72536823425E+03  0.84698779004E+02 0.  0.
         23    2    4    4    0    0  0.43887700391E+03 -0.39313142363E+03  0.51381768415E+03  0.78718365153E+03  0.92109434294E+02 0.  0.
          4    1    3    3  502    0  0.65264086074E+01  0.24917084122E+03  0.36179593175E+03  0.43934610315E+03  0.00000000000E+00 0. -1.
         -3    1    3    3    0  502 -0.51640414248E+01  0.16867172420E+03  0.37311367028E+03  0.40950046254E+03  0.00000000000E+00 0.  1.
         11    1    5    5    0    0 -0.23102121890E+02  0.10266951609E+02  0.64481012750E+02  0.69259795960E+02  0.00000000000E+00 0.  1.
        -11    1    5    5    0    0 -0.41713724920E+03 -0.34978093398E+02  0.50522404051E+03  0.65610843829E+03  0.00000000000E+00 0. -1.
          3    1    6    6  503    0  0.62274293610E+02 -0.39992426970E+02  0.10594058237E+03  0.12923191886E+03  0.00000000000E+00 0.  1.
         -3    1    6    6    0  503  0.37660271030E+03 -0.35313899666E+03  0.40787710178E+03  0.65795173267E+03  0.00000000000E+00 0. -1.
<mgrwt>
<rscale>  0 0.15064881E+04</rscale>
<asrwt>0</asrwt>
<pdfrwt beam="1">  1        2 0.32152544E+00 0.15064881E+04</pdfrwt>
<pdfrwt beam="2">  1       -1 0.41766625E-01 0.15064881E+04</pdfrwt>
<totfact> 0.36857120E+01</totfact>
</mgrwt>
</event>
<event>
12    6  0.1529770E-007  0.1199462E+04  0.7818608E-02  0.9113328E-01
          2   -1    0    0  501    0  0.00000000000E+00  0.00000000000E+00  0.27254028742E+03  0.27254028742E+03  0.00000000000E+00 0. -1.
         -1   -1    0    0    0  501 -0.00000000000E+00 -0.00000000000E+00 -0.13197213698E+04  0.13197213698E+04  0.00000000000E+00 0.  1.
         24    2    1    2    0    0  0.10547991457E+03 -0.16872422226E+03 -0.44000587272E+02  0.21999625334E+03  0.82875956990E+02 0.  0.
        254    2    1    2    0    0 -0.10547991457E+03  0.16872422226E+03 -0.10031804951E+04  0.13722654039E+04  0.91495757134E+03 0.  0.
         23    2    4    4    0    0  0.38524625586E+03  0.50182993921E+01 -0.55276135898E+03  0.68032303068E+03  0.94098061104E+02 0.  0.
         23    2    4    4    0    0 -0.49072617044E+03  0.16370592287E+03 -0.45041913612E+03  0.69194237319E+03  0.91077143704E+02 0.  0.
          4    1    3    3  502    0  0.93138445368E+02 -0.12332828868E+03  0.14924616032E+01  0.15455375840E+03  0.00000000000E+00 0. -1.
         -3    1    3    3    0  502  0.12341469207E+02 -0.45395933580E+02 -0.45493048875E+02  0.65442494938E+02  0.00000000000E+00 0.  1.
         11    1    5    5    0    0  0.10976384121E+03  0.37872471731E+02 -0.20332331297E+03  0.23414267990E+03  0.00000000000E+00 0. -1.
        -11    1    5    5    0    0  0.27548241465E+03 -0.32854172339E+02 -0.34943804601E+03  0.44618035078E+03  0.00000000000E+00 0.  1.
          4    1    6    6  503    0 -0.20695244117E+03  0.30900505753E+02 -0.14642427973E+03  0.25539033626E+03  0.00000000000E+00 0. -1.
         -4    1    6    6    0  503 -0.28377372926E+03  0.13280541712E+03 -0.30399485639E+03  0.43655203693E+03  0.00000000000E+00 0.  1.
<mgrwt>
<rscale>  0 0.11994619E+04</rscale>
<asrwt>0</asrwt>
<pdfrwt beam="1">  1        2 0.41929274E-01 0.11994619E+04</pdfrwt>
<pdfrwt beam="2">  1       -1 0.20303406E+00 0.11994619E+04</pdfrwt>
<totfact> 0.19834065E+01</totfact>
</mgrwt>
</event>
<event>
12    6  0.1529770E-007  0.1127550E+04  0.7818608E-02  0.9178748E-01
          2   -1    0    0  501    0  0.00000000000E+00  0.00000000000E+00  0.36330786773E+03  0.36330786773E+03  0.00000000000E+00 0. -1.
         -1   -1    0    0    0  501 -0.00000000000E+00 -0.00000000000E+00 -0.87485597436E+03  0.87485597436E+03  0.00000000000E+00 0.  1.
         24    2    1    2    0    0 -0.27644948829E+02  0.11824117208E+03  0.69829185861E+02  0.16068645846E+03  0.78732488622E+02 0.  0.
        254    2    1    2    0    0  0.27644948829E+02 -0.11824117208E+03 -0.58137729249E+03  0.10774773836E+04  0.89900652836E+03 0.  0.
         23    2    4    4    0    0  0.36044501672E+03  0.16515575578E+03 -0.46119179168E+03  0.61521657324E+03  0.92717471485E+02 0.  0.
         23    2    4    4    0    0 -0.33280006789E+03 -0.28339692785E+03 -0.12018550081E+03  0.46226081040E+03  0.90392468259E+02 0.  0.
          4    1    3    3  502    0 -0.13316612797E+02  0.83027949915E+02  0.85174144027E+02  0.11968962969E+03  0.00000000000E+00 0. -1.
         -3    1    3    3    0  502 -0.14328336032E+02  0.35213222161E+02 -0.15344958166E+02  0.40996828774E+02  0.00000000000E+00 0.  1.
         11    1    5    5    0    0  0.20169060441E+03  0.61488811679E+02 -0.18686155956E+03  0.28173962503E+03  0.00000000000E+00 0. -1.
        -11    1    5    5    0    0  0.15875441231E+03  0.10366694410E+03 -0.27433023213E+03  0.33347694821E+03  0.00000000000E+00 0.  1.
          1    1    6    6  503    0 -0.33142388206E+03 -0.27113242421E+03 -0.12886864545E+03  0.44717078263E+03  0.00000000000E+00 0. -1.
         -1    1    6    6    0  503 -0.13761858315E+01 -0.12264503644E+02  0.86831446434E+01  0.15090027765E+02  0.00000000000E+00 0.  1.
<mgrwt>
<rscale>  0 0.11275497E+04</rscale>
<asrwt>0</asrwt>
<pdfrwt beam="1">  1        2 0.55893519E-01 0.11275497E+04</pdfrwt>
<pdfrwt beam="2">  1       -1 0.13459323E+00 0.11275497E+04</pdfrwt>
<totfact> 0.46703945E+01</totfact>
</mgrwt>
</event>
<event>
12    6  0.1529770E-007  0.4064805E+04  0.7818608E-02  0.7991600E-01
          2   -1    0    0  501    0  0.00000000000E+00  0.00000000000E+00  0.18827170865E+04  0.18827170865E+04  0.00000000000E+00 0. -1.
         -1   -1    0    0    0  501 -0.00000000000E+00 -0.00000000000E+00 -0.21939881502E+04  0.21939881502E+04  0.00000000000E+00 0.  1.
         24    2    1    2    0    0 -0.13265767397E+04 -0.10305328609E+04 -0.11057160630E+04  0.20126632060E+04  0.80008406778E+02 0.  0.
        254    2    1    2    0    0  0.13265767397E+04  0.10305328609E+04  0.79444499931E+03  0.20640420308E+04  0.89851144921E+03 0.  0.
         23    2    4    4    0    0  0.44876639993E+02  0.72583914609E+02 -0.15307785479E+03  0.20187846750E+03  0.10019854558E+03 0.  0.
         23    2    4    4    0    0  0.12817000997E+04  0.95794894628E+03  0.94752285409E+03  0.18621635633E+04  0.97119762531E+02 0.  0.
          4    1    3    3  502    0 -0.35829833543E+02 -0.13570684108E+02 -0.29608048843E+02  0.48420832244E+02  0.00000000000E+00 0. -1.
         -3    1    3    3    0  502 -0.12907469061E+04 -0.10169621768E+04 -0.10761080142E+04  0.19642423737E+04  0.00000000000E+00 0.  1.
         11    1    5    5    0    0 -0.26235576415E+02 -0.41969891967E+01 -0.25004303721E+02  0.36484728213E+02  0.00000000000E+00 0.  1.
        -11    1    5    5    0    0  0.71112216408E+02  0.76780903805E+02 -0.12807355106E+03  0.16539373928E+03  0.00000000000E+00 0. -1.
          1    1    6    6  503    0  0.52917173695E+03  0.44683451777E+03  0.43865794654E+03  0.81981986285E+03  0.00000000000E+00 0. -1.
         -1    1    6    6    0  503  0.75252836272E+03  0.51111442850E+03  0.50886490755E+03  0.10423437004E+04  0.00000000000E+00 0.  1.
<mgrwt>
<rscale>  0 0.40648045E+04</rscale>
<asrwt>0</asrwt>
<pdfrwt beam="1">  1        2 0.28964878E+00 0.40648045E+04</pdfrwt>
<pdfrwt beam="2">  1       -1 0.33753664E+00 0.40648045E+04</pdfrwt>
<totfact> 0.13020346E-01</totfact>
</mgrwt>
</event>
<event>
12    6  0.1529770E-007  0.1334003E+04  0.7818608E-02  0.9003027E-01
          2   -1    0    0  501    0  0.00000000000E+00  0.00000000000E+00  0.12024271219E+04  0.12024271219E+04  0.00000000000E+00 0. -1.
         -1   -1    0    0    0  501 -0.00000000000E+00 -0.00000000000E+00 -0.36999419976E+03  0.36999419976E+03  0.00000000000E+00 0.  1.
         24    2    1    2    0    0  0.89531127229E+02 -0.20823471079E+03  0.53630629939E+03  0.58768883569E+03  0.79851132177E+02 0.  0.
        254    2    1    2    0    0 -0.89531127229E+02  0.20823471079E+03  0.29612662278E+03  0.98473248600E+03  0.91138881645E+03 0.  0.
         23    2    4    4    0    0 -0.10479199245E+03  0.51216814183E+03  0.38388084699E+03  0.65505736928E+03  0.91859050537E+02 0.  0.
         23    2    4    4    0    0  0.15260865224E+02 -0.30393343104E+03 -0.87754224215E+02  0.32967511672E+03  0.91522970916E+02 0.  0.
          2    1    3    3  502    0  0.91989840169E+02 -0.21454088203E+03  0.51784461016E+03  0.56802549329E+03  0.00000000000E+00 0. -1.
         -1    1    3    3    0  502 -0.24587129405E+01  0.63061712436E+01  0.18461689224E+02  0.19663342393E+02  0.00000000000E+00 0.  1.
         11    1    5    5    0    0 -0.77415306718E+01  0.20612449197E+03  0.11427390150E+03  0.23580874040E+03  0.00000000000E+00 0. -1.
        -11    1    5    5    0    0 -0.97050461781E+02  0.30604364986E+03  0.26960694549E+03  0.41924862887E+03  0.00000000000E+00 0.  1.
          4    1    6    6  503    0 -0.21416899434E+02 -0.21084734992E+02  0.34006723021E+01  0.30245895641E+02  0.00000000000E+00 0. -1.
         -4    1    6    6    0  503  0.36677764657E+02 -0.28284869605E+03 -0.91154896517E+02  0.29942922108E+03  0.00000000000E+00 0.  1.
<mgrwt>
<rscale>  0 0.13340031E+04</rscale>
<asrwt>0</asrwt>
<pdfrwt beam="1">  1        2 0.18498879E+00 0.13340031E+04</pdfrwt>
<pdfrwt beam="2">  1       -1 0.56922185E-01 0.13340031E+04</pdfrwt>
<totfact> 0.65756377E+01</totfact>
</mgrwt>
</event>
<event>
12    6  0.1529770E-007  0.1452750E+04  0.7818608E-02  0.8916496E-01
          2   -1    0    0  501    0  0.00000000000E+00  0.00000000000E+00  0.36593207608E+04  0.36593207608E+04  0.00000000000E+00 0. -1.
         -1   -1    0    0    0  501 -0.00000000000E+00 -0.00000000000E+00 -0.14418547919E+03  0.14418547919E+03  0.00000000000E+00 0.  1.
         24    2    1    2    0    0  0.67688733806E+02 -0.35932428981E+03  0.44150872084E+03  0.58281888549E+03  0.10512940963E+03 0.  0.
        254    2    1    2    0    0 -0.67688733806E+02  0.35932428981E+03  0.30736265607E+04  0.32206873545E+04  0.88991633901E+03 0.  0.
         23    2    4    4    0    0  0.26880437437E+03  0.48679270981E+02  0.22947480356E+04  0.23125872460E+04  0.86981380559E+02 0.  0.
         23    2    4    4    0    0 -0.33649310817E+03  0.31064501883E+03  0.77887852516E+03  0.90810010845E+03  0.90918152386E+02 0.  0.
          4    1    3    3  502    0  0.56135588913E+02 -0.73422829359E+02  0.13394635886E+03  0.16273826614E+03  0.00000000000E+00 0. -1.
         -3    1    3    3    0  502  0.11553144892E+02 -0.28590146045E+03  0.30756236198E+03  0.42008061935E+03  0.00000000000E+00 0.  1.
         11    1    5    5    0    0  0.26773752928E+03  0.56013870645E+02  0.21054342427E+04  0.21231284202E+04  0.00000000000E+00 0.  1.
        -11    1    5    5    0    0  0.10668450907E+01 -0.73345996642E+01  0.18931379293E+03  0.18945882588E+03  0.00000000000E+00 0. -1.
          2    1    6    6  503    0  0.22824282100E+01 -0.10835470236E+01  0.22439556936E+02  0.22581347793E+02  0.00000000000E+00 0. -1.
         -2    1    6    6    0  503 -0.33877553638E+03  0.31172856586E+03  0.75643896822E+03  0.88551876065E+03  0.00000000000E+00 0.  1.
<mgrwt>
<rscale>  0 0.14527504E+04</rscale>
<asrwt>0</asrwt>
<pdfrwt beam="1">  1        2 0.56297236E+00 0.14527504E+04</pdfrwt>
<pdfrwt beam="2">  1       -1 0.22182384E-01 0.14527504E+04</pdfrwt>
<totfact> 0.12081315E+01</totfact>
</mgrwt>
</event>
<event>
12    6  0.1529770E-007  0.1179967E+04  0.7818608E-02  0.9130574E-01
         -1   -1    0    0    0  501 -0.00000000000E+00  0.00000000000E+00  0.16708834920E+03  0.16708834920E+03  0.00000000000E+00 0.  1.
          2   -1    0    0  501    0  0.00000000000E+00 -0.00000000000E+00 -0.20832120096E+04  0.20832120096E+04  0.00000000000E+00 0. -1.
         24    2    1    2    0    0 -0.70568848355E+02 -0.31693587228E+02  0.23722610705E+02  0.10977455484E+03  0.74183858104E+02 0.  0.
        254    2    1    2    0    0  0.70568848355E+02  0.31693587228E+02 -0.19398462711E+04  0.21405258039E+04  0.90158899510E+03 0.  0.
         23    2    4    4    0    0 -0.82718372085E+02  0.35722843239E+03 -0.15769903906E+04  0.16215376786E+04  0.89617348593E+02 0.  0.
         23    2    4    4    0    0  0.15328722044E+03 -0.32553484516E+03 -0.36285588046E+03  0.51898812530E+03  0.90633199476E+02 0.  0.
          4    1    3    3  502    0 -0.58640401575E+02  0.82467146795E+01 -0.45740649508E+01  0.59393830235E+02  0.00000000000E+00 0. -1.
         -3    1    3    3    0  502 -0.11928446780E+02 -0.39940301907E+02  0.28296675656E+02  0.50380724610E+02  0.00000000000E+00 0.  1.
         11    1    5    5    0    0 -0.26145538955E+02  0.16122478171E+02 -0.16445546263E+03  0.16729950000E+03  0.00000000000E+00 0. -1.
        -11    1    5    5    0    0 -0.56572833130E+02  0.34110595422E+03 -0.14125349280E+04  0.14542381787E+04  0.00000000000E+00 0.  1.
          3    1    6    6  503    0  0.14050950775E+01 -0.91493463938E+02 -0.77703700517E+02  0.12004538021E+03  0.00000000000E+00 0. -1.
         -3    1    6    6    0  503  0.15188212536E+03 -0.23404138123E+03 -0.28515217994E+03  0.39894274509E+03  0.00000000000E+00 0.  1.
<mgrwt>
<rscale>  0 0.11799669E+04</rscale>
<asrwt>0</asrwt>
<pdfrwt beam="1">  1        2 0.32049415E+00 0.11799669E+04</pdfrwt>
<pdfrwt beam="2">  1       -1 0.25705900E-01 0.11799669E+04</pdfrwt>
<totfact> 0.90419256E+01</totfact>
</mgrwt>
</event>
<event>
12    6  0.1529770E-007  0.1772965E+04  0.7818608E-02  0.8720810E-01
          2   -1    0    0  501    0  0.00000000000E+00  0.00000000000E+00  0.29735568824E+04  0.29735568824E+04  0.00000000000E+00 0. -1.
         -1   -1    0    0    0  501 -0.00000000000E+00 -0.00000000000E+00 -0.26427987822E+03  0.26427987822E+03  0.00000000000E+00 0.  1.
         24    2    1    2    0    0 -0.46148263774E+03  0.36546926223E+03  0.78285695317E+03  0.98346450733E+03  0.88336976816E+02 0.  0.
        254    2    1    2    0    0  0.46148263774E+03 -0.36546926223E+03  0.19264200510E+04  0.22543722533E+04  0.10122084948E+04 0.  0.
         23    2    4    4    0    0  0.58600614559E+03 -0.55211018530E+03  0.18115407214E+04  0.19849096621E+04  0.99788385836E+02 0.  0.
         23    2    4    4    0    0 -0.12452350785E+03  0.18664092307E+03  0.11487932965E+03  0.26946259126E+03  0.95246467305E+02 0.  0.
          2    1    3    3  502    0 -0.62041841729E+02  0.19367416879E+02  0.63928273528E+02  0.91165295578E+02  0.00000000000E+00 0. -1.
         -1    1    3    3    0  502 -0.39944079602E+03  0.34610184535E+03  0.71892867965E+03  0.89229921175E+03  0.00000000000E+00 0.  1.
         11    1    5    5    0    0  0.25038625953E+03 -0.18190517551E+03  0.62448231033E+03  0.69696551404E+03  0.00000000000E+00 0.  1.
        -11    1    5    5    0    0  0.33561988606E+03 -0.37020500979E+03  0.11870584110E+04  0.12879441480E+04  0.00000000000E+00 0. -1.
          2    1    6    6  503    0 -0.71416774610E+02  0.13639322612E+03  0.28980863603E+02  0.15666320016E+03  0.00000000000E+00 0. -1.
         -2    1    6    6    0  503 -0.53106733238E+02  0.50247696952E+02  0.85898466045E+02  0.11279939110E+03  0.00000000000E+00 0.  1.
<mgrwt>
<rscale>  0 0.17729650E+04</rscale>
<asrwt>0</asrwt>
<pdfrwt beam="1">  1        2 0.45747027E+00 0.17729650E+04</pdfrwt>
<pdfrwt beam="2">  1       -1 0.40658445E-01 0.17729650E+04</pdfrwt>
<totfact> 0.11561989E+01</totfact>
</mgrwt>
</event>
<event>
12    6  0.1529770E-007  0.1716515E+04  0.7818608E-02  0.8752001E-01
         -1   -1    0    0    0  501 -0.00000000000E+00  0.00000000000E+00  0.49316504398E+03  0.49316504398E+03  0.00000000000E+00 0.  1.
          2   -1    0    0  501    0  0.00000000000E+00 -0.00000000000E+00 -0.14936296062E+04  0.14936296062E+04  0.00000000000E+00 0. -1.
         24    2    1    2    0    0 -0.87981893633E+02 -0.15381189763E+03  0.36596260509E+03  0.41412276809E+03  0.78550144908E+02 0.  0.
        254    2    1    2    0    0  0.87981893633E+02  0.15381189763E+03 -0.13664271673E+04  0.15726718821E+04  0.75813899235E+03 0.  0.
         23    2    4    4    0    0  0.79168123908E+02  0.45015853123E+03 -0.76573219393E+03  0.89675656395E+03  0.94425881402E+02 0.  0.
         23    2    4    4    0    0  0.88137697251E+01 -0.29634663360E+03 -0.60069497338E+03  0.67591531815E+03  0.90155734622E+02 0.  0.
          4    1    3    3  502    0  0.54023243280E+01 -0.52974507254E+02  0.13823705335E+03  0.14813833550E+03  0.00000000000E+00 0. -1.
         -3    1    3    3    0  502 -0.93384217961E+02 -0.10083739038E+03  0.22772555174E+03  0.26598443259E+03  0.00000000000E+00 0.  1.
         11    1    5    5    0    0 -0.13024203563E+02  0.18904039790E+03 -0.32737556952E+03  0.37826005001E+03  0.00000000000E+00 0.  1.
        -11    1    5    5    0    0  0.92192327471E+02  0.26111813333E+03 -0.43835662441E+03  0.51849651394E+03  0.00000000000E+00 0. -1.
          3    1    6    6  503    0 -0.97560896189E+01 -0.58120865458E+02 -0.20843871405E+03  0.21661005010E+03  0.00000000000E+00 0. -1.
         -3    1    6    6    0  503  0.18569859344E+02 -0.23822576814E+03 -0.39225625933E+03  0.45930526806E+03  0.00000000000E+00 0.  1.
<mgrwt>
<rscale>  0 0.17165150E+04</rscale>
<asrwt>0</asrwt>
<pdfrwt beam="1">  1        2 0.22978917E+00 0.17165150E+04</pdfrwt>
<pdfrwt beam="2">  1       -1 0.75871545E-01 0.17165150E+04</pdfrwt>
<totfact> 0.24187766E+01</totfact>
</mgrwt>
</event>
<event>
12    6  0.1529770E-007  0.1342900E+04  0.7818608E-02  0.8996220E-01
         -1   -1    0    0    0  501 -0.00000000000E+00  0.00000000000E+00  0.19416806942E+03  0.19416806942E+03  0.00000000000E+00 0.  1.
          2   -1    0    0  501    0  0.00000000000E+00 -0.00000000000E+00 -0.23219308692E+04  0.23219308692E+04  0.00000000000E+00 0. -1.
         24    2    1    2    0    0 -0.66473273852E+02  0.28879482884E+02  0.90646033781E+02  0.14076722660E+03  0.79661709592E+02 0.  0.
        254    2    1    2    0    0  0.66473273852E+02 -0.28879482884E+02 -0.22184088336E+04  0.23753317121E+04  0.84593750871E+03 0.  0.
         23    2    4    4    0    0  0.46065960698E+02 -0.36499936779E+03 -0.53119379447E+03  0.65240206596E+03  0.90083279021E+02 0.  0.
         23    2    4    4    0    0  0.20407313154E+02  0.33611988491E+03 -0.16872150391E+04  0.17229296461E+04  0.91645740087E+02 0.  0.
          4    1    3    3  502    0 -0.10643943151E+02 -0.23253955476E+02  0.50941510066E+01  0.26076624505E+02  0.00000000000E+00 0. -1.
         -3    1    3    3    0  502 -0.55829330700E+02  0.52133438361E+02  0.85551882774E+02  0.11469060209E+03  0.00000000000E+00 0.  1.
         11    1    5    5    0    0 -0.24051043677E+02 -0.49263513348E+02 -0.89482609173E+02  0.10494038209E+03  0.00000000000E+00 0.  1.
        -11    1    5    5    0    0  0.70117004375E+02 -0.31573585445E+03 -0.44171118530E+03  0.54746168387E+03  0.00000000000E+00 0. -1.
          2    1    6    6  503    0 -0.23783597934E+01  0.30750621038E+03 -0.15799754867E+04  0.16096236406E+04  0.00000000000E+00 0. -1.
         -2    1    6    6    0  503  0.22785672947E+02  0.28613674531E+02 -0.10723955244E+03  0.11330600544E+03  0.00000000000E+00 0.  1.
<mgrwt>
<rscale>  0 0.13428996E+04</rscale>
<asrwt>0</asrwt>
<pdfrwt beam="1">  1        2 0.35722013E+00 0.13428996E+04</pdfrwt>
<pdfrwt beam="2">  1       -1 0.29872011E-01 0.13428996E+04</pdfrwt>
<totfact> 0.50549816E+01</totfact>
</mgrwt>
</event>
<event>
12    6  0.1529770E-007  0.2407705E+04  0.7818608E-02  0.8436625E-01
         -1   -1    0    0    0  501 -0.00000000000E+00  0.00000000000E+00  0.82564931089E+03  0.82564931089E+03  0.00000000000E+00 0.  1.
          2   -1    0    0  501    0  0.00000000000E+00 -0.00000000000E+00 -0.17552980632E+04  0.17552980632E+04  0.00000000000E+00 0. -1.
         24    2    1    2    0    0 -0.42786002002E+03 -0.93211955274E+03 -0.29518769441E+03  0.10704341436E+04  0.82355470957E+02 0.  0.
        254    2    1    2    0    0  0.42786002002E+03  0.93211955274E+03 -0.63446105795E+03  0.15105132305E+04  0.90950444095E+03 0.  0.
         23    2    4    4    0    0 -0.13313184812E+03  0.22138130724E+03 -0.52690403168E+03  0.59367520369E+03  0.89936737235E+02 0.  0.
         23    2    4    4    0    0  0.56099186814E+03  0.71073824550E+03 -0.10755702627E+03  0.91683802680E+03  0.95722117312E+02 0.  0.
          4    1    3    3  502    0 -0.84051055560E+02 -0.20759495050E+03 -0.98731162015E+02  0.24476128322E+03  0.00000000000E+00 0. -1.
         -3    1    3    3    0  502 -0.34380896446E+03 -0.72452460225E+03 -0.19645653240E+03  0.82567286042E+03  0.00000000000E+00 0.  1.
         11    1    5    5    0    0 -0.61277499649E+02  0.32118783027E+02 -0.10543312020E+03  0.12610587227E+03  0.00000000000E+00 0.  1.
        -11    1    5    5    0    0 -0.71854348473E+02  0.18926252421E+03 -0.42147091147E+03  0.46756933142E+03  0.00000000000E+00 0. -1.
          2    1    6    6  503    0  0.35257415776E+02  0.44496817611E+02  0.16519060558E+02  0.59126402786E+02  0.00000000000E+00 0. -1.
         -2    1    6    6    0  503  0.52573445237E+03  0.66624142789E+03 -0.12407608683E+03  0.85771162402E+03  0.00000000000E+00 0.  1.
<mgrwt>
<rscale>  0 0.24077048E+04</rscale>
<asrwt>0</asrwt>
<pdfrwt beam="1">  1        2 0.27004585E+00 0.24077048E+04</pdfrwt>
<pdfrwt beam="2">  1       -1 0.12702297E+00 0.24077048E+04</pdfrwt>
<totfact> 0.50253086E+00</totfact>
</mgrwt>
</event>
<event>
12    6  0.1529770E-007  0.1105054E+04  0.7818608E-02  0.9200280E-01
         -1   -1    0    0    0  501 -0.00000000000E+00  0.00000000000E+00  0.28770729923E+03  0.28770729923E+03  0.00000000000E+00 0.  1.
          2   -1    0    0  501    0  0.00000000000E+00 -0.00000000000E+00 -0.10611001795E+04  0.10611001795E+04  0.00000000000E+00 0. -1.
         24    2    1    2    0    0  0.42873306799E+02 -0.16456328256E+03 -0.20205015575E+03  0.27591747364E+03  0.79918661272E+02 0.  0.
        254    2    1    2    0    0 -0.42873306799E+02  0.16456328256E+03 -0.57134272453E+03  0.10728900051E+04  0.89204330600E+03 0.  0.
         23    2    4    4    0    0  0.11079988318E+03  0.35959276738E+03 -0.68325902647E+03  0.78509567545E+03  0.89155761981E+02 0.  0.
         23    2    4    4    0    0 -0.15367318998E+03 -0.19502948481E+03  0.11191630194E+03  0.28779432966E+03  0.92996603604E+02 0.  0.
          2    1    3    3  502    0  0.31071100514E+02 -0.14693292160E+03 -0.20539006382E+03  0.25444012076E+03  0.00000000000E+00 0. -1.
         -1    1    3    3    0  502  0.11802206285E+02 -0.17630360966E+02  0.33399080700E+01  0.21477352884E+02  0.00000000000E+00 0.  1.
         11    1    5    5    0    0  0.11480002854E+03  0.26653469521E+03 -0.46990175320E+03  0.55229290052E+03  0.00000000000E+00 0.  1.
        -11    1    5    5    0    0 -0.40001453618E+01  0.93058072170E+02 -0.21335727326E+03  0.23280277493E+03  0.00000000000E+00 0. -1.
          4    1    6    6  503    0 -0.61575575642E+02 -0.94052547106E+02  0.10025859926E+03  0.15062941233E+03  0.00000000000E+00 0. -1.
         -4    1    6    6    0  503 -0.92097614334E+02 -0.10097693770E+03  0.11657702674E+02  0.13716491733E+03  0.00000000000E+00 0.  1.
<mgrwt>
<rscale>  0 0.11050543E+04</rscale>
<asrwt>0</asrwt>
<pdfrwt beam="1">  1        2 0.16324618E+00 0.11050543E+04</pdfrwt>
<pdfrwt beam="2">  1       -1 0.44262661E-01 0.11050543E+04</pdfrwt>
<totfact> 0.13160395E+02</totfact>
</mgrwt>
</event>
<event>
12    6  0.1529770E-007  0.1268752E+04  0.7818608E-02  0.9054719E-01
          4   -1    0    0  501    0  0.00000000000E+00  0.00000000000E+00  0.12182127037E+04  0.12182127037E+04  0.00000000000E+00 0. -1.
         -3   -1    0    0    0  501 -0.00000000000E+00 -0.00000000000E+00 -0.33034696267E+03  0.33034696267E+03  0.00000000000E+00 0.  1.
         24    2    1    2    0    0 -0.17996805819E+03 -0.17495503895E+03  0.38797740810E+03  0.46857088153E+03  0.77681620733E+02 0.  0.
        254    2    1    2    0    0  0.17996805819E+03  0.17495503895E+03  0.49988833292E+03  0.10799887848E+04  0.92384504239E+03 0.  0.
         23    2    4    4    0    0  0.12562177455E+03 -0.35891372953E+03  0.32434347553E+03  0.50799694232E+03  0.90897237569E+02 0.  0.
         23    2    4    4    0    0  0.54346283636E+02  0.53386876848E+03  0.17554485738E+03  0.57199184251E+03  0.91593069855E+02 0.  0.
          4    1    3    3  502    0 -0.61972630984E+02 -0.49428629768E+02  0.19151154434E+03  0.20726907161E+03  0.00000000000E+00 0. -1.
         -3    1    3    3    0  502 -0.11799542721E+03 -0.12552640918E+03  0.19646586376E+03  0.26130180992E+03  0.00000000000E+00 0.  1.
         11    1    5    5    0    0 -0.97403291091E+01 -0.49613650795E+02  0.23380774288E+02  0.55705017393E+02  0.00000000000E+00 0. -1.
        -11    1    5    5    0    0  0.13536210366E+03 -0.30930007874E+03  0.30096270124E+03  0.45229192493E+03  0.00000000000E+00 0.  1.
          2    1    6    6  503    0 -0.17214549154E+02  0.19634086272E+03  0.38945457654E+02  0.20090501176E+03  0.00000000000E+00 0. -1.
         -2    1    6    6    0  503  0.71560832790E+02  0.33752790575E+03  0.13659939973E+03  0.37108683075E+03  0.00000000000E+00 0.  1.
<mgrwt>
<rscale>  0 0.12687519E+04</rscale>
<asrwt>0</asrwt>
<pdfrwt beam="1">  1        4 0.18741734E+00 0.12687519E+04</pdfrwt>
<pdfrwt beam="2">  1       -3 0.50822610E-01 0.12687519E+04</pdfrwt>
<totfact> 0.13771021E+00</totfact>
</mgrwt>
</event>
<event>
12    6  0.1529770E-007  0.1724919E+04  0.7818608E-02  0.8747278E-01
          2   -1    0    0  501    0  0.00000000000E+00  0.00000000000E+00  0.20925199707E+04  0.20925199707E+04  0.00000000000E+00 0. -1.
         -1   -1    0    0    0  501 -0.00000000000E+00 -0.00000000000E+00 -0.35547403500E+03  0.35547403500E+03  0.00000000000E+00 0.  1.
         24    2    1    2    0    0 -0.27132145814E+03 -0.55986283815E+03  0.65859966914E+03  0.90941851766E+03  0.78909979553E+02 0.  0.
        254    2    1    2    0    0  0.27132145814E+03  0.55986283815E+03  0.10784462666E+04  0.15385754881E+04  0.90393940694E+03 0.  0.
         23    2    4    4    0    0 -0.51675370657E+02  0.40585741971E+03  0.23071737772E+02  0.42045299236E+03  0.94116016881E+02 0.  0.
         23    2    4    4    0    0  0.32299682880E+03  0.15400541844E+03  0.10553745288E+04  0.11181224957E+04  0.91312096864E+02 0.  0.
          2    1    3    3  502    0 -0.50967326942E+02 -0.10524492744E+03  0.82112156715E+02  0.14288656147E+03  0.00000000000E+00 0. -1.
         -1    1    3    3    0  502 -0.22035413120E+03 -0.45461791071E+03  0.57648751243E+03  0.76653195619E+03  0.00000000000E+00 0.  1.
         11    1    5    5    0    0 -0.76008813401E+02  0.31417390206E+03  0.18150313701E+01  0.32324274901E+03  0.00000000000E+00 0. -1.
        -11    1    5    5    0    0  0.24333442744E+02  0.91683517656E+02  0.21256706402E+02  0.97210243353E+02  0.00000000000E+00 0.  1.
          1    1    6    6  503    0  0.31024959364E+03  0.15729672863E+03  0.10449634088E+04  0.11013380938E+04  0.00000000000E+00 0. -1.
         -1    1    6    6    0  503  0.12747235158E+02 -0.32913101918E+01  0.10411120038E+02  0.16784401908E+02  0.00000000000E+00 0.  1.
<mgrwt>
<rscale>  0 0.17249191E+04</rscale>
<asrwt>0</asrwt>
<pdfrwt beam="1">  1        2 0.32192614E+00 0.17249191E+04</pdfrwt>
<pdfrwt beam="2">  1       -1 0.54688314E-01 0.17249191E+04</pdfrwt>
<totfact> 0.21681584E+01</totfact>
</mgrwt>
</event>
<event>
12    6  0.1529770E-007  0.1556309E+04  0.7818608E-02  0.8847848E-01
         -1   -1    0    0    0  501 -0.00000000000E+00  0.00000000000E+00  0.13011023892E+04  0.13011023892E+04  0.00000000000E+00 0.  1.
          2   -1    0    0  501    0  0.00000000000E+00 -0.00000000000E+00 -0.46539365487E+03  0.46539365487E+03  0.00000000000E+00 0. -1.
         24    2    1    2    0    0 -0.27900750077E+03  0.42773473393E+03  0.23043481777E+03  0.56587939322E+03  0.79480150587E+02 0.  0.
        254    2    1    2    0    0  0.27900750077E+03 -0.42773473393E+03  0.60527391652E+03  0.12006166508E+04  0.90239771724E+03 0.  0.
         23    2    4    4    0    0  0.40422681269E+03 -0.44013018047E+03  0.30202239270E+02  0.60514428907E+03  0.90407651665E+02 0.  0.
         23    2    4    4    0    0 -0.12521931192E+03  0.12395446545E+02  0.57507167725E+03  0.59547236173E+03  0.89701596651E+02 0.  0.
          2    1    3    3  502    0  0.22385358888E+01  0.24718361413E+02  0.56056745534E+01  0.25444685518E+02  0.00000000000E+00 0. -1.
         -1    1    3    3    0  502 -0.28124603666E+03  0.40301637251E+03  0.22482914321E+03  0.54043470770E+03  0.00000000000E+00 0.  1.
         11    1    5    5    0    0  0.23931268688E+03 -0.20989091808E+03 -0.13410445347E+02  0.31859786508E+03  0.00000000000E+00 0. -1.
        -11    1    5    5    0    0  0.16491412581E+03 -0.23023926239E+03  0.43612684617E+02  0.28654642399E+03  0.00000000000E+00 0.  1.
          1    1    6    6  503    0 -0.10227459623E+03  0.43888657854E+02  0.47983687738E+03  0.49257459965E+03  0.00000000000E+00 0. -1.
         -1    1    6    6    0  503 -0.22944715686E+02 -0.31493211309E+02  0.95234799870E+02  0.10289776209E+03  0.00000000000E+00 0.  1.
<mgrwt>
<rscale>  0 0.15563095E+04</rscale>
<asrwt>0</asrwt>
<pdfrwt beam="1">  1        2 0.71599025E-01 0.15563095E+04</pdfrwt>
<pdfrwt beam="2">  1       -1 0.20016960E+00 0.15563095E+04</pdfrwt>
<totfact> 0.11047082E+01</totfact>
</mgrwt>
</event>
<event>
12    6  0.1529770E-007  0.1428926E+04  0.7818608E-02  0.8933143E-01
         -1   -1    0    0    0  501 -0.00000000000E+00  0.00000000000E+00  0.28191625306E+03  0.28191625306E+03  0.00000000000E+00 0.  1.
          2   -1    0    0  501    0  0.00000000000E+00 -0.00000000000E+00 -0.18106695688E+04  0.18106695688E+04  0.00000000000E+00 0. -1.
         24    2    1    2    0    0  0.33473697521E+03  0.23930088898E+03 -0.69979769604E+03  0.81595096853E+03  0.82130442688E+02 0.  0.
        254    2    1    2    0    0 -0.33473697521E+03 -0.23930088898E+03 -0.82895561966E+03  0.12766348533E+04  0.87938351771E+03 0.  0.
         23    2    4    4    0    0 -0.51456578385E+03 -0.38846624598E+03 -0.78806750216E+03  0.10223943480E+04  0.92497809164E+02 0.  0.
         23    2    4    4    0    0  0.17982880864E+03  0.14916535700E+03 -0.40888117501E+02  0.25424050528E+03  0.91529734104E+02 0.  0.
          4    1    3    3  502    0  0.27487544948E+03  0.20650923182E+03 -0.63359502645E+03  0.72086422654E+03  0.00000000000E+00 0. -1.
         -3    1    3    3    0  502  0.59861525724E+02  0.32791657164E+02 -0.66202669588E+02  0.95086741989E+02  0.00000000000E+00 0.  1.
         11    1    5    5    0    0 -0.58793193748E+01 -0.22753014476E+02 -0.17633174078E+02  0.29380178558E+02  0.00000000000E+00 0.  1.
        -11    1    5    5    0    0 -0.50868646448E+03 -0.36571323151E+03 -0.77043432808E+03  0.99301416945E+03  0.00000000000E+00 0. -1.
          4    1    6    6  503    0  0.18917112047E+03  0.13303489434E+03 -0.31602900102E+02  0.23341537915E+03  0.00000000000E+00 0. -1.
         -4    1    6    6    0  503 -0.93423118262E+01  0.16130462664E+02 -0.92852173987E+01  0.20825126126E+02  0.00000000000E+00 0.  1.
<mgrwt>
<rscale>  0 0.14289257E+04</rscale>
<asrwt>0</asrwt>
<pdfrwt beam="1">  1        2 0.27856455E+00 0.14289257E+04</pdfrwt>
<pdfrwt beam="2">  1       -1 0.43371731E-01 0.14289257E+04</pdfrwt>
<totfact> 0.49409664E+01</totfact>
</mgrwt>
</event>
<event>
12    6  0.1529770E-007  0.1878800E+04  0.7818608E-02  0.8665482E-01
         -1   -1    0    0    0  501 -0.00000000000E+00  0.00000000000E+00  0.46566642432E+03  0.46566642432E+03  0.00000000000E+00 0.  1.
          2   -1    0    0  501    0  0.00000000000E+00 -0.00000000000E+00 -0.18950730486E+04  0.18950730486E+04  0.00000000000E+00 0. -1.
         24    2    1    2    0    0 -0.35879603135E+03 -0.13617925936E+03 -0.13200997883E+04  0.13771585363E+04  0.81380589197E+02 0.  0.
        254    2    1    2    0    0  0.35879603135E+03  0.13617925936E+03 -0.10930683599E+03  0.98358093661E+03  0.89900171950E+03 0.  0.
         23    2    4    4    0    0 -0.37775951701E+02 -0.33556464743E+03  0.86252582140E+01  0.34970459839E+03  0.90488982327E+02 0.  0.
         23    2    4    4    0    0  0.39657198306E+03  0.47174390679E+03 -0.11793209421E+03  0.63387633822E+03  0.89886494965E+02 0.  0.
          2    1    3    3  502    0 -0.30757424694E+03 -0.84277641318E+02 -0.10471496078E+04  0.10946355280E+04  0.00000000000E+00 0. -1.
         -1    1    3    3    0  502 -0.51221784415E+02 -0.51901618040E+02 -0.27295018053E+03  0.28252300828E+03  0.00000000000E+00 0.  1.
         11    1    5    5    0    0 -0.18353387389E+02 -0.11362366290E+03 -0.39669565577E+02  0.12174094641E+03  0.00000000000E+00 0.  1.
        -11    1    5    5    0    0 -0.19422564312E+02 -0.22194098452E+03  0.48294823791E+02  0.22796365197E+03  0.00000000000E+00 0. -1.
          2    1    6    6  503    0  0.32899002712E+03  0.41740583514E+03 -0.73788174298E+02  0.53656943989E+03  0.00000000000E+00 0. -1.
         -2    1    6    6    0  503  0.67581955939E+02  0.54338071643E+02 -0.44143919910E+02  0.97306898335E+02  0.00000000000E+00 0.  1.
<mgrwt>
<rscale>  0 0.18787995E+04</rscale>
<asrwt>0</asrwt>
<pdfrwt beam="1">  1        2 0.29154970E+00 0.18787995E+04</pdfrwt>
<pdfrwt beam="2">  1       -1 0.71640989E-01 0.18787995E+04</pdfrwt>
<totfact> 0.16056692E+01</totfact>
</mgrwt>
</event>
<event>
12    6  0.1529770E-007  0.2089539E+04  0.7818608E-02  0.8565866E-01
          2   -1    0    0  501    0  0.00000000000E+00  0.00000000000E+00  0.96882253313E+03  0.96882253313E+03  0.00000000000E+00 0. -1.
         -1   -1    0    0    0  501 -0.00000000000E+00 -0.00000000000E+00 -0.11266701436E+04  0.11266701436E+04  0.00000000000E+00 0.  1.
         24    2    1    2    0    0 -0.55961254814E+03 -0.17006877551E+03  0.54953237182E+03  0.80651025334E+03  0.79895986314E+02 0.  0.
        254    2    1    2    0    0  0.55961254814E+03  0.17006877551E+03 -0.70737998224E+03  0.12889824234E+04  0.90498599768E+03 0.  0.
         23    2    4    4    0    0  0.58999627021E+02 -0.29379991118E+03 -0.46239418664E+03  0.55802203610E+03  0.88209212290E+02 0.  0.
         23    2    4    4    0    0  0.50061292112E+03  0.46386868669E+03 -0.24498579560E+03  0.73096038726E+03  0.92182386653E+02 0.  0.
          4    1    3    3  502    0 -0.22070542797E+03 -0.80536677646E+02  0.27194696591E+03  0.35937750994E+03  0.00000000000E+00 0. -1.
         -3    1    3    3    0  502 -0.33890712017E+03 -0.89532097865E+02  0.27758540590E+03  0.44713274340E+03  0.00000000000E+00 0.  1.
         11    1    5    5    0    0  0.56161163963E+02 -0.78064296479E+02 -0.12888153285E+03  0.16080597076E+03  0.00000000000E+00 0.  1.
        -11    1    5    5    0    0  0.28384630573E+01 -0.21573561470E+03 -0.33351265379E+03  0.39721606533E+03  0.00000000000E+00 0. -1.
          2    1    6    6  503    0  0.34439100374E+03  0.29482840068E+03 -0.20412492367E+03  0.49718802657E+03  0.00000000000E+00 0. -1.
         -2    1    6    6    0  503  0.15622191737E+03  0.16904028602E+03 -0.40860871931E+02  0.23377236068E+03  0.00000000000E+00 0.  1.
<mgrwt>
<rscale>  0 0.20895391E+04</rscale>
<asrwt>0</asrwt>
<pdfrwt beam="1">  1        2 0.14904962E+00 0.20895391E+04</pdfrwt>
<pdfrwt beam="2">  1       -1 0.17333387E+00 0.20895391E+04</pdfrwt>
<totfact> 0.64579095E+00</totfact>
</mgrwt>
</event>
<event>
12    6  0.1529770E-007  0.1512255E+04  0.7818608E-02  0.8876344E-01
         -1   -1    0    0    0  501 -0.00000000000E+00  0.00000000000E+00  0.61106448969E+03  0.61106448969E+03  0.00000000000E+00 0.  1.
          2   -1    0    0  501    0  0.00000000000E+00 -0.00000000000E+00 -0.93562783553E+03  0.93562783553E+03  0.00000000000E+00 0. -1.
         24    2    1    2    0    0 -0.26114575681E+02  0.34753410694E+03  0.31933608460E+03  0.47926172566E+03  0.79084386602E+02 0.  0.
        254    2    1    2    0    0  0.26114575681E+02 -0.34753410694E+03 -0.64389943044E+03  0.10674305996E+04  0.77674943310E+03 0.  0.
         23    2    4    4    0    0 -0.21003566426E+03 -0.50310058036E+03 -0.43755067211E+03  0.70583785426E+03  0.97628436510E+02 0.  0.
         23    2    4    4    0    0  0.23615023994E+03  0.15556647342E+03 -0.20634875833E+03  0.36159274531E+03  0.90562905898E+02 0.  0.
          2    1    3    3  502    0  0.25867120380E+02  0.62662894431E+02  0.59392691629E+02  0.90129007950E+02  0.00000000000E+00 0. -1.
         -1    1    3    3    0  502 -0.51981696061E+02  0.28487121251E+03  0.25994339297E+03  0.38913271771E+03  0.00000000000E+00 0.  1.
         11    1    5    5    0    0 -0.32788394695E+02 -0.47721399596E+02 -0.86759581553E+02  0.10430549265E+03  0.00000000000E+00 0. -1.
        -11    1    5    5    0    0 -0.17724726956E+03 -0.45537918077E+03 -0.35079109056E+03  0.60153236160E+03  0.00000000000E+00 0.  1.
          1    1    6    6  503    0  0.52947081993E+02  0.62219755162E+02 -0.20028468838E+02  0.84117958772E+02  0.00000000000E+00 0. -1.
         -1    1    6    6    0  503  0.18320315794E+03  0.93346718259E+02 -0.18632028949E+03  0.27747478654E+03  0.00000000000E+00 0.  1.
<mgrwt>
<rscale>  0 0.15122552E+04</rscale>
<asrwt>0</asrwt>
<pdfrwt beam="1">  1        2 0.14394274E+00 0.15122552E+04</pdfrwt>
<pdfrwt beam="2">  1       -1 0.94009922E-01 0.15122552E+04</pdfrwt>
<totfact> 0.33521781E+01</totfact>
</mgrwt>
</event>
<event>
12    6  0.1529770E-007  0.3528126E+04  0.7818608E-02  0.8107157E-01
         -1   -1    0    0    0  501 -0.00000000000E+00  0.00000000000E+00  0.16208236517E+04  0.16208236517E+04  0.00000000000E+00 0.  1.
          2   -1    0    0  501    0  0.00000000000E+00 -0.00000000000E+00 -0.19199614659E+04  0.19199614659E+04  0.00000000000E+00 0. -1.
         24    2    1    2    0    0  0.71610583638E+03 -0.34576054320E+03  0.13084122804E+04  0.15329963930E+04  0.76008704952E+02 0.  0.
        254    2    1    2    0    0 -0.71610583638E+03  0.34576054320E+03 -0.16075500946E+04  0.20077887247E+04  0.90257428183E+03 0.  0.
         23    2    4    4    0    0 -0.90378553115E+02 -0.19701628440E+02 -0.11248308961E+04  0.11322949449E+04  0.91054161702E+02 0.  0.
         23    2    4    4    0    0 -0.62572728326E+03  0.36546217164E+03 -0.48271919850E+03  0.87549377981E+03  0.91511212222E+02 0.  0.
          4    1    3    3  502    0  0.18365466783E+03 -0.76508571600E+02  0.27017604108E+03  0.33552599261E+03  0.00000000000E+00 0. -1.
         -3    1    3    3    0  502  0.53245116855E+03 -0.26925197160E+03  0.10382362393E+04  0.11974704004E+04  0.00000000000E+00 0.  1.
         11    1    5    5    0    0 -0.32787186147E+02 -0.12680227454E+02 -0.10329822768E+03  0.10911604642E+03  0.00000000000E+00 0.  1.
        -11    1    5    5    0    0 -0.57591366968E+02 -0.70214009860E+01 -0.10215326684E+04  0.10231788985E+04  0.00000000000E+00 0. -1.
          2    1    6    6  503    0 -0.16979639902E+03  0.63816626510E+02 -0.15118656122E+03  0.23613715343E+03  0.00000000000E+00 0.  1.
         -2    1    6    6    0  503 -0.45593088425E+03  0.30164554513E+03 -0.33153263727E+03  0.63935662638E+03  0.00000000000E+00 0. -1.
<mgrwt>
<rscale>  0 0.35281264E+04</rscale>
<asrwt>0</asrwt>
<pdfrwt beam="1">  1        2 0.29537869E+00 0.35281264E+04</pdfrwt>
<pdfrwt beam="2">  1       -1 0.24935749E+00 0.35281264E+04</pdfrwt>
<totfact> 0.48601374E-01</totfact>
</mgrwt>
</event>
<event>
12    6  0.1529770E-007  0.1331578E+04  0.7818608E-02  0.9004892E-01
         -1   -1    0    0    0  501 -0.00000000000E+00  0.00000000000E+00  0.34350396048E+03  0.34350396048E+03  0.00000000000E+00 0.  1.
          2   -1    0    0  501    0  0.00000000000E+00 -0.00000000000E+00 -0.12904511090E+04  0.12904511090E+04  0.00000000000E+00 0. -1.
         24    2    1    2    0    0 -0.34730561690E+03 -0.74633149913E+02 -0.29433157198E+03  0.46813645454E+03  0.79557320234E+02 0.  0.
        254    2    1    2    0    0  0.34730561690E+03  0.74633149913E+02 -0.65261557650E+03  0.11658186149E+04  0.89835107480E+03 0.  0.
         23    2    4    4    0    0  0.45277347905E+03 -0.88159744757E+02 -0.78409490744E+03  0.91402810947E+03  0.88693839140E+02 0.  0.
         23    2    4    4    0    0 -0.10546786215E+03  0.16279289467E+03  0.13147933094E+03  0.25179050545E+03  0.92123002926E+02 0.  0.
          4    1    3    3  502    0  0.41385258426E+00  0.68523305594E+01 -0.47631268424E+01  0.83554225132E+01  0.00000000000E+00 0. -1.
         -3    1    3    3    0  502 -0.34771946949E+03 -0.81485480472E+02 -0.28956844514E+03  0.45978103203E+03  0.00000000000E+00 0.  1.
         11    1    5    5    0    0  0.19040050638E+03 -0.31233663282E+02 -0.24568393707E+03  0.31239156756E+03  0.00000000000E+00 0. -1.
        -11    1    5    5    0    0  0.26237297267E+03 -0.56926081475E+02 -0.53841097037E+03  0.60163654190E+03  0.00000000000E+00 0.  1.
          3    1    6    6  503    0 -0.44024551094E+02  0.97881015456E+02  0.20452956143E+02  0.10925739197E+03  0.00000000000E+00 0. -1.
         -3    1    6    6    0  503 -0.61443311056E+02  0.64911879214E+02  0.11102637479E+03  0.14253311347E+03  0.00000000000E+00 0.  1.
<mgrwt>
<rscale>  0 0.13315781E+04</rscale>
<asrwt>0</asrwt>
<pdfrwt beam="1">  1        2 0.19853094E+00 0.13315781E+04</pdfrwt>
<pdfrwt beam="2">  1       -1 0.52846763E-01 0.13315781E+04</pdfrwt>
<totfact> 0.67375212E+01</totfact>
</mgrwt>
</event>
<event>
12    6  0.1529770E-007  0.1836921E+04  0.7818608E-02  0.8686908E-01
         -1   -1    0    0    0  501 -0.00000000000E+00  0.00000000000E+00  0.51269383629E+03  0.51269383629E+03  0.00000000000E+00 0.  1.
          2   -1    0    0  501    0  0.00000000000E+00 -0.00000000000E+00 -0.16453666196E+04  0.16453666196E+04  0.00000000000E+00 0. -1.
         24    2    1    2    0    0  0.10998014781E+03 -0.16504061715E+03 -0.12123464445E+04  0.12310872993E+04  0.80361674794E+02 0.  0.
        254    2    1    2    0    0 -0.10998014781E+03  0.16504061715E+03  0.79673661250E+02  0.92697315653E+03  0.90199628736E+03 0.  0.
         23    2    4    4    0    0  0.16174853471E+02  0.45294167339E+03 -0.19312258525E+03  0.50090675348E+03  0.90517718546E+02 0.  0.
         23    2    4    4    0    0 -0.12615500128E+03 -0.28790105624E+03  0.27279624650E+03  0.42606640305E+03  0.91173928105E+02 0.  0.
          4    1    3    3  502    0  0.11420076138E+03 -0.17159209010E+03 -0.11615752829E+04  0.11797214914E+04  0.00000000000E+00 0. -1.
         -3    1    3    3    0  502 -0.42206135732E+01  0.65514729521E+01 -0.50771161589E+02  0.51365807945E+02  0.00000000000E+00 0.  1.
         11    1    5    5    0    0 -0.18816763766E+02  0.27614209571E+03 -0.79977970030E+02  0.28810588906E+03  0.00000000000E+00 0.  1.
        -11    1    5    5    0    0  0.34991617236E+02  0.17679957769E+03 -0.11314461522E+03  0.21280086443E+03  0.00000000000E+00 0. -1.
          3    1    6    6  503    0 -0.59023906788E+02 -0.20275112251E+03  0.22178650261E+03  0.30623698665E+03  0.00000000000E+00 0. -1.
         -3    1    6    6    0  503 -0.67131094490E+02 -0.85149933732E+02  0.51009743888E+02  0.11982941639E+03  0.00000000000E+00 0.  1.
<mgrwt>
<rscale>  0 0.18369206E+04</rscale>
<asrwt>0</asrwt>
<pdfrwt beam="1">  1        2 0.25313333E+00 0.18369206E+04</pdfrwt>
<pdfrwt beam="2">  1       -1 0.78875975E-01 0.18369206E+04</pdfrwt>
<totfact> 0.18132382E+01</totfact>
</mgrwt>
</event>
<event>
12    6  0.1529770E-007  0.1224983E+04  0.7818608E-02  0.9091266E-01
         -1   -1    0    0    0  501 -0.00000000000E+00  0.00000000000E+00  0.35302459299E+03  0.35302459299E+03  0.00000000000E+00 0.  1.
          2   -1    0    0  501    0  0.00000000000E+00 -0.00000000000E+00 -0.10626616752E+04  0.10626616752E+04  0.00000000000E+00 0. -1.
         24    2    1    2    0    0  0.14944541424E+03  0.16882394785E+03  0.22637717992E+02  0.24017950386E+03  0.79613256407E+02 0.  0.
        254    2    1    2    0    0 -0.14944541424E+03 -0.16882394785E+03 -0.73227480021E+03  0.11755067643E+04  0.89148993979E+03 0.  0.
         23    2    4    4    0    0  0.15046645162E+03 -0.11988823738E+03 -0.81938471060E+03  0.84657947194E+03  0.91061275051E+02 0.  0.
         23    2    4    4    0    0 -0.29991186586E+03 -0.48935710472E+02  0.87109910389E+02  0.32892729239E+03  0.90902124010E+02 0.  0.
          4    1    3    3  502    0  0.14967342722E+03  0.16135472532E+03  0.37770065410E+02  0.22330261987E+03  0.00000000000E+00 0. -1.
         -3    1    3    3    0  502 -0.22801297745E+00  0.74692225316E+01 -0.15132347418E+02  0.16876883999E+02  0.00000000000E+00 0.  1.
         11    1    5    5    0    0  0.48157135699E+02 -0.94469713579E+02 -0.45925759509E+03  0.47133976615E+03  0.00000000000E+00 0.  1.
        -11    1    5    5    0    0  0.10230931592E+03 -0.25418523800E+02 -0.36012711551E+03  0.37523970579E+03  0.00000000000E+00 0. -1.
          1    1    6    6  503    0 -0.15052829506E+03 -0.19501222893E+02  0.90341688576E+02  0.17663715918E+03  0.00000000000E+00 0. -1.
         -1    1    6    6    0  503 -0.14938357080E+03 -0.29434487579E+02 -0.32317781865E+01  0.15229013321E+03  0.00000000000E+00 0.  1.
<mgrwt>
<rscale>  0 0.12249828E+04</rscale>
<asrwt>0</asrwt>
<pdfrwt beam="1">  1        2 0.16348641E+00 0.12249828E+04</pdfrwt>
<pdfrwt beam="2">  1       -1 0.54311477E-01 0.12249828E+04</pdfrwt>
<totfact> 0.88397474E+01</totfact>
</mgrwt>
</event>
<event>
12    6  0.1529770E-007  0.1220843E+04  0.7818608E-02  0.9094805E-01
          2   -1    0    0  501    0  0.00000000000E+00  0.00000000000E+00  0.12756314945E+04  0.12756314945E+04  0.00000000000E+00 0. -1.
         -1   -1    0    0    0  501 -0.00000000000E+00 -0.00000000000E+00 -0.29210212647E+03  0.29210212647E+03  0.00000000000E+00 0.  1.
         24    2    1    2    0    0  0.12175330372E+03 -0.15052517516E+03  0.47594104971E+03  0.51994354966E+03  0.79622338012E+02 0.  0.
        254    2    1    2    0    0 -0.12175330372E+03  0.15052517516E+03  0.50758831828E+03  0.10477900713E+04  0.89595560006E+03 0.  0.
         23    2    4    4    0    0  0.20683669529E+03  0.29298603162E+03 -0.55959319766E+02  0.37377072405E+03  0.89167681607E+02 0.  0.
         23    2    4    4    0    0 -0.32858999901E+03 -0.14246085647E+03  0.56354763804E+03  0.67401934722E+03  0.91922015889E+02 0.  0.
          4    1    3    3  502    0  0.31096915892E+02 -0.63589233972E+01  0.13693737144E+03  0.14056776936E+03  0.00000000000E+00 0. -1.
         -3    1    3    3    0  502  0.90656387824E+02 -0.14416625176E+03  0.33900367827E+03  0.37937578031E+03  0.00000000000E+00 0.  1.
         11    1    5    5    0    0  0.14016060289E+01  0.54678511223E+02 -0.12980603744E+02  0.56215657628E+02  0.00000000000E+00 0.  1.
        -11    1    5    5    0    0  0.20543508926E+03  0.23830752040E+03 -0.42978716022E+02  0.31755506642E+03  0.00000000000E+00 0. -1.
          1    1    6    6  503    0 -0.12734762052E+03 -0.93765430106E+01  0.21638514459E+03  0.25125259563E+03  0.00000000000E+00 0. -1.
         -1    1    6    6    0  503 -0.20124237848E+03 -0.13308431346E+03  0.34716249345E+03  0.42276675159E+03  0.00000000000E+00 0.  1.
<mgrwt>
<rscale>  0 0.12208434E+04</rscale>
<asrwt>0</asrwt>
<pdfrwt beam="1">  1        2 0.19625100E+00 0.12208434E+04</pdfrwt>
<pdfrwt beam="2">  1       -1 0.44938789E-01 0.12208434E+04</pdfrwt>
<totfact> 0.94171282E+01</totfact>
</mgrwt>
</event>
<event>
12    6  0.1529770E-007  0.1741300E+04  0.7818608E-02  0.8738154E-01
          2   -1    0    0  501    0  0.00000000000E+00  0.00000000000E+00  0.88817920627E+03  0.88817920627E+03  0.00000000000E+00 0. -1.
         -1   -1    0    0    0  501 -0.00000000000E+00 -0.00000000000E+00 -0.85346693804E+03  0.85346693804E+03  0.00000000000E+00 0.  1.
         24    2    1    2    0    0 -0.10553503004E+02  0.72571291197E+02  0.64598372140E+03  0.65504921547E+03  0.80103293611E+02 0.  0.
        254    2    1    2    0    0  0.10553503004E+02 -0.72571291197E+02 -0.61127145317E+03  0.10865969288E+04  0.89535586644E+03 0.  0.
         23    2    4    4    0    0  0.15989259898E+03 -0.72201055708E+02  0.18575372202E+03  0.27063043277E+03  0.89206223111E+02 0.  0.
         23    2    4    4    0    0 -0.14933909598E+03 -0.37023548951E+00 -0.79702517519E+03  0.81596649607E+03  0.90828905993E+02 0.  0.
          4    1    3    3  502    0 -0.33717477497E+01  0.78883892637E+02  0.63717545432E+03  0.64204874954E+03  0.00000000000E+00 0. -1.
         -3    1    3    3    0  502 -0.71817552546E+01 -0.63126014399E+01  0.88082670781E+01  0.13000465930E+02  0.00000000000E+00 0.  1.
         11    1    5    5    0    0  0.11762462074E+03 -0.13733428808E+02  0.14689281274E+03  0.18868401339E+03  0.00000000000E+00 0. -1.
        -11    1    5    5    0    0  0.42267978240E+02 -0.58467626900E+02  0.38860909273E+02  0.81946419381E+02  0.00000000000E+00 0.  1.
          3    1    6    6  503    0 -0.64624511830E+02  0.39659479555E+02 -0.45792134052E+03  0.46415639169E+03  0.00000000000E+00 0. -1.
         -3    1    6    6    0  503 -0.84714584148E+02 -0.40029715044E+02 -0.33910383467E+03  0.35181010438E+03  0.00000000000E+00 0.  1.
<mgrwt>
<rscale>  0 0.17413002E+04</rscale>
<asrwt>0</asrwt>
<pdfrwt beam="1">  1        2 0.13664295E+00 0.17413002E+04</pdfrwt>
<pdfrwt beam="2">  1       -1 0.13130261E+00 0.17413002E+04</pdfrwt>
<totfact> 0.15990161E+01</totfact>
</mgrwt>
</event>
<event>
12    6  0.1529770E-007  0.1214941E+04  0.7818608E-02  0.9099879E-01
         -1   -1    0    0    0  501 -0.00000000000E+00  0.00000000000E+00  0.10517328183E+04  0.10517328183E+04  0.00000000000E+00 0.  1.
          2   -1    0    0  501    0  0.00000000000E+00 -0.00000000000E+00 -0.35086880855E+03  0.35086880855E+03  0.00000000000E+00 0. -1.
         24    2    1    2    0    0 -0.20314906969E+03 -0.71614260155E+02 -0.17010003887E+02  0.23052765826E+03  0.80346214700E+02 0.  0.
        254    2    1    2    0    0  0.20314906969E+03  0.71614260155E+02  0.71787401364E+03  0.11720739686E+04  0.90111938255E+03 0.  0.
         23    2    4    4    0    0  0.45582359416E+03 -0.68854337682E+02  0.73091664140E+03  0.86891383403E+03  0.90862783807E+02 0.  0.
         23    2    4    4    0    0 -0.25267452447E+03  0.14046859784E+03 -0.13042627756E+02  0.30316013456E+03  0.90333353510E+02 0.  0.
          4    1    3    3  502    0 -0.18786027963E+03 -0.60149369682E+02  0.99225321549E+01  0.19750414675E+03  0.00000000000E+00 0. -1.
         -3    1    3    3    0  502 -0.15288790052E+02 -0.11464890474E+02 -0.26932536041E+02  0.33023511510E+02  0.00000000000E+00 0.  1.
         11    1    5    5    0    0  0.43607136371E+03 -0.56848989104E+02  0.65019608928E+03  0.78494904059E+03  0.00000000000E+00 0.  1.
        -11    1    5    5    0    0  0.19752230444E+02 -0.12005348578E+02  0.80720552119E+02  0.83964793433E+02  0.00000000000E+00 0. -1.
          4    1    6    6  503    0 -0.81793558033E+01 -0.12145751152E+02 -0.13663972452E+01  0.14706739062E+02  0.00000000000E+00 0. -1.
         -4    1    6    6    0  503 -0.24449516867E+03  0.15261434899E+03 -0.11676230511E+02  0.28845339550E+03  0.00000000000E+00 0.  1.
<mgrwt>
<rscale>  0 0.12149407E+04</rscale>
<asrwt>0</asrwt>
<pdfrwt beam="1">  1        2 0.53979817E-01 0.12149407E+04</pdfrwt>
<pdfrwt beam="2">  1       -1 0.16180505E+00 0.12149407E+04</pdfrwt>
<totfact> 0.29459277E+01</totfact>
</mgrwt>
</event>
<event>
12    6  0.1529770E-007  0.1354577E+04  0.7818608E-02  0.8987371E-01
         -1   -1    0    0    0  501 -0.00000000000E+00  0.00000000000E+00  0.94057632825E+03  0.94057632825E+03  0.00000000000E+00 0.  1.
          2   -1    0    0  501    0  0.00000000000E+00 -0.00000000000E+00 -0.48770066519E+03  0.48770066519E+03  0.00000000000E+00 0. -1.
         24    2    1    2    0    0 -0.34475314612E+03  0.16720343282E+03  0.16914227778E+03  0.42641813212E+03  0.80072426963E+02 0.  0.
        254    2    1    2    0    0  0.34475314612E+03 -0.16720343282E+03  0.28373338529E+03  0.10018588613E+04  0.88113836846E+03 0.  0.
         23    2    4    4    0    0  0.27228539432E+03 -0.51489957984E+03  0.21580576911E+03  0.62871207701E+03  0.97189672916E+02 0.  0.
         23    2    4    4    0    0  0.72467751802E+02  0.34769614702E+03  0.67927616175E+02  0.37314678431E+03  0.92087870538E+02 0.  0.
          2    1    3    3  502    0 -0.19855588840E+02  0.35867295630E+02  0.17307900684E+02  0.44500232922E+02  0.00000000000E+00 0. -1.
         -1    1    3    3    0  502 -0.32489755728E+03  0.13133613719E+03  0.15183437709E+03  0.38191789920E+03  0.00000000000E+00 0.  1.
         11    1    5    5    0    0  0.21238337962E+02 -0.23685382360E+02 -0.89300297245E+01  0.33042544815E+02  0.00000000000E+00 0. -1.
        -11    1    5    5    0    0  0.25104705636E+03 -0.49121419748E+03  0.22473579884E+03  0.59566953220E+03  0.00000000000E+00 0.  1.
          1    1    6    6  503    0  0.20914238687E+02  0.28400040493E+03  0.47622539041E+02  0.28872398863E+03  0.00000000000E+00 0. -1.
         -1    1    6    6    0  503  0.51553513115E+02  0.63695742083E+02  0.20305077133E+02  0.84422795685E+02  0.00000000000E+00 0.  1.
<mgrwt>
<rscale>  0 0.13545770E+04</rscale>
<asrwt>0</asrwt>
<pdfrwt beam="1">  1        2 0.75030872E-01 0.13545770E+04</pdfrwt>
<pdfrwt beam="2">  1       -1 0.14470405E+00 0.13545770E+04</pdfrwt>
<totfact> 0.27195802E+01</totfact>
</mgrwt>
</event>
<event>
12    6  0.2653729E-007  0.2436955E+04  0.7818608E-02  0.8425796E-01
         -3   -1    0    0    0  501 -0.00000000000E+00  0.00000000000E+00  0.95044184865E+03  0.95044184865E+03  0.00000000000E+00 0.  1.
          4   -1    0    0  501    0  0.00000000000E+00 -0.00000000000E+00 -0.15621027617E+04  0.15621027617E+04  0.00000000000E+00 0. -1.
         24    2    1    2    0    0 -0.85904766684E+03 -0.57783015030E+03 -0.44146865575E+03  0.11288184225E+04  0.86520982378E+02 0.  0.
        254    2    1    2    0    0  0.85904766684E+03  0.57783015030E+03 -0.17019225728E+03  0.13837261879E+04  0.90215418972E+03 0.  0.
         23    2    4    4    0    0  0.35636810087E+03  0.40684412776E+03  0.33676229720E+03  0.64389793981E+03  0.93141529238E+02 0.  0.
         23    2    4    4    0    0  0.50267956597E+03  0.17098602255E+03 -0.50695455448E+03  0.73982824805E+03  0.91760287459E+02 0.  0.
          2    1    3    3  502    0 -0.71495620951E+03 -0.47073361565E+03 -0.32952892075E+03  0.91724687409E+03  0.00000000000E+00 0. -1.
         -1    1    3    3    0  502 -0.14409145733E+03 -0.10709653465E+03 -0.11193973501E+03  0.21157154838E+03  0.00000000000E+00 0.  1.
         11    1    5    5    0    0  0.43769533764E+02  0.12345931820E+02  0.27969939248E+02  0.53390182805E+02  0.00000000000E+00 0. -1.
        -11    1    5    5    0    0  0.31259856711E+03  0.39449819593E+03  0.30879235795E+03  0.59050775700E+03  0.00000000000E+00 0.  1.
          3    1    6    6  503    0  0.86483286511E+02  0.27481487992E+02 -0.43584107326E+02  0.10066859212E+03  0.00000000000E+00 0. -1.
         -3    1    6    6    0  503  0.41619627946E+03  0.14350453456E+03 -0.46337044715E+03  0.63915965593E+03  0.00000000000E+00 0.  1.
<mgrwt>
<rscale>  0 0.24369553E+04</rscale>
<asrwt>0</asrwt>
<pdfrwt beam="1">  1        4 0.24032350E+00 0.24369553E+04</pdfrwt>
<pdfrwt beam="2">  1       -3 0.14622183E+00 0.24369553E+04</pdfrwt>
<totfact> 0.51021702E-02</totfact>
</mgrwt>
</event>
<event>
12    6  0.1529770E-007  0.2998943E+04  0.7818608E-02  0.8244033E-01
          2   -1    0    0  501    0  0.00000000000E+00  0.00000000000E+00  0.22552426363E+04  0.22552426363E+04  0.00000000000E+00 0. -1.
         -1   -1    0    0    0  501 -0.00000000000E+00 -0.00000000000E+00 -0.99697253465E+03  0.99697253465E+03  0.00000000000E+00 0.  1.
         24    2    1    2    0    0 -0.34489011993E+03  0.11810446416E+04 -0.49369340559E+02  0.12337363570E+04  0.76501154957E+02 0.  0.
        254    2    1    2    0    0  0.34489011993E+03 -0.11810446416E+04  0.13076394422E+04  0.20184788139E+04  0.92223650498E+03 0.  0.
         23    2    4    4    0    0 -0.51603835576E+00 -0.11751478455E+04  0.10428227986E+04  0.15738767800E+04  0.92930105490E+02 0.  0.
         23    2    4    4    0    0  0.34540615829E+03 -0.58967960889E+01  0.26481664362E+03  0.44460203385E+03  0.90570013646E+02 0.  0.
          2    1    3    3  502    0 -0.25314615829E+03  0.89951892914E+03 -0.60041660036E+01  0.93448024663E+03  0.00000000000E+00 0. -1.
         -1    1    3    3    0  502 -0.91743961644E+02  0.28152571242E+03 -0.43365174555E+02  0.29925611041E+03  0.00000000000E+00 0.  1.
         11    1    5    5    0    0 -0.37679713476E+02 -0.27709254273E+03  0.23130035742E+03  0.36290479935E+03  0.00000000000E+00 0.  1.
        -11    1    5    5    0    0  0.37163675120E+02 -0.89805530274E+03  0.81152244114E+03  0.12109719807E+04  0.00000000000E+00 0. -1.
          1    1    6    6  503    0  0.33613316088E+03  0.93753847000E+01  0.23643784721E+03  0.41106721504E+03  0.00000000000E+00 0. -1.
         -1    1    6    6    0  503  0.92729974081E+01 -0.15272180789E+02  0.28378796409E+02  0.33534818810E+02  0.00000000000E+00 0.  1.
<mgrwt>
<rscale>  0 0.29989431E+04</rscale>
<asrwt>0</asrwt>
<pdfrwt beam="1">  1        2 0.34696041E+00 0.29989431E+04</pdfrwt>
<pdfrwt beam="2">  1       -1 0.15338039E+00 0.29989431E+04</pdfrwt>
<totfact> 0.15363291E+00</totfact>
</mgrwt>
</event>
<event>
12    6  0.1529770E-007  0.1560222E+04  0.7818608E-02  0.8845365E-01
          2   -1    0    0  501    0  0.00000000000E+00  0.00000000000E+00  0.10834815427E+04  0.10834815427E+04  0.00000000000E+00 0. -1.
         -1   -1    0    0    0  501 -0.00000000000E+00 -0.00000000000E+00 -0.56168329153E+03  0.56168329153E+03  0.00000000000E+00 0.  1.
         24    2    1    2    0    0 -0.27443628681E+03 -0.32519156778E+03 -0.14240418845E+03  0.45616736563E+03  0.82127226290E+02 0.  0.
        254    2    1    2    0    0  0.27443628681E+03  0.32519156778E+03  0.66420243958E+03  0.11889974686E+04  0.88965457805E+03 0.  0.
         23    2    4    4    0    0  0.34179718741E+03  0.77980364673E+02  0.80412716880E+03  0.88200447523E+03  0.91679529505E+02 0.  0.
         23    2    4    4    0    0 -0.67360900598E+02  0.24721120311E+03 -0.13992472921E+03  0.30699299334E+03  0.94946817971E+02 0.  0.
          4    1    3    3  502    0 -0.20004735712E+02 -0.46919562262E+02 -0.41734479556E+02  0.65904488144E+02  0.00000000000E+00 0. -1.
         -3    1    3    3    0  502 -0.25443155110E+03 -0.27827200552E+03 -0.10066970890E+03  0.39026287748E+03  0.00000000000E+00 0.  1.
         11    1    5    5    0    0  0.32036682119E+03  0.65093312451E+02  0.78553034095E+03  0.85084073480E+03  0.00000000000E+00 0.  1.
        -11    1    5    5    0    0  0.21430366225E+02  0.12887052222E+02  0.18596827846E+02  0.31163740428E+02  0.00000000000E+00 0. -1.
          3    1    6    6  503    0 -0.14015943386E+02  0.13449458602E+01  0.69178072459E+01  0.15687944590E+02  0.00000000000E+00 0. -1.
         -3    1    6    6    0  503 -0.53344957212E+02  0.24586625725E+03 -0.14684253646E+03  0.29130504875E+03  0.00000000000E+00 0.  1.
<mgrwt>
<rscale>  0 0.15602224E+04</rscale>
<asrwt>0</asrwt>
<pdfrwt beam="1">  1        2 0.16668947E+00 0.15602224E+04</pdfrwt>
<pdfrwt beam="2">  1       -1 0.86412814E-01 0.15602224E+04</pdfrwt>
<totfact> 0.32329052E+01</totfact>
</mgrwt>
</event>
<event>
12    6  0.1529770E-007  0.1059881E+04  0.7818608E-02  0.9245202E-01
         -1   -1    0    0    0  501 -0.00000000000E+00  0.00000000000E+00  0.19779981490E+03  0.19779981490E+03  0.00000000000E+00 0.  1.
          2   -1    0    0  501    0  0.00000000000E+00 -0.00000000000E+00 -0.14198036787E+04  0.14198036787E+04  0.00000000000E+00 0. -1.
         24    2    1    2    0    0 -0.13270965802E+03  0.20334762440E+02 -0.13001074512E+03  0.20310340808E+03  0.79516316768E+02 0.  0.
        254    2    1    2    0    0  0.13270965802E+03 -0.20334762440E+02 -0.10919931187E+04  0.14145000856E+04  0.88900852912E+03 0.  0.
         23    2    4    4    0    0  0.57579569078E+02  0.17206253032E+03 -0.11611546552E+04  0.11787567505E+04  0.90919868440E+02 0.  0.
         23    2    4    4    0    0  0.75130088941E+02 -0.19239729276E+03  0.69161536458E+02  0.23574333507E+03  0.90168472197E+02 0.  0.
          2    1    3    3  502    0 -0.12416077358E+03  0.40562449073E+02 -0.12453253092E+03  0.18047038878E+03  0.00000000000E+00 0. -1.
         -1    1    3    3    0  502 -0.85488844417E+01 -0.20227686633E+02 -0.54782142001E+01  0.22633019298E+02  0.00000000000E+00 0.  1.
         11    1    5    5    0    0  0.50511009953E+02  0.70958650531E+02 -0.32451783489E+03  0.33600344846E+03  0.00000000000E+00 0. -1.
        -11    1    5    5    0    0  0.70685591251E+01  0.10110387979E+03 -0.83663682028E+03  0.84275330204E+03  0.00000000000E+00 0.  1.
          3    1    6    6  503    0  0.28356917234E+02 -0.99775039561E+01 -0.96853358256E+01  0.31582765399E+02  0.00000000000E+00 0. -1.
         -3    1    6    6    0  503  0.46773171708E+02 -0.18241978881E+03  0.78846872284E+02  0.20416056967E+03  0.00000000000E+00 0.  1.
<mgrwt>
<rscale>  0 0.10598809E+04</rscale>
<asrwt>0</asrwt>
<pdfrwt beam="1">  1        2 0.21843133E+00 0.10598809E+04</pdfrwt>
<pdfrwt beam="2">  1       -1 0.30430741E-01 0.10598809E+04</pdfrwt>
<totfact> 0.15892447E+02</totfact>
</mgrwt>
</event>
<event>
12    6  0.1529770E-007  0.1729031E+04  0.7818608E-02  0.8744978E-01
         -1   -1    0    0    0  501 -0.00000000000E+00  0.00000000000E+00  0.43807022939E+03  0.43807022939E+03  0.00000000000E+00 0.  1.
          2   -1    0    0  501    0  0.00000000000E+00 -0.00000000000E+00 -0.17060889131E+04  0.17060889131E+04  0.00000000000E+00 0. -1.
         24    2    1    2    0    0  0.41819950833E+03 -0.38940355768E+03 -0.65828636284E+03  0.87539195716E+03  0.80275672810E+02 0.  0.
        254    2    1    2    0    0 -0.41819950833E+03  0.38940355768E+03 -0.60973232085E+03  0.12687671853E+04  0.95470975063E+03 0.  0.
         23    2    4    4    0    0 -0.10383508973E+03  0.23839403397E+03  0.22738987283E+03  0.35727415837E+03  0.91242691107E+02 0.  0.
         23    2    4    4    0    0 -0.31436441859E+03  0.15100952371E+03 -0.83712219368E+03  0.91149302695E+03  0.91744793237E+02 0.  0.
          2    1    3    3  502    0  0.25747893394E+02 -0.51124643507E+02 -0.46988606438E+02  0.74058168509E+02  0.00000000000E+00 0. -1.
         -1    1    3    3    0  502  0.39245161493E+03 -0.33827891418E+03 -0.61129775641E+03  0.80133378865E+03  0.00000000000E+00 0.  1.
         11    1    5    5    0    0 -0.23368599519E+01 -0.72068981053E+01  0.16005791264E+02  0.17708349689E+02  0.00000000000E+00 0. -1.
        -11    1    5    5    0    0 -0.10149822978E+03  0.24560093208E+03  0.21138408157E+03  0.33956580868E+03  0.00000000000E+00 0.  1.
          3    1    6    6  503    0 -0.11330406973E+03  0.99036985967E+02 -0.30013646861E+03  0.33574996142E+03  0.00000000000E+00 0. -1.
         -3    1    6    6    0  503 -0.20106034886E+03  0.51972537747E+02 -0.53698572507E+03  0.57574306552E+03  0.00000000000E+00 0.  1.
<mgrwt>
<rscale>  0 0.17290307E+04</rscale>
<asrwt>0</asrwt>
<pdfrwt beam="1">  1        2 0.26247522E+00 0.17290307E+04</pdfrwt>
<pdfrwt beam="2">  1       -1 0.67395419E-01 0.17290307E+04</pdfrwt>
<totfact> 0.23464569E+01</totfact>
</mgrwt>
</event>
<event>
12    6  0.1529770E-007  0.1676381E+04  0.7818608E-02  0.8774951E-01
          2   -1    0    0  501    0  0.00000000000E+00  0.00000000000E+00  0.76463742093E+03  0.76463742093E+03  0.00000000000E+00 0. -1.
         -1   -1    0    0    0  501 -0.00000000000E+00 -0.00000000000E+00 -0.91881926116E+03  0.91881926116E+03  0.00000000000E+00 0.  1.
         24    2    1    2    0    0 -0.36656462434E+03  0.28947685905E+03 -0.40652498715E+03  0.62501769636E+03  0.84959283427E+02 0.  0.
        254    2    1    2    0    0  0.36656462434E+03 -0.28947685905E+03  0.25234314692E+03  0.10584389857E+04  0.91566890685E+03 0.  0.
         23    2    4    4    0    0 -0.18342263934E+03 -0.13052864816E+03  0.39305035605E+03  0.46153181713E+03  0.88551923850E+02 0.  0.
         23    2    4    4    0    0  0.54998726369E+03 -0.15894821089E+03 -0.14070720913E+03  0.59690716860E+03  0.93536758853E+02 0.  0.
          4    1    3    3  502    0 -0.44442884757E+02  0.45189964959E+01 -0.37864513143E+02  0.58560333763E+02  0.00000000000E+00 0. -1.
         -3    1    3    3    0  502 -0.32212173959E+03  0.28495786255E+03 -0.36866047400E+03  0.56645736259E+03  0.00000000000E+00 0.  1.
         11    1    5    5    0    0 -0.17209914371E+03 -0.14043956735E+03  0.33796222058E+03  0.40442533289E+03  0.00000000000E+00 0.  1.
        -11    1    5    5    0    0 -0.11323495638E+02  0.99109191931E+01  0.55088135477E+02  0.57106484247E+02  0.00000000000E+00 0. -1.
          4    1    6    6  503    0  0.19514097646E+02 -0.15488989967E+02 -0.25067622442E+02  0.35342531206E+02  0.00000000000E+00 0. -1.
         -4    1    6    6    0  503  0.53047316604E+03 -0.14345922092E+03 -0.11563958669E+03  0.56156463739E+03  0.00000000000E+00 0.  1.
<mgrwt>
<rscale>  0 0.16763813E+04</rscale>
<asrwt>0</asrwt>
<pdfrwt beam="1">  1        2 0.11763653E+00 0.16763813E+04</pdfrwt>
<pdfrwt beam="2">  1       -1 0.14135681E+00 0.16763813E+04</pdfrwt>
<totfact> 0.16267498E+01</totfact>
</mgrwt>
</event>
<event>
12    6  0.1529770E-007  0.2111269E+04  0.7818608E-02  0.8556296E-01
         -1   -1    0    0    0  501 -0.00000000000E+00  0.00000000000E+00  0.38248469176E+03  0.38248469176E+03  0.00000000000E+00 0.  1.
          2   -1    0    0  501    0  0.00000000000E+00 -0.00000000000E+00 -0.29134865195E+04  0.29134865195E+04  0.00000000000E+00 0. -1.
         24    2    1    2    0    0 -0.81973397710E+02 -0.35984477087E+03 -0.22469625485E+04  0.22785056986E+04  0.80867961530E+02 0.  0.
        254    2    1    2    0    0  0.81973397710E+02  0.35984477087E+03 -0.28403927927E+03  0.10174655127E+04  0.90462691771E+03 0.  0.
         23    2    4    4    0    0  0.29909966902E+03 -0.11731142280E+03 -0.34671874060E+03  0.48189239585E+03  0.93722004705E+02 0.  0.
         23    2    4    4    0    0 -0.21712627131E+03  0.47715619367E+03  0.62679461337E+02  0.53557311682E+03  0.89933296004E+02 0.  0.
          2    1    3    3  502    0 -0.92434201586E+02 -0.24682332924E+03 -0.16347075086E+04  0.16558183705E+04  0.00000000000E+00 0. -1.
         -3    1    3    3    0  502  0.10460803876E+02 -0.11302144163E+03 -0.61225503993E+03  0.62268732813E+03  0.00000000000E+00 0.  1.
         11    1    5    5    0    0 -0.71341220683E+01 -0.29930089259E+01 -0.94640497911E+01  0.12223830765E+02  0.00000000000E+00 0.  1.
        -11    1    5    5    0    0  0.30623379109E+03 -0.11431841387E+03 -0.33725469081E+03  0.46966856509E+03  0.00000000000E+00 0. -1.
          1    1    6    6  503    0 -0.20858033856E+03  0.37288993847E+03  0.48751532525E+02  0.43003415651E+03  0.00000000000E+00 0. -1.
         -1    1    6    6    0  503 -0.85459327494E+01  0.10426625520E+03  0.13927928812E+02  0.10553896030E+03  0.00000000000E+00 0.  1.
<mgrwt>
<rscale>  0 0.21112688E+04</rscale>
<asrwt>0</asrwt>
<pdfrwt beam="1">  1        2 0.44822867E+00 0.21112688E+04</pdfrwt>
<pdfrwt beam="2">  1       -1 0.58843802E-01 0.21112688E+04</pdfrwt>
<totfact> 0.60532586E+00</totfact>
</mgrwt>
</event>
<event>
12    6  0.1529770E-007  0.1156306E+04  0.7818608E-02  0.9151985E-01
         -1   -1    0    0    0  501 -0.00000000000E+00  0.00000000000E+00  0.87521020586E+03  0.87521020586E+03  0.00000000000E+00 0.  1.
          2   -1    0    0  501    0  0.00000000000E+00 -0.00000000000E+00 -0.38192079245E+03  0.38192079245E+03  0.00000000000E+00 0. -1.
         24    2    1    2    0    0 -0.14285035407E+02  0.19626118139E+03  0.23537042509E+03  0.31671556786E+03  0.78657487634E+02 0.  0.
        254    2    1    2    0    0  0.14285035407E+02 -0.19626118139E+03  0.25791898832E+03  0.94041543045E+03  0.88268707010E+03 0.  0.
         23    2    4    4    0    0 -0.29200141944E+03 -0.41349128026E+03  0.10373905994E+03  0.52443012583E+03  0.89584019284E+02 0.  0.
         23    2    4    4    0    0  0.30628645485E+03  0.21723009887E+03  0.15417992838E+03  0.41598530462E+03  0.90950618820E+02 0.  0.
          2    1    3    3  502    0 -0.14180190480E+02  0.10331269692E+03  0.65695289661E+02  0.12324959323E+03  0.00000000000E+00 0. -1.
         -1    1    3    3    0  502 -0.10484492725E+00  0.92948484468E+02  0.16967513543E+03  0.19346597464E+03  0.00000000000E+00 0.  1.
         11    1    5    5    0    0 -0.13110058687E+02  0.23726772712E+01  0.34559483304E+01  0.13763967999E+02  0.00000000000E+00 0. -1.
        -11    1    5    5    0    0 -0.27889136075E+03 -0.41586395753E+03  0.10028311161E+03  0.51066615783E+03  0.00000000000E+00 0.  1.
          2    1    6    6  503    0  0.18054077081E+03  0.86865802287E+02  0.47964915240E+02  0.20601279238E+03  0.00000000000E+00 0. -1.
         -2    1    6    6    0  503  0.12574568404E+03  0.13036429659E+03  0.10621501314E+03  0.20997251224E+03  0.00000000000E+00 0.  1.
<mgrwt>
<rscale>  0 0.11563061E+04</rscale>
<asrwt>0</asrwt>
<pdfrwt beam="1">  1        2 0.58757045E-01 0.11563061E+04</pdfrwt>
<pdfrwt beam="2">  1       -1 0.13464772E+00 0.11563061E+04</pdfrwt>
<totfact> 0.44018752E+01</totfact>
</mgrwt>
</event>
<event>
12    6  0.1529770E-007  0.1861320E+04  0.7818608E-02  0.8674353E-01
          2   -1    0    0  501    0  0.00000000000E+00  0.00000000000E+00  0.24015551945E+04  0.24015551945E+04  0.00000000000E+00 0. -1.
         -1   -1    0    0    0  501 -0.00000000000E+00 -0.00000000000E+00 -0.36065287081E+03  0.36065287081E+03  0.00000000000E+00 0.  1.
         24    2    1    2    0    0 -0.64057240717E+02 -0.25928720619E+03  0.17743471337E+04  0.17961488681E+04  0.80683457378E+02 0.  0.
        254    2    1    2    0    0  0.64057240717E+02  0.25928720619E+03  0.26655518998E+03  0.96605919715E+03  0.88931744485E+03 0.  0.
         23    2    4    4    0    0 -0.11556825357E+02 -0.57845865403E+02  0.52747139512E+03  0.53861434981E+03  0.91649554248E+02 0.  0.
         23    2    4    4    0    0  0.75614066074E+02  0.31713307160E+03 -0.26091620514E+03  0.42744484734E+03  0.91328852655E+02 0.  0.
          2    1    3    3  502    0 -0.83494789158E+02 -0.20569258712E+03  0.14126876566E+04  0.14300235086E+04  0.00000000000E+00 0. -1.
         -1    1    3    3    0  502  0.19437548441E+02 -0.53594619073E+02  0.36165947711E+03  0.36612535949E+03  0.00000000000E+00 0.  1.
         11    1    5    5    0    0 -0.38569348657E+02 -0.24603697783E+02  0.11261819170E+03  0.12155572262E+03  0.00000000000E+00 0. -1.
        -11    1    5    5    0    0  0.27012523300E+02 -0.33242167620E+02  0.41485320342E+03  0.41705862718E+03  0.00000000000E+00 0.  1.
          3    1    6    6  503    0 -0.16141412957E+02  0.11729995215E+03 -0.99620147292E+02  0.15473848175E+03  0.00000000000E+00 0. -1.
         -3    1    6    6    0  503  0.91755479030E+02  0.19983311945E+03 -0.16129605785E+03  0.27270636560E+03  0.00000000000E+00 0.  1.
<mgrwt>
<rscale>  0 0.18613197E+04</rscale>
<asrwt>0</asrwt>
<pdfrwt beam="1">  1        2 0.36947002E+00 0.18613197E+04</pdfrwt>
<pdfrwt beam="2">  1       -1 0.55485058E-01 0.18613197E+04</pdfrwt>
<totfact> 0.13946969E+01</totfact>
</mgrwt>
</event>
<event>
12    6  0.1529770E-007  0.2274769E+04  0.7818608E-02  0.8487936E-01
         -1   -1    0    0    0  501 -0.00000000000E+00  0.00000000000E+00  0.56178477235E+03  0.56178477235E+03  0.00000000000E+00 0.  1.
          2   -1    0    0  501    0  0.00000000000E+00 -0.00000000000E+00 -0.23027391729E+04  0.23027391729E+04  0.00000000000E+00 0. -1.
         24    2    1    2    0    0  0.77268274580E+03 -0.15388650624E+03 -0.14314916674E+04  0.16358610663E+04  0.78443303560E+02 0.  0.
        254    2    1    2    0    0 -0.77268274580E+03  0.15388650624E+03 -0.30946273314E+03  0.12286628790E+04  0.89057599590E+03 0.  0.
         23    2    4    4    0    0  0.16110233735E+03  0.96688787284E+02  0.62684736080E+02  0.21777280916E+03  0.90514836277E+02 0.  0.
         23    2    4    4    0    0 -0.93378508315E+03  0.57197718954E+02 -0.37214746922E+03  0.10108900698E+04  0.90436905146E+02 0.  0.
          2    1    3    3  502    0  0.71950652232E+03 -0.12872887957E+03 -0.12911282789E+04  0.14836687611E+04  0.00000000000E+00 0. -1.
         -1    1    3    3    0  502  0.53176223476E+02 -0.25157626672E+02 -0.14036338852E+03  0.15219230519E+03  0.00000000000E+00 0.  1.
         11    1    5    5    0    0  0.60908982237E+02  0.77255129428E+02  0.60888318417E+02  0.11569635457E+03  0.00000000000E+00 0. -1.
        -11    1    5    5    0    0  0.10019335511E+03  0.19433657856E+02  0.17964176630E+01  0.10207645459E+03  0.00000000000E+00 0.  1.
          3    1    6    6  503    0 -0.83601118674E+03  0.50611473761E+02 -0.36181259699E+03  0.91235112811E+03  0.00000000000E+00 0. -1.
         -3    1    6    6    0  503 -0.97773896409E+02  0.65862451936E+01 -0.10334872226E+02  0.98538941686E+02  0.00000000000E+00 0.  1.
<mgrwt>
<rscale>  0 0.22747693E+04</rscale>
<asrwt>0</asrwt>
<pdfrwt beam="1">  1        2 0.35426757E+00 0.22747693E+04</pdfrwt>
<pdfrwt beam="2">  1       -1 0.86428426E-01 0.22747693E+04</pdfrwt>
<totfact> 0.61650118E+00</totfact>
</mgrwt>
</event>
<event>
12    6  0.1529770E-007  0.2245056E+04  0.7818608E-02  0.8499906E-01
          2   -1    0    0  501    0  0.00000000000E+00  0.00000000000E+00  0.15505759246E+04  0.15505759246E+04  0.00000000000E+00 0. -1.
         -1   -1    0    0    0  501 -0.00000000000E+00 -0.00000000000E+00 -0.81264554903E+03  0.81264554903E+03  0.00000000000E+00 0.  1.
         24    2    1    2    0    0  0.19125608548E+03  0.83145388463E+03  0.69096101368E+03  0.11011366521E+04  0.84736956127E+02 0.  0.
        254    2    1    2    0    0 -0.19125608548E+03 -0.83145388463E+03  0.46969361937E+02  0.12620848215E+04  0.92884741660E+03 0.  0.
         23    2    4    4    0    0  0.26633692718E+03 -0.72256118043E+03  0.92900496697E+02  0.78081188710E+03  0.89480067659E+02 0.  0.
         23    2    4    4    0    0 -0.45759301265E+03 -0.10889270420E+03 -0.45931134760E+02  0.48127293444E+03  0.90911946588E+02 0.  0.
          2    1    3    3  502    0  0.11566293220E+02  0.69039662366E+02  0.29719919933E+02  0.76049508607E+02  0.00000000000E+00 0. -1.
         -1    1    3    3    0  502  0.17968979226E+03  0.76241422227E+03  0.66124109374E+03  0.10250871435E+04  0.00000000000E+00 0.  1.
         11    1    5    5    0    0  0.18397882352E+03 -0.59715722262E+03  0.84541910666E+02  0.63054919768E+03  0.00000000000E+00 0. -1.
        -11    1    5    5    0    0  0.82358103660E+02 -0.12540395781E+03  0.83585860306E+01  0.15026268943E+03  0.00000000000E+00 0.  1.
          3    1    6    6  503    0 -0.34671263678E+03 -0.11890465903E+03 -0.49631058888E+02  0.36987999736E+03  0.00000000000E+00 0. -1.
         -3    1    6    6    0  503 -0.11088037587E+03  0.10011954834E+02  0.36999241280E+01  0.11139293708E+03  0.00000000000E+00 0.  1.
<mgrwt>
<rscale>  0 0.22450556E+04</rscale>
<asrwt>0</asrwt>
<pdfrwt beam="1">  1        2 0.23855014E+00 0.22450556E+04</pdfrwt>
<pdfrwt beam="2">  1       -1 0.12502239E+00 0.22450556E+04</pdfrwt>
<totfact> 0.68978274E+00</totfact>
</mgrwt>
</event>
<event>
12    6  0.1529770E-007  0.1888922E+04  0.7818608E-02  0.8660391E-01
          2   -1    0    0  501    0  0.00000000000E+00  0.00000000000E+00  0.16843768286E+04  0.16843768286E+04  0.00000000000E+00 0. -1.
         -1   -1    0    0    0  501 -0.00000000000E+00 -0.00000000000E+00 -0.52957641240E+03  0.52957641240E+03  0.00000000000E+00 0.  1.
         24    2    1    2    0    0  0.51180291516E+03 -0.11285260467E+03  0.10397040477E+04  0.11671123129E+04  0.80552529216E+02 0.  0.
        254    2    1    2    0    0 -0.51180291516E+03  0.11285260467E+03  0.11509636852E+03  0.10468409280E+04  0.89886084585E+03 0.  0.
         23    2    4    4    0    0 -0.39611633231E+02  0.41287136074E+03 -0.10711713529E+03  0.43826063437E+03  0.92555177878E+02 0.  0.
         23    2    4    4    0    0 -0.47219128193E+03 -0.30001875607E+03  0.22221350382E+03  0.60858029366E+03  0.89528050525E+02 0.  0.
          2    1    3    3  502    0  0.45093316155E+03 -0.12362043065E+03  0.89554431509E+03  0.10102585547E+04  0.00000000000E+00 0. -1.
         -1    1    3    3    0  502  0.60869753608E+02  0.10767825974E+02  0.14415973256E+03  0.15685375824E+03  0.00000000000E+00 0.  1.
         11    1    5    5    0    0  0.19647080858E+02  0.69063734277E+02  0.45505316376E+01  0.71947998698E+02  0.00000000000E+00 0.  1.
        -11    1    5    5    0    0 -0.59258714089E+02  0.34380762647E+03 -0.11166766693E+03  0.36631263567E+03  0.00000000000E+00 0. -1.
          4    1    6    6  503    0 -0.11457116882E+03 -0.12001315616E+03  0.73742228052E+02  0.18156989446E+03  0.00000000000E+00 0. -1.
         -4    1    6    6    0  503 -0.35762011311E+03 -0.18000559991E+03  0.14847127576E+03  0.42701039920E+03  0.00000000000E+00 0.  1.
<mgrwt>
<rscale>  0 0.18889216E+04</rscale>
<asrwt>0</asrwt>
<pdfrwt beam="1">  1        2 0.25913489E+00 0.18889216E+04</pdfrwt>
<pdfrwt beam="2">  1       -1 0.81473295E-01 0.18889216E+04</pdfrwt>
<totfact> 0.16026242E+01</totfact>
</mgrwt>
</event>
<event>
12    6  0.1529770E-007  0.1170440E+04  0.7818608E-02  0.9139132E-01
         -1   -1    0    0    0  501 -0.00000000000E+00  0.00000000000E+00  0.69117310108E+03  0.69117310108E+03  0.00000000000E+00 0.  1.
          2   -1    0    0  501    0  0.00000000000E+00 -0.00000000000E+00 -0.49550859279E+03  0.49550859279E+03  0.00000000000E+00 0. -1.
         24    2    1    2    0    0  0.37406288162E+02  0.24281689906E+03  0.10071058622E+03  0.27807192280E+03  0.82595975765E+02 0.  0.
        254    2    1    2    0    0 -0.37406288162E+02 -0.24281689906E+03  0.94953922069E+02  0.90860977106E+03  0.86959541851E+03 0.  0.
         23    2    4    4    0    0 -0.38741942590E+03 -0.14373069077E+03  0.26047821919E+03  0.49810887961E+03  0.97525536345E+02 0.  0.
         23    2    4    4    0    0  0.35001313774E+03 -0.99086208289E+02 -0.16552429712E+03  0.41050089145E+03  0.93730548279E+02 0.  0.
          4    1    3    3  502    0 -0.49018649964E+01  0.51277944191E+01  0.23581983603E+02  0.24625850375E+02  0.00000000000E+00 0. -1.
         -3    1    3    3    0  502  0.42308153158E+02  0.23768910464E+03  0.77128602617E+02  0.25344607243E+03  0.00000000000E+00 0.  1.
         11    1    5    5    0    0 -0.36102596279E+02 -0.36165483539E+02  0.62558450829E+02  0.80776849579E+02  0.00000000000E+00 0. -1.
        -11    1    5    5    0    0 -0.35131682962E+03 -0.10756520723E+03  0.19791976836E+03  0.41733203003E+03  0.00000000000E+00 0.  1.
          1    1    6    6  503    0  0.71967791722E+02  0.94989136473E+01 -0.59074456876E+02  0.93591580075E+02  0.00000000000E+00 0. -1.
         -1    1    6    6    0  503  0.27804534602E+03 -0.10858512194E+03 -0.10644984025E+03  0.31690931138E+03  0.00000000000E+00 0.  1.
<mgrwt>
<rscale>  0 0.11704396E+04</rscale>
<asrwt>0</asrwt>
<pdfrwt beam="1">  1        2 0.76232091E-01 0.11704396E+04</pdfrwt>
<pdfrwt beam="2">  1       -1 0.10633432E+00 0.11704396E+04</pdfrwt>
<totfact> 0.58189365E+01</totfact>
</mgrwt>
</event>
<event>
12    6  0.1529770E-007  0.2179769E+04  0.7818608E-02  0.8526896E-01
         -1   -1    0    0    0  501 -0.00000000000E+00  0.00000000000E+00  0.67710183989E+03  0.67710183989E+03  0.00000000000E+00 0.  1.
          2   -1    0    0  501    0  0.00000000000E+00 -0.00000000000E+00 -0.17543126014E+04  0.17543126014E+04  0.00000000000E+00 0. -1.
         24    2    1    2    0    0  0.79701314699E+03  0.14315969627E+03 -0.89460580421E+03  0.12091944986E+04  0.78148162464E+02 0.  0.
        254    2    1    2    0    0 -0.79701314699E+03 -0.14315969627E+03 -0.18260495729E+03  0.12222199427E+04  0.89707990884E+03 0.  0.
         23    2    4    4    0    0 -0.33459496542E+03  0.32645771778E+03  0.12141453113E+03  0.49070676582E+03  0.86736435656E+02 0.  0.
         23    2    4    4    0    0 -0.46241818157E+03 -0.46961741405E+03 -0.30401948842E+03  0.73151317690E+03  0.91173397476E+02 0.  0.
          4    1    3    3  502    0  0.62676357162E+01 -0.67197400962E+00 -0.21855570378E+02  0.22746445065E+02  0.00000000000E+00 0. -1.
         -3    1    3    3    0  502  0.79074551127E+03  0.14383167028E+03 -0.87275023384E+03  0.11864480535E+04  0.00000000000E+00 0.  1.
         11    1    5    5    0    0 -0.32685809912E+03  0.32794420255E+03  0.10846745192E+03  0.47555105412E+03  0.00000000000E+00 0. -1.
        -11    1    5    5    0    0 -0.77368663023E+01 -0.14864847675E+01  0.12947079216E+02  0.15155711708E+02  0.00000000000E+00 0.  1.
          1    1    6    6  503    0 -0.35063984721E+03 -0.39360228029E+03 -0.21296088400E+03  0.56852739214E+03  0.00000000000E+00 0. -1.
         -1    1    6    6    0  503 -0.11177833437E+03 -0.76015133760E+02 -0.91058604422E+02  0.16298578476E+03  0.00000000000E+00 0.  1.
<mgrwt>
<rscale>  0 0.21797691E+04</rscale>
<asrwt>0</asrwt>
<pdfrwt beam="1">  1        2 0.26989424E+00 0.21797691E+04</pdfrwt>
<pdfrwt beam="2">  1       -1 0.10416951E+00 0.21797691E+04</pdfrwt>
<totfact> 0.82707441E+00</totfact>
</mgrwt>
</event>
<event>
12    6  0.1529770E-007  0.1470308E+04  0.7818608E-02  0.8904442E-01
          2   -1    0    0  501    0  0.00000000000E+00  0.00000000000E+00  0.23015115101E+04  0.23015115101E+04  0.00000000000E+00 0. -1.
         -1   -1    0    0    0  501 -0.00000000000E+00 -0.00000000000E+00 -0.23482444068E+03  0.23482444068E+03  0.00000000000E+00 0.  1.
         24    2    1    2    0    0  0.22289567993E+03 -0.32296870729E+03  0.10459810642E+04  0.11201118469E+04  0.81135028752E+02 0.  0.
        254    2    1    2    0    0 -0.22289567993E+03  0.32296870729E+03  0.10207060052E+04  0.14162241039E+04  0.89992149287E+03 0.  0.
         23    2    4    4    0    0 -0.38167018270E+03  0.40483449020E+03  0.24396518537E+03  0.61394427432E+03  0.88574643539E+02 0.  0.
         23    2    4    4    0    0  0.15877450277E+03 -0.81865782912E+02  0.77674081985E+03  0.80227982957E+03  0.91734805693E+02 0.  0.
          4    1    3    3  502    0  0.13329250819E+03 -0.25524312318E+03  0.77573260616E+03  0.82745212607E+03  0.00000000000E+00 0. -1.
         -3    1    3    3    0  502  0.89603171738E+02 -0.67725584111E+02  0.27024845807E+03  0.29265972087E+03  0.00000000000E+00 0.  1.
         11    1    5    5    0    0 -0.24708717516E+03  0.22815739338E+03  0.10662481607E+03  0.35281258436E+03  0.00000000000E+00 0. -1.
        -11    1    5    5    0    0 -0.13458300754E+03  0.17667709683E+03  0.13734036931E+03  0.26113168996E+03  0.00000000000E+00 0.  1.
          3    1    6    6  503    0  0.16684699895E+03 -0.63356545078E+02  0.65516262783E+03  0.67903611227E+03  0.00000000000E+00 0. -1.
         -3    1    6    6    0  503 -0.80724961745E+01 -0.18509237835E+02  0.12157819202E+03  0.12324371730E+03  0.00000000000E+00 0.  1.
<mgrwt>
<rscale>  0 0.14703077E+04</rscale>
<asrwt>0</asrwt>
<pdfrwt beam="1">  1        2 0.35407868E+00 0.14703077E+04</pdfrwt>
<pdfrwt beam="2">  1       -1 0.36126839E-01 0.14703077E+04</pdfrwt>
<totfact> 0.36639806E+01</totfact>
</mgrwt>
</event>
<event>
12    6  0.1529770E-007  0.1237071E+04  0.7818608E-02  0.9081013E-01
          2   -1    0    0  501    0  0.00000000000E+00  0.00000000000E+00  0.15157004819E+04  0.15157004819E+04  0.00000000000E+00 0. -1.
         -1   -1    0    0    0  501 -0.00000000000E+00 -0.00000000000E+00 -0.25241560876E+03  0.25241560876E+03  0.00000000000E+00 0.  1.
         24    2    1    2    0    0  0.22311581048E+03  0.16570807517E+03  0.40859077966E+03  0.50094552956E+03  0.82220236564E+02 0.  0.
        254    2    1    2    0    0 -0.22311581048E+03 -0.16570807517E+03  0.85469409344E+03  0.12671705611E+04  0.89329693068E+03 0.  0.
         23    2    4    4    0    0 -0.33219545819E+03 -0.87352682076E+02 -0.40224662959E+02  0.35767341854E+03  0.91257532907E+02 0.  0.
         23    2    4    4    0    0  0.10907964770E+03 -0.78355393096E+02  0.89491875640E+03  0.90949714251E+03  0.90925983704E+02 0.  0.
          4    1    3    3  502    0  0.19710414310E+03  0.16312113436E+03  0.32655282535E+03  0.41484370002E+03  0.00000000000E+00 0. -1.
         -3    1    3    3    0  502  0.26011667379E+02  0.25869408079E+01  0.82037954310E+02  0.86101829539E+02  0.00000000000E+00 0.  1.
         11    1    5    5    0    0 -0.16004404063E+03 -0.36711269254E+02  0.26300563047E+02  0.16629351114E+03  0.00000000000E+00 0.  1.
        -11    1    5    5    0    0 -0.17215141756E+03 -0.50641412822E+02 -0.66525226006E+02  0.19137990739E+03  0.00000000000E+00 0. -1.
          1    1    6    6  503    0  0.25165856889E+02 -0.71219462456E+02  0.50230623530E+03  0.50795382291E+03  0.00000000000E+00 0. -1.
         -1    1    6    6    0  503  0.83913790816E+02 -0.71359306401E+01  0.39261252109E+03  0.40154331960E+03  0.00000000000E+00 0.  1.
<mgrwt>
<rscale>  0 0.12370715E+04</rscale>
<asrwt>0</asrwt>
<pdfrwt beam="1">  1        2 0.23318468E+00 0.12370715E+04</pdfrwt>
<pdfrwt beam="2">  1       -1 0.38833171E-01 0.12370715E+04</pdfrwt>
<totfact> 0.89655253E+01</totfact>
</mgrwt>
</event>
<event>
12    6  0.1529770E-007  0.1332755E+04  0.7818608E-02  0.9003986E-01
          2   -1    0    0  501    0  0.00000000000E+00  0.00000000000E+00  0.22466427454E+04  0.22466427454E+04  0.00000000000E+00 0. -1.
         -1   -1    0    0    0  501 -0.00000000000E+00 -0.00000000000E+00 -0.19765442010E+03  0.19765442010E+03  0.00000000000E+00 0.  1.
         24    2    1    2    0    0  0.12659163042E+03  0.14881081095E+03  0.11060164804E+04  0.11259239597E+04  0.79134125831E+02 0.  0.
        254    2    1    2    0    0 -0.12659163042E+03 -0.14881081095E+03  0.94297184494E+03  0.13183732058E+04  0.90041207846E+03 0.  0.
         23    2    4    4    0    0 -0.43203453859E+03 -0.27961781689E+03  0.77317452587E+03  0.93366569952E+03  0.95356305287E+02 0.  0.
         23    2    4    4    0    0  0.30544290816E+03  0.13080700594E+03  0.16979731906E+03  0.38470750626E+03  0.93610324538E+02 0.  0.
          4    1    3    3  502    0  0.79666616628E+02  0.60899283809E+02  0.73294282650E+03  0.73977069386E+03  0.00000000000E+00 0. -1.
         -3    1    3    3    0  502  0.46925013795E+02  0.87911527137E+02  0.37307365389E+03  0.38615326589E+03  0.00000000000E+00 0.  1.
         11    1    5    5    0    0 -0.72829496799E+02 -0.27109173486E+02  0.17648696165E+03  0.19283850892E+03  0.00000000000E+00 0. -1.
        -11    1    5    5    0    0 -0.35920504179E+03 -0.25250864340E+03  0.59668756423E+03  0.74082719060E+03  0.00000000000E+00 0.  1.
          4    1    6    6  503    0  0.24697808938E+03  0.10324011178E+03  0.17507226003E+03  0.31985464440E+03  0.00000000000E+00 0.  1.
         -4    1    6    6    0  503  0.58464818779E+02  0.27566894161E+02 -0.52749409624E+01  0.64852861854E+02  0.00000000000E+00 0. -1.
<mgrwt>
<rscale>  0 0.13327548E+04</rscale>
<asrwt>0</asrwt>
<pdfrwt beam="1">  1        2 0.34563733E+00 0.13327548E+04</pdfrwt>
<pdfrwt beam="2">  1       -1 0.30408374E-01 0.13327548E+04</pdfrwt>
<totfact> 0.54065046E+01</totfact>
</mgrwt>
</event>
<event>
12    6  0.1529770E-007  0.1640617E+04  0.7818608E-02  0.8795977E-01
          2   -1    0    0  501    0  0.00000000000E+00  0.00000000000E+00  0.12477809131E+04  0.12477809131E+04  0.00000000000E+00 0. -1.
         -1   -1    0    0    0  501 -0.00000000000E+00 -0.00000000000E+00 -0.53928199247E+03  0.53928199247E+03  0.00000000000E+00 0.  1.
         24    2    1    2    0    0 -0.21833610271E+03  0.21620420568E+03 -0.27653397391E+03  0.42108849796E+03  0.80184612525E+02 0.  0.
        254    2    1    2    0    0  0.21833610271E+03 -0.21620420568E+03  0.98503289455E+03  0.13659744076E+04  0.89508735140E+03 0.  0.
         23    2    4    4    0    0 -0.12619956676E+03 -0.41208875231E+03  0.20480903402E+03  0.48619848549E+03  0.93267124155E+02 0.  0.
         23    2    4    4    0    0  0.34453566947E+03  0.19588454663E+03  0.78022386053E+03  0.87977592213E+03  0.90447871611E+02 0.  0.
          2    1    3    3  502    0 -0.19359205413E+03  0.21856584717E+03 -0.24659037120E+03  0.38217237491E+03  0.00000000000E+00 0. -1.
         -1    1    3    3    0  502 -0.24744048576E+02 -0.23616414843E+01 -0.29943602704E+02  0.38916123051E+02  0.00000000000E+00 0.  1.
         11    1    5    5    0    0 -0.81299088215E+02 -0.33363379549E+03  0.12445892854E+03  0.36525480987E+03  0.00000000000E+00 0. -1.
        -11    1    5    5    0    0 -0.44900478543E+02 -0.78454956817E+02  0.80350105477E+02  0.12094367562E+03  0.00000000000E+00 0.  1.
          1    1    6    6  503    0  0.26247393195E+03  0.18402137212E+03  0.66006384118E+03  0.73378518981E+03  0.00000000000E+00 0. -1.
         -1    1    6    6    0  503  0.82061737517E+02  0.11863174507E+02  0.12016001935E+03  0.14599073232E+03  0.00000000000E+00 0.  1.
<mgrwt>
<rscale>  0 0.16406167E+04</rscale>
<asrwt>0</asrwt>
<pdfrwt beam="1">  1        2 0.19196629E+00 0.16406167E+04</pdfrwt>
<pdfrwt beam="2">  1       -1 0.82966461E-01 0.16406167E+04</pdfrwt>
<totfact> 0.27899983E+01</totfact>
</mgrwt>
</event>
<event>
12    6  0.1529770E-007  0.1022883E+04  0.7818608E-02  0.9283797E-01
         -1   -1    0    0    0  501 -0.00000000000E+00  0.00000000000E+00  0.14666888087E+03  0.14666888087E+03  0.00000000000E+00 0.  1.
          2   -1    0    0  501    0  0.00000000000E+00 -0.00000000000E+00 -0.17834211902E+04  0.17834211902E+04  0.00000000000E+00 0. -1.
         24    2    1    2    0    0  0.55664567115E+02  0.38367772807E+02 -0.60907854469E+02  0.11966291949E+03  0.77709829131E+02 0.  0.
        254    2    1    2    0    0 -0.55664567115E+02 -0.38367772807E+02 -0.15758444548E+04  0.18104271516E+04  0.88870135323E+03 0.  0.
         23    2    4    4    0    0  0.10434458436E+03  0.39586576415E+03 -0.71138673812E+03  0.82536266249E+03  0.86919146052E+02 0.  0.
         23    2    4    4    0    0 -0.16000915148E+03 -0.43423353696E+03 -0.86445771672E+03  0.98506448907E+03  0.94356825190E+02 0.  0.
          4    1    3    3  502    0  0.30806563112E+02 -0.81854914064E+00 -0.66136063850E+02  0.72963643652E+02  0.00000000000E+00 0. -1.
         -3    1    3    3    0  502  0.24858004003E+02  0.39186321948E+02  0.52282093812E+01  0.46699275842E+02  0.00000000000E+00 0.  1.
         11    1    5    5    0    0  0.11535287642E+02  0.12482969243E+03 -0.15323322390E+03  0.19797963501E+03  0.00000000000E+00 0. -1.
        -11    1    5    5    0    0  0.92809296719E+02  0.27103607172E+03 -0.55815351423E+03  0.62738302748E+03  0.00000000000E+00 0.  1.
          1    1    6    6  503    0  0.12166969704E+02 -0.40673428199E+02 -0.68634474964E+02  0.80703494762E+02  0.00000000000E+00 0. -1.
         -1    1    6    6    0  503 -0.17217612118E+03 -0.39356010876E+03 -0.79582324175E+03  0.90436099431E+03  0.00000000000E+00 0.  1.
<mgrwt>
<rscale>  0 0.10228830E+04</rscale>
<asrwt>0</asrwt>
<pdfrwt beam="1">  1        2 0.27437249E+00 0.10228830E+04</pdfrwt>
<pdfrwt beam="2">  1       -1 0.22564443E-01 0.10228830E+04</pdfrwt>
<totfact> 0.16724572E+02</totfact>
</mgrwt>
</event>
<event>
12    6  0.1529770E-007  0.2070861E+04  0.7818608E-02  0.8574189E-01
          2   -1    0    0  501    0  0.00000000000E+00  0.00000000000E+00  0.11205725435E+04  0.11205725435E+04  0.00000000000E+00 0. -1.
         -1   -1    0    0    0  501 -0.00000000000E+00 -0.00000000000E+00 -0.95675759237E+03  0.95675759237E+03  0.00000000000E+00 0.  1.
         24    2    1    2    0    0  0.28691637398E+03  0.51387511255E+02  0.85584739638E+03  0.90775123097E+03  0.81091611561E+02 0.  0.
        254    2    1    2    0    0 -0.28691637398E+03 -0.51387511255E+02 -0.69203244524E+03  0.11695789049E+04  0.89668513291E+03 0.  0.
         23    2    4    4    0    0 -0.26531646576E+03  0.45962993802E+02  0.14668905866E+03  0.32072106061E+03  0.94015397606E+02 0.  0.
         23    2    4    4    0    0 -0.21599908223E+02 -0.97350505057E+02 -0.83872150390E+03  0.84885784430E+03  0.84629792893E+02 0.  0.
          4    1    3    3  502    0  0.24492386860E+03  0.67483268407E+02  0.77015598150E+03  0.81097591133E+03  0.00000000000E+00 0. -1.
         -3    1    3    3    0  502  0.41992505380E+02 -0.16095757151E+02  0.85691414883E+02  0.96775319638E+02  0.00000000000E+00 0.  1.
         11    1    5    5    0    0 -0.21436647633E+03  0.74195090330E+02  0.12038486130E+03  0.25680812377E+03  0.00000000000E+00 0. -1.
        -11    1    5    5    0    0 -0.50949989427E+02 -0.28232096528E+02  0.26304197367E+02  0.63912936844E+02  0.00000000000E+00 0.  1.
          2    1    6    6  503    0 -0.47432462565E+02 -0.39314677419E+02 -0.29002023744E+03  0.29649151841E+03  0.00000000000E+00 0. -1.
         -2    1    6    6    0  503  0.25832554342E+02 -0.58035827639E+02 -0.54870126647E+03  0.55236632589E+03  0.00000000000E+00 0.  1.
<mgrwt>
<rscale>  0 0.20708610E+04</rscale>
<asrwt>0</asrwt>
<pdfrwt beam="1">  1        2 0.17239578E+00 0.20708610E+04</pdfrwt>
<pdfrwt beam="2">  1       -1 0.14719348E+00 0.20708610E+04</pdfrwt>
<totfact> 0.81822078E+00</totfact>
</mgrwt>
</event>
<event>
12    6  0.1529770E-007  0.2196912E+04  0.7818608E-02  0.8519714E-01
         -1   -1    0    0    0  501 -0.00000000000E+00  0.00000000000E+00  0.42128754242E+03  0.42128754242E+03  0.00000000000E+00 0.  1.
          2   -1    0    0  501    0  0.00000000000E+00 -0.00000000000E+00 -0.28640903882E+04  0.28640903882E+04  0.00000000000E+00 0. -1.
         24    2    1    2    0    0  0.10519550884E+03  0.90803950632E+03 -0.11030936122E+04  0.14347686020E+04  0.78381017478E+02 0.  0.
        254    2    1    2    0    0 -0.10519550884E+03 -0.90803950632E+03 -0.13397092335E+04  0.18506093286E+04  0.89125317194E+03 0.  0.
         23    2    4    4    0    0  0.19979666197E+03 -0.81065898419E+03 -0.12476767151E+04  0.15039465199E+04  0.89840160222E+02 0.  0.
         23    2    4    4    0    0 -0.30499217081E+03 -0.97380522124E+02 -0.92032518431E+02  0.34666280872E+03  0.95926681168E+02 0.  0.
          2    1    3    3  502    0  0.31449580982E+02  0.41170122523E+03 -0.44274002247E+03  0.60539714445E+03  0.00000000000E+00 0. -1.
         -1    1    3    3    0  502  0.73745927856E+02  0.49633828108E+03 -0.66035358973E+03  0.82937145756E+03  0.00000000000E+00 0.  1.
         11    1    5    5    0    0  0.14172348975E+03 -0.68012372473E+03 -0.10731510197E+04  0.12784001485E+04  0.00000000000E+00 0. -1.
        -11    1    5    5    0    0  0.58073172220E+02 -0.13053525946E+03 -0.17452569536E+03  0.22554637137E+03  0.00000000000E+00 0.  1.
          2    1    6    6  503    0 -0.23689532024E+03 -0.11561442722E+03 -0.76465776320E+02  0.27446876595E+03  0.00000000000E+00 0. -1.
         -2    1    6    6    0  503 -0.68096850563E+02  0.18233905096E+02 -0.15566742111E+02  0.72194042771E+02  0.00000000000E+00 0.  1.
<mgrwt>
<rscale>  0 0.21969120E+04</rscale>
<asrwt>0</asrwt>
<pdfrwt beam="1">  1        2 0.44062926E+00 0.21969120E+04</pdfrwt>
<pdfrwt beam="2">  1       -1 0.64813472E-01 0.21969120E+04</pdfrwt>
<totfact> 0.53119926E+00</totfact>
</mgrwt>
</event>
<event>
12    6  0.1529770E-007  0.1177706E+04  0.7818608E-02  0.9132597E-01
         -1   -1    0    0    0  501 -0.00000000000E+00  0.00000000000E+00  0.15716988664E+03  0.15716988664E+03  0.00000000000E+00 0.  1.
          2   -1    0    0  501    0  0.00000000000E+00 -0.00000000000E+00 -0.22061983571E+04  0.22061983571E+04  0.00000000000E+00 0. -1.
         24    2    1    2    0    0 -0.77392038351E+02 -0.15253993645E+03 -0.10657261643E+03  0.21659076620E+03  0.79346566521E+02 0.  0.
        254    2    1    2    0    0  0.77392038351E+02  0.15253993645E+03 -0.19424558540E+04  0.21467774775E+04  0.89792028229E+03 0.  0.
         23    2    4    4    0    0 -0.15692901796E+03 -0.17315961360E+03 -0.11867463751E+03  0.27730471875E+03  0.90571899572E+02 0.  0.
         23    2    4    4    0    0  0.23432105631E+03  0.32569955005E+03 -0.18237812165E+04  0.18694727587E+04  0.88113085001E+02 0.  0.
          4    1    3    3  502    0 -0.18705643891E+02 -0.41268020707E+02 -0.73788955508E+02  0.86589610239E+02  0.00000000000E+00 0. -1.
         -3    1    3    3    0  502 -0.58686394460E+02 -0.11127191574E+03 -0.32783660918E+02  0.13000115596E+03  0.00000000000E+00 0.  1.
         11    1    5    5    0    0 -0.50802598897E+02 -0.11633788664E+03 -0.83291091564E+02  0.15183153117E+03  0.00000000000E+00 0. -1.
        -11    1    5    5    0    0 -0.10612641906E+03 -0.56821726959E+02 -0.35383545944E+02  0.12547318758E+03  0.00000000000E+00 0.  1.
          1    1    6    6  503    0  0.43362756965E+01 -0.28320112802E+01 -0.57608808141E+01  0.77466975261E+01  0.00000000000E+00 0. -1.
         -1    1    6    6    0  503  0.22998478061E+03  0.32853156133E+03 -0.18180203357E+04  0.18617260612E+04  0.00000000000E+00 0.  1.
<mgrwt>
<rscale>  0 0.11777062E+04</rscale>
<asrwt>0</asrwt>
<pdfrwt beam="1">  1        2 0.33941512E+00 0.11777062E+04</pdfrwt>
<pdfrwt beam="2">  1       -1 0.24179984E-01 0.11777062E+04</pdfrwt>
<totfact> 0.85800228E+01</totfact>
</mgrwt>
</event>
<event>
12    6  0.1529770E-007  0.1202274E+04  0.7818608E-02  0.9110868E-01
         -1   -1    0    0    0  501 -0.00000000000E+00  0.00000000000E+00  0.98755563283E+03  0.98755563283E+03  0.00000000000E+00 0.  1.
          2   -1    0    0  501    0  0.00000000000E+00 -0.00000000000E+00 -0.36591946948E+03  0.36591946948E+03  0.00000000000E+00 0. -1.
         24    2    1    2    0    0 -0.67089774521E+02  0.97237191475E+02 -0.11387953878E+03  0.18194648292E+03  0.78612111293E+02 0.  0.
        254    2    1    2    0    0  0.67089774521E+02 -0.97237191475E+02  0.73551570213E+03  0.11715286194E+04  0.90417910212E+03 0.  0.
         23    2    4    4    0    0 -0.28064014034E+03  0.20897738117E+03  0.90540766576E+02  0.37217385746E+03  0.88799299306E+02 0.  0.
         23    2    4    4    0    0  0.34772991486E+03 -0.30621457265E+03  0.64497493556E+03  0.79935476192E+03  0.91059923798E+02 0.  0.
          4    1    3    3  502    0 -0.60869660737E+02  0.60957818200E+02 -0.11667571410E+03  0.14503169812E+03  0.00000000000E+00 0. -1.
         -3    1    3    3    0  502 -0.62201137847E+01  0.36279373274E+02  0.27961753154E+01  0.36914784803E+02  0.00000000000E+00 0.  1.
         11    1    5    5    0    0 -0.10102376731E+03  0.27751966357E+02  0.39483468074E+02  0.11195944555E+03  0.00000000000E+00 0. -1.
        -11    1    5    5    0    0 -0.17961637303E+03  0.18122541482E+03  0.51057298503E+02  0.26021441191E+03  0.00000000000E+00 0.  1.
          3    1    6    6  503    0  0.62595376054E+02 -0.14500261960E+02  0.90859803427E+02  0.11128316395E+03  0.00000000000E+00 0. -1.
         -3    1    6    6    0  503  0.28513453881E+03 -0.29171431069E+03  0.55411513213E+03  0.68807159797E+03  0.00000000000E+00 0.  1.
<mgrwt>
<rscale>  0 0.12022742E+04</rscale>
<asrwt>0</asrwt>
<pdfrwt beam="1">  1        2 0.56295303E-01 0.12022742E+04</pdfrwt>
<pdfrwt beam="2">  1       -1 0.15193164E+00 0.12022742E+04</pdfrwt>
<totfact> 0.33468286E+01</totfact>
</mgrwt>
</event>
<event>
12    6  0.1529770E-007  0.1223927E+04  0.7818608E-02  0.9092167E-01
          2   -1    0    0  501    0  0.00000000000E+00  0.00000000000E+00  0.13176883825E+04  0.13176883825E+04  0.00000000000E+00 0. -1.
         -1   -1    0    0    0  501 -0.00000000000E+00 -0.00000000000E+00 -0.28420930216E+03  0.28420930216E+03  0.00000000000E+00 0.  1.
         24    2    1    2    0    0 -0.25751107506E+03 -0.83592066158E+02  0.23207876006E+03  0.36538871872E+03  0.79679216819E+02 0.  0.
        254    2    1    2    0    0  0.25751107506E+03  0.83592066158E+02  0.80140032031E+03  0.12365089660E+04  0.90189376439E+03 0.  0.
         23    2    4    4    0    0  0.17282525299E+03  0.33620167003E+03  0.18196389307E+01  0.38878151575E+03  0.90816435224E+02 0.  0.
         23    2    4    4    0    0  0.84685822070E+02 -0.25260960387E+03  0.79958068138E+03  0.84772745022E+03  0.91264798238E+02 0.  0.
          2    1    3    3  502    0 -0.60528253446E+02 -0.29329807972E+02  0.18370467001E+02  0.69723605463E+02  0.00000000000E+00 0. -1.
         -1    1    3    3    0  502 -0.19698282161E+03 -0.54262258185E+02  0.21370829306E+03  0.29566511325E+03  0.00000000000E+00 0.  1.
         11    1    5    5    0    0  0.94222306659E+02  0.26742254948E+03 -0.97012748622E+01  0.28370191712E+03  0.00000000000E+00 0. -1.
        -11    1    5    5    0    0  0.78602946328E+02  0.68779120545E+02  0.11520913793E+02  0.10507959863E+03  0.00000000000E+00 0.  1.
          4    1    6    6  503    0  0.97691501484E+02 -0.20247083031E+03  0.70387968480E+03  0.73890775965E+03  0.00000000000E+00 0. -1.
         -4    1    6    6    0  503 -0.13005679413E+02 -0.50138773559E+02  0.95700996578E+02  0.10881969058E+03  0.00000000000E+00 0.  1.
<mgrwt>
<rscale>  0 0.12239270E+04</rscale>
<asrwt>0</asrwt>
<pdfrwt beam="1">  1        2 0.20272129E+00 0.12239270E+04</pdfrwt>
<pdfrwt beam="2">  1       -1 0.43724509E-01 0.12239270E+04</pdfrwt>
<totfact> 0.93627192E+01</totfact>
</mgrwt>
</event>
<event>
12    6  0.1529770E-007  0.1975227E+04  0.7818608E-02  0.8618291E-01
         -1   -1    0    0    0  501 -0.00000000000E+00  0.00000000000E+00  0.29461863814E+03  0.29461863814E+03  0.00000000000E+00 0.  1.
          2   -1    0    0  501    0  0.00000000000E+00 -0.00000000000E+00 -0.33106528185E+04  0.33106528185E+04  0.00000000000E+00 0. -1.
         24    2    1    2    0    0  0.20965744164E+02 -0.90080921631E+02 -0.25987155708E+04  0.26015953146E+04  0.80133815555E+02 0.  0.
        254    2    1    2    0    0 -0.20965744164E+02  0.90080921631E+02 -0.41731860964E+03  0.10036761421E+04  0.90810618396E+03 0.  0.
         23    2    4    4    0    0  0.14061634323E+03 -0.34348050624E+03 -0.36637642273E+03  0.52910444904E+03  0.89263770382E+02 0.  0.
         23    2    4    4    0    0 -0.16158208740E+03  0.43356142788E+03 -0.50942186906E+02  0.47457169304E+03  0.92406183310E+02 0.  0.
          2    1    3    3  502    0  0.14461815074E+02 -0.94923412853E+02 -0.25689855812E+04  0.25707793594E+04  0.00000000000E+00 0. -1.
         -1    1    3    3    0  502  0.65039290902E+01  0.48424912211E+01 -0.29729989583E+02  0.30815955209E+02  0.00000000000E+00 0.  1.
         11    1    5    5    0    0  0.13439948378E+03 -0.31870767336E+03 -0.36597146568E+03  0.50356024068E+03  0.00000000000E+00 0.  1.
        -11    1    5    5    0    0  0.62168594585E+01 -0.24772832882E+02 -0.40495705215E+00  0.25544208360E+02  0.00000000000E+00 0. -1.
          2    1    6    6  503    0 -0.14057687410E+03  0.36280411901E+03 -0.79789529665E+01  0.38916879371E+03  0.00000000000E+00 0.  1.
         -2    1    6    6    0  503 -0.21005213296E+02  0.70757308865E+02 -0.42963233939E+02  0.85402899330E+02  0.00000000000E+00 0. -1.
<mgrwt>
<rscale>  0 0.19752266E+04</rscale>
<asrwt>0</asrwt>
<pdfrwt beam="1">  1        2 0.50933117E+00 0.19752266E+04</pdfrwt>
<pdfrwt beam="2">  1       -1 0.45325947E-01 0.19752266E+04</pdfrwt>
<totfact> 0.56349689E+00</totfact>
</mgrwt>
</event>
<event>
12    6  0.1529770E-007  0.1819322E+04  0.7818608E-02  0.8696091E-01
         -1   -1    0    0    0  501 -0.00000000000E+00  0.00000000000E+00  0.67187401430E+03  0.67187401430E+03  0.00000000000E+00 0.  1.
          2   -1    0    0  501    0  0.00000000000E+00 -0.00000000000E+00 -0.12316042293E+04  0.12316042293E+04  0.00000000000E+00 0. -1.
         24    2    1    2    0    0 -0.68978127829E+02  0.29941561532E+03 -0.85839144204E+03  0.91530820947E+03  0.80904621288E+02 0.  0.
        254    2    1    2    0    0  0.68978127829E+02 -0.29941561532E+03  0.29866122708E+03  0.98817003408E+03  0.89043461011E+03 0.  0.
         23    2    4    4    0    0  0.44175641168E+03 -0.32544969674E+03  0.15313206787E+03  0.57696214276E+03  0.91485799988E+02 0.  0.
         23    2    4    4    0    0 -0.37277828385E+03  0.26034081421E+02  0.14552915921E+03  0.41120789132E+03  0.90949279244E+02 0.  0.
          4    1    3    3  502    0 -0.48615273379E+02  0.22397912582E+03 -0.72873845536E+03  0.76393051381E+03  0.00000000000E+00 0. -1.
         -3    1    3    3    0  502 -0.20362854450E+02  0.75436489500E+02 -0.12965298668E+03  0.15137769566E+03  0.00000000000E+00 0.  1.
         11    1    5    5    0    0  0.28095584229E+03 -0.16614815066E+03  0.12209754880E+03  0.34849563083E+03  0.00000000000E+00 0. -1.
        -11    1    5    5    0    0  0.16080056940E+03 -0.15930154608E+03  0.31034519072E+02  0.22846651194E+03  0.00000000000E+00 0.  1.
          3    1    6    6  503    0 -0.50542844020E+02 -0.28065757302E+02  0.23933290053E+02  0.62570505730E+02  0.00000000000E+00 0. -1.
         -3    1    6    6    0  503 -0.32223543983E+03  0.54099838723E+02  0.12159586915E+03  0.34863738559E+03  0.00000000000E+00 0.  1.
<mgrwt>
<rscale>  0 0.18193217E+04</rscale>
<asrwt>0</asrwt>
<pdfrwt beam="1">  1        2 0.18947757E+00 0.18193217E+04</pdfrwt>
<pdfrwt beam="2">  1       -1 0.10336523E+00 0.18193217E+04</pdfrwt>
<totfact> 0.17213723E+01</totfact>
</mgrwt>
</event>
<event>
12    6  0.1529770E-007  0.1629201E+04  0.7818608E-02  0.8802807E-01
          2   -1    0    0  501    0  0.00000000000E+00  0.00000000000E+00  0.21049499347E+04  0.21049499347E+04  0.00000000000E+00 0. -1.
         -1   -1    0    0    0  501 -0.00000000000E+00 -0.00000000000E+00 -0.31524434940E+03  0.31524434940E+03  0.00000000000E+00 0.  1.
         24    2    1    2    0    0 -0.16371160722E+03  0.14769473713E+03 -0.14334576337E+03  0.27474471026E+03  0.79507372138E+02 0.  0.
        254    2    1    2    0    0  0.16371160722E+03 -0.14769473713E+03  0.19330513486E+04  0.21454495738E+04  0.90424063810E+03 0.  0.
         23    2    4    4    0    0  0.14190673087E+03 -0.78248337655E+02 -0.20719728747E+02  0.18798554334E+03  0.92999649105E+02 0.  0.
         23    2    4    4    0    0  0.21804876356E+02 -0.69446399479E+02  0.19537710774E+04  0.19574640305E+04  0.95633429096E+02 0.  0.
          4    1    3    3  502    0 -0.44423922708E+02  0.33713826995E+01 -0.44692683440E+02  0.63105364932E+02  0.00000000000E+00 0. -1.
         -3    1    3    3    0  502 -0.11928768451E+03  0.14432335443E+03 -0.98653079927E+02  0.21163934533E+03  0.00000000000E+00 0.  1.
         11    1    5    5    0    0  0.83101092725E+02 -0.90357906733E+02 -0.32073222720E+02  0.12688197089E+03  0.00000000000E+00 0. -1.
        -11    1    5    5    0    0  0.58805638141E+02  0.12109569078E+02  0.11353493974E+02  0.61103572448E+02  0.00000000000E+00 0.  1.
          4    1    6    6  503    0  0.20101349080E+02 -0.41032846752E+02  0.18255376717E+04  0.18261094024E+04  0.00000000000E+00 0. -1.
         -4    1    6    6    0  503  0.17035272759E+01 -0.28413552727E+02  0.12823340571E+03  0.13135462810E+03  0.00000000000E+00 0.  1.
<mgrwt>
<rscale>  0 0.16292005E+04</rscale>
<asrwt>0</asrwt>
<pdfrwt beam="1">  1        2 0.32383844E+00 0.16292005E+04</pdfrwt>
<pdfrwt beam="2">  1       -1 0.48499132E-01 0.16292005E+04</pdfrwt>
<totfact> 0.27073007E+01</totfact>
</mgrwt>
</event>
<event>
12    6  0.1529770E-007  0.2122276E+04  0.7818608E-02  0.8551494E-01
         -1   -1    0    0    0  501 -0.00000000000E+00  0.00000000000E+00  0.58979456845E+03  0.58979456845E+03  0.00000000000E+00 0.  1.
          2   -1    0    0  501    0  0.00000000000E+00 -0.00000000000E+00 -0.19091624098E+04  0.19091624098E+04  0.00000000000E+00 0. -1.
         24    2    1    2    0    0  0.69047215533E+03 -0.18735645247E+03 -0.11222892020E+04  0.13333566187E+04  0.80327966297E+02 0.  0.
        254    2    1    2    0    0 -0.69047215533E+03  0.18735645247E+03 -0.19707863931E+03  0.11656003595E+04  0.89884924790E+03 0.  0.
         23    2    4    4    0    0 -0.72099849621E+03  0.58421444551E+02  0.18367216003E+03  0.75232130411E+03  0.94868253525E+02 0.  0.
         23    2    4    4    0    0  0.30526340880E+02  0.12893500792E+03 -0.38075079935E+03  0.41327905540E+03  0.90952254927E+02 0.  0.
          2    1    3    3  502    0  0.77637597624E+02 -0.41123058541E+02 -0.17273171495E+03  0.19379099013E+03  0.00000000000E+00 0. -1.
         -1    1    3    3    0  502  0.61283455770E+03 -0.14623339393E+03 -0.94955748708E+03  0.11395656286E+04  0.00000000000E+00 0.  1.
         11    1    5    5    0    0 -0.70194790514E+03  0.66930384121E+02  0.19042396230E+03  0.73039155476E+03  0.00000000000E+00 0. -1.
        -11    1    5    5    0    0 -0.19050591073E+02 -0.85089395692E+01 -0.67518022655E+01  0.21929749352E+02  0.00000000000E+00 0.  1.
          4    1    6    6  503    0  0.40494743879E+02  0.13980144916E+03 -0.33626474394E+03  0.36641267375E+03  0.00000000000E+00 0. -1.
         -4    1    6    6    0  503 -0.99684029986E+01 -0.10866441236E+02 -0.44486055409E+02  0.46866381654E+02  0.00000000000E+00 0.  1.
<mgrwt>
<rscale>  0 0.21222758E+04</rscale>
<asrwt>0</asrwt>
<pdfrwt beam="1">  1        2 0.29371730E+00 0.21222758E+04</pdfrwt>
<pdfrwt beam="2">  1       -1 0.90737624E-01 0.21222758E+04</pdfrwt>
<totfact> 0.93235557E+00</totfact>
</mgrwt>
</event>
<event>
12    6  0.1529770E-007  0.1457221E+04  0.7818608E-02  0.8913409E-01
         -1   -1    0    0    0  501 -0.00000000000E+00  0.00000000000E+00  0.12238017740E+04  0.12238017740E+04  0.00000000000E+00 0.  1.
          2   -1    0    0  501    0  0.00000000000E+00 -0.00000000000E+00 -0.43379051833E+03  0.43379051833E+03  0.00000000000E+00 0. -1.
         24    2    1    2    0    0  0.33155841698E+03  0.13563372427E+03  0.46767584940E+03  0.59454552072E+03  0.80225837887E+02 0.  0.
        254    2    1    2    0    0 -0.33155841698E+03 -0.13563372427E+03  0.32233540632E+03  0.10630467717E+04  0.94754463405E+03 0.  0.
         23    2    4    4    0    0 -0.73698169769E+02 -0.37042524382E+03 -0.19513031908E+03  0.43239643817E+03  0.79022508393E+02 0.  0.
         23    2    4    4    0    0 -0.25786024721E+03  0.23479151954E+03  0.51746572540E+03  0.63065033349E+03  0.91269389269E+02 0.  0.
          2    1    3    3  502    0  0.40905222194E+02 -0.13250210183E+01  0.88762727337E+02  0.97743616916E+02  0.00000000000E+00 0. -1.
         -1    1    3    3    0  502  0.29065319479E+03  0.13695874529E+03  0.37891312206E+03  0.49680190380E+03  0.00000000000E+00 0.  1.
         11    1    5    5    0    0 -0.14536772750E+02 -0.96464472565E+01 -0.21429045136E+02  0.27632873215E+02  0.00000000000E+00 0. -1.
        -11    1    5    5    0    0 -0.59161397019E+02 -0.36077879656E+03 -0.17370127394E+03  0.40476356495E+03  0.00000000000E+00 0.  1.
          4    1    6    6  503    0 -0.13974755167E+02 -0.57800176687E+01  0.91541450170E+01  0.17677690947E+02  0.00000000000E+00 0. -1.
         -4    1    6    6    0  503 -0.24388549205E+03  0.24057153721E+03  0.50831158039E+03  0.61297264254E+03  0.00000000000E+00 0.  1.
<mgrwt>
<rscale>  0 0.14572215E+04</rscale>
<asrwt>0</asrwt>
<pdfrwt beam="1">  1        2 0.66737003E-01 0.14572215E+04</pdfrwt>
<pdfrwt beam="2">  1       -1 0.18827719E+00 0.14572215E+04</pdfrwt>
<totfact> 0.14608375E+01</totfact>
</mgrwt>
</event>
<event>
12    6  0.1529770E-007  0.2362004E+04  0.7818608E-02  0.8453867E-01
         -1   -1    0    0    0  501 -0.00000000000E+00  0.00000000000E+00  0.62376491874E+03  0.62376491874E+03  0.00000000000E+00 0.  1.
          2   -1    0    0  501    0  0.00000000000E+00 -0.00000000000E+00 -0.22360434086E+04  0.22360434086E+04  0.00000000000E+00 0. -1.
         24    2    1    2    0    0 -0.62397891763E+03  0.71942784321E+03 -0.31005105884E+03  0.10047221169E+04  0.80054743298E+02 0.  0.
        254    2    1    2    0    0  0.62397891763E+03 -0.71942784321E+03 -0.13022274310E+04  0.18550862104E+04  0.91576331807E+03 0.  0.
         23    2    4    4    0    0  0.42995091607E+03 -0.65788151256E+03 -0.14028031278E+04  0.16105445081E+04  0.91274981694E+02 0.  0.
         23    2    4    4    0    0  0.19402800156E+03 -0.61546330652E+02  0.10057569680E+03  0.24454170233E+03  0.90831476854E+02 0.  0.
          2    1    3    3  502    0 -0.52778093966E+02  0.54115594166E+02 -0.30321849578E+01  0.75651958866E+02  0.00000000000E+00 0. -1.
         -1    1    3    3    0  502 -0.57120082366E+03  0.66531224905E+03 -0.30701887388E+03  0.92907015806E+03  0.00000000000E+00 0.  1.
         11    1    5    5    0    0  0.34885535524E+02 -0.22532147411E+02 -0.98524581379E+02  0.10691955570E+03  0.00000000000E+00 0. -1.
        -11    1    5    5    0    0  0.39506538054E+03 -0.63534936515E+03 -0.13042785464E+04  0.15036249524E+04  0.00000000000E+00 0.  1.
          1    1    6    6  503    0  0.96998410300E+02 -0.69169092512E+02  0.26029902606E+02  0.12194511384E+03  0.00000000000E+00 0. -1.
         -1    1    6    6    0  503  0.97029591261E+02  0.76227618608E+01  0.74545794192E+02  0.12259658849E+03  0.00000000000E+00 0.  1.
<mgrwt>
<rscale>  0 0.23620038E+04</rscale>
<asrwt>0</asrwt>
<pdfrwt beam="1">  1        2 0.34400668E+00 0.23620038E+04</pdfrwt>
<pdfrwt beam="2">  1       -1 0.95963832E-01 0.23620038E+04</pdfrwt>
<totfact> 0.52928693E+00</totfact>
</mgrwt>
</event>
<event>
12    6  0.1529770E-007  0.1248767E+04  0.7818608E-02  0.9071210E-01
          2   -1    0    0  501    0  0.00000000000E+00  0.00000000000E+00  0.11901285312E+04  0.11901285312E+04  0.00000000000E+00 0. -1.
         -1   -1    0    0    0  501 -0.00000000000E+00 -0.00000000000E+00 -0.32757365642E+03  0.32757365642E+03  0.00000000000E+00 0.  1.
         24    2    1    2    0    0 -0.16777737274E+03  0.22264751884E+03  0.10546983084E+03  0.30877449680E+03  0.80601738254E+02 0.  0.
        254    2    1    2    0    0  0.16777737274E+03 -0.22264751884E+03  0.75708504396E+03  0.12089276908E+04  0.90033728870E+03 0.  0.
         23    2    4    4    0    0 -0.10986447289E+03 -0.50602795968E+03  0.34046867139E+03  0.62629631676E+03  0.90518847797E+02 0.  0.
         23    2    4    4    0    0  0.27764184564E+03  0.28338044084E+03  0.41661637257E+03  0.58263137407E+03  0.92198955844E+02 0.  0.
          4    1    3    3  502    0 -0.20678727329E+01  0.32463739226E+02  0.32963956075E+02  0.46311908428E+02  0.00000000000E+00 0. -1.
         -3    1    3    3    0  502 -0.16570950001E+03  0.19018377961E+03  0.72505874761E+02  0.26246258837E+03  0.00000000000E+00 0.  1.
         11    1    5    5    0    0 -0.21276354640E+02 -0.18404186805E+03  0.75763196983E+02  0.20016032194E+03  0.00000000000E+00 0. -1.
        -11    1    5    5    0    0 -0.88588118254E+02 -0.32198609163E+03  0.26470547441E+03  0.42613599482E+03  0.00000000000E+00 0.  1.
          2    1    6    6  503    0  0.18340967026E+03  0.12466963723E+03  0.20748954477E+03  0.30369974774E+03  0.00000000000E+00 0.  1.
         -2    1    6    6    0  503  0.94232175380E+02  0.15871080361E+03  0.20912682780E+03  0.27893162633E+03  0.00000000000E+00 0. -1.
<mgrwt>
<rscale>  0 0.12487670E+04</rscale>
<asrwt>0</asrwt>
<pdfrwt beam="1">  1        2 0.18309669E+00 0.12487670E+04</pdfrwt>
<pdfrwt beam="2">  1       -1 0.50395948E-01 0.12487670E+04</pdfrwt>
<totfact> 0.85109521E+01</totfact>
</mgrwt>
</event>
<event>
12    6  0.1529770E-007  0.1558990E+04  0.7818608E-02  0.8846146E-01
          2   -1    0    0  501    0  0.00000000000E+00  0.00000000000E+00  0.18050366540E+04  0.18050366540E+04  0.00000000000E+00 0. -1.
         -1   -1    0    0    0  501 -0.00000000000E+00 -0.00000000000E+00 -0.33662075662E+03  0.33662075662E+03  0.00000000000E+00 0.  1.
         24    2    1    2    0    0  0.39423910321E+03  0.27260836646E+02  0.34653969690E+02  0.40468270841E+03  0.79997332204E+02 0.  0.
        254    2    1    2    0    0 -0.39423910321E+03 -0.27260836646E+02  0.14337619277E+04  0.17369747022E+04  0.89735178561E+03 0.  0.
         23    2    4    4    0    0  0.10058022287E+03  0.33362701880E+03  0.51935279183E+03  0.63267093471E+03  0.95508221328E+02 0.  0.
         23    2    4    4    0    0 -0.49481932607E+03 -0.36088785544E+03  0.91440913586E+03  0.11043037675E+04  0.90865469355E+02 0.  0.
          4    1    3    3  502    0  0.39684945065E+02 -0.21764299672E+02  0.31134749564E+01  0.45368197357E+02  0.00000000000E+00 0. -1.
         -3    1    3    3    0  502  0.35455415814E+03  0.49025136318E+02  0.31540494734E+02  0.35931451105E+03  0.00000000000E+00 0.  1.
         11    1    5    5    0    0 -0.13933316246E+02  0.50735797995E+02  0.48473042279E+02  0.71539459934E+02  0.00000000000E+00 0. -1.
        -11    1    5    5    0    0  0.11451353911E+03  0.28289122080E+03  0.47087974955E+03  0.56113147478E+03  0.00000000000E+00 0.  1.
          1    1    6    6  503    0 -0.82927008734E+02 -0.84442190932E+02  0.12643178749E+03  0.17318305135E+03  0.00000000000E+00 0. -1.
         -1    1    6    6    0  503 -0.41189231734E+03 -0.27644566451E+03  0.78797734837E+03  0.93112071616E+03  0.00000000000E+00 0.  1.
<mgrwt>
<rscale>  0 0.15589904E+04</rscale>
<asrwt>0</asrwt>
<pdfrwt beam="1">  1        2 0.27769794E+00 0.15589904E+04</pdfrwt>
<pdfrwt beam="2">  1       -1 0.51787810E-01 0.15589904E+04</pdfrwt>
<totfact> 0.35257409E+01</totfact>
</mgrwt>
</event>
<event>
12    6  0.1529770E-007  0.2830270E+04  0.7818608E-02  0.8293932E-01
         -1   -1    0    0    0  501 -0.00000000000E+00  0.00000000000E+00  0.52566449644E+03  0.52566449644E+03  0.00000000000E+00 0.  1.
          2   -1    0    0  501    0  0.00000000000E+00 -0.00000000000E+00 -0.38096682123E+04  0.38096682123E+04  0.00000000000E+00 0. -1.
         24    2    1    2    0    0  0.19137037884E+03 -0.12557672985E+04 -0.13955992843E+04  0.18894273587E+04  0.93081960465E+02 0.  0.
        254    2    1    2    0    0 -0.19137037884E+03  0.12557672985E+04 -0.18884044316E+04  0.24459053501E+04  0.89599528700E+03 0.  0.
         23    2    4    4    0    0 -0.23739817722E+03  0.27821289652E+03 -0.75102968833E+02  0.38337095979E+03  0.87020265129E+02 0.  0.
         23    2    4    4    0    0  0.46027798384E+02  0.97755440203E+03 -0.18133014627E+04  0.20625343903E+04  0.90855650283E+02 0.  0.
          2    1    3    3  502    0  0.41127346996E+02 -0.10117867192E+03 -0.12737162984E+03  0.16778591839E+03  0.00000000000E+00 0. -1.
         -1    1    3    3    0  502  0.15024303184E+03 -0.11545886266E+04 -0.12682276545E+04  0.17216414403E+04  0.00000000000E+00 0.  1.
         11    1    5    5    0    0 -0.11756787606E+02 -0.58779429415E+01 -0.28142113815E+01  0.13442174443E+02  0.00000000000E+00 0.  1.
        -11    1    5    5    0    0 -0.22564138961E+03  0.28409083946E+03 -0.72288757452E+02  0.36992878534E+03  0.00000000000E+00 0. -1.
          3    1    6    6  503    0  0.58229866156E+02  0.81439900438E+03 -0.14495192041E+04  0.16636533228E+04  0.00000000000E+00 0. -1.
         -3    1    6    6    0  503 -0.12202067772E+02  0.16315539765E+03 -0.36378225867E+03  0.39888106744E+03  0.00000000000E+00 0.  1.
<mgrwt>
<rscale>  0 0.28302702E+04</rscale>
<asrwt>0</asrwt>
<pdfrwt beam="1">  1        2 0.58610280E+00 0.28302702E+04</pdfrwt>
<pdfrwt beam="2">  1       -1 0.80871461E-01 0.28302702E+04</pdfrwt>
<totfact> 0.72610553E-01</totfact>
</mgrwt>
</event>
<event>
12    6  0.1529770E-007  0.1143508E+04  0.7818608E-02  0.9163793E-01
         -1   -1    0    0    0  501 -0.00000000000E+00  0.00000000000E+00  0.31601058522E+03  0.31601058522E+03  0.00000000000E+00 0.  1.
          2   -1    0    0  501    0  0.00000000000E+00 -0.00000000000E+00 -0.10344677883E+04  0.10344677883E+04  0.00000000000E+00 0. -1.
         24    2    1    2    0    0 -0.17020260770E+03 -0.10075012428E+03 -0.10709057776E+03  0.23895288028E+03  0.80688115230E+02 0.  0.
        254    2    1    2    0    0  0.17020260770E+03  0.10075012428E+03 -0.61136662535E+03  0.11115254933E+04  0.90697312882E+03 0.  0.
         23    2    4    4    0    0  0.13946255689E+03 -0.10487111861E+03  0.19302399070E+03  0.27567612712E+03  0.91056629565E+02 0.  0.
         23    2    4    4    0    0  0.30740050805E+02  0.20562124288E+03 -0.80439061605E+03  0.83584936615E+03  0.91514225402E+02 0.  0.
          4    1    3    3  502    0 -0.14596560588E+03 -0.85595219345E+02 -0.12014636099E+03  0.20752746260E+03  0.00000000000E+00 0. -1.
         -3    1    3    3    0  502 -0.24237001812E+02 -0.15154904933E+02  0.13055783228E+02  0.31425417675E+02  0.00000000000E+00 0.  1.
         11    1    5    5    0    0 -0.23441288714E+01 -0.35092174066E+02  0.57884536708E+02  0.67731641134E+02  0.00000000000E+00 0.  1.
        -11    1    5    5    0    0  0.14180668576E+03 -0.69778944542E+02  0.13513945399E+03  0.20794448599E+03  0.00000000000E+00 0. -1.
          2    1    6    6  503    0  0.10430409581E+02  0.17623515018E+03 -0.51840891311E+03  0.54764534399E+03  0.00000000000E+00 0. -1.
         -2    1    6    6    0  503  0.20309641225E+02  0.29386092709E+02 -0.28598170295E+03  0.28820402216E+03  0.00000000000E+00 0.  1.
<mgrwt>
<rscale>  0 0.11435082E+04</rscale>
<asrwt>0</asrwt>
<pdfrwt beam="1">  1        2 0.15914889E+00 0.11435082E+04</pdfrwt>
<pdfrwt beam="2">  1       -1 0.48617014E-01 0.11435082E+04</pdfrwt>
<totfact> 0.11444082E+02</totfact>
</mgrwt>
</event>
<event>
12    6  0.1529770E-007  0.2041656E+04  0.7818608E-02  0.8587389E-01
         -1   -1    0    0    0  501 -0.00000000000E+00  0.00000000000E+00  0.22281723943E+04  0.22281723943E+04  0.00000000000E+00 0.  1.
          4   -1    0    0  501    0  0.00000000000E+00 -0.00000000000E+00 -0.46768832966E+03  0.46768832966E+03  0.00000000000E+00 0. -1.
         24    2    1    2    0    0  0.51510938574E+03 -0.47899944229E+03  0.17656739392E+03  0.72969334266E+03  0.80611318916E+02 0.  0.
        254    2    1    2    0    0 -0.51510938574E+03  0.47899944229E+03  0.15839166707E+04  0.19661673813E+04  0.92857094856E+03 0.  0.
         23    2    4    4    0    0  0.57497867090E+01  0.23805892859E+03  0.12895618628E+04  0.13147140685E+04  0.93798563446E+02 0.  0.
         23    2    4    4    0    0 -0.52085917244E+03  0.24094051369E+03  0.29435480794E+03  0.65145331278E+03  0.91651825474E+02 0.  0.
          4    1    3    3  502    0  0.41451339837E+03 -0.41711176494E+03  0.12701761174E+03  0.60161204740E+03  0.00000000000E+00 0. -1.
         -1    1    3    3    0  502  0.10059598737E+03 -0.61887677343E+02  0.49549782178E+02  0.12808129526E+03  0.00000000000E+00 0.  1.
         11    1    5    5    0    0 -0.25106356089E+02  0.21695727044E+03  0.11164451985E+04  0.11376074312E+04  0.00000000000E+00 0. -1.
        -11    1    5    5    0    0  0.30856142798E+02  0.21101658151E+02  0.17311666425E+03  0.17710663727E+03  0.00000000000E+00 0.  1.
          3    1    6    6  503    0 -0.28677229351E+03  0.95096047181E+02  0.11955730411E+03  0.32492392261E+03  0.00000000000E+00 0. -1.
         -3    1    6    6    0  503 -0.23408687893E+03  0.14584446651E+03  0.17479750382E+03  0.32652939017E+03  0.00000000000E+00 0.  1.
<mgrwt>
<rscale>  0 0.20416564E+04</rscale>
<asrwt>0</asrwt>
<pdfrwt beam="1">  1        4 0.71952052E-01 0.20416564E+04</pdfrwt>
<pdfrwt beam="2">  1       -1 0.34279575E+00 0.20416564E+04</pdfrwt>
<totfact> 0.11920316E-01</totfact>
</mgrwt>
</event>
<event>
12    6  0.1529770E-007  0.1420709E+04  0.7818608E-02  0.8938963E-01
         -1   -1    0    0    0  501 -0.00000000000E+00  0.00000000000E+00  0.66869488976E+03  0.66869488976E+03  0.00000000000E+00 0.  1.
          2   -1    0    0  501    0  0.00000000000E+00 -0.00000000000E+00 -0.75460950162E+03  0.75460950162E+03  0.00000000000E+00 0. -1.
         24    2    1    2    0    0 -0.35757277349E+03 -0.21136370051E+03 -0.70766080659E+01  0.42288014509E+03  0.79023012453E+02 0.  0.
        254    2    1    2    0    0  0.35757277349E+03  0.21136370051E+03 -0.78838003786E+02  0.10004242463E+04  0.90669749061E+03 0.  0.
         23    2    4    4    0    0  0.40657606618E+03 -0.21192861336E+03 -0.25191409491E+03  0.53148903211E+03  0.93819216027E+02 0.  0.
         23    2    4    4    0    0 -0.49003292687E+02  0.42329231387E+03  0.17307609112E+03  0.46893521417E+03  0.91472378871E+02 0.  0.
          2    1    3    3  502    0 -0.26048291243E+03 -0.14483722834E+03 -0.39880821528E+02  0.30069860376E+03  0.00000000000E+00 0. -1.
         -1    1    3    3    0  502 -0.97089861065E+02 -0.66526472171E+02  0.32804213462E+02  0.12218154133E+03  0.00000000000E+00 0.  1.
         11    1    5    5    0    0  0.14952818018E+03 -0.33342144549E+02 -0.10499272998E+03  0.18572519651E+03  0.00000000000E+00 0.  1.
        -11    1    5    5    0    0  0.25704788599E+03 -0.17858646881E+03 -0.14692136493E+03  0.34576383560E+03  0.00000000000E+00 0. -1.
          3    1    6    6  503    0 -0.33397876095E+02  0.41801003234E+03  0.16594243089E+03  0.45098192385E+03  0.00000000000E+00 0. -1.
         -3    1    6    6    0  503 -0.15605416592E+02  0.52822815265E+01  0.71336602346E+01  0.17953290325E+02  0.00000000000E+00 0.  1.
<mgrwt>
<rscale>  0 0.14207090E+04</rscale>
<asrwt>0</asrwt>
<pdfrwt beam="1">  1        2 0.11609377E+00 0.14207090E+04</pdfrwt>
<pdfrwt beam="2">  1       -1 0.10287614E+00 0.14207090E+04</pdfrwt>
<totfact> 0.36875533E+01</totfact>
</mgrwt>
</event>
<event>
12    6  0.1529770E-007  0.2351241E+04  0.7818608E-02  0.8457987E-01
         -1   -1    0    0    0  501 -0.00000000000E+00  0.00000000000E+00  0.74460370230E+03  0.74460370230E+03  0.00000000000E+00 0.  1.
          2   -1    0    0  501    0  0.00000000000E+00 -0.00000000000E+00 -0.18561324084E+04  0.18561324084E+04  0.00000000000E+00 0. -1.
         24    2    1    2    0    0 -0.21822732754E+03  0.27175546689E+03  0.56887923371E+03  0.67229335966E+03  0.82949253252E+02 0.  0.
        254    2    1    2    0    0  0.21822732754E+03 -0.27175546689E+03 -0.16804079399E+04  0.19284427511E+04  0.87957171373E+03 0.  0.
         23    2    4    4    0    0 -0.60583492409E+02 -0.53095995095E+03 -0.11222557792E+04  0.12463387479E+04  0.91177911054E+02 0.  0.
         23    2    4    4    0    0  0.27881081995E+03  0.25920448405E+03 -0.55815216065E+03  0.68210400319E+03  0.93859463342E+02 0.  0.
          4    1    3    3  502    0  0.59894975394E+01  0.17662137054E+02  0.21039229251E+02  0.28115375394E+02  0.00000000000E+00 0. -1.
         -3    1    3    3    0  502 -0.22421682508E+03  0.25409332984E+03  0.54784000446E+03  0.64417798426E+03  0.00000000000E+00 0.  1.
         11    1    5    5    0    0  0.22004941591E+02 -0.12389658868E+03 -0.29290588955E+03  0.31879216156E+03  0.00000000000E+00 0.  1.
        -11    1    5    5    0    0 -0.82588434000E+02 -0.40706336227E+03 -0.82934988966E+03  0.92754658633E+03  0.00000000000E+00 0. -1.
          1    1    6    6  503    0  0.24265666321E+03  0.25517053515E+03 -0.47450406105E+03  0.59088777459E+03  0.00000000000E+00 0. -1.
         -1    1    6    6    0  503  0.36154156745E+02  0.40339489010E+01 -0.83648099603E+02  0.91216228604E+02  0.00000000000E+00 0.  1.
<mgrwt>
<rscale>  0 0.23512406E+04</rscale>
<asrwt>0</asrwt>
<pdfrwt beam="1">  1        2 0.28555883E+00 0.23512406E+04</pdfrwt>
<pdfrwt beam="2">  1       -1 0.11455442E+00 0.23512406E+04</pdfrwt>
<totfact> 0.57182882E+00</totfact>
</mgrwt>
</event>
<event>
12    6  0.1529770E-007  0.1943772E+04  0.7818608E-02  0.8633370E-01
          2   -1    0    0  501    0  0.00000000000E+00  0.00000000000E+00  0.15807557029E+04  0.15807557029E+04  0.00000000000E+00 0. -1.
         -1   -1    0    0    0  501 -0.00000000000E+00 -0.00000000000E+00 -0.59753835617E+03  0.59753835617E+03  0.00000000000E+00 0.  1.
         24    2    1    2    0    0 -0.54346380311E+03 -0.15006589581E+03  0.95508277827E+03  0.11119475638E+04  0.79822258937E+02 0.  0.
        254    2    1    2    0    0  0.54346380311E+03  0.15006589581E+03  0.28134568477E+02  0.10663464952E+04  0.90467155123E+03 0.  0.
         23    2    4    4    0    0  0.23768807643E+03  0.49263217236E+03 -0.13365528849E+03  0.57042587678E+03  0.91322865919E+02 0.  0.
         23    2    4    4    0    0  0.30577572668E+03 -0.34256627655E+03  0.16178985696E+03  0.49592061846E+03  0.94397315322E+02 0.  0.
          4    1    3    3  502    0 -0.26650367215E+03 -0.11493589602E+03  0.48297528552E+03  0.56347102311E+03  0.00000000000E+00 0. -1.
         -3    1    3    3    0  502 -0.27696013096E+03 -0.35129999790E+02  0.47210749275E+03  0.54847654073E+03  0.00000000000E+00 0.  1.
         11    1    5    5    0    0  0.98407854144E+02  0.12281736583E+03 -0.16443481176E+02  0.15823589725E+03  0.00000000000E+00 0.  1.
        -11    1    5    5    0    0  0.13928022229E+03  0.36981480654E+03 -0.11721180731E+03  0.41218997953E+03  0.00000000000E+00 0. -1.
          3    1    6    6  503    0  0.16602329256E+03 -0.11790708349E+03  0.58210388945E+02  0.21178825131E+03  0.00000000000E+00 0. -1.
         -3    1    6    6    0  503  0.13975243412E+03 -0.22465919306E+03  0.10357946802E+03  0.28413236715E+03  0.00000000000E+00 0.  1.
<mgrwt>
<rscale>  0 0.19437718E+04</rscale>
<asrwt>0</asrwt>
<pdfrwt beam="1">  1        2 0.24319318E+00 0.19437718E+04</pdfrwt>
<pdfrwt beam="2">  1       -1 0.91928979E-01 0.19437718E+04</pdfrwt>
<totfact> 0.14007858E+01</totfact>
</mgrwt>
</event>
<event>
12    6  0.1529770E-007  0.1855310E+04  0.7818608E-02  0.8677427E-01
         -1   -1    0    0    0  501 -0.00000000000E+00  0.00000000000E+00  0.26728326739E+03  0.26728326739E+03  0.00000000000E+00 0.  1.
          2   -1    0    0  501    0  0.00000000000E+00 -0.00000000000E+00 -0.32195952638E+04  0.32195952638E+04  0.00000000000E+00 0. -1.
         24    2    1    2    0    0 -0.67005520096E+03 -0.57535535614E+02 -0.11295987391E+04  0.13177784523E+04  0.90897897713E+02 0.  0.
        254    2    1    2    0    0  0.67005520096E+03  0.57535535614E+02 -0.18227132573E+04  0.21691000788E+04  0.96458655580E+03 0.  0.
         23    2    4    4    0    0  0.51842971268E+03 -0.57799237054E+01 -0.24486601828E+03  0.58010579774E+03  0.88094240176E+02 0.  0.
         23    2    4    4    0    0  0.15162548828E+03  0.63315459320E+02 -0.15778472390E+04  0.15889942811E+04  0.91114102754E+02 0.  0.
          4    1    3    3  502    0 -0.19405481967E+03  0.11280394039E+02 -0.38633237383E+03  0.43247800337E+03  0.00000000000E+00 0. -1.
         -3    1    3    3    0  502 -0.47600038129E+03 -0.68815929653E+02 -0.74326636530E+03  0.88530044897E+03  0.00000000000E+00 0.  1.
         11    1    5    5    0    0  0.51979944705E+03 -0.11315494023E+02 -0.24402675474E+03  0.57434185167E+03  0.00000000000E+00 0. -1.
        -11    1    5    5    0    0 -0.13697343614E+01  0.55355703176E+01 -0.83926353255E+00  0.57639460649E+01  0.00000000000E+00 0.  1.
          4    1    6    6  503    0  0.14525169522E+03  0.81832533170E+02 -0.14655617918E+04  0.14750138928E+04  0.00000000000E+00 0. -1.
         -4    1    6    6    0  503  0.63737930567E+01 -0.18517073850E+02 -0.11228544718E+03  0.11398038827E+03  0.00000000000E+00 0.  1.
<mgrwt>
<rscale>  0 0.18553102E+04</rscale>
<asrwt>0</asrwt>
<pdfrwt beam="1">  1        2 0.49532233E+00 0.18553102E+04</pdfrwt>
<pdfrwt beam="2">  1       -1 0.41120504E-01 0.18553102E+04</pdfrwt>
<totfact> 0.78378065E+00</totfact>
</mgrwt>
</event>
<event>
12    6  0.1529770E-007  0.1343203E+04  0.7818608E-02  0.8995989E-01
         -1   -1    0    0    0  501 -0.00000000000E+00  0.00000000000E+00  0.19328116638E+03  0.19328116638E+03  0.00000000000E+00 0.  1.
          2   -1    0    0  501    0  0.00000000000E+00 -0.00000000000E+00 -0.23336408320E+04  0.23336408320E+04  0.00000000000E+00 0. -1.
         24    2    1    2    0    0 -0.99099787549E+02 -0.25276633106E+03 -0.10524128144E+04  0.10897408969E+04  0.79062662168E+02 0.  0.
        254    2    1    2    0    0  0.99099787549E+02  0.25276633106E+03 -0.10879468512E+04  0.14371811014E+04  0.89897140178E+03 0.  0.
         23    2    4    4    0    0  0.75067747116E+02  0.58284442004E+03 -0.68891821047E+03  0.91006140826E+03  0.90888291028E+02 0.  0.
         23    2    4    4    0    0  0.24032040433E+02 -0.33007808898E+03 -0.39902864070E+03  0.52711969314E+03  0.95405613055E+02 0.  0.
          2    1    3    3  502    0 -0.10883858058E+02 -0.35199715552E+02 -0.28068517915E+03  0.28309300262E+03  0.00000000000E+00 0. -1.
         -1    1    3    3    0  502 -0.88215929491E+02 -0.21756661550E+03 -0.77172763524E+03  0.80664789431E+03  0.00000000000E+00 0.  1.
         11    1    5    5    0    0  0.31218955775E+02  0.47701840342E+03 -0.58420931073E+03  0.75486535166E+03  0.00000000000E+00 0. -1.
        -11    1    5    5    0    0  0.43848791341E+02  0.10582601662E+03 -0.10470889974E+03  0.15519605659E+03  0.00000000000E+00 0.  1.
          2    1    6    6  503    0  0.32766533148E+02 -0.89773491184E+02 -0.65146151570E+02  0.11565875012E+03  0.00000000000E+00 0. -1.
         -2    1    6    6    0  503 -0.87344927144E+01 -0.24030459780E+03 -0.33388248913E+03  0.41146094303E+03  0.00000000000E+00 0.  1.
<mgrwt>
<rscale>  0 0.13432034E+04</rscale>
<asrwt>0</asrwt>
<pdfrwt beam="1">  1        2 0.35902165E+00 0.13432034E+04</pdfrwt>
<pdfrwt beam="2">  1       -1 0.29735566E-01 0.13432034E+04</pdfrwt>
<totfact> 0.50185077E+01</totfact>
</mgrwt>
</event>
<event>
12    6  0.1529770E-007  0.2572768E+04  0.7818608E-02  0.8377510E-01
          2   -1    0    0  501    0  0.00000000000E+00  0.00000000000E+00  0.26115846467E+04  0.26115846467E+04  0.00000000000E+00 0. -1.
         -1   -1    0    0    0  501 -0.00000000000E+00 -0.00000000000E+00 -0.63363231983E+03  0.63363231983E+03  0.00000000000E+00 0.  1.
         24    2    1    2    0    0 -0.32148379570E+03 -0.55246606549E+03  0.20492001196E+04  0.21480538354E+04  0.79646501149E+02 0.  0.
        254    2    1    2    0    0  0.32148379570E+03  0.55246606549E+03 -0.71247792703E+02  0.10971631312E+04  0.88888700295E+03 0.  0.
         23    2    4    4    0    0  0.16970014430E+03 -0.17995746353E+02  0.32614201067E+03  0.37944745570E+03  0.92139973163E+02 0.  0.
         23    2    4    4    0    0  0.15178365140E+03  0.57046181184E+03 -0.39738980337E+03  0.71771567546E+03  0.93446130901E+02 0.  0.
          4    1    3    3  502    0 -0.23191749626E+03 -0.41627871866E+03  0.16318445738E+04  0.16999971793E+04  0.00000000000E+00 0. -1.
         -3    1    3    3    0  502 -0.89566299442E+02 -0.13618734683E+03  0.41735554585E+03  0.44805665611E+03  0.00000000000E+00 0.  1.
         11    1    5    5    0    0  0.32363752460E+02 -0.88360890268E+01  0.16103669226E+03  0.16449408864E+03  0.00000000000E+00 0.  1.
        -11    1    5    5    0    0  0.13733639184E+03 -0.91596573265E+01  0.16510531841E+03  0.21495336707E+03  0.00000000000E+00 0. -1.
          3    1    6    6  503    0  0.99080131919E+02  0.48516655802E+03 -0.35266907782E+03  0.60793004533E+03  0.00000000000E+00 0. -1.
         -3    1    6    6    0  503  0.52703519481E+02  0.85295253822E+02 -0.44720725546E+02  0.10978563013E+03  0.00000000000E+00 0.  1.
<mgrwt>
<rscale>  0 0.25727685E+04</rscale>
<asrwt>0</asrwt>
<pdfrwt beam="1">  1        2 0.40178225E+00 0.25727685E+04</pdfrwt>
<pdfrwt beam="2">  1       -1 0.97481897E-01 0.25727685E+04</pdfrwt>
<totfact> 0.30503457E+00</totfact>
</mgrwt>
</event>
<event>
12    6  0.1529770E-007  0.1334059E+04  0.7818608E-02  0.9002984E-01
         -1   -1    0    0    0  501 -0.00000000000E+00  0.00000000000E+00  0.80319701279E+03  0.80319701279E+03  0.00000000000E+00 0.  1.
          2   -1    0    0  501    0  0.00000000000E+00 -0.00000000000E+00 -0.55394680475E+03  0.55394680475E+03  0.00000000000E+00 0. -1.
         24    2    1    2    0    0  0.37087886935E+02  0.29345645006E+03  0.28233342527E+03  0.41646866963E+03  0.79005001870E+02 0.  0.
        254    2    1    2    0    0 -0.37087886935E+02 -0.29345645006E+03 -0.33083217231E+02  0.94067514791E+03  0.89234692535E+03 0.  0.
         23    2    4    4    0    0 -0.25328915725E+03  0.76990846736E+02  0.28509416432E+03  0.39869070859E+03  0.87135589307E+02 0.  0.
         23    2    4    4    0    0  0.21620127032E+03 -0.37044729680E+03 -0.31817738155E+03  0.54198443932E+03  0.92391002512E+02 0.  0.
          4    1    3    3  502    0 -0.17367911359E+02  0.24015746842E+02  0.41547561005E+02  0.51035284528E+02  0.00000000000E+00 0. -1.
         -1    1    3    3    0  502  0.54455798294E+02  0.26944070322E+03  0.24078586427E+03  0.36543338510E+03  0.00000000000E+00 0.  1.
         11    1    5    5    0    0 -0.22606180058E+03  0.87351618170E+02  0.27780709466E+03  0.36866112451E+03  0.00000000000E+00 0.  1.
        -11    1    5    5    0    0 -0.27227356668E+02 -0.10360771434E+02  0.72870696582E+01  0.30029584081E+02  0.00000000000E+00 0. -1.
          1    1    6    6  503    0  0.13392778492E+02 -0.89360639078E+02 -0.86389029578E+02  0.12501101857E+03  0.00000000000E+00 0. -1.
         -1    1    6    6    0  503  0.20280849182E+03 -0.28108665772E+03 -0.23178835197E+03  0.41697342075E+03  0.00000000000E+00 0.  1.
<mgrwt>
<rscale>  0 0.13340591E+04</rscale>
<asrwt>0</asrwt>
<pdfrwt beam="1">  1        2 0.85222585E-01 0.13340591E+04</pdfrwt>
<pdfrwt beam="2">  1       -1 0.12356877E+00 0.13340591E+04</pdfrwt>
<totfact> 0.35151115E+01</totfact>
</mgrwt>
</event>
<event>
12    6  0.1529770E-007  0.1877863E+04  0.7818608E-02  0.8665955E-01
         -1   -1    0    0    0  501 -0.00000000000E+00  0.00000000000E+00  0.41291492251E+03  0.41291492251E+03  0.00000000000E+00 0.  1.
          2   -1    0    0  501    0  0.00000000000E+00 -0.00000000000E+00 -0.21350453534E+04  0.21350453534E+04  0.00000000000E+00 0. -1.
         24    2    1    2    0    0  0.46195110054E+03  0.46533213266E+03 -0.10250521931E+04  0.12194589805E+04  0.80096152160E+02 0.  0.
        254    2    1    2    0    0 -0.46195110054E+03 -0.46533213266E+03 -0.69707823777E+03  0.13285012954E+04  0.92144712778E+03 0.  0.
         23    2    4    4    0    0 -0.70478024332E+03 -0.44924437508E+03 -0.65282156401E+03  0.10646895809E+04  0.94086180816E+02 0.  0.
         23    2    4    4    0    0  0.24282914278E+03 -0.16087757573E+02 -0.44256673761E+02  0.26381171444E+03  0.91723273891E+02 0.  0.
          4    1    3    3  502    0  0.60535614341E+02  0.62259856948E+02 -0.19181079530E+03  0.21055220631E+03  0.00000000000E+00 0. -1.
         -3    1    3    3    0  502  0.40141548619E+03  0.40307227571E+03 -0.83324139781E+03  0.10089067742E+04  0.00000000000E+00 0.  1.
         11    1    5    5    0    0 -0.57874001922E+03 -0.32469153401E+03 -0.50422599013E+03  0.83343173159E+03  0.00000000000E+00 0. -1.
        -11    1    5    5    0    0 -0.12604022410E+03 -0.12455284107E+03 -0.14859557388E+03  0.23125784935E+03  0.00000000000E+00 0.  1.
          3    1    6    6  503    0  0.21382062957E+03 -0.31973947117E+02 -0.10349729614E+02  0.21644563249E+03  0.00000000000E+00 0. -1.
         -3    1    6    6    0  503  0.29008513217E+02  0.15886189544E+02 -0.33906944147E+02  0.47366081944E+02  0.00000000000E+00 0.  1.
<mgrwt>
<rscale>  0 0.18778627E+04</rscale>
<asrwt>0</asrwt>
<pdfrwt beam="1">  1        2 0.32846851E+00 0.18778627E+04</pdfrwt>
<pdfrwt beam="2">  1       -1 0.63525374E-01 0.18778627E+04</pdfrwt>
<totfact> 0.15080591E+01</totfact>
</mgrwt>
</event>
<event>
12    6  0.1529770E-007  0.1743380E+04  0.7818608E-02  0.8737003E-01
          2   -1    0    0  501    0  0.00000000000E+00  0.00000000000E+00  0.16362602703E+04  0.16362602703E+04  0.00000000000E+00 0. -1.
         -1   -1    0    0    0  501 -0.00000000000E+00 -0.00000000000E+00 -0.46437789817E+03  0.46437789817E+03  0.00000000000E+00 0.  1.
         24    2    1    2    0    0  0.25454189033E+03  0.37351150693E+03  0.95895182782E+03  0.10630273019E+04  0.78332731522E+02 0.  0.
        254    2    1    2    0    0 -0.25454189033E+03 -0.37351150693E+03  0.21293054430E+03  0.10376108665E+04  0.90939236520E+03 0.  0.
         23    2    4    4    0    0  0.21244335426E+03  0.12975056421E+03 -0.92063878896E+02  0.28077843358E+03  0.91615409641E+02 0.  0.
         23    2    4    4    0    0 -0.46698524459E+03 -0.50326207114E+03  0.30499442320E+03  0.75683243294E+03  0.91792169923E+02 0.  0.
          4    1    3    3  502    0  0.48316699439E+02  0.82446745273E+02  0.28341083347E+03  0.29908806358E+03  0.00000000000E+00 0. -1.
         -3    1    3    3    0  502  0.20622519089E+03  0.29106476166E+03  0.67554099435E+03  0.76393923835E+03  0.00000000000E+00 0.  1.
         11    1    5    5    0    0  0.18254434736E+03  0.64862784193E+02 -0.64082290118E+02  0.20404940440E+03  0.00000000000E+00 0.  1.
        -11    1    5    5    0    0  0.29899006898E+02  0.64887780016E+02 -0.27981588778E+02  0.76729029183E+02  0.00000000000E+00 0. -1.
          1    1    6    6  503    0 -0.70607627641E+01 -0.36886796042E+02  0.13783524563E+02  0.40005945088E+02  0.00000000000E+00 0. -1.
         -1    1    6    6    0  503 -0.45992448182E+03 -0.46637527510E+03  0.29121089863E+03  0.71682648785E+03  0.00000000000E+00 0.  1.
<mgrwt>
<rscale>  0 0.17433796E+04</rscale>
<asrwt>0</asrwt>
<pdfrwt beam="1">  1        2 0.25173235E+00 0.17433796E+04</pdfrwt>
<pdfrwt beam="2">  1       -1 0.71442755E-01 0.17433796E+04</pdfrwt>
<totfact> 0.22745325E+01</totfact>
</mgrwt>
</event>
<event>
12    6  0.1529770E-007  0.1373697E+04  0.7818608E-02  0.8973081E-01
          2   -1    0    0  501    0  0.00000000000E+00  0.00000000000E+00  0.31637943849E+03  0.31637943849E+03  0.00000000000E+00 0. -1.
         -1   -1    0    0    0  501 -0.00000000000E+00 -0.00000000000E+00 -0.14911228885E+04  0.14911228885E+04  0.00000000000E+00 0.  1.
         24    2    1    2    0    0  0.11103495951E+03 -0.70130099388E+02  0.13811842856E+03  0.20676897877E+03  0.80185517389E+02 0.  0.
        254    2    1    2    0    0 -0.11103495951E+03  0.70130099388E+02 -0.13128618786E+04  0.16007333483E+04  0.90636303260E+03 0.  0.
         23    2    4    4    0    0 -0.45514852561E+03  0.12117790185E+03 -0.10500742673E+04  0.11551581003E+04  0.99448508171E+02 0.  0.
         23    2    4    4    0    0  0.34411356611E+03 -0.51047802457E+02 -0.26278761136E+03  0.44557524793E+03  0.91977977609E+02 0.  0.
          4    1    3    3  502    0  0.59581879711E+02 -0.38960965810E+02  0.12700118038E+03  0.14559277820E+03  0.00000000000E+00 0. -1.
         -3    1    3    3    0  502  0.51453079796E+02 -0.31169133578E+02  0.11117248184E+02  0.61176200566E+02  0.00000000000E+00 0.  1.
         11    1    5    5    0    0 -0.13468398451E+01 -0.12574026796E+01  0.20860555246E+01  0.27832834420E+01  0.00000000000E+00 0.  1.
        -11    1    5    5    0    0 -0.45380168577E+03  0.12243530453E+03 -0.10521603228E+04  0.11523748169E+04  0.00000000000E+00 0. -1.
          4    1    6    6  503    0  0.11411650394E+03  0.26378090888E+02 -0.82941464766E+02  0.14351887238E+03  0.00000000000E+00 0. -1.
         -4    1    6    6    0  503  0.22999706217E+03 -0.77425893345E+02 -0.17984614660E+03  0.30205637555E+03  0.00000000000E+00 0.  1.
<mgrwt>
<rscale>  0 0.13736967E+04</rscale>
<asrwt>0</asrwt>
<pdfrwt beam="1">  1        2 0.48673759E-01 0.13736967E+04</pdfrwt>
<pdfrwt beam="2">  1       -1 0.22940352E+00 0.13736967E+04</pdfrwt>
<totfact> 0.11011234E+01</totfact>
</mgrwt>
</event>
<event>
12    6  0.1529770E-007  0.2589370E+04  0.7818608E-02  0.8371821E-01
         -1   -1    0    0    0  501 -0.00000000000E+00  0.00000000000E+00  0.17504991774E+04  0.17504991774E+04  0.00000000000E+00 0.  1.
          2   -1    0    0  501    0  0.00000000000E+00 -0.00000000000E+00 -0.95756050030E+03  0.95756050030E+03  0.00000000000E+00 0. -1.
         24    2    1    2    0    0  0.28073578580E+03 -0.46633710643E+03  0.14002844372E+04  0.15044924765E+04  0.80113848841E+02 0.  0.
        254    2    1    2    0    0 -0.28073578580E+03  0.46633710643E+03 -0.60734576004E+03  0.12035672012E+04  0.88511143773E+03 0.  0.
         23    2    4    4    0    0 -0.27812835223E+03 -0.99834685586E+02 -0.54440238324E+03  0.62599195253E+03  0.90385977864E+02 0.  0.
         23    2    4    4    0    0 -0.26074335707E+01  0.56617179202E+03 -0.62943376803E+02  0.57757524863E+03  0.95257558021E+02 0.  0.
          2    1    3    3  502    0  0.19648653174E+03 -0.30460181292E+03  0.82829971888E+03  0.90414027998E+03  0.00000000000E+00 0. -1.
         -1    1    3    3    0  502  0.84249254057E+02 -0.16173529351E+03  0.57198471827E+03  0.60035219656E+03  0.00000000000E+00 0.  1.
         11    1    5    5    0    0 -0.68322228017E+02 -0.29192032374E+02 -0.22824266631E+03  0.24003086534E+03  0.00000000000E+00 0. -1.
        -11    1    5    5    0    0 -0.20980612421E+03 -0.70642653212E+02 -0.31615971694E+03  0.38596108719E+03  0.00000000000E+00 0.  1.
          3    1    6    6  503    0  0.41904785890E+01  0.14644724933E+03  0.25154226693E+02  0.14865090671E+03  0.00000000000E+00 0. -1.
         -3    1    6    6    0  503 -0.67979121596E+01  0.41972454269E+03 -0.88097603496E+02  0.42892434192E+03  0.00000000000E+00 0.  1.
<mgrwt>
<rscale>  0 0.25893697E+04</rscale>
<asrwt>0</asrwt>
<pdfrwt beam="1">  1        2 0.14731700E+00 0.25893697E+04</pdfrwt>
<pdfrwt beam="2">  1       -1 0.26930757E+00 0.25893697E+04</pdfrwt>
<totfact> 0.14143280E+00</totfact>
</mgrwt>
</event>
<event>
12    6  0.1529770E-007  0.1417144E+04  0.7818608E-02  0.8941502E-01
          2   -1    0    0  501    0  0.00000000000E+00  0.00000000000E+00  0.14429004811E+04  0.14429004811E+04  0.00000000000E+00 0. -1.
         -1   -1    0    0    0  501 -0.00000000000E+00 -0.00000000000E+00 -0.34796169679E+03  0.34796169679E+03  0.00000000000E+00 0.  1.
         24    2    1    2    0    0  0.31662461523E+03 -0.19247162427E+03  0.92146943133E+02  0.39017866685E+03  0.80323469936E+02 0.  0.
        254    2    1    2    0    0 -0.31662461523E+03  0.19247162427E+03  0.10027918411E+04  0.14006835110E+04  0.90500074487E+03 0.  0.
         23    2    4    4    0    0 -0.31732454293E+03  0.47726687429E+03  0.92417164365E+03  0.10912278669E+04  0.90589710529E+02 0.  0.
         23    2    4    4    0    0  0.69992770205E+00 -0.28479525003E+03  0.78620197495E+02  0.30945564414E+03  0.92048008645E+02 0.  0.
          4    1    3    3  502    0  0.20687717683E+03 -0.10069760244E+03  0.90116284216E+02  0.24710143284E+03  0.00000000000E+00 0. -1.
         -3    1    3    3    0  502  0.10974743839E+03 -0.91774021829E+02  0.20306589167E+01  0.14307723401E+03  0.00000000000E+00 0.  1.
         11    1    5    5    0    0 -0.14746429425E+03  0.19938431298E+03  0.31978741344E+03  0.40467741738E+03  0.00000000000E+00 0. -1.
        -11    1    5    5    0    0 -0.16986024868E+03  0.27788256131E+03  0.60438423021E+03  0.68655044949E+03  0.00000000000E+00 0.  1.
          4    1    6    6  503    0  0.91179078052E+01 -0.82765049122E+02  0.67073490983E+02  0.10692073135E+03  0.00000000000E+00 0. -1.
         -4    1    6    6    0  503 -0.84179801031E+01 -0.20203020091E+03  0.11546706512E+02  0.20253491279E+03  0.00000000000E+00 0.  1.
<mgrwt>
<rscale>  0 0.14171437E+04</rscale>
<asrwt>0</asrwt>
<pdfrwt beam="1">  1        2 0.22198469E+00 0.14171437E+04</pdfrwt>
<pdfrwt beam="2">  1       -1 0.53532570E-01 0.14171437E+04</pdfrwt>
<totfact> 0.53339602E+01</totfact>
</mgrwt>
</event>
<event>
12    6  0.1529770E-007  0.2930916E+04  0.7818608E-02  0.8263738E-01
         -1   -1    0    0    0  501 -0.00000000000E+00  0.00000000000E+00  0.70921733205E+03  0.70921733205E+03  0.00000000000E+00 0.  1.
          2   -1    0    0  501    0  0.00000000000E+00 -0.00000000000E+00 -0.30280807106E+04  0.30280807106E+04  0.00000000000E+00 0. -1.
         24    2    1    2    0    0  0.24407035065E+03  0.34499653178E+03  0.55067383656E+03  0.69905355792E+03  0.82711907031E+02 0.  0.
        254    2    1    2    0    0 -0.24407035065E+03 -0.34499653178E+03 -0.28695372151E+04  0.30382444847E+04  0.90448481309E+03 0.  0.
         23    2    4    4    0    0 -0.41132292448E+03  0.14227868237E+03 -0.95473596884E+03  0.10532540588E+04  0.91616431255E+02 0.  0.
         23    2    4    4    0    0  0.16725257383E+03 -0.48727521414E+03 -0.19148012463E+04  0.19849904259E+04  0.91173574297E+02 0.  0.
          4    1    3    3  502    0  0.11661586851E+03  0.13164800072E+03  0.28794832071E+03  0.33740879106E+03  0.00000000000E+00 0. -1.
         -3    1    3    3    0  502  0.12745448214E+03  0.21334853106E+03  0.26272551585E+03  0.36164476686E+03  0.00000000000E+00 0.  1.
         11    1    5    5    0    0 -0.31948558979E+03  0.13593069293E+03 -0.81554065145E+03  0.88637167686E+03  0.00000000000E+00 0.  1.
        -11    1    5    5    0    0 -0.91837334689E+02  0.63479894348E+01 -0.13919531739E+03  0.16688238192E+03  0.00000000000E+00 0. -1.
          4    1    6    6  503    0  0.76932822878E+02 -0.22937284566E+03 -0.72841777405E+03  0.76754349396E+03  0.00000000000E+00 0.  1.
         -4    1    6    6    0  503  0.90319750950E+02 -0.25790236848E+03 -0.11863834722E+04  0.12174469320E+04  0.00000000000E+00 0. -1.
<mgrwt>
<rscale>  0 0.29309161E+04</rscale>
<asrwt>0</asrwt>
<pdfrwt beam="1">  1        2 0.46585857E+00 0.29309161E+04</pdfrwt>
<pdfrwt beam="2">  1       -1 0.10911036E+00 0.29309161E+04</pdfrwt>
<totfact> 0.12715310E+00</totfact>
</mgrwt>
</event>
<event>
12    6  0.1529770E-007  0.1209120E+04  0.7818608E-02  0.9104911E-01
         -1   -1    0    0    0  501 -0.00000000000E+00  0.00000000000E+00  0.36877663381E+03  0.36877663381E+03  0.00000000000E+00 0.  1.
          2   -1    0    0  501    0  0.00000000000E+00 -0.00000000000E+00 -0.99109458305E+03  0.99109458305E+03  0.00000000000E+00 0. -1.
         24    2    1    2    0    0 -0.21996125224E+03 -0.14615796691E+03 -0.10969082778E+03  0.29733385845E+03  0.81426297370E+02 0.  0.
        254    2    1    2    0    0  0.21996125224E+03  0.14615796691E+03 -0.51262712146E+03  0.10625373584E+04  0.89244269764E+03 0.  0.
         23    2    4    4    0    0  0.36289322027E+03  0.30512829966E+03 -0.63677960802E+03  0.79928969552E+03  0.92633577053E+02 0.  0.
         23    2    4    4    0    0 -0.14293196803E+03 -0.15897033275E+03  0.12415248656E+03  0.26324766288E+03  0.90467551709E+02 0.  0.
          2    1    3    3  502    0 -0.17425765855E+02 -0.73064943942E+01  0.12893799726E+02  0.22875581901E+02  0.00000000000E+00 0. -1.
         -1    1    3    3    0  502 -0.20253548638E+03 -0.13885147252E+03 -0.12258462751E+03  0.27445827655E+03  0.00000000000E+00 0.  1.
         11    1    5    5    0    0  0.13457953025E+03  0.92480813328E+02 -0.28998756585E+03  0.33280195183E+03  0.00000000000E+00 0. -1.
        -11    1    5    5    0    0  0.22831369003E+03  0.21264748633E+03 -0.34679204217E+03  0.46648774368E+03  0.00000000000E+00 0.  1.
          4    1    6    6  503    0 -0.34490939733E+02  0.55328967227E+01  0.15147601056E+02  0.38074764446E+02  0.00000000000E+00 0. -1.
         -4    1    6    6    0  503 -0.10844102830E+03 -0.16450322947E+03  0.10900488550E+03  0.22517289844E+03  0.00000000000E+00 0.  1.
<mgrwt>
<rscale>  0 0.12091196E+04</rscale>
<asrwt>0</asrwt>
<pdfrwt beam="1">  1        2 0.15247609E+00 0.12091196E+04</pdfrwt>
<pdfrwt beam="2">  1       -1 0.56734867E-01 0.12091196E+04</pdfrwt>
<totfact> 0.90288684E+01</totfact>
</mgrwt>
</event>
<event>
12    6  0.1529770E-007  0.2446800E+04  0.7818608E-02  0.8422187E-01
          2   -1    0    0  501    0  0.00000000000E+00  0.00000000000E+00  0.13187829214E+04  0.13187829214E+04  0.00000000000E+00 0. -1.
         -1   -1    0    0    0  501 -0.00000000000E+00 -0.00000000000E+00 -0.11349160795E+04  0.11349160795E+04  0.00000000000E+00 0.  1.
         24    2    1    2    0    0 -0.66312488934E+03  0.78604953224E+03 -0.17195380645E+03  0.10455898359E+04  0.77984020112E+02 0.  0.
        254    2    1    2    0    0  0.66312488934E+03 -0.78604953224E+03  0.35582064832E+03  0.14081091650E+04  0.89361882296E+03 0.  0.
         23    2    4    4    0    0  0.73960611626E+03 -0.81312763613E+03  0.50573182191E+03  0.12133111204E+04  0.90362820097E+02 0.  0.
         23    2    4    4    0    0 -0.76481226921E+02  0.27078103895E+02 -0.14991117359E+03  0.19479804462E+03  0.94288474583E+02 0.  0.
          2    1    3    3  502    0 -0.31012767418E+03  0.37185093164E+03 -0.12035459508E+03  0.49893638694E+03  0.00000000000E+00 0. -1.
         -1    1    3    3    0  502 -0.35299721516E+03  0.41419860060E+03 -0.51599211362E+02  0.54665344896E+03  0.00000000000E+00 0.  1.
         11    1    5    5    0    0  0.30706016546E+03 -0.28733303453E+03  0.22406399451E+03  0.47649857459E+03  0.00000000000E+00 0.  1.
        -11    1    5    5    0    0  0.43254595080E+03 -0.52579460160E+03  0.28166782740E+03  0.73681254578E+03  0.00000000000E+00 0. -1.
          3    1    6    6  503    0 -0.24164349314E+02  0.57582399416E+02 -0.90559586926E+02  0.11000312398E+03  0.00000000000E+00 0. -1.
         -3    1    6    6    0  503 -0.52316877606E+02 -0.30504295521E+02 -0.59351586663E+02  0.84794920645E+02  0.00000000000E+00 0.  1.
<mgrwt>
<rscale>  0 0.24468003E+04</rscale>
<asrwt>0</asrwt>
<pdfrwt beam="1">  1        2 0.20288968E+00 0.24468003E+04</pdfrwt>
<pdfrwt beam="2">  1       -1 0.17460248E+00 0.24468003E+04</pdfrwt>
<totfact> 0.37467550E+00</totfact>
</mgrwt>
</event>
<event>
12    6  0.1529770E-007  0.1879146E+04  0.7818608E-02  0.8665307E-01
         -1   -1    0    0    0  501 -0.00000000000E+00  0.00000000000E+00  0.45530735530E+03  0.45530735530E+03  0.00000000000E+00 0.  1.
          2   -1    0    0  501    0  0.00000000000E+00 -0.00000000000E+00 -0.19389052106E+04  0.19389052106E+04  0.00000000000E+00 0. -1.
         24    2    1    2    0    0 -0.56903076351E+03 -0.36810846342E+03 -0.86825181878E+03  0.11042193548E+04  0.78353762752E+02 0.  0.
        254    2    1    2    0    0  0.56903076351E+03  0.36810846342E+03 -0.61534603650E+03  0.12899932110E+04  0.90891797717E+03 0.  0.
         23    2    4    4    0    0  0.76714655704E+03  0.43856833785E+03 -0.57374803404E+03  0.10576508659E+04  0.92641894632E+02 0.  0.
         23    2    4    4    0    0 -0.19811579353E+03 -0.70459874431E+02 -0.41598002465E+02  0.23234234513E+03  0.89655507259E+02 0.  0.
          2    1    3    3  502    0 -0.33073984182E+03 -0.17547699603E+03 -0.51259971522E+03  0.63477514692E+03  0.00000000000E+00 0. -1.
         -3    1    3    3    0  502 -0.23829092169E+03 -0.19263146739E+03 -0.35565210356E+03  0.46944420793E+03  0.00000000000E+00 0.  1.
         11    1    5    5    0    0  0.69689980182E+03  0.37499670327E+03 -0.53518840888E+03  0.95536301700E+03  0.00000000000E+00 0.  1.
        -11    1    5    5    0    0  0.70246755215E+02  0.63571634584E+02 -0.38559625161E+02  0.10228784891E+03  0.00000000000E+00 0. -1.
          4    1    6    6  503    0 -0.24277657662E+02 -0.31874669441E+02  0.18867628137E+02  0.44287544581E+02  0.00000000000E+00 0. -1.
         -4    1    6    6    0  503 -0.17383813587E+03 -0.38585204990E+02 -0.60465630602E+02  0.18805480055E+03  0.00000000000E+00 0.  1.
<mgrwt>
<rscale>  0 0.18791464E+04</rscale>
<asrwt>0</asrwt>
<pdfrwt beam="1">  1        2 0.29829310E+00 0.18791464E+04</pdfrwt>
<pdfrwt beam="2">  1       -1 0.70047287E-01 0.18791464E+04</pdfrwt>
<totfact> 0.15902026E+01</totfact>
</mgrwt>
</event>
<event>
12    6  0.1529770E-007  0.1765612E+04  0.7818608E-02  0.8724803E-01
          2   -1    0    0  501    0  0.00000000000E+00  0.00000000000E+00  0.31157918118E+04  0.31157918118E+04  0.00000000000E+00 0. -1.
         -1   -1    0    0    0  501 -0.00000000000E+00 -0.00000000000E+00 -0.25012797661E+03  0.25012797661E+03  0.00000000000E+00 0.  1.
         24    2    1    2    0    0  0.28718810736E+03 -0.18423356722E+03  0.21224385796E+04  0.21512386738E+04  0.81628985604E+02 0.  0.
        254    2    1    2    0    0 -0.28718810736E+03  0.18423356722E+03  0.74322525559E+03  0.12146811146E+04  0.89813552057E+03 0.  0.
         23    2    4    4    0    0 -0.58129870962E+03  0.25585309020E+03  0.53220185665E+03  0.83422172195E+03  0.96530158928E+02 0.  0.
         23    2    4    4    0    0  0.29411060226E+03 -0.71619522989E+02  0.21102339894E+03  0.38045939264E+03  0.92671851788E+02 0.  0.
          4    1    3    3  502    0  0.11690716392E+03 -0.12013608883E+03  0.11089022852E+04  0.11215008885E+04  0.00000000000E+00 0. -1.
         -3    1    3    3    0  502  0.17028094343E+03 -0.64097478385E+02  0.10135362945E+04  0.10297377854E+04  0.00000000000E+00 0.  1.
         11    1    5    5    0    0 -0.48295197067E+03  0.24964431090E+03  0.44280559311E+03  0.70117164890E+03  0.00000000000E+00 0. -1.
        -11    1    5    5    0    0 -0.98346738953E+02  0.62087792997E+01  0.89396263543E+02  0.13305007305E+03  0.00000000000E+00 0.  1.
          1    1    6    6  503    0  0.21970300289E+03 -0.37614259203E+02  0.19695581268E+03  0.29744887649E+03  0.00000000000E+00 0. -1.
         -1    1    6    6    0  503  0.74407599369E+02 -0.34005263785E+02  0.14067586259E+02  0.83010516154E+02  0.00000000000E+00 0.  1.
<mgrwt>
<rscale>  0 0.17656123E+04</rscale>
<asrwt>0</asrwt>
<pdfrwt beam="1">  1        2 0.47935256E+00 0.17656123E+04</pdfrwt>
<pdfrwt beam="2">  1       -1 0.38481229E-01 0.17656123E+04</pdfrwt>
<totfact> 0.10411458E+01</totfact>
</mgrwt>
</event>
<event>
12    6  0.1529770E-007  0.2082599E+04  0.7818608E-02  0.8568948E-01
         -1   -1    0    0    0  501 -0.00000000000E+00  0.00000000000E+00  0.44923551763E+03  0.44923551763E+03  0.00000000000E+00 0.  1.
          2   -1    0    0  501    0  0.00000000000E+00 -0.00000000000E+00 -0.24136666795E+04  0.24136666795E+04  0.00000000000E+00 0. -1.
         24    2    1    2    0    0 -0.32180319555E+03  0.43595513003E+03  0.93139170901E+02  0.55532583922E+03  0.78087838275E+02 0.  0.
        254    2    1    2    0    0  0.32180319555E+03 -0.43595513003E+03 -0.20575703328E+04  0.23075763579E+04  0.89313985538E+03 0.  0.
         23    2    4    4    0    0  0.72285447720E+02  0.26561095004E+03 -0.48609530098E+03  0.56606198080E+03  0.91450323839E+02 0.  0.
         23    2    4    4    0    0  0.24951774783E+03 -0.70156608007E+03 -0.15714750318E+04  0.17415143772E+04  0.94257514335E+02 0.  0.
          2    1    3    3  502    0 -0.21271343073E+03  0.33489351858E+03  0.88803927828E+02  0.40655480565E+03  0.00000000000E+00 0. -1.
         -1    1    3    3    0  502 -0.10908976482E+03  0.10106161145E+03  0.43352430733E+01  0.14877103357E+03  0.00000000000E+00 0.  1.
         11    1    5    5    0    0  0.79796546738E+02  0.22423581850E+03 -0.45590904790E+03  0.51429782338E+03  0.00000000000E+00 0. -1.
        -11    1    5    5    0    0 -0.75110990180E+01  0.41375131535E+02 -0.30186253079E+02  0.51764157416E+02  0.00000000000E+00 0.  1.
          3    1    6    6  503    0  0.41120101827E+02 -0.22339617107E+03 -0.42276855194E+03  0.47992703668E+03  0.00000000000E+00 0. -1.
         -3    1    6    6    0  503  0.20839764600E+03 -0.47816990900E+03 -0.11487064799E+04  0.12615873405E+04  0.00000000000E+00 0.  1.
<mgrwt>
<rscale>  0 0.20825991E+04</rscale>
<asrwt>0</asrwt>
<pdfrwt beam="1">  1        2 0.37133334E+00 0.20825991E+04</pdfrwt>
<pdfrwt beam="2">  1       -1 0.69113156E-01 0.20825991E+04</pdfrwt>
<totfact> 0.86878979E+00</totfact>
</mgrwt>
</event>
<event>
12    6  0.1529770E-007  0.1327248E+04  0.7818608E-02  0.9008232E-01
          2   -1    0    0  501    0  0.00000000000E+00  0.00000000000E+00  0.51120852479E+03  0.51120852479E+03  0.00000000000E+00 0. -1.
         -1   -1    0    0    0  501 -0.00000000000E+00 -0.00000000000E+00 -0.86148204624E+03  0.86148204624E+03  0.00000000000E+00 0.  1.
         24    2    1    2    0    0  0.14329803262E+03 -0.34234167408E+03 -0.11770795020E+03  0.39732592711E+03  0.79250128425E+02 0.  0.
        254    2    1    2    0    0 -0.14329803262E+03  0.34234167408E+03 -0.23256557125E+03  0.97536464391E+03  0.87150289484E+03 0.  0.
         23    2    4    4    0    0  0.24018618011E+03  0.43435713997E+03 -0.26473920110E+03  0.57012328200E+03  0.92726403552E+02 0.  0.
         23    2    4    4    0    0 -0.38348421274E+03 -0.92015465895E+02  0.32173629856E+02  0.40524136192E+03  0.87512465204E+02 0.  0.
          4    1    3    3  502    0  0.59135592740E+02 -0.19471217609E+03 -0.99202026033E+02  0.22638659813E+03  0.00000000000E+00 0. -1.
         -3    1    3    3    0  502  0.84162439884E+02 -0.14762949799E+03 -0.18505924165E+02  0.17093932898E+03  0.00000000000E+00 0.  1.
         11    1    5    5    0    0  0.42000286653E+02  0.67498736353E+02 -0.67261190106E+01  0.79783107016E+02  0.00000000000E+00 0. -1.
        -11    1    5    5    0    0  0.19818589346E+03  0.36685840362E+03 -0.25801308209E+03  0.49034017498E+03  0.00000000000E+00 0.  1.
          2    1    6    6  503    0 -0.37459908946E+03 -0.84049341222E+02  0.14842574393E+02  0.38419926028E+03  0.00000000000E+00 0.  1.
         -2    1    6    6    0  503 -0.88851232824E+01 -0.79661246727E+01  0.17331055462E+02  0.21042101641E+02  0.00000000000E+00 0. -1.
<mgrwt>
<rscale>  0 0.13272482E+04</rscale>
<asrwt>0</asrwt>
<pdfrwt beam="1">  1        2 0.78647467E-01 0.13272482E+04</pdfrwt>
<pdfrwt beam="2">  1       -1 0.13253570E+00 0.13272482E+04</pdfrwt>
<totfact> 0.32421489E+01</totfact>
</mgrwt>
</event>
<event>
12    6  0.1529770E-007  0.2631419E+04  0.7818608E-02  0.8357607E-01
          2   -1    0    0  501    0  0.00000000000E+00  0.00000000000E+00  0.15110615439E+04  0.15110615439E+04  0.00000000000E+00 0. -1.
         -1   -1    0    0    0  501 -0.00000000000E+00 -0.00000000000E+00 -0.11456124155E+04  0.11456124155E+04  0.00000000000E+00 0.  1.
         24    2    1    2    0    0 -0.84543954374E+03 -0.79744715296E+03  0.15699110696E+03  0.11756489253E+04  0.82548191691E+02 0.  0.
        254    2    1    2    0    0  0.84543954374E+03  0.79744715296E+03  0.20845802140E+03  0.14810250341E+04  0.89403043625E+03 0.  0.
         23    2    4    4    0    0  0.43268455449E+03  0.88200549033E+03  0.31708602781E+03  0.10363686748E+04  0.91470609821E+02 0.  0.
         23    2    4    4    0    0  0.41275498925E+03 -0.84558337370E+02 -0.10862800641E+03  0.44465635924E+03  0.91664826754E+02 0.  0.
          4    1    3    3  502    0 -0.15277354856E+03 -0.12663283838E+03  0.55646791210E+02  0.20608784114E+03  0.00000000000E+00 0. -1.
         -3    1    3    3    0  502 -0.69266599519E+03 -0.67081431458E+03  0.10134431575E+03  0.96956108414E+03  0.00000000000E+00 0.  1.
         11    1    5    5    0    0  0.40075703535E+03  0.78933378332E+03  0.31054861325E+03  0.93813350013E+03  0.00000000000E+00 0. -1.
        -11    1    5    5    0    0  0.31927519145E+02  0.92671707009E+02  0.65374145583E+01  0.98235174697E+02  0.00000000000E+00 0.  1.
          1    1    6    6  503    0  0.11493884760E+03 -0.16921234426E+02  0.10923645451E+02  0.11669015765E+03  0.00000000000E+00 0.  1.
         -1    1    6    6    0  503  0.29781614165E+03 -0.67637102943E+02 -0.11955165186E+03  0.32796620159E+03  0.00000000000E+00 0. -1.
<mgrwt>
<rscale>  0 0.26314185E+04</rscale>
<asrwt>0</asrwt>
<pdfrwt beam="1">  1        2 0.23247101E+00 0.26314185E+04</pdfrwt>
<pdfrwt beam="2">  1       -1 0.17624806E+00 0.26314185E+04</pdfrwt>
<totfact> 0.27850540E+00</totfact>
</mgrwt>
</event>
<event>
12    6  0.1529770E-007  0.1519380E+04  0.7818608E-02  0.8871667E-01
          2   -1    0    0  501    0  0.00000000000E+00  0.00000000000E+00  0.30265276703E+04  0.30265276703E+04  0.00000000000E+00 0. -1.
         -1   -1    0    0    0  501 -0.00000000000E+00 -0.00000000000E+00 -0.19069019349E+03  0.19069019349E+03  0.00000000000E+00 0.  1.
         24    2    1    2    0    0  0.30947678233E+03  0.14442344828E+03  0.16643954691E+04  0.17002331122E+04  0.62819957027E+02 0.  0.
        254    2    1    2    0    0 -0.30947678233E+03 -0.14442344828E+03  0.11714420077E+04  0.15169847516E+04  0.90129481748E+03 0.  0.
         23    2    4    4    0    0 -0.12177979220E+03 -0.22804808489E+03  0.12497804314E+04  0.12795581212E+04  0.92095668425E+02 0.  0.
         23    2    4    4    0    0 -0.18769699013E+03  0.83624636613E+02 -0.78338423627E+02  0.23742663042E+03  0.89505621411E+02 0.  0.
          4    1    3    3  502    0  0.26856462872E+03  0.12776591523E+03  0.15338374702E+04  0.15624047087E+04  0.00000000000E+00 0. -1.
         -1    1    3    3    0  502  0.40912153614E+02  0.16657533045E+02  0.13055799887E+03  0.13782840342E+03  0.00000000000E+00 0.  1.
         11    1    5    5    0    0 -0.10452871351E+02  0.14733992635E+01  0.13010821552E+02  0.16754548706E+02  0.00000000000E+00 0.  1.
        -11    1    5    5    0    0 -0.11132692085E+03 -0.22952148415E+03  0.12367696098E+04  0.12628035725E+04  0.00000000000E+00 0. -1.
          1    1    6    6  503    0 -0.14783327686E+03  0.10017152178E+03 -0.48791842985E+02  0.18512065111E+03  0.00000000000E+00 0. -1.
         -1    1    6    6    0  503 -0.39863713266E+02 -0.16546885171E+02 -0.29546580642E+02  0.52305979313E+02  0.00000000000E+00 0.  1.
<mgrwt>
<rscale>  0 0.15193803E+04</rscale>
<asrwt>0</asrwt>
<pdfrwt beam="1">  1        2 0.46561961E+00 0.15193803E+04</pdfrwt>
<pdfrwt beam="2">  1       -1 0.29336955E-01 0.15193803E+04</pdfrwt>
<totfact> 0.19678585E+01</totfact>
</mgrwt>
</event>
<event>
12    6  0.1529770E-007  0.1411540E+04  0.7818608E-02  0.8945508E-01
          2   -1    0    0  501    0  0.00000000000E+00  0.00000000000E+00  0.62861109233E+03  0.62861109233E+03  0.00000000000E+00 0. -1.
         -1   -1    0    0    0  501 -0.00000000000E+00 -0.00000000000E+00 -0.79239946188E+03  0.79239946188E+03  0.00000000000E+00 0.  1.
         24    2    1    2    0    0  0.30357074651E+03  0.25518917544E+03 -0.16316902432E+03  0.43637865719E+03  0.80780496126E+02 0.  0.
        254    2    1    2    0    0 -0.30357074651E+03 -0.25518917544E+03 -0.61934523500E+00  0.98463189703E+03  0.90123408482E+03 0.  0.
         23    2    4    4    0    0  0.25672969117E+03 -0.22220784278E+03  0.17100194914E+03  0.39089689258E+03  0.90951933968E+02 0.  0.
         23    2    4    4    0    0 -0.56030043769E+03 -0.32981332659E+02 -0.17162129437E+03  0.59373500445E+03  0.89682986370E+02 0.  0.
          2    1    3    3  502    0  0.30082769709E+03  0.26053816101E+03 -0.16375106700E+03  0.43033922506E+03  0.00000000000E+00 0. -1.
         -1    1    3    3    0  502  0.27430494202E+01 -0.53489855718E+01  0.58204268342E+00  0.60394321301E+01  0.00000000000E+00 0.  1.
         11    1    5    5    0    0  0.90453296524E+02 -0.49092798085E+02  0.92428855966E+02  0.13832929947E+03  0.00000000000E+00 0. -1.
        -11    1    5    5    0    0  0.16627639465E+03 -0.17311504470E+03  0.78573093173E+02  0.25256759311E+03  0.00000000000E+00 0.  1.
          1    1    6    6  503    0 -0.49547829784E+03 -0.58092766173E+02 -0.15111895201E+03  0.52125852585E+03  0.00000000000E+00 0. -1.
         -1    1    6    6    0  503 -0.64822139848E+02  0.25111433514E+02 -0.20502342366E+02  0.72476478599E+02  0.00000000000E+00 0.  1.
<mgrwt>
<rscale>  0 0.14115397E+04</rscale>
<asrwt>0</asrwt>
<pdfrwt beam="1">  1        2 0.96709399E-01 0.14115397E+04</pdfrwt>
<pdfrwt beam="2">  1       -1 0.12190761E+00 0.14115397E+04</pdfrwt>
<totfact> 0.31016155E+01</totfact>
</mgrwt>
</event>
<event>
12    6  0.1529770E-007  0.1948105E+04  0.7818608E-02  0.8631275E-01
         -1   -1    0    0    0  501 -0.00000000000E+00  0.00000000000E+00  0.36637430609E+03  0.36637430609E+03  0.00000000000E+00 0.  1.
          2   -1    0    0  501    0  0.00000000000E+00 -0.00000000000E+00 -0.25896418575E+04  0.25896418575E+04  0.00000000000E+00 0. -1.
         24    2    1    2    0    0 -0.25600440176E+03  0.20089529488E+03 -0.19083772528E+04  0.19376225420E+04  0.81118450162E+02 0.  0.
        254    2    1    2    0    0  0.25600440176E+03 -0.20089529488E+03 -0.31489029858E+03  0.10183936216E+04  0.91218007823E+03 0.  0.
         23    2    4    4    0    0 -0.78118092627E+02 -0.73694845468E+02  0.28042209070E+03  0.31634071356E+03  0.99506439272E+02 0.  0.
         23    2    4    4    0    0  0.33412249439E+03 -0.12720044941E+03 -0.59531238928E+03  0.70205290802E+03  0.10326494681E+03 0.  0.
          4    1    3    3  502    0 -0.12524079816E+03  0.67973466246E+02 -0.10185106610E+04  0.10284306570E+04  0.00000000000E+00 0. -1.
         -3    1    3    3    0  502 -0.13076360360E+03  0.13292182863E+03 -0.88986659176E+03  0.90919188496E+03  0.00000000000E+00 0.  1.
         11    1    5    5    0    0 -0.11123314436E+02 -0.35749376201E+02  0.15612113686E+02  0.40564567255E+02  0.00000000000E+00 0.  1.
        -11    1    5    5    0    0 -0.66994778191E+02 -0.37945469267E+02  0.26480997702E+03  0.27577614630E+03  0.00000000000E+00 0. -1.
          4    1    6    6  503    0  0.26536600568E+03 -0.11496059350E+03 -0.54150369827E+03  0.61389030801E+03  0.00000000000E+00 0. -1.
         -4    1    6    6    0  503  0.68756488709E+02 -0.12239855911E+02 -0.53808691018E+02  0.88162600015E+02  0.00000000000E+00 0.  1.
<mgrwt>
<rscale>  0 0.19481050E+04</rscale>
<asrwt>0</asrwt>
<pdfrwt beam="1">  1        2 0.39840646E+00 0.19481050E+04</pdfrwt>
<pdfrwt beam="2">  1       -1 0.56365275E-01 0.19481050E+04</pdfrwt>
<totfact> 0.10450085E+01</totfact>
</mgrwt>
</event>
<event>
12    6  0.1529770E-007  0.3361922E+04  0.7818608E-02  0.8147316E-01
          2   -1    0    0  501    0  0.00000000000E+00  0.00000000000E+00  0.21908040702E+04  0.21908040702E+04  0.00000000000E+00 0. -1.
         -1   -1    0    0    0  501 -0.00000000000E+00 -0.00000000000E+00 -0.12897685385E+04  0.12897685385E+04  0.00000000000E+00 0.  1.
         24    2    1    2    0    0 -0.12401365447E+04 -0.93428313376E+03  0.28657296764E+03  0.15809775146E+04  0.80883944703E+02 0.  0.
        254    2    1    2    0    0  0.12401365447E+04  0.93428313376E+03  0.61446256410E+03  0.18995950941E+04  0.90557918232E+03 0.  0.
         23    2    4    4    0    0  0.70527408394E+03 -0.25472584442E+00  0.17096696518E+03  0.73144659151E+03  0.91503085714E+02 0.  0.
         23    2    4    4    0    0  0.53486246072E+03  0.93453785960E+03  0.44349559892E+03  0.11681485026E+04  0.91889688915E+02 0.  0.
          4    1    3    3  502    0 -0.93998577040E+03 -0.71321056794E+03  0.25248002796E+03  0.12066435792E+04  0.00000000000E+00 0. -1.
         -3    1    3    3    0  502 -0.30015077425E+03 -0.22107256581E+03  0.34092939685E+02  0.37433393538E+03  0.00000000000E+00 0.  1.
         11    1    5    5    0    0  0.45826204946E+03  0.43359838566E+02  0.11452459228E+03  0.47434171629E+03  0.00000000000E+00 0.  1.
        -11    1    5    5    0    0  0.24701203448E+03 -0.43614564411E+02  0.56442372903E+02  0.25710487523E+03  0.00000000000E+00 0. -1.
          4    1    6    6  503    0  0.39566075308E+03  0.70277335116E+03  0.37404796468E+03  0.88901613849E+03  0.00000000000E+00 0.  1.
         -4    1    6    6    0  503  0.13920170764E+03  0.23176450844E+03  0.69447634242E+02  0.27913236410E+03  0.00000000000E+00 0. -1.
<mgrwt>
<rscale>  0 0.33619222E+04</rscale>
<asrwt>0</asrwt>
<pdfrwt beam="1">  1        2 0.33704678E+00 0.33619222E+04</pdfrwt>
<pdfrwt beam="2">  1       -1 0.19842593E+00 0.33619222E+04</pdfrwt>
<totfact> 0.76199361E-01</totfact>
</mgrwt>
</event>
<event>
12    6  0.1529770E-007  0.1120088E+04  0.7818608E-02  0.9185831E-01
         -1   -1    0    0    0  501 -0.00000000000E+00  0.00000000000E+00  0.12210029140E+03  0.12210029140E+03  0.00000000000E+00 0.  1.
          2   -1    0    0  501    0  0.00000000000E+00 -0.00000000000E+00 -0.25687847211E+04  0.25687847211E+04  0.00000000000E+00 0. -1.
         24    2    1    2    0    0 -0.14547069727E+03 -0.93805922089E+01 -0.61937248286E+03  0.64167245135E+03  0.82894770765E+02 0.  0.
        254    2    1    2    0    0  0.14547069727E+03  0.93805922089E+01 -0.18273119468E+04  0.20492125611E+04  0.91594402144E+03 0.  0.
         23    2    4    4    0    0 -0.15328629381E+03 -0.11560752835E+03 -0.22426033818E+02  0.21336023466E+03  0.90320951397E+02 0.  0.
         23    2    4    4    0    0  0.29875699108E+03  0.12498812056E+03 -0.18048859130E+04  0.18358523265E+04  0.88672631771E+02 0.  0.
          2    1    3    3  502    0 -0.87968563017E+02  0.95292576586E+01 -0.50065181173E+03  0.50841077036E+03  0.00000000000E+00 0. -1.
         -1    1    3    3    0  502 -0.57502134256E+02 -0.18909849868E+02 -0.11872067113E+03  0.13326168099E+03  0.00000000000E+00 0.  1.
         11    1    5    5    0    0 -0.11752764018E+03 -0.11217377388E+03  0.12898491049E+02  0.16297874961E+03  0.00000000000E+00 0.  1.
        -11    1    5    5    0    0 -0.35758653625E+02 -0.34337544727E+01 -0.35324524868E+02  0.50381485051E+02  0.00000000000E+00 0. -1.
          3    1    6    6  503    0  0.10282227205E+03  0.16829978038E+02 -0.40491108039E+03  0.41810124469E+03  0.00000000000E+00 0. -1.
         -3    1    6    6    0  503  0.19593471903E+03  0.10815814252E+03 -0.13999748326E+04  0.14177510818E+04  0.00000000000E+00 0.  1.
<mgrwt>
<rscale>  0 0.11200881E+04</rscale>
<asrwt>0</asrwt>
<pdfrwt beam="1">  1        2 0.39519763E+00 0.11200881E+04</pdfrwt>
<pdfrwt beam="2">  1       -1 0.18784661E-01 0.11200881E+04</pdfrwt>
<totfact> 0.82209094E+01</totfact>
</mgrwt>
</event>
<event>
12    6  0.1529770E-007  0.1778966E+04  0.7818608E-02  0.8717566E-01
          2   -1    0    0  501    0  0.00000000000E+00  0.00000000000E+00  0.25451130520E+04  0.25451130520E+04  0.00000000000E+00 0. -1.
         -1   -1    0    0    0  501 -0.00000000000E+00 -0.00000000000E+00 -0.31086250472E+03  0.31086250472E+03  0.00000000000E+00 0.  1.
         24    2    1    2    0    0 -0.33689223040E+03 -0.11673733660E+03 -0.56580592653E+02  0.36946084633E+03  0.78587358024E+02 0.  0.
        254    2    1    2    0    0  0.33689223040E+03  0.11673733660E+03  0.22908311399E+04  0.24865147104E+04  0.89873472875E+03 0.  0.
         23    2    4    4    0    0  0.62563139863E+03  0.85828707576E+02  0.17883814714E+04  0.18988289434E+04  0.91988342120E+02 0.  0.
         23    2    4    4    0    0 -0.28873916822E+03  0.30908629021E+02  0.50244966845E+03  0.58768576691E+03  0.92699734024E+02 0.  0.
          2    1    3    3  502    0 -0.72181528475E+01  0.18435969313E+01  0.10370746111E+02  0.12769219047E+02  0.00000000000E+00 0. -1.
         -1    1    3    3    0  502 -0.32967407756E+03 -0.11858093353E+03 -0.66951338764E+02  0.35669162728E+03  0.00000000000E+00 0.  1.
         11    1    5    5    0    0  0.31999366730E+03  0.81647837603E+02  0.84902349644E+03  0.91099023815E+03  0.00000000000E+00 0. -1.
        -11    1    5    5    0    0  0.30563773133E+03  0.41808699728E+01  0.93935797500E+03  0.98783870530E+03  0.00000000000E+00 0.  1.
          3    1    6    6  503    0 -0.22497585883E+03  0.79288241367E+01  0.44554759153E+03  0.49918900191E+03  0.00000000000E+00 0. -1.
         -3    1    6    6    0  503 -0.63763309396E+02  0.22979804885E+02  0.56902076913E+02  0.88496764996E+02  0.00000000000E+00 0.  1.
<mgrwt>
<rscale>  0 0.17789662E+04</rscale>
<asrwt>0</asrwt>
<pdfrwt beam="1">  1        2 0.39155584E+00 0.17789662E+04</pdfrwt>
<pdfrwt beam="2">  1       -1 0.47825002E-01 0.17789662E+04</pdfrwt>
<totfact> 0.15433105E+01</totfact>
</mgrwt>
</event>
<event>
12    6  0.1529770E-007  0.1535140E+04  0.7818608E-02  0.8861416E-01
         -1   -1    0    0    0  501 -0.00000000000E+00  0.00000000000E+00  0.89514045462E+03  0.89514045462E+03  0.00000000000E+00 0.  1.
          2   -1    0    0  501    0  0.00000000000E+00 -0.00000000000E+00 -0.65818014674E+03  0.65818014674E+03  0.00000000000E+00 0. -1.
         24    2    1    2    0    0  0.40644445976E+03  0.11640768129E+03  0.35986755177E+03  0.56106184006E+03  0.80857197647E+02 0.  0.
        254    2    1    2    0    0 -0.40644445976E+03 -0.11640768129E+03 -0.12290724390E+03  0.99225876131E+03  0.88922629946E+03 0.  0.
         23    2    4    4    0    0 -0.42410460915E+02  0.23824424214E+03  0.24677803656E+03  0.35794963979E+03  0.93110575084E+02 0.  0.
         23    2    4    4    0    0 -0.36403399885E+03 -0.35465192343E+03 -0.36968528045E+03  0.63430912152E+03  0.85919240831E+02 0.  0.
          2    1    3    3  502    0  0.12084093792E+03  0.73833946255E+02  0.11344974065E+03  0.18145199792E+03  0.00000000000E+00 0. -1.
         -1    1    3    3    0  502  0.28560352185E+03  0.42573735037E+02  0.24641781113E+03  0.37960984214E+03  0.00000000000E+00 0.  1.
         11    1    5    5    0    0 -0.39763218968E+02  0.43198007879E+02  0.28670087709E+02  0.65338774068E+02  0.00000000000E+00 0.  1.
        -11    1    5    5    0    0 -0.26472419473E+01  0.19504623426E+03  0.21810794885E+03  0.29261086572E+03  0.00000000000E+00 0. -1.
          4    1    6    6  503    0 -0.36851985292E+03 -0.34819634776E+03 -0.35987397429E+03  0.62173696686E+03  0.00000000000E+00 0. -1.
         -4    1    6    6    0  503  0.44858540753E+01 -0.64555756713E+01 -0.98113061619E+01  0.12572154654E+02  0.00000000000E+00 0.  1.
<mgrwt>
<rscale>  0 0.15351400E+04</rscale>
<asrwt>0</asrwt>
<pdfrwt beam="1">  1        2 0.10125848E+00 0.15351400E+04</pdfrwt>
<pdfrwt beam="2">  1       -1 0.13771392E+00 0.15351400E+04</pdfrwt>
<totfact> 0.21327149E+01</totfact>
</mgrwt>
</event>
<event>
12    6  0.1529770E-007  0.1189332E+04  0.7818608E-02  0.9122246E-01
         -1   -1    0    0    0  501 -0.00000000000E+00  0.00000000000E+00  0.49130127354E+03  0.49130127354E+03  0.00000000000E+00 0.  1.
          2   -1    0    0  501    0  0.00000000000E+00 -0.00000000000E+00 -0.71977738147E+03  0.71977738147E+03  0.00000000000E+00 0. -1.
         24    2    1    2    0    0  0.85149870551E+02  0.20340486103E+03  0.40090924962E+02  0.23723011743E+03  0.77761226892E+02 0.  0.
        254    2    1    2    0    0 -0.85149870551E+02 -0.20340486103E+03 -0.26856703288E+03  0.97384853757E+03  0.90974099888E+03 0.  0.
         23    2    4    4    0    0 -0.25571202051E+03  0.29490917387E+03 -0.13554638997E+03  0.42297161569E+03  0.90399698976E+02 0.  0.
         23    2    4    4    0    0  0.17056214996E+03 -0.49831403490E+03 -0.13302064291E+03  0.55087692189E+03  0.91447073520E+02 0.  0.
          4    1    3    3  502    0 -0.46412188668E+01  0.26063751581E+02 -0.15691017003E+02  0.30774471134E+02  0.00000000000E+00 0. -1.
         -3    1    3    3    0  502  0.89791089418E+02  0.17734110945E+03  0.55781941964E+02  0.20645564630E+03  0.00000000000E+00 0.  1.
         11    1    5    5    0    0 -0.13957447494E+03  0.98444574970E+02 -0.39174023627E+02  0.17523405070E+03  0.00000000000E+00 0. -1.
        -11    1    5    5    0    0 -0.11613754557E+03  0.19646459890E+03 -0.96372366346E+02  0.24773756499E+03  0.00000000000E+00 0.  1.
          1    1    6    6  503    0 -0.66547486478E+01 -0.31307764440E+02 -0.22971094444E+02  0.39397118850E+02  0.00000000000E+00 0. -1.
         -1    1    6    6    0  503  0.17721689861E+03 -0.46700627046E+03 -0.11004954847E+03  0.51147980304E+03  0.00000000000E+00 0.  1.
<mgrwt>
<rscale>  0 0.11893318E+04</rscale>
<asrwt>0</asrwt>
<pdfrwt beam="1">  1        2 0.11073498E+00 0.11893318E+04</pdfrwt>
<pdfrwt beam="2">  1       -1 0.75584812E-01 0.11893318E+04</pdfrwt>
<totfact> 0.78474044E+01</totfact>
</mgrwt>
</event>
<event>
12    6  0.1529770E-007  0.1928788E+04  0.7818608E-02  0.8640658E-01
          2   -1    0    0  501    0  0.00000000000E+00  0.00000000000E+00  0.21356948525E+04  0.21356948525E+04  0.00000000000E+00 0. -1.
         -1   -1    0    0    0  501 -0.00000000000E+00 -0.00000000000E+00 -0.43548154960E+03  0.43548154960E+03  0.00000000000E+00 0.  1.
         24    2    1    2    0    0  0.64578945708E+02 -0.49643001501E+03  0.14123523317E+04  0.15006393682E+04  0.81032120202E+02 0.  0.
        254    2    1    2    0    0 -0.64578945708E+02  0.49643001501E+03  0.28786097114E+03  0.10705370338E+04  0.90142797943E+03 0.  0.
         23    2    4    4    0    0  0.32200975866E+03  0.48487893046E+03  0.31923055520E+03  0.66997101379E+03  0.90305869497E+02 0.  0.
         23    2    4    4    0    0 -0.38658870437E+03  0.11551084547E+02 -0.31369584058E+02  0.40056602006E+03  0.99422491020E+02 0.  0.
          2    1    3    3  502    0 -0.23788995066E+01 -0.20268507621E+03  0.65166010922E+03  0.68245717611E+03  0.00000000000E+00 0. -1.
         -1    1    3    3    0  502  0.66957845215E+02 -0.29374493880E+03  0.76069222249E+03  0.81818219209E+03  0.00000000000E+00 0.  1.
         11    1    5    5    0    0  0.22206094163E+03  0.25664244820E+03  0.17055869529E+03  0.37982453390E+03  0.00000000000E+00 0. -1.
        -11    1    5    5    0    0  0.99948817032E+02  0.22823648226E+03  0.14867185991E+03  0.29014647989E+03  0.00000000000E+00 0.  1.
          3    1    6    6  503    0 -0.21336961634E+03  0.51893068440E+02  0.20484920313E+01  0.21959890721E+03  0.00000000000E+00 0. -1.
         -3    1    6    6    0  503 -0.17321908803E+03 -0.40341983893E+02 -0.33418076089E+02  0.18096711285E+03  0.00000000000E+00 0.  1.
<mgrwt>
<rscale>  0 0.19287879E+04</rscale>
<asrwt>0</asrwt>
<pdfrwt beam="1">  1        2 0.32856843E+00 0.19287879E+04</pdfrwt>
<pdfrwt beam="2">  1       -1 0.66997163E-01 0.19287879E+04</pdfrwt>
<totfact> 0.13474660E+01</totfact>
</mgrwt>
</event>
<event>
12    6  0.1529770E-007  0.2430038E+04  0.7818608E-02  0.8428343E-01
          2   -1    0    0  501    0  0.00000000000E+00  0.00000000000E+00  0.22452102590E+04  0.22452102590E+04  0.00000000000E+00 0. -1.
         -1   -1    0    0    0  501 -0.00000000000E+00 -0.00000000000E+00 -0.65752000620E+03  0.65752000620E+03  0.00000000000E+00 0.  1.
         24    2    1    2    0    0  0.33023585449E+03 -0.67479482070E+03 -0.17937818902E+03  0.77642548245E+03  0.79096304964E+02 0.  0.
        254    2    1    2    0    0 -0.33023585449E+03  0.67479482070E+03  0.17670684418E+04  0.21263047827E+04  0.91336596248E+03 0.  0.
         23    2    4    4    0    0 -0.52488420848E+03  0.50098696723E+03  0.65938275390E+03  0.98476046362E+03  0.92066176861E+02 0.  0.
         23    2    4    4    0    0  0.19464835399E+03  0.17380785347E+03  0.11076856879E+04  0.11415443191E+04  0.89770249378E+02 0.  0.
          2    1    3    3  502    0  0.30105010102E+02 -0.78316066251E+02 -0.45352989239E+02  0.95376157918E+02  0.00000000000E+00 0. -1.
         -1    1    3    3    0  502  0.30013084439E+03 -0.59647875445E+03 -0.13402519979E+03  0.68104932453E+03  0.00000000000E+00 0.  1.
         11    1    5    5    0    0 -0.87872430097E+02  0.51845578166E+02  0.64505661866E+02  0.12070836077E+03  0.00000000000E+00 0.  1.
        -11    1    5    5    0    0 -0.43701177839E+03  0.44914138906E+03  0.59487709204E+03  0.86405210285E+03  0.00000000000E+00 0. -1.
          1    1    6    6  503    0  0.19061310883E+03  0.14960608450E+03  0.88711477381E+03  0.91961294015E+03  0.00000000000E+00 0. -1.
         -1    1    6    6    0  503  0.40352451575E+01  0.24201768977E+02  0.22057091408E+03  0.22193137896E+03  0.00000000000E+00 0.  1.
<mgrwt>
<rscale>  0 0.24300376E+04</rscale>
<asrwt>0</asrwt>
<pdfrwt beam="1">  1        2 0.34541696E+00 0.24300376E+04</pdfrwt>
<pdfrwt beam="2">  1       -1 0.10115693E+00 0.24300376E+04</pdfrwt>
<totfact> 0.46120137E+00</totfact>
</mgrwt>
</event>
<event>
12    6  0.1529770E-007  0.2952654E+04  0.7818608E-02  0.8257381E-01
         -1   -1    0    0    0  501 -0.00000000000E+00  0.00000000000E+00  0.16809824029E+04  0.16809824029E+04  0.00000000000E+00 0.  1.
          2   -1    0    0  501    0  0.00000000000E+00 -0.00000000000E+00 -0.12965879542E+04  0.12965879542E+04  0.00000000000E+00 0. -1.
         24    2    1    2    0    0 -0.17300031817E+03  0.45748279396E+03 -0.10952273204E+04  0.12022479453E+04  0.81594250949E+02 0.  0.
        254    2    1    2    0    0  0.17300031817E+03 -0.45748279396E+03  0.14796217691E+04  0.17753224117E+04  0.85045250837E+03 0.  0.
         23    2    4    4    0    0  0.34487161743E+03 -0.48739087599E+03  0.52078954166E+03  0.79647341197E+03  0.81620161546E+02 0.  0.
         23    2    4    4    0    0 -0.17187129926E+03  0.29908082029E+02  0.95883222746E+03  0.97884899973E+03  0.91388658976E+02 0.  0.
          2    1    3    3  502    0 -0.13624896888E+03  0.39579471289E+03 -0.86275761262E+03  0.95894104846E+03  0.00000000000E+00 0. -1.
         -1    1    3    3    0  502 -0.36751349289E+02  0.61688081067E+02 -0.23246970782E+03  0.24330689689E+03  0.00000000000E+00 0.  1.
         11    1    5    5    0    0  0.32648425280E+03 -0.45903612299E+03  0.51278311006E+03  0.76174316373E+03  0.00000000000E+00 0.  1.
        -11    1    5    5    0    0  0.18387364622E+02 -0.28354752998E+02  0.80064316004E+01  0.34730248233E+02  0.00000000000E+00 0. -1.
          2    1    6    6  503    0 -0.13245096399E+02 -0.24569292493E+02  0.18103204804E+03  0.18317119077E+03  0.00000000000E+00 0. -1.
         -2    1    6    6    0  503 -0.15862620286E+03  0.54477374522E+02  0.77780017942E+03  0.79567780896E+03  0.00000000000E+00 0.  1.
<mgrwt>
<rscale>  0 0.29526541E+04</rscale>
<asrwt>0</asrwt>
<pdfrwt beam="1">  1        2 0.19947507E+00 0.29526541E+04</pdfrwt>
<pdfrwt beam="2">  1       -1 0.25861268E+00 0.29526541E+04</pdfrwt>
<totfact> 0.99587215E-01</totfact>
</mgrwt>
</event>
<event>
12    6  0.1529770E-007  0.1893132E+04  0.7818608E-02  0.8658282E-01
         -1   -1    0    0    0  501 -0.00000000000E+00  0.00000000000E+00  0.28851785849E+03  0.28851785849E+03  0.00000000000E+00 0.  1.
          2   -1    0    0  501    0  0.00000000000E+00 -0.00000000000E+00 -0.31054840368E+04  0.31054840368E+04  0.00000000000E+00 0. -1.
         24    2    1    2    0    0  0.17139024355E+03  0.53321120852E+02 -0.23652642500E+04  0.23734831994E+04  0.82035163537E+02 0.  0.
        254    2    1    2    0    0 -0.17139024355E+03 -0.53321120852E+02 -0.45170192834E+03  0.10205186959E+04  0.89733272486E+03 0.  0.
         23    2    4    4    0    0  0.22828736528E+03 -0.12648875037E+03 -0.52875108604E+03  0.59682341815E+03  0.92227741757E+02 0.  0.
         23    2    4    4    0    0 -0.39967760883E+03  0.73167629519E+02  0.77049157699E+02  0.42369527775E+03  0.92116353991E+02 0.  0.
          2    1    3    3  502    0  0.17789610967E+03  0.41117298181E+02 -0.21292752522E+04  0.21370893191E+04  0.00000000000E+00 0. -1.
         -1    1    3    3    0  502 -0.65058661229E+01  0.12203822671E+02 -0.23598899774E+03  0.23639388028E+03  0.00000000000E+00 0.  1.
         11    1    5    5    0    0  0.11540871509E+03 -0.10326999211E+03 -0.36586848100E+03  0.39729536642E+03  0.00000000000E+00 0.  1.
        -11    1    5    5    0    0  0.11287865019E+03 -0.23218758262E+02 -0.16288260504E+03  0.19952805173E+03  0.00000000000E+00 0. -1.
          2    1    6    6  503    0 -0.14820600541E+03  0.50750191886E+02  0.68786824725E+02  0.17109128930E+03  0.00000000000E+00 0. -1.
         -2    1    6    6    0  503 -0.25147160342E+03  0.22417437633E+02  0.82623329742E+01  0.25260398845E+03  0.00000000000E+00 0.  1.
<mgrwt>
<rscale>  0 0.18931324E+04</rscale>
<asrwt>0</asrwt>
<pdfrwt beam="1">  1        2 0.47776676E+00 0.18931324E+04</pdfrwt>
<pdfrwt beam="2">  1       -1 0.44387364E-01 0.18931324E+04</pdfrwt>
<totfact> 0.80309954E+00</totfact>
</mgrwt>
</event>
<event>
12    6  0.1529770E-007  0.2251672E+04  0.7818608E-02  0.8497224E-01
         -1   -1    0    0    0  501 -0.00000000000E+00  0.00000000000E+00  0.89922501582E+03  0.89922501582E+03  0.00000000000E+00 0.  1.
          2   -1    0    0  501    0  0.00000000000E+00 -0.00000000000E+00 -0.14095542010E+04  0.14095542010E+04  0.00000000000E+00 0. -1.
         24    2    1    2    0    0 -0.23435924914E+03 -0.79134908273E+03 -0.68757165972E+03  0.10775201779E+04  0.84482650331E+02 0.  0.
        254    2    1    2    0    0  0.23435924914E+03  0.79134908273E+03  0.17724247458E+03  0.12312590389E+04  0.89634050313E+03 0.  0.
         23    2    4    4    0    0 -0.87803471063E+02  0.85508898171E+03  0.42482930700E+02  0.86538223440E+03  0.90526217381E+02 0.  0.
         23    2    4    4    0    0  0.32216272021E+03 -0.63739898979E+02  0.13475954388E+03  0.36587680445E+03  0.88623407501E+02 0.  0.
          2    1    3    3  502    0 -0.22391897181E+03 -0.76748764191E+03 -0.68206381871E+03  0.10508986817E+04  0.00000000000E+00 0. -1.
         -1    1    3    3    0  502 -0.10440277333E+02 -0.23861440824E+02 -0.55078410149E+01  0.26621496232E+02  0.00000000000E+00 0.  1.
         11    1    5    5    0    0 -0.37493224668E+01  0.27436561649E+02  0.18163931552E+02  0.33117227292E+02  0.00000000000E+00 0. -1.
        -11    1    5    5    0    0 -0.84054148597E+02  0.82765242006E+03  0.24318999148E+02  0.83226500711E+03  0.00000000000E+00 0.  1.
          4    1    6    6  503    0  0.15604478124E+03 -0.40968952771E+01  0.10170423397E+03  0.18630756697E+03  0.00000000000E+00 0. -1.
         -4    1    6    6    0  503  0.16611793896E+03 -0.59643003702E+02  0.33055309913E+02  0.17956923748E+03  0.00000000000E+00 0.  1.
<mgrwt>
<rscale>  0 0.22516717E+04</rscale>
<asrwt>0</asrwt>
<pdfrwt beam="1">  1        2 0.21685449E+00 0.22516717E+04</pdfrwt>
<pdfrwt beam="2">  1       -1 0.13834231E+00 0.22516717E+04</pdfrwt>
<totfact> 0.64083571E+00</totfact>
</mgrwt>
</event>
<event>
12    6  0.1529770E-007  0.1559347E+04  0.7818608E-02  0.8845919E-01
         -1   -1    0    0    0  501 -0.00000000000E+00  0.00000000000E+00  0.27289177685E+03  0.27289177685E+03  0.00000000000E+00 0.  1.
          2   -1    0    0  501    0  0.00000000000E+00 -0.00000000000E+00 -0.22275892446E+04  0.22275892446E+04  0.00000000000E+00 0. -1.
         24    2    1    2    0    0  0.51963283749E+03 -0.45101169863E+02 -0.78330246760E+03  0.94429901342E+03  0.78009420454E+02 0.  0.
        254    2    1    2    0    0 -0.51963283749E+03  0.45101169863E+02 -0.11713950002E+04  0.15561820081E+04  0.88175041506E+03 0.  0.
         23    2    4    4    0    0 -0.63838931815E+03  0.26933626542E+03 -0.58609107979E+03  0.91196389781E+03  0.89958055218E+02 0.  0.
         23    2    4    4    0    0  0.11875648066E+03 -0.22423509556E+03 -0.58530392041E+03  0.64421811027E+03  0.89731903876E+02 0.  0.
          4    1    3    3  502    0  0.45427903604E+03 -0.17130580646E+02 -0.64955435423E+03  0.79283274306E+03  0.00000000000E+00 0. -1.
         -3    1    3    3    0  502  0.65353801446E+02 -0.27970589217E+02 -0.13374811337E+03  0.15146627036E+03  0.00000000000E+00 0.  1.
         11    1    5    5    0    0 -0.57546691340E+03  0.26870435714E+03 -0.54417733296E+03  0.83635708264E+03  0.00000000000E+00 0. -1.
        -11    1    5    5    0    0 -0.62922404747E+02  0.63190827794E+00 -0.41913746834E+02  0.75606815174E+02  0.00000000000E+00 0.  1.
          3    1    6    6  503    0  0.92508003102E+02 -0.19582890976E+03 -0.55274550934E+03  0.59366176450E+03  0.00000000000E+00 0. -1.
         -3    1    6    6    0  503  0.26248477561E+02 -0.28406185800E+02 -0.32558411065E+02  0.50556345764E+02  0.00000000000E+00 0.  1.
<mgrwt>
<rscale>  0 0.15593470E+04</rscale>
<asrwt>0</asrwt>
<pdfrwt beam="1">  1        2 0.34270605E+00 0.15593470E+04</pdfrwt>
<pdfrwt beam="2">  1       -1 0.41983349E-01 0.15593470E+04</pdfrwt>
<totfact> 0.30441930E+01</totfact>
</mgrwt>
</event>
<event>
12    6  0.1529770E-007  0.1176909E+04  0.7818608E-02  0.9133312E-01
          2   -1    0    0  501    0  0.00000000000E+00  0.00000000000E+00  0.22743864782E+04  0.22743864782E+04  0.00000000000E+00 0. -1.
         -1   -1    0    0    0  501 -0.00000000000E+00 -0.00000000000E+00 -0.15225142375E+03  0.15225142375E+03  0.00000000000E+00 0.  1.
         24    2    1    2    0    0 -0.53203042979E+02 -0.15295354596E+03  0.10161609872E+03  0.20756658652E+03  0.80825152749E+02 0.  0.
        254    2    1    2    0    0  0.53203042979E+02  0.15295354596E+03  0.20205189557E+04  0.22190713154E+04  0.90308100494E+03 0.  0.
         23    2    4    4    0    0  0.38780832395E+03 -0.17846899598E+03  0.89090638040E+03  0.99176980295E+03  0.87445324366E+02 0.  0.
         23    2    4    4    0    0 -0.33460528097E+03  0.33142254194E+03  0.11296125753E+04  0.12273015124E+04  0.91884910816E+02 0.  0.
          4    1    3    3  502    0  0.55692371811E+01 -0.43225677322E+02  0.64186039524E+02  0.77584297719E+02  0.00000000000E+00 0. -1.
         -3    1    3    3    0  502 -0.58772280160E+02 -0.10972786864E+03  0.37430059200E+02  0.12998228881E+03  0.00000000000E+00 0.  1.
         11    1    5    5    0    0  0.22857229794E+03 -0.65713444091E+02  0.54490013962E+03  0.59454160012E+03  0.00000000000E+00 0.  1.
        -11    1    5    5    0    0  0.15923602601E+03 -0.11275555189E+03  0.34600624078E+03  0.39722820282E+03  0.00000000000E+00 0. -1.
          4    1    6    6  503    0 -0.88831896711E+02  0.66381312727E+02  0.36655908073E+03  0.38296624423E+03  0.00000000000E+00 0. -1.
         -4    1    6    6    0  503 -0.24577338426E+03  0.26504122921E+03  0.76305349456E+03  0.84433526821E+03  0.00000000000E+00 0.  1.
<mgrwt>
<rscale>  0 0.11769088E+04</rscale>
<asrwt>0</asrwt>
<pdfrwt beam="1">  1        2 0.34990559E+00 0.11769088E+04</pdfrwt>
<pdfrwt beam="2">  1       -1 0.23423298E-01 0.11769088E+04</pdfrwt>
<totfact> 0.82966403E+01</totfact>
</mgrwt>
</event>
<event>
12    6  0.1529770E-007  0.1440067E+04  0.7818608E-02  0.8925316E-01
         -1   -1    0    0    0  501 -0.00000000000E+00  0.00000000000E+00  0.49306427515E+03  0.49306427515E+03  0.00000000000E+00 0.  1.
          2   -1    0    0  501    0  0.00000000000E+00 -0.00000000000E+00 -0.10514825706E+04  0.10514825706E+04  0.00000000000E+00 0. -1.
         24    2    1    2    0    0  0.17234580488E+03 -0.13608045474E+03 -0.56439550493E+03  0.61088350140E+03  0.80096190146E+02 0.  0.
        254    2    1    2    0    0 -0.17234580488E+03  0.13608045474E+03  0.59772095330E+01  0.93366334430E+03  0.90745277940E+03 0.  0.
         23    2    4    4    0    0 -0.39902501709E+03 -0.11978435729E+03  0.25809988973E+03  0.49877372967E+03  0.92684539255E+02 0.  0.
         23    2    4    4    0    0  0.22667921221E+03  0.25586481203E+03 -0.25212268020E+03  0.43488961463E+03  0.93342722060E+02 0.  0.
          2    1    3    3  502    0  0.69477907511E+02 -0.92143028353E+02 -0.35779334879E+03  0.37594360979E+03  0.00000000000E+00 0. -1.
         -1    1    3    3    0  502  0.10286789737E+03 -0.43937426386E+02 -0.20660215614E+03  0.23493989161E+03  0.00000000000E+00 0.  1.
         11    1    5    5    0    0 -0.27176759906E+03 -0.12564909283E+03  0.18058910029E+03  0.34965375097E+03  0.00000000000E+00 0. -1.
        -11    1    5    5    0    0 -0.12725741803E+03  0.58647355401E+01  0.77510789446E+02  0.14911997870E+03  0.00000000000E+00 0.  1.
          2    1    6    6  503    0  0.16426690658E+03  0.12844962439E+03 -0.18127921081E+03  0.27630612529E+03  0.00000000000E+00 0. -1.
         -2    1    6    6    0  503  0.62412305628E+02  0.12741518764E+03 -0.70843469394E+02  0.15858348934E+03  0.00000000000E+00 0.  1.
<mgrwt>
<rscale>  0 0.14400673E+04</rscale>
<asrwt>0</asrwt>
<pdfrwt beam="1">  1        2 0.16176655E+00 0.14400673E+04</pdfrwt>
<pdfrwt beam="2">  1       -1 0.75856042E-01 0.14400673E+04</pdfrwt>
<totfact> 0.45153039E+01</totfact>
</mgrwt>
</event>
<event>
12    6  0.1529770E-007  0.2023906E+04  0.7818608E-02  0.8595525E-01
          2   -1    0    0  501    0  0.00000000000E+00  0.00000000000E+00  0.90251647888E+03  0.90251647888E+03  0.00000000000E+00 0. -1.
         -1   -1    0    0    0  501 -0.00000000000E+00 -0.00000000000E+00 -0.11346591484E+04  0.11346591484E+04  0.00000000000E+00 0.  1.
         24    2    1    2    0    0  0.95812476456E+02 -0.21748751268E+03  0.69047792319E+03  0.73448660471E+03  0.78930103731E+02 0.  0.
        254    2    1    2    0    0 -0.95812476456E+02  0.21748751268E+03 -0.92262059269E+03  0.13026890225E+04  0.88841942943E+03 0.  0.
         23    2    4    4    0    0  0.21374679057E+03 -0.15345794196E+03 -0.71756920938E+03  0.76985133235E+03  0.92349733290E+02 0.  0.
         23    2    4    4    0    0 -0.30955926703E+03  0.37094545463E+03 -0.20505138331E+03  0.53283769020E+03  0.91882882982E+02 0.  0.
          4    1    3    3  502    0  0.72066755075E+02 -0.11882242718E+03  0.49629784950E+03  0.51538717660E+03  0.00000000000E+00 0. -1.
         -3    1    3    3    0  502  0.23745721381E+02 -0.98665085499E+02  0.19418007369E+03  0.21909942811E+03  0.00000000000E+00 0.  1.
         11    1    5    5    0    0  0.36631702367E+02 -0.77060489309E+02 -0.19645993870E+03  0.21418848742E+03  0.00000000000E+00 0. -1.
        -11    1    5    5    0    0  0.17711508820E+03 -0.76397452646E+02 -0.52110927068E+03  0.55566284492E+03  0.00000000000E+00 0.  1.
          3    1    6    6  503    0 -0.24879508320E+02  0.40934533163E+02  0.65596430389E+01  0.48349300474E+02  0.00000000000E+00 0. -1.
         -3    1    6    6    0  503 -0.28467975871E+03  0.33001092147E+03 -0.21161102635E+03  0.48448838973E+03  0.00000000000E+00 0.  1.
<mgrwt>
<rscale>  0 0.20239057E+04</rscale>
<asrwt>0</asrwt>
<pdfrwt beam="1">  1        2 0.13884869E+00 0.20239057E+04</pdfrwt>
<pdfrwt beam="2">  1       -1 0.17456295E+00 0.20239057E+04</pdfrwt>
<totfact> 0.70403475E+00</totfact>
</mgrwt>
</event>
<event>
12    6  0.1529770E-007  0.1428466E+04  0.7818608E-02  0.8933467E-01
          2   -1    0    0  501    0  0.00000000000E+00  0.00000000000E+00  0.11115486577E+04  0.11115486577E+04  0.00000000000E+00 0. -1.
         -1   -1    0    0    0  501 -0.00000000000E+00 -0.00000000000E+00 -0.45893515561E+03  0.45893515561E+03  0.00000000000E+00 0.  1.
         24    2    1    2    0    0 -0.16153643035E+03 -0.11313605084E+03 -0.21338603651E+03  0.30315642882E+03  0.86466383242E+02 0.  0.
        254    2    1    2    0    0  0.16153643035E+03  0.11313605084E+03  0.86599953858E+03  0.12673273845E+04  0.90402970873E+03 0.  0.
         23    2    4    4    0    0  0.38303938957E+03  0.37377643904E+03  0.67098413501E+03  0.86316821836E+03  0.91715120936E+02 0.  0.
         23    2    4    4    0    0 -0.22150295922E+03 -0.26064038820E+03  0.19501540357E+03  0.40415916611E+03  0.91195674317E+02 0.  0.
          2    1    3    3  502    0 -0.51005115095E+02  0.76286116968E+01 -0.54045131427E+02  0.74703371499E+02  0.00000000000E+00 0. -1.
         -1    1    3    3    0  502 -0.11053131525E+03 -0.12076466253E+03 -0.15934090508E+03  0.22845305732E+03  0.00000000000E+00 0.  1.
         11    1    5    5    0    0  0.31444010756E+03  0.34943478770E+03  0.58707456575E+03  0.75208629680E+03  0.00000000000E+00 0. -1.
        -11    1    5    5    0    0  0.68599282010E+02  0.24341651343E+02  0.83909569265E+02  0.11108192156E+03  0.00000000000E+00 0.  1.
          2    1    6    6  503    0 -0.20848330511E+03 -0.21305484272E+03  0.19233063292E+03  0.35475164112E+03  0.00000000000E+00 0. -1.
         -2    1    6    6    0  503 -0.13019654107E+02 -0.47585545485E+02  0.26847706486E+01  0.49407524989E+02  0.00000000000E+00 0.  1.
<mgrwt>
<rscale>  0 0.14284660E+04</rscale>
<asrwt>0</asrwt>
<pdfrwt beam="1">  1        2 0.17100749E+00 0.14284660E+04</pdfrwt>
<pdfrwt beam="2">  1       -1 0.70605409E-01 0.14284660E+04</pdfrwt>
<totfact> 0.48129163E+01</totfact>
</mgrwt>
</event>
<event>
12    6  0.1529770E-007  0.1246518E+04  0.7818608E-02  0.9073086E-01
          2   -1    0    0  501    0  0.00000000000E+00  0.00000000000E+00  0.19062168501E+03  0.19062168501E+03  0.00000000000E+00 0. -1.
         -1   -1    0    0    0  501 -0.00000000000E+00 -0.00000000000E+00 -0.20378150807E+04  0.20378150807E+04  0.00000000000E+00 0.  1.
         24    2    1    2    0    0 -0.28910031560E+03  0.12863003115E+03 -0.30666663889E+03  0.44797661826E+03  0.80709018694E+02 0.  0.
        254    2    1    2    0    0  0.28910031560E+03 -0.12863003115E+03 -0.15405267568E+04  0.17804601475E+04  0.83468016082E+03 0.  0.
         23    2    4    4    0    0  0.40504171905E+03 -0.18441531149E+03 -0.15562865949E+04  0.16212628205E+04  0.91637146323E+02 0.  0.
         23    2    4    4    0    0 -0.11594140345E+03  0.55785280344E+02  0.15759838069E+02  0.15919732692E+03  0.92417584181E+02 0.  0.
          2    1    3    3  502    0 -0.10068998204E+03  0.69455445149E+02 -0.74680883272E+02  0.14331701110E+03  0.00000000000E+00 0. -1.
         -1    1    3    3    0  502 -0.18841033356E+03  0.59174586002E+02 -0.23198575562E+03  0.30465960715E+03  0.00000000000E+00 0.  1.
         11    1    5    5    0    0  0.28611568829E+03 -0.14013730114E+03 -0.12446774111E+04  0.12848044629E+04  0.00000000000E+00 0. -1.
        -11    1    5    5    0    0  0.11892603076E+03 -0.44278010354E+02 -0.31160918379E+03  0.33645835762E+03  0.00000000000E+00 0.  1.
          4    1    6    6  503    0 -0.91746756218E+02  0.65822690321E+01  0.38660834416E+02  0.99777019698E+02  0.00000000000E+00 0. -1.
         -4    1    6    6    0  503 -0.24194647234E+02  0.49203011311E+02 -0.22900996348E+02  0.59420307224E+02  0.00000000000E+00 0.  1.
<mgrwt>
<rscale>  0 0.12465179E+04</rscale>
<asrwt>0</asrwt>
<pdfrwt beam="1">  1        2 0.29326411E-01 0.12465179E+04</pdfrwt>
<pdfrwt beam="2">  1       -1 0.31351004E+00 0.12465179E+04</pdfrwt>
<totfact> 0.56026007E+00</totfact>
</mgrwt>
</event>
<event>
12    6  0.1529770E-007  0.2725359E+04  0.7818608E-02  0.8326823E-01
         -1   -1    0    0    0  501 -0.00000000000E+00  0.00000000000E+00  0.20266848347E+04  0.20266848347E+04  0.00000000000E+00 0.  1.
          2   -1    0    0  501    0  0.00000000000E+00 -0.00000000000E+00 -0.91622333339E+03  0.91622333339E+03  0.00000000000E+00 0. -1.
         24    2    1    2    0    0 -0.36196057963E+02  0.11131142140E+04  0.99749818899E+02  0.11209415302E+04  0.78908046127E+02 0.  0.
        254    2    1    2    0    0  0.36196057963E+02 -0.11131142140E+04  0.10107116824E+04  0.18219666379E+04  0.10284410128E+04 0.  0.
         23    2    4    4    0    0 -0.25039096569E+03  0.24602102026E+02  0.43756910254E+03  0.51301179105E+03  0.91725019131E+02 0.  0.
         23    2    4    4    0    0  0.28658702365E+03 -0.11377163160E+04  0.57314257986E+03  0.13089548469E+04  0.91322704924E+02 0.  0.
          4    1    3    3  502    0  0.10591475771E+02  0.11950307330E+03  0.30691525174E+02  0.12383510651E+03  0.00000000000E+00 0. -1.
         -3    1    3    3    0  502 -0.46787533734E+02  0.99361114068E+03  0.69058293724E+02  0.99710642367E+03  0.00000000000E+00 0.  1.
         11    1    5    5    0    0 -0.79123748306E+02  0.38042333913E+02  0.92423598788E+02  0.12747512827E+03  0.00000000000E+00 0.  1.
        -11    1    5    5    0    0 -0.17126721738E+03 -0.13440231887E+02  0.34514550375E+03  0.38553666277E+03  0.00000000000E+00 0. -1.
          3    1    6    6  503    0  0.27457174763E+03 -0.97392121379E+03  0.47738583880E+03  0.11188428908E+04  0.00000000000E+00 0. -1.
         -3    1    6    6    0  503  0.12015276019E+02 -0.16379510221E+03  0.95756741055E+02  0.19011195603E+03  0.00000000000E+00 0.  1.
<mgrwt>
<rscale>  0 0.27253594E+04</rscale>
<asrwt>0</asrwt>
<pdfrwt beam="1">  1        2 0.14095744E+00 0.27253594E+04</pdfrwt>
<pdfrwt beam="2">  1       -1 0.31179767E+00 0.27253594E+04</pdfrwt>
<totfact> 0.78991137E-01</totfact>
</mgrwt>
</event>
<event>
12    6  0.1529770E-007  0.1703593E+04  0.7818608E-02  0.8759318E-01
          2   -1    0    0  501    0  0.00000000000E+00  0.00000000000E+00  0.18978941002E+04  0.18978941002E+04  0.00000000000E+00 0. -1.
         -1   -1    0    0    0  501 -0.00000000000E+00 -0.00000000000E+00 -0.38229585416E+03  0.38229585416E+03  0.00000000000E+00 0.  1.
         24    2    1    2    0    0 -0.11072769305E+02 -0.27007381256E+03  0.12685024944E+04  0.12993652254E+04  0.78669817041E+02 0.  0.
        254    2    1    2    0    0  0.11072769305E+02  0.27007381256E+03  0.24709575166E+03  0.98082472903E+03  0.90988920652E+03 0.  0.
         23    2    4    4    0    0  0.17657827209E+03  0.56075910727E+02 -0.29937319780E+03  0.36452174587E+03  0.94484907329E+02 0.  0.
         23    2    4    4    0    0 -0.16550550278E+03  0.21399790183E+03  0.54646894946E+03  0.61630298317E+03  0.89520282043E+02 0.  0.
          2    1    3    3  502    0 -0.32338453044E+02 -0.23707625452E+03  0.11465346037E+04  0.11712354688E+04  0.00000000000E+00 0. -1.
         -1    1    3    3    0  502  0.21265683739E+02 -0.32997558047E+02  0.12196789075E+03  0.12812975656E+03  0.00000000000E+00 0.  1.
         11    1    5    5    0    0  0.14933426075E+03  0.44654740168E+02 -0.29633200849E+03  0.33482447119E+03  0.00000000000E+00 0.  1.
        -11    1    5    5    0    0  0.27244011339E+02  0.11421170559E+02 -0.30411893080E+01  0.29697274676E+02  0.00000000000E+00 0. -1.
          1    1    6    6  503    0 -0.82923167816E+02  0.89246764726E+02  0.15449688759E+03  0.19674990483E+03  0.00000000000E+00 0. -1.
         -1    1    6    6    0  503 -0.82582334966E+02  0.12475113711E+03  0.39197206187E+03  0.41955307834E+03  0.00000000000E+00 0.  1.
<mgrwt>
<rscale>  0 0.17035927E+04</rscale>
<asrwt>0</asrwt>
<pdfrwt beam="1">  1        2 0.29198370E+00 0.17035927E+04</pdfrwt>
<pdfrwt beam="2">  1       -1 0.58814748E-01 0.17035927E+04</pdfrwt>
<totfact> 0.24171410E+01</totfact>
</mgrwt>
</event>
<event>
12    6  0.1529770E-007  0.1832866E+04  0.7818608E-02  0.8689014E-01
          2   -1    0    0  501    0  0.00000000000E+00  0.00000000000E+00  0.55705862348E+03  0.55705862348E+03  0.00000000000E+00 0. -1.
         -1   -1    0    0    0  501 -0.00000000000E+00 -0.00000000000E+00 -0.15076505617E+04  0.15076505617E+04  0.00000000000E+00 0.  1.
         24    2    1    2    0    0 -0.35547533155E+03  0.10727813183E+03 -0.10196536986E+04  0.10881243839E+04  0.80310030278E+02 0.  0.
        254    2    1    2    0    0  0.35547533155E+03 -0.10727813183E+03  0.69061760317E+02  0.97658480129E+03  0.90059815592E+03 0.  0.
         23    2    4    4    0    0 -0.10606586880E+02  0.35992825727E+03  0.66122534900E+02  0.37693372106E+03  0.89699444709E+02 0.  0.
         23    2    4    4    0    0  0.36608191843E+03 -0.46720638911E+03  0.29392254162E+01  0.59965108023E+03  0.85293598491E+02 0.  0.
          4    1    3    3  502    0 -0.60401914806E+02  0.85377501379E+00 -0.10448630174E+03  0.12069178719E+03  0.00000000000E+00 0. -1.
         -3    1    3    3    0  502 -0.29507341675E+03  0.10642435682E+03 -0.91516739683E+03  0.96743259673E+03  0.00000000000E+00 0.  1.
         11    1    5    5    0    0 -0.21407924142E+00  0.27468117771E+03  0.87780753752E+02  0.28836653056E+03  0.00000000000E+00 0. -1.
        -11    1    5    5    0    0 -0.10392507639E+02  0.85247079566E+02 -0.21658218852E+02  0.88567190502E+02  0.00000000000E+00 0.  1.
          3    1    6    6  503    0  0.19192992781E+03 -0.20033314526E+03 -0.31079617789E+02  0.27917093137E+03  0.00000000000E+00 0. -1.
         -3    1    6    6    0  503  0.17415199063E+03 -0.26687324384E+03  0.34018843205E+02  0.32048014886E+03  0.00000000000E+00 0.  1.
<mgrwt>
<rscale>  0 0.18328663E+04</rscale>
<asrwt>0</asrwt>
<pdfrwt beam="1">  1        2 0.85701327E-01 0.18328663E+04</pdfrwt>
<pdfrwt beam="2">  1       -1 0.23194624E+00 0.18328663E+04</pdfrwt>
<totfact> 0.53439508E+00</totfact>
</mgrwt>
</event>
<event>
12    6  0.1529770E-007  0.2064508E+04  0.7818608E-02  0.8577041E-01
         -1   -1    0    0    0  501 -0.00000000000E+00  0.00000000000E+00  0.88509736696E+03  0.88509736696E+03  0.00000000000E+00 0.  1.
          2   -1    0    0  501    0  0.00000000000E+00 -0.00000000000E+00 -0.12038772391E+04  0.12038772391E+04  0.00000000000E+00 0. -1.
         24    2    1    2    0    0  0.21332643404E+03 -0.53622718487E+03 -0.73234814655E+03  0.93598625381E+03  0.81784462522E+02 0.  0.
        254    2    1    2    0    0 -0.21332643404E+03  0.53622718487E+03  0.41356827443E+03  0.11529883522E+04  0.90845784793E+03 0.  0.
         23    2    4    4    0    0 -0.38593850752E+03 -0.65890789911E+02  0.31697976025E+03  0.51275767054E+03  0.95677230888E+02 0.  0.
         23    2    4    4    0    0  0.17261207348E+03  0.60211797479E+03  0.96588514188E+02  0.64023068167E+03  0.90691792403E+02 0.  0.
          2    1    3    3  502    0  0.20603463681E+03 -0.44951624767E+03 -0.64446480155E+03  0.81231152209E+03  0.00000000000E+00 0. -1.
         -1    1    3    3    0  502  0.72917972320E+01 -0.86710937205E+02 -0.87883344995E+02  0.12367473172E+03  0.00000000000E+00 0.  1.
         11    1    5    5    0    0 -0.61817567841E+02  0.19423559520E+02  0.29505906030E+02  0.71198910447E+02  0.00000000000E+00 0.  1.
        -11    1    5    5    0    0 -0.32412093968E+03 -0.85314349431E+02  0.28747385422E+03  0.44155876010E+03  0.00000000000E+00 0. -1.
          3    1    6    6  503    0  0.68884875190E+02  0.39579815544E+03  0.69600424076E+02  0.40773217301E+03  0.00000000000E+00 0. -1.
         -3    1    6    6    0  503  0.10372719829E+03  0.20631981935E+03  0.26988090112E+02  0.23249850866E+03  0.00000000000E+00 0.  1.
<mgrwt>
<rscale>  0 0.20645082E+04</rscale>
<asrwt>0</asrwt>
<pdfrwt beam="1">  1        2 0.18521188E+00 0.20645082E+04</pdfrwt>
<pdfrwt beam="2">  1       -1 0.13616883E+00 0.20645082E+04</pdfrwt>
<totfact> 0.89446351E+00</totfact>
</mgrwt>
</event>
<event>
12    6  0.1529770E-007  0.1662040E+04  0.7818608E-02  0.8783315E-01
          2   -1    0    0  501    0  0.00000000000E+00  0.00000000000E+00  0.67066103088E+03  0.67066103088E+03  0.00000000000E+00 0. -1.
         -1   -1    0    0    0  501 -0.00000000000E+00 -0.00000000000E+00 -0.10297221582E+04  0.10297221582E+04  0.00000000000E+00 0.  1.
         24    2    1    2    0    0 -0.16437337267E+03  0.53796804662E+03  0.29708360565E+02  0.56897573141E+03  0.80140947220E+02 0.  0.
        254    2    1    2    0    0  0.16437337267E+03 -0.53796804662E+03 -0.38876948790E+03  0.11314074577E+04  0.90139497212E+03 0.  0.
         23    2    4    4    0    0 -0.19772702943E+02 -0.43500039282E+03 -0.64746763962E+03  0.78542375326E+03  0.89776535268E+02 0.  0.
         23    2    4    4    0    0  0.18414607561E+03 -0.10296765380E+03  0.25869815172E+03  0.34598370443E+03  0.90927856772E+02 0.  0.
          2    1    3    3  502    0 -0.89077703514E+02  0.28086086385E+03 -0.24412452196E+02  0.29565796104E+03  0.00000000000E+00 0. -1.
         -1    1    3    3    0  502 -0.75295669151E+02  0.25710718277E+03  0.54120812761E+02  0.27331777037E+03  0.00000000000E+00 0.  1.
         11    1    5    5    0    0  0.32946873647E+02 -0.20788715795E+03 -0.28131334583E+03  0.35133995711E+03  0.00000000000E+00 0. -1.
        -11    1    5    5    0    0 -0.52719576590E+02 -0.22711323487E+03 -0.36615429380E+03  0.43408379615E+03  0.00000000000E+00 0.  1.
          4    1    6    6  503    0  0.13530322366E+03 -0.85177167067E+02  0.12630890601E+03  0.20375488181E+03  0.00000000000E+00 0.  1.
         -4    1    6    6    0  503  0.48842851945E+02 -0.17790486729E+02  0.13238924571E+03  0.14222882262E+03  0.00000000000E+00 0. -1.
<mgrwt>
<rscale>  0 0.16620403E+04</rscale>
<asrwt>0</asrwt>
<pdfrwt beam="1">  1        2 0.10317862E+00 0.16620403E+04</pdfrwt>
<pdfrwt beam="2">  1       -1 0.15841879E+00 0.16620403E+04</pdfrwt>
<totfact> 0.14162106E+01</totfact>
</mgrwt>
</event>
<event>
12    6  0.1529770E-007  0.1444142E+04  0.7818608E-02  0.8922471E-01
          2   -1    0    0  501    0  0.00000000000E+00  0.00000000000E+00  0.62108101349E+03  0.62108101349E+03  0.00000000000E+00 0. -1.
         -1   -1    0    0    0  501 -0.00000000000E+00 -0.00000000000E+00 -0.83948287413E+03  0.83948287413E+03  0.00000000000E+00 0.  1.
         24    2    1    2    0    0 -0.24767276287E+02 -0.15761934073E+03 -0.47965095716E+03  0.51168469704E+03  0.79365697494E+02 0.  0.
        254    2    1    2    0    0  0.24767276287E+02  0.15761934073E+03  0.26124909652E+03  0.94887919058E+03  0.89814439448E+03 0.  0.
         23    2    4    4    0    0  0.13606835930E+03  0.34409027387E+03 -0.20019039326E+03  0.43084708551E+03  0.92953227855E+02 0.  0.
         23    2    4    4    0    0 -0.11130108301E+03 -0.18647093314E+03  0.46143948977E+03  0.51803210507E+03  0.90947892620E+02 0.  0.
          2    1    3    3  502    0  0.14580433004E+02  0.11434151308E+01 -0.40982708950E+02  0.43514122508E+02  0.00000000000E+00 0. -1.
         -1    1    3    3    0  502 -0.39347709291E+02 -0.15876275586E+03 -0.43866824821E+03  0.46817057454E+03  0.00000000000E+00 0.  1.
         11    1    5    5    0    0  0.96028379276E+02  0.32144567600E+03 -0.17423669779E+03  0.37803068540E+03  0.00000000000E+00 0. -1.
        -11    1    5    5    0    0  0.40039980024E+02  0.22644597875E+02 -0.25953695463E+02  0.52816400118E+02  0.00000000000E+00 0.  1.
          1    1    6    6  503    0 -0.54040586068E+02 -0.12738976820E+03  0.36997979866E+03  0.39501087251E+03  0.00000000000E+00 0. -1.
         -1    1    6    6    0  503 -0.57260496945E+02 -0.59081164940E+02  0.91459691108E+02  0.12302123255E+03  0.00000000000E+00 0.  1.
<mgrwt>
<rscale>  0 0.14441425E+04</rscale>
<asrwt>0</asrwt>
<pdfrwt beam="1">  1        2 0.95550925E-01 0.14441425E+04</pdfrwt>
<pdfrwt beam="2">  1       -1 0.12915121E+00 0.14441425E+04</pdfrwt>
<totfact> 0.27188187E+01</totfact>
</mgrwt>
</event>
<event>
12    6  0.1529770E-007  0.2725548E+04  0.7818608E-02  0.8326763E-01
         -1   -1    0    0    0  501 -0.00000000000E+00  0.00000000000E+00  0.10965183296E+04  0.10965183296E+04  0.00000000000E+00 0.  1.
          2   -1    0    0  501    0  0.00000000000E+00 -0.00000000000E+00 -0.16936814449E+04  0.16936814449E+04  0.00000000000E+00 0. -1.
         24    2    1    2    0    0 -0.10573015451E+04 -0.52540893645E+03  0.36235198716E+02  0.11838994218E+04  0.79773076317E+02 0.  0.
        254    2    1    2    0    0  0.10573015451E+04  0.52540893645E+03 -0.63339831395E+03  0.16063003526E+04  0.88603966675E+03 0.  0.
         23    2    4    4    0    0  0.36720257668E+03  0.17791007736E+03 -0.71136287689E+03  0.82502679411E+03  0.90234918070E+02 0.  0.
         23    2    4    4    0    0  0.69009896838E+03  0.34749885909E+03  0.77964562941E+02  0.78127355852E+03  0.85544473453E+02 0.  0.
          2    1    3    3  502    0 -0.45058712351E+03 -0.23723750256E+03  0.53316715969E+02  0.51200884826E+03  0.00000000000E+00 0. -1.
         -1    1    3    3    0  502 -0.60671442156E+03 -0.28817143389E+03 -0.17081517253E+02  0.67189057358E+03  0.00000000000E+00 0.  1.
         11    1    5    5    0    0  0.34751917210E+03  0.14956901289E+03 -0.60847608278E+03  0.71650792592E+03  0.00000000000E+00 0. -1.
        -11    1    5    5    0    0  0.19683404585E+02  0.28341064476E+02 -0.10288679412E+03  0.10851886820E+03  0.00000000000E+00 0.  1.
          4    1    6    6  503    0  0.43138521360E+03  0.19935213449E+03  0.86474827578E+02  0.48302419385E+03  0.00000000000E+00 0. -1.
         -4    1    6    6    0  503  0.25871375478E+03  0.14814672460E+03 -0.85102646370E+01  0.29824936467E+03  0.00000000000E+00 0.  1.
<mgrwt>
<rscale>  0 0.27255478E+04</rscale>
<asrwt>0</asrwt>
<pdfrwt beam="1">  1        2 0.26056637E+00 0.27255478E+04</pdfrwt>
<pdfrwt beam="2">  1       -1 0.16869513E+00 0.27255478E+04</pdfrwt>
<totfact> 0.24789023E+00</totfact>
</mgrwt>
</event>
<event>
12    6  0.1529770E-007  0.1569291E+04  0.7818608E-02  0.8839639E-01
         -1   -1    0    0    0  501 -0.00000000000E+00  0.00000000000E+00  0.47281091606E+03  0.47281091606E+03  0.00000000000E+00 0.  1.
          2   -1    0    0  501    0  0.00000000000E+00 -0.00000000000E+00 -0.13021451605E+04  0.13021451605E+04  0.00000000000E+00 0. -1.
         24    2    1    2    0    0 -0.12324374197E+03 -0.18237301584E+03 -0.83114513366E+03  0.86363569357E+03  0.81335362306E+02 0.  0.
        254    2    1    2    0    0  0.12324374197E+03  0.18237301584E+03  0.18108891712E+01  0.91132038304E+03  0.88433739285E+03 0.  0.
         23    2    4    4    0    0  0.30672149817E+03 -0.26232956775E+03  0.59940929706E+02  0.41866948097E+03  0.93788803614E+02 0.  0.
         23    2    4    4    0    0 -0.18347775620E+03  0.44470258359E+03 -0.58130040535E+02  0.49265090207E+03  0.88889452854E+02 0.  0.
          4    1    3    3  502    0 -0.10503386976E+03 -0.84141741835E+02 -0.49330993674E+03  0.51133808796E+03  0.00000000000E+00 0. -1.
         -3    1    3    3    0  502 -0.18209872211E+02 -0.98231274004E+02 -0.33783519692E+03  0.35229760560E+03  0.00000000000E+00 0.  1.
         11    1    5    5    0    0  0.20044354608E+03 -0.11049858896E+03  0.27671282893E+02  0.23054989313E+03  0.00000000000E+00 0.  1.
        -11    1    5    5    0    0  0.10627795210E+03 -0.15183097880E+03  0.32269646813E+02  0.18811958784E+03  0.00000000000E+00 0. -1.
          2    1    6    6  503    0 -0.97343016146E+02  0.33793121606E+03 -0.50218331986E+02  0.35523942693E+03  0.00000000000E+00 0. -1.
         -2    1    6    6    0  503 -0.86134740051E+02  0.10677136754E+03 -0.79117085494E+01  0.13741147514E+03  0.00000000000E+00 0.  1.
<mgrwt>
<rscale>  0 0.15692909E+04</rscale>
<asrwt>0</asrwt>
<pdfrwt beam="1">  1        2 0.20033002E+00 0.15692909E+04</pdfrwt>
<pdfrwt beam="2">  1       -1 0.72740142E-01 0.15692909E+04</pdfrwt>
<totfact> 0.34422519E+01</totfact>
</mgrwt>
</event>
<event>
12    6  0.1529770E-007  0.1745297E+04  0.7818608E-02  0.8735943E-01
          2   -1    0    0  501    0  0.00000000000E+00  0.00000000000E+00  0.24028104278E+04  0.24028104278E+04  0.00000000000E+00 0. -1.
         -1   -1    0    0    0  501 -0.00000000000E+00 -0.00000000000E+00 -0.31692713625E+03  0.31692713625E+03  0.00000000000E+00 0.  1.
         24    2    1    2    0    0  0.10550449797E+03 -0.57770406806E+03  0.49247487653E+03  0.77046289494E+03  0.78793268322E+02 0.  0.
        254    2    1    2    0    0 -0.10550449797E+03  0.57770406806E+03  0.15934084150E+04  0.19492746691E+04  0.95699956593E+03 0.  0.
         23    2    4    4    0    0 -0.79341436475E+02  0.30327781760E+03 -0.20223236741E+01  0.32727280855E+03  0.93972885643E+02 0.  0.
         23    2    4    4    0    0 -0.26163061494E+02  0.27442625046E+03  0.15954307387E+04  0.16220018605E+04  0.97450094635E+02 0.  0.
          2    1    3    3  502    0  0.12613934476E+02 -0.92640377058E+01  0.68614153472E+01  0.17088380793E+02  0.00000000000E+00 0. -1.
         -3    1    3    3    0  502  0.92890563493E+02 -0.56844003035E+03  0.48561346118E+03  0.75337451415E+03  0.00000000000E+00 0.  1.
         11    1    5    5    0    0 -0.64960779740E+02  0.28394059460E+03  0.23435571808E+02  0.29221805247E+03  0.00000000000E+00 0.  1.
        -11    1    5    5    0    0 -0.14380656735E+02  0.19337223002E+02 -0.25457895483E+02  0.35054756082E+02  0.00000000000E+00 0. -1.
          2    1    6    6  503    0 -0.15595371080E+02  0.49985557174E+02  0.14281493511E+03  0.15211139738E+03  0.00000000000E+00 0. -1.
         -2    1    6    6    0  503 -0.10567690414E+02  0.22444069328E+03  0.14526158035E+04  0.14698904631E+04  0.00000000000E+00 0.  1.
<mgrwt>
<rscale>  0 0.17452975E+04</rscale>
<asrwt>0</asrwt>
<pdfrwt beam="1">  1        2 0.36966313E+00 0.17452975E+04</pdfrwt>
<pdfrwt beam="2">  1       -1 0.48758023E-01 0.17452975E+04</pdfrwt>
<totfact> 0.18024699E+01</totfact>
</mgrwt>
</event>
<event>
12    6  0.1529770E-007  0.1659257E+04  0.7818608E-02  0.8784949E-01
         -1   -1    0    0    0  501 -0.00000000000E+00  0.00000000000E+00  0.86868651083E+03  0.86868651083E+03  0.00000000000E+00 0.  1.
          2   -1    0    0  501    0  0.00000000000E+00 -0.00000000000E+00 -0.79232635516E+03  0.79232635516E+03  0.00000000000E+00 0. -1.
         24    2    1    2    0    0  0.36041939962E+02  0.54828901344E+03 -0.16288815600E+03  0.57838831856E+03  0.77978407195E+02 0.  0.
        254    2    1    2    0    0 -0.36041939962E+02 -0.54828901344E+03  0.23924831167E+03  0.10826245474E+04  0.90161870676E+03 0.  0.
         23    2    4    4    0    0 -0.18342276892E+03 -0.75709362194E+03  0.18899328094E+03  0.80717445824E+03  0.94749571269E+02 0.  0.
         23    2    4    4    0    0  0.14738082895E+03  0.20880460850E+03  0.50255030733E+02  0.27545008919E+03  0.89591909510E+02 0.  0.
          2    1    3    3  502    0 -0.10041855177E+02  0.49598974491E+02 -0.34915699303E+02  0.61481730488E+02  0.00000000000E+00 0. -1.
         -1    1    3    3    0  502  0.46083795140E+02  0.49869003895E+03 -0.12797245670E+03  0.51690658808E+03  0.00000000000E+00 0.  1.
         11    1    5    5    0    0 -0.61755696404E+02 -0.44499346059E+03  0.12253017587E+03  0.46566789668E+03  0.00000000000E+00 0. -1.
        -11    1    5    5    0    0 -0.12166707251E+03 -0.31210016136E+03  0.66463105067E+02  0.34150656156E+03  0.00000000000E+00 0.  1.
          1    1    6    6  503    0  0.77355766307E+02  0.16633844933E+03  0.59925247945E+02  0.19298556849E+03  0.00000000000E+00 0. -1.
         -1    1    6    6    0  503  0.70025062646E+02  0.42466159172E+02 -0.96702172123E+01  0.82464520701E+02  0.00000000000E+00 0.  1.
<mgrwt>
<rscale>  0 0.16592567E+04</rscale>
<asrwt>0</asrwt>
<pdfrwt beam="1">  1        2 0.12189636E+00 0.16592567E+04</pdfrwt>
<pdfrwt beam="2">  1       -1 0.13364408E+00 0.16592567E+04</pdfrwt>
<totfact> 0.17977214E+01</totfact>
</mgrwt>
</event>
<event>
12    6  0.1529770E-007  0.2480655E+04  0.7818608E-02  0.8409910E-01
         -1   -1    0    0    0  501 -0.00000000000E+00  0.00000000000E+00  0.60684709474E+03  0.60684709474E+03  0.00000000000E+00 0.  1.
          2   -1    0    0  501    0  0.00000000000E+00 -0.00000000000E+00 -0.25350902289E+04  0.25350902289E+04  0.00000000000E+00 0. -1.
         24    2    1    2    0    0 -0.39068378204E+03  0.40948156629E+03 -0.19931019288E+04  0.20734495807E+04  0.80180387051E+02 0.  0.
        254    2    1    2    0    0  0.39068378204E+03 -0.40948156629E+03  0.64858794609E+02  0.10684877430E+04  0.90396372879E+03 0.  0.
         23    2    4    4    0    0 -0.19541140971E+03  0.13404812312E+03  0.77469594558E+02  0.26375121528E+03  0.86073498385E+02 0.  0.
         23    2    4    4    0    0  0.58609519175E+03 -0.54352968941E+03 -0.12610799949E+02  0.80473652770E+03  0.92248304442E+02 0.  0.
          4    1    3    3  502    0 -0.28662799605E+03  0.26988584099E+03 -0.14871010807E+04  0.15383314335E+04  0.00000000000E+00 0. -1.
         -3    1    3    3    0  502 -0.10405578599E+03  0.13959572530E+03 -0.50600084815E+03  0.53511814719E+03  0.00000000000E+00 0.  1.
         11    1    5    5    0    0 -0.17421739314E+03  0.12878241185E+03  0.39894879488E+02  0.22029119611E+03  0.00000000000E+00 0. -1.
        -11    1    5    5    0    0 -0.21194016564E+02  0.52657112703E+01  0.37574715070E+02  0.43460019165E+02  0.00000000000E+00 0.  1.
          1    1    6    6  503    0  0.51225720728E+03 -0.44217342872E+03  0.12640694318E+02  0.67681945497E+03  0.00000000000E+00 0. -1.
         -1    1    6    6    0  503  0.73837984469E+02 -0.10135626069E+03 -0.25251494268E+02  0.12791707273E+03  0.00000000000E+00 0.  1.
<mgrwt>
<rscale>  0 0.24806549E+04</rscale>
<asrwt>0</asrwt>
<pdfrwt beam="1">  1        2 0.39001388E+00 0.24806549E+04</pdfrwt>
<pdfrwt beam="2">  1       -1 0.93361092E-01 0.24806549E+04</pdfrwt>
<totfact> 0.37566330E+00</totfact>
</mgrwt>
</event>
<event>
12    6  0.1529770E-007  0.2236579E+04  0.7818608E-02  0.8503355E-01
         -1   -1    0    0    0  501 -0.00000000000E+00  0.00000000000E+00  0.13008806710E+04  0.13008806710E+04  0.00000000000E+00 0.  1.
          2   -1    0    0  501    0  0.00000000000E+00 -0.00000000000E+00 -0.96132713098E+03  0.96132713098E+03  0.00000000000E+00 0. -1.
         24    2    1    2    0    0 -0.45415471886E+03  0.26768945095E+03  0.92293424452E+03  0.10659485479E+04  0.80774601909E+02 0.  0.
        254    2    1    2    0    0  0.45415471886E+03 -0.26768945095E+03 -0.58338070448E+03  0.11962592541E+04  0.90154811618E+03 0.  0.
         23    2    4    4    0    0 -0.11535131490E+03 -0.39418214157E+03 -0.10321333814E+03  0.43516957697E+03  0.10017025990E+03 0.  0.
         23    2    4    4    0    0  0.56950603376E+03  0.12649269061E+03 -0.48016736633E+03  0.76108967710E+03  0.91429063395E+02 0.  0.
          2    1    3    3  502    0 -0.80119579152E+02  0.19410314465E+02  0.11240368222E+03  0.13939331063E+03  0.00000000000E+00 0. -1.
         -1    1    3    3    0  502 -0.37403513970E+03  0.24827913649E+03  0.81053056230E+03  0.92655523730E+03  0.00000000000E+00 0.  1.
         11    1    5    5    0    0 -0.67148580942E+02 -0.78037999207E+02 -0.25929443531E+02  0.10616589511E+03  0.00000000000E+00 0. -1.
        -11    1    5    5    0    0 -0.48202733960E+02 -0.31614414236E+03 -0.77283894611E+02  0.32900368186E+03  0.00000000000E+00 0.  1.
          2    1    6    6  503    0  0.56249415586E+03  0.11789483341E+03 -0.48170074276E+03  0.74988964035E+03  0.00000000000E+00 0.  1.
         -2    1    6    6    0  503  0.70118778938E+01  0.85978572041E+01  0.15333764213E+01  0.11200036757E+02  0.00000000000E+00 0. -1.
<mgrwt>
<rscale>  0 0.22365794E+04</rscale>
<asrwt>0</asrwt>
<pdfrwt beam="1">  1        2 0.14789648E+00 0.22365794E+04</pdfrwt>
<pdfrwt beam="2">  1       -1 0.20013549E+00 0.22365794E+04</pdfrwt>
<totfact> 0.41656013E+00</totfact>
</mgrwt>
</event>
<event>
12    6  0.1529770E-007  0.2419408E+04  0.7818608E-02  0.8432273E-01
          2   -1    0    0  501    0  0.00000000000E+00  0.00000000000E+00  0.22255574564E+04  0.22255574564E+04  0.00000000000E+00 0. -1.
         -1   -1    0    0    0  501 -0.00000000000E+00 -0.00000000000E+00 -0.65753603706E+03  0.65753603706E+03  0.00000000000E+00 0.  1.
         24    2    1    2    0    0  0.12469473944E+03 -0.53823599195E+03 -0.36748435732E+03  0.66894961482E+03  0.84865029451E+02 0.  0.
        254    2    1    2    0    0 -0.12469473944E+03  0.53823599195E+03  0.19355057767E+04  0.22141438787E+04  0.92249864107E+03 0.  0.
         23    2    4    4    0    0 -0.13056125353E+03  0.58955927113E+03  0.54118792988E+03  0.81593518975E+03  0.90771599775E+02 0.  0.
         23    2    4    4    0    0  0.58665140869E+01 -0.51323279186E+02  0.13943178468E+04  0.13982086889E+04  0.90536097015E+02 0.  0.
          4    1    3    3  502    0  0.27022564054E+02 -0.82066093008E+02 -0.96167147991E+02  0.12927947611E+03  0.00000000000E+00 0. -1.
         -3    1    3    3    0  502  0.97672175385E+02 -0.45616989894E+03 -0.27131720933E+03  0.53967013872E+03  0.00000000000E+00 0.  1.
         11    1    5    5    0    0 -0.10845329306E+03  0.44496899968E+03  0.35678697545E+03  0.58056564944E+03  0.00000000000E+00 0. -1.
        -11    1    5    5    0    0 -0.22107960467E+02  0.14459027145E+03  0.18440095442E+03  0.23536954031E+03  0.00000000000E+00 0.  1.
          4    1    6    6  503    0  0.48061633245E+02 -0.28772996259E+02  0.81089681973E+03  0.81282929214E+03  0.00000000000E+00 0. -1.
         -4    1    6    6    0  503 -0.42195119158E+02 -0.22550282927E+02  0.58342102707E+03  0.58537939677E+03  0.00000000000E+00 0.  1.
<mgrwt>
<rscale>  0 0.24194084E+04</rscale>
<asrwt>0</asrwt>
<pdfrwt beam="1">  1        2 0.34239345E+00 0.24194084E+04</pdfrwt>
<pdfrwt beam="2">  1       -1 0.10115939E+00 0.24194084E+04</pdfrwt>
<totfact> 0.47353793E+00</totfact>
</mgrwt>
</event>
<event>
12    6  0.1529770E-007  0.4125541E+04  0.7818608E-02  0.7979689E-01
         -1   -1    0    0    0  501 -0.00000000000E+00  0.00000000000E+00  0.17824771681E+04  0.17824771681E+04  0.00000000000E+00 0.  1.
          2   -1    0    0  501    0  0.00000000000E+00 -0.00000000000E+00 -0.23871394491E+04  0.23871394491E+04  0.00000000000E+00 0. -1.
         24    2    1    2    0    0 -0.13357460626E+03 -0.11322021136E+04 -0.19019357490E+04  0.22188743008E+04  0.79496968720E+02 0.  0.
        254    2    1    2    0    0  0.13357460626E+03  0.11322021136E+04  0.12972734680E+04  0.19507423164E+04  0.90705751348E+03 0.  0.
         23    2    4    4    0    0 -0.20542506750E+02  0.81648988631E+03  0.13558789487E+04  0.15855248726E+04  0.91671529144E+02 0.  0.
         23    2    4    4    0    0  0.15411711301E+03  0.31571222731E+03 -0.58605480696E+02  0.36521744377E+03  0.80764372552E+02 0.  0.
          4    1    3    3  502    0 -0.11951099154E+03 -0.10795415320E+04 -0.17783038939E+04  0.20837604314E+04  0.00000000000E+00 0. -1.
         -3    1    3    3    0  502 -0.14063614723E+02 -0.52660581590E+02 -0.12363185510E+03  0.13511386941E+03  0.00000000000E+00 0.  1.
         11    1    5    5    0    0 -0.50807139164E+02  0.29134470595E+03  0.47509315136E+03  0.55962184155E+03  0.00000000000E+00 0.  1.
        -11    1    5    5    0    0  0.30264632414E+02  0.52514518036E+03  0.88078579729E+03  0.10259030311E+04  0.00000000000E+00 0. -1.
          1    1    6    6  503    0  0.13597774876E+03  0.21455591071E+03 -0.65155001538E+02  0.26223912981E+03  0.00000000000E+00 0. -1.
         -1    1    6    6    0  503  0.18139364250E+02  0.10115631660E+03  0.65495208418E+01  0.10297831396E+03  0.00000000000E+00 0.  1.
<mgrwt>
<rscale>  0 0.41255407E+04</rscale>
<asrwt>0</asrwt>
<pdfrwt beam="1">  1        2 0.36725222E+00 0.41255407E+04</pdfrwt>
<pdfrwt beam="2">  1       -1 0.27422726E+00 0.41255407E+04</pdfrwt>
<totfact> 0.17416387E-01</totfact>
</mgrwt>
</event>
<event>
12    6  0.1529770E-007  0.2754715E+04  0.7818608E-02  0.8317467E-01
          2   -1    0    0  501    0  0.00000000000E+00  0.00000000000E+00  0.12489234965E+04  0.12489234965E+04  0.00000000000E+00 0. -1.
         -1   -1    0    0    0  501 -0.00000000000E+00 -0.00000000000E+00 -0.15189988951E+04  0.15189988951E+04  0.00000000000E+00 0.  1.
         24    2    1    2    0    0 -0.10918679935E+04 -0.11314156797E+03  0.43549723930E+03  0.11843851823E+04  0.90186944950E+02 0.  0.
        254    2    1    2    0    0  0.10918679935E+04  0.11314156797E+03 -0.70557263783E+03  0.15835372093E+04  0.89709565627E+03 0.  0.
         23    2    4    4    0    0  0.50528199416E+03  0.48617983509E+03 -0.25975212976E+03  0.75256887201E+03  0.84900014872E+02 0.  0.
         23    2    4    4    0    0  0.58658599931E+03 -0.37303826712E+03 -0.44582050806E+03  0.83096833732E+03  0.92259248294E+02 0.  0.
          4    1    3    3  502    0 -0.91117452646E+03 -0.77386327096E+02  0.39312816902E+03  0.99537802797E+03  0.00000000000E+00 0. -1.
         -3    1    3    3    0  502 -0.18069346700E+03 -0.35755240878E+02  0.42369070284E+02  0.18900715432E+03  0.00000000000E+00 0.  1.
         11    1    5    5    0    0  0.59172677333E+02  0.28445293714E+02 -0.38945273540E+02  0.76336588923E+02  0.00000000000E+00 0.  1.
        -11    1    5    5    0    0  0.44610931683E+03  0.45773454138E+03 -0.22080685622E+03  0.67623228308E+03  0.00000000000E+00 0. -1.
          2    1    6    6  503    0  0.44433824292E+03 -0.24106056424E+03 -0.34752293792E+03  0.61344833697E+03  0.00000000000E+00 0. -1.
         -2    1    6    6    0  503  0.14224775639E+03 -0.13197770288E+03 -0.98297570143E+02  0.21752000035E+03  0.00000000000E+00 0.  1.
<mgrwt>
<rscale>  0 0.27547148E+04</rscale>
<asrwt>0</asrwt>
<pdfrwt beam="1">  1        2 0.19214208E+00 0.27547148E+04</pdfrwt>
<pdfrwt beam="2">  1       -1 0.23369214E+00 0.27547148E+04</pdfrwt>
<totfact> 0.15726687E+00</totfact>
</mgrwt>
</event>
<event>
12    6  0.1529770E-007  0.1860955E+04  0.7818608E-02  0.8674539E-01
         -1   -1    0    0    0  501 -0.00000000000E+00  0.00000000000E+00  0.42276395639E+03  0.42276395639E+03  0.00000000000E+00 0.  1.
          2   -1    0    0  501    0  0.00000000000E+00 -0.00000000000E+00 -0.20479235028E+04  0.20479235028E+04  0.00000000000E+00 0. -1.
         24    2    1    2    0    0  0.24226204811E+03  0.16475019893E+03 -0.14756982633E+04  0.15068271523E+04  0.83720813209E+02 0.  0.
        254    2    1    2    0    0 -0.24226204811E+03 -0.16475019893E+03 -0.14946128307E+03  0.96386030686E+03  0.90601020304E+03 0.  0.
         23    2    4    4    0    0 -0.24612956187E+03  0.19144798002E+03 -0.40242260860E+03  0.51786791148E+03  0.94926959015E+02 0.  0.
         23    2    4    4    0    0  0.38675137588E+01 -0.35619817895E+03  0.25296132554E+03  0.44599239538E+03  0.89597344648E+02 0.  0.
          2    1    3    3  502    0  0.94291400544E+02  0.83920511414E+02 -0.82685305283E+03  0.83643259826E+03  0.00000000000E+00 0. -1.
         -1    1    3    3    0  502  0.14797064757E+03  0.80829687516E+02 -0.64884521048E+03  0.67039455404E+03  0.00000000000E+00 0.  1.
         11    1    5    5    0    0 -0.21858336746E+03  0.13815261824E+03 -0.36445644471E+03  0.44687060157E+03  0.00000000000E+00 0.  1.
        -11    1    5    5    0    0 -0.27546194409E+02  0.53295361786E+02 -0.37966163895E+02  0.70997309915E+02  0.00000000000E+00 0. -1.
          1    1    6    6  503    0  0.33822067244E+02 -0.15346687556E+03  0.73075386221E+02  0.17330904823E+03  0.00000000000E+00 0. -1.
         -1    1    6    6    0  503 -0.29954553485E+02 -0.20273130339E+03  0.17988593932E+03  0.27268334715E+03  0.00000000000E+00 0.  1.
<mgrwt>
<rscale>  0 0.18609549E+04</rscale>
<asrwt>0</asrwt>
<pdfrwt beam="1">  1        2 0.31506515E+00 0.18609549E+04</pdfrwt>
<pdfrwt beam="2">  1       -1 0.65040609E-01 0.18609549E+04</pdfrwt>
<totfact> 0.16109282E+01</totfact>
</mgrwt>
</event>
<event>
12    6  0.1529770E-007  0.2496518E+04  0.7818608E-02  0.8404227E-01
         -1   -1    0    0    0  501 -0.00000000000E+00  0.00000000000E+00  0.16483016104E+04  0.16483016104E+04  0.00000000000E+00 0.  1.
          2   -1    0    0  501    0  0.00000000000E+00 -0.00000000000E+00 -0.94530675947E+03  0.94530675947E+03  0.00000000000E+00 0. -1.
         24    2    1    2    0    0  0.31385158125E+03 -0.10377753850E+04  0.21983715937E+03  0.11091118643E+04  0.79499598436E+02 0.  0.
        254    2    1    2    0    0 -0.31385158125E+03  0.10377753850E+04  0.48315769155E+03  0.14844965055E+04  0.89152002510E+03 0.  0.
         23    2    4    4    0    0  0.69034068116E+02  0.56388613982E+03 -0.15556861039E+03  0.59711030785E+03  0.98009417717E+02 0.  0.
         23    2    4    4    0    0 -0.38288564937E+03  0.47388924521E+03  0.63872630194E+03  0.88738619766E+03  0.91162151094E+02 0.  0.
          2    1    3    3  502    0  0.31553036928E+03 -0.10370924374E+04  0.21668213491E+03  0.11054733308E+04  0.00000000000E+00 0. -1.
         -1    1    3    3    0  502 -0.16787880267E+01 -0.68294765930E+00  0.31550244625E+01  0.36385335099E+01  0.00000000000E+00 0.  1.
         11    1    5    5    0    0  0.46136626404E+02  0.14912633230E+03 -0.80687127184E+01  0.15630852634E+03  0.00000000000E+00 0.  1.
        -11    1    5    5    0    0  0.22897441711E+02  0.41475980752E+03 -0.14749989767E+03  0.44080178151E+03  0.00000000000E+00 0. -1.
          3    1    6    6  503    0 -0.22223427684E+03  0.29584589058E+03  0.44753913793E+03  0.58069281445E+03  0.00000000000E+00 0. -1.
         -3    1    6    6    0  503 -0.16065137253E+03  0.17804335463E+03  0.19118716401E+03  0.30669338321E+03  0.00000000000E+00 0.  1.
<mgrwt>
<rscale>  0 0.24965181E+04</rscale>
<asrwt>0</asrwt>
<pdfrwt beam="1">  1        2 0.14543181E+00 0.24965181E+04</pdfrwt>
<pdfrwt beam="2">  1       -1 0.25358486E+00 0.24965181E+04</pdfrwt>
<totfact> 0.18374374E+00</totfact>
</mgrwt>
</event>
<event>
12    6  0.1529770E-007  0.1473956E+04  0.7818608E-02  0.8901959E-01
          2   -1    0    0  501    0  0.00000000000E+00  0.00000000000E+00  0.27759998377E+04  0.27759998377E+04  0.00000000000E+00 0. -1.
         -1   -1    0    0    0  501 -0.00000000000E+00 -0.00000000000E+00 -0.19565436064E+03  0.19565436064E+03  0.00000000000E+00 0.  1.
         24    2    1    2    0    0  0.44835622547E+03  0.22626852343E+03  0.78831762989E+03  0.93814160045E+03  0.80275944675E+02 0.  0.
        254    2    1    2    0    0 -0.44835622547E+03 -0.22626852343E+03  0.17920278472E+04  0.20335125979E+04  0.81950529660E+03 0.  0.
         23    2    4    4    0    0 -0.62764327754E+03 -0.33090407733E+03  0.11576584786E+04  0.13604919169E+04  0.85624241225E+02 0.  0.
         23    2    4    4    0    0  0.17928705207E+03  0.10463555390E+03  0.63436936866E+03  0.67302068106E+03  0.86254826313E+02 0.  0.
          2    1    3    3  502    0  0.45134263711E+03  0.22722100461E+03  0.78146094005E+03  0.93060236505E+03  0.00000000000E+00 0. -1.
         -1    1    3    3    0  502 -0.29864116440E+01 -0.95248118127E+00  0.68566898362E+01  0.75392354001E+01  0.00000000000E+00 0.  1.
         11    1    5    5    0    0 -0.36208441829E+03 -0.14369912131E+03  0.64760771964E+03  0.75574487889E+03  0.00000000000E+00 0. -1.
        -11    1    5    5    0    0 -0.26555885925E+03 -0.18720495601E+03  0.51005075892E+03  0.60474703799E+03  0.00000000000E+00 0.  1.
          4    1    6    6  503    0  0.14918701253E+03  0.42233046688E+02  0.45787925269E+03  0.48341887115E+03  0.00000000000E+00 0. -1.
         -4    1    6    6    0  503  0.30100039539E+02  0.62402507210E+02  0.17649011597E+03  0.18960180991E+03  0.00000000000E+00 0.  1.
<mgrwt>
<rscale>  0 0.14739559E+04</rscale>
<asrwt>0</asrwt>
<pdfrwt beam="1">  1        2 0.42707687E+00 0.14739559E+04</pdfrwt>
<pdfrwt beam="2">  1       -1 0.30100673E-01 0.14739559E+04</pdfrwt>
<totfact> 0.26882173E+01</totfact>
</mgrwt>
</event>
<event>
12    6  0.1529770E-007  0.1939141E+04  0.7818608E-02  0.8635615E-01
         -1   -1    0    0    0  501 -0.00000000000E+00  0.00000000000E+00  0.69650288008E+03  0.69650288008E+03  0.00000000000E+00 0.  1.
          2   -1    0    0  501    0  0.00000000000E+00 -0.00000000000E+00 -0.13496956536E+04  0.13496956536E+04  0.00000000000E+00 0. -1.
         24    2    1    2    0    0 -0.15475843798E+03  0.19275523715E+03  0.50174068332E+03  0.56475691156E+03  0.78114661107E+02 0.  0.
        254    2    1    2    0    0  0.15475843798E+03 -0.19275523715E+03 -0.11549334568E+04  0.14814416221E+04  0.89425568740E+03 0.  0.
         23    2    4    4    0    0 -0.23220372100E+03  0.15978516435E+03 -0.77089695572E+03  0.82571289977E+03  0.89832119634E+02 0.  0.
         23    2    4    4    0    0  0.38696215898E+03 -0.35254040151E+03 -0.38403650106E+03  0.65572872230E+03  0.92041707541E+02 0.  0.
          2    1    3    3  502    0 -0.81661521868E+02  0.11565092175E+03  0.20143709053E+03  0.24621259370E+03  0.00000000000E+00 0. -1.
         -1    1    3    3    0  502 -0.73096916115E+02  0.77104315405E+02  0.30030359278E+03  0.31854431785E+03  0.00000000000E+00 0.  1.
         11    1    5    5    0    0 -0.10729734362E+03  0.92375058202E+02 -0.50290273301E+03  0.52245289759E+03  0.00000000000E+00 0.  1.
        -11    1    5    5    0    0 -0.12490637737E+03  0.67410106152E+02 -0.26799422271E+03  0.30326000219E+03  0.00000000000E+00 0. -1.
          1    1    6    6  503    0  0.14813273394E+03 -0.17027478707E+03 -0.11922734895E+03  0.25524884077E+03  0.00000000000E+00 0. -1.
         -1    1    6    6    0  503  0.23882942504E+03 -0.18226561444E+03 -0.26480915211E+03  0.40047988153E+03  0.00000000000E+00 0.  1.
<mgrwt>
<rscale>  0 0.19391410E+04</rscale>
<asrwt>0</asrwt>
<pdfrwt beam="1">  1        2 0.20764548E+00 0.19391410E+04</pdfrwt>
<pdfrwt beam="2">  1       -1 0.10715429E+00 0.19391410E+04</pdfrwt>
<totfact> 0.13363841E+01</totfact>
</mgrwt>
</event>
<event>
12    6  0.1529770E-007  0.2104395E+04  0.7818608E-02  0.8559310E-01
          2   -1    0    0  501    0  0.00000000000E+00  0.00000000000E+00  0.12778724734E+04  0.12778724734E+04  0.00000000000E+00 0. -1.
         -1   -1    0    0    0  501 -0.00000000000E+00 -0.00000000000E+00 -0.86637699114E+03  0.86637699114E+03  0.00000000000E+00 0.  1.
         24    2    1    2    0    0  0.29233648219E+03  0.33345076874E+03 -0.55883029554E+03  0.71809226821E+03  0.81946155852E+02 0.  0.
        254    2    1    2    0    0 -0.29233648219E+03 -0.33345076874E+03  0.97032577778E+03  0.14261571963E+04  0.94643657977E+03 0.  0.
         23    2    4    4    0    0 -0.12404698417E+03  0.26525042068E+03  0.47256955936E+02  0.30975314658E+03  0.89265625973E+02 0.  0.
         23    2    4    4    0    0 -0.16828949802E+03 -0.59870118942E+03  0.92306882184E+03  0.11164040497E+04  0.86818678807E+02 0.  0.
          4    1    3    3  502    0  0.32135323336E+02  0.55566560216E+02 -0.44094964591E+02  0.77876103667E+02  0.00000000000E+00 0. -1.
         -3    1    3    3    0  502  0.26020115886E+03  0.27788420852E+03 -0.51473533095E+03  0.64021616455E+03  0.00000000000E+00 0.  1.
         11    1    5    5    0    0 -0.10277554314E+03  0.25810471953E+03  0.59610567955E+02  0.28413778053E+03  0.00000000000E+00 0.  1.
        -11    1    5    5    0    0 -0.21271441025E+02  0.71457011546E+01 -0.12353612019E+02  0.25615366056E+02  0.00000000000E+00 0. -1.
          3    1    6    6  503    0  0.61542235086E+01 -0.49213064014E+01  0.54021869571E+01  0.95539179194E+01  0.00000000000E+00 0. -1.
         -3    1    6    6    0  503 -0.17444372153E+03 -0.59377988302E+03  0.91766663488E+03  0.11068501318E+04  0.00000000000E+00 0.  1.
<mgrwt>
<rscale>  0 0.21043947E+04</rscale>
<asrwt>0</asrwt>
<pdfrwt beam="1">  1        2 0.19659577E+00 0.21043947E+04</pdfrwt>
<pdfrwt beam="2">  1       -1 0.13328877E+00 0.21043947E+04</pdfrwt>
<totfact> 0.85126112E+00</totfact>
</mgrwt>
</event>
<event>
12    6  0.1529770E-007  0.1431830E+04  0.7818608E-02  0.8931095E-01
         -1   -1    0    0    0  501 -0.00000000000E+00  0.00000000000E+00  0.25991973327E+03  0.25991973327E+03  0.00000000000E+00 0.  1.
          2   -1    0    0  501    0  0.00000000000E+00 -0.00000000000E+00 -0.19718956522E+04  0.19718956522E+04  0.00000000000E+00 0. -1.
         24    2    1    2    0    0 -0.26987830237E+03  0.29926330382E+03 -0.36187116715E+03  0.54672834315E+03  0.74621153070E+02 0.  0.
        254    2    1    2    0    0  0.26987830237E+03 -0.29926330382E+03 -0.13501047517E+04  0.16850870423E+04  0.92430659214E+03 0.  0.
         23    2    4    4    0    0  0.71151635362E+02 -0.58149961096E+03 -0.11007409249E+04  0.12502686620E+04  0.91306027576E+02 0.  0.
         23    2    4    4    0    0  0.19872666701E+03  0.28223630714E+03 -0.24936382679E+03  0.43481838023E+03  0.87949328745E+02 0.  0.
          4    1    3    3  502    0 -0.16968143651E+03  0.21056581822E+03 -0.19800277839E+03  0.33516392101E+03  0.00000000000E+00 0. -1.
         -3    1    3    3    0  502 -0.10019686587E+03  0.88697485607E+02 -0.16386838876E+03  0.21156442214E+03  0.00000000000E+00 0.  1.
         11    1    5    5    0    0 -0.12516546683E+01 -0.33253341975E+03 -0.58059935265E+03  0.66908568225E+03  0.00000000000E+00 0.  1.
        -11    1    5    5    0    0  0.72403290030E+02 -0.24896619121E+03 -0.52014157229E+03  0.58118297979E+03  0.00000000000E+00 0. -1.
          2    1    6    6  503    0  0.17205496083E+03  0.28099074347E+03 -0.22928413142E+03  0.40140991565E+03  0.00000000000E+00 0. -1.
         -2    1    6    6    0  503  0.26671706176E+02  0.12455636668E+01 -0.20079695376E+02  0.33408464580E+02  0.00000000000E+00 0.  1.
<mgrwt>
<rscale>  0 0.14318304E+04</rscale>
<asrwt>0</asrwt>
<pdfrwt beam="1">  1        2 0.30336857E+00 0.14318304E+04</pdfrwt>
<pdfrwt beam="2">  1       -1 0.39987651E-01 0.14318304E+04</pdfrwt>
<totfact> 0.46712612E+01</totfact>
</mgrwt>
</event>
<event>
12    6  0.1529770E-007  0.1158823E+04  0.7818608E-02  0.9149683E-01
          2   -1    0    0  501    0  0.00000000000E+00  0.00000000000E+00  0.69416169297E+03  0.69416169297E+03  0.00000000000E+00 0. -1.
         -1   -1    0    0    0  501 -0.00000000000E+00 -0.00000000000E+00 -0.48363009598E+03  0.48363009598E+03  0.00000000000E+00 0.  1.
         24    2    1    2    0    0 -0.10553175692E+02  0.14805235942E+03  0.20094556865E+03  0.26265362294E+03  0.81098294899E+02 0.  0.
        254    2    1    2    0    0  0.10553175692E+02 -0.14805235942E+03  0.95860283438E+01  0.91513816601E+03  0.90297015472E+03 0.  0.
         23    2    4    4    0    0  0.35712815624E+03 -0.18735223919E+03 -0.23802148527E+03  0.47768787395E+03  0.94287305368E+02 0.  0.
         23    2    4    4    0    0 -0.34657498055E+03  0.39299879774E+02  0.24760751361E+03  0.43745029207E+03  0.91621938082E+02 0.  0.
          4    1    3    3  502    0  0.94479402243E+01  0.90438641981E+02  0.17327096680E+03  0.19568147453E+03  0.00000000000E+00 0. -1.
         -3    1    3    3    0  502 -0.20001115916E+02  0.57613717438E+02  0.27674601849E+02  0.66972148408E+02  0.00000000000E+00 0.  1.
         11    1    5    5    0    0  0.84619002799E+02 -0.28950727357E+02 -0.12926749031E+02  0.90363826223E+02  0.00000000000E+00 0. -1.
        -11    1    5    5    0    0  0.27250915345E+03 -0.15840151184E+03 -0.22509473624E+03  0.38732404772E+03  0.00000000000E+00 0.  1.
          3    1    6    6  503    0 -0.19267623513E+03  0.50193457178E+02  0.95617907973E+02  0.22087620753E+03  0.00000000000E+00 0. -1.
         -3    1    6    6    0  503 -0.15389874542E+03 -0.10893577404E+02  0.15198960564E+03  0.21657408453E+03  0.00000000000E+00 0.  1.
<mgrwt>
<rscale>  0 0.11588227E+04</rscale>
<asrwt>0</asrwt>
<pdfrwt beam="1">  1        2 0.10679411E+00 0.11588227E+04</pdfrwt>
<pdfrwt beam="2">  1       -1 0.74404630E-01 0.11588227E+04</pdfrwt>
<totfact> 0.85107033E+01</totfact>
</mgrwt>
</event>
<event>
12    6  0.1529770E-007  0.3517030E+04  0.7818608E-02  0.8109766E-01
         -1   -1    0    0    0  501 -0.00000000000E+00  0.00000000000E+00  0.18009611109E+04  0.18009611109E+04  0.00000000000E+00 0.  1.
          2   -1    0    0  501    0  0.00000000000E+00 -0.00000000000E+00 -0.17170691469E+04  0.17170691469E+04  0.00000000000E+00 0. -1.
         24    2    1    2    0    0  0.95263032745E+03  0.11346282904E+04  0.74605086647E+03  0.16606791687E+04  0.79859298792E+02 0.  0.
        254    2    1    2    0    0 -0.95263032745E+03 -0.11346282904E+04 -0.66215890246E+03  0.18573510892E+04  0.90355561985E+03 0.  0.
         23    2    4    4    0    0 -0.63357613172E+03 -0.42527054358E+03  0.87262418432E+02  0.77308881442E+03  0.88192036993E+02 0.  0.
         23    2    4    4    0    0 -0.31905419573E+03 -0.70935774685E+03 -0.74942132089E+03  0.10842622748E+04  0.94912440886E+02 0.  0.
          4    1    3    3  502    0  0.80923043137E+03  0.95321495440E+03  0.66047596830E+03  0.14141078972E+04  0.00000000000E+00 0. -1.
         -3    1    3    3    0  502  0.14339989608E+03  0.18141333603E+03  0.85574898167E+02  0.24657127140E+03  0.00000000000E+00 0.  1.
         11    1    5    5    0    0 -0.38360277485E+03 -0.21949315290E+03  0.80568907910E+02  0.44924345512E+03  0.00000000000E+00 0. -1.
        -11    1    5    5    0    0 -0.24997335687E+03 -0.20577739068E+03  0.66935105222E+01  0.32384535930E+03  0.00000000000E+00 0.  1.
          1    1    6    6  503    0 -0.18136645158E+03 -0.37930637048E+03 -0.34050779524E+03  0.54102927007E+03  0.00000000000E+00 0. -1.
         -1    1    6    6    0  503 -0.13768774415E+03 -0.33005137637E+03 -0.40891352565E+03  0.54323300470E+03  0.00000000000E+00 0.  1.
<mgrwt>
<rscale>  0 0.35170299E+04</rscale>
<asrwt>0</asrwt>
<pdfrwt beam="1">  1        2 0.26416448E+00 0.35170299E+04</pdfrwt>
<pdfrwt beam="2">  1       -1 0.27707094E+00 0.35170299E+04</pdfrwt>
<totfact> 0.41658553E-01</totfact>
</mgrwt>
</event>
<event>
12    6  0.1529770E-007  0.1505049E+04  0.7818608E-02  0.8881102E-01
         -1   -1    0    0    0  501 -0.00000000000E+00  0.00000000000E+00  0.83608736715E+03  0.83608736715E+03  0.00000000000E+00 0.  1.
          2   -1    0    0  501    0  0.00000000000E+00 -0.00000000000E+00 -0.67731373703E+03  0.67731373703E+03  0.00000000000E+00 0. -1.
         24    2    1    2    0    0  0.17060279332E+02  0.19562592127E+03 -0.39150330002E+03  0.44519147369E+03  0.79749985063E+02 0.  0.
        254    2    1    2    0    0 -0.17060279332E+02 -0.19562592127E+03  0.55027693014E+03  0.10682096305E+04  0.89426313836E+03 0.  0.
         23    2    4    4    0    0  0.10414438824E+03  0.23064187654E+03  0.55347771487E+03  0.61563802768E+03  0.92902483565E+02 0.  0.
         23    2    4    4    0    0 -0.12120466757E+03 -0.42626779781E+03 -0.32007847343E+01  0.45257160281E+03  0.91738780007E+02 0.  0.
          4    1    3    3  502    0  0.26781716931E+02  0.19506943633E+03 -0.38751480805E+03  0.43466892207E+03  0.00000000000E+00 0. -1.
         -3    1    3    3    0  502 -0.97214375990E+01  0.55648494204E+00 -0.39884919643E+01  0.10522551622E+02  0.00000000000E+00 0.  1.
         11    1    5    5    0    0  0.73766623377E+02  0.12668966401E+03  0.41308566387E+03  0.43832813209E+03  0.00000000000E+00 0.  1.
        -11    1    5    5    0    0  0.30377764864E+02  0.10395221253E+03  0.14039205100E+03  0.17730989559E+03  0.00000000000E+00 0. -1.
          2    1    6    6  503    0 -0.62396461217E+02 -0.18878675649E+03  0.43415931578E+02  0.20351584929E+03  0.00000000000E+00 0. -1.
         -2    1    6    6    0  503 -0.58808206356E+02 -0.23748104132E+03 -0.46616716312E+02  0.24905575352E+03  0.00000000000E+00 0.  1.
<mgrwt>
<rscale>  0 0.15050494E+04</rscale>
<asrwt>0</asrwt>
<pdfrwt beam="1">  1        2 0.10420211E+00 0.15050494E+04</pdfrwt>
<pdfrwt beam="2">  1       -1 0.12862883E+00 0.15050494E+04</pdfrwt>
<totfact> 0.24551986E+01</totfact>
</mgrwt>
</event>
<event>
12    6  0.1529770E-007  0.2137175E+04  0.7818608E-02  0.8545042E-01
         -1   -1    0    0    0  501 -0.00000000000E+00  0.00000000000E+00  0.56447962440E+03  0.56447962440E+03  0.00000000000E+00 0.  1.
          2   -1    0    0  501    0  0.00000000000E+00 -0.00000000000E+00 -0.20228881501E+04  0.20228881501E+04  0.00000000000E+00 0. -1.
         24    2    1    2    0    0 -0.38344439201E+03  0.28744368445E+03  0.29527883154E+03  0.56979272329E+03  0.88434640625E+02 0.  0.
        254    2    1    2    0    0  0.38344439201E+03 -0.28744368445E+03 -0.17536873572E+04  0.20175750512E+04  0.87494929387E+03 0.  0.
         23    2    4    4    0    0 -0.19929269037E+03  0.11265157057E+03 -0.73054332829E+03  0.77079253732E+03  0.89552377417E+02 0.  0.
         23    2    4    4    0    0  0.58273708237E+03 -0.40009525502E+03 -0.10231440289E+04  0.12467825139E+04  0.89354421804E+02 0.  0.
          2    1    3    3  502    0 -0.18717469431E+03  0.11107443087E+03  0.17739711633E+03  0.28078752156E+03  0.00000000000E+00 0. -1.
         -1    1    3    3    0  502 -0.19626969769E+03  0.17636925359E+03  0.11788171522E+03  0.28900520173E+03  0.00000000000E+00 0.  1.
         11    1    5    5    0    0 -0.18258074159E+03  0.64081750287E+02 -0.54795181591E+03  0.58111392212E+03  0.00000000000E+00 0.  1.
        -11    1    5    5    0    0 -0.16711948779E+02  0.48569820280E+02 -0.18259151238E+03  0.18967861521E+03  0.00000000000E+00 0. -1.
          3    1    6    6  503    0  0.31675325061E+03 -0.26931239984E+03 -0.61584424514E+03  0.74305176451E+03  0.00000000000E+00 0. -1.
         -3    1    6    6    0  503  0.26598383177E+03 -0.13078285518E+03 -0.40729978378E+03  0.50373074934E+03  0.00000000000E+00 0.  1.
<mgrwt>
<rscale>  0 0.21371749E+04</rscale>
<asrwt>0</asrwt>
<pdfrwt beam="1">  1        2 0.31121356E+00 0.21371749E+04</pdfrwt>
<pdfrwt beam="2">  1       -1 0.86843019E-01 0.21371749E+04</pdfrwt>
<totfact> 0.88650327E+00</totfact>
</mgrwt>
</event>
<event>
12    6  0.1529770E-007  0.1661205E+04  0.7818608E-02  0.8783805E-01
          2   -1    0    0  501    0  0.00000000000E+00  0.00000000000E+00  0.27612224196E+04  0.27612224196E+04  0.00000000000E+00 0. -1.
         -1   -1    0    0    0  501 -0.00000000000E+00 -0.00000000000E+00 -0.24985315451E+03  0.24985315451E+03  0.00000000000E+00 0.  1.
         24    2    1    2    0    0 -0.16485441194E+03 -0.43378579288E+02  0.19003208217E+04  0.19099557943E+04  0.87482756007E+02 0.  0.
        254    2    1    2    0    0  0.16485441194E+03  0.43378579288E+02  0.61104844335E+03  0.11011197798E+04  0.90001438376E+03 0.  0.
         23    2    4    4    0    0  0.31577732650E+02 -0.39320006369E+03  0.11221301238E+03  0.41916052209E+03  0.86604502487E+02 0.  0.
         23    2    4    4    0    0  0.13327667929E+03  0.43657864298E+03  0.49883543097E+03  0.68195925766E+03  0.88702069744E+02 0.  0.
          4    1    3    3  502    0 -0.11066585326E+03 -0.53598497888E+02  0.15920702909E+04  0.15968116800E+04  0.00000000000E+00 0. -1.
         -3    1    3    3    0  502 -0.54188558673E+02  0.10219918599E+02  0.30825053075E+03  0.31314411433E+03  0.00000000000E+00 0.  1.
         11    1    5    5    0    0  0.48669063223E+02 -0.13349124305E+03  0.57027922843E+02  0.15310380031E+03  0.00000000000E+00 0. -1.
        -11    1    5    5    0    0 -0.17091330573E+02 -0.25970882064E+03  0.55185089534E+02  0.26605672178E+03  0.00000000000E+00 0.  1.
          2    1    6    6  503    0  0.59258123605E+02  0.31087200398E+03  0.37426143730E+03  0.49012707691E+03  0.00000000000E+00 0. -1.
         -2    1    6    6    0  503  0.74018555683E+02  0.12570663899E+03  0.12457399367E+03  0.19183218075E+03  0.00000000000E+00 0.  1.
<mgrwt>
<rscale>  0 0.16612045E+04</rscale>
<asrwt>0</asrwt>
<pdfrwt beam="1">  1        2 0.42480343E+00 0.16612045E+04</pdfrwt>
<pdfrwt beam="2">  1       -1 0.38438949E-01 0.16612045E+04</pdfrwt>
<totfact> 0.17432520E+01</totfact>
</mgrwt>
</event>
<event>
12    6  0.1529770E-007  0.1768015E+04  0.7818608E-02  0.8723496E-01
         -1   -1    0    0    0  501 -0.00000000000E+00  0.00000000000E+00  0.89372242609E+03  0.89372242609E+03  0.00000000000E+00 0.  1.
          2   -1    0    0  501    0  0.00000000000E+00 -0.00000000000E+00 -0.87439851183E+03  0.87439851183E+03  0.00000000000E+00 0. -1.
         24    2    1    2    0    0  0.11817812080E+03 -0.27889790098E+03  0.58435110606E+03  0.66275652419E+03  0.77652352108E+02 0.  0.
        254    2    1    2    0    0 -0.11817812080E+03  0.27889790098E+03 -0.56502719180E+03  0.11053644137E+04  0.90045802360E+03 0.  0.
         23    2    4    4    0    0  0.46991017471E+02  0.57937839848E+03 -0.41739535422E+03  0.72137338312E+03  0.90957087657E+02 0.  0.
         23    2    4    4    0    0 -0.16516913827E+03 -0.30048049751E+03 -0.14763183758E+03  0.38399103062E+03  0.89914284223E+02 0.  0.
          2    1    3    3  502    0  0.27318220440E+02 -0.34411428304E+02  0.14810916570E+03  0.15448869386E+03  0.00000000000E+00 0. -1.
         -1    1    3    3    0  502  0.90859900362E+02 -0.24448647267E+03  0.43624194037E+03  0.50826783033E+03  0.00000000000E+00 0.  1.
         11    1    5    5    0    0 -0.27340864120E+02  0.13063253843E+03 -0.97784027216E+02  0.16545119802E+03  0.00000000000E+00 0. -1.
        -11    1    5    5    0    0  0.74331881591E+02  0.44874586005E+03 -0.31961132700E+03  0.55592218510E+03  0.00000000000E+00 0.  1.
          1    1    6    6  503    0 -0.80266802709E+02 -0.21773493047E+03 -0.12397518769E+03  0.26309904357E+03  0.00000000000E+00 0. -1.
         -1    1    6    6    0  503 -0.84902335564E+02 -0.82745567032E+02 -0.23656649892E+02  0.12089198705E+03  0.00000000000E+00 0.  1.
<mgrwt>
<rscale>  0 0.17680153E+04</rscale>
<asrwt>0</asrwt>
<pdfrwt beam="1">  1        2 0.13452285E+00 0.17680153E+04</pdfrwt>
<pdfrwt beam="2">  1       -1 0.13749576E+00 0.17680153E+04</pdfrwt>
<totfact> 0.14489424E+01</totfact>
</mgrwt>
</event>
<event>
12    6  0.1529770E-007  0.1493190E+04  0.7818608E-02  0.8888994E-01
          2   -1    0    0  501    0  0.00000000000E+00  0.00000000000E+00  0.18525415035E+04  0.18525415035E+04  0.00000000000E+00 0. -1.
         -1   -1    0    0    0  501 -0.00000000000E+00 -0.00000000000E+00 -0.30088614344E+03  0.30088614344E+03  0.00000000000E+00 0.  1.
         24    2    1    2    0    0  0.13670679288E+03  0.96526812735E+02  0.11548114572E+04  0.11696518927E+04  0.80559764827E+02 0.  0.
        254    2    1    2    0    0 -0.13670679288E+03 -0.96526812735E+02  0.39684390287E+03  0.98377575422E+03  0.88449051920E+03 0.  0.
         23    2    4    4    0    0 -0.67991973959E+02  0.36836782774E+03  0.41703376676E+02  0.38791360482E+03  0.91760711306E+02 0.  0.
         23    2    4    4    0    0 -0.68714818922E+02 -0.46489464047E+03  0.35514052620E+03  0.59586214941E+03  0.89878555089E+02 0.  0.
          2    1    3    3  502    0  0.13499976563E+03  0.64796793347E+02  0.84020451423E+03  0.85344430802E+03  0.00000000000E+00 0. -1.
         -1    1    3    3    0  502  0.17070272504E+01  0.31730019388E+02  0.31460694297E+03  0.31620758472E+03  0.00000000000E+00 0.  1.
         11    1    5    5    0    0 -0.62093499355E+02  0.36275272624E+03  0.24456192112E+02  0.36884041046E+03  0.00000000000E+00 0. -1.
        -11    1    5    5    0    0 -0.58984746037E+01  0.56151014985E+01  0.17247184564E+02  0.19073194354E+02  0.00000000000E+00 0.  1.
          1    1    6    6  503    0 -0.39264970099E+02 -0.39958386681E+03  0.33069889528E+03  0.52016417008E+03  0.00000000000E+00 0. -1.
         -1    1    6    6    0  503 -0.29449848823E+02 -0.65310773669E+02  0.24441630913E+02  0.75697979330E+02  0.00000000000E+00 0.  1.
<mgrwt>
<rscale>  0 0.14931900E+04</rscale>
<asrwt>0</asrwt>
<pdfrwt beam="1">  1        2 0.28500638E+00 0.14931900E+04</pdfrwt>
<pdfrwt beam="2">  1       -1 0.46290177E-01 0.14931900E+04</pdfrwt>
<totfact> 0.41270838E+01</totfact>
</mgrwt>
</event>
<event>
12    6  0.1741067E-007  0.1976502E+04  0.7818608E-02  0.8617686E-01
         -1   -1    0    0    0  501 -0.00000000000E+00  0.00000000000E+00  0.10742663538E+04  0.10742663538E+04  0.00000000000E+00 0.  1.
          2   -1    0    0  501    0  0.00000000000E+00 -0.00000000000E+00 -0.90912307634E+03  0.90912307634E+03  0.00000000000E+00 0. -1.
         24    2    1    2    0    0  0.62308463934E+03 -0.41287145777E+03  0.30131181572E+03  0.80907092694E+03  0.71481788637E+02 0.  0.
        254    2    1    2    0    0 -0.62308463934E+03  0.41287145777E+03 -0.13616853827E+03  0.11743185032E+04  0.89542435062E+03 0.  0.
         23    2    4    4    0    0 -0.72165694900E+03  0.54314446178E+03  0.51334029236E+02  0.90932558949E+03  0.91886814818E+02 0.  0.
         23    2    4    4    0    0  0.98572309653E+02 -0.13027300402E+03 -0.18750256750E+03  0.26499291370E+03  0.91523088265E+02 0.  0.
          2    1    3    3  502    0  0.11447222316E+03 -0.65417838639E+02  0.81813830615E+02  0.15516728511E+03  0.00000000000E+00 0. -1.
         -1    1    3    3    0  502  0.50861241619E+03 -0.34745361913E+03  0.21949798510E+03  0.65390364184E+03  0.00000000000E+00 0.  1.
         11    1    5    5    0    0 -0.68485716743E+03  0.53486006814E+03  0.58483074974E+02  0.87093335126E+03  0.00000000000E+00 0.  1.
        -11    1    5    5    0    0 -0.36799781562E+02  0.82843936393E+01 -0.71490457379E+01  0.38392238226E+02  0.00000000000E+00 0. -1.
          3    1    6    6  503    0 -0.12144117769E+02 -0.11892696402E+02  0.19173818279E+00  0.16998605462E+02  0.00000000000E+00 0. -1.
         -3    1    6    6    0  503  0.11071642742E+03 -0.11838030761E+03 -0.18769430569E+03  0.24799430824E+03  0.00000000000E+00 0.  1.
<mgrwt>
<rscale>  0 0.19765023E+04</rscale>
<asrwt>0</asrwt>
<pdfrwt beam="1">  1        2 0.13986509E+00 0.19765023E+04</pdfrwt>
<pdfrwt beam="2">  1       -1 0.16527175E+00 0.19765023E+04</pdfrwt>
<totfact> 0.81893982E+00</totfact>
</mgrwt>
</event>
<event>
12    6  0.1529770E-007  0.2275769E+04  0.7818608E-02  0.8487537E-01
          2   -1    0    0  501    0  0.00000000000E+00  0.00000000000E+00  0.14522655536E+04  0.14522655536E+04  0.00000000000E+00 0. -1.
         -1   -1    0    0    0  501 -0.00000000000E+00 -0.00000000000E+00 -0.89155966253E+03  0.89155966253E+03  0.00000000000E+00 0.  1.
         24    2    1    2    0    0  0.13815839987E+03  0.92081324186E+03 -0.16283796196E+02  0.93474686392E+03  0.80633539898E+02 0.  0.
        254    2    1    2    0    0 -0.13815839987E+03 -0.92081324186E+03  0.57698968722E+03  0.14090783522E+04  0.88634075475E+03 0.  0.
         23    2    4    4    0    0 -0.25064475501E+03 -0.48281977776E+03  0.73760375870E+03  0.92101131085E+03  0.90910939148E+02 0.  0.
         23    2    4    4    0    0  0.11248635513E+03 -0.43799346410E+03 -0.16061407147E+03  0.48806704132E+03  0.89000574050E+02 0.  0.
          4    1    3    3  502    0  0.33255316476E+02  0.11662465950E+03 -0.24403946502E+02  0.12370440527E+03  0.00000000000E+00 0. -1.
         -3    1    3    3    0  502  0.10490308340E+03  0.80418858235E+03  0.81201503069E+01  0.81104245865E+03  0.00000000000E+00 0.  1.
         11    1    5    5    0    0 -0.69969990321E+02 -0.10591333884E+03  0.11605027437E+03  0.17199157267E+03  0.00000000000E+00 0.  1.
        -11    1    5    5    0    0 -0.18067476469E+03 -0.37690643892E+03  0.62155348433E+03  0.74901973817E+03  0.00000000000E+00 0. -1.
          4    1    6    6  503    0  0.11948147536E+03 -0.36953341176E+03 -0.11331402505E+03  0.40456252129E+03  0.00000000000E+00 0. -1.
         -4    1    6    6    0  503 -0.69951202238E+01 -0.68460052343E+02 -0.47300046426E+02  0.83504520032E+02  0.00000000000E+00 0.  1.
<mgrwt>
<rscale>  0 0.22757692E+04</rscale>
<asrwt>0</asrwt>
<pdfrwt beam="1">  1        2 0.22342547E+00 0.22757692E+04</pdfrwt>
<pdfrwt beam="2">  1       -1 0.13716303E+00 0.22757692E+04</pdfrwt>
<totfact> 0.61823273E+00</totfact>
</mgrwt>
</event>
<event>
12    6  0.1529770E-007  0.2009076E+04  0.7818608E-02  0.8602389E-01
          2   -1    0    0  501    0  0.00000000000E+00  0.00000000000E+00  0.22474287808E+04  0.22474287808E+04  0.00000000000E+00 0. -1.
         -1   -1    0    0    0  501 -0.00000000000E+00 -0.00000000000E+00 -0.44900026151E+03  0.44900026151E+03  0.00000000000E+00 0.  1.
         24    2    1    2    0    0 -0.78394092905E+03  0.63538983862E+02  0.99333314258E+03  0.12696797591E+04  0.82312670508E+02 0.  0.
        254    2    1    2    0    0  0.78394092905E+03 -0.63538983862E+02  0.80509537673E+03  0.14267492833E+04  0.87683200726E+03 0.  0.
         23    2    4    4    0    0  0.63456266985E+03 -0.37218634229E+03  0.77024579696E+03  0.10697236285E+04  0.99184667879E+02 0.  0.
         23    2    4    4    0    0  0.14937825920E+03  0.30864735843E+03  0.34849579775E+02  0.35702565474E+03  0.93143806810E+02 0.  0.
          2    1    3    3  502    0 -0.77767276209E+03  0.69925890797E+02  0.97368257433E+03  0.12480874611E+04  0.00000000000E+00 0. -1.
         -1    1    3    3    0  502 -0.62681669625E+01 -0.63869069355E+01  0.19650568253E+02  0.21592297931E+02  0.00000000000E+00 0.  1.
         11    1    5    5    0    0  0.25403933505E+03 -0.20548632267E+03  0.32896034989E+03  0.46365453126E+03  0.00000000000E+00 0. -1.
        -11    1    5    5    0    0  0.38052333480E+03 -0.16670001962E+03  0.44128544707E+03  0.60606909727E+03  0.00000000000E+00 0.  1.
          3    1    6    6  503    0  0.82728170182E+02  0.20318943842E+03  0.64744725832E+02  0.22873954086E+03  0.00000000000E+00 0. -1.
         -3    1    6    6    0  503  0.66650089018E+02  0.10545792001E+03 -0.29895146058E+02  0.12828611389E+03  0.00000000000E+00 0.  1.
<mgrwt>
<rscale>  0 0.20090755E+04</rscale>
<asrwt>0</asrwt>
<pdfrwt beam="1">  1        2 0.34575827E+00 0.20090755E+04</pdfrwt>
<pdfrwt beam="2">  1       -1 0.69076965E-01 0.20090755E+04</pdfrwt>
<totfact> 0.10880975E+01</totfact>
</mgrwt>
</event>
<event>
12    6  0.1529770E-007  0.2443731E+04  0.7818608E-02  0.8423311E-01
          2   -1    0    0  501    0  0.00000000000E+00  0.00000000000E+00  0.25332234525E+04  0.25332234525E+04  0.00000000000E+00 0. -1.
         -1   -1    0    0    0  501 -0.00000000000E+00 -0.00000000000E+00 -0.58934987293E+03  0.58934987293E+03  0.00000000000E+00 0.  1.
         24    2    1    2    0    0  0.14673294923E+03  0.10453217951E+04  0.85466144611E+03  0.13605002600E+04  0.79287805996E+02 0.  0.
        254    2    1    2    0    0 -0.14673294923E+03 -0.10453217951E+04  0.10892121335E+04  0.17620730655E+04  0.89682228047E+03 0.  0.
         23    2    4    4    0    0  0.21215220943E+02 -0.85495857021E+03  0.11920893704E+04  0.14699956402E+04  0.91683546603E+02 0.  0.
         23    2    4    4    0    0 -0.16794817018E+03 -0.19036322489E+03 -0.10287723696E+03  0.29207742530E+03  0.10139403944E+03 0.  0.
          2    1    3    3  502    0  0.75431219284E+02  0.51992579645E+03  0.47623773380E+03  0.70909455064E+03  0.00000000000E+00 0. -1.
         -1    1    3    3    0  502  0.71301729949E+02  0.52539599864E+03  0.37842371231E+03  0.65140570931E+03  0.00000000000E+00 0.  1.
         11    1    5    5    0    0  0.25925690231E+02 -0.35091000100E+03  0.41980851646E+03  0.54776743304E+03  0.00000000000E+00 0.  1.
        -11    1    5    5    0    0 -0.47104692880E+01 -0.50404856921E+03  0.77228085398E+03  0.92222820715E+03  0.00000000000E+00 0. -1.
          4    1    6    6  503    0  0.54122289208E+01 -0.25113854209E+02  0.96689545934E+01  0.27449709981E+02  0.00000000000E+00 0. -1.
         -4    1    6    6    0  503 -0.17336039910E+03 -0.16524937068E+03 -0.11254619155E+03  0.26462771532E+03  0.00000000000E+00 0.  1.
<mgrwt>
<rscale>  0 0.24437307E+04</rscale>
<asrwt>0</asrwt>
<pdfrwt beam="1">  1        2 0.38972668E+00 0.24437307E+04</pdfrwt>
<pdfrwt beam="2">  1       -1 0.90669212E-01 0.24437307E+04</pdfrwt>
<totfact> 0.40320627E+00</totfact>
</mgrwt>
</event>
<event>
12    6  0.1529770E-007  0.2444245E+04  0.7818608E-02  0.8423122E-01
          2   -1    0    0  501    0  0.00000000000E+00  0.00000000000E+00  0.10252265331E+04  0.10252265331E+04  0.00000000000E+00 0. -1.
         -1   -1    0    0    0  501 -0.00000000000E+00 -0.00000000000E+00 -0.14568324744E+04  0.14568324744E+04  0.00000000000E+00 0.  1.
         24    2    1    2    0    0  0.52625623761E+03  0.73255667639E+03  0.36619732494E+03  0.97770732459E+03  0.90698511591E+02 0.  0.
        254    2    1    2    0    0 -0.52625623761E+03 -0.73255667639E+03 -0.79780326619E+03  0.15043516829E+04  0.90166458435E+03 0.  0.
         23    2    4    4    0    0 -0.26810295728E+03 -0.14585024672E+03  0.15376384242E+03  0.35331692717E+03  0.89655126005E+02 0.  0.
         23    2    4    4    0    0 -0.25815328034E+03 -0.58670642967E+03 -0.95156710862E+03  0.11510347558E+04  0.92376923715E+02 0.  0.
          4    1    3    3  502    0  0.50425759143E+03  0.67340333844E+03  0.35715421324E+03  0.91395126061E+03  0.00000000000E+00 0. -1.
         -3    1    3    3    0  502  0.21998646181E+02  0.59153337946E+02  0.90431117051E+01  0.63756063973E+02  0.00000000000E+00 0.  1.
         11    1    5    5    0    0 -0.12790856711E+02 -0.26644325613E+02  0.39327353409E+02  0.49195191116E+02  0.00000000000E+00 0. -1.
        -11    1    5    5    0    0 -0.25531210057E+03 -0.11920592110E+03  0.11443648902E+03  0.30412173605E+03  0.00000000000E+00 0.  1.
          1    1    6    6  503    0 -0.17973726931E+03 -0.32017852853E+03 -0.59228565251E+03  0.69686589118E+03  0.00000000000E+00 0. -1.
         -1    1    6    6    0  503 -0.78416011027E+02 -0.26652790114E+03 -0.35928145610E+03  0.45416886460E+03  0.00000000000E+00 0.  1.
<mgrwt>
<rscale>  0 0.24442449E+04</rscale>
<asrwt>0</asrwt>
<pdfrwt beam="1">  1        2 0.15772716E+00 0.24442449E+04</pdfrwt>
<pdfrwt beam="2">  1       -1 0.22412807E+00 0.24442449E+04</pdfrwt>
<totfact> 0.25601754E+00</totfact>
</mgrwt>
</event>
<event>
12    6  0.1529770E-007  0.2422602E+04  0.7818608E-02  0.8431090E-01
         -1   -1    0    0    0  501 -0.00000000000E+00  0.00000000000E+00  0.88922332987E+03  0.88922332987E+03  0.00000000000E+00 0.  1.
          2   -1    0    0  501    0  0.00000000000E+00 -0.00000000000E+00 -0.16500362364E+04  0.16500362364E+04  0.00000000000E+00 0. -1.
         24    2    1    2    0    0  0.99886061307E+02 -0.76750524044E+03 -0.10660098867E+04  0.13198680102E+04  0.81443024943E+02 0.  0.
        254    2    1    2    0    0 -0.99886061307E+02  0.76750524044E+03  0.30519698023E+03  0.12193915561E+04  0.89147577137E+03 0.  0.
         23    2    4    4    0    0 -0.25697757915E+03  0.82980847800E+03  0.44726966586E+03  0.98124036482E+03  0.90348841798E+02 0.  0.
         23    2    4    4    0    0  0.15709151784E+03 -0.62303237561E+02 -0.14207268563E+03  0.23815119125E+03  0.89285516777E+02 0.  0.
          2    1    3    3  502    0  0.75245765746E+02 -0.71968139622E+03 -0.97555427341E+03  0.12146231423E+04  0.00000000000E+00 0. -1.
         -1    1    3    3    0  502  0.24640295561E+02 -0.47823844217E+02 -0.90455613312E+02  0.10524486791E+03  0.00000000000E+00 0.  1.
         11    1    5    5    0    0 -0.18136306051E+03  0.47503355582E+03  0.22691220834E+03  0.55681108930E+03  0.00000000000E+00 0.  1.
        -11    1    5    5    0    0 -0.75614518637E+02  0.35477492218E+03  0.22035745753E+03  0.42442927553E+03  0.00000000000E+00 0. -1.
          1    1    6    6  503    0  0.43949305235E+02 -0.39037301660E+02 -0.98479321983E+02  0.11468927243E+03  0.00000000000E+00 0. -1.
         -1    1    6    6    0  503  0.11314221261E+03 -0.23265935901E+02 -0.43593363645E+02  0.12346191883E+03  0.00000000000E+00 0.  1.
<mgrwt>
<rscale>  0 0.24226025E+04</rscale>
<asrwt>0</asrwt>
<pdfrwt beam="1">  1        2 0.25385173E+00 0.24226025E+04</pdfrwt>
<pdfrwt beam="2">  1       -1 0.13680359E+00 0.24226025E+04</pdfrwt>
<totfact> 0.47575685E+00</totfact>
</mgrwt>
</event>
<event>
12    6  0.1529770E-007  0.1353424E+04  0.7818608E-02  0.8988240E-01
         -1   -1    0    0    0  501 -0.00000000000E+00  0.00000000000E+00  0.25502039034E+03  0.25502039034E+03  0.00000000000E+00 0.  1.
          2   -1    0    0  501    0  0.00000000000E+00 -0.00000000000E+00 -0.17956954816E+04  0.17956954816E+04  0.00000000000E+00 0. -1.
         24    2    1    2    0    0 -0.39320357590E+02  0.12270381635E+03  0.92754378242E+02  0.17871979361E+03  0.82067489777E+02 0.  0.
        254    2    1    2    0    0  0.39320357590E+02 -0.12270381635E+03 -0.16334294695E+04  0.18719960783E+04  0.90535913779E+03 0.  0.
         23    2    4    4    0    0  0.20666065233E+03 -0.41118905407E+03 -0.13358230215E+04  0.14157390867E+04  0.90049728770E+02 0.  0.
         23    2    4    4    0    0 -0.16734029474E+03  0.28848523773E+03 -0.29760644803E+03  0.45625699158E+03  0.91511408192E+02 0.  0.
          2    1    3    3  502    0 -0.62562029980E+01  0.71463046262E+02  0.50712945275E+01  0.71915402280E+02  0.00000000000E+00 0. -1.
         -1    1    3    3    0  502 -0.33064154592E+02  0.51240770084E+02  0.87683083715E+02  0.10680439133E+03  0.00000000000E+00 0.  1.
         11    1    5    5    0    0  0.12383586624E+03 -0.25912650784E+03 -0.95808854195E+03  0.10002077399E+04  0.00000000000E+00 0. -1.
        -11    1    5    5    0    0  0.82824786088E+02 -0.15206254623E+03 -0.37773447950E+03  0.41553134679E+03  0.00000000000E+00 0.  1.
          1    1    6    6  503    0 -0.11703931691E+02  0.72511633387E+02 -0.31714096449E+02  0.80004393049E+02  0.00000000000E+00 0. -1.
         -1    1    6    6    0  503 -0.15563636304E+03  0.21597360434E+03 -0.26589235158E+03  0.37625259853E+03  0.00000000000E+00 0.  1.
<mgrwt>
<rscale>  0 0.13534238E+04</rscale>
<asrwt>0</asrwt>
<pdfrwt beam="1">  1        2 0.27626084E+00 0.13534238E+04</pdfrwt>
<pdfrwt beam="2">  1       -1 0.39233906E-01 0.13534238E+04</pdfrwt>
<totfact> 0.60916354E+01</totfact>
</mgrwt>
</event>
<event>
12    6  0.1529770E-007  0.2910235E+04  0.7818608E-02  0.8269839E-01
          2   -1    0    0  501    0  0.00000000000E+00  0.00000000000E+00  0.13148752612E+04  0.13148752612E+04  0.00000000000E+00 0. -1.
         -1   -1    0    0    0  501 -0.00000000000E+00 -0.00000000000E+00 -0.16103174059E+04  0.16103174059E+04  0.00000000000E+00 0.  1.
         24    2    1    2    0    0  0.20478985317E+03 -0.91379315983E+03  0.79567490801E+03  0.12314210514E+04  0.79639335772E+02 0.  0.
        254    2    1    2    0    0 -0.20478985317E+03  0.91379315983E+03 -0.10911170527E+04  0.16937716156E+04  0.89519218052E+03 0.  0.
         23    2    4    4    0    0  0.14777378738E+02  0.52229108722E+03 -0.11160644091E+04  0.12357363316E+04  0.91859486682E+02 0.  0.
         23    2    4    4    0    0 -0.21956723191E+03  0.39150207261E+03  0.24947356354E+02  0.45803528398E+03  0.87694404574E+02 0.  0.
          4    1    3    3  502    0  0.16453689868E+03 -0.71832130858E+03  0.58192922620E+03  0.93898856100E+03  0.00000000000E+00 0. -1.
         -3    1    3    3    0  502  0.40252954486E+02 -0.19547185125E+03  0.21374568181E+03  0.29243249045E+03  0.00000000000E+00 0.  1.
         11    1    5    5    0    0  0.44723044538E+02  0.31320857650E+03 -0.60468508563E+03  0.68245425919E+03  0.00000000000E+00 0.  1.
        -11    1    5    5    0    0 -0.29945665800E+02  0.20908251072E+03 -0.51137932345E+03  0.55328207241E+03  0.00000000000E+00 0. -1.
          2    1    6    6  503    0 -0.10704524545E+03  0.27551816002E+03  0.22207561915E+02  0.29641544643E+03  0.00000000000E+00 0.  1.
         -2    1    6    6    0  503 -0.11252198646E+03  0.11598391259E+03  0.27397944394E+01  0.16161983755E+03  0.00000000000E+00 0. -1.
<mgrwt>
<rscale>  0 0.29102347E+04</rscale>
<asrwt>0</asrwt>
<pdfrwt beam="1">  1        2 0.20228850E+00 0.29102347E+04</pdfrwt>
<pdfrwt beam="2">  1       -1 0.24774114E+00 0.29102347E+04</pdfrwt>
<totfact> 0.11481371E+00</totfact>
</mgrwt>
</event>
<event>
12    6  0.1529770E-007  0.1486120E+04  0.7818608E-02  0.8893736E-01
         -3   -1    0    0    0  501 -0.00000000000E+00  0.00000000000E+00  0.23757427505E+04  0.23757427505E+04  0.00000000000E+00 0.  1.
          4   -1    0    0  501    0  0.00000000000E+00 -0.00000000000E+00 -0.23240654544E+03  0.23240654544E+03  0.00000000000E+00 0. -1.
         24    2    1    2    0    0 -0.16508027413E+03  0.47197806476E+02  0.14266828683E+04  0.14392931975E+04  0.81619678485E+02 0.  0.
        254    2    1    2    0    0  0.16508027413E+03 -0.47197806476E+02  0.71665333673E+03  0.11688560984E+04  0.90727804108E+03 0.  0.
         23    2    4    4    0    0  0.16175029415E+03  0.20508207738E+03 -0.11212215162E+03  0.29767986629E+03  0.88431384630E+02 0.  0.
         23    2    4    4    0    0  0.33299799767E+01 -0.25227988386E+03  0.82877548835E+03  0.87117623209E+03  0.91776841886E+02 0.  0.
          4    1    3    3  502    0  0.66812503701E+01 -0.16411796579E+01  0.15287299265E+03  0.15302772448E+03  0.00000000000E+00 0. -1.
         -3    1    3    3    0  502 -0.17176152450E+03  0.48838986133E+02  0.12738098756E+04  0.12862654731E+04  0.00000000000E+00 0.  1.
         11    1    5    5    0    0  0.15836444487E+03  0.14244853671E+03 -0.88375095347E+02  0.23061014827E+03  0.00000000000E+00 0.  1.
        -11    1    5    5    0    0  0.33858492812E+01  0.62633540675E+02 -0.23747056270E+02  0.67069718013E+02  0.00000000000E+00 0. -1.
          4    1    6    6  503    0  0.10034860896E+02 -0.97420053459E+02  0.18871273510E+03  0.21261199787E+03  0.00000000000E+00 0. -1.
         -4    1    6    6    0  503 -0.67048809197E+01 -0.15485983040E+03  0.64006275325E+03  0.65856423422E+03  0.00000000000E+00 0.  1.
<mgrwt>
<rscale>  0 0.14861200E+04</rscale>
<asrwt>0</asrwt>
<pdfrwt beam="1">  1        4 0.35754855E-01 0.14861200E+04</pdfrwt>
<pdfrwt beam="2">  1       -3 0.36549887E+00 0.14861200E+04</pdfrwt>
<totfact> 0.28041733E-01</totfact>
</mgrwt>
</event>
<event>
12    6  0.1529770E-007  0.1242087E+04  0.7818608E-02  0.9076795E-01
         -1   -1    0    0    0  501 -0.00000000000E+00  0.00000000000E+00  0.32094025939E+03  0.32094025939E+03  0.00000000000E+00 0.  1.
          2   -1    0    0  501    0  0.00000000000E+00 -0.00000000000E+00 -0.12017664316E+04  0.12017664316E+04  0.00000000000E+00 0. -1.
         24    2    1    2    0    0  0.14610518200E+03  0.24113201258E+03 -0.31221921447E+03  0.42841833150E+03  0.81055889252E+02 0.  0.
        254    2    1    2    0    0 -0.14610518200E+03 -0.24113201258E+03 -0.56860695775E+03  0.10942883595E+04  0.89143803465E+03 0.  0.
         23    2    4    4    0    0 -0.34589184846E+03 -0.25394237252E+03  0.46017988548E+02  0.44130912976E+03  0.92239868509E+02 0.  0.
         23    2    4    4    0    0  0.19978666646E+03  0.12810359933E+02 -0.61462494630E+03  0.65297922973E+03  0.92407967377E+02 0.  0.
          4    1    3    3  502    0  0.14022130997E+03  0.19397064707E+03 -0.28982630268E+03  0.37588018492E+03  0.00000000000E+00 0. -1.
         -3    1    3    3    0  502  0.58838720273E+01  0.47161365517E+02 -0.22392911794E+02  0.52538146580E+02  0.00000000000E+00 0.  1.
         11    1    5    5    0    0 -0.24241065091E+03 -0.16557919122E+03 -0.11004356828E+02  0.29376944720E+03  0.00000000000E+00 0. -1.
        -11    1    5    5    0    0 -0.10348119755E+03 -0.88363181302E+02  0.57022345377E+02  0.14753968256E+03  0.00000000000E+00 0.  1.
          4    1    6    6  503    0  0.29997294734E+02 -0.52744599822E+01 -0.25862274843E+02  0.39956412246E+02  0.00000000000E+00 0. -1.
         -4    1    6    6    0  503  0.16978937173E+03  0.18084819915E+02 -0.58876267145E+03  0.61302281749E+03  0.00000000000E+00 0.  1.
<mgrwt>
<rscale>  0 0.12420873E+04</rscale>
<asrwt>0</asrwt>
<pdfrwt beam="1">  1        2 0.18488714E+00 0.12420873E+04</pdfrwt>
<pdfrwt beam="2">  1       -1 0.49375425E-01 0.12420873E+04</pdfrwt>
<totfact> 0.87116993E+01</totfact>
</mgrwt>
</event>
<event>
12    6  0.1529770E-007  0.2002919E+04  0.7818608E-02  0.8605257E-01
          2   -1    0    0  501    0  0.00000000000E+00  0.00000000000E+00  0.23967859716E+04  0.23967859716E+04  0.00000000000E+00 0. -1.
         -1   -1    0    0    0  501 -0.00000000000E+00 -0.00000000000E+00 -0.41844434760E+03  0.41844434760E+03  0.00000000000E+00 0.  1.
         24    2    1    2    0    0  0.74072549320E+03 -0.13927055127E+03  0.43490930089E+03  0.87430381447E+03  0.84796917746E+02 0.  0.
        254    2    1    2    0    0 -0.74072549320E+03  0.13927055127E+03  0.15434323231E+04  0.19409265047E+04  0.90384833792E+03 0.  0.
         23    2    4    4    0    0 -0.89067512431E+03  0.19984752821E+02  0.14606685820E+04  0.17133032248E+04  0.90297653240E+02 0.  0.
         23    2    4    4    0    0  0.14994963110E+03  0.11928579845E+03  0.82763741059E+02  0.22762327990E+03  0.90821402426E+02 0.  0.
          4    1    3    3  502    0  0.60943039244E+03 -0.14398333718E+03  0.34328062870E+03  0.71412757590E+03  0.00000000000E+00 0. -1.
         -3    1    3    3    0  502  0.13129510076E+03  0.47127859104E+01  0.91628672184E+02  0.16017623856E+03  0.00000000000E+00 0.  1.
         11    1    5    5    0    0 -0.57618246826E+02  0.20999261121E+02  0.80335123235E+02  0.10106712304E+03  0.00000000000E+00 0.  1.
        -11    1    5    5    0    0 -0.83305687748E+03 -0.10145082999E+01  0.13803334588E+04  0.16122361017E+04  0.00000000000E+00 0. -1.
          3    1    6    6  503    0  0.15680912209E+03  0.12695027640E+03  0.78957660791E+02  0.21665591532E+03  0.00000000000E+00 0. -1.
         -3    1    6    6    0  503 -0.68594909838E+01 -0.76644779469E+01  0.38060802686E+01  0.10967364577E+02  0.00000000000E+00 0.  1.
<mgrwt>
<rscale>  0 0.20029194E+04</rscale>
<asrwt>0</asrwt>
<pdfrwt beam="1">  1        2 0.36873630E+00 0.20029194E+04</pdfrwt>
<pdfrwt beam="2">  1       -1 0.64376054E-01 0.20029194E+04</pdfrwt>
<totfact> 0.10332347E+01</totfact>
</mgrwt>
</event>
<event>
12    6  0.1529770E-007  0.2708761E+04  0.7818608E-02  0.8332168E-01
         -1   -1    0    0    0  501 -0.00000000000E+00  0.00000000000E+00  0.80158503847E+03  0.80158503847E+03  0.00000000000E+00 0.  1.
          2   -1    0    0  501    0  0.00000000000E+00 -0.00000000000E+00 -0.22883995989E+04  0.22883995989E+04  0.00000000000E+00 0. -1.
         24    2    1    2    0    0 -0.79779172940E+03  0.36501385955E+03  0.27357434558E+03  0.92242896659E+03  0.79533104363E+02 0.  0.
        254    2    1    2    0    0  0.79779172940E+03 -0.36501385955E+03 -0.17603889060E+04  0.21675556708E+04  0.91083572855E+03 0.  0.
         23    2    4    4    0    0  0.35469766790E+03 -0.27361082998E+01 -0.60973760690E+02  0.37202864626E+03  0.94178512645E+02 0.  0.
         23    2    4    4    0    0  0.44309406150E+03 -0.36227775125E+03 -0.16994151454E+04  0.17955270246E+04  0.91257565545E+02 0.  0.
          2    1    3    3  502    0 -0.53955256733E+00  0.67666483674E+01  0.33278663233E+01  0.75599828946E+01  0.00000000000E+00 0. -1.
         -1    1    3    3    0  502 -0.79725217683E+03  0.35824721118E+03  0.27024647926E+03  0.91486898370E+03  0.00000000000E+00 0.  1.
         11    1    5    5    0    0  0.15150375328E+03 -0.10996302972E+02 -0.72548589026E+02  0.16833776673E+03  0.00000000000E+00 0. -1.
        -11    1    5    5    0    0  0.20319391461E+03  0.82601946727E+01  0.11574828336E+02  0.20369087953E+03  0.00000000000E+00 0.  1.
          2    1    6    6  503    0  0.17723049563E+02 -0.40199642093E+02 -0.93703752642E+02  0.10349159854E+03  0.00000000000E+00 0. -1.
         -2    1    6    6    0  503  0.42537101194E+03 -0.32207810915E+03 -0.16057113927E+04  0.16920354260E+04  0.00000000000E+00 0.  1.
<mgrwt>
<rscale>  0 0.27087613E+04</rscale>
<asrwt>0</asrwt>
<pdfrwt beam="1">  1        2 0.35206148E+00 0.27087613E+04</pdfrwt>
<pdfrwt beam="2">  1       -1 0.12332077E+00 0.27087613E+04</pdfrwt>
<totfact> 0.26554538E+00</totfact>
</mgrwt>
</event>
<event>
12    6  0.1529770E-007  0.1670604E+04  0.7818608E-02  0.8778310E-01
         -1   -1    0    0    0  501 -0.00000000000E+00  0.00000000000E+00  0.85627454264E+03  0.85627454264E+03  0.00000000000E+00 0.  1.
          2   -1    0    0  501    0  0.00000000000E+00 -0.00000000000E+00 -0.81484354485E+03  0.81484354485E+03  0.00000000000E+00 0. -1.
         24    2    1    2    0    0  0.20119278283E+03  0.15767547703E+03 -0.51444342309E+03  0.57979625748E+03  0.78559357836E+02 0.  0.
        254    2    1    2    0    0 -0.20119278283E+03 -0.15767547703E+03  0.55587442088E+03  0.10913218300E+04  0.90368516251E+03 0.  0.
         23    2    4    4    0    0 -0.45274540983E+03  0.16757571067E+03  0.16813781778E+03  0.51908319686E+03  0.90094475780E+02 0.  0.
         23    2    4    4    0    0  0.25155262700E+03 -0.32525118770E+03  0.38773660311E+03  0.57223863315E+03  0.89723578968E+02 0.  0.
          4    1    3    3  502    0  0.75609236489E+02  0.10577774234E+03 -0.28237351963E+03  0.31087053898E+03  0.00000000000E+00 0. -1.
         -3    1    3    3    0  502  0.12558354634E+03  0.51897734694E+02 -0.23206990346E+03  0.26892571850E+03  0.00000000000E+00 0.  1.
         11    1    5    5    0    0 -0.32022724735E+03  0.15428667825E+03  0.14505374601E+03  0.38391464971E+03  0.00000000000E+00 0.  1.
        -11    1    5    5    0    0 -0.13251816248E+03  0.13289032428E+02  0.23084071771E+02  0.13516854715E+03  0.00000000000E+00 0. -1.
          3    1    6    6  503    0  0.22412907224E+03 -0.26870436478E+03  0.36440981973E+03  0.50520331886E+03  0.00000000000E+00 0. -1.
         -3    1    6    6    0  503  0.27423554759E+02 -0.56546822921E+02  0.23326783378E+02  0.67035314281E+02  0.00000000000E+00 0.  1.
<mgrwt>
<rscale>  0 0.16706044E+04</rscale>
<asrwt>0</asrwt>
<pdfrwt beam="1">  1        2 0.12536054E+00 0.16706044E+04</pdfrwt>
<pdfrwt beam="2">  1       -1 0.13173455E+00 0.16706044E+04</pdfrwt>
<totfact> 0.17946876E+01</totfact>
</mgrwt>
</event>
<event>
12    6  0.1529770E-007  0.1733716E+04  0.7818608E-02  0.8742365E-01
         -1   -1    0    0    0  501 -0.00000000000E+00  0.00000000000E+00  0.78682300642E+03  0.78682300642E+03  0.00000000000E+00 0.  1.
          2   -1    0    0  501    0  0.00000000000E+00 -0.00000000000E+00 -0.95503450977E+03  0.95503450977E+03  0.00000000000E+00 0. -1.
         24    2    1    2    0    0 -0.11018883836E+01 -0.16024676220E+03  0.55496610689E+03  0.58317002321E+03  0.80122763486E+02 0.  0.
        254    2    1    2    0    0  0.11018883836E+01  0.16024676220E+03 -0.72317761024E+03  0.11586874930E+04  0.89100539363E+03 0.  0.
         23    2    4    4    0    0 -0.52904811752E+02 -0.29411261252E+03 -0.21480634220E+02  0.31603508577E+03  0.10057638807E+03 0.  0.
         23    2    4    4    0    0  0.54006700136E+02  0.45435937473E+03 -0.70169697602E+03  0.84265240721E+03  0.91242907488E+02 0.  0.
          4    1    3    3  502    0 -0.13789398975E+02 -0.74615293178E+01  0.14414613323E+02  0.21297958144E+02  0.00000000000E+00 0. -1.
         -3    1    3    3    0  502  0.12687510592E+02 -0.15278523288E+03  0.54055149356E+03  0.56187206507E+03  0.00000000000E+00 0.  1.
         11    1    5    5    0    0 -0.25194884409E+02 -0.15026963540E+02 -0.20122364393E+02  0.35573886242E+02  0.00000000000E+00 0.  1.
        -11    1    5    5    0    0 -0.27709927343E+02 -0.27908564899E+03 -0.13582698270E+01  0.28046119953E+03  0.00000000000E+00 0. -1.
          1    1    6    6  503    0  0.69070157928E+02  0.38173537106E+03 -0.62756311479E+03  0.73778590612E+03  0.00000000000E+00 0. -1.
         -1    1    6    6    0  503 -0.15063457792E+02  0.72624003671E+02 -0.74133861227E+02  0.10486650109E+03  0.00000000000E+00 0.  1.
<mgrwt>
<rscale>  0 0.17337164E+04</rscale>
<asrwt>0</asrwt>
<pdfrwt beam="1">  1        2 0.14692839E+00 0.17337164E+04</pdfrwt>
<pdfrwt beam="2">  1       -1 0.12104969E+00 0.17337164E+04</pdfrwt>
<totfact> 0.17683102E+01</totfact>
</mgrwt>
</event>
<event>
12    6  0.1529770E-007  0.1674193E+04  0.7818608E-02  0.8776222E-01
          2   -1    0    0  501    0  0.00000000000E+00  0.00000000000E+00  0.17402512611E+04  0.17402512611E+04  0.00000000000E+00 0. -1.
         -1   -1    0    0    0  501 -0.00000000000E+00 -0.00000000000E+00 -0.40266038991E+03  0.40266038991E+03  0.00000000000E+00 0.  1.
         24    2    1    2    0    0 -0.31609050377E+02  0.47122436167E+03  0.93191566913E+03  0.10482200376E+04  0.85128736244E+02 0.  0.
        254    2    1    2    0    0  0.31609050377E+02 -0.47122436167E+03  0.40567520203E+03  0.10946916134E+04  0.90040314738E+03 0.  0.
         23    2    4    4    0    0 -0.27056710391E+03 -0.70504092949E+02 -0.15788338525E+03  0.33410458760E+03  0.92311035514E+02 0.  0.
         23    2    4    4    0    0  0.30217615428E+03 -0.40072026872E+03  0.56355858728E+03  0.76058702580E+03  0.94906167081E+02 0.  0.
          4    1    3    3  502    0 -0.49007733707E+01  0.43233166576E+03  0.82766076424E+03  0.93378639284E+03  0.00000000000E+00 0. -1.
         -3    1    3    3    0  502 -0.26708277007E+02  0.38892695910E+02  0.10425490489E+03  0.11443364475E+03  0.00000000000E+00 0.  1.
         11    1    5    5    0    0 -0.98561892812E+02  0.19027314698E+02 -0.48769109200E+02  0.11160157450E+03  0.00000000000E+00 0. -1.
        -11    1    5    5    0    0 -0.17200521109E+03 -0.89531407647E+02 -0.10911427604E+03  0.22250301309E+03  0.00000000000E+00 0.  1.
          4    1    6    6  503    0  0.73355154190E+02 -0.17042637111E+03  0.18754052137E+03  0.26381352083E+03  0.00000000000E+00 0. -1.
         -4    1    6    6    0  503  0.22882100009E+03 -0.23029389761E+03  0.37601806590E+03  0.49677350497E+03  0.00000000000E+00 0.  1.
<mgrwt>
<rscale>  0 0.16741926E+04</rscale>
<asrwt>0</asrwt>
<pdfrwt beam="1">  1        2 0.26773096E+00 0.16741926E+04</pdfrwt>
<pdfrwt beam="2">  1       -1 0.61947753E-01 0.16741926E+04</pdfrwt>
<totfact> 0.26737094E+01</totfact>
</mgrwt>
</event>
<event>
12    6  0.1529770E-007  0.2201680E+04  0.7818608E-02  0.8517729E-01
         -1   -1    0    0    0  501 -0.00000000000E+00  0.00000000000E+00  0.10027561929E+04  0.10027561929E+04  0.00000000000E+00 0.  1.
          2   -1    0    0  501    0  0.00000000000E+00 -0.00000000000E+00 -0.12085177359E+04  0.12085177359E+04  0.00000000000E+00 0. -1.
         24    2    1    2    0    0  0.63172125501E+02 -0.39321519129E+03  0.74511363031E+03  0.84874909288E+03  0.81066617576E+02 0.  0.
        254    2    1    2    0    0 -0.63172125501E+02  0.39321519129E+03 -0.95087517330E+03  0.13625248360E+04  0.89089922510E+03 0.  0.
         23    2    4    4    0    0  0.31474501742E+03  0.41194068042E+03 -0.77060968931E+03  0.93299036253E+03  0.88725267747E+02 0.  0.
         23    2    4    4    0    0 -0.37791714292E+03 -0.18725489136E+02 -0.18026548399E+03  0.42953447342E+03  0.93979829145E+02 0.  0.
          4    1    3    3  502    0  0.57969358080E+02 -0.16376972214E+03  0.37441828345E+03  0.41275903303E+03  0.00000000000E+00 0. -1.
         -3    1    3    3    0  502  0.52027674212E+01 -0.22944546915E+03  0.37069534686E+03  0.43599005985E+03  0.00000000000E+00 0.  1.
         11    1    5    5    0    0  0.31174326052E+03  0.40661724849E+03 -0.77215663001E+03  0.92668619744E+03  0.00000000000E+00 0. -1.
        -11    1    5    5    0    0  0.30017568987E+01  0.53234319326E+01  0.15469406982E+01  0.63041650949E+01  0.00000000000E+00 0.  1.
          3    1    6    6  503    0 -0.28751293417E+03  0.13360195590E+02 -0.10079063761E+03  0.30496054625E+03  0.00000000000E+00 0. -1.
         -3    1    6    6    0  503 -0.90404208748E+02 -0.32085684726E+02 -0.79474846375E+02  0.12457392717E+03  0.00000000000E+00 0.  1.
<mgrwt>
<rscale>  0 0.22016799E+04</rscale>
<asrwt>0</asrwt>
<pdfrwt beam="1">  1        2 0.18592581E+00 0.22016799E+04</pdfrwt>
<pdfrwt beam="2">  1       -1 0.15427018E+00 0.22016799E+04</pdfrwt>
<totfact> 0.63052651E+00</totfact>
</mgrwt>
</event>
<event>
12    6  0.1529770E-007  0.4018415E+04  0.7818608E-02  0.8000842E-01
          2   -1    0    0  501    0  0.00000000000E+00  0.00000000000E+00  0.32217493677E+04  0.32217493677E+04  0.00000000000E+00 0. -1.
         -1   -1    0    0    0  501 -0.00000000000E+00 -0.00000000000E+00 -0.12530197062E+04  0.12530197062E+04  0.00000000000E+00 0.  1.
         24    2    1    2    0    0  0.84486869880E+03 -0.74598285037E+03 -0.77848428604E+03  0.13722127322E+04  0.81464516793E+02 0.  0.
        254    2    1    2    0    0 -0.84486869880E+03  0.74598285037E+03  0.27472139475E+04  0.31025563416E+04  0.89909835295E+03 0.  0.
         23    2    4    4    0    0 -0.85307368027E+03  0.19970677964E+03  0.18423574912E+04  0.20416272829E+04  0.79645057736E+02 0.  0.
         23    2    4    4    0    0  0.82049814754E+01  0.54627607072E+03  0.90485645633E+03  0.10609290587E+04  0.91216193063E+02 0.  0.
          2    1    3    3  502    0  0.49803541204E+02 -0.21402215189E+02 -0.41287644547E+02  0.68140422098E+02  0.00000000000E+00 0. -1.
         -1    1    3    3    0  502  0.79506515759E+03 -0.72458063518E+03 -0.73719664149E+03  0.13040723101E+04  0.00000000000E+00 0.  1.
         11    1    5    5    0    0 -0.81419596084E+03  0.20128392364E+03  0.17270159775E+04  0.19198995982E+04  0.00000000000E+00 0.  1.
        -11    1    5    5    0    0 -0.38877719432E+02 -0.15771439976E+01  0.11534151371E+03  0.12172768476E+03  0.00000000000E+00 0. -1.
          4    1    6    6  503    0  0.44669995321E+01  0.29441446562E+03  0.57381457280E+03  0.64495193279E+03  0.00000000000E+00 0. -1.
         -4    1    6    6    0  503  0.37379819432E+01  0.25186160510E+03  0.33104188354E+03  0.41597712592E+03  0.00000000000E+00 0.  1.
<mgrwt>
<rscale>  0 0.40184153E+04</rscale>
<asrwt>0</asrwt>
<pdfrwt beam="1">  1        2 0.49565374E+00 0.40184153E+04</pdfrwt>
<pdfrwt beam="2">  1       -1 0.19277226E+00 0.40184153E+04</pdfrwt>
<totfact> 0.18942378E-01</totfact>
</mgrwt>
</event>
<event>
12    6  0.1529770E-007  0.1608517E+04  0.7818608E-02  0.8815332E-01
         -1   -1    0    0    0  501 -0.00000000000E+00  0.00000000000E+00  0.48580782261E+03  0.48580782261E+03  0.00000000000E+00 0.  1.
          2   -1    0    0  501    0  0.00000000000E+00 -0.00000000000E+00 -0.13314566285E+04  0.13314566285E+04  0.00000000000E+00 0. -1.
         24    2    1    2    0    0 -0.50153600145E+03 -0.71664683049E+02 -0.46383788527E+02  0.51455675225E+03  0.77090906766E+02 0.  0.
        254    2    1    2    0    0  0.50153600145E+03  0.71664683049E+02 -0.79926501740E+03  0.13027076989E+04  0.89529246238E+03 0.  0.
         23    2    4    4    0    0  0.23389438955E+03  0.41134696638E+03 -0.69998754001E+03  0.84979671488E+03  0.90878975871E+02 0.  0.
         23    2    4    4    0    0  0.26764161190E+03 -0.33968228333E+03 -0.99277477390E+02  0.45291098401E+03  0.90863941685E+02 0.  0.
          2    1    3    3  502    0 -0.31481372971E+03 -0.80830578900E+02 -0.40264340395E+02  0.32750951743E+03  0.00000000000E+00 0. -1.
         -1    1    3    3    0  502 -0.18672227174E+03  0.91658958509E+01 -0.61194481322E+01  0.18704723482E+03  0.00000000000E+00 0.  1.
         11    1    5    5    0    0  0.22036386051E+03  0.32576655699E+03 -0.60093469147E+03  0.71819675861E+03  0.00000000000E+00 0. -1.
        -11    1    5    5    0    0  0.13530529033E+02  0.85580409389E+02 -0.99052848537E+02  0.13159995627E+03  0.00000000000E+00 0.  1.
          3    1    6    6  503    0  0.26940563503E+03 -0.30411990474E+03 -0.90739715193E+02  0.41629557835E+03  0.00000000000E+00 0. -1.
         -3    1    6    6    0  503 -0.17640231286E+01 -0.35562378590E+02 -0.85377621971E+01  0.36615405664E+02  0.00000000000E+00 0.  1.
<mgrwt>
<rscale>  0 0.16085174E+04</rscale>
<asrwt>0</asrwt>
<pdfrwt beam="1">  1        2 0.20483948E+00 0.16085174E+04</pdfrwt>
<pdfrwt beam="2">  1       -1 0.74739666E-01 0.16085174E+04</pdfrwt>
<totfact> 0.31181713E+01</totfact>
</mgrwt>
</event>
<event>
12    6  0.1529770E-007  0.5148991E+04  0.7818608E-02  0.7805926E-01
          2   -1    0    0  501    0  0.00000000000E+00  0.00000000000E+00  0.24782257370E+04  0.24782257370E+04  0.00000000000E+00 0. -1.
         -1   -1    0    0    0  501 -0.00000000000E+00 -0.00000000000E+00 -0.26745053718E+04  0.26745053718E+04  0.00000000000E+00 0.  1.
         24    2    1    2    0    0 -0.80367368720E+03  0.78058647988E+03  0.21308793466E+04  0.24090790446E+04  0.88365181809E+02 0.  0.
        254    2    1    2    0    0  0.80367368720E+03 -0.78058647988E+03 -0.23271589813E+04  0.27436520642E+04  0.92560849015E+03 0.  0.
         23    2    4    4    0    0  0.20494074126E+03  0.11711179863E+03 -0.10782379406E+03  0.27424442119E+03  0.88702599630E+02 0.  0.
         23    2    4    4    0    0  0.59873294593E+03 -0.89769827852E+03 -0.22193351873E+04  0.24694076430E+04  0.90454928984E+02 0.  0.
          2    1    3    3  502    0 -0.38869098004E+03  0.38683567850E+03  0.11366624752E+04  0.12620317360E+04  0.00000000000E+00 0. -1.
         -1    1    3    3    0  502 -0.41498270716E+03  0.39375080139E+03  0.99421687130E+03  0.11470473085E+04  0.00000000000E+00 0.  1.
         11    1    5    5    0    0  0.11276246084E+03  0.16799395570E+02 -0.66014399961E+02  0.13174024924E+03  0.00000000000E+00 0. -1.
        -11    1    5    5    0    0  0.92178280420E+02  0.10031240306E+03 -0.41809394095E+02  0.14250417195E+03  0.00000000000E+00 0.  1.
          4    1    6    6  503    0  0.55019138292E+03 -0.82574079366E+03 -0.20908724051E+04  0.23143694240E+04  0.00000000000E+00 0.  1.
         -4    1    6    6    0  503  0.48541563016E+02 -0.71957484859E+02 -0.12846278212E+03  0.15503821902E+03  0.00000000000E+00 0. -1.
<mgrwt>
<rscale>  0 0.51489914E+04</rscale>
<asrwt>0</asrwt>
<pdfrwt beam="1">  1        2 0.38126550E+00 0.51489914E+04</pdfrwt>
<pdfrwt beam="2">  1       -1 0.41146236E+00 0.51489914E+04</pdfrwt>
<totfact> 0.17532710E-02</totfact>
</mgrwt>
</event>
<event>
12    6  0.1529770E-007  0.1551299E+04  0.7818608E-02  0.8851038E-01
         -1   -1    0    0    0  501 -0.00000000000E+00  0.00000000000E+00  0.41159972891E+03  0.41159972891E+03  0.00000000000E+00 0.  1.
          2   -1    0    0  501    0  0.00000000000E+00 -0.00000000000E+00 -0.14616931377E+04  0.14616931377E+04  0.00000000000E+00 0. -1.
         24    2    1    2    0    0  0.42985927285E+03 -0.10176926326E+03 -0.40253317558E+02  0.45403789460E+03  0.96923179652E+02 0.  0.
        254    2    1    2    0    0 -0.42985927285E+03  0.10176926326E+03 -0.10098400912E+04  0.14192549720E+04  0.89407588512E+03 0.  0.
         23    2    4    4    0    0  0.70564929926E+02  0.57192732931E+01 -0.87681098248E+03  0.88435393740E+03  0.90952010296E+02 0.  0.
         23    2    4    4    0    0 -0.50042420278E+03  0.96049989971E+02 -0.13302910875E+03  0.53490103462E+03  0.93661036519E+02 0.  0.
          4    1    3    3  502    0  0.33712927436E+03 -0.10569724332E+03 -0.11196808280E+01  0.35331191398E+03  0.00000000000E+00 0. -1.
         -3    1    3    3    0  502  0.92729998487E+02  0.39279800513E+01 -0.39133636730E+02  0.10072598061E+03  0.00000000000E+00 0.  1.
         11    1    5    5    0    0  0.46004505395E+02 -0.21171985638E+02 -0.76681786473E+03  0.76848832467E+03  0.00000000000E+00 0. -1.
        -11    1    5    5    0    0  0.24560424532E+02  0.26891258931E+02 -0.10999311775E+03  0.11586561272E+03  0.00000000000E+00 0.  1.
          3    1    6    6  503    0 -0.36044919984E+03  0.10477543445E+03 -0.73266207856E+02  0.38245189834E+03  0.00000000000E+00 0. -1.
         -3    1    6    6    0  503 -0.13997500294E+03 -0.87254444844E+01 -0.59762900889E+02  0.15244913628E+03  0.00000000000E+00 0.  1.
<mgrwt>
<rscale>  0 0.15512995E+04</rscale>
<asrwt>0</asrwt>
<pdfrwt beam="1">  1        2 0.22487586E+00 0.15512995E+04</pdfrwt>
<pdfrwt beam="2">  1       -1 0.63323036E-01 0.15512995E+04</pdfrwt>
<totfact> 0.37019698E+01</totfact>
</mgrwt>
</event>
<event>
12    6  0.1529770E-007  0.1476651E+04  0.7818608E-02  0.8900130E-01
          2   -1    0    0  501    0  0.00000000000E+00  0.00000000000E+00  0.12388896178E+04  0.12388896178E+04  0.00000000000E+00 0. -1.
         -1   -1    0    0    0  501 -0.00000000000E+00 -0.00000000000E+00 -0.44001084051E+03  0.44001084051E+03  0.00000000000E+00 0.  1.
         24    2    1    2    0    0  0.46221565044E+03 -0.78062095567E+01  0.19129014850E+03  0.50755745160E+03  0.85547655370E+02 0.  0.
        254    2    1    2    0    0 -0.46221565044E+03  0.78062095567E+01  0.60758862878E+03  0.11713430067E+04  0.88835592703E+03 0.  0.
         23    2    4    4    0    0  0.21357075855E+03 -0.13780063930E+03  0.40509880561E+02  0.27281012779E+03  0.90458997932E+02 0.  0.
         23    2    4    4    0    0 -0.67578640899E+03  0.14560684886E+03  0.56707874822E+03  0.89853287890E+03  0.88850451759E+02 0.  0.
          4    1    3    3  502    0  0.92490131188E+02 -0.10948976207E+02  0.43273771379E+01  0.93236423355E+02  0.00000000000E+00 0. -1.
         -3    1    3    3    0  502  0.36972551925E+03  0.31427666500E+01  0.18696277136E+03  0.41432102824E+03  0.00000000000E+00 0.  1.
         11    1    5    5    0    0  0.52156009251E+02 -0.85315660042E+02  0.17736490578E+02  0.10155586762E+03  0.00000000000E+00 0.  1.
        -11    1    5    5    0    0  0.16141474929E+03 -0.52484979257E+02  0.22773389983E+02  0.17125426018E+03  0.00000000000E+00 0. -1.
          4    1    6    6  503    0 -0.20224004140E+03  0.31392056742E+01  0.15481980890E+03  0.25471564967E+03  0.00000000000E+00 0. -1.
         -4    1    6    6    0  503 -0.47354636759E+03  0.14246764318E+03  0.41225893932E+03  0.64381722923E+03  0.00000000000E+00 0.  1.
<mgrwt>
<rscale>  0 0.14766514E+04</rscale>
<asrwt>0</asrwt>
<pdfrwt beam="1">  1        2 0.19059840E+00 0.14766514E+04</pdfrwt>
<pdfrwt beam="2">  1       -1 0.67693976E-01 0.14766514E+04</pdfrwt>
<totfact> 0.43791206E+01</totfact>
</mgrwt>
</event>
<event>
12    6  0.1529770E-007  0.1826289E+04  0.7818608E-02  0.8692443E-01
         -1   -1    0    0    0  501 -0.00000000000E+00  0.00000000000E+00  0.32071478653E+03  0.32071478653E+03  0.00000000000E+00 0.  1.
          2   -1    0    0  501    0  0.00000000000E+00 -0.00000000000E+00 -0.25999201962E+04  0.25999201962E+04  0.00000000000E+00 0. -1.
         24    2    1    2    0    0 -0.55104978297E+03  0.40630155610E+03 -0.98799584928E+03  0.12047252132E+04  0.80561922761E+02 0.  0.
        254    2    1    2    0    0  0.55104978297E+03 -0.40630155610E+03 -0.12912095604E+04  0.17159097695E+04  0.89910365945E+03 0.  0.
         23    2    4    4    0    0 -0.88919929400E+02 -0.27347450379E+03 -0.44261486256E+02  0.30522530058E+03  0.92240700774E+02 0.  0.
         23    2    4    4    0    0  0.63996971237E+03 -0.13282705231E+03 -0.12469480742E+04  0.14106844690E+04  0.89145458094E+02 0.  0.
          2    1    3    3  502    0 -0.39914615386E+03  0.30877245619E+03 -0.78352545830E+03  0.93197115065E+03  0.00000000000E+00 0. -1.
         -1    1    3    3    0  502 -0.15190362911E+03  0.97529099904E+02 -0.20447039098E+03  0.27275406258E+03  0.00000000000E+00 0.  1.
         11    1    5    5    0    0 -0.83269849976E+02 -0.19481048727E+03  0.55713345159E+01  0.21193403133E+03  0.00000000000E+00 0. -1.
        -11    1    5    5    0    0 -0.56500794237E+01 -0.78664016515E+02 -0.49832820772E+02  0.93291269248E+02  0.00000000000E+00 0.  1.
          2    1    6    6  503    0  0.53902592077E+03 -0.10182208976E+03 -0.11060140786E+04  0.12345783990E+04  0.00000000000E+00 0. -1.
         -2    1    6    6    0  503  0.10094379160E+03 -0.31004962550E+02 -0.14093399553E+03  0.17610606992E+03  0.00000000000E+00 0.  1.
<mgrwt>
<rscale>  0 0.18262890E+04</rscale>
<asrwt>0</asrwt>
<pdfrwt beam="1">  1        2 0.39998774E+00 0.18262890E+04</pdfrwt>
<pdfrwt beam="2">  1       -1 0.49340734E-01 0.18262890E+04</pdfrwt>
<totfact> 0.13458540E+01</totfact>
</mgrwt>
</event>
<event>
12    6  0.1529770E-007  0.1404796E+04  0.7818608E-02  0.8950354E-01
          2   -1    0    0  501    0  0.00000000000E+00  0.00000000000E+00  0.29859243328E+04  0.29859243328E+04  0.00000000000E+00 0. -1.
         -1   -1    0    0    0  501 -0.00000000000E+00 -0.00000000000E+00 -0.16522960303E+03  0.16522960303E+03  0.00000000000E+00 0.  1.
         24    2    1    2    0    0 -0.34256680786E+03 -0.10682791300E+03  0.39116060168E+03  0.53677662515E+03  0.79739000215E+02 0.  0.
        254    2    1    2    0    0  0.34256680786E+03  0.10682791300E+03  0.24295341281E+04  0.26143773107E+04  0.89641978014E+03 0.  0.
         23    2    4    4    0    0  0.32160413174E+03  0.46660841405E+03  0.17265166952E+04  0.18194450750E+04  0.91475966618E+02 0.  0.
         23    2    4    4    0    0  0.20962676122E+02 -0.35978050104E+03  0.70301743289E+03  0.79493223570E+03  0.88330661084E+02 0.  0.
          4    1    3    3  502    0 -0.54126726116E+02 -0.10415111397E+02  0.10792656466E+03  0.12118712962E+03  0.00000000000E+00 0. -1.
         -3    1    3    3    0  502 -0.28844008174E+03 -0.96412801605E+02  0.28323403702E+03  0.41558949553E+03  0.00000000000E+00 0.  1.
         11    1    5    5    0    0  0.81561253614E+02  0.61705596804E+02  0.26790535952E+03  0.28676314342E+03  0.00000000000E+00 0. -1.
        -11    1    5    5    0    0  0.24004287812E+03  0.40490281724E+03  0.14586113357E+04  0.15326819316E+04  0.00000000000E+00 0.  1.
          4    1    6    6  503    0  0.34936313453E+02 -0.13100460643E+03  0.33473889881E+03  0.36115492975E+03  0.00000000000E+00 0. -1.
         -4    1    6    6    0  503 -0.13973637331E+02 -0.22877589462E+03  0.36827853408E+03  0.43377730595E+03  0.00000000000E+00 0.  1.
<mgrwt>
<rscale>  0 0.14047962E+04</rscale>
<asrwt>0</asrwt>
<pdfrwt beam="1">  1        2 0.45937294E+00 0.14047962E+04</pdfrwt>
<pdfrwt beam="2">  1       -1 0.25419941E-01 0.14047962E+04</pdfrwt>
<totfact> 0.27038188E+01</totfact>
</mgrwt>
</event>
<event>
12    6  0.1529770E-007  0.2470920E+04  0.7818608E-02  0.8413419E-01
          2   -1    0    0  501    0  0.00000000000E+00  0.00000000000E+00  0.20947872609E+04  0.20947872609E+04  0.00000000000E+00 0. -1.
         -1   -1    0    0    0  501 -0.00000000000E+00 -0.00000000000E+00 -0.72864761892E+03  0.72864761892E+03  0.00000000000E+00 0.  1.
         24    2    1    2    0    0 -0.24359926962E+03  0.24419589260E+03 -0.55490441806E+03  0.65848290929E+03  0.81905985839E+02 0.  0.
        254    2    1    2    0    0  0.24359926962E+03 -0.24419589260E+03  0.19210440600E+04  0.21649519705E+04  0.93682149631E+03 0.  0.
         23    2    4    4    0    0  0.11246237123E+03  0.10481139573E+03 -0.25093332994E+02  0.18137647523E+03  0.92922208261E+02 0.  0.
         23    2    4    4    0    0  0.13113689839E+03 -0.34900728834E+03  0.19461373930E+04  0.19835754953E+04  0.90100052909E+02 0.  0.
          2    1    3    3  502    0 -0.51452813371E+02  0.10055214415E+03 -0.20826942880E+03  0.23692674115E+03  0.00000000000E+00 0. -1.
         -1    1    3    3    0  502 -0.19214645625E+03  0.14364374845E+03 -0.34663498926E+03  0.42155616814E+03  0.00000000000E+00 0.  1.
         11    1    5    5    0    0  0.57186608666E+02  0.98992081845E+02  0.11393274026E+02  0.11488928223E+03  0.00000000000E+00 0. -1.
        -11    1    5    5    0    0  0.55275762563E+02  0.58193138900E+01 -0.36486607020E+02  0.66487193000E+02  0.00000000000E+00 0.  1.
          1    1    6    6  503    0  0.94721373250E+02 -0.27999381820E+03  0.16955011196E+04  0.17210731314E+04  0.00000000000E+00 0. -1.
         -1    1    6    6    0  503  0.36415525140E+02 -0.69013470134E+02  0.25063627340E+03  0.26250236394E+03  0.00000000000E+00 0.  1.
<mgrwt>
<rscale>  0 0.24709203E+04</rscale>
<asrwt>0</asrwt>
<pdfrwt beam="1">  1        2 0.32227496E+00 0.24709203E+04</pdfrwt>
<pdfrwt beam="2">  1       -1 0.11209963E+00 0.24709203E+04</pdfrwt>
<totfact> 0.43900144E+00</totfact>
</mgrwt>
</event>
<event>
12    6  0.1529770E-007  0.1556902E+04  0.7818608E-02  0.8847471E-01
         -1   -1    0    0    0  501 -0.00000000000E+00  0.00000000000E+00  0.17890076603E+03  0.17890076603E+03  0.00000000000E+00 0.  1.
          2   -1    0    0  501    0  0.00000000000E+00 -0.00000000000E+00 -0.33872752552E+04  0.33872752552E+04  0.00000000000E+00 0. -1.
         24    2    1    2    0    0  0.19085547981E+03 -0.70256793940E+02  0.10170834391E+02  0.21782470159E+03  0.77345481321E+02 0.  0.
        254    2    1    2    0    0 -0.19085547981E+03  0.70256793940E+02 -0.32185453236E+04  0.33483513197E+04  0.90058910090E+03 0.  0.
         23    2    4    4    0    0 -0.44746843624E+02 -0.40535837349E+03 -0.14361764320E+04  0.14956977953E+04  0.90506685244E+02 0.  0.
         23    2    4    4    0    0 -0.14610863619E+03  0.47561516743E+03 -0.17823688916E+04  0.18526535244E+04  0.89043217436E+02 0.  0.
          2    1    3    3  502    0  0.18938117179E+02 -0.29625495883E+02 -0.17065327058E+02  0.39083854419E+02  0.00000000000E+00 0. -1.
         -1    1    3    3    0  502  0.17191736263E+03 -0.40631298057E+02  0.27236161450E+02  0.17874084717E+03  0.00000000000E+00 0.  1.
         11    1    5    5    0    0 -0.25305336887E+02 -0.30970555739E+03 -0.12118647858E+04  0.12510692033E+04  0.00000000000E+00 0. -1.
        -11    1    5    5    0    0 -0.19441506737E+02 -0.95652816099E+02 -0.22431164623E+03  0.24462859205E+03  0.00000000000E+00 0.  1.
          3    1    6    6  503    0 -0.97235648875E+02  0.37933735766E+03 -0.15020803612E+04  0.15522876711E+04  0.00000000000E+00 0. -1.
         -3    1    6    6    0  503 -0.48872987310E+02  0.96277809770E+02 -0.28028853043E+03  0.30036585330E+03  0.00000000000E+00 0.  1.
<mgrwt>
<rscale>  0 0.15569022E+04</rscale>
<asrwt>0</asrwt>
<pdfrwt beam="1">  1        2 0.52111925E+00 0.15569022E+04</pdfrwt>
<pdfrwt beam="2">  1       -1 0.27523196E-01 0.15569022E+04</pdfrwt>
<totfact> 0.12782590E+01</totfact>
</mgrwt>
</event>
<event>
12    6  0.1529770E-007  0.2352456E+04  0.7818608E-02  0.8457521E-01
         -1   -1    0    0    0  501 -0.00000000000E+00  0.00000000000E+00  0.59948465459E+03  0.59948465459E+03  0.00000000000E+00 0.  1.
          2   -1    0    0  501    0  0.00000000000E+00 -0.00000000000E+00 -0.23078367209E+04  0.23078367209E+04  0.00000000000E+00 0. -1.
         24    2    1    2    0    0 -0.56082823985E+03  0.74852917041E+03 -0.11962875757E+04  0.15204827782E+04  0.77069329586E+02 0.  0.
        254    2    1    2    0    0  0.56082823985E+03 -0.74852917041E+03 -0.51206449068E+03  0.13868385973E+04  0.88672826661E+03 0.  0.
         23    2    4    4    0    0 -0.10527075759E+03 -0.42682295339E+03 -0.45362189931E+03  0.63817421878E+03  0.90739958353E+02 0.  0.
         23    2    4    4    0    0  0.66609899744E+03 -0.32170621702E+03 -0.58442591370E+02  0.74866437853E+03  0.99498998654E+02 0.  0.
          2    1    3    3  502    0 -0.19547330165E+02  0.18073588057E+02 -0.17625477261E+02  0.31928203058E+02  0.00000000000E+00 0. -1.
         -1    1    3    3    0  502 -0.54128090969E+03  0.73045558236E+03 -0.11786620984E+04  0.14885545752E+04  0.00000000000E+00 0.  1.
         11    1    5    5    0    0 -0.63605140109E+01 -0.21468732680E+03 -0.22118001300E+03  0.30830456140E+03  0.00000000000E+00 0.  1.
        -11    1    5    5    0    0 -0.98910243576E+02 -0.21213562659E+03 -0.23244188630E+03  0.32986965738E+03  0.00000000000E+00 0. -1.
          4    1    6    6  503    0  0.66058725306E+03 -0.30861333653E+03 -0.66813010725E+02  0.73217599578E+03  0.00000000000E+00 0. -1.
         -4    1    6    6    0  503  0.55117443780E+01 -0.13092880486E+02  0.83704193549E+01  0.16488382749E+02  0.00000000000E+00 0.  1.
<mgrwt>
<rscale>  0 0.23524563E+04</rscale>
<asrwt>0</asrwt>
<pdfrwt beam="1">  1        2 0.35505181E+00 0.23524563E+04</pdfrwt>
<pdfrwt beam="2">  1       -1 0.92228408E-01 0.23524563E+04</pdfrwt>
<totfact> 0.52725500E+00</totfact>
</mgrwt>
</event>
<event>
12    6  0.1529770E-007  0.3220471E+04  0.7818608E-02  0.8183432E-01
          2   -1    0    0  501    0  0.00000000000E+00  0.00000000000E+00  0.83560318022E+03  0.83560318022E+03  0.00000000000E+00 0. -1.
         -1   -1    0    0    0  501 -0.00000000000E+00 -0.00000000000E+00 -0.31029783749E+04  0.31029783749E+04  0.00000000000E+00 0.  1.
         24    2    1    2    0    0 -0.67032015839E+03  0.11009162130E+04 -0.14503821227E+03  0.12995884959E+04  0.80923129308E+02 0.  0.
        254    2    1    2    0    0  0.67032015839E+03 -0.11009162130E+04 -0.21223369824E+04  0.26389930592E+04  0.89365791936E+03 0.  0.
         23    2    4    4    0    0 -0.19505580473E+03 -0.16638324903E+03 -0.23104933624E+03  0.35696038360E+03  0.91141467899E+02 0.  0.
         23    2    4    4    0    0  0.86537596312E+03 -0.93453296398E+03 -0.18912876462E+04  0.22820326756E+04  0.92069287351E+02 0.  0.
          4    1    3    3  502    0 -0.59253704060E+03  0.97170267906E+03 -0.10161289404E+03  0.11426422980E+04  0.00000000000E+00 0. -1.
         -3    1    3    3    0  502 -0.77783117790E+02  0.12921353395E+03 -0.43425318231E+02  0.15694619789E+03  0.00000000000E+00 0.  1.
         11    1    5    5    0    0 -0.23941703906E+02 -0.24617625213E+02 -0.83334031320E+02  0.90132088809E+02  0.00000000000E+00 0.  1.
        -11    1    5    5    0    0 -0.17111410082E+03 -0.14176562382E+03 -0.14771530492E+03  0.26682829479E+03  0.00000000000E+00 0. -1.
          2    1    6    6  503    0  0.84261031289E+03 -0.92746650949E+03 -0.18523523047E+04  0.22363799602E+04  0.00000000000E+00 0. -1.
         -2    1    6    6    0  503  0.22765650231E+02 -0.70664544859E+01 -0.38935341463E+02  0.45652715410E+02  0.00000000000E+00 0.  1.
<mgrwt>
<rscale>  0 0.32204711E+04</rscale>
<asrwt>0</asrwt>
<pdfrwt beam="1">  1        2 0.12855434E+00 0.32204711E+04</pdfrwt>
<pdfrwt beam="2">  1       -1 0.47738128E+00 0.32204711E+04</pdfrwt>
<totfact> 0.65369334E-02</totfact>
</mgrwt>
</event>
<event>
12    6  0.1529770E-007  0.2835515E+04  0.7818608E-02  0.8292326E-01
         -1   -1    0    0    0  501 -0.00000000000E+00  0.00000000000E+00  0.12850325234E+04  0.12850325234E+04  0.00000000000E+00 0.  1.
          2   -1    0    0  501    0  0.00000000000E+00 -0.00000000000E+00 -0.15641914173E+04  0.15641914173E+04  0.00000000000E+00 0. -1.
         24    2    1    2    0    0  0.85317802529E+03 -0.72099928325E+03 -0.75331605337E+03  0.13496557847E+04  0.79579844016E+02 0.  0.
        254    2    1    2    0    0 -0.85317802529E+03  0.72099928325E+03  0.47415715947E+03  0.14995681561E+04  0.88098066581E+03 0.  0.
         23    2    4    4    0    0 -0.70861450686E+03  0.24048938406E+03  0.61233892949E+03  0.97126141160E+03  0.91761113391E+02 0.  0.
         23    2    4    4    0    0 -0.14456351844E+03  0.48050989919E+03 -0.13818177002E+03  0.52830674446E+03  0.90694214787E+02 0.  0.
          2    1    3    3  502    0  0.75721251016E+03 -0.63351485022E+03 -0.69462087079E+03  0.12071495372E+04  0.00000000000E+00 0. -1.
         -1    1    3    3    0  502  0.95965515136E+02 -0.87484433032E+02 -0.58695182578E+02  0.14250624750E+03  0.00000000000E+00 0.  1.
         11    1    5    5    0    0 -0.18325323462E+03  0.65873519170E+02  0.10971350296E+03  0.22351313442E+03  0.00000000000E+00 0. -1.
        -11    1    5    5    0    0 -0.52536127223E+03  0.17461586489E+03  0.50262542653E+03  0.74774827718E+03  0.00000000000E+00 0.  1.
          1    1    6    6  503    0 -0.94999861237E+01  0.61979923315E+02 -0.48984021547E+02  0.79568806686E+02  0.00000000000E+00 0. -1.
         -1    1    6    6    0  503 -0.13506353231E+03  0.41852997588E+03 -0.89197748473E+02  0.44873793778E+03  0.00000000000E+00 0.  1.
<mgrwt>
<rscale>  0 0.28355154E+04</rscale>
<asrwt>0</asrwt>
<pdfrwt beam="1">  1        2 0.24064483E+00 0.28355154E+04</pdfrwt>
<pdfrwt beam="2">  1       -1 0.19769731E+00 0.28355154E+04</pdfrwt>
<totfact> 0.18015061E+00</totfact>
</mgrwt>
</event>
<event>
12    6  0.1529770E-007  0.1259726E+04  0.7818608E-02  0.9062127E-01
         -1   -1    0    0    0  501 -0.00000000000E+00  0.00000000000E+00  0.23047697199E+03  0.23047697199E+03  0.00000000000E+00 0.  1.
          2   -1    0    0  501    0  0.00000000000E+00 -0.00000000000E+00 -0.17213334018E+04  0.17213334018E+04  0.00000000000E+00 0. -1.
         24    2    1    2    0    0 -0.19695538870E+03 -0.24541716648E+03 -0.33621704506E+03  0.46694087497E+03  0.77271395648E+02 0.  0.
        254    2    1    2    0    0  0.19695538870E+03  0.24541716648E+03 -0.11546393847E+04  0.14848694988E+04  0.87899050561E+03 0.  0.
         23    2    4    4    0    0 -0.27200801968E+03  0.74334538565E+02 -0.82931028456E+03  0.88024480887E+03  0.86956248035E+02 0.  0.
         23    2    4    4    0    0  0.46896340838E+03  0.17108262792E+03 -0.32532910019E+03  0.60462468994E+03  0.10264525453E+03 0.  0.
          4    1    3    3  502    0 -0.62583211144E+02 -0.61871654688E+02 -0.49579645022E+02  0.10100941130E+03  0.00000000000E+00 0. -1.
         -3    1    3    3    0  502 -0.13437217756E+03 -0.18354551179E+03 -0.28663740004E+03  0.36593146367E+03  0.00000000000E+00 0.  1.
         11    1    5    5    0    0 -0.26559223213E+03  0.66776819655E+02 -0.71736262712E+03  0.76785904709E+03  0.00000000000E+00 0.  1.
        -11    1    5    5    0    0 -0.64157875592E+01  0.75577189097E+01 -0.11194765744E+03  0.11238576178E+03  0.00000000000E+00 0. -1.
          2    1    6    6  503    0  0.32044884184E+02  0.15250684127E+02 -0.61406191497E+02  0.70923750062E+02  0.00000000000E+00 0. -1.
         -2    1    6    6    0  503  0.43691852420E+03  0.15583194379E+03 -0.26392290869E+03  0.53370093988E+03  0.00000000000E+00 0.  1.
<mgrwt>
<rscale>  0 0.12597265E+04</rscale>
<asrwt>0</asrwt>
<pdfrwt beam="1">  1        2 0.26482052E+00 0.12597265E+04</pdfrwt>
<pdfrwt beam="2">  1       -1 0.35457996E-01 0.12597265E+04</pdfrwt>
<totfact> 0.80993149E+01</totfact>
</mgrwt>
</event>
<event>
12    6  0.1529770E-007  0.1484229E+04  0.7818608E-02  0.8895009E-01
          2   -1    0    0  501    0  0.00000000000E+00  0.00000000000E+00  0.88135383795E+03  0.88135383795E+03  0.00000000000E+00 0. -1.
         -1   -1    0    0    0  501 -0.00000000000E+00 -0.00000000000E+00 -0.62487247912E+03  0.62487247912E+03  0.00000000000E+00 0.  1.
         24    2    1    2    0    0 -0.20233374159E+03  0.28517790544E+03 -0.22943525747E+03  0.42544926642E+03  0.78109923788E+02 0.  0.
        254    2    1    2    0    0  0.20233374159E+03 -0.28517790544E+03  0.48591661630E+03  0.10807770506E+04  0.89983259247E+03 0.  0.
         23    2    4    4    0    0  0.45364376410E+03 -0.28719279271E+03  0.22041057635E+02  0.54545292282E+03  0.93598706729E+02 0.  0.
         23    2    4    4    0    0 -0.25131002251E+03  0.20148872706E+01  0.46387555866E+03  0.53532412783E+03  0.90722658311E+02 0.  0.
          4    1    3    3  502    0 -0.11007411680E+03  0.17061398523E+03 -0.87668036832E+02  0.22115860333E+03  0.00000000000E+00 0. -1.
         -3    1    3    3    0  502 -0.92259624789E+02  0.11456392021E+03 -0.14176722063E+03  0.20429066309E+03  0.00000000000E+00 0.  1.
         11    1    5    5    0    0  0.42030261576E+03 -0.28404355470E+03  0.37298930822E+02  0.50865139341E+03  0.00000000000E+00 0. -1.
        -11    1    5    5    0    0  0.33341148339E+02 -0.31492380138E+01 -0.15257873187E+02  0.36801529409E+02  0.00000000000E+00 0.  1.
          4    1    6    6  503    0 -0.20085847497E+03  0.19725353409E+02  0.28929636376E+03  0.35274013469E+03  0.00000000000E+00 0. -1.
         -4    1    6    6    0  503 -0.50451547535E+02 -0.17710466139E+02  0.17457919490E+03  0.18258399314E+03  0.00000000000E+00 0.  1.
<mgrwt>
<rscale>  0 0.14842288E+04</rscale>
<asrwt>0</asrwt>
<pdfrwt beam="1">  1        2 0.13559290E+00 0.14842288E+04</pdfrwt>
<pdfrwt beam="2">  1       -1 0.96134228E-01 0.14842288E+04</pdfrwt>
<totfact> 0.34762733E+01</totfact>
</mgrwt>
</event>
<event>
12    6  0.1529770E-007  0.1749710E+04  0.7818608E-02  0.8733510E-01
          2   -1    0    0  501    0  0.00000000000E+00  0.00000000000E+00  0.22365628626E+04  0.22365628626E+04  0.00000000000E+00 0. -1.
         -1   -1    0    0    0  501 -0.00000000000E+00 -0.00000000000E+00 -0.34220868152E+03  0.34220868152E+03  0.00000000000E+00 0.  1.
         24    2    1    2    0    0 -0.62685184930E+03 -0.14820640784E+03  0.65919208066E+03  0.92498051674E+03  0.78398831846E+02 0.  0.
        254    2    1    2    0    0  0.62685184930E+03  0.14820640784E+03  0.12351621004E+04  0.16537910274E+04  0.89134222812E+03 0.  0.
         23    2    4    4    0    0 -0.14071791885E+02  0.18803957503E+03 -0.49193717261E+02  0.21507494080E+03  0.90996215510E+02 0.  0.
         23    2    4    4    0    0  0.64092364119E+03 -0.39833167189E+02  0.12843558177E+04  0.14387160866E+04  0.89243018467E+02 0.  0.
          4    1    3    3  502    0 -0.28232661564E+03 -0.92635444198E+02  0.34595370375E+03  0.45604123559E+03  0.00000000000E+00 0. -1.
         -3    1    3    3    0  502 -0.34452523367E+03 -0.55570963641E+02  0.31323837691E+03  0.46893928115E+03  0.00000000000E+00 0.  1.
         11    1    5    5    0    0 -0.53073048731E+01  0.11112989194E+03 -0.74198585582E+02  0.13372901880E+03  0.00000000000E+00 0.  1.
        -11    1    5    5    0    0 -0.87644870114E+01  0.76909683089E+02  0.25004868321E+02  0.81345921994E+02  0.00000000000E+00 0. -1.
          4    1    6    6  503    0  0.23404849399E+03 -0.15934550063E+01  0.56165417463E+03  0.60847074581E+03  0.00000000000E+00 0.  1.
         -4    1    6    6    0  503  0.40687514720E+03 -0.38239712182E+02  0.72270164306E+03  0.83024534078E+03  0.00000000000E+00 0. -1.
<mgrwt>
<rscale>  0 0.17497100E+04</rscale>
<asrwt>0</asrwt>
<pdfrwt beam="1">  1        2 0.34408658E+00 0.17497100E+04</pdfrwt>
<pdfrwt beam="2">  1       -1 0.52647491E-01 0.17497100E+04</pdfrwt>
<totfact> 0.19335818E+01</totfact>
</mgrwt>
</event>
<event>
12    6  0.1529770E-007  0.1084247E+04  0.7818608E-02  0.9220683E-01
         -1   -1    0    0    0  501 -0.00000000000E+00  0.00000000000E+00  0.16375253394E+03  0.16375253394E+03  0.00000000000E+00 0.  1.
          2   -1    0    0  501    0  0.00000000000E+00 -0.00000000000E+00 -0.17947691944E+04  0.17947691944E+04  0.00000000000E+00 0. -1.
         24    2    1    2    0    0  0.34730323031E+02 -0.80520582889E+02 -0.13276775422E+03  0.17782746989E+03  0.79407637424E+02 0.  0.
        254    2    1    2    0    0 -0.34730323031E+02  0.80520582889E+02 -0.14982489063E+04  0.17806942585E+04  0.95834883911E+03 0.  0.
         23    2    4    4    0    0  0.38827583726E+03 -0.18346743243E+03 -0.86469604390E+03  0.96910003465E+03  0.83888046058E+02 0.  0.
         23    2    4    4    0    0 -0.42300616029E+03  0.26398801532E+03 -0.63355286237E+03  0.81159422382E+03  0.93123954245E+02 0.  0.
          2    1    3    3  502    0  0.57386977963E+02 -0.51635984834E+02 -0.11081603315E+03  0.13505455702E+03  0.00000000000E+00 0. -1.
         -3    1    3    3    0  502 -0.22656654933E+02 -0.28884598055E+02 -0.21951721074E+02  0.42772912873E+02  0.00000000000E+00 0.  1.
         11    1    5    5    0    0  0.75937467918E+02 -0.17883008389E+02 -0.22613455192E+03  0.23921357946E+03  0.00000000000E+00 0.  1.
        -11    1    5    5    0    0  0.31233836934E+03 -0.16558442404E+03 -0.63856149197E+03  0.72988645520E+03  0.00000000000E+00 0. -1.
          3    1    6    6  503    0 -0.39101783622E+03  0.20846968905E+03 -0.54968653502E+03  0.70605229713E+03  0.00000000000E+00 0. -1.
         -3    1    6    6    0  503 -0.31988324069E+02  0.55518326263E+02 -0.83866327342E+02  0.10554192669E+03  0.00000000000E+00 0.  1.
<mgrwt>
<rscale>  0 0.10842472E+04</rscale>
<asrwt>0</asrwt>
<pdfrwt beam="1">  1        2 0.27611832E+00 0.10842472E+04</pdfrwt>
<pdfrwt beam="2">  1       -1 0.25192699E-01 0.10842472E+04</pdfrwt>
<totfact> 0.13603268E+02</totfact>
</mgrwt>
</event>
<event>
12    6  0.1529770E-007  0.1354342E+04  0.7818608E-02  0.8987548E-01
         -3   -1    0    0    0  501 -0.00000000000E+00  0.00000000000E+00  0.39317145611E+03  0.39317145611E+03  0.00000000000E+00 0.  1.
          4   -1    0    0  501    0  0.00000000000E+00 -0.00000000000E+00 -0.11663124211E+04  0.11663124211E+04  0.00000000000E+00 0. -1.
         24    2    1    2    0    0  0.23053683122E+03  0.79752578504E+02 -0.52727790675E+03  0.58639003604E+03  0.79520934930E+02 0.  0.
        254    2    1    2    0    0 -0.23053683122E+03 -0.79752578504E+02 -0.24586305823E+03  0.97309384115E+03  0.90937081323E+03 0.  0.
         23    2    4    4    0    0  0.16719904869E+03 -0.19366413333E+01  0.25713756992E+03  0.32003874040E+03  0.91355312007E+02 0.  0.
         23    2    4    4    0    0 -0.39773587991E+03 -0.77815937171E+02 -0.50300062814E+03  0.65305510075E+03  0.96032194943E+02 0.  0.
          2    1    3    3  502    0  0.23053771374E+03  0.62746278948E+02 -0.50152499037E+03  0.55552862117E+03  0.00000000000E+00 0. -1.
         -3    1    3    3    0  502 -0.88251987187E-03  0.17006299556E+02 -0.25752916380E+02  0.30861414864E+02  0.00000000000E+00 0.  1.
         11    1    5    5    0    0  0.43271930260E+01 -0.19192848260E+02  0.66697496433E+01  0.20774397323E+02  0.00000000000E+00 0.  1.
        -11    1    5    5    0    0  0.16287185566E+03  0.17256206927E+02  0.25046782027E+03  0.29926434308E+03  0.00000000000E+00 0. -1.
          3    1    6    6  503    0 -0.40095194186E+03 -0.68771535286E+02 -0.48922671583E+03  0.63626626755E+03  0.00000000000E+00 0. -1.
         -3    1    6    6    0  503  0.32160619472E+01 -0.90444018844E+01 -0.13773912313E+02  0.16788833202E+02  0.00000000000E+00 0.  1.
<mgrwt>
<rscale>  0 0.13543423E+04</rscale>
<asrwt>0</asrwt>
<pdfrwt beam="1">  1        4 0.17943268E+00 0.13543423E+04</pdfrwt>
<pdfrwt beam="2">  1       -3 0.60487915E-01 0.13543423E+04</pdfrwt>
<totfact> 0.10806765E+00</totfact>
</mgrwt>
</event>
<event>
12    6  0.1529770E-007  0.1892285E+04  0.7818608E-02  0.8658706E-01
          2   -1    0    0  501    0  0.00000000000E+00  0.00000000000E+00  0.30275872928E+04  0.30275872928E+04  0.00000000000E+00 0. -1.
         -1   -1    0    0    0  501 -0.00000000000E+00 -0.00000000000E+00 -0.29567618521E+03  0.29567618521E+03  0.00000000000E+00 0.  1.
         24    2    1    2    0    0  0.31010729318E+03 -0.48143590577E+03  0.26837473341E+03  0.63740703599E+03  0.79471173059E+02 0.  0.
        254    2    1    2    0    0 -0.31010729318E+03  0.48143590577E+03  0.24635363742E+04  0.26858564421E+04  0.90380655872E+03 0.  0.
         23    2    4    4    0    0 -0.50200062990E+03  0.56481927805E+03  0.13572869287E+04  0.15561804189E+04  0.91892546366E+02 0.  0.
         23    2    4    4    0    0  0.19189333672E+03 -0.83383372284E+02  0.11062494455E+04  0.11296760232E+04  0.92759054132E+02 0.  0.
          4    1    3    3  502    0  0.12893409335E+03 -0.13564211638E+03  0.73141678283E+02  0.20092906526E+03  0.00000000000E+00 0. -1.
         -3    1    3    3    0  502  0.18117319983E+03 -0.34579378939E+03  0.19523305512E+03  0.43647797073E+03  0.00000000000E+00 0.  1.
         11    1    5    5    0    0 -0.55137732789E+02  0.10455916129E+03  0.17736169238E+03  0.21314304518E+03  0.00000000000E+00 0.  1.
        -11    1    5    5    0    0 -0.44686289711E+03  0.46026011676E+03  0.11799252363E+04  0.13430373737E+04  0.00000000000E+00 0. -1.
          1    1    6    6  503    0  0.15017677471E+03 -0.57618767914E+02  0.99748093327E+03  0.10103668632E+04  0.00000000000E+00 0. -1.
         -1    1    6    6    0  503  0.41716562013E+02 -0.25764604370E+02  0.10876851226E+03  0.11930915993E+03  0.00000000000E+00 0.  1.
<mgrwt>
<rscale>  0 0.18922848E+04</rscale>
<asrwt>0</asrwt>
<pdfrwt beam="1">  1        2 0.46578264E+00 0.18922848E+04</pdfrwt>
<pdfrwt beam="2">  1       -1 0.45488646E-01 0.18922848E+04</pdfrwt>
<totfact> 0.85938343E+00</totfact>
</mgrwt>
</event>
<event>
12    6  0.1529770E-007  0.1154151E+04  0.7818608E-02  0.9153963E-01
          2   -1    0    0  501    0  0.00000000000E+00  0.00000000000E+00  0.11716656492E+04  0.11716656492E+04  0.00000000000E+00 0. -1.
         -1   -1    0    0    0  501 -0.00000000000E+00 -0.00000000000E+00 -0.28422445272E+03  0.28422445272E+03  0.00000000000E+00 0.  1.
         24    2    1    2    0    0  0.12250178202E+03 -0.53994839935E+01  0.40829724396E+03  0.43395874386E+03  0.81103088253E+02 0.  0.
        254    2    1    2    0    0 -0.12250178202E+03  0.53994839935E+01  0.47914395248E+03  0.10219313580E+04  0.89427564669E+03 0.  0.
         23    2    4    4    0    0 -0.11319828156E+03 -0.43189867478E+03  0.23978056755E+03  0.51486976408E+03  0.90806592095E+02 0.  0.
         23    2    4    4    0    0 -0.93035004588E+01  0.43729815877E+03  0.23936338493E+03  0.50706159393E+03  0.92197587851E+02 0.  0.
          4    1    3    3  502    0  0.11066906453E+03 -0.22264735421E+02  0.24973581900E+03  0.27406448070E+03  0.00000000000E+00 0. -1.
         -3    1    3    3    0  502  0.11832717493E+02  0.16865251427E+02  0.15856142496E+03  0.15989426316E+03  0.00000000000E+00 0.  1.
         11    1    5    5    0    0 -0.25100085957E+02 -0.14946673722E+03  0.36448164535E+02  0.15588068690E+03  0.00000000000E+00 0. -1.
        -11    1    5    5    0    0 -0.88098195603E+02 -0.28243193756E+03  0.20333240301E+03  0.35898907718E+03  0.00000000000E+00 0.  1.
          4    1    6    6  503    0  0.32015046192E+02  0.15795188091E+03  0.57176420682E+02  0.17100556408E+03  0.00000000000E+00 0.  1.
         -4    1    6    6    0  503 -0.41318546651E+02  0.27934627787E+03  0.18218696425E+03  0.33605602985E+03  0.00000000000E+00 0. -1.
<mgrwt>
<rscale>  0 0.11541508E+04</rscale>
<asrwt>0</asrwt>
<pdfrwt beam="1">  1        2 0.18025625E+00 0.11541508E+04</pdfrwt>
<pdfrwt beam="2">  1       -1 0.43726840E-01 0.11541508E+04</pdfrwt>
<totfact> 0.11475764E+02</totfact>
</mgrwt>
</event>
<event>
12    6  0.1529770E-007  0.1332761E+04  0.7818608E-02  0.9003981E-01
         -1   -1    0    0    0  501 -0.00000000000E+00  0.00000000000E+00  0.11991720285E+04  0.11991720285E+04  0.00000000000E+00 0.  1.
          2   -1    0    0  501    0  0.00000000000E+00 -0.00000000000E+00 -0.37030813339E+03  0.37030813339E+03  0.00000000000E+00 0. -1.
         24    2    1    2    0    0 -0.87133313961E+01  0.10235034896E+03 -0.17671437484E+03  0.21788366640E+03  0.75457310662E+02 0.  0.
        254    2    1    2    0    0  0.87133313961E+01 -0.10235034896E+03  0.10055782700E+04  0.13515964955E+04  0.89725911173E+03 0.  0.
         23    2    4    4    0    0 -0.37163911749E+03 -0.24965418393E+03  0.35790279848E+03  0.58072522107E+03  0.93298038648E+02 0.  0.
         23    2    4    4    0    0  0.38035244889E+03  0.14730383497E+03  0.64767547152E+03  0.77087127447E+03  0.91611135897E+02 0.  0.
          4    1    3    3  502    0  0.28004180742E+02  0.30405897075E+02 -0.91859526715E+02  0.10073194808E+03  0.00000000000E+00 0. -1.
         -3    1    3    3    0  502 -0.36717512138E+02  0.71944451886E+02 -0.84854848127E+02  0.11715171832E+03  0.00000000000E+00 0.  1.
         11    1    5    5    0    0 -0.13941700872E+01 -0.13006813379E+02 -0.13438390338E+01  0.13150163796E+02  0.00000000000E+00 0.  1.
        -11    1    5    5    0    0 -0.37024494741E+03 -0.23664737056E+03  0.35924663751E+03  0.56757505727E+03  0.00000000000E+00 0. -1.
          3    1    6    6  503    0  0.32885476384E+03  0.15754812155E+03  0.54841252606E+03  0.65857662048E+03  0.00000000000E+00 0. -1.
         -3    1    6    6    0  503  0.51497685049E+02 -0.10244286580E+02  0.99262945462E+02  0.11229465399E+03  0.00000000000E+00 0.  1.
<mgrwt>
<rscale>  0 0.13327613E+04</rscale>
<asrwt>0</asrwt>
<pdfrwt beam="1">  1        2 0.56970483E-01 0.13327613E+04</pdfrwt>
<pdfrwt beam="2">  1       -1 0.18448800E+00 0.13327613E+04</pdfrwt>
<totfact> 0.18765967E+01</totfact>
</mgrwt>
</event>
<event>
12    6  0.1529770E-007  0.1739008E+04  0.7818608E-02  0.8739424E-01
         -1   -1    0    0    0  501 -0.00000000000E+00  0.00000000000E+00  0.11455602016E+04  0.11455602016E+04  0.00000000000E+00 0.  1.
          2   -1    0    0  501    0  0.00000000000E+00 -0.00000000000E+00 -0.65997162777E+03  0.65997162777E+03  0.00000000000E+00 0. -1.
         24    2    1    2    0    0 -0.10759786594E+03 -0.46754551736E+03 -0.25923004309E+03  0.55192960166E+03  0.85146687537E+02 0.  0.
        254    2    1    2    0    0  0.10759786594E+03  0.46754551736E+03  0.74481861692E+03  0.12536022277E+04  0.88689777407E+03 0.  0.
         23    2    4    4    0    0  0.40389857332E+03 -0.12860735012E+02  0.18533059309E+03  0.45366089743E+03  0.90340052533E+02 0.  0.
         23    2    4    4    0    0 -0.29630070738E+03  0.48040625237E+03  0.55948802383E+03  0.79994133028E+03  0.91076926654E+02 0.  0.
          2    1    3    3  502    0 -0.10513356066E+03 -0.43308591542E+03 -0.26250265788E+03  0.51722733987E+03  0.00000000000E+00 0. -1.
         -1    1    3    3    0  502 -0.24643052754E+01 -0.34459601935E+02  0.32726147933E+01  0.34702261793E+02  0.00000000000E+00 0.  1.
         11    1    5    5    0    0  0.22266581886E+02  0.98732425070E+01  0.35473786302E+02  0.43031048105E+02  0.00000000000E+00 0. -1.
        -11    1    5    5    0    0  0.38163199143E+03 -0.22733977519E+02  0.14985680679E+03  0.41062984933E+03  0.00000000000E+00 0.  1.
          4    1    6    6  503    0 -0.19680978977E+03  0.23254992907E+03  0.29900508470E+03  0.42686953925E+03  0.00000000000E+00 0. -1.
         -4    1    6    6    0  503 -0.99490917609E+02  0.24785632330E+03  0.26048293913E+03  0.37307179103E+03  0.00000000000E+00 0.  1.
<mgrwt>
<rscale>  0 0.17390080E+04</rscale>
<asrwt>0</asrwt>
<pdfrwt beam="1">  1        2 0.10153410E+00 0.17390080E+04</pdfrwt>
<pdfrwt beam="2">  1       -1 0.17624003E+00 0.17390080E+04</pdfrwt>
<totfact> 0.10588992E+01</totfact>
</mgrwt>
</event>
<event>
12    6  0.1529770E-007  0.1888186E+04  0.7818608E-02  0.8660759E-01
          2   -1    0    0  501    0  0.00000000000E+00  0.00000000000E+00  0.12288116856E+04  0.12288116856E+04  0.00000000000E+00 0. -1.
         -1   -1    0    0    0  501 -0.00000000000E+00 -0.00000000000E+00 -0.72534447269E+03  0.72534447269E+03  0.00000000000E+00 0.  1.
         24    2    1    2    0    0 -0.65551126220E+02 -0.70086788805E+03  0.39478381881E+03  0.81081187000E+03  0.77774534964E+02 0.  0.
        254    2    1    2    0    0  0.65551126220E+02  0.70086788805E+03  0.10868339410E+03  0.11433442883E+04  0.89437762426E+03 0.  0.
         23    2    4    4    0    0  0.43048009093E+03  0.14389928259E+03  0.90206669594E+02  0.47104751666E+03  0.87911361529E+02 0.  0.
         23    2    4    4    0    0 -0.36492896471E+03  0.55696860545E+03  0.18476724507E+02  0.67229677164E+03  0.90853635393E+02 0.  0.
          4    1    3    3  502    0 -0.82290463793E+02 -0.63099355067E+03  0.35279575594E+03  0.72759152471E+03  0.00000000000E+00 0. -1.
         -3    1    3    3    0  502  0.16739337573E+02 -0.69874337378E+02  0.41988062873E+02  0.83220345290E+02  0.00000000000E+00 0.  1.
         11    1    5    5    0    0  0.44631052354E+02 -0.98930558560E+01  0.19516071109E+02  0.49705939483E+02  0.00000000000E+00 0. -1.
        -11    1    5    5    0    0  0.38584903858E+03  0.15379233845E+03  0.70690598484E+02  0.42134157717E+03  0.00000000000E+00 0.  1.
          1    1    6    6  503    0 -0.13330892248E+03  0.27056170656E+03  0.34614439569E+02  0.30360017341E+03  0.00000000000E+00 0. -1.
         -1    1    6    6    0  503 -0.23162004224E+03  0.28640689889E+03 -0.16137715062E+02  0.36869659823E+03  0.00000000000E+00 0.  1.
<mgrwt>
<rscale>  0 0.18881862E+04</rscale>
<asrwt>0</asrwt>
<pdfrwt beam="1">  1        2 0.18904795E+00 0.18881862E+04</pdfrwt>
<pdfrwt beam="2">  1       -1 0.11159146E+00 0.18881862E+04</pdfrwt>
<totfact> 0.14354477E+01</totfact>
</mgrwt>
</event>
<event>
12    6  0.1529770E-007  0.1265925E+04  0.7818608E-02  0.9057032E-01
          2   -1    0    0  501    0  0.00000000000E+00  0.00000000000E+00  0.17642171875E+04  0.17642171875E+04  0.00000000000E+00 0. -1.
         -1   -1    0    0    0  501 -0.00000000000E+00 -0.00000000000E+00 -0.22709315056E+03  0.22709315056E+03  0.00000000000E+00 0.  1.
         24    2    1    2    0    0  0.27514922638E+03  0.67707062556E+02  0.52336810063E+03  0.60108653249E+03  0.84258576380E+02 0.  0.
        254    2    1    2    0    0 -0.27514922638E+03 -0.67707062556E+02  0.10137559363E+04  0.13902238056E+04  0.90814634727E+03 0.  0.
         23    2    4    4    0    0 -0.46296204890E+03 -0.27439836005E+03  0.30795409654E+03  0.62605964580E+03  0.86525347770E+02 0.  0.
         23    2    4    4    0    0  0.18781282252E+03  0.20669129750E+03  0.70580183976E+03  0.76416415975E+03  0.88293132707E+02 0.  0.
          2    1    3    3  502    0  0.26068711740E+03  0.42226253454E+02  0.49036327856E+03  0.55695329662E+03  0.00000000000E+00 0. -1.
         -1    1    3    3    0  502  0.14462108973E+02  0.25480809102E+02  0.33004822066E+02  0.44133235867E+02  0.00000000000E+00 0.  1.
         11    1    5    5    0    0 -0.45424159594E+03 -0.27790659579E+03  0.29140948510E+03  0.60703129365E+03  0.00000000000E+00 0. -1.
        -11    1    5    5    0    0 -0.87204529555E+01  0.35082357361E+01  0.16544611447E+02  0.19028352153E+02  0.00000000000E+00 0.  1.
          4    1    6    6  503    0  0.76579686931E+02  0.64367463713E+02  0.15482019096E+03  0.18432826794E+03  0.00000000000E+00 0.  1.
         -4    1    6    6    0  503  0.11123313559E+03  0.14232383378E+03  0.55098164880E+03  0.57983589181E+03  0.00000000000E+00 0. -1.
<mgrwt>
<rscale>  0 0.12659252E+04</rscale>
<asrwt>0</asrwt>
<pdfrwt beam="1">  1        2 0.27141802E+00 0.12659252E+04</pdfrwt>
<pdfrwt beam="2">  1       -1 0.34937409E-01 0.12659252E+04</pdfrwt>
<totfact> 0.78706220E+01</totfact>
</mgrwt>
</event>
<event>
12    6  0.1529770E-007  0.1369778E+04  0.7818608E-02  0.8975990E-01
          2   -1    0    0  501    0  0.00000000000E+00  0.00000000000E+00  0.69541681935E+03  0.69541681935E+03  0.00000000000E+00 0. -1.
         -1   -1    0    0    0  501 -0.00000000000E+00 -0.00000000000E+00 -0.67452074936E+03  0.67452074936E+03  0.00000000000E+00 0.  1.
         24    2    1    2    0    0 -0.56116181086E+02  0.26524655462E+03  0.13578692208E+03  0.31356133616E+03  0.79861522735E+02 0.  0.
        254    2    1    2    0    0  0.56116181086E+02 -0.26524655462E+03 -0.11489085209E+03  0.10563762326E+04  0.10145078000E+04 0.  0.
         23    2    4    4    0    0  0.42680199502E+02 -0.45542476122E+03  0.32471333609E+03  0.56834761322E+03  0.91361623554E+02 0.  0.
         23    2    4    4    0    0  0.13435981584E+02  0.19017820661E+03 -0.43960418818E+03  0.48802861933E+03  0.92584097719E+02 0.  0.
          4    1    3    3  502    0 -0.66961103022E+02  0.18552441054E+03  0.12203294002E+03  0.23193778190E+03  0.00000000000E+00 0. -1.
         -3    1    3    3    0  502  0.10844921936E+02  0.79722144075E+02  0.13753982063E+02  0.81623554261E+02  0.00000000000E+00 0.  1.
         11    1    5    5    0    0  0.34528629397E+02 -0.33844721484E+03  0.18968980163E+03  0.38951375371E+03  0.00000000000E+00 0.  1.
        -11    1    5    5    0    0  0.81515701052E+01 -0.11697754638E+03  0.13502353446E+03  0.17883385952E+03  0.00000000000E+00 0. -1.
          4    1    6    6  503    0 -0.12881627318E+02  0.42333874352E+02 -0.20319489493E+03  0.20795734795E+03  0.00000000000E+00 0. -1.
         -4    1    6    6    0  503  0.26317608902E+02  0.14784433226E+03 -0.23640929325E+03  0.28007127138E+03  0.00000000000E+00 0.  1.
<mgrwt>
<rscale>  0 0.13697782E+04</rscale>
<asrwt>0</asrwt>
<pdfrwt beam="1">  1        2 0.10698720E+00 0.13697782E+04</pdfrwt>
<pdfrwt beam="2">  1       -1 0.10377242E+00 0.13697782E+04</pdfrwt>
<totfact> 0.40296229E+01</totfact>
</mgrwt>
</event>
<event>
12    6  0.1529770E-007  0.1105803E+04  0.7818608E-02  0.9199555E-01
          2   -1    0    0  501    0  0.00000000000E+00  0.00000000000E+00  0.18095649106E+04  0.18095649106E+04  0.00000000000E+00 0. -1.
         -1   -1    0    0    0  501 -0.00000000000E+00 -0.00000000000E+00 -0.16893559032E+03  0.16893559032E+03  0.00000000000E+00 0.  1.
         24    2    1    2    0    0 -0.76051762242E+02  0.20982636589E+02  0.58304923821E+03  0.59393164022E+03  0.81143314565E+02 0.  0.
        254    2    1    2    0    0  0.76051762242E+02 -0.20982636589E+02  0.10575800820E+04  0.13845688607E+04  0.89012985482E+03 0.  0.
         23    2    4    4    0    0 -0.37638505999E+03  0.62057055801E+02  0.30945353259E+03  0.50154393462E+03  0.10133132766E+03 0.  0.
         23    2    4    4    0    0  0.45243682223E+03 -0.83039692390E+02  0.74812654944E+03  0.88302492605E+03  0.91896775901E+02 0.  0.
          2    1    3    3  502    0 -0.20500482159E+02  0.47333577210E+02  0.27893290180E+03  0.28366230099E+03  0.00000000000E+00 0. -1.
         -3    1    3    3    0  502 -0.55551280082E+02 -0.26350940621E+02  0.30411633641E+03  0.31026933923E+03  0.00000000000E+00 0.  1.
         11    1    5    5    0    0  0.10475997411E+01  0.64437171116E+01 -0.41076783221E+01  0.77131042149E+01  0.00000000000E+00 0.  1.
        -11    1    5    5    0    0 -0.37743265973E+03  0.55613338689E+02  0.31356121091E+03  0.49383083040E+03  0.00000000000E+00 0. -1.
          2    1    6    6  503    0  0.38004906623E+03 -0.71698687632E+02  0.68345652038E+03  0.78529663809E+03  0.00000000000E+00 0. -1.
         -2    1    6    6    0  503  0.72387756002E+02 -0.11341004758E+02  0.64670029061E+02  0.97728287956E+02  0.00000000000E+00 0.  1.
<mgrwt>
<rscale>  0 0.11058027E+04</rscale>
<asrwt>0</asrwt>
<pdfrwt beam="1">  1        2 0.27839459E+00 0.11058027E+04</pdfrwt>
<pdfrwt beam="2">  1       -1 0.25990092E-01 0.11058027E+04</pdfrwt>
<totfact> 0.12634540E+02</totfact>
</mgrwt>
</event>
<event>
12    6  0.1543086E-007  0.2300386E+04  0.7818608E-02  0.8477769E-01
          4   -1    0    0  501    0  0.00000000000E+00  0.00000000000E+00  0.15930983502E+04  0.15930983502E+04  0.00000000000E+00 0. -1.
         -3   -1    0    0    0  501 -0.00000000000E+00 -0.00000000000E+00 -0.83042211245E+03  0.83042211245E+03  0.00000000000E+00 0.  1.
         24    2    1    2    0    0 -0.24198561736E+01  0.48636829978E+03  0.12112671746E+04  0.13077087538E+04  0.79837571779E+02 0.  0.
        254    2    1    2    0    0  0.24198561736E+01 -0.48636829978E+03 -0.44859093682E+03  0.11158117088E+04  0.89846645027E+03 0.  0.
         23    2    4    4    0    0 -0.24953113441E+03 -0.11172098244E+03 -0.57018262737E+03  0.63850648439E+03  0.88515180057E+02 0.  0.
         23    2    4    4    0    0  0.25195099059E+03 -0.37464731735E+03  0.12159169054E+03  0.47730522445E+03  0.95894859236E+02 0.  0.
          2    1    3    3  502    0  0.28688287097E+01  0.47114830775E+03  0.11962151433E+04  0.12856592188E+04  0.00000000000E+00 0. -1.
         -1    1    3    3    0  502 -0.52886848833E+01  0.15219992036E+02  0.15052031334E+02  0.22049534976E+02  0.00000000000E+00 0.  1.
         11    1    5    5    0    0 -0.25619061174E+02  0.92217772912E+01 -0.25496763897E+02  0.37302311471E+02  0.00000000000E+00 0. -1.
        -11    1    5    5    0    0 -0.22391207324E+03 -0.12094275973E+03 -0.54468586347E+03  0.60120417292E+03  0.00000000000E+00 0.  1.
          1    1    6    6  503    0  0.45153920091E+02 -0.19754955702E+02  0.12914792084E+01  0.49303171225E+02  0.00000000000E+00 0. -1.
         -1    1    6    6    0  503  0.20679707050E+03 -0.35489236164E+03  0.12030021133E+03  0.42800205323E+03  0.00000000000E+00 0.  1.
<mgrwt>
<rscale>  0 0.23003861E+04</rscale>
<asrwt>0</asrwt>
<pdfrwt beam="1">  1        4 0.24509205E+00 0.23003861E+04</pdfrwt>
<pdfrwt beam="2">  1       -3 0.12775725E+00 0.23003861E+04</pdfrwt>
<totfact> 0.67812978E-02</totfact>
</mgrwt>
</event>
<event>
12    6  0.1529770E-007  0.1705282E+04  0.7818608E-02  0.8758358E-01
          2   -1    0    0  501    0  0.00000000000E+00  0.00000000000E+00  0.15645426443E+04  0.15645426443E+04  0.00000000000E+00 0. -1.
         -1   -1    0    0    0  501 -0.00000000000E+00 -0.00000000000E+00 -0.46467039813E+03  0.46467039813E+03  0.00000000000E+00 0.  1.
         24    2    1    2    0    0 -0.40239431205E+03  0.26385892239E+03 -0.38939490217E+02  0.48908295959E+03  0.78378212345E+02 0.  0.
        254    2    1    2    0    0  0.40239431205E+03 -0.26385892239E+03  0.11388117363E+04  0.15401300828E+04  0.91845837566E+03 0.  0.
         23    2    4    4    0    0  0.34598575851E+03  0.18194302352E+03  0.11362486381E+03  0.41681256311E+03  0.89513653659E+02 0.  0.
         23    2    4    4    0    0  0.56408553538E+02 -0.44580194591E+03  0.10251868725E+04  0.11233175197E+04  0.94407767390E+02 0.  0.
          4    1    3    3  502    0 -0.52657875739E+02  0.16337425551E+02 -0.24612376932E+02  0.60378244834E+02  0.00000000000E+00 0. -1.
         -3    1    3    3    0  502 -0.34973643631E+03  0.24752149684E+03 -0.14327113285E+02  0.42870471476E+03  0.00000000000E+00 0.  1.
         11    1    5    5    0    0  0.16656241416E+03  0.12838019699E+03  0.87408988506E+02  0.22773854321E+03  0.00000000000E+00 0.  1.
        -11    1    5    5    0    0  0.17942334435E+03  0.53562826520E+02  0.26215875301E+02  0.18907401990E+03  0.00000000000E+00 0. -1.
          1    1    6    6  503    0  0.52596486200E+02 -0.11106266365E+03  0.23635923137E+03  0.26639630604E+03  0.00000000000E+00 0. -1.
         -1    1    6    6    0  503  0.38120673384E+01 -0.33473928226E+03  0.78882764116E+03  0.85692121365E+03  0.00000000000E+00 0.  1.
<mgrwt>
<rscale>  0 0.17052820E+04</rscale>
<asrwt>0</asrwt>
<pdfrwt beam="1">  1        2 0.24069887E+00 0.17052820E+04</pdfrwt>
<pdfrwt beam="2">  1       -1 0.71487755E-01 0.17052820E+04</pdfrwt>
<totfact> 0.24994531E+01</totfact>
</mgrwt>
</event>
<event>
12    6  0.1529770E-007  0.1663719E+04  0.7818608E-02  0.8782331E-01
          2   -1    0    0  501    0  0.00000000000E+00  0.00000000000E+00  0.24224532281E+04  0.24224532281E+04  0.00000000000E+00 0. -1.
         -3   -1    0    0    0  501 -0.00000000000E+00 -0.00000000000E+00 -0.28565696312E+03  0.28565696312E+03  0.00000000000E+00 0.  1.
         24    2    1    2    0    0  0.18107841899E+03  0.45526387990E+03  0.12893578590E+04  0.13815620287E+04  0.78837531667E+02 0.  0.
        254    2    1    2    0    0 -0.18107841899E+03 -0.45526387990E+03  0.84743840596E+03  0.13265481625E+04  0.89527849377E+03 0.  0.
         23    2    4    4    0    0  0.29806734809E+03 -0.52069735580E+00  0.10108053550E+03  0.32533143252E+03  0.82333779258E+02 0.  0.
         23    2    4    4    0    0 -0.47914576708E+03 -0.45474318254E+03  0.74635787047E+03  0.10012167300E+04  0.94935986038E+02 0.  0.
          2    1    3    3  502    0  0.18666986654E+03  0.44593299819E+03  0.12374613226E+04  0.13285376934E+04  0.00000000000E+00 0. -1.
         -3    1    3    3    0  502 -0.55914475439E+01  0.93308817040E+01  0.51896536430E+02  0.53024335286E+02  0.00000000000E+00 0.  1.
         11    1    5    5    0    0  0.22082151472E+03 -0.23935280806E+02  0.10244866808E+03  0.24460328825E+03  0.00000000000E+00 0. -1.
        -11    1    5    5    0    0  0.77245833366E+02  0.23414583451E+02 -0.13681325808E+01  0.80728144271E+02  0.00000000000E+00 0.  1.
          4    1    6    6  503    0 -0.15051415997E+03 -0.20594345811E+03  0.29374378194E+03  0.38904065304E+03  0.00000000000E+00 0.  1.
         -4    1    6    6    0  503 -0.32863160711E+03 -0.24879972443E+03  0.45261408852E+03  0.61217607696E+03  0.00000000000E+00 0. -1.
<mgrwt>
<rscale>  0 0.16637195E+04</rscale>
<asrwt>0</asrwt>
<pdfrwt beam="1">  1        2 0.37268510E+00 0.16637195E+04</pdfrwt>
<pdfrwt beam="2">  1       -3 0.43947227E-01 0.16637195E+04</pdfrwt>
<totfact> 0.12256351E+01</totfact>
</mgrwt>
</event>
<event>
12    6  0.1529770E-007  0.1741918E+04  0.7818608E-02  0.8737812E-01
         -1   -1    0    0    0  501 -0.00000000000E+00  0.00000000000E+00  0.54181832888E+03  0.54181832888E+03  0.00000000000E+00 0.  1.
          2   -1    0    0  501    0  0.00000000000E+00 -0.00000000000E+00 -0.14000439931E+04  0.14000439931E+04  0.00000000000E+00 0. -1.
         24    2    1    2    0    0 -0.50185504181E+03 -0.39139691077E+03 -0.34370543423E+03  0.72775112832E+03  0.80238734410E+02 0.  0.
        254    2    1    2    0    0  0.50185504181E+03  0.39139691077E+03 -0.51452023000E+03  0.12141111937E+04  0.89681932338E+03 0.  0.
         23    2    4    4    0    0 -0.17127383274E+03  0.26147490613E+03  0.39999767246E+02  0.32784894081E+03  0.90449401845E+02 0.  0.
         23    2    4    4    0    0  0.67312887455E+03  0.12992200464E+03 -0.55451999725E+03  0.88626225287E+03  0.89365230756E+02 0.  0.
          4    1    3    3  502    0 -0.45019784598E+03 -0.37697536431E+03 -0.30552844478E+03  0.66191854211E+03  0.00000000000E+00 0. -1.
         -3    1    3    3    0  502 -0.51657195835E+02 -0.14421546464E+02 -0.38176989452E+02  0.65832586214E+02  0.00000000000E+00 0.  1.
         11    1    5    5    0    0 -0.29528550809E+02  0.99662045961E+01 -0.13959283208E+02  0.34148530490E+02  0.00000000000E+00 0.  1.
        -11    1    5    5    0    0 -0.14174528193E+03  0.25150870153E+03  0.53959050454E+02  0.29370041032E+03  0.00000000000E+00 0. -1.
          3    1    6    6  503    0  0.53219932395E+03  0.67737060709E+02 -0.41247700289E+03  0.67672868103E+03  0.00000000000E+00 0. -1.
         -3    1    6    6    0  503  0.14092955060E+03  0.62184943929E+02 -0.14204299435E+03  0.20953357184E+03  0.00000000000E+00 0.  1.
<mgrwt>
<rscale>  0 0.17419179E+04</rscale>
<asrwt>0</asrwt>
<pdfrwt beam="1">  1        2 0.21539138E+00 0.17419179E+04</pdfrwt>
<pdfrwt beam="2">  1       -1 0.83356666E-01 0.17419179E+04</pdfrwt>
<totfact> 0.22339306E+01</totfact>
</mgrwt>
</event>
<event>
12    6  0.1529770E-007  0.1237894E+04  0.7818608E-02  0.9080320E-01
          2   -1    0    0  501    0  0.00000000000E+00  0.00000000000E+00  0.20539094054E+04  0.20539094054E+04  0.00000000000E+00 0. -1.
         -1   -1    0    0    0  501 -0.00000000000E+00 -0.00000000000E+00 -0.18652002906E+03  0.18652002906E+03  0.00000000000E+00 0.  1.
         24    2    1    2    0    0  0.28463135268E+03 -0.70200801801E+02  0.47939959968E+03  0.56742471080E+03  0.78763359185E+02 0.  0.
        254    2    1    2    0    0 -0.28463135268E+03  0.70200801801E+02  0.13879897767E+04  0.16730047237E+04  0.88684047369E+03 0.  0.
         23    2    4    4    0    0 -0.49919055378E+03  0.25747342576E+03  0.11776138970E+04  0.13079351439E+04  0.91848115689E+02 0.  0.
         23    2    4    4    0    0  0.21455920110E+03 -0.18727262396E+03  0.21037587969E+03  0.36506957976E+03  0.88944369396E+02 0.  0.
          4    1    3    3  502    0  0.23221330292E+03 -0.61796826997E+02  0.32523517877E+03  0.40437579971E+03  0.00000000000E+00 0. -1.
         -3    1    3    3    0  502  0.52418049755E+02 -0.84039748039E+01  0.15416442091E+03  0.16304891109E+03  0.00000000000E+00 0.  1.
         11    1    5    5    0    0 -0.37389177591E+03  0.15004202122E+03  0.87314110331E+03  0.96160441685E+03  0.00000000000E+00 0. -1.
        -11    1    5    5    0    0 -0.12529877787E+03  0.10743140454E+03  0.30447279368E+03  0.34633072706E+03  0.00000000000E+00 0.  1.
          4    1    6    6  503    0  0.20130788722E+03 -0.14567916185E+03  0.20284810757E+03  0.32077194142E+03  0.00000000000E+00 0. -1.
         -4    1    6    6    0  503  0.13251313883E+02 -0.41593462105E+02  0.75277721186E+01  0.44297638341E+02  0.00000000000E+00 0.  1.
<mgrwt>
<rscale>  0 0.12378938E+04</rscale>
<asrwt>0</asrwt>
<pdfrwt beam="1">  1        2 0.31598605E+00 0.12378938E+04</pdfrwt>
<pdfrwt beam="2">  1       -1 0.28695391E-01 0.12378938E+04</pdfrwt>
<totfact> 0.77226989E+01</totfact>
</mgrwt>
</event>
<event>
12    6  0.1529770E-007  0.3286751E+04  0.7818608E-02  0.8166275E-01
         -1   -1    0    0    0  501 -0.00000000000E+00  0.00000000000E+00  0.14057587879E+04  0.14057587879E+04  0.00000000000E+00 0.  1.
          2   -1    0    0  501    0  0.00000000000E+00 -0.00000000000E+00 -0.19211562304E+04  0.19211562304E+04  0.00000000000E+00 0. -1.
         24    2    1    2    0    0  0.50499883406E+03 -0.63186879732E+03  0.10638050887E+04  0.13387311491E+04  0.78979891718E+02 0.  0.
        254    2    1    2    0    0 -0.50499883406E+03  0.63186879732E+03 -0.15792025312E+04  0.19881838693E+04  0.89705767041E+03 0.  0.
         23    2    4    4    0    0 -0.64029909712E+03  0.27960599722E+03 -0.56883755585E+03  0.90559909837E+03  0.91493795237E+02 0.  0.
         23    2    4    4    0    0  0.13530026306E+03  0.35226280010E+03 -0.10103649754E+04  0.10825847709E+04  0.93579705291E+02 0.  0.
          2    1    3    3  502    0  0.19559995493E+03 -0.21427636456E+03  0.43612770746E+03  0.52381397460E+03  0.00000000000E+00 0. -1.
         -1    1    3    3    0  502  0.30939887913E+03 -0.41759243276E+03  0.62767738126E+03  0.81491717447E+03  0.00000000000E+00 0.  1.
         11    1    5    5    0    0 -0.43723230947E+03  0.14441348138E+03 -0.38288310353E+03  0.59885458754E+03  0.00000000000E+00 0. -1.
        -11    1    5    5    0    0 -0.20306678765E+03  0.13519251584E+03 -0.18595445232E+03  0.30674451082E+03  0.00000000000E+00 0.  1.
          1    1    6    6  503    0  0.26647605888E+02  0.19145237195E+03 -0.45812506093E+03  0.49723503203E+03  0.00000000000E+00 0. -1.
         -1    1    6    6    0  503  0.10865265718E+03  0.16081042816E+03 -0.55223991443E+03  0.58534973888E+03  0.00000000000E+00 0.  1.
<mgrwt>
<rscale>  0 0.32867505E+04</rscale>
<asrwt>0</asrwt>
<pdfrwt beam="1">  1        2 0.29556250E+00 0.32867505E+04</pdfrwt>
<pdfrwt beam="2">  1       -1 0.21627058E+00 0.32867505E+04</pdfrwt>
<totfact> 0.81964461E-01</totfact>
</mgrwt>
</event>
<event>
12    6  0.1529770E-007  0.1628793E+04  0.7818608E-02  0.8803052E-01
         -1   -1    0    0    0  501 -0.00000000000E+00  0.00000000000E+00  0.12312071008E+04  0.12312071008E+04  0.00000000000E+00 0.  1.
          2   -1    0    0  501    0  0.00000000000E+00 -0.00000000000E+00 -0.53869230273E+03  0.53869230273E+03  0.00000000000E+00 0. -1.
         24    2    1    2    0    0  0.31185966843E+03 -0.11460225269E+03  0.72844559916E+03  0.80483920770E+03  0.82115955896E+02 0.  0.
        254    2    1    2    0    0 -0.31185966843E+03  0.11460225269E+03 -0.35930801130E+02  0.96506019578E+03  0.90535077727E+03 0.  0.
         23    2    4    4    0    0  0.75940189872E+02 -0.59139871572E+02 -0.38550542732E+03  0.40711269630E+03  0.88667221407E+02 0.  0.
         23    2    4    4    0    0 -0.38779985830E+03  0.17374212426E+03  0.34957462619E+03  0.55794749948E+03  0.92346830253E+02 0.  0.
          2    1    3    3  502    0  0.13475808580E+03 -0.90368976212E+02  0.31252232701E+03  0.35213136530E+03  0.00000000000E+00 0. -1.
         -1    1    3    3    0  502  0.17710158263E+03 -0.24233276476E+02  0.41592327214E+03  0.45270784240E+03  0.00000000000E+00 0.  1.
         11    1    5    5    0    0  0.83869542091E+02 -0.71995383023E+02 -0.36667754615E+03  0.38297500979E+03  0.00000000000E+00 0.  1.
        -11    1    5    5    0    0 -0.79293522189E+01  0.12855511451E+02 -0.18827881165E+02  0.24137686518E+02  0.00000000000E+00 0. -1.
          1    1    6    6  503    0 -0.73434556616E+02 -0.29751236612E+00  0.81056606599E+02  0.10937502499E+03  0.00000000000E+00 0. -1.
         -1    1    6    6    0  503 -0.31436530169E+03  0.17403963663E+03  0.26851801959E+03  0.44857247449E+03  0.00000000000E+00 0.  1.
<mgrwt>
<rscale>  0 0.16287932E+04</rscale>
<asrwt>0</asrwt>
<pdfrwt beam="1">  1        2 0.82875739E-01 0.16287932E+04</pdfrwt>
<pdfrwt beam="2">  1       -1 0.18941648E+00 0.16287932E+04</pdfrwt>
<totfact> 0.11003700E+01</totfact>
</mgrwt>
</event>
<event>
12    6  0.1529770E-007  0.1704471E+04  0.7818608E-02  0.8758818E-01
         -1   -1    0    0    0  501 -0.00000000000E+00  0.00000000000E+00  0.28140305714E+03  0.28140305714E+03  0.00000000000E+00 0.  1.
          2   -1    0    0  501    0  0.00000000000E+00 -0.00000000000E+00 -0.25810158135E+04  0.25810158135E+04  0.00000000000E+00 0. -1.
         24    2    1    2    0    0 -0.45133037696E+03 -0.10680956664E+03 -0.16307129611E+03  0.49795108387E+03  0.79092614215E+02 0.  0.
        254    2    1    2    0    0  0.45133037696E+03  0.10680956664E+03 -0.21365414602E+04  0.23644677867E+04  0.90043939860E+03 0.  0.
         23    2    4    4    0    0 -0.57141198543E+02 -0.32397495360E+03 -0.73109246666E+03  0.80652433944E+03  0.88093292399E+02 0.  0.
         23    2    4    4    0    0  0.50847157550E+03  0.43078452025E+03 -0.14054489936E+04  0.15579434473E+04  0.88217149609E+02 0.  0.
          4    1    3    3  502    0 -0.12573645033E+03  0.19747169028E+01 -0.61297422524E+02  0.13989613453E+03  0.00000000000E+00 0. -1.
         -3    1    3    3    0  502 -0.32559392663E+03 -0.10878428355E+03 -0.10177387358E+03  0.35805494934E+03  0.00000000000E+00 0.  1.
         11    1    5    5    0    0 -0.45758999263E+02 -0.32449198125E+03 -0.71746166189E+03  0.78875862480E+03  0.00000000000E+00 0.  1.
        -11    1    5    5    0    0 -0.11382199280E+02  0.51702764600E+00 -0.13630804767E+02  0.17765714639E+02  0.00000000000E+00 0. -1.
          3    1    6    6  503    0  0.13663318614E+02  0.54356084185E+01 -0.71046152283E+02  0.72551966677E+02  0.00000000000E+00 0. -1.
         -3    1    6    6    0  503  0.49480825689E+03  0.42534891183E+03 -0.13344028413E+04  0.14853914806E+04  0.00000000000E+00 0.  1.
<mgrwt>
<rscale>  0 0.17044715E+04</rscale>
<asrwt>0</asrwt>
<pdfrwt beam="1">  1        2 0.39707936E+00 0.17044715E+04</pdfrwt>
<pdfrwt beam="2">  1       -1 0.43292777E-01 0.17044715E+04</pdfrwt>
<totfact> 0.17836579E+01</totfact>
</mgrwt>
</event>
<event>
12    6  0.1529770E-007  0.2410594E+04  0.7818608E-02  0.8435548E-01
         -1   -1    0    0    0  501 -0.00000000000E+00  0.00000000000E+00  0.10265446804E+04  0.10265446804E+04  0.00000000000E+00 0.  1.
          2   -1    0    0  501    0  0.00000000000E+00 -0.00000000000E+00 -0.14151756081E+04  0.14151756081E+04  0.00000000000E+00 0. -1.
         24    2    1    2    0    0  0.17278252524E+03  0.50782656451E+02 -0.11714375962E+04  0.11879577465E+04  0.80900473034E+02 0.  0.
        254    2    1    2    0    0 -0.17278252524E+03 -0.50782656451E+02  0.78280666853E+03  0.12537625420E+04  0.96265339149E+03 0.  0.
         23    2    4    4    0    0  0.10920399110E+03  0.34448595496E+03  0.58337273396E+02  0.37692697381E+03  0.89858896512E+02 0.  0.
         23    2    4    4    0    0 -0.28198651633E+03 -0.39526861142E+03  0.72446939513E+03  0.87683556816E+03  0.90725071186E+02 0.  0.
          4    1    3    3  502    0  0.39614991434E+02  0.47166674887E+02 -0.46584215385E+03  0.46989674938E+03  0.00000000000E+00 0. -1.
         -1    1    3    3    0  502  0.13316753380E+03  0.36159815646E+01 -0.70559544234E+03  0.71806099715E+03  0.00000000000E+00 0.  1.
         11    1    5    5    0    0  0.88441632327E+01  0.49361024989E+02 -0.22394109150E+02  0.54920179678E+02  0.00000000000E+00 0. -1.
        -11    1    5    5    0    0  0.10035982787E+03  0.29512492998E+03  0.80731382547E+02  0.32200679414E+03  0.00000000000E+00 0.  1.
          3    1    6    6  503    0 -0.89686102762E+02 -0.18697825797E+03  0.35512118682E+03  0.41123657828E+03  0.00000000000E+00 0. -1.
         -3    1    6    6    0  503 -0.19230041357E+03 -0.20829035344E+03  0.36934820831E+03  0.46559898988E+03  0.00000000000E+00 0.  1.
<mgrwt>
<rscale>  0 0.24105941E+04</rscale>
<asrwt>0</asrwt>
<pdfrwt beam="1">  1        2 0.21771932E+00 0.24105941E+04</pdfrwt>
<pdfrwt beam="2">  1       -1 0.15792995E+00 0.24105941E+04</pdfrwt>
<totfact> 0.43998234E+00</totfact>
</mgrwt>
</event>
<event>
12    6  0.1529770E-007  0.3265524E+04  0.7818608E-02  0.8171724E-01
         -1   -1    0    0    0  501 -0.00000000000E+00  0.00000000000E+00  0.20634553897E+04  0.20634553897E+04  0.00000000000E+00 0.  1.
          2   -1    0    0  501    0  0.00000000000E+00 -0.00000000000E+00 -0.12919648519E+04  0.12919648519E+04  0.00000000000E+00 0. -1.
         24    2    1    2    0    0 -0.56937322958E+03  0.93062355197E+01  0.17912644881E+04  0.18813229349E+04  0.80467622787E+02 0.  0.
        254    2    1    2    0    0  0.56937322958E+03 -0.93062355197E+01 -0.10197739504E+04  0.14740973067E+04  0.89930610979E+03 0.  0.
         23    2    4    4    0    0  0.68701101025E+03 -0.21640761194E+03 -0.46149511335E+03  0.86046300419E+03  0.92749443280E+02 0.  0.
         23    2    4    4    0    0 -0.11763778067E+03  0.20710137642E+03 -0.55827883701E+03  0.61363430248E+03  0.90233972351E+02 0.  0.
          4    1    3    3  502    0 -0.19770866679E+03 -0.24046403032E+02  0.71407337772E+03  0.74132835855E+03  0.00000000000E+00 0. -1.
         -3    1    3    3    0  502 -0.37166456279E+03  0.33352638551E+02  0.10771911104E+04  0.11399945763E+04  0.00000000000E+00 0.  1.
         11    1    5    5    0    0  0.25710802401E+03 -0.61211189376E+02 -0.12188935982E+03  0.29104700952E+03  0.00000000000E+00 0. -1.
        -11    1    5    5    0    0  0.42990298624E+03 -0.15519642256E+03 -0.33960575353E+03  0.56941599467E+03  0.00000000000E+00 0.  1.
          2    1    6    6  503    0 -0.58425347243E+02  0.17691525004E+03 -0.44270747064E+03  0.48031492945E+03  0.00000000000E+00 0.  1.
         -2    1    6    6    0  503 -0.59212433426E+02  0.30186126380E+02 -0.11557136637E+03  0.13331937302E+03  0.00000000000E+00 0. -1.
<mgrwt>
<rscale>  0 0.32655241E+04</rscale>
<asrwt>0</asrwt>
<pdfrwt beam="1">  1        2 0.19876382E+00 0.32655241E+04</pdfrwt>
<pdfrwt beam="2">  1       -1 0.31745467E+00 0.32655241E+04</pdfrwt>
<totfact> 0.40529147E-01</totfact>
</mgrwt>
</event>
<event>
12    6  0.1529770E-007  0.1199443E+04  0.7818608E-02  0.9113344E-01
         -1   -1    0    0    0  501 -0.00000000000E+00  0.00000000000E+00  0.32875252991E+03  0.32875252991E+03  0.00000000000E+00 0.  1.
          2   -1    0    0  501    0  0.00000000000E+00 -0.00000000000E+00 -0.10940321673E+04  0.10940321673E+04  0.00000000000E+00 0. -1.
         24    2    1    2    0    0 -0.11993658121E+03  0.13727708297E+03  0.65289172743E+02  0.20896056513E+03  0.78562463544E+02 0.  0.
        254    2    1    2    0    0  0.11993658121E+03 -0.13727708297E+03 -0.83056881017E+03  0.12138241321E+04  0.86619552889E+03 0.  0.
         23    2    4    4    0    0 -0.26853216288E+03 -0.71122169341E+02 -0.74534351327E+03  0.80072171542E+03  0.91926205699E+02 0.  0.
         23    2    4    4    0    0  0.38846874409E+03 -0.66154913634E+02 -0.85225296896E+02  0.41310241670E+03  0.90032314858E+02 0.  0.
          4    1    3    3  502    0  0.33987571210E+01  0.31215805750E+02 -0.49293170032E+01  0.31784843003E+02  0.00000000000E+00 0. -1.
         -3    1    3    3    0  502 -0.12333533833E+03  0.10606127722E+03  0.70218489746E+02  0.17717572212E+03  0.00000000000E+00 0.  1.
         11    1    5    5    0    0 -0.27460561428E+02  0.16047921949E+02 -0.13565207554E+03  0.13933091484E+03  0.00000000000E+00 0. -1.
        -11    1    5    5    0    0 -0.24107160145E+03 -0.87170091290E+02 -0.60969143773E+03  0.66139080057E+03  0.00000000000E+00 0.  1.
          3    1    6    6  503    0  0.26953690711E+03 -0.45394498372E+02 -0.15697782043E+02  0.27378317176E+03  0.00000000000E+00 0. -1.
         -3    1    6    6    0  503  0.11893183698E+03 -0.20760415262E+02 -0.69527514852E+02  0.13931924494E+03  0.00000000000E+00 0.  1.
<mgrwt>
<rscale>  0 0.11994429E+04</rscale>
<asrwt>0</asrwt>
<pdfrwt beam="1">  1        2 0.16831264E+00 0.11994429E+04</pdfrwt>
<pdfrwt beam="2">  1       -1 0.50577312E-01 0.11994429E+04</pdfrwt>
<totfact> 0.97061613E+01</totfact>
</mgrwt>
</event>
<event>
12    6  0.1529770E-007  0.2771490E+04  0.7818608E-02  0.8312175E-01
          2   -1    0    0  501    0  0.00000000000E+00  0.00000000000E+00  0.16720805056E+04  0.16720805056E+04  0.00000000000E+00 0. -1.
         -1   -1    0    0    0  501 -0.00000000000E+00 -0.00000000000E+00 -0.11484432513E+04  0.11484432513E+04  0.00000000000E+00 0.  1.
         24    2    1    2    0    0  0.34437921372E+03  0.10490290676E+04 -0.33683735145E+03  0.11570978026E+04  0.79730144098E+02 0.  0.
        254    2    1    2    0    0 -0.34437921372E+03 -0.10490290676E+04  0.86047460579E+03  0.16634259544E+04  0.89861578606E+03 0.  0.
         23    2    4    4    0    0 -0.27055322199E+03 -0.45749828306E+03 -0.81524913480E+02  0.54490679844E+03  0.88166788139E+02 0.  0.
         23    2    4    4    0    0 -0.73825991726E+02 -0.59153078454E+03  0.94199951927E+03  0.11185191559E+04  0.91449777319E+02 0.  0.
          2    1    3    3  502    0  0.47461101147E+02  0.75860883765E+02 -0.30080059271E+02  0.94404659701E+02  0.00000000000E+00 0. -1.
         -1    1    3    3    0  502  0.29691811257E+03  0.97316818384E+03 -0.30675729218E+03  0.10626931429E+04  0.00000000000E+00 0.  1.
         11    1    5    5    0    0 -0.12774854009E+03 -0.30051970794E+03 -0.47569280266E+02  0.32999184957E+03  0.00000000000E+00 0. -1.
        -11    1    5    5    0    0 -0.14280468191E+03 -0.15697857512E+03 -0.33955633214E+02  0.21491494887E+03  0.00000000000E+00 0.  1.
          2    1    6    6  503    0 -0.26810685577E+02 -0.48424074291E+03  0.78296558752E+03  0.92100109729E+03  0.00000000000E+00 0. -1.
         -2    1    6    6    0  503 -0.47015306149E+02 -0.10729004162E+03  0.15903393175E+03  0.19751805865E+03  0.00000000000E+00 0.  1.
<mgrwt>
<rscale>  0 0.27714903E+04</rscale>
<asrwt>0</asrwt>
<pdfrwt beam="1">  1        2 0.25724315E+00 0.27714903E+04</pdfrwt>
<pdfrwt beam="2">  1       -1 0.17668358E+00 0.27714903E+04</pdfrwt>
<totfact> 0.22194415E+00</totfact>
</mgrwt>
</event>
<event>
12    6  0.1529770E-007  0.3253485E+04  0.7818608E-02  0.8174833E-01
          2   -1    0    0  501    0  0.00000000000E+00  0.00000000000E+00  0.33874823160E+04  0.33874823160E+04  0.00000000000E+00 0. -1.
         -1   -1    0    0    0  501 -0.00000000000E+00 -0.00000000000E+00 -0.78119720969E+03  0.78119720969E+03  0.00000000000E+00 0.  1.
         24    2    1    2    0    0 -0.90262445156E+02  0.10167704952E+04  0.26136832533E+04  0.28071274213E+04  0.81576109890E+02 0.  0.
        254    2    1    2    0    0  0.90262445156E+02 -0.10167704952E+04 -0.73981469206E+01  0.13615521045E+04  0.90099936277E+03 0.  0.
         23    2    4    4    0    0  0.44869441578E+03 -0.66175736773E+03  0.16447786204E+03  0.82097853831E+03  0.87768449790E+02 0.  0.
         23    2    4    4    0    0 -0.35843197062E+03 -0.35501312749E+03 -0.17187600896E+03  0.54057356617E+03  0.90391480428E+02 0.  0.
          2    1    3    3  502    0  0.30445792217E+01  0.16903858343E+03  0.36902651667E+03  0.40591117521E+03  0.00000000000E+00 0. -1.
         -1    1    3    3    0  502 -0.93307024378E+02  0.84773191179E+03  0.22446567366E+04  0.24012162460E+04  0.00000000000E+00 0.  1.
         11    1    5    5    0    0  0.35721139523E+03 -0.47318556198E+03  0.96779921048E+02  0.60072531998E+03  0.00000000000E+00 0.  1.
        -11    1    5    5    0    0  0.91483020549E+02 -0.18857180575E+03  0.67697940988E+02  0.22025321833E+03  0.00000000000E+00 0. -1.
          2    1    6    6  503    0 -0.12162058208E+03 -0.10881376982E+03 -0.10029689681E+03  0.19155017618E+03  0.00000000000E+00 0. -1.
         -2    1    6    6    0  503 -0.23681138855E+03 -0.24619935767E+03 -0.71579112149E+02  0.34902338999E+03  0.00000000000E+00 0.  1.
<mgrwt>
<rscale>  0 0.32534854E+04</rscale>
<asrwt>0</asrwt>
<pdfrwt beam="1">  1        2 0.52115112E+00 0.32534854E+04</pdfrwt>
<pdfrwt beam="2">  1       -1 0.12018419E+00 0.32534854E+04</pdfrwt>
<totfact> 0.57022924E-01</totfact>
</mgrwt>
</event>
<event>
12    6  0.1529770E-007  0.1340474E+04  0.7818608E-02  0.8998071E-01
         -1   -1    0    0    0  501 -0.00000000000E+00  0.00000000000E+00  0.22736839293E+03  0.22736839293E+03  0.00000000000E+00 0.  1.
          2   -1    0    0  501    0  0.00000000000E+00 -0.00000000000E+00 -0.19757256151E+04  0.19757256151E+04  0.00000000000E+00 0. -1.
         24    2    1    2    0    0 -0.25632223306E+02 -0.27399744351E+03 -0.88877785417E+03  0.93404842967E+03  0.82394083426E+02 0.  0.
        254    2    1    2    0    0  0.25632223306E+02  0.27399744351E+03 -0.85957936800E+03  0.12690455784E+04  0.89211455549E+03 0.  0.
         23    2    4    4    0    0 -0.26762578804E+02  0.46379018082E+03 -0.92524013856E+03  0.10393107298E+04  0.90994019131E+02 0.  0.
         23    2    4    4    0    0  0.52394802110E+02 -0.18979273731E+03  0.65660770561E+02  0.22973484860E+03  0.98489925613E+02 0.  0.
          4    1    3    3  502    0 -0.25526993969E+02 -0.27382912858E+03 -0.89066144828E+03  0.93215440488E+03  0.00000000000E+00 0. -1.
         -3    1    3    3    0  502 -0.10522933757E+00 -0.16831493008E+00  0.18835941118E+01  0.18940247906E+01  0.00000000000E+00 0.  1.
         11    1    5    5    0    0 -0.53259078929E+02  0.35760970479E+03 -0.75197568890E+03  0.83437921064E+03  0.00000000000E+00 0. -1.
        -11    1    5    5    0    0  0.26496500125E+02  0.10618047603E+03 -0.17326444966E+03  0.20493151911E+03  0.00000000000E+00 0.  1.
          3    1    6    6  503    0  0.30129233120E+02 -0.18200173219E+03  0.29887411372E+02  0.18688407789E+03  0.00000000000E+00 0. -1.
         -3    1    6    6    0  503  0.22265568990E+02 -0.77910051196E+01  0.35773359188E+02  0.42850770715E+02  0.00000000000E+00 0.  1.
<mgrwt>
<rscale>  0 0.13404739E+04</rscale>
<asrwt>0</asrwt>
<pdfrwt beam="1">  1        2 0.30395777E+00 0.13404739E+04</pdfrwt>
<pdfrwt beam="2">  1       -1 0.34979754E-01 0.13404739E+04</pdfrwt>
<totfact> 0.59650621E+01</totfact>
</mgrwt>
</event>
<event>
12    6  0.1529770E-007  0.2867251E+04  0.7818608E-02  0.8282688E-01
          2   -1    0    0  501    0  0.00000000000E+00  0.00000000000E+00  0.20466311113E+04  0.20466311113E+04  0.00000000000E+00 0. -1.
         -1   -1    0    0    0  501 -0.00000000000E+00 -0.00000000000E+00 -0.10042269735E+04  0.10042269735E+04  0.00000000000E+00 0.  1.
         24    2    1    2    0    0 -0.80147486958E+03 -0.53317492272E+03  0.14714331373E+04  0.17602381715E+04  0.81764772331E+02 0.  0.
        254    2    1    2    0    0  0.80147486958E+03  0.53317492272E+03 -0.42902899951E+03  0.12906199134E+04  0.74498081427E+03 0.  0.
         23    2    4    4    0    0  0.75801801307E+03  0.68495482468E+03 -0.30746628689E+03  0.10708371166E+04  0.91663475906E+02 0.  0.
         23    2    4    4    0    0  0.43456856508E+02 -0.15177990196E+03 -0.12156271262E+03  0.21978279674E+03  0.92743450588E+02 0.  0.
          4    1    3    3  502    0 -0.48901159485E+03 -0.29369841055E+03  0.92538489745E+03  0.10870732748E+04  0.00000000000E+00 0. -1.
         -3    1    3    3    0  502 -0.31246327473E+03 -0.23947651217E+03  0.54604823986E+03  0.67316489673E+03  0.00000000000E+00 0.  1.
         11    1    5    5    0    0  0.22379130033E+03  0.20425984298E+03 -0.47971512227E+02  0.30676684231E+03  0.00000000000E+00 0. -1.
        -11    1    5    5    0    0  0.53422671274E+03  0.48069498170E+03 -0.25949477467E+03  0.76407027433E+03  0.00000000000E+00 0.  1.
          1    1    6    6  503    0  0.66070522007E+02 -0.66126152907E+02 -0.74075120069E+02  0.11926904624E+03  0.00000000000E+00 0. -1.
         -1    1    6    6    0  503 -0.22613665499E+02 -0.85653749057E+02 -0.47487592546E+02  0.10051375051E+03  0.00000000000E+00 0.  1.
<mgrwt>
<rscale>  0 0.28672511E+04</rscale>
<asrwt>0</asrwt>
<pdfrwt beam="1">  1        2 0.31486632E+00 0.28672511E+04</pdfrwt>
<pdfrwt beam="2">  1       -1 0.15449646E+00 0.28672511E+04</pdfrwt>
<totfact> 0.19946050E+00</totfact>
</mgrwt>
</event>
<event>
12    6  0.1529770E-007  0.2090131E+04  0.7818608E-02  0.8565603E-01
         -1   -1    0    0    0  501 -0.00000000000E+00  0.00000000000E+00  0.57883642387E+03  0.57883642387E+03  0.00000000000E+00 0.  1.
          2   -1    0    0  501    0  0.00000000000E+00 -0.00000000000E+00 -0.18868234297E+04  0.18868234297E+04  0.00000000000E+00 0. -1.
         24    2    1    2    0    0 -0.26935392854E+02 -0.70149462165E+03  0.30745616821E+02  0.70772200699E+03  0.84290726873E+02 0.  0.
        254    2    1    2    0    0  0.26935392854E+02  0.70149462165E+03 -0.13387326227E+04  0.17579378466E+04  0.89739635498E+03 0.  0.
         23    2    4    4    0    0  0.98526089864E+02  0.55783988490E+03 -0.20487761901E+03  0.60914598626E+03  0.90505614434E+02 0.  0.
         23    2    4    4    0    0 -0.71590697010E+02  0.14365473675E+03 -0.11338550037E+04  0.11487918603E+04  0.91288869892E+02 0.  0.
          4    1    3    3  502    0  0.63941119727E-01 -0.23732040878E+02 -0.14674954267E+02  0.27902833825E+02  0.00000000000E+00 0. -1.
         -3    1    3    3    0  502 -0.26999333974E+02 -0.67776258077E+03  0.45420571089E+02  0.67981917317E+03  0.00000000000E+00 0.  1.
         11    1    5    5    0    0  0.27173823727E+02  0.36292035325E+02 -0.30364437852E+02  0.54566726217E+02  0.00000000000E+00 0. -1.
        -11    1    5    5    0    0  0.71352266137E+02  0.52154784957E+03 -0.17451318116E+03  0.55457926005E+03  0.00000000000E+00 0.  1.
          4    1    6    6  503    0 -0.69708499274E+01 -0.47098638486E+01 -0.88616495772E+01  0.12219017940E+02  0.00000000000E+00 0. -1.
         -4    1    6    6    0  503 -0.64619847082E+02  0.14836460060E+03 -0.11249933541E+04  0.11365728424E+04  0.00000000000E+00 0.  1.
<mgrwt>
<rscale>  0 0.20901312E+04</rscale>
<asrwt>0</asrwt>
<pdfrwt beam="1">  1        2 0.29028053E+00 0.20901312E+04</pdfrwt>
<pdfrwt beam="2">  1       -1 0.89051758E-01 0.20901312E+04</pdfrwt>
<totfact> 0.10026498E+01</totfact>
</mgrwt>
</event>
<event>
12    6  0.1529770E-007  0.2290651E+04  0.7818608E-02  0.8481616E-01
          2   -1    0    0  501    0  0.00000000000E+00  0.00000000000E+00  0.91227518327E+03  0.91227518327E+03  0.00000000000E+00 0. -1.
         -1   -1    0    0    0  501 -0.00000000000E+00 -0.00000000000E+00 -0.14379108823E+04  0.14379108823E+04  0.00000000000E+00 0.  1.
         24    2    1    2    0    0 -0.45608266423E+03 -0.66983336772E+03  0.32031585087E+03  0.87484679793E+03  0.77887986292E+02 0.  0.
        254    2    1    2    0    0  0.45608266423E+03  0.66983336772E+03 -0.84595154990E+03  0.14753392677E+04  0.89682985720E+03 0.  0.
         23    2    4    4    0    0  0.19797206953E+03  0.81233603091E+03 -0.39562440298E+03  0.92961022926E+03  0.92594506771E+02 0.  0.
         23    2    4    4    0    0  0.25811059470E+03 -0.14250266318E+03 -0.45032714692E+03  0.54572903839E+03  0.89986421059E+02 0.  0.
          4    1    3    3  502    0 -0.10285949425E+03 -0.14544160222E+03  0.10579027360E+03  0.20718329373E+03  0.00000000000E+00 0. -1.
         -3    1    3    3    0  502 -0.35322316999E+03 -0.52439176550E+03  0.21452557727E+03  0.66766350420E+03  0.00000000000E+00 0.  1.
         11    1    5    5    0    0  0.11675548543E+03  0.64180913388E+03 -0.30621818807E+03  0.72063887379E+03  0.00000000000E+00 0. -1.
        -11    1    5    5    0    0  0.81216584097E+02  0.17052689702E+03 -0.89406214911E+02  0.20897135547E+03  0.00000000000E+00 0.  1.
          1    1    6    6  503    0  0.22503115550E+03 -0.87047844872E+02 -0.32532439979E+03  0.40503371877E+03  0.00000000000E+00 0. -1.
         -1    1    6    6    0  503  0.33079439202E+02 -0.55454818313E+02 -0.12500274714E+03  0.14069531962E+03  0.00000000000E+00 0.  1.
<mgrwt>
<rscale>  0 0.22906509E+04</rscale>
<asrwt>0</asrwt>
<pdfrwt beam="1">  1        2 0.14035003E+00 0.22906509E+04</pdfrwt>
<pdfrwt beam="2">  1       -1 0.22121706E+00 0.22906509E+04</pdfrwt>
<totfact> 0.32149631E+00</totfact>
</mgrwt>
</event>
<event>
12    6  0.1529770E-007  0.1793629E+04  0.7818608E-02  0.8709695E-01
         -1   -1    0    0    0  501 -0.00000000000E+00  0.00000000000E+00  0.84417266568E+03  0.84417266568E+03  0.00000000000E+00 0.  1.
          2   -1    0    0  501    0  0.00000000000E+00 -0.00000000000E+00 -0.95273873676E+03  0.95273873676E+03  0.00000000000E+00 0. -1.
         24    2    1    2    0    0 -0.12525244471E+03 -0.59851469962E+03  0.20512055917E+03  0.64980177106E+03  0.79119386446E+02 0.  0.
        254    2    1    2    0    0  0.12525244471E+03  0.59851469962E+03 -0.31368663026E+03  0.11471096314E+04  0.91845151415E+03 0.  0.
         23    2    4    4    0    0  0.39095620711E+02 -0.21794028178E+03  0.56435179783E+02  0.24169325789E+03  0.78767172180E+02 0.  0.
         23    2    4    4    0    0  0.86156824000E+02  0.81645498139E+03 -0.37012181004E+03  0.90541637349E+03  0.93631833037E+02 0.  0.
          2    1    3    3  502    0 -0.10529756666E+03 -0.47841929268E+03  0.13028912327E+03  0.50690023949E+03  0.00000000000E+00 0. -1.
         -1    1    3    3    0  502 -0.19954878050E+02 -0.12009540693E+03  0.74831435899E+02  0.14290153156E+03  0.00000000000E+00 0.  1.
         11    1    5    5    0    0  0.33812103623E+02 -0.67640578974E+02  0.50983186974E+02  0.91201927773E+02  0.00000000000E+00 0. -1.
        -11    1    5    5    0    0  0.52835170875E+01 -0.15029970280E+03  0.54519928090E+01  0.15049133012E+03  0.00000000000E+00 0.  1.
          3    1    6    6  503    0 -0.82652389381E+01  0.20641667328E+03 -0.12342369397E+03  0.24064406374E+03  0.00000000000E+00 0. -1.
         -3    1    6    6    0  503  0.94422062938E+02  0.61003830811E+03 -0.24669811607E+03  0.66477230975E+03  0.00000000000E+00 0.  1.
<mgrwt>
<rscale>  0 0.17936287E+04</rscale>
<asrwt>0</asrwt>
<pdfrwt beam="1">  1        2 0.14657519E+00 0.17936287E+04</pdfrwt>
<pdfrwt beam="2">  1       -1 0.12987272E+00 0.17936287E+04</pdfrwt>
<totfact> 0.14816327E+01</totfact>
</mgrwt>
</event>
<event>
12    6  0.1529770E-007  0.1822361E+04  0.7818608E-02  0.8694498E-01
          2   -1    0    0  501    0  0.00000000000E+00  0.00000000000E+00  0.34331803220E+04  0.34331803220E+04  0.00000000000E+00 0. -1.
         -1   -1    0    0    0  501 -0.00000000000E+00 -0.00000000000E+00 -0.24183116541E+03  0.24183116541E+03  0.00000000000E+00 0.  1.
         24    2    1    2    0    0  0.32607933664E+03  0.74862833994E+02  0.40184411635E-01  0.34378426026E+03  0.79091328808E+02 0.  0.
        254    2    1    2    0    0 -0.32607933664E+03 -0.74862833994E+02  0.31913089722E+04  0.33312272272E+04  0.89481266495E+03 0.  0.
         23    2    4    4    0    0 -0.39487530016E+03 -0.32734535547E+03  0.28217677275E+04  0.28694169990E+04  0.89996234811E+02 0.  0.
         23    2    4    4    0    0  0.68795963525E+02  0.25248252147E+03  0.36954124473E+03  0.46181022812E+03  0.90706377895E+02 0.  0.
          2    1    3    3  502    0  0.22154414553E+03  0.80014824780E+02  0.22878912273E+02  0.23665930202E+03  0.00000000000E+00 0. -1.
         -1    1    3    3    0  502  0.10453519110E+03 -0.51519907862E+01 -0.22838727861E+02  0.10712495824E+03  0.00000000000E+00 0.  1.
         11    1    5    5    0    0 -0.18157608523E+03 -0.14019702407E+03  0.10230797493E+04  0.10484833111E+04  0.00000000000E+00 0.  1.
        -11    1    5    5    0    0 -0.21329921493E+03 -0.18714833140E+03  0.17986879781E+04  0.18209336879E+04  0.00000000000E+00 0. -1.
          2    1    6    6  503    0 -0.13786365859E+02  0.41110163216E+02  0.27536971987E+02  0.51365301804E+02  0.00000000000E+00 0. -1.
         -2    1    6    6    0  503  0.82582329384E+02  0.21137235826E+03  0.34200427274E+03  0.41044492631E+03  0.00000000000E+00 0.  1.
<mgrwt>
<rscale>  0 0.18223611E+04</rscale>
<asrwt>0</asrwt>
<pdfrwt beam="1">  1        2 0.52818155E+00 0.18223611E+04</pdfrwt>
<pdfrwt beam="2">  1       -1 0.37204797E-01 0.18223611E+04</pdfrwt>
<totfact> 0.67948196E+00</totfact>
</mgrwt>
</event>
<event>
12    6  0.1529770E-007  0.1832984E+04  0.7818608E-02  0.8688953E-01
         -1   -1    0    0    0  501 -0.00000000000E+00  0.00000000000E+00  0.99224105857E+03  0.99224105857E+03  0.00000000000E+00 0.  1.
          2   -1    0    0  501    0  0.00000000000E+00 -0.00000000000E+00 -0.84652580463E+03  0.84652580463E+03  0.00000000000E+00 0. -1.
         24    2    1    2    0    0  0.47632291709E+03 -0.44452781348E+02  0.56446975922E+03  0.74435038537E+03  0.81066737978E+02 0.  0.
        254    2    1    2    0    0 -0.47632291709E+03  0.44452781348E+02 -0.41875450529E+03  0.10944164778E+04  0.89080442307E+03 0.  0.
         23    2    4    4    0    0 -0.37055787403E+03  0.44535038789E+03 -0.25440371635E+03  0.63928277149E+03  0.91165262162E+02 0.  0.
         23    2    4    4    0    0 -0.10576504305E+03 -0.40089760655E+03 -0.16435078893E+03  0.45513370635E+03  0.90721406324E+02 0.  0.
          2    1    3    3  502    0  0.14467236043E+03 -0.22035131434E+02  0.23136810603E+03  0.27376420397E+03  0.00000000000E+00 0. -1.
         -1    1    3    3    0  502  0.33165055665E+03 -0.22417649914E+02  0.33310165320E+03  0.47058618139E+03  0.00000000000E+00 0.  1.
         11    1    5    5    0    0 -0.12023683288E+03  0.17311692613E+03 -0.13650777459E+03  0.25111897304E+03  0.00000000000E+00 0. -1.
        -11    1    5    5    0    0 -0.25032104115E+03  0.27223346176E+03 -0.11789594176E+03  0.38816379845E+03  0.00000000000E+00 0.  1.
          3    1    6    6  503    0 -0.86366253500E+02 -0.15531253305E+03 -0.59611771119E+02  0.18744246030E+03  0.00000000000E+00 0. -1.
         -3    1    6    6    0  503 -0.19398789550E+02 -0.24558507349E+03 -0.10473901782E+03  0.26769124605E+03  0.00000000000E+00 0.  1.
<mgrwt>
<rscale>  0 0.18329841E+04</rscale>
<asrwt>0</asrwt>
<pdfrwt beam="1">  1        2 0.13023474E+00 0.18329841E+04</pdfrwt>
<pdfrwt beam="2">  1       -1 0.15265247E+00 0.18329841E+04</pdfrwt>
<totfact> 0.11412216E+01</totfact>
</mgrwt>
</event>
<event>
12    6  0.1529770E-007  0.1355998E+04  0.7818608E-02  0.8986300E-01
         -1   -1    0    0    0  501 -0.00000000000E+00  0.00000000000E+00  0.59844007086E+03  0.59844007086E+03  0.00000000000E+00 0.  1.
          2   -1    0    0  501    0  0.00000000000E+00 -0.00000000000E+00 -0.76813426818E+03  0.76813426818E+03  0.00000000000E+00 0. -1.
         24    2    1    2    0    0  0.80987705530E+02  0.38129822506E+03  0.26252374086E+02  0.39931688710E+03  0.82567816354E+02 0.  0.
        254    2    1    2    0    0 -0.80987705530E+02 -0.38129822506E+03 -0.19594657140E+03  0.96725745195E+03  0.86327549173E+03 0.  0.
         23    2    4    4    0    0  0.28498039054E+03 -0.18379447943E+03  0.18369648284E+03  0.39686137364E+03  0.93596572663E+02 0.  0.
         23    2    4    4    0    0 -0.36596809607E+03 -0.19750374562E+03 -0.37964305425E+03  0.57039607831E+03  0.91008025124E+02 0.  0.
          2    1    3    3  502    0  0.14132013255E+02  0.23222988409E+03 -0.62400553085E+01  0.23274314416E+03  0.00000000000E+00 0. -1.
         -1    1    3    3    0  502  0.66855692275E+02  0.14906834096E+03  0.32492429395E+02  0.16657374293E+03  0.00000000000E+00 0.  1.
         11    1    5    5    0    0  0.27557928972E+03 -0.17253573653E+03  0.14599765230E+03  0.35640965163E+03  0.00000000000E+00 0. -1.
        -11    1    5    5    0    0  0.94011008212E+01 -0.11258742901E+02  0.37698830548E+02  0.40451722003E+02  0.00000000000E+00 0.  1.
          2    1    6    6  503    0 -0.75202040532E+02 -0.71165475827E+02 -0.57552687370E+02  0.11845751843E+03  0.00000000000E+00 0.  1.
         -2    1    6    6    0  503 -0.29076605554E+03 -0.12633826980E+03 -0.32209036688E+03  0.45193855988E+03  0.00000000000E+00 0. -1.
<mgrwt>
<rscale>  0 0.13559975E+04</rscale>
<asrwt>0</asrwt>
<pdfrwt beam="1">  1        2 0.11817450E+00 0.13559975E+04</pdfrwt>
<pdfrwt beam="2">  1       -1 0.92067704E-01 0.13559975E+04</pdfrwt>
<totfact> 0.46566202E+01</totfact>
</mgrwt>
</event>
<event>
12    6  0.1529770E-007  0.2664703E+04  0.7818608E-02  0.8346549E-01
         -1   -1    0    0    0  501 -0.00000000000E+00  0.00000000000E+00  0.63986445611E+03  0.63986445611E+03  0.00000000000E+00 0.  1.
          2   -1    0    0  501    0  0.00000000000E+00 -0.00000000000E+00 -0.27742748529E+04  0.27742748529E+04  0.00000000000E+00 0. -1.
         24    2    1    2    0    0  0.77709580406E+02  0.82400766300E+03 -0.18765014953E+04  0.20528335150E+04  0.88544738727E+02 0.  0.
        254    2    1    2    0    0 -0.77709580406E+02 -0.82400766300E+03 -0.25790890150E+03  0.13613057940E+04  0.10495756551E+04 0.  0.
         23    2    4    4    0    0 -0.48536125671E+03 -0.10592535956E+03 -0.85391440438E+02  0.51224120825E+03  0.91124233950E+02 0.  0.
         23    2    4    4    0    0  0.40765167631E+03 -0.71808230343E+03 -0.17251746106E+03  0.84906458579E+03  0.96572836664E+02 0.  0.
          4    1    3    3  502    0  0.68515544955E+02  0.57652939081E+03 -0.12178235527E+04  0.13491385117E+04  0.00000000000E+00 0. -1.
         -3    1    3    3    0  502  0.91940354508E+01  0.24747827219E+03 -0.65867794261E+03  0.70369500323E+03  0.00000000000E+00 0.  1.
         11    1    5    5    0    0 -0.44212700779E+03 -0.10963592795E+03 -0.10016806451E+03  0.46640108154E+03  0.00000000000E+00 0. -1.
        -11    1    5    5    0    0 -0.43234248926E+02  0.37105683852E+01  0.14776624074E+02  0.45840126712E+02  0.00000000000E+00 0.  1.
          3    1    6    6  503    0  0.34701687325E+03 -0.65042524170E+03 -0.12930967615E+03  0.74846155393E+03  0.00000000000E+00 0. -1.
         -3    1    6    6    0  503  0.60634803052E+02 -0.67657061730E+02 -0.43207784913E+02  0.10060303186E+03  0.00000000000E+00 0.  1.
<mgrwt>
<rscale>  0 0.26647025E+04</rscale>
<asrwt>0</asrwt>
<pdfrwt beam="1">  1        2 0.42681151E+00 0.26647025E+04</pdfrwt>
<pdfrwt beam="2">  1       -1 0.98440686E-01 0.26647025E+04</pdfrwt>
<totfact> 0.23678436E+00</totfact>
</mgrwt>
</event>
<event>
12    6  0.1529770E-007  0.1054842E+04  0.7818608E-02  0.9250359E-01
         -1   -1    0    0    0  501 -0.00000000000E+00  0.00000000000E+00  0.64370968107E+03  0.64370968107E+03  0.00000000000E+00 0.  1.
          2   -1    0    0  501    0  0.00000000000E+00 -0.00000000000E+00 -0.43214072850E+03  0.43214072850E+03  0.00000000000E+00 0. -1.
         24    2    1    2    0    0 -0.73831972872E+02 -0.11344654432E+03  0.23476877033E+03  0.28239835857E+03  0.79442927722E+02 0.  0.
        254    2    1    2    0    0  0.73831972872E+02  0.11344654432E+03 -0.23199817754E+02  0.79345205100E+03  0.78147722107E+03 0.  0.
         23    2    4    4    0    0  0.20675973328E+03 -0.12919311464E+03 -0.29650009647E+03  0.39426320122E+03  0.89948409967E+02 0.  0.
         23    2    4    4    0    0 -0.13292776041E+03  0.24263965896E+03  0.27330027872E+03  0.39918884978E+03  0.90082750026E+02 0.  0.
          2    1    3    3  502    0  0.13159553049E+01  0.90978728610E+01  0.35624322766E+02  0.36791240825E+02  0.00000000000E+00 0. -1.
         -1    1    3    3    0  502 -0.75147928177E+02 -0.12254441718E+03  0.19914444756E+03  0.24560711774E+03  0.00000000000E+00 0.  1.
         11    1    5    5    0    0  0.69567540537E+02  0.25330379571E+01 -0.75703750562E+02  0.10284511086E+03  0.00000000000E+00 0.  1.
        -11    1    5    5    0    0  0.13719219274E+03 -0.13172615259E+03 -0.22079634591E+03  0.29141809037E+03  0.00000000000E+00 0. -1.
          2    1    6    6  503    0 -0.30253805242E+02  0.13852450083E+03  0.16291744153E+03  0.21597782945E+03  0.00000000000E+00 0. -1.
         -2    1    6    6    0  503 -0.10267395517E+03  0.10411515812E+03  0.11038283719E+03  0.18321102032E+03  0.00000000000E+00 0.  1.
<mgrwt>
<rscale>  0 0.10548425E+04</rscale>
<asrwt>0</asrwt>
<pdfrwt beam="1">  1        2 0.66483189E-01 0.10548425E+04</pdfrwt>
<pdfrwt beam="2">  1       -1 0.99032259E-01 0.10548425E+04</pdfrwt>
<totfact> 0.80907303E+01</totfact>
</mgrwt>
</event>
<event>
12    6  0.1529770E-007  0.1545192E+04  0.7818608E-02  0.8854945E-01
          2   -1    0    0  501    0  0.00000000000E+00  0.00000000000E+00  0.36149876507E+04  0.36149876507E+04  0.00000000000E+00 0. -1.
         -1   -1    0    0    0  501 -0.00000000000E+00 -0.00000000000E+00 -0.16511935814E+03  0.16511935814E+03  0.00000000000E+00 0.  1.
         24    2    1    2    0    0  0.58293792828E+02  0.93579051611E+02  0.23646039635E+04  0.23685246859E+04  0.80012989169E+02 0.  0.
        254    2    1    2    0    0 -0.58293792828E+02 -0.93579051611E+02  0.10852643291E+04  0.14115823229E+04  0.89588547552E+03 0.  0.
         23    2    4    4    0    0 -0.96637802510E+02 -0.13035930649E+03  0.12227069611E+04  0.12369252809E+04  0.92948502650E+02 0.  0.
         23    2    4    4    0    0  0.38344009682E+02  0.36780254883E+02 -0.13744263207E+03  0.17465704198E+03  0.93763292259E+02 0.  0.
          4    1    3    3  502    0  0.26804476487E+02  0.97727205138E+02  0.15553768826E+04  0.15586745438E+04  0.00000000000E+00 0. -1.
         -3    1    3    3    0  502  0.31489316342E+02 -0.41481535273E+01  0.80922708090E+03  0.80985014212E+03  0.00000000000E+00 0.  1.
         11    1    5    5    0    0 -0.10170385049E+03 -0.97660855349E+02  0.11242371648E+04  0.11330447999E+04  0.00000000000E+00 0. -1.
        -11    1    5    5    0    0  0.50660479797E+01 -0.32698451145E+02  0.98469796380E+02  0.10388048108E+03  0.00000000000E+00 0.  1.
          3    1    6    6  503    0  0.34753921042E+01  0.55732561555E+02 -0.11782306713E+03  0.13038585780E+03  0.00000000000E+00 0. -1.
         -3    1    6    6    0  503  0.34868617578E+02 -0.18952306672E+02 -0.19619564943E+02  0.44271184178E+02  0.00000000000E+00 0.  1.
<mgrwt>
<rscale>  0 0.15451918E+04</rscale>
<asrwt>0</asrwt>
<pdfrwt beam="1">  1        2 0.55615189E+00 0.15451918E+04</pdfrwt>
<pdfrwt beam="2">  1       -1 0.25402981E-01 0.15451918E+04</pdfrwt>
<totfact> 0.10213366E+01</totfact>
</mgrwt>
</event>
<event>
12    6  0.1529770E-007  0.1911145E+04  0.7818608E-02  0.8649329E-01
          2   -1    0    0  501    0  0.00000000000E+00  0.00000000000E+00  0.68425744131E+03  0.68425744131E+03  0.00000000000E+00 0. -1.
         -1   -1    0    0    0  501 -0.00000000000E+00 -0.00000000000E+00 -0.13344661218E+04  0.13344661218E+04  0.00000000000E+00 0.  1.
         24    2    1    2    0    0  0.66965284843E+03  0.23768064960E+03 -0.44594469394E+03  0.84274637121E+03  0.80173234564E+02 0.  0.
        254    2    1    2    0    0 -0.66965284843E+03 -0.23768064960E+03 -0.20426398658E+03  0.11759771919E+04  0.91447884125E+03 0.  0.
         23    2    4    4    0    0  0.51721949601E+02 -0.72997610381E+01  0.26138956987E+03  0.28218452098E+03  0.92602106149E+02 0.  0.
         23    2    4    4    0    0 -0.72137479803E+03 -0.23038088856E+03 -0.46565355644E+03  0.89379267094E+03  0.92602110916E+02 0.  0.
          4    1    3    3  502    0  0.26410973899E+03  0.12222237697E+03 -0.14837049854E+03  0.32665894829E+03  0.00000000000E+00 0. -1.
         -3    1    3    3    0  502  0.40554310943E+03  0.11545827263E+03 -0.29757419540E+03  0.51608742292E+03  0.00000000000E+00 0.  1.
         11    1    5    5    0    0  0.66044238098E+02 -0.62979701122E+01  0.25932812710E+03  0.26768000171E+03  0.00000000000E+00 0. -1.
        -11    1    5    5    0    0 -0.14322288497E+02 -0.10017909259E+01  0.20614427708E+01  0.14504519267E+02  0.00000000000E+00 0.  1.
          4    1    6    6  503    0 -0.29757630355E+03 -0.12690431738E+03 -0.23872143631E+03  0.40205010429E+03  0.00000000000E+00 0. -1.
         -4    1    6    6    0  503 -0.42379849448E+03 -0.10347657118E+03 -0.22693212013E+03  0.49174256665E+03  0.00000000000E+00 0.  1.
<mgrwt>
<rscale>  0 0.19111446E+04</rscale>
<asrwt>0</asrwt>
<pdfrwt beam="1">  1        2 0.10527038E+00 0.19111446E+04</pdfrwt>
<pdfrwt beam="2">  1       -1 0.20530248E+00 0.19111446E+04</pdfrwt>
<totfact> 0.62338139E+00</totfact>
</mgrwt>
</event>
<event>
12    6  0.1529770E-007  0.1862996E+04  0.7818608E-02  0.8673498E-01
          2   -1    0    0  501    0  0.00000000000E+00  0.00000000000E+00  0.51396989347E+03  0.51396989347E+03  0.00000000000E+00 0. -1.
         -1   -1    0    0    0  501 -0.00000000000E+00 -0.00000000000E+00 -0.16882094606E+04  0.16882094606E+04  0.00000000000E+00 0.  1.
         24    2    1    2    0    0  0.42107541304E+03  0.27489722085E+03  0.12343222401E+03  0.52394016175E+03  0.80029954833E+02 0.  0.
        254    2    1    2    0    0 -0.42107541304E+03 -0.27489722085E+03 -0.12976717911E+04  0.16782391923E+04  0.93790283270E+03 0.  0.
         23    2    4    4    0    0 -0.43661186545E+03  0.10186462998E+02 -0.13040312592E+04  0.13783280953E+04  0.92504746643E+02 0.  0.
         23    2    4    4    0    0  0.15536452415E+02 -0.28508368385E+03  0.63594680706E+01  0.29991109703E+03  0.91608597514E+02 0.  0.
          4    1    3    3  502    0  0.16342246881E+03  0.80122051834E+02  0.77021971860E+02  0.19763307074E+03  0.00000000000E+00 0. -1.
         -3    1    3    3    0  502  0.25765294422E+03  0.19477516902E+03  0.46410252152E+02  0.32630709100E+03  0.00000000000E+00 0.  1.
         11    1    5    5    0    0 -0.42081767878E+02 -0.28088956866E+01 -0.23478148843E+03  0.23853954052E+03  0.00000000000E+00 0. -1.
        -11    1    5    5    0    0 -0.39453009757E+03  0.12995358685E+02 -0.10692497708E+04  0.11397885547E+04  0.00000000000E+00 0.  1.
          2    1    6    6  503    0 -0.30130139266E+02 -0.47683688624E+02 -0.11257386170E+02  0.57517720716E+02  0.00000000000E+00 0. -1.
         -2    1    6    6    0  503  0.45666591681E+02 -0.23739999523E+03  0.17616854241E+02  0.24239337632E+03  0.00000000000E+00 0.  1.
<mgrwt>
<rscale>  0 0.18629963E+04</rscale>
<asrwt>0</asrwt>
<pdfrwt beam="1">  1        2 0.79072292E-01 0.18629963E+04</pdfrwt>
<pdfrwt beam="2">  1       -1 0.25972453E+00 0.18629963E+04</pdfrwt>
<totfact> 0.38565643E+00</totfact>
</mgrwt>
</event>
<event>
12    6  0.1640526E-007  0.1887268E+04  0.7818608E-02  0.8661220E-01
          2   -1    0    0  501    0  0.00000000000E+00  0.00000000000E+00  0.17359797339E+04  0.17359797339E+04  0.00000000000E+00 0. -1.
         -1   -1    0    0    0  501 -0.00000000000E+00 -0.00000000000E+00 -0.51293508140E+03  0.51293508140E+03  0.00000000000E+00 0.  1.
         24    2    1    2    0    0 -0.51443695285E+03 -0.56498316876E+01 -0.13918442546E+03  0.53902140779E+03  0.80588303810E+02 0.  0.
        254    2    1    2    0    0  0.51443695285E+03  0.56498316876E+01  0.13622290780E+04  0.17098934075E+04  0.89632031391E+03 0.  0.
         23    2    4    4    0    0  0.51023702321E+03 -0.28174746288E+03  0.42939123206E+03  0.72955085588E+03  0.90245046631E+02 0.  0.
         23    2    4    4    0    0  0.41999296411E+01  0.28739729457E+03  0.93283784591E+03  0.98034255164E+03  0.90940790928E+02 0.  0.
          2    1    3    3  502    0 -0.21344047506E+01 -0.78625233887E+01 -0.12799411515E-01  0.81470928252E+01  0.00000000000E+00 0. -1.
         -1    1    3    3    0  502 -0.51230254810E+03  0.22126917012E+01 -0.13917162605E+03  0.53087431497E+03  0.00000000000E+00 0.  1.
         11    1    5    5    0    0  0.96244337009E+02 -0.82639502431E+02  0.61314736427E+02  0.14089626209E+03  0.00000000000E+00 0.  1.
        -11    1    5    5    0    0  0.41399268620E+03 -0.19910796045E+03  0.36807649564E+03  0.58865459378E+03  0.00000000000E+00 0. -1.
          4    1    6    6  503    0 -0.20915794068E+02  0.32683227035E+02  0.66562846268E+02  0.77047234046E+02  0.00000000000E+00 0. -1.
         -4    1    6    6    0  503  0.25115723709E+02  0.25471406753E+03  0.86627499964E+03  0.90329531759E+03  0.00000000000E+00 0.  1.
<mgrwt>
<rscale>  0 0.18872678E+04</rscale>
<asrwt>0</asrwt>
<pdfrwt beam="1">  1        2 0.26707380E+00 0.18872678E+04</pdfrwt>
<pdfrwt beam="2">  1       -1 0.78913091E-01 0.18872678E+04</pdfrwt>
<totfact> 0.16059596E+01</totfact>
</mgrwt>
</event>
<event>
12    6  0.1529770E-007  0.1730838E+04  0.7818608E-02  0.8743969E-01
         -1   -1    0    0    0  501 -0.00000000000E+00  0.00000000000E+00  0.33719368384E+03  0.33719368384E+03  0.00000000000E+00 0.  1.
          2   -1    0    0  501    0  0.00000000000E+00 -0.00000000000E+00 -0.22211283795E+04  0.22211283795E+04  0.00000000000E+00 0. -1.
         24    2    1    2    0    0  0.45603270693E+03 -0.45123063311E+03 -0.81611104260E+03  0.10411104450E+04  0.79365047060E+02 0.  0.
        254    2    1    2    0    0 -0.45603270693E+03  0.45123063311E+03 -0.10678236531E+04  0.15172116184E+04  0.86608823274E+03 0.  0.
         23    2    4    4    0    0 -0.61990277321E+03  0.45796875255E+03 -0.10786182446E+04  0.13290241378E+04  0.94196681907E+02 0.  0.
         23    2    4    4    0    0  0.16387006628E+03 -0.67381194391E+01  0.10794591480E+02  0.18818748058E+03  0.91647169986E+02 0.  0.
          4    1    3    3  502    0  0.59772412254E+02 -0.89553224596E+02 -0.17086659401E+03  0.20196017987E+03  0.00000000000E+00 0. -1.
         -3    1    3    3    0  502  0.39626029467E+03 -0.36167740851E+03 -0.64524444859E+03  0.83915026509E+03  0.00000000000E+00 0.  1.
         11    1    5    5    0    0 -0.22633055816E+02  0.37983712905E+02 -0.41311078285E+02  0.60511344810E+02  0.00000000000E+00 0. -1.
        -11    1    5    5    0    0 -0.59726971739E+03  0.41998503964E+03 -0.10373071663E+04  0.12685127930E+04  0.00000000000E+00 0.  1.
          3    1    6    6  503    0  0.10754121221E+03 -0.35248458927E+02 -0.24594701645E+02  0.11581219940E+03  0.00000000000E+00 0. -1.
         -3    1    6    6    0  503  0.56328854066E+02  0.28510339488E+02  0.35389293125E+02  0.72375281180E+02  0.00000000000E+00 0.  1.
<mgrwt>
<rscale>  0 0.17308385E+04</rscale>
<asrwt>0</asrwt>
<pdfrwt beam="1">  1        2 0.34171205E+00 0.17308385E+04</pdfrwt>
<pdfrwt beam="2">  1       -1 0.51875953E-01 0.17308385E+04</pdfrwt>
<totfact> 0.20326487E+01</totfact>
</mgrwt>
</event>
<event>
12    6  0.1529770E-007  0.2608029E+04  0.7818608E-02  0.8365479E-01
          2   -1    0    0  501    0  0.00000000000E+00  0.00000000000E+00  0.24046831086E+04  0.24046831086E+04  0.00000000000E+00 0. -1.
         -1   -1    0    0    0  501 -0.00000000000E+00 -0.00000000000E+00 -0.70714267251E+03  0.70714267251E+03  0.00000000000E+00 0.  1.
         24    2    1    2    0    0  0.39881264192E+02  0.43390990591E+03 -0.51940556758E+03  0.68025015551E+03  0.55586048240E+02 0.  0.
        254    2    1    2    0    0 -0.39881264192E+02 -0.43390990591E+03  0.22169460036E+04  0.24315756256E+04  0.89880037724E+03 0.  0.
         23    2    4    4    0    0  0.66629126296E+02 -0.63743136902E+03  0.10145298915E+04  0.12034767425E+04  0.91253374852E+02 0.  0.
         23    2    4    4    0    0 -0.10651039049E+03  0.20352146311E+03  0.12024161121E+04  0.12280988830E+04  0.98269580823E+02 0.  0.
          2    1    3    3  502    0 -0.16010908956E+01  0.30593750829E+01 -0.15893097108E+02  0.16263880337E+02  0.00000000000E+00 0. -1.
         -1    1    3    3    0  502  0.41482355088E+02  0.43085053082E+03 -0.50351247048E+03  0.66398627517E+03  0.00000000000E+00 0.  1.
         11    1    5    5    0    0 -0.19283038674E+02 -0.16316257979E+03  0.22843709308E+03  0.28138473399E+03  0.00000000000E+00 0.  1.
        -11    1    5    5    0    0  0.85912164969E+02 -0.47426878923E+03  0.78609279841E+03  0.92209200855E+03  0.00000000000E+00 0. -1.
          2    1    6    6  503    0 -0.46168493009E+02  0.16551824832E+03  0.96589636789E+03  0.98106249229E+03  0.00000000000E+00 0.  1.
         -2    1    6    6    0  503 -0.60341897479E+02  0.38003214790E+02  0.23651974425E+03  0.24703639074E+03  0.00000000000E+00 0. -1.
<mgrwt>
<rscale>  0 0.26080292E+04</rscale>
<asrwt>0</asrwt>
<pdfrwt beam="1">  1        2 0.36995124E+00 0.26080292E+04</pdfrwt>
<pdfrwt beam="2">  1       -1 0.10879118E+00 0.26080292E+04</pdfrwt>
<totfact> 0.31108254E+00</totfact>
</mgrwt>
</event>
<event>
12    6  0.1529770E-007  0.2458267E+04  0.7818608E-02  0.8418006E-01
          2   -1    0    0  501    0  0.00000000000E+00  0.00000000000E+00  0.14589562066E+04  0.14589562066E+04  0.00000000000E+00 0. -1.
         -1   -1    0    0    0  501 -0.00000000000E+00 -0.00000000000E+00 -0.10355138025E+04  0.10355138025E+04  0.00000000000E+00 0.  1.
         24    2    1    2    0    0  0.81353833133E+03 -0.52348760337E+03 -0.26601884364E+03  0.10064719588E+04  0.79598312172E+02 0.  0.
        254    2    1    2    0    0 -0.81353833133E+03  0.52348760337E+03  0.68946124773E+03  0.14879980502E+04  0.89604547763E+03 0.  0.
         23    2    4    4    0    0  0.16493645254E+03 -0.28878935821E+02  0.10765247379E+03  0.21939552098E+03  0.92235097456E+02 0.  0.
         23    2    4    4    0    0 -0.97847478386E+03  0.55236653920E+03  0.58180877394E+03  0.12686025293E+04  0.91264623690E+02 0.  0.
          2    1    3    3  502    0  0.65735036349E+03 -0.42362560185E+03 -0.24703640821E+03  0.82011897790E+03  0.00000000000E+00 0. -1.
         -1    1    3    3    0  502  0.15618796784E+03 -0.99862001527E+02 -0.18982435427E+02  0.18635298093E+03  0.00000000000E+00 0.  1.
         11    1    5    5    0    0  0.79784398738E+02  0.27211920283E+02  0.73563485457E+02  0.11188219376E+03  0.00000000000E+00 0. -1.
        -11    1    5    5    0    0  0.85152053799E+02 -0.56090856104E+02  0.34088988336E+02  0.10751332722E+03  0.00000000000E+00 0.  1.
          1    1    6    6  503    0 -0.29008371960E+03  0.13143142112E+03  0.13136934238E+03  0.34450063418E+03  0.00000000000E+00 0. -1.
         -1    1    6    6    0  503 -0.68839106427E+03  0.42093511808E+03  0.45043943156E+03  0.92410189508E+03  0.00000000000E+00 0.  1.
<mgrwt>
<rscale>  0 0.24582671E+04</rscale>
<asrwt>0</asrwt>
<pdfrwt beam="1">  1        2 0.22445480E+00 0.24582671E+04</pdfrwt>
<pdfrwt beam="2">  1       -1 0.15930982E+00 0.24582671E+04</pdfrwt>
<totfact> 0.40384875E+00</totfact>
</mgrwt>
</event>
<event>
12    6  0.1529770E-007  0.2659844E+04  0.7818608E-02  0.8348153E-01
         -1   -1    0    0    0  501 -0.00000000000E+00  0.00000000000E+00  0.23426500301E+04  0.23426500301E+04  0.00000000000E+00 0.  1.
          2   -1    0    0  501    0  0.00000000000E+00 -0.00000000000E+00 -0.75499657982E+03  0.75499657982E+03  0.00000000000E+00 0. -1.
         24    2    1    2    0    0  0.49401724364E+01 -0.37853864595E+03 -0.59608669762E+03  0.71055597769E+03  0.79085615438E+02 0.  0.
        254    2    1    2    0    0 -0.49401724364E+01  0.37853864595E+03  0.21837401479E+04  0.23870906322E+04  0.88665931512E+03 0.  0.
         23    2    4    4    0    0  0.13172507695E+03  0.15773966286E+03  0.20823827356E+04  0.20944280157E+04  0.89875238458E+02 0.  0.
         23    2    4    4    0    0 -0.13666524939E+03  0.22079898310E+03  0.10135741228E+03  0.29266261645E+03  0.89154364544E+02 0.  0.
          4    1    3    3  502    0  0.24808861514E+02 -0.27730252853E+03 -0.48288229664E+03  0.55739347354E+03  0.00000000000E+00 0. -1.
         -1    1    3    3    0  502 -0.19868689077E+02 -0.10123611742E+03 -0.11320440099E+03  0.15316250415E+03  0.00000000000E+00 0.  1.
         11    1    5    5    0    0  0.46582523400E+02  0.12029360747E+03  0.10592128211E+04  0.10670390264E+04  0.00000000000E+00 0. -1.
        -11    1    5    5    0    0  0.85142553554E+02  0.37446055389E+02  0.10231699145E+04  0.10273889893E+04  0.00000000000E+00 0.  1.
          2    1    6    6  503    0 -0.95698177249E+02  0.17944627424E+03  0.11393459378E+03  0.23310984133E+03  0.00000000000E+00 0.  1.
         -2    1    6    6    0  503 -0.40967072140E+02  0.41352708860E+02 -0.12577181502E+02  0.59552775119E+02  0.00000000000E+00 0. -1.
<mgrwt>
<rscale>  0 0.26598442E+04</rscale>
<asrwt>0</asrwt>
<pdfrwt beam="1">  1        2 0.11615332E+00 0.26598442E+04</pdfrwt>
<pdfrwt beam="2">  1       -1 0.36040769E+00 0.26598442E+04</pdfrwt>
<totfact> 0.49438825E-01</totfact>
</mgrwt>
</event>
<event>
12    6  0.1529770E-007  0.2812965E+04  0.7818608E-02  0.8299254E-01
         -1   -1    0    0    0  501 -0.00000000000E+00  0.00000000000E+00  0.12552444277E+04  0.12552444277E+04  0.00000000000E+00 0.  1.
          2   -1    0    0  501    0  0.00000000000E+00 -0.00000000000E+00 -0.15759427975E+04  0.15759427975E+04  0.00000000000E+00 0. -1.
         24    2    1    2    0    0  0.46447919448E+03  0.47997223941E+03 -0.12133389513E+04  0.13873474410E+04  0.80170060313E+02 0.  0.
        254    2    1    2    0    0 -0.46447919448E+03 -0.47997223941E+03  0.89264058154E+03  0.14438397842E+04  0.91747034929E+03 0.  0.
         23    2    4    4    0    0  0.82426817304E+02 -0.47993198700E+03  0.69990523635E+03  0.85743794823E+03  0.90573742491E+02 0.  0.
         23    2    4    4    0    0 -0.54690601178E+03 -0.40252409584E-01  0.19273534519E+03  0.58640183594E+03  0.87258309447E+02 0.  0.
          2    1    3    3  502    0  0.41609100425E+03  0.41250416479E+03 -0.10088961213E+04  0.11666888160E+04  0.00000000000E+00 0. -1.
         -1    1    3    3    0  502  0.48388190228E+02  0.67468074623E+02 -0.20444283004E+03  0.22065862503E+03  0.00000000000E+00 0.  1.
         11    1    5    5    0    0  0.15208483035E+02 -0.10090818650E+02  0.45591352716E+02  0.49109001412E+02  0.00000000000E+00 0.  1.
        -11    1    5    5    0    0  0.67218334270E+02 -0.46984116835E+03  0.65431388364E+03  0.80832894682E+03  0.00000000000E+00 0. -1.
          4    1    6    6  503    0 -0.27076885050E+03  0.43398075337E+02  0.99961333184E+02  0.29187571238E+03  0.00000000000E+00 0. -1.
         -4    1    6    6    0  503 -0.27613716128E+03 -0.43438327747E+02  0.92774012005E+02  0.29452612356E+03  0.00000000000E+00 0.  1.
<mgrwt>
<rscale>  0 0.28129653E+04</rscale>
<asrwt>0</asrwt>
<pdfrwt beam="1">  1        2 0.24245274E+00 0.28129653E+04</pdfrwt>
<pdfrwt beam="2">  1       -1 0.19311453E+00 0.28129653E+04</pdfrwt>
<totfact> 0.19131884E+00</totfact>
</mgrwt>
</event>
<event>
12    6  0.1529770E-007  0.1797980E+04  0.7818608E-02  0.8707375E-01
          2   -1    0    0  501    0  0.00000000000E+00  0.00000000000E+00  0.66284281568E+03  0.66284281568E+03  0.00000000000E+00 0. -1.
         -1   -1    0    0    0  501 -0.00000000000E+00 -0.00000000000E+00 -0.12192675858E+04  0.12192675858E+04  0.00000000000E+00 0.  1.
         24    2    1    2    0    0  0.23970169851E+03 -0.50931099817E+03  0.17618280702E+03  0.59535084542E+03  0.80917553844E+02 0.  0.
        254    2    1    2    0    0 -0.23970169851E+03  0.50931099817E+03 -0.73260757714E+03  0.12867595561E+04  0.89564596572E+03 0.  0.
         23    2    4    4    0    0 -0.21748711478E+03  0.22559907535E+03  0.14724042197E+03  0.35813503316E+03  0.91571678046E+02 0.  0.
         23    2    4    4    0    0 -0.22214583728E+02  0.28371192283E+03 -0.87984799911E+03  0.92862452291E+03  0.85000353626E+02 0.  0.
          4    1    3    3  502    0  0.17478729081E+03 -0.42458099182E+03  0.16554944418E+03  0.48808424899E+03  0.00000000000E+00 0. -1.
         -3    1    3    3    0  502  0.64914407704E+02 -0.84730006354E+02  0.10633362842E+02  0.10726659643E+03  0.00000000000E+00 0.  1.
         11    1    5    5    0    0 -0.33839862042E+02  0.89199642272E+02  0.63146053768E+02  0.11440776438E+03  0.00000000000E+00 0. -1.
        -11    1    5    5    0    0 -0.18364725274E+03  0.13639943308E+03  0.84094368200E+02  0.24372726878E+03  0.00000000000E+00 0.  1.
          1    1    6    6  503    0 -0.39236008470E+02  0.62572898682E+02 -0.18340586127E+03  0.19771833996E+03  0.00000000000E+00 0. -1.
         -1    1    6    6    0  503  0.17021424742E+02  0.22113902415E+03 -0.69644213784E+03  0.73090618294E+03  0.00000000000E+00 0.  1.
<mgrwt>
<rscale>  0 0.17979797E+04</rscale>
<asrwt>0</asrwt>
<pdfrwt beam="1">  1        2 0.10197582E+00 0.17979797E+04</pdfrwt>
<pdfrwt beam="2">  1       -1 0.18757963E+00 0.17979797E+04</pdfrwt>
<totfact> 0.86946475E+00</totfact>
</mgrwt>
</event>
<event>
12    6  0.1529770E-007  0.1935024E+04  0.7818608E-02  0.8637616E-01
          2   -1    0    0  501    0  0.00000000000E+00  0.00000000000E+00  0.16006659613E+04  0.16006659613E+04  0.00000000000E+00 0. -1.
         -1   -1    0    0    0  501 -0.00000000000E+00 -0.00000000000E+00 -0.58480655167E+03  0.58480655167E+03  0.00000000000E+00 0.  1.
         24    2    1    2    0    0  0.19023558812E+03  0.32318038538E+02 -0.42750543033E+03  0.47581465560E+03  0.80029112991E+02 0.  0.
        254    2    1    2    0    0 -0.19023558812E+03 -0.32318038538E+02  0.14433648400E+04  0.17096578574E+04  0.89576441848E+03 0.  0.
         23    2    4    4    0    0  0.31815270156E+01 -0.20801928911E+03 -0.14933760398E+02  0.22493596004E+03  0.84208207200E+02 0.  0.
         23    2    4    4    0    0 -0.19341711513E+03  0.17570125058E+03  0.14582986004E+04  0.14847218974E+04  0.97381695908E+02 0.  0.
          2    1    3    3  502    0  0.53632953537E+02 -0.68936449096E+01 -0.55048612750E+02  0.77164537262E+02  0.00000000000E+00 0. -1.
         -1    1    3    3    0  502  0.13660263458E+03  0.39211683447E+02 -0.37245681758E+03  0.39865011834E+03  0.00000000000E+00 0.  1.
         11    1    5    5    0    0  0.37791719420E+02 -0.78811674904E+02 -0.24670795563E+02  0.90819283810E+02  0.00000000000E+00 0.  1.
        -11    1    5    5    0    0 -0.34610192405E+02 -0.12920761421E+03  0.97370351655E+01  0.13411667623E+03  0.00000000000E+00 0. -1.
          3    1    6    6  503    0 -0.16038807489E+03  0.12458136900E+03  0.12871630890E+04  0.13030862097E+04  0.00000000000E+00 0. -1.
         -3    1    6    6    0  503 -0.33029040242E+02  0.51119881581E+02  0.17113551138E+03  0.18163568770E+03  0.00000000000E+00 0.  1.
<mgrwt>
<rscale>  0 0.19350245E+04</rscale>
<asrwt>0</asrwt>
<pdfrwt beam="1">  1        2 0.24625630E+00 0.19350245E+04</pdfrwt>
<pdfrwt beam="2">  1       -1 0.89970239E-01 0.19350245E+04</pdfrwt>
<totfact> 0.14330019E+01</totfact>
</mgrwt>
</event>
<event>
12    6  0.1529770E-007  0.1583938E+04  0.7818608E-02  0.8830477E-01
         -1   -1    0    0    0  501 -0.00000000000E+00  0.00000000000E+00  0.86403523480E+03  0.86403523480E+03  0.00000000000E+00 0.  1.
          2   -1    0    0  501    0  0.00000000000E+00 -0.00000000000E+00 -0.72591320457E+03  0.72591320457E+03  0.00000000000E+00 0. -1.
         24    2    1    2    0    0  0.39520110238E+03  0.20660768545E+03 -0.25452202750E+03  0.52018055443E+03  0.83280848470E+02 0.  0.
        254    2    1    2    0    0 -0.39520110238E+03 -0.20660768545E+03  0.39264405773E+03  0.10697678849E+04  0.88958604112E+03 0.  0.
         23    2    4    4    0    0 -0.56687249432E+03 -0.38967730528E+03  0.40280135658E+03  0.80251516809E+03  0.92675968162E+02 0.  0.
         23    2    4    4    0    0  0.17167139195E+03  0.18306961983E+03 -0.10157298851E+02  0.26725271685E+03  0.91297817191E+02 0.  0.
          2    1    3    3  502    0  0.27140272891E+03  0.11638882931E+03 -0.12949858088E+03  0.32245260628E+03  0.00000000000E+00 0. -1.
         -1    1    3    3    0  502  0.12379837347E+03  0.90218856139E+02 -0.12502344662E+03  0.19772794815E+03  0.00000000000E+00 0.  1.
         11    1    5    5    0    0 -0.45950787391E+03 -0.33710658795E+03  0.29588317502E+03  0.64213331255E+03  0.00000000000E+00 0.  1.
        -11    1    5    5    0    0 -0.10736462041E+03 -0.52570717331E+02  0.10691818157E+03  0.16038185554E+03  0.00000000000E+00 0. -1.
          2    1    6    6  503    0  0.11100409282E+03  0.60113928064E+02 -0.27068176136E+02  0.12910568976E+03  0.00000000000E+00 0. -1.
         -2    1    6    6    0  503  0.60667299129E+02  0.12295569177E+03  0.16910877285E+02  0.13814702708E+03  0.00000000000E+00 0.  1.
<mgrwt>
<rscale>  0 0.15839376E+04</rscale>
<asrwt>0</asrwt>
<pdfrwt beam="1">  1        2 0.11167895E+00 0.15839376E+04</pdfrwt>
<pdfrwt beam="2">  1       -1 0.13292850E+00 0.15839376E+04</pdfrwt>
<totfact> 0.20557099E+01</totfact>
</mgrwt>
</event>
<event>
12    6  0.1529770E-007  0.1610971E+04  0.7818608E-02  0.8813836E-01
         -1   -1    0    0    0  501 -0.00000000000E+00  0.00000000000E+00  0.49648747636E+03  0.49648747636E+03  0.00000000000E+00 0.  1.
          2   -1    0    0  501    0  0.00000000000E+00 -0.00000000000E+00 -0.13067937430E+04  0.13067937430E+04  0.00000000000E+00 0. -1.
         24    2    1    2    0    0  0.25636681665E+03  0.46978112376E+03 -0.42072323103E+03  0.68538522878E+03  0.79540089096E+02 0.  0.
        254    2    1    2    0    0 -0.25636681665E+03 -0.46978112376E+03 -0.38958303561E+03  0.11178959906E+04  0.90083197946E+03 0.  0.
         23    2    4    4    0    0 -0.31144969510E+03 -0.77045703814E+02 -0.57946335710E+03  0.66870726865E+03  0.91949311470E+02 0.  0.
         23    2    4    4    0    0  0.55082878441E+02 -0.39273541995E+03  0.18988032149E+03  0.44918872193E+03  0.91873488249E+02 0.  0.
          4    1    3    3  502    0  0.67086919911E+02  0.14125070416E+03 -0.80092066462E+02  0.17569051016E+03  0.00000000000E+00 0. -1.
         -3    1    3    3    0  502  0.18927989674E+03  0.32853041960E+03 -0.34063116457E+03  0.50969471862E+03  0.00000000000E+00 0.  1.
         11    1    5    5    0    0 -0.29224271965E+03 -0.79461986345E+02 -0.48132021265E+03  0.56867315882E+03  0.00000000000E+00 0. -1.
        -11    1    5    5    0    0 -0.19206975444E+02  0.24162825308E+01 -0.98143144448E+02  0.10003410983E+03  0.00000000000E+00 0.  1.
          1    1    6    6  503    0  0.48795485701E+02 -0.35061796851E+03  0.13305211699E+03  0.37817565377E+03  0.00000000000E+00 0. -1.
         -1    1    6    6    0  503  0.62873927396E+01 -0.42117451436E+02  0.56828204505E+02  0.71013068165E+02  0.00000000000E+00 0.  1.
<mgrwt>
<rscale>  0 0.16109708E+04</rscale>
<asrwt>0</asrwt>
<pdfrwt beam="1">  1        2 0.20104519E+00 0.16109708E+04</pdfrwt>
<pdfrwt beam="2">  1       -1 0.76382690E-01 0.16109708E+04</pdfrwt>
<totfact> 0.30787066E+01</totfact>
</mgrwt>
</event>
<event>
12    6  0.1529770E-007  0.1074328E+04  0.7818608E-02  0.9230581E-01
         -1   -1    0    0    0  501 -0.00000000000E+00  0.00000000000E+00  0.13183503850E+04  0.13183503850E+04  0.00000000000E+00 0.  1.
          2   -1    0    0  501    0  0.00000000000E+00 -0.00000000000E+00 -0.21886853976E+03  0.21886853976E+03  0.00000000000E+00 0. -1.
         24    2    1    2    0    0  0.52304221110E+02  0.76849807667E+02  0.11103637506E+01  0.12048898703E+03  0.76646843405E+02 0.  0.
        254    2    1    2    0    0 -0.52304221110E+02 -0.76849807667E+02  0.10983714815E+04  0.14167299377E+04  0.88997875292E+03 0.  0.
         23    2    4    4    0    0 -0.24528736995E+03  0.60945121776E+02  0.11295291918E+04  0.11609638242E+04  0.90114395130E+02 0.  0.
         23    2    4    4    0    0  0.19298314884E+03 -0.13779492944E+03 -0.31157710337E+02  0.25576611353E+03  0.90639746252E+02 0.  0.
          2    1    3    3  502    0  0.69194622131E+01  0.73479405386E+02 -0.74556336281E+01  0.74180108155E+02  0.00000000000E+00 0. -1.
         -1    1    3    3    0  502  0.45384758897E+02  0.33704022810E+01  0.85659973787E+01  0.46308878876E+02  0.00000000000E+00 0.  1.
         11    1    5    5    0    0 -0.13165073841E+03 -0.12987585028E+02  0.59219193098E+03  0.60678816519E+03  0.00000000000E+00 0. -1.
        -11    1    5    5    0    0 -0.11363663154E+03  0.73932706804E+02  0.53733726085E+03  0.55417565903E+03  0.00000000000E+00 0.  1.
          2    1    6    6  503    0  0.17230889054E+02 -0.51783589271E+02  0.10835948723E+02  0.55640465851E+02  0.00000000000E+00 0. -1.
         -2    1    6    6    0  503  0.17575225978E+03 -0.86011340172E+02 -0.41993659060E+02  0.20012564768E+03  0.00000000000E+00 0.  1.
<mgrwt>
<rscale>  0 0.10743285E+04</rscale>
<asrwt>0</asrwt>
<pdfrwt beam="1">  1        2 0.33672084E-01 0.10743285E+04</pdfrwt>
<pdfrwt beam="2">  1       -1 0.20282313E+00 0.10743285E+04</pdfrwt>
<totfact> 0.25691425E+01</totfact>
</mgrwt>
</event>
<event>
12    6  0.1529770E-007  0.1663005E+04  0.7818608E-02  0.8782750E-01
          2   -1    0    0  501    0  0.00000000000E+00  0.00000000000E+00  0.33368774935E+03  0.33368774935E+03  0.00000000000E+00 0. -1.
         -1   -1    0    0    0  501 -0.00000000000E+00 -0.00000000000E+00 -0.20719855089E+04  0.20719855089E+04  0.00000000000E+00 0.  1.
         24    2    1    2    0    0  0.19704386078E+03 -0.37829512858E+03 -0.43238431048E+02  0.43715883548E+03  0.85468111814E+02 0.  0.
        254    2    1    2    0    0 -0.19704386078E+03  0.37829512858E+03 -0.16950593285E+04  0.19685144227E+04  0.90547745312E+03 0.  0.
         23    2    4    4    0    0 -0.12620798279E+03  0.23934120090E+03 -0.17551218467E+04  0.17781984098E+04  0.91237177173E+02 0.  0.
         23    2    4    4    0    0 -0.70835877989E+02  0.13895392767E+03  0.60062518227E+02  0.19031601293E+03  0.91031659641E+02 0.  0.
          4    1    3    3  502    0  0.19068777277E+03 -0.37393555048E+03 -0.28731664978E+02  0.42073166171E+03  0.00000000000E+00 0. -1.
         -3    1    3    3    0  502  0.63560880132E+01 -0.43595781003E+01 -0.14506766070E+02  0.16427173763E+02  0.00000000000E+00 0.  1.
         11    1    5    5    0    0 -0.94005897118E+02  0.95908340297E+02 -0.99171189090E+03  0.10007637049E+04  0.00000000000E+00 0. -1.
        -11    1    5    5    0    0 -0.32202085676E+02  0.14343286061E+03 -0.76340995580E+03  0.77743470494E+03  0.00000000000E+00 0.  1.
          2    1    6    6  503    0 -0.11712748882E+02  0.58481026849E+02 -0.19380929828E+02  0.62712354674E+02  0.00000000000E+00 0. -1.
         -2    1    6    6    0  503 -0.59123129107E+02  0.80472900826E+02  0.79443448055E+02  0.12760365826E+03  0.00000000000E+00 0.  1.
<mgrwt>
<rscale>  0 0.16630047E+04</rscale>
<asrwt>0</asrwt>
<pdfrwt beam="1">  1        2 0.51336575E-01 0.16630047E+04</pdfrwt>
<pdfrwt beam="2">  1       -1 0.31876701E+00 0.16630047E+04</pdfrwt>
<totfact> 0.26603484E+00</totfact>
</mgrwt>
</event>
<event>
12    6  0.1529770E-007  0.1362696E+04  0.7818608E-02  0.8981273E-01
          2   -1    0    0  501    0  0.00000000000E+00  0.00000000000E+00  0.41640370946E+04  0.41640370946E+04  0.00000000000E+00 0. -1.
         -1   -1    0    0    0  501 -0.00000000000E+00 -0.00000000000E+00 -0.11148671323E+03  0.11148671323E+03  0.00000000000E+00 0.  1.
         24    2    1    2    0    0  0.31033324201E+03 -0.16438538134E+03  0.67555851787E+03  0.76542656119E+03  0.78544476738E+02 0.  0.
        254    2    1    2    0    0 -0.31033324201E+03  0.16438538134E+03  0.33769918635E+04  0.35100972466E+04  0.89071845155E+03 0.  0.
         23    2    4    4    0    0 -0.35098025342E+03 -0.10798522065E+03  0.30475681643E+04  0.30710214161E+04  0.93020834604E+02 0.  0.
         23    2    4    4    0    0  0.40647011410E+02  0.27237060199E+03  0.32942369917E+03  0.43907583054E+03  0.91813327054E+02 0.  0.
          4    1    3    3  502    0  0.16127343966E+03 -0.84445424504E+02  0.43305621350E+03  0.46976359598E+03  0.00000000000E+00 0. -1.
         -1    1    3    3    0  502  0.14905980235E+03 -0.79939956833E+02  0.24250230437E+03  0.29566296521E+03  0.00000000000E+00 0.  1.
         11    1    5    5    0    0 -0.33765955031E+03 -0.12207130270E+03  0.28582522766E+04  0.28807154409E+04  0.00000000000E+00 0. -1.
        -11    1    5    5    0    0 -0.13320703111E+02  0.14086082044E+02  0.18931588772E+03  0.19030597516E+03  0.00000000000E+00 0.  1.
          3    1    6    6  503    0  0.43132274005E+02  0.27116207410E+03  0.33482459421E+03  0.43300897493E+03  0.00000000000E+00 0. -1.
         -3    1    6    6    0  503 -0.24852625947E+01  0.12085278926E+01 -0.54008950312E+01  0.60668556081E+01  0.00000000000E+00 0.  1.
<mgrwt>
<rscale>  0 0.13626956E+04</rscale>
<asrwt>0</asrwt>
<pdfrwt beam="1">  1        2 0.64062097E+00 0.13626956E+04</pdfrwt>
<pdfrwt beam="2">  1       -1 0.17151805E-01 0.13626956E+04</pdfrwt>
<totfact> 0.75876557E+00</totfact>
</mgrwt>
</event>
<event>
12    6  0.1529770E-007  0.1843444E+04  0.7818608E-02  0.8683532E-01
         -1   -1    0    0    0  501 -0.00000000000E+00  0.00000000000E+00  0.14478407217E+04  0.14478407217E+04  0.00000000000E+00 0.  1.
          2   -1    0    0  501    0  0.00000000000E+00 -0.00000000000E+00 -0.58678522909E+03  0.58678522909E+03  0.00000000000E+00 0. -1.
         24    2    1    2    0    0  0.48936047302E+03 -0.48912333555E+03  0.43113846914E+03  0.81905541702E+03  0.79095427438E+02 0.  0.
        254    2    1    2    0    0 -0.48936047302E+03  0.48912333555E+03  0.42991702348E+03  0.12155705338E+04  0.90225703964E+03 0.  0.
         23    2    4    4    0    0  0.60481146037E+02 -0.21294024700E+03  0.10309553177E+03  0.26146796229E+03  0.93462766996E+02 0.  0.
         23    2    4    4    0    0 -0.54984161905E+03  0.70206358255E+03  0.32682149171E+03  0.95410257149E+03  0.90996425691E+02 0.  0.
          2    1    3    3  502    0  0.35883293899E+03 -0.40114882520E+03  0.34945159423E+03  0.64171479239E+03  0.00000000000E+00 0. -1.
         -1    1    3    3    0  502  0.13052753402E+03 -0.87974510348E+02  0.81686874918E+02  0.17734062463E+03  0.00000000000E+00 0.  1.
         11    1    5    5    0    0  0.59455375701E+02 -0.20338434322E+03  0.11889604618E+03  0.24297407797E+03  0.00000000000E+00 0.  1.
        -11    1    5    5    0    0  0.10257703357E+01 -0.95559037795E+01 -0.15800514407E+02  0.18493884323E+02  0.00000000000E+00 0. -1.
          1    1    6    6  503    0 -0.79214980946E+02  0.15440396323E+03  0.78905615165E+02  0.19063497363E+03  0.00000000000E+00 0. -1.
         -1    1    6    6    0  503 -0.47062663811E+03  0.54765961932E+03  0.24791587654E+03  0.76346759785E+03  0.00000000000E+00 0.  1.
<mgrwt>
<rscale>  0 0.18434441E+04</rscale>
<asrwt>0</asrwt>
<pdfrwt beam="1">  1        2 0.90274651E-01 0.18434441E+04</pdfrwt>
<pdfrwt beam="2">  1       -1 0.22274472E+00 0.18434441E+04</pdfrwt>
<totfact> 0.57750628E+00</totfact>
</mgrwt>
</event>
<event>
12    6  0.1529770E-007  0.1509862E+04  0.7818608E-02  0.8877921E-01
          2   -1    0    0  501    0  0.00000000000E+00  0.00000000000E+00  0.31815154760E+03  0.31815154760E+03  0.00000000000E+00 0. -1.
         -1   -1    0    0    0  501 -0.00000000000E+00 -0.00000000000E+00 -0.17913489988E+04  0.17913489988E+04  0.00000000000E+00 0.  1.
         24    2    1    2    0    0  0.48534760173E+03  0.64128730446E+02 -0.50565658543E+03  0.70826091529E+03  0.79184298721E+02 0.  0.
        254    2    1    2    0    0 -0.48534760173E+03 -0.64128730446E+02 -0.96754086573E+03  0.14012396311E+04  0.88750345815E+03 0.  0.
         23    2    4    4    0    0 -0.26496365303E+03 -0.44567359424E+03 -0.70733819666E+03  0.88172705800E+03  0.91019724936E+02 0.  0.
         23    2    4    4    0    0 -0.22038394870E+03  0.38154486379E+03 -0.26020266907E+03  0.51951257306E+03  0.89678964353E+02 0.  0.
          2    1    3    3  502    0  0.47241769825E+03  0.49493815779E+02 -0.47387318454E+03  0.67095746098E+03  0.00000000000E+00 0. -1.
         -1    1    3    3    0  502  0.12929903488E+02  0.14634914667E+02 -0.31783400896E+02  0.37303454318E+02  0.00000000000E+00 0.  1.
         11    1    5    5    0    0 -0.14193613488E+03 -0.30088420738E+03 -0.39837864839E+03  0.51902092455E+03  0.00000000000E+00 0.  1.
        -11    1    5    5    0    0 -0.12302751816E+03 -0.14478938685E+03 -0.30895954828E+03  0.36270613345E+03  0.00000000000E+00 0. -1.
          1    1    6    6  503    0 -0.85147143388E+02  0.23556471768E+03 -0.13776228871E+03  0.28586573848E+03  0.00000000000E+00 0. -1.
         -1    1    6    6    0  503 -0.13523680531E+03  0.14598014611E+03 -0.12244038035E+03  0.23364683458E+03  0.00000000000E+00 0.  1.
<mgrwt>
<rscale>  0 0.15098615E+04</rscale>
<asrwt>0</asrwt>
<pdfrwt beam="1">  1        2 0.48946393E-01 0.15098615E+04</pdfrwt>
<pdfrwt beam="2">  1       -1 0.27559215E+00 0.15098615E+04</pdfrwt>
<totfact> 0.54096834E+00</totfact>
</mgrwt>
</event>
<event>
12    6  0.1529770E-007  0.1906056E+04  0.7818608E-02  0.8651848E-01
         -1   -1    0    0    0  501 -0.00000000000E+00  0.00000000000E+00  0.73973766892E+03  0.73973766892E+03  0.00000000000E+00 0.  1.
          2   -1    0    0  501    0  0.00000000000E+00 -0.00000000000E+00 -0.12278173722E+04  0.12278173722E+04  0.00000000000E+00 0. -1.
         24    2    1    2    0    0  0.35755973598E+03 -0.49164518552E+03  0.30024644025E+03  0.68484131646E+03  0.96414473039E+02 0.  0.
        254    2    1    2    0    0 -0.35755973598E+03  0.49164518552E+03 -0.78832614352E+03  0.12827137247E+04  0.80890817625E+03 0.  0.
         23    2    4    4    0    0 -0.47848031756E+03  0.24118975964E+03 -0.82426411575E+03  0.98738823105E+03  0.91696629515E+02 0.  0.
         23    2    4    4    0    0  0.12092058157E+03  0.25045542588E+03  0.35937972227E+02  0.29532549360E+03  0.92606165679E+02 0.  0.
          2    1    3    3  502    0  0.18573865753E+03 -0.30699405852E+03  0.13531710418E+03  0.38347740423E+03  0.00000000000E+00 0. -1.
         -1    1    3    3    0  502  0.17182107845E+03 -0.18465112700E+03  0.16492933607E+03  0.30136391224E+03  0.00000000000E+00 0.  1.
         11    1    5    5    0    0 -0.27344056537E+03  0.16382791501E+03 -0.41669623423E+03  0.52463804680E+03  0.00000000000E+00 0. -1.
        -11    1    5    5    0    0 -0.20503975218E+03  0.77361844628E+02 -0.40756788151E+03  0.46275018425E+03  0.00000000000E+00 0.  1.
          3    1    6    6  503    0  0.34626478363E+02  0.82580146610E+02 -0.31439351169E+02  0.94904722853E+02  0.00000000000E+00 0. -1.
         -3    1    6    6    0  503  0.86294103212E+02  0.16787527927E+03  0.67377323395E+02  0.20042077075E+03  0.00000000000E+00 0.  1.
<mgrwt>
<rscale>  0 0.19060564E+04</rscale>
<asrwt>0</asrwt>
<pdfrwt beam="1">  1        2 0.18889498E+00 0.19060564E+04</pdfrwt>
<pdfrwt beam="2">  1       -1 0.11380580E+00 0.19060564E+04</pdfrwt>
<totfact> 0.13695825E+01</totfact>
</mgrwt>
</event>
<event>
12    6  0.1529770E-007  0.5146853E+04  0.7818608E-02  0.7806245E-01
          2   -1    0    0  501    0  0.00000000000E+00  0.00000000000E+00  0.26243657910E+04  0.26243657910E+04  0.00000000000E+00 0. -1.
         -1   -1    0    0    0  501 -0.00000000000E+00 -0.00000000000E+00 -0.25234762648E+04  0.25234762648E+04  0.00000000000E+00 0.  1.
         24    2    1    2    0    0 -0.14526096957E+03  0.16756464771E+03 -0.24350627067E+04  0.24464649261E+04  0.80508315039E+02 0.  0.
        254    2    1    2    0    0  0.14526096957E+03 -0.16756464771E+03  0.25359522329E+04  0.27013771296E+04  0.90399447367E+03 0.  0.
         23    2    4    4    0    0  0.46242744955E+03 -0.12970226943E+03  0.20875740836E+04  0.21440580911E+04  0.91420558319E+02 0.  0.
         23    2    4    4    0    0 -0.31716647998E+03 -0.37862378279E+02  0.44837814930E+03  0.55731903857E+03  0.86795220327E+02 0.  0.
          4    1    3    3  502    0 -0.77996095461E+02  0.12381895014E+03 -0.18724025432E+04  0.18781122989E+04  0.00000000000E+00 0. -1.
         -3    1    3    3    0  502 -0.67264874113E+02  0.43745697569E+02 -0.56266016349E+03  0.56835262727E+03  0.00000000000E+00 0.  1.
         11    1    5    5    0    0  0.39897992877E+03 -0.97819915585E+02  0.16278946914E+04  0.16789266946E+04  0.00000000000E+00 0. -1.
        -11    1    5    5    0    0  0.63447520783E+02 -0.31882353848E+02  0.45967939216E+03  0.46513139645E+03  0.00000000000E+00 0.  1.
          3    1    6    6  503    0 -0.12270769630E+03 -0.38271744836E+02  0.24030925907E+03  0.27252604496E+03  0.00000000000E+00 0. -1.
         -3    1    6    6    0  503 -0.19445878367E+03  0.40936655769E+00  0.20806889023E+03  0.28479299361E+03  0.00000000000E+00 0.  1.
<mgrwt>
<rscale>  0 0.51468533E+04</rscale>
<asrwt>0</asrwt>
<pdfrwt beam="1">  1        2 0.40374858E+00 0.51468533E+04</pdfrwt>
<pdfrwt beam="2">  1       -1 0.38822712E+00 0.51468533E+04</pdfrwt>
<totfact> 0.20750588E-02</totfact>
</mgrwt>
</event>
<event>
12    6  0.1529770E-007  0.2111921E+04  0.7818608E-02  0.8556010E-01
          2   -1    0    0  501    0  0.00000000000E+00  0.00000000000E+00  0.22411275770E+04  0.22411275770E+04  0.00000000000E+00 0. -1.
         -1   -1    0    0    0  501 -0.00000000000E+00 -0.00000000000E+00 -0.49754076846E+03  0.49754076846E+03  0.00000000000E+00 0.  1.
         24    2    1    2    0    0  0.30063822847E+03 -0.44587150759E+03 -0.15955365164E+03  0.56646322532E+03  0.78983999613E+02 0.  0.
        254    2    1    2    0    0 -0.30063822847E+03  0.44587150759E+03  0.19031404602E+04  0.21722051201E+04  0.89852475040E+03 0.  0.
         23    2    4    4    0    0 -0.40155345673E+03  0.18465432979E+03  0.29982321216E+03  0.54209536191E+03  0.92903297788E+02 0.  0.
         23    2    4    4    0    0  0.10091522826E+03  0.26121717779E+03  0.16033172480E+04  0.16301097582E+04  0.90627417364E+02 0.  0.
          2    1    3    3  502    0  0.25761140417E+02 -0.11541832239E+02 -0.17416665933E+02  0.33169119663E+02  0.00000000000E+00 0. -1.
         -1    1    3    3    0  502  0.27487708805E+03 -0.43432967535E+03 -0.14213698571E+03  0.53329410566E+03  0.00000000000E+00 0.  1.
         11    1    5    5    0    0 -0.22110794628E+03  0.63892681762E+02  0.11666705313E+03  0.25803526886E+03  0.00000000000E+00 0. -1.
        -11    1    5    5    0    0 -0.18044551045E+03  0.12076164803E+03  0.18315615902E+03  0.28406009305E+03  0.00000000000E+00 0.  1.
          1    1    6    6  503    0  0.67108574829E+02  0.24556696976E+03  0.13169154191E+04  0.13412952391E+04  0.00000000000E+00 0. -1.
         -1    1    6    6    0  503  0.33806653428E+02  0.15650208030E+02  0.28640182896E+03  0.28881451913E+03  0.00000000000E+00 0.  1.
<mgrwt>
<rscale>  0 0.21119208E+04</rscale>
<asrwt>0</asrwt>
<pdfrwt beam="1">  1        2 0.34478885E+00 0.21119208E+04</pdfrwt>
<pdfrwt beam="2">  1       -1 0.76544735E-01 0.21119208E+04</pdfrwt>
<totfact> 0.87869787E+00</totfact>
</mgrwt>
</event>
<event>
12    6  0.1529770E-007  0.1961883E+04  0.7818608E-02  0.8624652E-01
         -1   -1    0    0    0  501 -0.00000000000E+00  0.00000000000E+00  0.10538963884E+04  0.10538963884E+04  0.00000000000E+00 0.  1.
          2   -1    0    0  501    0  0.00000000000E+00 -0.00000000000E+00 -0.91303689850E+03  0.91303689850E+03  0.00000000000E+00 0. -1.
         24    2    1    2    0    0 -0.60202325227E+03 -0.47616140470E+03 -0.34706685170E+02  0.77250813065E+03  0.80016112935E+02 0.  0.
        254    2    1    2    0    0  0.60202325227E+03  0.47616140470E+03  0.17556617506E+03  0.11944251562E+04  0.89814603069E+03 0.  0.
         23    2    4    4    0    0  0.65011393635E+03  0.14682853704E+03 -0.18377439822E+03  0.69695428083E+03  0.88122021098E+02 0.  0.
         23    2    4    4    0    0 -0.48090684078E+02  0.32933286766E+03  0.35934057328E+03  0.49747087542E+03  0.87056146628E+02 0.  0.
          4    1    3    3  502    0 -0.81811611309E+02 -0.72769232099E+02 -0.32503774766E+02  0.11421469371E+03  0.00000000000E+00 0. -1.
         -3    1    3    3    0  502 -0.52021164096E+03 -0.40339217260E+03 -0.22029104036E+01  0.65829343694E+03  0.00000000000E+00 0.  1.
         11    1    5    5    0    0  0.39532745094E+03  0.13004632909E+03 -0.97526537988E+02  0.42744270585E+03  0.00000000000E+00 0. -1.
        -11    1    5    5    0    0  0.25478648541E+03  0.16782207946E+02 -0.86247860237E+02  0.26951157498E+03  0.00000000000E+00 0.  1.
          4    1    6    6  503    0 -0.29072355884E+02  0.22989837254E+02  0.36842769518E+02  0.52260158433E+02  0.00000000000E+00 0. -1.
         -4    1    6    6    0  503 -0.19018328193E+02  0.30634303041E+03  0.32249780376E+03  0.44521071698E+03  0.00000000000E+00 0.  1.
<mgrwt>
<rscale>  0 0.19618831E+04</rscale>
<asrwt>0</asrwt>
<pdfrwt beam="1">  1        2 0.14046722E+00 0.19618831E+04</pdfrwt>
<pdfrwt beam="2">  1       -1 0.16213791E+00 0.19618831E+04</pdfrwt>
<totfact> 0.86026066E+00</totfact>
</mgrwt>
</event>
<event>
12    6  0.1529770E-007  0.1370452E+04  0.7818608E-02  0.8975489E-01
          2   -1    0    0  501    0  0.00000000000E+00  0.00000000000E+00  0.40710503521E+03  0.40710503521E+03  0.00000000000E+00 0. -1.
         -1   -1    0    0    0  501 -0.00000000000E+00 -0.00000000000E+00 -0.11533504147E+04  0.11533504147E+04  0.00000000000E+00 0.  1.
         24    2    1    2    0    0 -0.14218025944E+03 -0.29584018839E+03 -0.41870154625E+03  0.53771815730E+03  0.78058879131E+02 0.  0.
        254    2    1    2    0    0  0.14218025944E+03  0.29584018839E+03 -0.32754383329E+03  0.10227372927E+04  0.91157553929E+03 0.  0.
         23    2    4    4    0    0  0.49835650625E+03  0.24485588015E+03 -0.61980559328E+02  0.56641085526E+03  0.93091663714E+02 0.  0.
         23    2    4    4    0    0 -0.35617624681E+03  0.50984308242E+02 -0.26556327396E+03  0.45632643740E+03  0.90824261696E+02 0.  0.
          4    1    3    3  502    0 -0.19342590923E+02 -0.27237367452E+01 -0.22390827094E+02  0.29713695553E+02  0.00000000000E+00 0. -1.
         -3    1    3    3    0  502 -0.12283766852E+03 -0.29311645165E+03 -0.39631071915E+03  0.50800446174E+03  0.00000000000E+00 0.  1.
         11    1    5    5    0    0  0.75469878079E+02  0.27497351481E+02 -0.41699148392E+02  0.90502076288E+02  0.00000000000E+00 0. -1.
        -11    1    5    5    0    0  0.42288662818E+03  0.21735852867E+03 -0.20281410936E+02  0.47590877897E+03  0.00000000000E+00 0.  1.
          1    1    6    6  503    0 -0.13848019427E+03 -0.17573686565E+02 -0.72012902257E+02  0.15707150205E+03  0.00000000000E+00 0. -1.
         -1    1    6    6    0  503 -0.21769605254E+03  0.68557994807E+02 -0.19355037170E+03  0.29925493535E+03  0.00000000000E+00 0.  1.
<mgrwt>
<rscale>  0 0.13704521E+04</rscale>
<asrwt>0</asrwt>
<pdfrwt beam="1">  1        2 0.62631544E-01 0.13704521E+04</pdfrwt>
<pdfrwt beam="2">  1       -1 0.17743852E+00 0.13704521E+04</pdfrwt>
<totfact> 0.18889844E+01</totfact>
</mgrwt>
</event>
<event>
12    6  0.1529770E-007  0.1584425E+04  0.7818608E-02  0.8830174E-01
         -1   -1    0    0    0  501 -0.00000000000E+00  0.00000000000E+00  0.40842803208E+03  0.40842803208E+03  0.00000000000E+00 0.  1.
          2   -1    0    0  501    0  0.00000000000E+00 -0.00000000000E+00 -0.15366246190E+04  0.15366246190E+04  0.00000000000E+00 0. -1.
         24    2    1    2    0    0  0.49133046414E+03 -0.15391302000E+03 -0.26369843103E+03  0.58369663203E+03  0.77910544850E+02 0.  0.
        254    2    1    2    0    0 -0.49133046414E+03  0.15391302000E+03 -0.86449815593E+03  0.13613560191E+04  0.91697235857E+03 0.  0.
         23    2    4    4    0    0 -0.47106925136E+03  0.98652158126E+02  0.34117043956E+00  0.48989790151E+03  0.91440415713E+02 0.  0.
         23    2    4    4    0    0 -0.20261212772E+02  0.55260861874E+02 -0.86483932637E+03  0.87145811757E+03  0.89598608545E+02 0.  0.
          4    1    3    3  502    0  0.40335664584E+03 -0.11712141165E+03 -0.18054811812E+03  0.45717789947E+03  0.00000000000E+00 0. -1.
         -3    1    3    3    0  502  0.87973818299E+02 -0.36791608347E+02 -0.83150312904E+02  0.12651873255E+03  0.00000000000E+00 0.  1.
         11    1    5    5    0    0 -0.94571498780E+02  0.34416187757E+02 -0.34464842497E+02  0.10637700752E+03  0.00000000000E+00 0.  1.
        -11    1    5    5    0    0 -0.37649775258E+03  0.64235970370E+02  0.34806012937E+02  0.38352089399E+03  0.00000000000E+00 0. -1.
          1    1    6    6  503    0 -0.92200855625E+01  0.78653125154E+02 -0.71841668612E+03  0.72276819172E+03  0.00000000000E+00 0. -1.
         -1    1    6    6    0  503 -0.11041127210E+02 -0.23392263280E+02 -0.14642264025E+03  0.14868992585E+03  0.00000000000E+00 0.  1.
<mgrwt>
<rscale>  0 0.15844249E+04</rscale>
<asrwt>0</asrwt>
<pdfrwt beam="1">  1        2 0.23640379E+00 0.15844249E+04</pdfrwt>
<pdfrwt beam="2">  1       -1 0.62835082E-01 0.15844249E+04</pdfrwt>
<totfact> 0.34014218E+01</totfact>
</mgrwt>
</event>
<event>
12    6  0.1529770E-007  0.3578060E+04  0.7818608E-02  0.8095536E-01
          2   -1    0    0  501    0  0.00000000000E+00  0.00000000000E+00  0.34884328429E+04  0.34884328429E+04  0.00000000000E+00 0. -1.
         -1   -1    0    0    0  501 -0.00000000000E+00 -0.00000000000E+00 -0.91749760751E+03  0.91749760751E+03  0.00000000000E+00 0.  1.
         24    2    1    2    0    0  0.53919668221E+03 -0.10062285297E+04  0.27619123456E+04  0.29895927448E+04  0.79221580237E+02 0.  0.
        254    2    1    2    0    0 -0.53919668221E+03  0.10062285297E+04 -0.19097711019E+03  0.14163377056E+04  0.81627894972E+03 0.  0.
         23    2    4    4    0    0 -0.50974355976E+03  0.37240448567E+03  0.19733513004E+03  0.66706356829E+03  0.86654791721E+02 0.  0.
         23    2    4    4    0    0 -0.29453122450E+02  0.63382404402E+03 -0.38831224023E+03  0.74927413736E+03  0.89581983687E+02 0.  0.
          4    1    3    3  502    0  0.41502268195E+03 -0.82124006866E+03  0.21632083374E+04  0.23507763373E+04  0.00000000000E+00 0. -1.
         -1    1    3    3    0  502  0.12417400026E+03 -0.18498846103E+03  0.59870400824E+03  0.63881640754E+03  0.00000000000E+00 0.  1.
         11    1    5    5    0    0 -0.23819869981E+03  0.12422954927E+03  0.98653522129E+02  0.28618895669E+03  0.00000000000E+00 0. -1.
        -11    1    5    5    0    0 -0.27154485995E+03  0.24817493639E+03  0.98681607909E+02  0.38087461160E+03  0.00000000000E+00 0.  1.
          1    1    6    6  503    0 -0.42161884724E+02  0.29718744370E+03 -0.14263498648E+03  0.33232926531E+03  0.00000000000E+00 0. -1.
         -1    1    6    6    0  503  0.12708762274E+02  0.33663660032E+03 -0.24567725375E+03  0.41694487204E+03  0.00000000000E+00 0.  1.
<mgrwt>
<rscale>  0 0.35780602E+04</rscale>
<asrwt>0</asrwt>
<pdfrwt beam="1">  1        2 0.53668197E+00 0.35780602E+04</pdfrwt>
<pdfrwt beam="2">  1       -1 0.14115348E+00 0.35780602E+04</pdfrwt>
<totfact> 0.31439252E-01</totfact>
</mgrwt>
</event>
<event>
12    6  0.1529770E-007  0.3702290E+04  0.7818608E-02  0.8067455E-01
         -1   -1    0    0    0  501 -0.00000000000E+00  0.00000000000E+00  0.10811264113E+04  0.10811264113E+04  0.00000000000E+00 0.  1.
          2   -1    0    0  501    0  0.00000000000E+00 -0.00000000000E+00 -0.31695992108E+04  0.31695992108E+04  0.00000000000E+00 0. -1.
         24    2    1    2    0    0  0.10868764137E+04  0.14752865094E+03  0.56899002454E+03  0.12378139503E+04  0.73271317173E+02 0.  0.
        254    2    1    2    0    0 -0.10868764137E+04 -0.14752865094E+03 -0.26574628240E+04  0.30129116717E+04  0.90136731643E+03 0.  0.
         23    2    4    4    0    0 -0.54721738456E+03 -0.78871660428E+02 -0.22717907451E+04  0.23398488911E+04  0.90509884819E+02 0.  0.
         23    2    4    4    0    0 -0.53965902917E+03 -0.68656990516E+02 -0.38567207896E+03  0.67306278061E+03  0.91240912086E+02 0.  0.
          2    1    3    3  502    0  0.20892199471E+03  0.56644733122E+02  0.12095113360E+03  0.24796411511E+03  0.00000000000E+00 0. -1.
         -1    1    3    3    0  502  0.87795441902E+03  0.90883917821E+02  0.44803889094E+03  0.98984983517E+03  0.00000000000E+00 0.  1.
         11    1    5    5    0    0 -0.25864833739E+03 -0.78987188422E+02 -0.10220149229E+04  0.10571908253E+04  0.00000000000E+00 0. -1.
        -11    1    5    5    0    0 -0.28856904717E+03  0.11552799405E+00 -0.12497758221E+04  0.12826580659E+04  0.00000000000E+00 0.  1.
          3    1    6    6  503    0 -0.14924140000E+03 -0.14708500157E+02 -0.15828614418E+03  0.21804549729E+03  0.00000000000E+00 0. -1.
         -3    1    6    6    0  503 -0.39041762917E+03 -0.53948490359E+02 -0.22738593479E+03  0.45501728332E+03  0.00000000000E+00 0.  1.
<mgrwt>
<rscale>  0 0.37022898E+04</rscale>
<asrwt>0</asrwt>
<pdfrwt beam="1">  1        2 0.48763065E+00 0.37022898E+04</pdfrwt>
<pdfrwt beam="2">  1       -1 0.16632714E+00 0.37022898E+04</pdfrwt>
<totfact> 0.32592465E-01</totfact>
</mgrwt>
</event>
<event>
12    6  0.1529770E-007  0.2227498E+04  0.7818608E-02  0.8507069E-01
         -1   -1    0    0    0  501 -0.00000000000E+00  0.00000000000E+00  0.48058189791E+03  0.48058189791E+03  0.00000000000E+00 0.  1.
          2   -1    0    0  501    0  0.00000000000E+00 -0.00000000000E+00 -0.25811149098E+04  0.25811149098E+04  0.00000000000E+00 0. -1.
         24    2    1    2    0    0 -0.51910686727E+03  0.69414816098E+03 -0.11174821911E+04  0.14164452983E+04  0.78976113678E+02 0.  0.
        254    2    1    2    0    0  0.51910686727E+03 -0.69414816098E+03 -0.98305082081E+03  0.16452515095E+04  0.99456020636E+03 0.  0.
         23    2    4    4    0    0  0.37620737384E+03  0.12921555224E+03 -0.58894528116E+03  0.71671300448E+03  0.92694873210E+02 0.  0.
         23    2    4    4    0    0  0.14289949343E+03 -0.82336371322E+03 -0.39410553965E+03  0.92853850498E+03  0.92284935842E+02 0.  0.
          2    1    3    3  502    0 -0.42363423317E+03  0.51085324726E+03 -0.85859683418E+03  0.10851845591E+04  0.00000000000E+00 0. -1.
         -1    1    3    3    0  502 -0.95472634106E+02  0.18329491372E+03 -0.25888535692E+03  0.33126073913E+03  0.00000000000E+00 0.  1.
         11    1    5    5    0    0  0.51550044476E+02  0.53173846914E+02 -0.89184919992E+02  0.11592590321E+03  0.00000000000E+00 0.  1.
        -11    1    5    5    0    0  0.32465732937E+03  0.76041705326E+02 -0.49976036117E+03  0.60078710127E+03  0.00000000000E+00 0. -1.
          4    1    6    6  503    0  0.53812764150E+02 -0.21305285583E+03 -0.63465198527E+02  0.22872508473E+03  0.00000000000E+00 0. -1.
         -4    1    6    6    0  503  0.89086729278E+02 -0.61031085739E+03 -0.33064034112E+03  0.69981342025E+03  0.00000000000E+00 0.  1.
<mgrwt>
<rscale>  0 0.22274982E+04</rscale>
<asrwt>0</asrwt>
<pdfrwt beam="1">  1        2 0.39709460E+00 0.22274982E+04</pdfrwt>
<pdfrwt beam="2">  1       -1 0.73935676E-01 0.22274982E+04</pdfrwt>
<totfact> 0.59689418E+00</totfact>
</mgrwt>
</event>
<event>
12    6  0.1529770E-007  0.2086865E+04  0.7818608E-02  0.8567052E-01
         -1   -1    0    0    0  501 -0.00000000000E+00  0.00000000000E+00  0.66890673497E+03  0.66890673497E+03  0.00000000000E+00 0.  1.
          2   -1    0    0  501    0  0.00000000000E+00 -0.00000000000E+00 -0.16276579322E+04  0.16276579322E+04  0.00000000000E+00 0. -1.
         24    2    1    2    0    0  0.18963367646E+03  0.16143832334E+03 -0.12799831495E+04  0.13064271628E+04  0.79823588232E+02 0.  0.
        254    2    1    2    0    0 -0.18963367646E+03 -0.16143832334E+03  0.32123195227E+03  0.99013750435E+03  0.90286158788E+03 0.  0.
         23    2    4    4    0    0 -0.67446872833E+02  0.32549251966E+03  0.33176565323E+03  0.47937204558E+03  0.96097078079E+02 0.  0.
         23    2    4    4    0    0 -0.12218680363E+03 -0.48693084300E+03 -0.10533700956E+02  0.51076545876E+03  0.93483336284E+02 0.  0.
          2    1    3    3  502    0  0.54172940738E+02  0.21644225507E+02 -0.45847390957E+03  0.46217042935E+03  0.00000000000E+00 0. -1.
         -1    1    3    3    0  502  0.13546073572E+03  0.13979409783E+03 -0.82150923995E+03  0.84425673348E+03  0.00000000000E+00 0.  1.
         11    1    5    5    0    0 -0.61874889438E+02  0.27864737314E+03  0.32359656867E+03  0.43149461150E+03  0.00000000000E+00 0.  1.
        -11    1    5    5    0    0 -0.55719833942E+01  0.46845146526E+02  0.81690845578E+01  0.47877434084E+02  0.00000000000E+00 0. -1.
          4    1    6    6  503    0  0.15110397931E+01 -0.17620061695E+03 -0.27647583154E+01  0.17622878466E+03  0.00000000000E+00 0. -1.
         -4    1    6    6    0  503 -0.12369784342E+03 -0.31073022605E+03 -0.77689426407E+01  0.33453667410E+03  0.00000000000E+00 0.  1.
<mgrwt>
<rscale>  0 0.20868650E+04</rscale>
<asrwt>0</asrwt>
<pdfrwt beam="1">  1        2 0.25040891E+00 0.20868650E+04</pdfrwt>
<pdfrwt beam="2">  1       -1 0.10290873E+00 0.20868650E+04</pdfrwt>
<totfact> 0.10088287E+01</totfact>
</mgrwt>
</event>
<event>
12    6  0.1529770E-007  0.2237477E+04  0.7818608E-02  0.8502989E-01
          2   -1    0    0  501    0  0.00000000000E+00  0.00000000000E+00  0.13038447461E+04  0.13038447461E+04  0.00000000000E+00 0. -1.
         -1   -1    0    0    0  501 -0.00000000000E+00 -0.00000000000E+00 -0.95991198452E+03  0.95991198452E+03  0.00000000000E+00 0.  1.
         24    2    1    2    0    0  0.14012002333E+03 -0.92492090893E+03  0.25724399341E+02  0.93918674843E+03  0.79358017725E+02 0.  0.
        254    2    1    2    0    0 -0.14012002333E+03  0.92492090893E+03  0.31820836226E+03  0.13245699822E+04  0.88210927170E+03 0.  0.
         23    2    4    4    0    0 -0.35813967918E+03  0.52855347527E+02  0.17234035507E+03  0.40923197522E+03  0.81926149632E+02 0.  0.
         23    2    4    4    0    0  0.21801965584E+03  0.87206556141E+03  0.14586800718E+03  0.91533800698E+03  0.92386567083E+02 0.  0.
          2    1    3    3  502    0  0.49415816884E+02 -0.23850384655E+03 -0.25555859371E+02  0.24490632848E+03  0.00000000000E+00 0. -1.
         -1    1    3    3    0  502  0.90704206451E+02 -0.68641706238E+03  0.51280258712E+02  0.69428041995E+03  0.00000000000E+00 0.  1.
         11    1    5    5    0    0 -0.18465629552E+03 -0.12534689746E+02  0.98605835655E+02  0.20970974404E+03  0.00000000000E+00 0.  1.
        -11    1    5    5    0    0 -0.17348338366E+03  0.65390037274E+02  0.73734519418E+02  0.19952223118E+03  0.00000000000E+00 0. -1.
          3    1    6    6  503    0  0.39672126702E+02  0.58068234459E+02  0.10334729017E+02  0.71081672139E+02  0.00000000000E+00 0. -1.
         -3    1    6    6    0  503  0.17834752914E+03  0.81399732695E+03  0.13553327817E+03  0.84425633484E+03  0.00000000000E+00 0.  1.
<mgrwt>
<rscale>  0 0.22374773E+04</rscale>
<asrwt>0</asrwt>
<pdfrwt beam="1">  1        2 0.20059150E+00 0.22374773E+04</pdfrwt>
<pdfrwt beam="2">  1       -1 0.14767877E+00 0.22374773E+04</pdfrwt>
<totfact> 0.62149486E+00</totfact>
</mgrwt>
</event>
<event>
12    6  0.1529770E-007  0.2251910E+04  0.7818608E-02  0.8497127E-01
         -1   -1    0    0    0  501 -0.00000000000E+00  0.00000000000E+00  0.13700558280E+04  0.13700558280E+04  0.00000000000E+00 0.  1.
          2   -1    0    0  501    0  0.00000000000E+00 -0.00000000000E+00 -0.92534537463E+03  0.92534537463E+03  0.00000000000E+00 0. -1.
         24    2    1    2    0    0  0.22024609192E+03  0.49996140543E+03 -0.61769438935E+03  0.82842186608E+03  0.79162375109E+02 0.  0.
        254    2    1    2    0    0 -0.22024609192E+03 -0.49996140543E+03  0.10624048427E+04  0.14669793365E+04  0.85138391816E+03 0.  0.
         23    2    4    4    0    0 -0.20043051171E+03 -0.55534623738E+03  0.11696537829E+04  0.13134475913E+04  0.92047649004E+02 0.  0.
         23    2    4    4    0    0 -0.19815580215E+02  0.55384831953E+02 -0.10724894022E+03  0.15353174527E+03  0.92787525008E+02 0.  0.
          4    1    3    3  502    0  0.18781440661E+03  0.46474187470E+03 -0.53700557388E+03  0.73459801784E+03  0.00000000000E+00 0. -1.
         -3    1    3    3    0  502  0.32431685316E+02  0.35219530735E+02 -0.80688815466E+02  0.93823848242E+02  0.00000000000E+00 0.  1.
         11    1    5    5    0    0 -0.21598770572E+02 -0.45118257363E+02  0.53507466932E+02  0.73247614672E+02  0.00000000000E+00 0. -1.
        -11    1    5    5    0    0 -0.17883174114E+03 -0.51022798002E+03  0.11161463160E+04  0.12401999766E+04  0.00000000000E+00 0.  1.
          1    1    6    6  503    0 -0.40350411386E+02  0.93218011517E+01 -0.79639167442E+01  0.42171977019E+02  0.00000000000E+00 0. -1.
         -1    1    6    6    0  503  0.20534831171E+02  0.46063030801E+02 -0.99285023480E+02  0.11135976825E+03  0.00000000000E+00 0.  1.
<mgrwt>
<rscale>  0 0.22519101E+04</rscale>
<asrwt>0</asrwt>
<pdfrwt beam="1">  1        2 0.14236083E+00 0.22519101E+04</pdfrwt>
<pdfrwt beam="2">  1       -1 0.21077782E+00 0.22519101E+04</pdfrwt>
<totfact> 0.37168457E+00</totfact>
</mgrwt>
</event>
<event>
12    6  0.1529770E-007  0.1002582E+04  0.7818608E-02  0.9305718E-01
          2   -1    0    0  501    0  0.00000000000E+00  0.00000000000E+00  0.48558138483E+03  0.48558138483E+03  0.00000000000E+00 0. -1.
         -1   -1    0    0    0  501 -0.00000000000E+00 -0.00000000000E+00 -0.51750852039E+03  0.51750852039E+03  0.00000000000E+00 0.  1.
         24    2    1    2    0    0 -0.94429627562E+02  0.64258260863E+01  0.90169559764E+01  0.12451617665E+03  0.80403525735E+02 0.  0.
        254    2    1    2    0    0  0.94429627562E+02 -0.64258260863E+01 -0.40944091540E+02  0.87857372857E+03  0.87250050550E+03 0.  0.
         23    2    4    4    0    0  0.19558263502E+02 -0.35163723333E+03  0.22488440916E+03  0.42724227129E+03  0.89060043539E+02 0.  0.
         23    2    4    4    0    0  0.74871364059E+02  0.34521140724E+03 -0.26582850070E+03  0.45133145728E+03  0.90877146180E+02 0.  0.
          4    1    3    3  502    0 -0.25602522289E+02 -0.14567575580E+02  0.37013299998E+02  0.47304204703E+02  0.00000000000E+00 0. -1.
         -3    1    3    3    0  502 -0.68827105273E+02  0.20993401666E+02 -0.27996344021E+02  0.77211971950E+02  0.00000000000E+00 0.  1.
         11    1    5    5    0    0  0.22103704341E+02 -0.32192706503E+03  0.16986984342E+03  0.36466611119E+03  0.00000000000E+00 0. -1.
        -11    1    5    5    0    0 -0.25454408383E+01 -0.29710168303E+02  0.55014565739E+02  0.62576160102E+02  0.00000000000E+00 0.  1.
          4    1    6    6  503    0 -0.11559517023E+02  0.61930270953E+02 -0.79443821330E+02  0.10139182236E+03  0.00000000000E+00 0.  1.
         -4    1    6    6    0  503  0.86430881083E+02  0.28328113629E+03 -0.18638467937E+03  0.34993963492E+03  0.00000000000E+00 0. -1.
<mgrwt>
<rscale>  0 0.10025817E+04</rscale>
<asrwt>0</asrwt>
<pdfrwt beam="1">  1        2 0.74704829E-01 0.10025817E+04</pdfrwt>
<pdfrwt beam="2">  1       -1 0.79616695E-01 0.10025817E+04</pdfrwt>
<totfact> 0.11469736E+02</totfact>
</mgrwt>
</event>
<event>
12    6  0.1529770E-007  0.1174458E+04  0.7818608E-02  0.9135512E-01
          2   -1    0    0  501    0  0.00000000000E+00  0.00000000000E+00  0.36367719033E+04  0.36367719033E+04  0.00000000000E+00 0. -1.
         -1   -1    0    0    0  501 -0.00000000000E+00 -0.00000000000E+00 -0.94819744535E+02  0.94819744535E+02  0.00000000000E+00 0.  1.
         24    2    1    2    0    0 -0.81427825160E+02 -0.20835118128E+03  0.53955074257E+03  0.58968803910E+03  0.81094230346E+02 0.  0.
        254    2    1    2    0    0  0.81427825160E+02  0.20835118128E+03  0.30024014162E+04  0.31419036087E+04  0.89838929044E+03 0.  0.
         23    2    4    4    0    0  0.41362278532E+03  0.31218033148E+03  0.13043391213E+04  0.14062459602E+04  0.87674337287E+02 0.  0.
         23    2    4    4    0    0 -0.33219496016E+03 -0.10382915020E+03  0.16980622949E+04  0.17356576485E+04  0.89207238921E+02 0.  0.
          2    1    3    3  502    0  0.15432004676E+02 -0.25885067529E+02  0.90812413048E+02  0.95682171029E+02  0.00000000000E+00 0. -1.
         -1    1    3    3    0  502 -0.96859829836E+02 -0.18246611375E+03  0.44873832952E+03  0.49400586807E+03  0.00000000000E+00 0.  1.
         11    1    5    5    0    0  0.64807176465E+02  0.47431984440E+02  0.30054194759E+03  0.31108716709E+03  0.00000000000E+00 0.  1.
        -11    1    5    5    0    0  0.34881560886E+03  0.26474834704E+03  0.10037971737E+04  0.10951587931E+04  0.00000000000E+00 0. -1.
          4    1    6    6  503    0 -0.72085836735E+01  0.10760200137E+02  0.10200751781E+03  0.10282645222E+03  0.00000000000E+00 0.  1.
         -4    1    6    6    0  503 -0.32498637649E+03 -0.11458935034E+03  0.15960547771E+04  0.16328311963E+04  0.00000000000E+00 0. -1.
<mgrwt>
<rscale>  0 0.11744578E+04</rscale>
<asrwt>0</asrwt>
<pdfrwt beam="1">  1        2 0.55950326E+00 0.11744578E+04</pdfrwt>
<pdfrwt beam="2">  1       -1 0.14587656E-01 0.11744578E+04</pdfrwt>
<totfact> 0.25961724E+01</totfact>
</mgrwt>
</event>
<event>
12    6  0.1529770E-007  0.1688684E+04  0.7818608E-02  0.8767845E-01
          2   -1    0    0  501    0  0.00000000000E+00  0.00000000000E+00  0.14855084914E+04  0.14855084914E+04  0.00000000000E+00 0. -1.
         -1   -1    0    0    0  501 -0.00000000000E+00 -0.00000000000E+00 -0.47991179273E+03  0.47991179273E+03  0.00000000000E+00 0.  1.
         24    2    1    2    0    0 -0.26346154846E+03  0.58874792341E+02  0.97772888355E+03  0.10174660391E+04  0.80032132614E+02 0.  0.
        254    2    1    2    0    0  0.26346154846E+03 -0.58874792341E+02  0.27867815134E+02  0.94795424506E+03  0.90827441168E+03 0.  0.
         23    2    4    4    0    0 -0.45144885496E+02 -0.43767668465E+03 -0.97383156389E+01  0.44962638744E+03  0.92033214197E+02 0.  0.
         23    2    4    4    0    0  0.30860643396E+03  0.37880189231E+03  0.37606130773E+02  0.49832785762E+03  0.90485512132E+02 0.  0.
          4    1    3    3  502    0 -0.24308217651E+03  0.29670755053E+02  0.88053091018E+03  0.91394966055E+03  0.00000000000E+00 0. -1.
         -3    1    3    3    0  502 -0.20379371957E+02  0.29204037288E+02  0.97197973375E+02  0.10351637853E+03  0.00000000000E+00 0.  1.
         11    1    5    5    0    0  0.21185391990E+02 -0.24161785388E+03 -0.48404169751E+01  0.24259315280E+03  0.00000000000E+00 0.  1.
        -11    1    5    5    0    0 -0.66330277486E+02 -0.19605883077E+03 -0.48978986639E+01  0.20703323464E+03  0.00000000000E+00 0. -1.
          2    1    6    6  503    0  0.25104388738E+03  0.25601232704E+03  0.38647545924E+01  0.35858092715E+03  0.00000000000E+00 0. -1.
         -2    1    6    6    0  503  0.57562546579E+02  0.12278956528E+03  0.33741376181E+02  0.13974693047E+03  0.00000000000E+00 0.  1.
<mgrwt>
<rscale>  0 0.16886836E+04</rscale>
<asrwt>0</asrwt>
<pdfrwt beam="1">  1        2 0.22853977E+00 0.16886836E+04</pdfrwt>
<pdfrwt beam="2">  1       -1 0.73832584E-01 0.16886836E+04</pdfrwt>
<totfact> 0.25936937E+01</totfact>
</mgrwt>
</event>
<event>
12    6  0.1529770E-007  0.3726690E+04  0.7818608E-02  0.8062073E-01
         -1   -1    0    0    0  501 -0.00000000000E+00  0.00000000000E+00  0.12409850481E+04  0.12409850481E+04  0.00000000000E+00 0.  1.
          2   -1    0    0  501    0  0.00000000000E+00 -0.00000000000E+00 -0.27978217980E+04  0.27978217980E+04  0.00000000000E+00 0. -1.
         24    2    1    2    0    0  0.27026632255E+03 -0.17780483172E+03 -0.26076646834E+04  0.26288658779E+04  0.79763775694E+02 0.  0.
        254    2    1    2    0    0 -0.27026632255E+03  0.17780483172E+03  0.10508279335E+04  0.14099409681E+04  0.88263001569E+03 0.  0.
         23    2    4    4    0    0  0.66617973113E+02  0.87776253875E+02  0.10397370943E+04  0.10495681882E+04  0.91638045160E+02 0.  0.
         23    2    4    4    0    0 -0.33688429567E+03  0.90028577845E+02  0.11090839183E+02  0.36037277996E+03  0.90273807527E+02 0.  0.
          2    1    3    3  502    0  0.21445249812E+03 -0.17156420949E+03 -0.22715141320E+04  0.22880560753E+04  0.00000000000E+00 0. -1.
         -1    1    3    3    0  502  0.55813824432E+02 -0.62406222293E+01 -0.33615055143E+03  0.34080980266E+03  0.00000000000E+00 0.  1.
         11    1    5    5    0    0 -0.88099908413E+01 -0.57065760470E+01  0.18333161644E+02  0.21125476673E+02  0.00000000000E+00 0.  1.
        -11    1    5    5    0    0  0.75427963954E+02  0.93482829922E+02  0.10214039327E+04  0.10284427115E+04  0.00000000000E+00 0. -1.
          3    1    6    6  503    0 -0.31498080438E+03  0.10056826877E+03  0.26314515959E+02  0.33169163023E+03  0.00000000000E+00 0. -1.
         -3    1    6    6    0  503 -0.21903491285E+02 -0.10539690927E+02 -0.15223676775E+02  0.28681149731E+02  0.00000000000E+00 0.  1.
<mgrwt>
<rscale>  0 0.37266902E+04</rscale>
<asrwt>0</asrwt>
<pdfrwt beam="1">  1        2 0.43043411E+00 0.37266902E+04</pdfrwt>
<pdfrwt beam="2">  1       -1 0.19092078E+00 0.37266902E+04</pdfrwt>
<totfact> 0.36984670E-01</totfact>
</mgrwt>
</event>
<event>
12    6  0.1529770E-007  0.1142412E+04  0.7818608E-02  0.9164813E-01
          2   -1    0    0  501    0  0.00000000000E+00  0.00000000000E+00  0.32926912650E+04  0.32926912650E+04  0.00000000000E+00 0. -1.
         -1   -1    0    0    0  501 -0.00000000000E+00 -0.00000000000E+00 -0.99090986494E+02  0.99090986494E+02  0.00000000000E+00 0.  1.
         24    2    1    2    0    0 -0.98553502774E+02 -0.92910551085E+02  0.10813424481E+04  0.10926214732E+04  0.78581360854E+02 0.  0.
        254    2    1    2    0    0  0.98553502774E+02  0.92910551085E+02  0.21122578305E+04  0.22991607783E+04  0.89786523423E+03 0.  0.
         23    2    4    4    0    0 -0.68278565210E+02  0.22159850299E+03  0.20447423128E+04  0.20598716789E+04  0.91281700157E+02 0.  0.
         23    2    4    4    0    0  0.16683206798E+03 -0.12868795191E+03  0.67515517693E+02  0.23928909946E+03  0.91144940151E+02 0.  0.
          4    1    3    3  502    0 -0.64131937083E+02 -0.19559504609E+02  0.67201976013E+03  0.67535623013E+03  0.00000000000E+00 0. -1.
         -3    1    3    3    0  502 -0.34421565691E+02 -0.73351046476E+02  0.40932268793E+03  0.41726524305E+03  0.00000000000E+00 0.  1.
         11    1    5    5    0    0 -0.37005960338E+02  0.20514626360E+03  0.15637501106E+04  0.15775832273E+04  0.00000000000E+00 0.  1.
        -11    1    5    5    0    0 -0.31272604872E+02  0.16452239395E+02  0.48099220216E+03  0.48228845159E+03  0.00000000000E+00 0. -1.
          1    1    6    6  503    0  0.56054023889E+02 -0.34186837770E+00  0.36615604260E+02  0.66954260085E+02  0.00000000000E+00 0. -1.
         -1    1    6    6    0  503  0.11077804410E+03 -0.12834608353E+03  0.30899913433E+02  0.17233483937E+03  0.00000000000E+00 0.  1.
<mgrwt>
<rscale>  0 0.11424115E+04</rscale>
<asrwt>0</asrwt>
<pdfrwt beam="1">  1        2 0.50656780E+00 0.11424115E+04</pdfrwt>
<pdfrwt beam="2">  1       -1 0.15244770E-01 0.11424115E+04</pdfrwt>
<totfact> 0.41691475E+01</totfact>
</mgrwt>
</event>
<event>
12    6  0.1529770E-007  0.1704793E+04  0.7818608E-02  0.8758636E-01
         -1   -1    0    0    0  501 -0.00000000000E+00  0.00000000000E+00  0.36282133216E+03  0.36282133216E+03  0.00000000000E+00 0.  1.
          2   -1    0    0  501    0  0.00000000000E+00 -0.00000000000E+00 -0.20025819193E+04  0.20025819193E+04  0.00000000000E+00 0. -1.
         24    2    1    2    0    0 -0.74215709925E+02  0.55914640188E+03 -0.94270569679E+03  0.11015216600E+04  0.80642831848E+02 0.  0.
        254    2    1    2    0    0  0.74215709925E+02 -0.55914640188E+03 -0.69705489036E+03  0.12638815915E+04  0.89070673444E+03 0.  0.
         23    2    4    4    0    0 -0.86931856926E+02  0.78406158745E+02  0.13499419759E+03  0.19926651996E+03  0.88198861189E+02 0.  0.
         23    2    4    4    0    0  0.16114756685E+03 -0.63755256063E+03 -0.83204908795E+03  0.10646150715E+04  0.93047084203E+02 0.  0.
          2    1    3    3  502    0  0.22426848392E+01  0.10293431970E+03 -0.22817833200E+03  0.25033149023E+03  0.00000000000E+00 0. -1.
         -1    1    3    3    0  502 -0.76458394765E+02  0.45621208218E+03 -0.71452736479E+03  0.85119016976E+03  0.00000000000E+00 0.  1.
         11    1    5    5    0    0 -0.94432153790E+02  0.89968403306E+02  0.13113525091E+03  0.18495458711E+03  0.00000000000E+00 0.  1.
        -11    1    5    5    0    0  0.75002968645E+01 -0.11562244561E+02  0.38589466884E+01  0.14311932850E+02  0.00000000000E+00 0. -1.
          3    1    6    6  503    0  0.34442006514E+02 -0.61212249835E+02 -0.12769604214E+03  0.14573767708E+03  0.00000000000E+00 0. -1.
         -3    1    6    6    0  503  0.12670556034E+03 -0.57634031079E+03 -0.70435304581E+03  0.91887739444E+03  0.00000000000E+00 0.  1.
<mgrwt>
<rscale>  0 0.17047926E+04</rscale>
<asrwt>0</asrwt>
<pdfrwt beam="1">  1        2 0.30808953E+00 0.17047926E+04</pdfrwt>
<pdfrwt beam="2">  1       -1 0.55818666E-01 0.17047926E+04</pdfrwt>
<totfact> 0.23422534E+01</totfact>
</mgrwt>
</event>
<event>
12    6  0.1529770E-007  0.1348760E+04  0.7818608E-02  0.8991768E-01
          2   -1    0    0  501    0  0.00000000000E+00  0.00000000000E+00  0.32067390062E+04  0.32067390062E+04  0.00000000000E+00 0. -1.
         -1   -1    0    0    0  501 -0.00000000000E+00 -0.00000000000E+00 -0.14182259645E+03  0.14182259645E+03  0.00000000000E+00 0.  1.
         24    2    1    2    0    0  0.28507335699E+03  0.14948457519E+03  0.41282340620E+03  0.52999619162E+03  0.82827177541E+02 0.  0.
        254    2    1    2    0    0 -0.28507335699E+03 -0.14948457519E+03  0.26520930035E+04  0.28185654110E+04  0.89838812307E+03 0.  0.
         23    2    4    4    0    0  0.99934226629E+01  0.28770946931E+03  0.38555542767E+03  0.48972669556E+03  0.91118830694E+02 0.  0.
         23    2    4    4    0    0 -0.29506677965E+03 -0.43719404451E+03  0.22665375759E+04  0.23288387155E+04  0.89967454065E+02 0.  0.
          4    1    3    3  502    0  0.29682903481E+02  0.41386520306E+02  0.98005506834E+02  0.11044907511E+03  0.00000000000E+00 0. -1.
         -3    1    3    3    0  502  0.25539045351E+03  0.10809805489E+03  0.31481789937E+03  0.41954711651E+03  0.00000000000E+00 0.  1.
         11    1    5    5    0    0  0.20917567226E+02  0.24644749821E+03  0.26813048339E+03  0.36478469008E+03  0.00000000000E+00 0. -1.
        -11    1    5    5    0    0 -0.10924144564E+02  0.41261971100E+02  0.11742494428E+03  0.12494200548E+03  0.00000000000E+00 0.  1.
          1    1    6    6  503    0 -0.25578059246E+03 -0.31333981890E+03  0.17632968727E+04  0.18090940867E+04  0.00000000000E+00 0. -1.
         -1    1    6    6    0  503 -0.39286187192E+02 -0.12385422560E+03  0.50324070321E+03  0.51974462871E+03  0.00000000000E+00 0.  1.
<mgrwt>
<rscale>  0 0.13487595E+04</rscale>
<asrwt>0</asrwt>
<pdfrwt beam="1">  1        2 0.49334441E+00 0.13487595E+04</pdfrwt>
<pdfrwt beam="2">  1       -1 0.21818863E-01 0.13487595E+04</pdfrwt>
<totfact> 0.25571727E+01</totfact>
</mgrwt>
</event>
<event>
12    6  0.1529770E-007  0.1170265E+04  0.7818608E-02  0.9139289E-01
         -1   -1    0    0    0  501 -0.00000000000E+00  0.00000000000E+00  0.65482327877E+03  0.65482327877E+03  0.00000000000E+00 0.  1.
          2   -1    0    0  501    0  0.00000000000E+00 -0.00000000000E+00 -0.52285885708E+03  0.52285885708E+03  0.00000000000E+00 0. -1.
         24    2    1    2    0    0  0.11244985301E+03 -0.17076073111E+03 -0.12851080479E+03  0.25429729677E+03  0.79673656002E+02 0.  0.
        254    2    1    2    0    0 -0.11244985301E+03  0.17076073111E+03  0.26047522648E+03  0.92338483908E+03  0.86196752880E+03 0.  0.
         23    2    4    4    0    0 -0.32550973662E+03 -0.80309328277E+02  0.42042056643E+03  0.54554724047E+03  0.91990010691E+02 0.  0.
         23    2    4    4    0    0  0.21305988360E+03  0.25107005939E+03 -0.15994533995E+03  0.37783759861E+03  0.93531013200E+02 0.  0.
          4    1    3    3  502    0  0.11601894389E+03 -0.17448905130E+03 -0.11324635821E+03  0.23818388277E+03  0.00000000000E+00 0. -1.
         -3    1    3    3    0  502 -0.35690908722E+01  0.37283201874E+01 -0.15264446583E+02  0.16113413994E+02  0.00000000000E+00 0.  1.
         11    1    5    5    0    0 -0.11365009744E+03 -0.72405382970E+02  0.14450438096E+03  0.19758643741E+03  0.00000000000E+00 0. -1.
        -11    1    5    5    0    0 -0.21185963917E+03 -0.79039453076E+01  0.27591618547E+03  0.34796080306E+03  0.00000000000E+00 0.  1.
          1    1    6    6  503    0  0.39460084882E+02  0.38635978006E+02  0.85472046026E+01  0.55882839960E+02  0.00000000000E+00 0. -1.
         -1    1    6    6    0  503  0.17359979872E+03  0.21243408138E+03 -0.16849254455E+03  0.32195475865E+03  0.00000000000E+00 0.  1.
<mgrwt>
<rscale>  0 0.11702652E+04</rscale>
<asrwt>0</asrwt>
<pdfrwt beam="1">  1        2 0.80439825E-01 0.11702652E+04</pdfrwt>
<pdfrwt beam="2">  1       -1 0.10074204E+00 0.11702652E+04</pdfrwt>
<totfact> 0.61940644E+01</totfact>
</mgrwt>
</event>
<event>
12    6  0.1529770E-007  0.2673213E+04  0.7818608E-02  0.8343749E-01
          2   -1    0    0  501    0  0.00000000000E+00  0.00000000000E+00  0.20504592110E+04  0.20504592110E+04  0.00000000000E+00 0. -1.
         -1   -1    0    0    0  501 -0.00000000000E+00 -0.00000000000E+00 -0.87127662956E+03  0.87127662956E+03  0.00000000000E+00 0.  1.
         24    2    1    2    0    0 -0.27158987587E+02 -0.73536392192E+02 -0.76866574191E+03  0.77674037083E+03  0.79582468603E+02 0.  0.
        254    2    1    2    0    0  0.27158987587E+02  0.73536392192E+02  0.19478483233E+04  0.21449954697E+04  0.89484482609E+03 0.  0.
         23    2    4    4    0    0  0.31320205716E+03  0.33761914456E+03  0.13158061067E+04  0.13970370029E+04  0.91019018953E+02 0.  0.
         23    2    4    4    0    0 -0.28604306957E+03 -0.26408275237E+03  0.63204221667E+03  0.74795846679E+03  0.91674241982E+02 0.  0.
          4    1    3    3  502    0 -0.37193397970E+02 -0.20600512737E+02 -0.15536822859E+03  0.16108077612E+03  0.00000000000E+00 0. -1.
         -3    1    3    3    0  502  0.10034410383E+02 -0.52935879455E+02 -0.61329751331E+03  0.61565959471E+03  0.00000000000E+00 0.  1.
         11    1    5    5    0    0  0.29752776385E+03  0.28576446180E+03  0.12057851627E+04  0.12744025881E+04  0.00000000000E+00 0.  1.
        -11    1    5    5    0    0  0.15674293310E+02  0.51854682760E+02  0.11002094394E+03  0.12263441483E+03  0.00000000000E+00 0. -1.
          4    1    6    6  503    0 -0.71284685849E+02 -0.10933017425E+03  0.26528259871E+03  0.29565089314E+03  0.00000000000E+00 0. -1.
         -4    1    6    6    0  503 -0.21475838372E+03 -0.15475257812E+03  0.36675961796E+03  0.45230757365E+03  0.00000000000E+00 0.  1.
<mgrwt>
<rscale>  0 0.26732132E+04</rscale>
<asrwt>0</asrwt>
<pdfrwt beam="1">  1        2 0.31545526E+00 0.26732132E+04</pdfrwt>
<pdfrwt beam="2">  1       -1 0.13404256E+00 0.26732132E+04</pdfrwt>
<totfact> 0.29383584E+00</totfact>
</mgrwt>
</event>
<event>
12    6  0.1529770E-007  0.1753425E+04  0.7818608E-02  0.8731467E-01
         -1   -1    0    0    0  501 -0.00000000000E+00  0.00000000000E+00  0.39319638023E+03  0.39319638023E+03  0.00000000000E+00 0.  1.
          2   -1    0    0  501    0  0.00000000000E+00 -0.00000000000E+00 -0.19548123370E+04  0.19548123370E+04  0.00000000000E+00 0. -1.
         24    2    1    2    0    0  0.29745785833E+03 -0.16276340054E+03 -0.13209763362E+04  0.13667487597E+04  0.89725077531E+02 0.  0.
        254    2    1    2    0    0 -0.29745785833E+03  0.16276340054E+03 -0.24063962067E+03  0.98125995753E+03  0.88881413984E+03 0.  0.
         23    2    4    4    0    0 -0.26829649935E+03  0.48080038109E+02  0.30270453661E+03  0.41722538351E+03  0.90289991305E+02 0.  0.
         23    2    4    4    0    0 -0.29161358978E+02  0.11468336243E+03 -0.54334415727E+03  0.56403457402E+03  0.94389983448E+02 0.  0.
          2    1    3    3  502    0  0.15444111845E+03 -0.56858972124E+02 -0.48896619474E+03  0.51591951056E+03  0.00000000000E+00 0. -1.
         -1    1    3    3    0  502  0.14301673987E+03 -0.10590442841E+03 -0.83201014141E+03  0.85082924917E+03  0.00000000000E+00 0.  1.
         11    1    5    5    0    0 -0.27247875832E+03  0.50967488275E+02  0.28018524102E+03  0.39413973141E+03  0.00000000000E+00 0. -1.
        -11    1    5    5    0    0  0.41822589674E+01 -0.28874501664E+01  0.22519295593E+02  0.23085652092E+02  0.00000000000E+00 0.  1.
          4    1    6    6  503    0 -0.54566067440E+02  0.71385858631E+02 -0.44076979238E+03  0.44983486570E+03  0.00000000000E+00 0. -1.
         -4    1    6    6    0  503  0.25404708462E+02  0.43297503795E+02 -0.10257436490E+03  0.11419970832E+03  0.00000000000E+00 0.  1.
<mgrwt>
<rscale>  0 0.17534254E+04</rscale>
<asrwt>0</asrwt>
<pdfrwt beam="1">  1        2 0.30074036E+00 0.17534254E+04</pdfrwt>
<pdfrwt beam="2">  1       -1 0.60491750E-01 0.17534254E+04</pdfrwt>
<totfact> 0.21172764E+01</totfact>
</mgrwt>
</event>
<event>
12    6  0.1529770E-007  0.1855550E+04  0.7818608E-02  0.8677304E-01
         -1   -1    0    0    0  501 -0.00000000000E+00  0.00000000000E+00  0.10624983325E+04  0.10624983325E+04  0.00000000000E+00 0.  1.
          2   -1    0    0  501    0  0.00000000000E+00 -0.00000000000E+00 -0.81013432225E+03  0.81013432225E+03  0.00000000000E+00 0. -1.
         24    2    1    2    0    0 -0.42540500257E+03  0.29170326492E+03 -0.39568260674E+03  0.65491102040E+03  0.79268583824E+02 0.  0.
        254    2    1    2    0    0  0.42540500257E+03 -0.29170326492E+03  0.64804661703E+03  0.12177216344E+04  0.89264850307E+03 0.  0.
         23    2    4    4    0    0  0.68735056408E+03 -0.26326922026E+03  0.54693622017E+03  0.92153852471E+03  0.91282765671E+02 0.  0.
         23    2    4    4    0    0 -0.26194556150E+03 -0.28434044654E+02  0.10111039686E+03  0.29618310969E+03  0.89872966029E+02 0.  0.
          2    1    3    3  502    0 -0.30662174610E+03  0.21551307378E+03 -0.32955026233E+03  0.49906528186E+03  0.00000000000E+00 0. -1.
         -1    1    3    3    0  502 -0.11878325647E+03  0.76190191137E+02 -0.66132344409E+02  0.15584573854E+03  0.00000000000E+00 0.  1.
         11    1    5    5    0    0  0.44009427515E+03 -0.13935295914E+03  0.29818792750E+03  0.54956187855E+03  0.00000000000E+00 0. -1.
        -11    1    5    5    0    0  0.24725628892E+03 -0.12391626112E+03  0.24874829267E+03  0.37197664616E+03  0.00000000000E+00 0.  1.
          1    1    6    6  503    0 -0.25277067782E+03 -0.46235065522E+02  0.10115252180E+03  0.27615671188E+03  0.00000000000E+00 0. -1.
         -1    1    6    6    0  503 -0.91748836787E+01  0.17801020868E+02 -0.42124936386E-01  0.20026397803E+02  0.00000000000E+00 0.  1.
<mgrwt>
<rscale>  0 0.18555499E+04</rscale>
<asrwt>0</asrwt>
<pdfrwt beam="1">  1        2 0.12463605E+00 0.18555499E+04</pdfrwt>
<pdfrwt beam="2">  1       -1 0.16346128E+00 0.18555499E+04</pdfrwt>
<totfact> 0.99995157E+00</totfact>
</mgrwt>
</event>
<event>
12    6  0.1529770E-007  0.3407822E+04  0.7818608E-02  0.8135989E-01
         -1   -1    0    0    0  501 -0.00000000000E+00  0.00000000000E+00  0.10141365400E+04  0.10141365400E+04  0.00000000000E+00 0.  1.
          2   -1    0    0  501    0  0.00000000000E+00 -0.00000000000E+00 -0.28628413706E+04  0.28628413706E+04  0.00000000000E+00 0. -1.
         24    2    1    2    0    0  0.13831353641E+04  0.34258902350E+03 -0.77652054324E+02  0.14294536365E+04  0.82928781397E+02 0.  0.
        254    2    1    2    0    0 -0.13831353641E+04 -0.34258902350E+03 -0.17710527763E+04  0.24475242742E+04  0.90736787568E+03 0.  0.
         23    2    4    4    0    0 -0.40945855914E+03 -0.17966886696E+03 -0.45293398156E+02  0.45725751974E+03  0.84236180085E+02 0.  0.
         23    2    4    4    0    0 -0.97367680499E+03 -0.16292015654E+03 -0.17257593781E+04  0.19902667545E+04  0.91251436499E+02 0.  0.
          4    1    3    3  502    0  0.43407576811E+03  0.77518501313E+02 -0.48979903592E+02  0.44365518307E+03  0.00000000000E+00 0. -1.
         -3    1    3    3    0  502  0.94905959602E+03  0.26507052219E+03 -0.28672150732E+02  0.98579845341E+03  0.00000000000E+00 0.  1.
         11    1    5    5    0    0 -0.33199431364E+03 -0.11657543133E+03 -0.12437685720E+02  0.35208628418E+03  0.00000000000E+00 0.  1.
        -11    1    5    5    0    0 -0.77464245493E+02 -0.63093435625E+02 -0.32855712436E+02  0.10517123556E+03  0.00000000000E+00 0. -1.
          1    1    6    6  503    0 -0.19101067883E+03 -0.61679248654E+02 -0.39571048952E+03  0.44370733672E+03  0.00000000000E+00 0. -1.
         -1    1    6    6    0  503 -0.78266612615E+03 -0.10124090789E+03 -0.13300488886E+04  0.15465594177E+04  0.00000000000E+00 0.  1.
<mgrwt>
<rscale>  0 0.34078216E+04</rscale>
<asrwt>0</asrwt>
<pdfrwt beam="1">  1        2 0.44043713E+00 0.34078216E+04</pdfrwt>
<pdfrwt beam="2">  1       -1 0.15602101E+00 0.34078216E+04</pdfrwt>
<totfact> 0.62372205E-01</totfact>
</mgrwt>
</event>
<event>
12    6  0.1529770E-007  0.2525805E+04  0.7818608E-02  0.8393849E-01
         -1   -1    0    0    0  501 -0.00000000000E+00  0.00000000000E+00  0.11252835796E+04  0.11252835796E+04  0.00000000000E+00 0.  1.
          2   -1    0    0  501    0  0.00000000000E+00 -0.00000000000E+00 -0.14173522922E+04  0.14173522922E+04  0.00000000000E+00 0. -1.
         24    2    1    2    0    0  0.17076316096E+03 -0.10902642963E+04 -0.14854539070E+03  0.11161172316E+04  0.76260400069E+02 0.  0.
        254    2    1    2    0    0 -0.17076316096E+03  0.10902642963E+04 -0.14352332184E+03  0.14265186401E+04  0.89247980018E+03 0.  0.
         23    2    4    4    0    0 -0.23747294660E+02  0.12444029007E+03  0.30893121996E+03  0.34600387758E+03  0.90724113884E+02 0.  0.
         23    2    4    4    0    0 -0.14701586630E+03  0.96582400627E+03 -0.45245454180E+03  0.10805147626E+04  0.91473294878E+02 0.  0.
          4    1    3    3  502    0  0.10372751245E+03 -0.56919253612E+03 -0.11341202857E+03  0.58957766938E+03  0.00000000000E+00 0. -1.
         -3    1    3    3    0  502  0.67035648508E+02 -0.52107176022E+03 -0.35133362135E+02  0.52653956224E+03  0.00000000000E+00 0.  1.
         11    1    5    5    0    0 -0.49657711411E+02  0.63602446009E+02  0.11036876620E+03  0.13672023988E+03  0.00000000000E+00 0. -1.
        -11    1    5    5    0    0  0.25910416751E+02  0.60837844063E+02  0.19856245376E+03  0.20928363770E+03  0.00000000000E+00 0.  1.
          2    1    6    6  503    0 -0.14951158696E+03  0.79290617714E+03 -0.39425461708E+03  0.89804823004E+03  0.00000000000E+00 0.  1.
         -2    1    6    6    0  503  0.24957206611E+01  0.17291782913E+03 -0.58199924720E+02  0.18246653252E+03  0.00000000000E+00 0. -1.
<mgrwt>
<rscale>  0 0.25258054E+04</rscale>
<asrwt>0</asrwt>
<pdfrwt beam="1">  1        2 0.21805420E+00 0.25258054E+04</pdfrwt>
<pdfrwt beam="2">  1       -1 0.17312055E+00 0.25258054E+04</pdfrwt>
<totfact> 0.33475648E+00</totfact>
</mgrwt>
</event>
<event>
12    6  0.1529770E-007  0.2294214E+04  0.7818608E-02  0.8480206E-01
          2   -1    0    0  501    0  0.00000000000E+00  0.00000000000E+00  0.29144699795E+04  0.29144699795E+04  0.00000000000E+00 0. -1.
         -1   -1    0    0    0  501 -0.00000000000E+00 -0.00000000000E+00 -0.45148995329E+03  0.45148995329E+03  0.00000000000E+00 0.  1.
         24    2    1    2    0    0 -0.71159276934E+03  0.22414585601E+03  0.14515184651E+03  0.76437743694E+03  0.81229141422E+02 0.  0.
        254    2    1    2    0    0  0.71159276934E+03 -0.22414585601E+03  0.23178281797E+04  0.26015824958E+04  0.91613229282E+03 0.  0.
         23    2    4    4    0    0  0.82981190472E+03  0.35948163138E+02  0.13455244806E+04  0.15840125859E+04  0.93699928062E+02 0.  0.
         23    2    4    4    0    0 -0.11821913538E+03 -0.26009401915E+03  0.97230369907E+03  0.10175699100E+04  0.91920485948E+02 0.  0.
          2    1    3    3  502    0 -0.44897391041E+02  0.35072049169E+02  0.36364268853E+01  0.57088071922E+02  0.00000000000E+00 0. -1.
         -1    1    3    3    0  502 -0.66669537829E+03  0.18907380684E+03  0.14151541963E+03  0.70728936502E+03  0.00000000000E+00 0.  1.
         11    1    5    5    0    0  0.54597078321E+03  0.14952877595E+02  0.96470746212E+03  0.11085883691E+04  0.00000000000E+00 0. -1.
        -11    1    5    5    0    0  0.28384112151E+03  0.20995285543E+02  0.38081701852E+03  0.47542421675E+03  0.00000000000E+00 0.  1.
          3    1    6    6  503    0 -0.37611799378E+02 -0.12381694089E+02  0.12361718993E+03  0.12980432754E+03  0.00000000000E+00 0. -1.
         -3    1    6    6    0  503 -0.80607336005E+02 -0.24771232506E+03  0.84868650913E+03  0.88776558245E+03  0.00000000000E+00 0.  1.
<mgrwt>
<rscale>  0 0.22942135E+04</rscale>
<asrwt>0</asrwt>
<pdfrwt beam="1">  1        2 0.44837998E+00 0.22942135E+04</pdfrwt>
<pdfrwt beam="2">  1       -1 0.69459995E-01 0.22942135E+04</pdfrwt>
<totfact> 0.42603995E+00</totfact>
</mgrwt>
</event>
<event>
12    6  0.1529770E-007  0.2111860E+04  0.7818608E-02  0.8556037E-01
          2   -1    0    0  501    0  0.00000000000E+00  0.00000000000E+00  0.63222424244E+03  0.63222424244E+03  0.00000000000E+00 0. -1.
         -1   -1    0    0    0  501 -0.00000000000E+00 -0.00000000000E+00 -0.17635954820E+04  0.17635954820E+04  0.00000000000E+00 0.  1.
         24    2    1    2    0    0 -0.77570680333E+02  0.15940580957E+03  0.51257771095E+03  0.54824177584E+03  0.80035694781E+02 0.  0.
        254    2    1    2    0    0  0.77570680333E+02 -0.15940580957E+03 -0.16439489505E+04  0.18475779486E+04  0.82434743994E+03 0.  0.
         23    2    4    4    0    0  0.12067202770E+03  0.31744849231E+03 -0.62005028320E+03  0.71291653049E+03  0.91936620651E+02 0.  0.
         23    2    4    4    0    0 -0.43101347365E+02 -0.47685430189E+03 -0.10238986673E+04  0.11346614181E+04  0.99198293643E+02 0.  0.
          4    1    3    3  502    0 -0.46393658908E+02  0.90016096061E+02  0.39820933056E+03  0.41088433906E+03  0.00000000000E+00 0. -1.
         -3    1    3    3    0  502 -0.31177021425E+02  0.69389713512E+02  0.11436838039E+03  0.13735743678E+03  0.00000000000E+00 0.  1.
         11    1    5    5    0    0  0.10558103207E+03  0.15279658360E+03 -0.30446893111E+03  0.35664475365E+03  0.00000000000E+00 0. -1.
        -11    1    5    5    0    0  0.15090995628E+02  0.16465190871E+03 -0.31558135208E+03  0.35627177684E+03  0.00000000000E+00 0.  1.
          3    1    6    6  503    0 -0.70696289249E+01 -0.45112598585E+02 -0.44698485092E+02  0.63898988832E+02  0.00000000000E+00 0. -1.
         -3    1    6    6    0  503 -0.36031718440E+02 -0.43174170330E+03 -0.97920018220E+03  0.10707624293E+04  0.00000000000E+00 0.  1.
<mgrwt>
<rscale>  0 0.21118597E+04</rscale>
<asrwt>0</asrwt>
<pdfrwt beam="1">  1        2 0.97265271E-01 0.21118597E+04</pdfrwt>
<pdfrwt beam="2">  1       -1 0.27132237E+00 0.21118597E+04</pdfrwt>
<totfact> 0.24777183E+00</totfact>
</mgrwt>
</event>
<event>
12    6  0.1529770E-007  0.3405302E+04  0.7818608E-02  0.8136606E-01
         -1   -1    0    0    0  501 -0.00000000000E+00  0.00000000000E+00  0.79073887238E+03  0.79073887238E+03  0.00000000000E+00 0.  1.
          2   -1    0    0  501    0  0.00000000000E+00 -0.00000000000E+00 -0.36662168184E+04  0.36662168184E+04  0.00000000000E+00 0. -1.
         24    2    1    2    0    0 -0.65751240113E+03 -0.11344330506E+04 -0.25406566063E+04  0.28602120260E+04  0.81338420730E+02 0.  0.
        254    2    1    2    0    0  0.65751240113E+03  0.11344330506E+04 -0.33482133971E+03  0.15967436648E+04  0.84748103075E+03 0.  0.
         23    2    4    4    0    0 -0.23888827967E+02  0.35379735659E+03  0.21032952245E+03  0.42203768633E+03  0.90188996189E+02 0.  0.
         23    2    4    4    0    0  0.68140122910E+03  0.78063569400E+03 -0.54515086216E+03  0.11747059784E+04  0.95104949755E+02 0.  0.
          2    1    3    3  502    0 -0.62685502479E+03 -0.10576107797E+04 -0.23435309463E+04  0.26464362980E+04  0.00000000000E+00 0. -1.
         -1    1    3    3    0  502 -0.30657376337E+02 -0.76822270933E+02 -0.19712566003E+03  0.21377572799E+03  0.00000000000E+00 0.  1.
         11    1    5    5    0    0 -0.13470317748E+02  0.14642359242E+03  0.37153263103E+02  0.15166305693E+03  0.00000000000E+00 0.  1.
        -11    1    5    5    0    0 -0.10418510220E+02  0.20737376417E+03  0.17317625935E+03  0.27037462940E+03  0.00000000000E+00 0. -1.
          2    1    6    6  503    0  0.87352082162E+02  0.13050651011E+03 -0.52336181989E+02  0.16553371676E+03  0.00000000000E+00 0.  1.
         -2    1    6    6    0  503  0.59404914694E+03  0.65012918389E+03 -0.49281468017E+03  0.10091722617E+04  0.00000000000E+00 0. -1.
<mgrwt>
<rscale>  0 0.34053018E+04</rscale>
<asrwt>0</asrwt>
<pdfrwt beam="1">  1        2 0.56403336E+00 0.34053018E+04</pdfrwt>
<pdfrwt beam="2">  1       -1 0.12165213E+00 0.34053018E+04</pdfrwt>
<totfact> 0.34716894E-01</totfact>
</mgrwt>
</event>
<event>
12    6  0.1529770E-007  0.2211046E+04  0.7818608E-02  0.8513845E-01
         -1   -1    0    0    0  501 -0.00000000000E+00  0.00000000000E+00  0.13448263293E+04  0.13448263293E+04  0.00000000000E+00 0.  1.
          2   -1    0    0  501    0  0.00000000000E+00 -0.00000000000E+00 -0.90880184304E+03  0.90880184304E+03  0.00000000000E+00 0. -1.
         24    2    1    2    0    0 -0.26545602465E+03 -0.71391306420E+03 -0.35204038579E+03  0.84277983062E+03  0.78782265809E+02 0.  0.
        254    2    1    2    0    0  0.26545602465E+03  0.71391306420E+03  0.78806487209E+03  0.14108483418E+04  0.88843009662E+03 0.  0.
         23    2    4    4    0    0  0.64846630424E+02  0.14328295141E+03 -0.18587236064E+03  0.26071421994E+03  0.93210945654E+02 0.  0.
         23    2    4    4    0    0  0.20060939422E+03  0.57063011280E+03  0.97393723273E+03  0.11501341218E+04  0.91607369777E+02 0.  0.
          4    1    3    3  502    0 -0.25070353030E+03 -0.62402911024E+03 -0.32978163148E+03  0.74901302725E+03  0.00000000000E+00 0. -1.
         -3    1    3    3    0  502 -0.14752494348E+02 -0.89883953967E+02 -0.22258754304E+02  0.93766803366E+02  0.00000000000E+00 0.  1.
         11    1    5    5    0    0  0.49215980769E+02  0.14121600725E+03 -0.19237060120E+03  0.24366087432E+03  0.00000000000E+00 0. -1.
        -11    1    5    5    0    0  0.15630649655E+02  0.20669441503E+01  0.64982405553E+01  0.17053345627E+02  0.00000000000E+00 0.  1.
          2    1    6    6  503    0  0.13859022775E+03  0.26072286595E+03  0.44857286442E+03  0.53703005386E+03  0.00000000000E+00 0. -1.
         -2    1    6    6    0  503  0.62019166476E+02  0.30990724685E+03  0.52536436831E+03  0.61310406796E+03  0.00000000000E+00 0.  1.
<mgrwt>
<rscale>  0 0.22110456E+04</rscale>
<asrwt>0</asrwt>
<pdfrwt beam="1">  1        2 0.13981567E+00 0.22110456E+04</pdfrwt>
<pdfrwt beam="2">  1       -1 0.20689636E+00 0.22110456E+04</pdfrwt>
<totfact> 0.40659570E+00</totfact>
</mgrwt>
</event>
<event>
12    6  0.1529770E-007  0.1772666E+04  0.7818608E-02  0.8720972E-01
          2   -1    0    0  501    0  0.00000000000E+00  0.00000000000E+00  0.20392067073E+04  0.20392067073E+04  0.00000000000E+00 0. -1.
         -1   -1    0    0    0  501 -0.00000000000E+00 -0.00000000000E+00 -0.38524097939E+03  0.38524097939E+03  0.00000000000E+00 0.  1.
         24    2    1    2    0    0  0.22794926974E+02 -0.59139512936E+03  0.10027441274E+04  0.11684831916E+04  0.97925360300E+02 0.  0.
        254    2    1    2    0    0 -0.22794926974E+02  0.59139512936E+03  0.65122160053E+03  0.12559644951E+04  0.89615257202E+03 0.  0.
         23    2    4    4    0    0 -0.37985557956E+02  0.64246116571E+03  0.82727151912E+03  0.10522245877E+04  0.92731680418E+02 0.  0.
         23    2    4    4    0    0  0.15190630982E+02 -0.51066036347E+02 -0.17604991859E+03  0.20373990745E+03  0.87623516884E+02 0.  0.
          4    1    3    3  502    0  0.29451597233E+02 -0.20049497972E+03  0.26559244712E+03  0.33407331746E+03  0.00000000000E+00 0. -1.
         -3    1    3    3    0  502 -0.66566702586E+01 -0.39090014964E+03  0.73715168029E+03  0.83440987411E+03  0.00000000000E+00 0.  1.
         11    1    5    5    0    0 -0.21165003217E+02  0.32462094133E+03  0.49301798112E+03  0.59067202627E+03  0.00000000000E+00 0.  1.
        -11    1    5    5    0    0 -0.16820554738E+02  0.31784022438E+03  0.33425353800E+03  0.46155256143E+03  0.00000000000E+00 0. -1.
          1    1    6    6  503    0  0.27394351818E+02 -0.57465466582E+02 -0.17870592461E+03  0.18970645179E+03  0.00000000000E+00 0. -1.
         -1    1    6    6    0  503 -0.12203720837E+02  0.63994302346E+01  0.26560060168E+01  0.14033455652E+02  0.00000000000E+00 0.  1.
<mgrwt>
<rscale>  0 0.17726658E+04</rscale>
<asrwt>0</asrwt>
<pdfrwt beam="1">  1        2 0.31372410E+00 0.17726658E+04</pdfrwt>
<pdfrwt beam="2">  1       -1 0.59267844E-01 0.17726658E+04</pdfrwt>
<totfact> 0.19757620E+01</totfact>
</mgrwt>
</event>
<event>
12    6  0.1529770E-007  0.1448814E+04  0.7818608E-02  0.8919223E-01
          2   -1    0    0  501    0  0.00000000000E+00  0.00000000000E+00  0.10036791968E+04  0.10036791968E+04  0.00000000000E+00 0. -1.
         -1   -1    0    0    0  501 -0.00000000000E+00 -0.00000000000E+00 -0.52284206105E+03  0.52284206105E+03  0.00000000000E+00 0.  1.
         24    2    1    2    0    0 -0.87207743152E+02  0.22807777616E+03 -0.23711907612E+03  0.35095358947E+03  0.85547082127E+02 0.  0.
        254    2    1    2    0    0  0.87207743152E+02 -0.22807777616E+03  0.71795621188E+03  0.11755676684E+04  0.89826140868E+03 0.  0.
         23    2    4    4    0    0  0.52836292969E+02 -0.46910465766E+03  0.80202792045E+02  0.48715755138E+03  0.89661242003E+02 0.  0.
         23    2    4    4    0    0  0.34371450184E+02  0.24102688150E+03  0.63775341984E+03  0.68841011700E+03  0.88902814845E+02 0.  0.
          4    1    3    3  502    0 -0.29800997404E+02  0.92659015879E+02 -0.40537384022E+02  0.10543752735E+03  0.00000000000E+00 0. -1.
         -3    1    3    3    0  502 -0.57406745748E+02  0.13541876028E+03 -0.19658169210E+03  0.24551606213E+03  0.00000000000E+00 0.  1.
         11    1    5    5    0    0  0.62930390424E+02 -0.39235110596E+03  0.94465594589E+02  0.40844017059E+03  0.00000000000E+00 0. -1.
        -11    1    5    5    0    0 -0.10094097455E+02 -0.76753551700E+02 -0.14262802545E+02  0.78717380790E+02  0.00000000000E+00 0.  1.
          4    1    6    6  503    0  0.95986781109E+01  0.10377288436E+03  0.16193382765E+03  0.19257079396E+03  0.00000000000E+00 0. -1.
         -4    1    6    6    0  503  0.24772772073E+02  0.13725399714E+03  0.47581959219E+03  0.49583932304E+03  0.00000000000E+00 0.  1.
<mgrwt>
<rscale>  0 0.14488143E+04</rscale>
<asrwt>0</asrwt>
<pdfrwt beam="1">  1        2 0.15441218E+00 0.14488143E+04</pdfrwt>
<pdfrwt beam="2">  1       -1 0.80437240E-01 0.14488143E+04</pdfrwt>
<totfact> 0.42750067E+01</totfact>
</mgrwt>
</event>
<event>
12    6  0.2597140E-007  0.2389730E+04  0.7818608E-02  0.8443359E-01
         -1   -1    0    0    0  501 -0.00000000000E+00  0.00000000000E+00  0.84005028503E+03  0.84005028503E+03  0.00000000000E+00 0.  1.
          2   -1    0    0  501    0  0.00000000000E+00 -0.00000000000E+00 -0.16995436925E+04  0.16995436925E+04  0.00000000000E+00 0. -1.
         24    2    1    2    0    0 -0.32015862644E+03  0.64116924419E+03 -0.11451512230E+04  0.13533195955E+04  0.80641542074E+02 0.  0.
        254    2    1    2    0    0  0.32015862644E+03 -0.64116924419E+03  0.28565781553E+03  0.11862743820E+04  0.90113649135E+03 0.  0.
         23    2    4    4    0    0  0.55314126230E+03 -0.31277766047E+03  0.40218831359E+03  0.75749711267E+03  0.90836750052E+02 0.  0.
         23    2    4    4    0    0 -0.23298263586E+03 -0.32839158372E+03 -0.11653049806E+03  0.42877726933E+03  0.90269866796E+02 0.  0.
          4    1    3    3  502    0 -0.32424387885E+03  0.63606766824E+03 -0.11394738591E+04  0.13446623543E+04  0.00000000000E+00 0. -1.
         -3    1    3    3    0  502  0.40852524105E+01  0.51015759550E+01 -0.56773639145E+01  0.86572412176E+01  0.00000000000E+00 0.  1.
         11    1    5    5    0    0  0.53384247769E+03 -0.30279099418E+03  0.40538745658E+03  0.73553325356E+03  0.00000000000E+00 0. -1.
        -11    1    5    5    0    0  0.19298784610E+02 -0.99866662995E+01 -0.31991429841E+01  0.21963859111E+02  0.00000000000E+00 0.  1.
          4    1    6    6  503    0 -0.23637759306E+03 -0.33208513814E+03 -0.11520365685E+03  0.42358799325E+03  0.00000000000E+00 0. -1.
         -4    1    6    6    0  503  0.33949571982E+01  0.36935544253E+01 -0.13268412118E+01  0.51892760836E+01  0.00000000000E+00 0.  1.
<mgrwt>
<rscale>  0 0.23897298E+04</rscale>
<asrwt>0</asrwt>
<pdfrwt beam="1">  1        2 0.26146826E+00 0.23897298E+04</pdfrwt>
<pdfrwt beam="2">  1       -1 0.12923851E+00 0.23897298E+04</pdfrwt>
<totfact> 0.51757832E+00</totfact>
</mgrwt>
</event>
<event>
12    6  0.1529770E-007  0.1731282E+04  0.7818608E-02  0.8743721E-01
          4   -1    0    0  501    0  0.00000000000E+00  0.00000000000E+00  0.12598453513E+04  0.12598453513E+04  0.00000000000E+00 0. -1.
         -3   -1    0    0    0  501 -0.00000000000E+00 -0.00000000000E+00 -0.59478310425E+03  0.59478310425E+03  0.00000000000E+00 0.  1.
         24    2    1    2    0    0  0.21991432964E+03  0.29094186912E+03  0.78959062769E+03  0.87306223400E+03  0.75992246378E+02 0.  0.
        254    2    1    2    0    0 -0.21991432964E+03 -0.29094186912E+03 -0.12452838060E+03  0.98156622159E+03  0.90274882786E+03 0.  0.
         23    2    4    4    0    0 -0.34223464322E+02 -0.75860610944E+02 -0.49305799733E+03  0.50704490497E+03  0.84037307936E+02 0.  0.
         23    2    4    4    0    0 -0.18569086532E+03 -0.21508125818E+03  0.36852961673E+03  0.47452131662E+03  0.92818944340E+02 0.  0.
          2    1    3    3  502    0  0.12737423039E+03  0.18313236464E+03  0.56334634961E+03  0.60590491594E+03  0.00000000000E+00 0. -1.
         -1    1    3    3    0  502  0.92540099255E+02  0.10780950449E+03  0.22624427808E+03  0.26715731806E+03  0.00000000000E+00 0.  1.
         11    1    5    5    0    0  0.17851706477E+02 -0.47104994090E+02 -0.13526675936E+03  0.14434216321E+03  0.00000000000E+00 0. -1.
        -11    1    5    5    0    0 -0.52075170799E+02 -0.28755616854E+02 -0.35779123797E+03  0.36270274176E+03  0.00000000000E+00 0.  1.
          4    1    6    6  503    0 -0.99808876487E+02 -0.57104951732E+02  0.10652103093E+03  0.15674666621E+03  0.00000000000E+00 0. -1.
         -4    1    6    6    0  503 -0.85881988835E+02 -0.15797630645E+03  0.26200858580E+03  0.31777465040E+03  0.00000000000E+00 0.  1.
<mgrwt>
<rscale>  0 0.17312824E+04</rscale>
<asrwt>0</asrwt>
<pdfrwt beam="1">  1        4 0.19382236E+00 0.17312824E+04</pdfrwt>
<pdfrwt beam="2">  1       -3 0.91505093E-01 0.17312824E+04</pdfrwt>
<totfact> 0.33672066E-01</totfact>
</mgrwt>
</event>
<event>
12    6  0.1529770E-007  0.2551312E+04  0.7818608E-02  0.8384930E-01
         -1   -1    0    0    0  501 -0.00000000000E+00  0.00000000000E+00  0.94540220630E+03  0.94540220630E+03  0.00000000000E+00 0.  1.
          2   -1    0    0  501    0  0.00000000000E+00 -0.00000000000E+00 -0.17212754853E+04  0.17212754853E+04  0.00000000000E+00 0. -1.
         24    2    1    2    0    0 -0.46140092794E+03 -0.20017753027E+03  0.70014501963E+03  0.86600739441E+03  0.82485748675E+02 0.  0.
        254    2    1    2    0    0  0.46140092794E+03  0.20017753027E+03 -0.14760182986E+04  0.18006702972E+04  0.90045635172E+03 0.  0.
         23    2    4    4    0    0  0.33916318945E+03  0.37260722861E+03 -0.14850243372E+04  0.15704348282E+04  0.84264177386E+02 0.  0.
         23    2    4    4    0    0  0.12223773849E+03 -0.17242969834E+03  0.90060385879E+01  0.23023546899E+03  0.90847107104E+02 0.  0.
          4    1    3    3  502    0 -0.98168452492E+01  0.32529539196E+01  0.36364690794E+02  0.37806651484E+02  0.00000000000E+00 0. -1.
         -3    1    3    3    0  502 -0.45158408269E+03 -0.20343048419E+03  0.66378032883E+03  0.82820074293E+03  0.00000000000E+00 0.  1.
         11    1    5    5    0    0  0.21794559406E+03  0.18145936670E+03 -0.77904389234E+03  0.82905800155E+03  0.00000000000E+00 0. -1.
        -11    1    5    5    0    0  0.12121759539E+03  0.19114786191E+03 -0.70598044486E+03  0.74137682664E+03  0.00000000000E+00 0.  1.
          1    1    6    6  503    0  0.62193343434E+02 -0.12235249243E+03  0.44616507308E+02  0.14432178317E+03  0.00000000000E+00 0. -1.
         -1    1    6    6    0  503  0.60044395059E+02 -0.50077205906E+02 -0.35610468720E+02  0.85913685824E+02  0.00000000000E+00 0.  1.
<mgrwt>
<rscale>  0 0.25513115E+04</rscale>
<asrwt>0</asrwt>
<pdfrwt beam="1">  1        2 0.26481161E+00 0.25513115E+04</pdfrwt>
<pdfrwt beam="2">  1       -1 0.14544650E+00 0.25513115E+04</pdfrwt>
<totfact> 0.36566136E+00</totfact>
</mgrwt>
</event>
<event>
12    6  0.1529770E-007  0.1684526E+04  0.7818608E-02  0.8770240E-01
          2   -1    0    0  501    0  0.00000000000E+00  0.00000000000E+00  0.83299919024E+03  0.83299919024E+03  0.00000000000E+00 0. -1.
         -1   -1    0    0    0  501 -0.00000000000E+00 -0.00000000000E+00 -0.85162937616E+03  0.85162937616E+03  0.00000000000E+00 0.  1.
         24    2    1    2    0    0 -0.29324393221E+03 -0.45660363276E+03  0.26293257658E+03  0.60827428109E+03  0.79907321249E+02 0.  0.
        254    2    1    2    0    0  0.29324393221E+03  0.45660363276E+03 -0.28156276250E+03  0.10763542853E+04  0.88587926777E+03 0.  0.
         23    2    4    4    0    0  0.16652569538E+02 -0.66952480994E+02 -0.44216005409E+03  0.45625242482E+03  0.88886550911E+02 0.  0.
         23    2    4    4    0    0  0.27659136267E+03  0.52355611375E+03  0.16059729160E+03  0.62010186049E+03  0.90116819559E+02 0.  0.
          2    1    3    3  502    0 -0.24714023017E+03 -0.36596584256E+03  0.17929817740E+03  0.47661003736E+03  0.00000000000E+00 0. -1.
         -1    1    3    3    0  502 -0.46103702042E+02 -0.90637790192E+02  0.83634399173E+02  0.13166424373E+03  0.00000000000E+00 0.  1.
         11    1    5    5    0    0  0.30446145397E+02 -0.83234205668E+02 -0.31156167118E+03  0.32392217539E+03  0.00000000000E+00 0.  1.
        -11    1    5    5    0    0 -0.13793575859E+02  0.16281724674E+02 -0.13059838291E+03  0.13233024943E+03  0.00000000000E+00 0. -1.
          4    1    6    6  503    0  0.21001362102E+03  0.32892797679E+03  0.75487571650E+02  0.39748925571E+03  0.00000000000E+00 0. -1.
         -4    1    6    6    0  503  0.66577741655E+02  0.19462813696E+03  0.85109719946E+02  0.22261260478E+03  0.00000000000E+00 0.  1.
<mgrwt>
<rscale>  0 0.16845255E+04</rscale>
<asrwt>0</asrwt>
<pdfrwt beam="1">  1        2 0.12815372E+00 0.16845255E+04</pdfrwt>
<pdfrwt beam="2">  1       -1 0.13101990E+00 0.16845255E+04</pdfrwt>
<totfact> 0.17643007E+01</totfact>
</mgrwt>
</event>
<event>
12    6  0.1529770E-007  0.1435983E+04  0.7818608E-02  0.8928177E-01
         -1   -1    0    0    0  501 -0.00000000000E+00  0.00000000000E+00  0.20693239821E+03  0.20693239821E+03  0.00000000000E+00 0.  1.
          2   -1    0    0  501    0  0.00000000000E+00 -0.00000000000E+00 -0.24912077162E+04  0.24912077162E+04  0.00000000000E+00 0. -1.
         24    2    1    2    0    0  0.34690655439E+03 -0.88798363141E+02 -0.11019704051E+04  0.11614901116E+04  0.80567977163E+02 0.  0.
        254    2    1    2    0    0 -0.34690655439E+03  0.88798363141E+02 -0.11823049129E+04  0.15366500028E+04  0.91390317714E+03 0.  0.
         23    2    4    4    0    0  0.92897544492E+02  0.27340537418E+03 -0.53282438265E+02  0.30750431511E+03  0.91320497050E+02 0.  0.
         23    2    4    4    0    0 -0.43980409888E+03 -0.18460701104E+03 -0.11290224747E+04  0.12291456877E+04  0.92736073648E+02 0.  0.
          2    1    3    3  502    0  0.28457084474E+03 -0.44163628829E+02 -0.81193549308E+03  0.86149302766E+03  0.00000000000E+00 0. -1.
         -1    1    3    3    0  502  0.62335709648E+02 -0.44634734312E+02 -0.29003491198E+03  0.29999708394E+03  0.00000000000E+00 0.  1.
         11    1    5    5    0    0  0.43155957981E+02  0.11297626464E+03  0.22873508474E+02  0.12308237270E+03  0.00000000000E+00 0.  1.
        -11    1    5    5    0    0  0.49741586511E+02  0.16042910954E+03 -0.76155946739E+02  0.18442194241E+03  0.00000000000E+00 0. -1.
          1    1    6    6  503    0 -0.39673579358E+03 -0.17208970302E+03 -0.93738444999E+03  0.10323292899E+04  0.00000000000E+00 0. -1.
         -1    1    6    6    0  503 -0.43068305304E+02 -0.12517308017E+02 -0.19163802466E+03  0.19681639774E+03  0.00000000000E+00 0.  1.
<mgrwt>
<rscale>  0 0.14359827E+04</rscale>
<asrwt>0</asrwt>
<pdfrwt beam="1">  1        2 0.38326272E+00 0.14359827E+04</pdfrwt>
<pdfrwt beam="2">  1       -1 0.31835754E-01 0.14359827E+04</pdfrwt>
<totfact> 0.35898880E+01</totfact>
</mgrwt>
</event>
<event>
12    6  0.1529770E-007  0.1178117E+04  0.7818608E-02  0.9132229E-01
          2   -1    0    0  501    0  0.00000000000E+00  0.00000000000E+00  0.39152728720E+03  0.39152728720E+03  0.00000000000E+00 0. -1.
         -1   -1    0    0    0  501 -0.00000000000E+00 -0.00000000000E+00 -0.88624760281E+03  0.88624760281E+03  0.00000000000E+00 0.  1.
         24    2    1    2    0    0 -0.37377911493E+02 -0.18795568949E+03 -0.26972369952E+03  0.34064592685E+03  0.81020515406E+02 0.  0.
        254    2    1    2    0    0  0.37377911493E+02  0.18795568949E+03 -0.22499661609E+03  0.93712896316E+03  0.88930465357E+03 0.  0.
         23    2    4    4    0    0  0.42233466874E+03 -0.58948770180E+02 -0.16745154749E+03  0.46716704657E+03  0.91452166303E+02 0.  0.
         23    2    4    4    0    0 -0.38495675725E+03  0.24690445967E+03 -0.57545068601E+02  0.46996191659E+03  0.91647427516E+02 0.  0.
          2    1    3    3  502    0  0.19485978854E+02 -0.11698307487E+02 -0.33353657736E+02  0.40361123056E+02  0.00000000000E+00 0. -1.
         -1    1    3    3    0  502 -0.56863890347E+02 -0.17625738201E+03 -0.23637004178E+03  0.30028480379E+03  0.00000000000E+00 0.  1.
         11    1    5    5    0    0  0.20776764374E+03  0.13853845640E+02 -0.98318196887E+02  0.23027329559E+03  0.00000000000E+00 0. -1.
        -11    1    5    5    0    0  0.21456702500E+03 -0.72802615820E+02 -0.69133350602E+02  0.23689375098E+03  0.00000000000E+00 0.  1.
          1    1    6    6  503    0 -0.31142463885E+03  0.18508909243E+03 -0.80684480150E+02  0.37115126721E+03  0.00000000000E+00 0. -1.
         -1    1    6    6    0  503 -0.73532118400E+02  0.61815367240E+02  0.23139411549E+02  0.98810649377E+02  0.00000000000E+00 0.  1.
<mgrwt>
<rscale>  0 0.11781173E+04</rscale>
<asrwt>0</asrwt>
<pdfrwt beam="1">  1        2 0.60234968E-01 0.11781173E+04</pdfrwt>
<pdfrwt beam="2">  1       -1 0.13634578E+00 0.11781173E+04</pdfrwt>
<totfact> 0.41383658E+01</totfact>
</mgrwt>
</event>
<event>
12    6  0.1529770E-007  0.3307052E+04  0.7818608E-02  0.8161103E-01
         -1   -1    0    0    0  501 -0.00000000000E+00  0.00000000000E+00  0.88319776889E+03  0.88319776889E+03  0.00000000000E+00 0.  1.
          2   -1    0    0  501    0  0.00000000000E+00 -0.00000000000E+00 -0.30957366241E+04  0.30957366241E+04  0.00000000000E+00 0. -1.
         24    2    1    2    0    0 -0.19471386174E+03  0.14092046166E+04 -0.15352283161E+04  0.20945767770E+04  0.80961428349E+02 0.  0.
        254    2    1    2    0    0  0.19471386174E+03 -0.14092046166E+04 -0.67731053913E+03  0.18843576160E+04  0.10335777278E+04 0.  0.
         23    2    4    4    0    0  0.56742228874E+03 -0.78893149005E+03 -0.15858147217E+03  0.98883865696E+03  0.90955244107E+02 0.  0.
         23    2    4    4    0    0 -0.37270842701E+03 -0.62027312651E+03 -0.51872906697E+03  0.89551895905E+03  0.96041855814E+02 0.  0.
          4    1    3    3  502    0 -0.16900110984E+01  0.37659497753E+02 -0.24202416599E+02  0.44797889211E+02  0.00000000000E+00 0. -1.
         -3    1    3    3    0  502 -0.19302385064E+03  0.13715451188E+04 -0.15110258995E+04  0.20497788878E+04  0.00000000000E+00 0.  1.
         11    1    5    5    0    0  0.55385427372E+03 -0.78697041676E+03 -0.15658406282E+03  0.97498490353E+03  0.00000000000E+00 0. -1.
        -11    1    5    5    0    0  0.13568015024E+02 -0.19610732889E+01 -0.19974093432E+01  0.13853753435E+02  0.00000000000E+00 0.  1.
          3    1    6    6  503    0 -0.29522110045E+03 -0.47788390711E+03 -0.44870803888E+03  0.71893492819E+03  0.00000000000E+00 0. -1.
         -3    1    6    6    0  503 -0.77487326554E+02 -0.14238921940E+03 -0.70021028092E+02  0.17658403086E+03  0.00000000000E+00 0.  1.
<mgrwt>
<rscale>  0 0.33070517E+04</rscale>
<asrwt>0</asrwt>
<pdfrwt beam="1">  1        2 0.47626718E+00 0.33070517E+04</pdfrwt>
<pdfrwt beam="2">  1       -1 0.13587658E+00 0.33070517E+04</pdfrwt>
<totfact> 0.64980824E-01</totfact>
</mgrwt>
</event>
<event>
12    6  0.1529770E-007  0.1947527E+04  0.7818608E-02  0.8631554E-01
         -1   -1    0    0    0  501 -0.00000000000E+00  0.00000000000E+00  0.94123361997E+03  0.94123361997E+03  0.00000000000E+00 0.  1.
          2   -1    0    0  501    0  0.00000000000E+00 -0.00000000000E+00 -0.10074171391E+04  0.10074171391E+04  0.00000000000E+00 0. -1.
         24    2    1    2    0    0  0.40791066628E+03 -0.14513605868E+03  0.59964563479E+03  0.74630491253E+03  0.99702296591E+02 0.  0.
        254    2    1    2    0    0 -0.40791066628E+03  0.14513605868E+03 -0.66582915393E+03  0.12023458466E+04  0.90269124584E+03 0.  0.
         23    2    4    4    0    0  0.17846020615E+02  0.37603651670E+03 -0.17484887486E+02  0.38803054222E+03  0.92412326348E+02 0.  0.
         23    2    4    4    0    0 -0.42575668689E+03 -0.23090045802E+03 -0.64834426645E+03  0.81431530433E+03  0.90417637037E+02 0.  0.
          2    1    3    3  502    0  0.19570055758E+03 -0.84366812456E+02  0.21438379466E+03  0.30228608749E+03  0.00000000000E+00 0. -1.
         -1    1    3    3    0  502  0.21221010870E+03 -0.60769246222E+02  0.38526184014E+03  0.44401882504E+03  0.00000000000E+00 0.  1.
         11    1    5    5    0    0 -0.49414426787E+01 -0.38419055819E+01 -0.35899969721E+01  0.72156893300E+01  0.00000000000E+00 0. -1.
        -11    1    5    5    0    0  0.22787463294E+02  0.37987842228E+03 -0.13894890514E+02  0.38081485289E+03  0.00000000000E+00 0.  1.
          4    1    6    6  503    0 -0.11254650378E+03 -0.25424749466E+02 -0.19096395395E+03  0.22311513868E+03  0.00000000000E+00 0. -1.
         -4    1    6    6    0  503 -0.31321018311E+03 -0.20547570856E+03 -0.45738031250E+03  0.59120016566E+03  0.00000000000E+00 0.  1.
<mgrwt>
<rscale>  0 0.19475265E+04</rscale>
<asrwt>0</asrwt>
<pdfrwt beam="1">  1        2 0.15498725E+00 0.19475265E+04</pdfrwt>
<pdfrwt beam="2">  1       -1 0.14480517E+00 0.19475265E+04</pdfrwt>
<totfact> 0.10168080E+01</totfact>
</mgrwt>
</event>
<event>
12    6  0.1641389E-007  0.2380726E+04  0.7818608E-02  0.8446755E-01
          2   -1    0    0  501    0  0.00000000000E+00  0.00000000000E+00  0.24736525710E+04  0.24736525710E+04  0.00000000000E+00 0. -1.
         -1   -1    0    0    0  501 -0.00000000000E+00 -0.00000000000E+00 -0.57282249931E+03  0.57282249931E+03  0.00000000000E+00 0.  1.
         24    2    1    2    0    0 -0.62019329390E+03 -0.32401438920E+03 -0.13241354712E+03  0.71631021084E+03  0.77083879616E+02 0.  0.
        254    2    1    2    0    0  0.62019329390E+03  0.32401438920E+03  0.20332436189E+04  0.23301648595E+04  0.89775476198E+03 0.  0.
         23    2    4    4    0    0  0.55098867666E+03  0.44547905809E+03  0.74887167600E+03  0.10349179342E+04  0.90588246732E+02 0.  0.
         23    2    4    4    0    0  0.69204617241E+02 -0.12146466890E+03  0.12843719429E+04  0.12952469253E+04  0.92251639779E+02 0.  0.
          4    1    3    3  502    0 -0.28726475166E+02  0.69194301452E+00 -0.15563278716E+00  0.28735228939E+02  0.00000000000E+00 0. -1.
         -3    1    3    3    0  502 -0.59146681873E+03 -0.32470633221E+03 -0.13225791433E+03  0.68757498191E+03  0.00000000000E+00 0.  1.
         11    1    5    5    0    0  0.99142784964E+02  0.12805960384E+03  0.16053682108E+03  0.22803645513E+03  0.00000000000E+00 0. -1.
        -11    1    5    5    0    0  0.45184589169E+03  0.31741945425E+03  0.58833485492E+03  0.80688147908E+03  0.00000000000E+00 0.  1.
          2    1    6    6  503    0  0.37816175373E+02 -0.30391556442E+02  0.17198629286E+03  0.17869805471E+03  0.00000000000E+00 0. -1.
         -2    1    6    6    0  503  0.31388441869E+02 -0.91073112454E+02  0.11123856500E+04  0.11165488706E+04  0.00000000000E+00 0.  1.
<mgrwt>
<rscale>  0 0.23807258E+04</rscale>
<asrwt>0</asrwt>
<pdfrwt beam="1">  1        2 0.38056193E+00 0.23807258E+04</pdfrwt>
<pdfrwt beam="2">  1       -1 0.88126540E-01 0.23807258E+04</pdfrwt>
<totfact> 0.46736882E+00</totfact>
</mgrwt>
</event>
<event>
12    6  0.1529770E-007  0.2886280E+04  0.7818608E-02  0.8276971E-01
          2   -1    0    0  501    0  0.00000000000E+00  0.00000000000E+00  0.40548867641E+04  0.40548867641E+04  0.00000000000E+00 0. -1.
         -1   -1    0    0    0  501 -0.00000000000E+00 -0.00000000000E+00 -0.51361562515E+03  0.51361562515E+03  0.00000000000E+00 0.  1.
         24    2    1    2    0    0  0.12933246821E+03 -0.65969716897E+03  0.33958798749E+04  0.34626593613E+04  0.77990290224E+02 0.  0.
        254    2    1    2    0    0 -0.12933246821E+03  0.65969716897E+03  0.14539126400E+03  0.11058430279E+04  0.86592317250E+03 0.  0.
         23    2    4    4    0    0 -0.43913231362E+03  0.61345551235E+03  0.16716310981E+03  0.77783283570E+03  0.88969435784E+02 0.  0.
         23    2    4    4    0    0  0.30979984541E+03  0.46241656622E+02 -0.21771845811E+02  0.32801019223E+03  0.94881177853E+02 0.  0.
          4    1    3    3  502    0  0.79367180551E+02 -0.52686886738E+03  0.27852602031E+04  0.28357652145E+04  0.00000000000E+00 0. -1.
         -3    1    3    3    0  502  0.49965287662E+02 -0.13282830159E+03  0.61061967180E+03  0.62689414678E+03  0.00000000000E+00 0.  1.
         11    1    5    5    0    0 -0.33551253019E+03  0.44974586637E+03  0.85517008197E+02  0.56758537765E+03  0.00000000000E+00 0. -1.
        -11    1    5    5    0    0 -0.10361978344E+03  0.16370964598E+03  0.81646101618E+02  0.21024745805E+03  0.00000000000E+00 0.  1.
          3    1    6    6  503    0  0.30401688506E+03  0.46567034894E+02 -0.38822005839E+02  0.31000306979E+03  0.00000000000E+00 0. -1.
         -3    1    6    6    0  503  0.57829603462E+01 -0.32537827200E+00  0.17050160028E+02  0.18007122434E+02  0.00000000000E+00 0.  1.
<mgrwt>
<rscale>  0 0.28862801E+04</rscale>
<asrwt>0</asrwt>
<pdfrwt beam="1">  1        2 0.62382871E+00 0.28862801E+04</pdfrwt>
<pdfrwt beam="2">  1       -1 0.79017791E-01 0.28862801E+04</pdfrwt>
<totfact> 0.48522490E-01</totfact>
</mgrwt>
</event>
<event>
12    6  0.1529770E-007  0.2953503E+04  0.7818608E-02  0.8257134E-01
          2   -1    0    0  501    0  0.00000000000E+00  0.00000000000E+00  0.17176886370E+04  0.17176886370E+04  0.00000000000E+00 0. -1.
         -1   -1    0    0    0  501 -0.00000000000E+00 -0.00000000000E+00 -0.12696102671E+04  0.12696102671E+04  0.00000000000E+00 0.  1.
         24    2    1    2    0    0 -0.99843381989E+03 -0.20778702022E+03 -0.67478803556E+03  0.12252571353E+04  0.76619946822E+02 0.  0.
        254    2    1    2    0    0  0.99843381989E+03  0.20778702022E+03  0.11228664055E+04  0.17620417688E+04  0.89661401495E+03 0.  0.
         23    2    4    4    0    0  0.18290087569E+03  0.14841131829E+03  0.86473930565E+03  0.90060974803E+03  0.88573143797E+02 0.  0.
         23    2    4    4    0    0  0.81553294420E+03  0.59375701927E+02  0.25812709988E+03  0.86143202075E+03  0.82559491403E+02 0.  0.
          4    1    3    3  502    0 -0.12417479651E+03 -0.50440161292E+02 -0.99717958519E+02  0.16705466534E+03  0.00000000000E+00 0. -1.
         -3    1    3    3    0  502 -0.87425902338E+03 -0.15734685893E+03 -0.57507007704E+03  0.10582024700E+04  0.00000000000E+00 0.  1.
         11    1    5    5    0    0  0.18155749882E+03  0.11214489124E+03  0.69456151747E+03  0.72660532861E+03  0.00000000000E+00 0. -1.
        -11    1    5    5    0    0  0.13433768721E+01  0.36266427054E+02  0.17017778817E+03  0.17400441943E+03  0.00000000000E+00 0.  1.
          1    1    6    6  503    0  0.60136948631E+03  0.64343994494E+02  0.15879052405E+03  0.62529979947E+03  0.00000000000E+00 0. -1.
         -1    1    6    6    0  503  0.21416345789E+03 -0.49682925665E+01  0.99336575831E+02  0.23613222128E+03  0.00000000000E+00 0.  1.
<mgrwt>
<rscale>  0 0.29535031E+04</rscale>
<asrwt>0</asrwt>
<pdfrwt beam="1">  1        2 0.26425979E+00 0.29535031E+04</pdfrwt>
<pdfrwt beam="2">  1       -1 0.19532466E+00 0.29535031E+04</pdfrwt>
<totfact> 0.15206532E+00</totfact>
</mgrwt>
</event>
<event>
12    6  0.1529770E-007  0.1989998E+04  0.7818608E-02  0.8611311E-01
         -1   -1    0    0    0  501 -0.00000000000E+00  0.00000000000E+00  0.35470044754E+03  0.35470044754E+03  0.00000000000E+00 0.  1.
          2   -1    0    0  501    0  0.00000000000E+00 -0.00000000000E+00 -0.27911517415E+04  0.27911517415E+04  0.00000000000E+00 0. -1.
         24    2    1    2    0    0 -0.35137777958E+03 -0.63877929014E+03 -0.54047377814E+03  0.91104382057E+03  0.79897513342E+02 0.  0.
        254    2    1    2    0    0  0.35137777958E+03  0.63877929014E+03 -0.18959775158E+04  0.22348083684E+04  0.93173621683E+03 0.  0.
         23    2    4    4    0    0 -0.28050073577E+03  0.11264779416E+03 -0.29394893852E+03  0.43175393183E+03  0.92926265917E+02 0.  0.
         23    2    4    4    0    0  0.63187851535E+03  0.52613149598E+03 -0.16020285773E+04  0.18030544366E+04  0.91787416071E+02 0.  0.
          4    1    3    3  502    0 -0.28592578057E+03 -0.52703604674E+03 -0.40459551097E+03  0.72333814642E+03  0.00000000000E+00 0. -1.
         -3    1    3    3    0  502 -0.65451999013E+02 -0.11174324340E+03 -0.13587826717E+03  0.18770567415E+03  0.00000000000E+00 0.  1.
         11    1    5    5    0    0 -0.57122715257E+01  0.28066222181E+02 -0.29542993484E+02  0.41147677182E+02  0.00000000000E+00 0. -1.
        -11    1    5    5    0    0 -0.27478846424E+03  0.84581571982E+02 -0.26440594504E+03  0.39060625465E+03  0.00000000000E+00 0.  1.
          4    1    6    6  503    0  0.41278637393E+03  0.33506487459E+03 -0.93831438390E+03  0.10784687959E+04  0.00000000000E+00 0. -1.
         -4    1    6    6    0  503  0.21909214142E+03  0.19106662139E+03 -0.66371419338E+03  0.72458564072E+03  0.00000000000E+00 0.  1.
<mgrwt>
<rscale>  0 0.19899978E+04</rscale>
<asrwt>0</asrwt>
<pdfrwt beam="1">  1        2 0.42940795E+00 0.19899978E+04</pdfrwt>
<pdfrwt beam="2">  1       -1 0.54569301E-01 0.19899978E+04</pdfrwt>
<totfact> 0.84185092E+00</totfact>
</mgrwt>
</event>
<event>
12    6  0.1529770E-007  0.1883782E+04  0.7818608E-02  0.8662971E-01
          2   -1    0    0  501    0  0.00000000000E+00  0.00000000000E+00  0.56563318679E+03  0.56563318679E+03  0.00000000000E+00 0. -1.
         -1   -1    0    0    0  501 -0.00000000000E+00 -0.00000000000E+00 -0.15684346713E+04  0.15684346713E+04  0.00000000000E+00 0.  1.
         24    2    1    2    0    0 -0.18614005911E+03 -0.10330819403E+03 -0.11793257914E+04  0.12010579295E+04  0.80063244287E+02 0.  0.
        254    2    1    2    0    0  0.18614005911E+03  0.10330819403E+03  0.17652430687E+03  0.93300992866E+03  0.89108136076E+03 0.  0.
         23    2    4    4    0    0  0.47921647295E+03 -0.64404953881E+02 -0.79959260869E+02  0.49922856269E+03  0.95074961899E+02 0.  0.
         23    2    4    4    0    0 -0.29307641384E+03  0.16771314791E+03  0.25648356774E+03  0.43378136597E+03  0.91438332285E+02 0.  0.
          2    1    3    3  502    0 -0.76563206340E+02 -0.34974895686E+01 -0.32057464802E+03  0.32960925647E+03  0.00000000000E+00 0. -1.
         -1    1    3    3    0  502 -0.10957685277E+03 -0.99810704465E+02 -0.85875114340E+03  0.87144867300E+03  0.00000000000E+00 0.  1.
         11    1    5    5    0    0  0.39668823820E+03 -0.69754731859E+02 -0.98126295465E+02  0.41455524458E+03  0.00000000000E+00 0.  1.
        -11    1    5    5    0    0  0.82528234743E+02  0.53497779782E+01  0.18167034596E+02  0.84673318113E+02  0.00000000000E+00 0. -1.
          4    1    6    6  503    0 -0.18476361738E+03  0.14878063731E+03  0.19939353312E+03  0.30988877585E+03  0.00000000000E+00 0. -1.
         -4    1    6    6    0  503 -0.10831279646E+03  0.18932510603E+02  0.57090034615E+02  0.12389259012E+03  0.00000000000E+00 0.  1.
<mgrwt>
<rscale>  0 0.18837820E+04</rscale>
<asrwt>0</asrwt>
<pdfrwt beam="1">  1        2 0.87020492E-01 0.18837820E+04</pdfrwt>
<pdfrwt beam="2">  1       -1 0.24129764E+00 0.18837820E+04</pdfrwt>
<totfact> 0.45340762E+00</totfact>
</mgrwt>
</event>
<event>
12    6  0.1529770E-007  0.2385941E+04  0.7818608E-02  0.8444786E-01
         -1   -1    0    0    0  501 -0.00000000000E+00  0.00000000000E+00  0.37593760197E+03  0.37593760197E+03  0.00000000000E+00 0.  1.
          2   -1    0    0  501    0  0.00000000000E+00 -0.00000000000E+00 -0.37856783038E+04  0.37856783038E+04  0.00000000000E+00 0. -1.
         24    2    1    2    0    0  0.47135711124E+03  0.91565936649E+03 -0.18725790229E+04  0.21385540222E+04  0.79066473297E+02 0.  0.
        254    2    1    2    0    0 -0.47135711124E+03 -0.91565936649E+03 -0.15371616790E+04  0.20230618836E+04  0.81810986777E+03 0.  0.
         23    2    4    4    0    0 -0.44125136595E+03 -0.28811552368E+03 -0.11772608064E+04  0.12930355502E+04  0.91019804348E+02 0.  0.
         23    2    4    4    0    0 -0.30105745294E+02 -0.62754384281E+03 -0.35990087256E+03  0.73002633340E+03  0.93231855262E+02 0.  0.
          4    1    3    3  502    0  0.25568576524E+03  0.55606125175E+03 -0.11681732830E+04  0.13187904100E+04  0.00000000000E+00 0. -1.
         -3    1    3    3    0  502  0.21567134600E+03  0.35959811474E+03 -0.70440573983E+03  0.81976361222E+03  0.00000000000E+00 0.  1.
         11    1    5    5    0    0 -0.32489323965E+03 -0.17940236570E+03 -0.89602561471E+03  0.96984675501E+03  0.00000000000E+00 0. -1.
        -11    1    5    5    0    0 -0.11635812629E+03 -0.10871315798E+03 -0.28123519173E+03  0.32318879520E+03  0.00000000000E+00 0.  1.
          2    1    6    6  503    0 -0.39848423982E+02 -0.60510910362E+03 -0.36064461676E+03  0.70555613793E+03  0.00000000000E+00 0. -1.
         -2    1    6    6    0  503  0.97426786875E+01 -0.22434739195E+02  0.74374420222E+00  0.24470195467E+02  0.00000000000E+00 0.  1.
<mgrwt>
<rscale>  0 0.23859412E+04</rscale>
<asrwt>0</asrwt>
<pdfrwt beam="1">  1        2 0.58241202E+00 0.23859412E+04</pdfrwt>
<pdfrwt beam="2">  1       -1 0.57836557E-01 0.23859412E+04</pdfrwt>
<totfact> 0.15670988E+00</totfact>
</mgrwt>
</event>
<event>
12    6  0.1529770E-007  0.1787041E+04  0.7818608E-02  0.8713221E-01
          2   -1    0    0  501    0  0.00000000000E+00  0.00000000000E+00  0.95475220328E+03  0.95475220328E+03  0.00000000000E+00 0. -1.
         -1   -1    0    0    0  501 -0.00000000000E+00 -0.00000000000E+00 -0.83621578735E+03  0.83621578735E+03  0.00000000000E+00 0.  1.
         24    2    1    2    0    0  0.65804271050E+03 -0.58564984875E+02 -0.20301989260E+02  0.66605444980E+03  0.82257480064E+02 0.  0.
        254    2    1    2    0    0 -0.65804271050E+03  0.58564984875E+02  0.13883840519E+03  0.11249135408E+04  0.89983571017E+03 0.  0.
         23    2    4    4    0    0 -0.76241365403E+03 -0.21822883747E+03  0.15313533593E+03  0.81262829954E+03  0.89531652263E+02 0.  0.
         23    2    4    4    0    0  0.10437094352E+03  0.27679382235E+03 -0.14296930734E+02  0.31228524129E+03  0.99043201463E+02 0.  0.
          4    1    3    3  502    0  0.22736824034E+03 -0.55556118875E+02  0.10298769400E+02  0.23428372481E+03  0.00000000000E+00 0. -1.
         -1    1    3    3    0  502  0.43067447017E+03 -0.30088660006E+01 -0.30600758661E+02  0.43177072499E+03  0.00000000000E+00 0.  1.
         11    1    5    5    0    0 -0.33192212712E+03 -0.13350612578E+03  0.94028813548E+02  0.36991566859E+03  0.00000000000E+00 0. -1.
        -11    1    5    5    0    0 -0.43049152691E+03 -0.84722711689E+02  0.59106522381E+02  0.44271263095E+03  0.00000000000E+00 0.  1.
          4    1    6    6  503    0 -0.35467566333E+01  0.91209072974E+02 -0.32362989715E+02  0.96845431378E+02  0.00000000000E+00 0. -1.
         -4    1    6    6    0  503  0.10791770016E+03  0.18558474937E+03  0.18066058981E+02  0.21543980991E+03  0.00000000000E+00 0.  1.
<mgrwt>
<rscale>  0 0.17870410E+04</rscale>
<asrwt>0</asrwt>
<pdfrwt beam="1">  1        2 0.14688496E+00 0.17870410E+04</pdfrwt>
<pdfrwt beam="2">  1       -1 0.12864858E+00 0.17870410E+04</pdfrwt>
<totfact> 0.15136506E+01</totfact>
</mgrwt>
</event>
<event>
12    6  0.1529770E-007  0.2138937E+04  0.7818608E-02  0.8544283E-01
         -1   -1    0    0    0  501 -0.00000000000E+00  0.00000000000E+00  0.77240629436E+03  0.77240629436E+03  0.00000000000E+00 0.  1.
          2   -1    0    0  501    0  0.00000000000E+00 -0.00000000000E+00 -0.14807782872E+04  0.14807782872E+04  0.00000000000E+00 0. -1.
         24    2    1    2    0    0 -0.70116936422E+02  0.46073548898E+03 -0.10727949537E+04  0.11723160413E+04  0.79008305566E+02 0.  0.
        254    2    1    2    0    0  0.70116936422E+02 -0.46073548898E+03  0.36442296090E+03  0.10808685403E+04  0.90458782399E+03 0.  0.
         23    2    4    4    0    0  0.29588547735E+03  0.92299001538E+02 -0.77211335965E+02  0.33232810155E+03  0.91722708646E+02 0.  0.
         23    2    4    4    0    0 -0.22576854093E+03 -0.55303449052E+03  0.44163429687E+03  0.74854043871E+03  0.91942125492E+02 0.  0.
          2    1    3    3  502    0 -0.60450301052E+02  0.45395924061E+03 -0.10180837025E+04  0.11163456706E+04  0.00000000000E+00 0. -1.
         -1    1    3    3    0  502 -0.96666353701E+01  0.67762483751E+01 -0.54711251262E+02  0.55970370698E+02  0.00000000000E+00 0.  1.
         11    1    5    5    0    0  0.24584085693E+03  0.70942680144E+02 -0.98116777489E+02  0.27403921768E+03  0.00000000000E+00 0.  1.
        -11    1    5    5    0    0  0.50044620423E+02  0.21356321394E+02  0.20905441525E+02  0.58288883864E+02  0.00000000000E+00 0. -1.
          4    1    6    6  503    0 -0.21530306726E+03 -0.50757965938E+03  0.37344128411E+03  0.66592110198E+03  0.00000000000E+00 0. -1.
         -4    1    6    6    0  503 -0.10465473671E+02 -0.45454831142E+02  0.68193012752E+02  0.82619336729E+02  0.00000000000E+00 0.  1.
<mgrwt>
<rscale>  0 0.21389366E+04</rscale>
<asrwt>0</asrwt>
<pdfrwt beam="1">  1        2 0.22781205E+00 0.21389366E+04</pdfrwt>
<pdfrwt beam="2">  1       -1 0.11883174E+00 0.21389366E+04</pdfrwt>
<totfact> 0.86382595E+00</totfact>
</mgrwt>
</event>
<event>
12    6  0.1529770E-007  0.1520336E+04  0.7818608E-02  0.8871041E-01
         -1   -1    0    0    0  501 -0.00000000000E+00  0.00000000000E+00  0.44070266357E+03  0.44070266357E+03  0.00000000000E+00 0.  1.
          2   -1    0    0  501    0  0.00000000000E+00 -0.00000000000E+00 -0.13112136454E+04  0.13112136454E+04  0.00000000000E+00 0. -1.
         24    2    1    2    0    0  0.36153212540E+03 -0.15517833588E+03  0.53435610501E+02  0.40478075989E+03  0.78780108412E+02 0.  0.
        254    2    1    2    0    0 -0.36153212540E+03  0.15517833588E+03 -0.92394659238E+03  0.13471355491E+04  0.89794826608E+03 0.  0.
         23    2    4    4    0    0  0.25420216020E+03  0.21528856185E+03 -0.24427074587E+03  0.42328765349E+03  0.92392300553E+02 0.  0.
         23    2    4    4    0    0 -0.61573428560E+03 -0.60110225966E+02 -0.67967584651E+03  0.92384789564E+03  0.93774880568E+02 0.  0.
          2    1    3    3  502    0  0.48601989212E+02 -0.33222997093E+02  0.34846578781E+02  0.68412023387E+02  0.00000000000E+00 0. -1.
         -1    1    3    3    0  502  0.31293013619E+03 -0.12195533879E+03  0.18589031720E+02  0.33636873650E+03  0.00000000000E+00 0.  1.
         11    1    5    5    0    0  0.14721099937E+03  0.86893349143E+02 -0.79261093003E+02  0.18842466220E+03  0.00000000000E+00 0.  1.
        -11    1    5    5    0    0  0.10699116083E+03  0.12839521270E+03 -0.16500965287E+03  0.23486299129E+03  0.00000000000E+00 0. -1.
          4    1    6    6  503    0 -0.20361820608E+03  0.57594273050E+01 -0.17166269439E+03  0.26638623369E+03  0.00000000000E+00 0. -1.
         -4    1    6    6    0  503 -0.41211607952E+03 -0.65869653271E+02 -0.50801315212E+03  0.65746166195E+03  0.00000000000E+00 0.  1.
<mgrwt>
<rscale>  0 0.15203359E+04</rscale>
<asrwt>0</asrwt>
<pdfrwt beam="1">  1        2 0.20172517E+00 0.15203359E+04</pdfrwt>
<pdfrwt beam="2">  1       -1 0.67800412E-01 0.15203359E+04</pdfrwt>
<totfact> 0.39447649E+01</totfact>
</mgrwt>
</event>
<event>
12    6  0.1529770E-007  0.1341556E+04  0.7818608E-02  0.8997245E-01
         -1   -1    0    0    0  501 -0.00000000000E+00  0.00000000000E+00  0.29920259975E+03  0.29920259975E+03  0.00000000000E+00 0.  1.
          2   -1    0    0  501    0  0.00000000000E+00 -0.00000000000E+00 -0.15038075895E+04  0.15038075895E+04  0.00000000000E+00 0. -1.
         24    2    1    2    0    0  0.31238193901E+03  0.17416599900E+03 -0.22072328641E+03  0.42773806990E+03  0.79528713375E+02 0.  0.
        254    2    1    2    0    0 -0.31238193901E+03 -0.17416599900E+03 -0.98388170335E+03  0.13752721194E+04  0.89187102492E+03 0.  0.
         23    2    4    4    0    0 -0.56320466971E+03 -0.17331790095E+03 -0.35927557769E+03  0.69621526539E+03  0.91641476774E+02 0.  0.
         23    2    4    4    0    0  0.25082273070E+03 -0.84809805148E+00 -0.62460612566E+03  0.67905685397E+03  0.89847855880E+02 0.  0.
          4    1    3    3  502    0  0.17126115037E+03  0.78966140998E+02 -0.15897361402E+03  0.24665490671E+03  0.00000000000E+00 0. -1.
         -3    1    3    3    0  502  0.14112078864E+03  0.95199858005E+02 -0.61749672386E+02  0.18108316319E+03  0.00000000000E+00 0.  1.
         11    1    5    5    0    0 -0.54820261908E+03 -0.16410938000E+03 -0.32603669689E+03  0.65860301236E+03  0.00000000000E+00 0. -1.
        -11    1    5    5    0    0 -0.15002050628E+02 -0.92085209519E+01 -0.33238880799E+02  0.37612253029E+02  0.00000000000E+00 0.  1.
          4    1    6    6  503    0  0.22380899034E+03  0.11351796063E+02 -0.45859245560E+03  0.51041783645E+03  0.00000000000E+00 0. -1.
         -4    1    6    6    0  503  0.27013740365E+02 -0.12199894114E+02 -0.16601367006E+03  0.16863901753E+03  0.00000000000E+00 0.  1.
<mgrwt>
<rscale>  0 0.13415560E+04</rscale>
<asrwt>0</asrwt>
<pdfrwt beam="1">  1        2 0.23135502E+00 0.13415560E+04</pdfrwt>
<pdfrwt beam="2">  1       -1 0.46031168E-01 0.13415560E+04</pdfrwt>
<totfact> 0.66013452E+01</totfact>
</mgrwt>
</event>
<event>
12    6  0.1529770E-007  0.1872178E+04  0.7818608E-02  0.8668831E-01
          2   -1    0    0  501    0  0.00000000000E+00  0.00000000000E+00  0.36025605203E+03  0.36025605203E+03  0.00000000000E+00 0. -1.
         -1   -1    0    0    0  501 -0.00000000000E+00 -0.00000000000E+00 -0.24323318235E+04  0.24323318235E+04  0.00000000000E+00 0.  1.
         24    2    1    2    0    0  0.14755785214E+03 -0.96314665605E+02 -0.18380396309E+04  0.18481841594E+04  0.79656559981E+02 0.  0.
        254    2    1    2    0    0 -0.14755785214E+03  0.96314665605E+02 -0.23403614050E+03  0.94440371612E+03  0.89781714698E+03 0.  0.
         23    2    4    4    0    0  0.26088458734E+03 -0.19123778223E+03  0.81445668437E+02  0.34670523239E+03  0.94543450314E+02 0.  0.
         23    2    4    4    0    0 -0.40844243948E+03  0.28755244783E+03 -0.31548180894E+03  0.59769848373E+03  0.90570795840E+02 0.  0.
          2    1    3    3  502    0  0.30938460110E+02 -0.33162530656E+02 -0.21479666204E+03  0.21953256655E+03  0.00000000000E+00 0. -1.
         -1    1    3    3    0  502  0.11661939203E+03 -0.63152134949E+02 -0.16232429689E+04  0.16286515928E+04  0.00000000000E+00 0.  1.
         11    1    5    5    0    0  0.25698114674E+03 -0.19081109384E+03  0.93966262122E+02  0.33358333551E+03  0.00000000000E+00 0. -1.
        -11    1    5    5    0    0  0.39034405936E+01 -0.42668838866E+00 -0.12520593685E+02  0.13121896878E+02  0.00000000000E+00 0.  1.
          1    1    6    6  503    0 -0.38383350017E+03  0.23739014763E+03 -0.28856844801E+03  0.53568086323E+03  0.00000000000E+00 0. -1.
         -1    1    6    6    0  503 -0.24608939303E+02  0.50162300204E+02 -0.26913360927E+02  0.62017620495E+02  0.00000000000E+00 0.  1.
<mgrwt>
<rscale>  0 0.18721776E+04</rscale>
<asrwt>0</asrwt>
<pdfrwt beam="1">  1        2 0.55424007E-01 0.18721776E+04</pdfrwt>
<pdfrwt beam="2">  1       -1 0.37420491E+00 0.18721776E+04</pdfrwt>
<totfact> 0.10305848E+00</totfact>
</mgrwt>
</event>
<event>
12    6  0.1529770E-007  0.1317057E+04  0.7818608E-02  0.9016147E-01
         -1   -1    0    0    0  501 -0.00000000000E+00  0.00000000000E+00  0.12643271698E+04  0.12643271698E+04  0.00000000000E+00 0.  1.
          2   -1    0    0  501    0  0.00000000000E+00 -0.00000000000E+00 -0.34299656540E+03  0.34299656540E+03  0.00000000000E+00 0. -1.
         24    2    1    2    0    0  0.20304453767E+03  0.16778614428E+03 -0.22958200946E+02  0.27651553524E+03  0.80959790929E+02 0.  0.
        254    2    1    2    0    0 -0.20304453767E+03 -0.16778614428E+03  0.94428880535E+03  0.13308082000E+04  0.89999435702E+03 0.  0.
         23    2    4    4    0    0  0.57218408615E+02  0.34005497329E+03  0.30839858736E+03  0.47146791049E+03  0.90889882787E+02 0.  0.
         23    2    4    4    0    0 -0.26026294628E+03 -0.50784111757E+03  0.63589021799E+03  0.85934028947E+03  0.92032395752E+02 0.  0.
          2    1    3    3  502    0  0.76594348744E+02  0.54133007462E+02 -0.46820400996E+02  0.10482951257E+03  0.00000000000E+00 0. -1.
         -1    1    3    3    0  502  0.12645018892E+03  0.11365313682E+03  0.23862200050E+02  0.17168602267E+03  0.00000000000E+00 0.  1.
         11    1    5    5    0    0  0.32388856894E+02  0.19832387928E+03  0.11876470545E+03  0.23342333732E+03  0.00000000000E+00 0.  1.
        -11    1    5    5    0    0  0.24829551721E+02  0.14173109400E+03  0.18963388192E+03  0.23804457317E+03  0.00000000000E+00 0. -1.
          1    1    6    6  503    0 -0.18651560021E+03 -0.28097530521E+03  0.40912710874E+03  0.53020767853E+03  0.00000000000E+00 0.  1.
         -1    1    6    6    0  503 -0.73747346071E+02 -0.22686581236E+03  0.22676310925E+03  0.32913261094E+03  0.00000000000E+00 0. -1.
<mgrwt>
<rscale>  0 0.13170571E+04</rscale>
<asrwt>0</asrwt>
<pdfrwt beam="1">  1        2 0.52768703E-01 0.13170571E+04</pdfrwt>
<pdfrwt beam="2">  1       -1 0.19451187E+00 0.13170571E+04</pdfrwt>
<totfact> 0.17409311E+01</totfact>
</mgrwt>
</event>
<event>
12    6  0.1529770E-007  0.2634271E+04  0.7818608E-02  0.8356652E-01
         -1   -1    0    0    0  501 -0.00000000000E+00  0.00000000000E+00  0.10324990215E+04  0.10324990215E+04  0.00000000000E+00 0.  1.
          2   -1    0    0  501    0  0.00000000000E+00 -0.00000000000E+00 -0.16802397308E+04  0.16802397308E+04  0.00000000000E+00 0. -1.
         24    2    1    2    0    0 -0.69381325276E+03  0.68501483052E+03  0.36156668443E+03  0.10429263951E+04  0.79642015714E+02 0.  0.
        254    2    1    2    0    0  0.69381325276E+03 -0.68501483052E+03 -0.10093073938E+04  0.16698123571E+04  0.90495842183E+03 0.  0.
         23    2    4    4    0    0  0.29291262523E+03 -0.83446312431E+03 -0.61395770450E+03  0.10800790457E+04  0.86603523098E+02 0.  0.
         23    2    4    4    0    0  0.40090062753E+03  0.14944829379E+03 -0.39534968925E+03  0.58973331143E+03  0.91803573719E+02 0.  0.
          2    1    3    3  502    0 -0.11699871910E+03  0.16011062663E+03  0.69253449716E+02  0.21004797864E+03  0.00000000000E+00 0. -1.
         -1    1    3    3    0  502 -0.57681453366E+03  0.52490420388E+03  0.29231323471E+03  0.83287841651E+03  0.00000000000E+00 0.  1.
         11    1    5    5    0    0  0.10887981462E+03 -0.44070329453E+03 -0.31083860534E+03  0.55017710459E+03  0.00000000000E+00 0. -1.
        -11    1    5    5    0    0  0.18403281062E+03 -0.39375982978E+03 -0.30311909916E+03  0.52990194112E+03  0.00000000000E+00 0.  1.
          1    1    6    6  503    0  0.35140581895E+03  0.10218065234E+03 -0.35715338632E+03  0.51135650643E+03  0.00000000000E+00 0. -1.
         -1    1    6    6    0  503  0.49494808579E+02  0.47267641453E+02 -0.38196302928E+02  0.78376805000E+02  0.00000000000E+00 0.  1.
<mgrwt>
<rscale>  0 0.26342710E+04</rscale>
<asrwt>0</asrwt>
<pdfrwt beam="1">  1        2 0.25849842E+00 0.26342710E+04</pdfrwt>
<pdfrwt beam="2">  1       -1 0.15884601E+00 0.26342710E+04</pdfrwt>
<totfact> 0.30121648E+00</totfact>
</mgrwt>
</event>
<event>
12    6  0.2122338E-007  0.1595881E+04  0.7818608E-02  0.8823082E-01
         -1   -1    0    0    0  501 -0.00000000000E+00  0.00000000000E+00  0.43767879396E+03  0.43767879396E+03  0.00000000000E+00 0.  1.
          2   -1    0    0  501    0  0.00000000000E+00 -0.00000000000E+00 -0.14547406657E+04  0.14547406657E+04  0.00000000000E+00 0. -1.
         24    2    1    2    0    0  0.50932167356E+03 -0.16371564144E+03 -0.50270455865E+03  0.73874662187E+03  0.82603387505E+02 0.  0.
        254    2    1    2    0    0 -0.50932167356E+03  0.16371564144E+03 -0.51435731313E+03  0.11536728378E+04  0.88328149125E+03 0.  0.
         23    2    4    4    0    0 -0.37420496737E+03  0.65223120303E+01 -0.74007774901E+03  0.83431391730E+03  0.91064481958E+02 0.  0.
         23    2    4    4    0    0 -0.13511670619E+03  0.15719332941E+03  0.22572043588E+03  0.31935892053E+03  0.89856206504E+02 0.  0.
          2    1    3    3  502    0  0.49933919902E+03 -0.16990648188E+03 -0.47992563408E+03  0.71311742547E+03  0.00000000000E+00 0. -1.
         -1    1    3    3    0  502  0.99824745328E+01  0.61908404455E+01 -0.22778924569E+02  0.25629196393E+02  0.00000000000E+00 0.  1.
         11    1    5    5    0    0 -0.29744058709E+03  0.45441895044E+01 -0.65686011654E+03  0.72108027653E+03  0.00000000000E+00 0. -1.
        -11    1    5    5    0    0 -0.76764380281E+02  0.19781225260E+01 -0.83217632468E+02  0.11323364077E+03  0.00000000000E+00 0.  1.
          2    1    6    6  503    0 -0.12153133411E+03  0.13001986107E+03  0.22759656312E+03  0.28892079363E+03  0.00000000000E+00 0. -1.
         -2    1    6    6    0  503 -0.13585372078E+02  0.27173468336E+02 -0.18761272465E+01  0.30438126903E+02  0.00000000000E+00 0.  1.
<mgrwt>
<rscale>  0 0.15958811E+04</rscale>
<asrwt>0</asrwt>
<pdfrwt beam="1">  1        2 0.22380625E+00 0.15958811E+04</pdfrwt>
<pdfrwt beam="2">  1       -1 0.67335200E-01 0.15958811E+04</pdfrwt>
<totfact> 0.32883409E+01</totfact>
</mgrwt>
</event>
<event>
12    6  0.1529770E-007  0.1561522E+04  0.7818608E-02  0.8844542E-01
          2   -1    0    0  501    0  0.00000000000E+00  0.00000000000E+00  0.15049160669E+04  0.15049160669E+04  0.00000000000E+00 0. -1.
         -1   -1    0    0    0  501 -0.00000000000E+00 -0.00000000000E+00 -0.40506425489E+03  0.40506425489E+03  0.00000000000E+00 0.  1.
         24    2    1    2    0    0 -0.13825804269E+03 -0.48042133115E+03  0.19227158795E+03  0.54190814794E+03  0.82317285413E+02 0.  0.
        254    2    1    2    0    0  0.13825804269E+03  0.48042133115E+03  0.90758022409E+03  0.13680721739E+04  0.89330827153E+03 0.  0.
         23    2    4    4    0    0  0.34090537573E+03  0.31647818337E+03  0.61307188528E+02  0.47801225747E+03  0.91445235948E+02 0.  0.
         23    2    4    4    0    0 -0.20264733304E+03  0.16394314778E+03  0.84627303557E+03  0.89005991641E+03  0.89918333913E+02 0.  0.
          4    1    3    3  502    0 -0.45283260862E+02 -0.80168183278E+02  0.10780816608E+02  0.92702412758E+02  0.00000000000E+00 0. -1.
         -3    1    3    3    0  502 -0.92974781828E+02 -0.40025314788E+03  0.18149077134E+03  0.44920573519E+03  0.00000000000E+00 0.  1.
         11    1    5    5    0    0  0.33069691059E+03  0.28295766829E+03  0.72499970913E+02  0.44122753144E+03  0.00000000000E+00 0. -1.
        -11    1    5    5    0    0  0.10208465138E+02  0.33520515078E+02 -0.11192782385E+02  0.36784726029E+02  0.00000000000E+00 0.  1.
          4    1    6    6  503    0 -0.28270812489E+02  0.46551519050E+02  0.29668391912E+03  0.30164155985E+03  0.00000000000E+00 0.  1.
         -4    1    6    6    0  503 -0.17437652055E+03  0.11739162873E+03  0.54958911645E+03  0.58841835656E+03  0.00000000000E+00 0. -1.
<mgrwt>
<rscale>  0 0.15615220E+04</rscale>
<asrwt>0</asrwt>
<pdfrwt beam="1">  1        2 0.23152555E+00 0.15615220E+04</pdfrwt>
<pdfrwt beam="2">  1       -1 0.62317579E-01 0.15615220E+04</pdfrwt>
<totfact> 0.36100091E+01</totfact>
</mgrwt>
</event>
<event>
12    6  0.1529770E-007  0.1343216E+04  0.7818608E-02  0.8995979E-01
         -3   -1    0    0    0  501 -0.00000000000E+00  0.00000000000E+00  0.25118249650E+03  0.25118249650E+03  0.00000000000E+00 0.  1.
          4   -1    0    0  501    0  0.00000000000E+00 -0.00000000000E+00 -0.17957354164E+04  0.17957354164E+04  0.00000000000E+00 0. -1.
         24    2    1    2    0    0 -0.23005842600E+03 -0.94734355345E+02 -0.83489477254E+03  0.87494664528E+03  0.81122582634E+02 0.  0.
        254    2    1    2    0    0  0.23005842600E+03  0.94734355345E+02 -0.70965814737E+03  0.11719712676E+04  0.89888847393E+03 0.  0.
         23    2    4    4    0    0  0.16122882411E+03  0.34776909898E+02 -0.91231412404E+03  0.93160116022E+03  0.91430266377E+02 0.  0.
         23    2    4    4    0    0  0.68829601894E+02  0.59957445447E+02  0.20265597667E+03  0.24037010741E+03  0.91520130554E+02 0.  0.
          4    1    3    3  502    0 -0.19932543039E+03 -0.10732128019E+03 -0.68581074290E+03  0.72220832138E+03  0.00000000000E+00 0. -1.
         -3    1    3    3    0  502 -0.30732995613E+02  0.12586924844E+02 -0.14908402964E+03  0.15273832391E+03  0.00000000000E+00 0.  1.
         11    1    5    5    0    0  0.47328843698E+02  0.39103366524E+02 -0.17339837022E+03  0.18394588203E+03  0.00000000000E+00 0. -1.
        -11    1    5    5    0    0  0.11389998041E+03 -0.43264566258E+01 -0.73891575382E+03  0.74765527819E+03  0.00000000000E+00 0.  1.
          4    1    6    6  503    0 -0.59203291019E+01  0.50578779906E+02  0.57353162476E+02  0.76698425795E+02  0.00000000000E+00 0. -1.
         -4    1    6    6    0  503  0.74749930996E+02  0.93786655406E+01  0.14530281419E+03  0.16367168162E+03  0.00000000000E+00 0.  1.
<mgrwt>
<rscale>  0 0.13432160E+04</rscale>
<asrwt>0</asrwt>
<pdfrwt beam="1">  1        4 0.27626700E+00 0.13432160E+04</pdfrwt>
<pdfrwt beam="2">  1       -3 0.38643460E-01 0.13432160E+04</pdfrwt>
<totfact> 0.64878008E-01</totfact>
</mgrwt>
</event>
<event>
12    6  0.1529770E-007  0.1427457E+04  0.7818608E-02  0.8934180E-01
          2   -1    0    0  501    0  0.00000000000E+00  0.00000000000E+00  0.10521376908E+04  0.10521376908E+04  0.00000000000E+00 0. -1.
         -1   -1    0    0    0  501 -0.00000000000E+00 -0.00000000000E+00 -0.48416502756E+03  0.48416502756E+03  0.00000000000E+00 0.  1.
         24    2    1    2    0    0 -0.19916177219E+03  0.36089811955E+03  0.20751381646E+03  0.46837986510E+03  0.80030305626E+02 0.  0.
        254    2    1    2    0    0  0.19916177219E+03 -0.36089811955E+03  0.36045884677E+03  0.10679228532E+04  0.91685101084E+03 0.  0.
         23    2    4    4    0    0  0.53869529625E+03 -0.74502164909E+02  0.17994160248E+03  0.58013639393E+03  0.91848029246E+02 0.  0.
         23    2    4    4    0    0 -0.33953352406E+03 -0.28639595464E+03  0.18051724428E+03  0.48778645932E+03  0.89685548552E+02 0.  0.
          2    1    3    3  502    0 -0.37395468667E+01 -0.42566064131E+01  0.17998541282E+01  0.59449460727E+01  0.00000000000E+00 0. -1.
         -1    1    3    3    0  502 -0.19542222532E+03  0.36515472596E+03  0.20571396233E+03  0.46243491903E+03  0.00000000000E+00 0.  1.
         11    1    5    5    0    0  0.16917331506E+03 -0.66397860128E+02  0.66237033567E+02  0.19343120476E+03  0.00000000000E+00 0. -1.
        -11    1    5    5    0    0  0.36952198119E+03 -0.81043047811E+01  0.11370456892E+03  0.38670518917E+03  0.00000000000E+00 0.  1.
          4    1    6    6  503    0 -0.13579174727E+03 -0.59964136849E+02  0.64228308851E+02  0.16174168291E+03  0.00000000000E+00 0. -1.
         -4    1    6    6    0  503 -0.20374177679E+03 -0.22643181779E+03  0.11628893543E+03  0.32604477641E+03  0.00000000000E+00 0.  1.
<mgrwt>
<rscale>  0 0.14274569E+04</rscale>
<asrwt>0</asrwt>
<pdfrwt beam="1">  1        2 0.16186734E+00 0.14274569E+04</pdfrwt>
<pdfrwt beam="2">  1       -1 0.74486927E-01 0.14274569E+04</pdfrwt>
<totfact> 0.46908361E+01</totfact>
</mgrwt>
</event>
<event>
12    6  0.1529770E-007  0.1633108E+04  0.7818608E-02  0.8800463E-01
          2   -1    0    0  501    0  0.00000000000E+00  0.00000000000E+00  0.11029794692E+04  0.11029794692E+04  0.00000000000E+00 0. -1.
         -1   -1    0    0    0  501 -0.00000000000E+00 -0.00000000000E+00 -0.60450869783E+03  0.60450869783E+03  0.00000000000E+00 0.  1.
         24    2    1    2    0    0  0.38416498776E+02  0.83691325294E+02 -0.40654133943E+03  0.42434366509E+03  0.79445705541E+02 0.  0.
        254    2    1    2    0    0 -0.38416498776E+02 -0.83691325294E+02  0.90501211083E+03  0.12831445020E+04  0.90494907420E+03 0.  0.
         23    2    4    4    0    0  0.17716494393E+03 -0.43907173724E+03  0.52607093678E+03  0.71356584957E+03  0.90852536323E+02 0.  0.
         23    2    4    4    0    0 -0.21558144271E+03  0.35538041194E+03  0.37894117405E+03  0.56957865240E+03  0.89737574340E+02 0.  0.
          4    1    3    3  502    0 -0.18568843973E+02  0.51875950630E+02 -0.15613941490E+03  0.16557606441E+03  0.00000000000E+00 0. -1.
         -3    1    3    3    0  502  0.56985342749E+02  0.31815374664E+02 -0.25040192453E+03  0.25876760068E+03  0.00000000000E+00 0.  1.
         11    1    5    5    0    0  0.16130589497E+03 -0.30282397016E+03  0.34687649239E+03  0.48789881085E+03  0.00000000000E+00 0.  1.
        -11    1    5    5    0    0  0.15859048966E+02 -0.13624776708E+03  0.17919444439E+03  0.22566703873E+03  0.00000000000E+00 0. -1.
          4    1    6    6  503    0 -0.65666354782E+01  0.70965870146E+02  0.49582225089E+02  0.86819770052E+02  0.00000000000E+00 0. -1.
         -4    1    6    6    0  503 -0.20901480723E+03  0.28441454180E+03  0.32935894896E+03  0.48275888235E+03  0.00000000000E+00 0.  1.
<mgrwt>
<rscale>  0 0.16331083E+04</rscale>
<asrwt>0</asrwt>
<pdfrwt beam="1">  1        2 0.16968915E+00 0.16331083E+04</pdfrwt>
<pdfrwt beam="2">  1       -1 0.93001338E-01 0.16331083E+04</pdfrwt>
<totfact> 0.26583754E+01</totfact>
</mgrwt>
</event>
<event>
12    6  0.1529770E-007  0.2047382E+04  0.7818608E-02  0.8584783E-01
         -3   -1    0    0    0  501 -0.00000000000E+00  0.00000000000E+00  0.31083244382E+03  0.31083244382E+03  0.00000000000E+00 0.  1.
          2   -1    0    0  501    0  0.00000000000E+00 -0.00000000000E+00 -0.33714096111E+04  0.33714096111E+04  0.00000000000E+00 0. -1.
         24    2    1    2    0    0 -0.31441189618E+03  0.24549104016E+03 -0.25253757067E+04  0.25578759531E+04  0.78014357550E+02 0.  0.
        254    2    1    2    0    0  0.31441189618E+03 -0.24549104016E+03 -0.53520146057E+03  0.11243661019E+04  0.90478607215E+03 0.  0.
         23    2    4    4    0    0  0.54119630665E+03  0.83256906347E+02 -0.42809008048E+03  0.70084937755E+03  0.90019876799E+02 0.  0.
         23    2    4    4    0    0 -0.22678441047E+03 -0.32874794651E+03 -0.10711138009E+03  0.42351672431E+03  0.91581585812E+02 0.  0.
          4    1    3    3  502    0 -0.12653076198E+03  0.14619944929E+03 -0.12727690138E+04  0.12873714597E+04  0.00000000000E+00 0. -1.
         -3    1    3    3    0  502 -0.18788113420E+03  0.99291590874E+02 -0.12526066930E+04  0.12705044934E+04  0.00000000000E+00 0.  1.
         11    1    5    5    0    0  0.28796197790E+02  0.99222035570E+01 -0.21941588031E+01  0.30536624952E+02  0.00000000000E+00 0.  1.
        -11    1    5    5    0    0  0.51240010886E+03  0.73334702790E+02 -0.42589592168E+03  0.67031275260E+03  0.00000000000E+00 0. -1.
          2    1    6    6  503    0 -0.13631417939E+03 -0.14097463996E+03 -0.85630482948E+02  0.21398127073E+03  0.00000000000E+00 0.  1.
         -2    1    6    6    0  503 -0.90470231083E+02 -0.18777330655E+03 -0.21480897144E+02  0.20953545358E+03  0.00000000000E+00 0. -1.
<mgrwt>
<rscale>  0 0.20473822E+04</rscale>
<asrwt>0</asrwt>
<pdfrwt beam="1">  1        2 0.51867841E+00 0.20473822E+04</pdfrwt>
<pdfrwt beam="2">  1       -3 0.47820375E-01 0.20473822E+04</pdfrwt>
<totfact> 0.26033024E+00</totfact>
</mgrwt>
</event>
<event>
12    6  0.1529770E-007  0.1187124E+04  0.7818608E-02  0.9124202E-01
         -1   -1    0    0    0  501 -0.00000000000E+00  0.00000000000E+00  0.42272122505E+03  0.42272122505E+03  0.00000000000E+00 0.  1.
          2   -1    0    0  501    0  0.00000000000E+00 -0.00000000000E+00 -0.83344775123E+03  0.83344775123E+03  0.00000000000E+00 0. -1.
         24    2    1    2    0    0 -0.69121650330E+02  0.17085411691E+03 -0.25374845614E+03  0.32237494887E+03  0.74621691586E+02 0.  0.
        254    2    1    2    0    0  0.69121650330E+02 -0.17085411691E+03 -0.15697807004E+03  0.93379402742E+03  0.90186486757E+03 0.  0.
         23    2    4    4    0    0 -0.26933747216E+03 -0.18587030170E+03  0.23069091138E+03  0.41093043004E+03  0.92493668862E+02 0.  0.
         23    2    4    4    0    0  0.33845912249E+03  0.15016184792E+02 -0.38766898142E+03  0.52286359738E+03  0.91208765503E+02 0.  0.
          2    1    3    3  502    0 -0.74473825454E+02  0.16868258076E+03 -0.21518318533E+03  0.28337954580E+03  0.00000000000E+00 0. -1.
         -1    1    3    3    0  502  0.53521751242E+01  0.21715361504E+01 -0.38565270809E+02  0.38995403068E+02  0.00000000000E+00 0.  1.
         11    1    5    5    0    0 -0.21811375539E+03 -0.17068705549E+03  0.15232834564E+03  0.31608797207E+03  0.00000000000E+00 0. -1.
        -11    1    5    5    0    0 -0.51223716772E+02 -0.15183246206E+02  0.78362565737E+02  0.94842457972E+02  0.00000000000E+00 0.  1.
          4    1    6    6  503    0  0.22913079522E+03  0.52088979660E+02 -0.24755684002E+03  0.34131887167E+03  0.00000000000E+00 0. -1.
         -4    1    6    6    0  503  0.10932832727E+03 -0.37072794868E+02 -0.14011214140E+03  0.18154472571E+03  0.00000000000E+00 0.  1.
<mgrwt>
<rscale>  0 0.11871243E+04</rscale>
<asrwt>0</asrwt>
<pdfrwt beam="1">  1        2 0.12822273E+00 0.11871243E+04</pdfrwt>
<pdfrwt beam="2">  1       -1 0.65034035E-01 0.11871243E+04</pdfrwt>
<totfact> 0.88108724E+01</totfact>
</mgrwt>
</event>
<event>
12    6  0.1529770E-007  0.1856143E+04  0.7818608E-02  0.8677000E-01
          2   -1    0    0  501    0  0.00000000000E+00  0.00000000000E+00  0.16456330516E+04  0.16456330516E+04  0.00000000000E+00 0. -1.
         -1   -1    0    0    0  501 -0.00000000000E+00 -0.00000000000E+00 -0.52339530377E+03  0.52339530377E+03  0.00000000000E+00 0.  1.
         24    2    1    2    0    0 -0.47365845392E+03 -0.41585929362E+03  0.77856640768E+02  0.64005930534E+03  0.79517135071E+02 0.  0.
        254    2    1    2    0    0  0.47365845392E+03  0.41585929362E+03  0.10443811070E+04  0.15289690500E+04  0.92180430465E+03 0.  0.
         23    2    4    4    0    0  0.37286615425E+03  0.34766613243E+03  0.12024752953E+04  0.13093577219E+04  0.92573751631E+02 0.  0.
         23    2    4    4    0    0  0.10079229968E+03  0.68193161190E+02 -0.15809418823E+03  0.21961132813E+03  0.91793072623E+02 0.  0.
          2    1    3    3  502    0 -0.18690879886E+03 -0.15433777896E+03 -0.82125439666E+01  0.24253349250E+03  0.00000000000E+00 0. -1.
         -3    1    3    3    0  502 -0.28674965507E+03 -0.26152151466E+03  0.86069184734E+02  0.39752581284E+03  0.00000000000E+00 0.  1.
         11    1    5    5    0    0  0.17834562017E+03  0.10507141481E+03  0.46304966362E+03  0.50721016691E+03  0.00000000000E+00 0.  1.
        -11    1    5    5    0    0  0.19452053408E+03  0.24259471762E+03  0.73942563166E+03  0.80214755497E+03  0.00000000000E+00 0. -1.
          2    1    6    6  503    0  0.41536889615E+02 -0.87035533295E+01 -0.11820810564E+02  0.44054473120E+02  0.00000000000E+00 0. -1.
         -2    1    6    6    0  503  0.59255410060E+02  0.76896714519E+02 -0.14627337767E+03  0.17555685501E+03  0.00000000000E+00 0.  1.
<mgrwt>
<rscale>  0 0.18561429E+04</rscale>
<asrwt>0</asrwt>
<pdfrwt beam="1">  1        2 0.25317431E+00 0.18561429E+04</pdfrwt>
<pdfrwt beam="2">  1       -1 0.80522355E-01 0.18561429E+04</pdfrwt>
<totfact> 0.17318932E+01</totfact>
</mgrwt>
</event>
<event>
12    6  0.1529770E-007  0.1482085E+04  0.7818608E-02  0.8896454E-01
          2   -1    0    0  501    0  0.00000000000E+00  0.00000000000E+00  0.32967598031E+04  0.32967598031E+04  0.00000000000E+00 0. -1.
         -1   -1    0    0    0  501 -0.00000000000E+00 -0.00000000000E+00 -0.16657088171E+03  0.16657088171E+03  0.00000000000E+00 0.  1.
         24    2    1    2    0    0  0.12250979866E+03  0.11162231559E+02  0.20334126497E+04  0.20387530589E+04  0.81325181365E+02 0.  0.
        254    2    1    2    0    0 -0.12250979866E+03 -0.11162231559E+02  0.10967762717E+04  0.14245776259E+04  0.90076077615E+03 0.  0.
         23    2    4    4    0    0 -0.49010854194E+02  0.38232152740E+03  0.86819039619E+03  0.95462097705E+03  0.94735588004E+02 0.  0.
         23    2    4    4    0    0 -0.73498944470E+02 -0.39348375896E+03  0.22858587547E+03  0.46995664882E+03  0.91521505115E+02 0.  0.
          4    1    3    3  502    0  0.71944783294E+02  0.33019890453E+02  0.15840081781E+04  0.15859849537E+04  0.00000000000E+00 0. -1.
         -3    1    3    3    0  502  0.50565015371E+02 -0.21857658894E+02  0.44940447161E+03  0.45276810525E+03  0.00000000000E+00 0.  1.
         11    1    5    5    0    0 -0.71856979313E+02  0.23882848277E+03  0.59592563475E+03  0.64601070565E+03  0.00000000000E+00 0.  1.
        -11    1    5    5    0    0  0.22846125119E+02  0.14349304463E+03  0.27226476144E+03  0.30861027139E+03  0.00000000000E+00 0. -1.
          3    1    6    6  503    0 -0.44357982130E+02 -0.20064786840E+03  0.16891614926E+03  0.26600726147E+03  0.00000000000E+00 0. -1.
         -3    1    6    6    0  503 -0.29140962340E+02 -0.19283589056E+03  0.59669726208E+02  0.20394938735E+03  0.00000000000E+00 0.  1.
<mgrwt>
<rscale>  0 0.14820853E+04</rscale>
<asrwt>0</asrwt>
<pdfrwt beam="1">  1        2 0.50719377E+00 0.14820853E+04</pdfrwt>
<pdfrwt beam="2">  1       -1 0.25626292E-01 0.14820853E+04</pdfrwt>
<totfact> 0.16746871E+01</totfact>
</mgrwt>
</event>
<event>
12    6  0.1529770E-007  0.1441434E+04  0.7818608E-02  0.8924361E-01
         -1   -1    0    0    0  501 -0.00000000000E+00  0.00000000000E+00  0.60724343392E+03  0.60724343392E+03  0.00000000000E+00 0.  1.
          2   -1    0    0  501    0  0.00000000000E+00 -0.00000000000E+00 -0.85539492127E+03  0.85539492127E+03  0.00000000000E+00 0. -1.
         24    2    1    2    0    0  0.84174380366E+02  0.19300630029E+03 -0.45964896765E+03  0.51151539834E+03  0.77679283010E+02 0.  0.
        254    2    1    2    0    0 -0.84174380366E+02 -0.19300630029E+03  0.21149748030E+03  0.95112295685E+03  0.90308744683E+03 0.  0.
         23    2    4    4    0    0  0.26691851306E+03 -0.10447053221E+03 -0.22534972657E+03  0.37602231860E+03  0.91927689543E+02 0.  0.
         23    2    4    4    0    0 -0.35109289343E+03 -0.88535768087E+02  0.43684720687E+03  0.57510063826E+03  0.93810766592E+02 0.  0.
          2    1    3    3  502    0  0.87709174866E+02  0.16661364480E+03 -0.43946157223E+03  0.47809986347E+03  0.00000000000E+00 0. -1.
         -1    1    3    3    0  502 -0.35347945004E+01  0.26392655494E+02 -0.20187395427E+02  0.33415534865E+02  0.00000000000E+00 0.  1.
         11    1    5    5    0    0  0.15670416889E+01 -0.23338802970E+02 -0.20758266295E+02  0.31273966223E+02  0.00000000000E+00 0.  1.
        -11    1    5    5    0    0  0.26535147137E+03 -0.81131729236E+02 -0.20459146027E+03  0.34474835238E+03  0.00000000000E+00 0. -1.
          3    1    6    6  503    0 -0.26327089641E+03 -0.10305316638E+03  0.30358553796E+03  0.41484418623E+03  0.00000000000E+00 0. -1.
         -3    1    6    6    0  503 -0.87821997021E+02  0.14517398292E+02  0.13326166891E+03  0.16025645202E+03  0.00000000000E+00 0.  1.
<mgrwt>
<rscale>  0 0.14414339E+04</rscale>
<asrwt>0</asrwt>
<pdfrwt beam="1">  1        2 0.13159922E+00 0.14414339E+04</pdfrwt>
<pdfrwt beam="2">  1       -1 0.93422068E-01 0.14414339E+04</pdfrwt>
<totfact> 0.38761910E+01</totfact>
</mgrwt>
</event>
<event>
12    6  0.1529770E-007  0.2130303E+04  0.7818608E-02  0.8548011E-01
          2   -1    0    0  501    0  0.00000000000E+00  0.00000000000E+00  0.14625232248E+04  0.14625232248E+04  0.00000000000E+00 0. -1.
         -1   -1    0    0    0  501 -0.00000000000E+00 -0.00000000000E+00 -0.77574709327E+03  0.77574709327E+03  0.00000000000E+00 0.  1.
         24    2    1    2    0    0 -0.26266421692E+03 -0.70712766151E+03  0.73582569173E+03  0.10565021517E+04  0.75731944920E+02 0.  0.
        254    2    1    2    0    0  0.26266421692E+03  0.70712766151E+03 -0.49049560163E+02  0.11817681664E+04  0.90837663951E+03 0.  0.
         23    2    4    4    0    0  0.30462659363E+02  0.31303592160E+03 -0.45729943867E+03  0.56266980841E+03  0.92493647641E+02 0.  0.
         23    2    4    4    0    0  0.23220155755E+03  0.39409173991E+03  0.40824987851E+03  0.61909835798E+03  0.85959006203E+02 0.  0.
          2    1    3    3  502    0 -0.25480341550E+02 -0.98056797647E+02  0.13417518817E+03  0.16812901145E+03  0.00000000000E+00 0. -1.
         -1    1    3    3    0  502 -0.23718387537E+03 -0.60907086386E+03  0.60165050356E+03  0.88837314028E+03  0.00000000000E+00 0.  1.
         11    1    5    5    0    0  0.22899918815E+02  0.12184675072E+03 -0.10811613738E+03  0.16449965382E+03  0.00000000000E+00 0.  1.
        -11    1    5    5    0    0  0.75627405477E+01  0.19118917088E+03 -0.34918330129E+03  0.39817015459E+03  0.00000000000E+00 0. -1.
          3    1    6    6  503    0  0.17829541527E+03  0.26574496247E+03  0.23597965670E+03  0.39761292554E+03  0.00000000000E+00 0. -1.
         -3    1    6    6    0  503  0.53906142281E+02  0.12834677744E+03  0.17227022182E+03  0.22148543243E+03  0.00000000000E+00 0.  1.
<mgrwt>
<rscale>  0 0.21303034E+04</rscale>
<asrwt>0</asrwt>
<pdfrwt beam="1">  1        2 0.22500357E+00 0.21303034E+04</pdfrwt>
<pdfrwt beam="2">  1       -1 0.11934571E+00 0.21303034E+04</pdfrwt>
<totfact> 0.87603695E+00</totfact>
</mgrwt>
</event>
<event>
12    6  0.1529770E-007  0.1982844E+04  0.7818608E-02  0.8614684E-01
          2   -1    0    0  501    0  0.00000000000E+00  0.00000000000E+00  0.79309659294E+03  0.79309659294E+03  0.00000000000E+00 0. -1.
         -1   -1    0    0    0  501 -0.00000000000E+00 -0.00000000000E+00 -0.12393420550E+04  0.12393420550E+04  0.00000000000E+00 0.  1.
         24    2    1    2    0    0  0.93732320983E+02 -0.24211479549E+03 -0.93356920018E+03  0.97262081134E+03  0.83871741056E+02 0.  0.
        254    2    1    2    0    0 -0.93732320983E+02  0.24211479549E+03  0.48732373813E+03  0.10598178366E+04  0.90461267888E+03 0.  0.
         23    2    4    4    0    0 -0.12746095513E+03 -0.32146542776E+03  0.10828953385E+03  0.37379134297E+03  0.91689850097E+02 0.  0.
         23    2    4    4    0    0  0.33728634147E+02  0.56358022325E+03  0.37903420428E+03  0.68602649360E+03  0.90582189752E+02 0.  0.
          4    1    3    3  502    0  0.32932985585E+02 -0.58050853554E+02 -0.13160195639E+03  0.14755865974E+03  0.00000000000E+00 0. -1.
         -3    1    3    3    0  502  0.60799335398E+02 -0.18406394193E+03 -0.80196724378E+03  0.82506215160E+03  0.00000000000E+00 0.  1.
         11    1    5    5    0    0 -0.82936462984E+02 -0.20345995450E+03  0.11401524668E+03  0.24753562663E+03  0.00000000000E+00 0.  1.
        -11    1    5    5    0    0 -0.44524492146E+02 -0.11800547327E+03 -0.57257128323E+01  0.12625571634E+03  0.00000000000E+00 0. -1.
          4    1    6    6  503    0 -0.60539961790E+01  0.28458201416E+03  0.23722287663E+03  0.37053780759E+03  0.00000000000E+00 0. -1.
         -4    1    6    6    0  503  0.39782630326E+02  0.27899820909E+03  0.14181132766E+03  0.31548868601E+03  0.00000000000E+00 0.  1.
<mgrwt>
<rscale>  0 0.19828444E+04</rscale>
<asrwt>0</asrwt>
<pdfrwt beam="1">  1        2 0.12201486E+00 0.19828444E+04</pdfrwt>
<pdfrwt beam="2">  1       -1 0.19066801E+00 0.19828444E+04</pdfrwt>
<totfact> 0.64669819E+00</totfact>
</mgrwt>
</event>
<event>
12    6  0.1529770E-007  0.1409969E+04  0.7818608E-02  0.8946634E-01
         -1   -1    0    0    0  501 -0.00000000000E+00  0.00000000000E+00  0.49690543082E+03  0.49690543082E+03  0.00000000000E+00 0.  1.
          2   -1    0    0  501    0  0.00000000000E+00 -0.00000000000E+00 -0.10001971129E+04  0.10001971129E+04  0.00000000000E+00 0. -1.
         24    2    1    2    0    0 -0.12605086473E+03 -0.95599140870E+02 -0.54976268480E+03  0.57781367494E+03  0.81250336086E+02 0.  0.
        254    2    1    2    0    0  0.12605086473E+03  0.95599140870E+02  0.46471002717E+02  0.91928886878E+03  0.90438070188E+03 0.  0.
         23    2    4    4    0    0  0.26709756590E+03  0.42868126331E+03 -0.91654831037E+02  0.52152207313E+03  0.92064811346E+02 0.  0.
         23    2    4    4    0    0 -0.14104670117E+03 -0.33308212244E+03  0.13812583375E+03  0.39776679565E+03  0.91114244601E+02 0.  0.
          4    1    3    3  502    0 -0.13265514633E+03 -0.81458746302E+02 -0.43541377532E+03  0.46240466146E+03  0.00000000000E+00 0. -1.
         -3    1    3    3    0  502  0.66042816027E+01 -0.14140394569E+02 -0.11434890947E+03  0.11540901348E+03  0.00000000000E+00 0.  1.
         11    1    5    5    0    0  0.20301088250E+03  0.31642551072E+03 -0.26802488459E+02  0.37690435873E+03  0.00000000000E+00 0. -1.
        -11    1    5    5    0    0  0.64086683407E+02  0.11225575259E+03 -0.64852342579E+02  0.14461771440E+03  0.00000000000E+00 0.  1.
          3    1    6    6  503    0 -0.11039888234E+03 -0.23566818563E+03  0.54771598559E+02  0.26594611287E+03  0.00000000000E+00 0. -1.
         -3    1    6    6    0  503 -0.30647818831E+02 -0.97413936810E+02  0.83354235195E+02  0.13182068278E+03  0.00000000000E+00 0.  1.
<mgrwt>
<rscale>  0 0.14099693E+04</rscale>
<asrwt>0</asrwt>
<pdfrwt beam="1">  1        2 0.15387648E+00 0.14099693E+04</pdfrwt>
<pdfrwt beam="2">  1       -1 0.76446990E-01 0.14099693E+04</pdfrwt>
<totfact> 0.48002807E+01</totfact>
</mgrwt>
</event>
<event>
12    6  0.1529770E-007  0.1791502E+04  0.7818608E-02  0.8710832E-01
          2   -1    0    0  501    0  0.00000000000E+00  0.00000000000E+00  0.13443787410E+04  0.13443787410E+04  0.00000000000E+00 0. -1.
         -1   -1    0    0    0  501 -0.00000000000E+00 -0.00000000000E+00 -0.59683301468E+03  0.59683301468E+03  0.00000000000E+00 0.  1.
         24    2    1    2    0    0 -0.24807108866E+03  0.61768969416E+03  0.36378142780E+03  0.76287805767E+03  0.81031971232E+02 0.  0.
        254    2    1    2    0    0  0.24807108866E+03 -0.61768969416E+03  0.38376429855E+03  0.11783336980E+04  0.89337307088E+03 0.  0.
         23    2    4    4    0    0  0.28832915685E+03 -0.70026843058E+03 -0.10534943626E+02  0.76281947611E+03  0.90955981298E+02 0.  0.
         23    2    4    4    0    0 -0.40258068188E+02  0.82578736423E+02  0.39429924218E+03  0.41551422192E+03  0.93489124901E+02 0.  0.
          4    1    3    3  502    0 -0.61838838815E+02  0.16672321085E+03  0.57875311428E+02  0.18700326921E+03  0.00000000000E+00 0. -1.
         -3    1    3    3    0  502 -0.18623224984E+03  0.45096648332E+03  0.30590611637E+03  0.57587478846E+03  0.00000000000E+00 0.  1.
         11    1    5    5    0    0  0.41757795553E+02 -0.47062769660E+02 -0.14703956819E+02  0.64612878930E+02  0.00000000000E+00 0. -1.
        -11    1    5    5    0    0  0.24657136129E+03 -0.65320566092E+03  0.41690131926E+01  0.69820659718E+03  0.00000000000E+00 0.  1.
          4    1    6    6  503    0  0.20058164657E+02  0.10718149103E+02  0.18191401378E+03  0.18333007691E+03  0.00000000000E+00 0. -1.
         -4    1    6    6    0  503 -0.60316232845E+02  0.71860587320E+02  0.21238522840E+03  0.23218414501E+03  0.00000000000E+00 0.  1.
<mgrwt>
<rscale>  0 0.17915017E+04</rscale>
<asrwt>0</asrwt>
<pdfrwt beam="1">  1        2 0.20682750E+00 0.17915017E+04</pdfrwt>
<pdfrwt beam="2">  1       -1 0.91820465E-01 0.17915017E+04</pdfrwt>
<totfact> 0.19384121E+01</totfact>
</mgrwt>
</event>
<event>
12    6  0.1529770E-007  0.1334333E+04  0.7818608E-02  0.9002774E-01
          2   -1    0    0  501    0  0.00000000000E+00  0.00000000000E+00  0.29921831936E+04  0.29921831936E+04  0.00000000000E+00 0. -1.
         -1   -1    0    0    0  501 -0.00000000000E+00 -0.00000000000E+00 -0.14875787883E+03  0.14875787883E+03  0.00000000000E+00 0.  1.
         24    2    1    2    0    0  0.92145589751E+02  0.10129587147E+03  0.15324854858E+04  0.15406198672E+04  0.79032574460E+02 0.  0.
        254    2    1    2    0    0 -0.92145589751E+02 -0.10129587147E+03  0.13109398290E+04  0.16003212053E+04  0.90758639333E+03 0.  0.
         23    2    4    4    0    0 -0.14721297059E+03 -0.37185335230E+03  0.12327558571E+04  0.12988283348E+04  0.85565562795E+02 0.  0.
         23    2    4    4    0    0  0.55067380840E+02  0.27055748083E+03  0.78183971905E+02  0.30149287051E+03  0.92474053874E+02 0.  0.
          4    1    3    3  502    0  0.10515884790E+03  0.98446063325E+02  0.13550645850E+04  0.13626995414E+04  0.00000000000E+00 0. -1.
         -3    1    3    3    0  502 -0.13013258146E+02  0.28498081484E+01  0.17742090079E+03  0.17792032580E+03  0.00000000000E+00 0.  1.
         11    1    5    5    0    0 -0.14158162261E+03 -0.37484356179E+03  0.11911900789E+04  0.12567763746E+04  0.00000000000E+00 0. -1.
        -11    1    5    5    0    0 -0.56313479788E+01  0.29902094891E+01  0.41565778243E+02  0.42051960166E+02  0.00000000000E+00 0.  1.
          2    1    6    6  503    0 -0.34052570344E+01  0.12675605366E+02 -0.16088164105E+02  0.20762845931E+02  0.00000000000E+00 0.  1.
         -2    1    6    6    0  503  0.58472637874E+02  0.25788187546E+03  0.94272136010E+02  0.28073002458E+03  0.00000000000E+00 0. -1.
<mgrwt>
<rscale>  0 0.13343325E+04</rscale>
<asrwt>0</asrwt>
<pdfrwt beam="1">  1        2 0.46033583E+00 0.13343325E+04</pdfrwt>
<pdfrwt beam="2">  1       -1 0.22885830E-01 0.13343325E+04</pdfrwt>
<totfact> 0.32283408E+01</totfact>
</mgrwt>
</event>
<event>
12    6  0.1529770E-007  0.2501891E+04  0.7818608E-02  0.8402312E-01
         -1   -1    0    0    0  501 -0.00000000000E+00  0.00000000000E+00  0.94331931494E+03  0.94331931494E+03  0.00000000000E+00 0.  1.
          2   -1    0    0  501    0  0.00000000000E+00 -0.00000000000E+00 -0.16588913894E+04  0.16588913894E+04  0.00000000000E+00 0. -1.
         24    2    1    2    0    0  0.11211263603E+03 -0.80544469564E+03  0.43864433775E+03  0.92746537606E+03  0.80453513706E+02 0.  0.
        254    2    1    2    0    0 -0.11211263603E+03  0.80544469564E+03 -0.11542164122E+04  0.16747453282E+04  0.90069194926E+03 0.  0.
         23    2    4    4    0    0 -0.31738489411E+03  0.31458458284E+03 -0.67347190172E+02  0.46111442029E+03  0.91620051295E+02 0.  0.
         23    2    4    4    0    0  0.20527225807E+03  0.49086011280E+03 -0.10868692220E+04  0.12136309079E+04  0.92384656567E+02 0.  0.
          2    1    3    3  502    0  0.30922670457E+02 -0.44628699806E+03  0.21162556536E+03  0.49488753885E+03  0.00000000000E+00 0. -1.
         -1    1    3    3    0  502  0.81189965578E+02 -0.35915769757E+03  0.22701877238E+03  0.43257783722E+03  0.00000000000E+00 0.  1.
         11    1    5    5    0    0 -0.45032949488E+02  0.75624828286E+02  0.15674343836E+02  0.89402272049E+02  0.00000000000E+00 0.  1.
        -11    1    5    5    0    0 -0.27235194462E+03  0.23895975456E+03 -0.83021534008E+02  0.37171214824E+03  0.00000000000E+00 0. -1.
          2    1    6    6  503    0  0.21897398399E+02  0.14069907743E+02 -0.87217632082E+02  0.91018534961E+02  0.00000000000E+00 0. -1.
         -2    1    6    6    0  503  0.18337485967E+03  0.47679020505E+03 -0.99965158990E+03  0.11226123730E+04  0.00000000000E+00 0.  1.
<mgrwt>
<rscale>  0 0.25018907E+04</rscale>
<asrwt>0</asrwt>
<pdfrwt beam="1">  1        2 0.25521406E+00 0.25018907E+04</pdfrwt>
<pdfrwt beam="2">  1       -1 0.14512605E+00 0.25018907E+04</pdfrwt>
<totfact> 0.40014349E+00</totfact>
</mgrwt>
</event>
<event>
12    6  0.1529770E-007  0.1562526E+04  0.7818608E-02  0.8843907E-01
          2   -1    0    0  501    0  0.00000000000E+00  0.00000000000E+00  0.26225906129E+03  0.26225906129E+03  0.00000000000E+00 0. -1.
         -1   -1    0    0    0  501 -0.00000000000E+00 -0.00000000000E+00 -0.23273613220E+04  0.23273613220E+04  0.00000000000E+00 0.  1.
         24    2    1    2    0    0 -0.28615138165E+01 -0.18309897328E+02  0.16385966516E+03  0.18605948044E+03  0.86166697709E+02 0.  0.
        254    2    1    2    0    0  0.28615138165E+01  0.18309897328E+02 -0.22289619258E+04  0.24035609028E+04  0.89916089001E+03 0.  0.
         23    2    4    4    0    0  0.38053719846E+03  0.22925609648E+03 -0.10146687972E+04  0.11115336147E+04  0.92667639368E+02 0.  0.
         23    2    4    4    0    0 -0.37767568464E+03 -0.21094619915E+03 -0.12142931286E+04  0.12920272881E+04  0.87689733233E+02 0.  0.
          4    1    3    3  502    0 -0.32078636048E+02 -0.31037262297E+02  0.13793621617E+03  0.14497844761E+03  0.00000000000E+00 0. -1.
         -3    1    3    3    0  502  0.29217122232E+02  0.12727364968E+02  0.25923448994E+02  0.41081032829E+02  0.00000000000E+00 0.  1.
         11    1    5    5    0    0  0.24457606007E+03  0.10359381024E+03 -0.66021904649E+03  0.71164479625E+03  0.00000000000E+00 0.  1.
        -11    1    5    5    0    0  0.13596113839E+03  0.12566228624E+03 -0.35444975073E+03  0.39988881846E+03  0.00000000000E+00 0. -1.
          2    1    6    6  503    0 -0.25292942548E+03 -0.18527668482E+03 -0.89087418020E+03  0.94443504232E+03  0.00000000000E+00 0. -1.
         -2    1    6    6    0  503 -0.12474625916E+03 -0.25669514331E+02 -0.32341894841E+03  0.34759224579E+03  0.00000000000E+00 0.  1.
<mgrwt>
<rscale>  0 0.15625256E+04</rscale>
<asrwt>0</asrwt>
<pdfrwt beam="1">  1        2 0.40347547E-01 0.15625256E+04</pdfrwt>
<pdfrwt beam="2">  1       -1 0.35805559E+00 0.15625256E+04</pdfrwt>
<totfact> 0.19389895E+00</totfact>
</mgrwt>
</event>
<event>
12    6  0.1529770E-007  0.1134513E+04  0.7818608E-02  0.9172191E-01
          2   -1    0    0  501    0  0.00000000000E+00  0.00000000000E+00  0.24337683008E+03  0.24337683008E+03  0.00000000000E+00 0. -1.
         -1   -1    0    0    0  501 -0.00000000000E+00 -0.00000000000E+00 -0.13221472201E+04  0.13221472201E+04  0.00000000000E+00 0.  1.
         24    2    1    2    0    0 -0.14507755097E+03 -0.92378299514E+02 -0.61272745528E+02  0.19880634460E+03  0.78666176288E+02 0.  0.
        254    2    1    2    0    0  0.14507755097E+03  0.92378299514E+02 -0.10174976445E+04  0.13667177056E+04  0.89612196948E+03 0.  0.
         23    2    4    4    0    0 -0.25221796427E+03 -0.19488340992E+03 -0.14538201532E+03  0.36184307144E+03  0.90559555043E+02 0.  0.
         23    2    4    4    0    0  0.39729551523E+03  0.28726170944E+03 -0.87211562919E+03  0.10048746342E+04  0.93937977180E+02 0.  0.
          2    1    3    3  502    0 -0.75767022877E+01  0.78696714696E+01  0.95321279923E+01  0.14498262332E+02  0.00000000000E+00 0. -1.
         -1    1    3    3    0  502 -0.13750084868E+03 -0.10024797098E+03 -0.70804873520E+02  0.18430808226E+03  0.00000000000E+00 0.  1.
         11    1    5    5    0    0 -0.14169856370E+03 -0.15682211721E+03 -0.69532016600E+02  0.22250024884E+03  0.00000000000E+00 0.  1.
        -11    1    5    5    0    0 -0.11051940056E+03 -0.38061292710E+02 -0.75849998723E+02  0.13934282260E+03  0.00000000000E+00 0. -1.
          3    1    6    6  503    0  0.68732171424E+02  0.11687108276E+02 -0.10512411500E+03  0.12614190201E+03  0.00000000000E+00 0. -1.
         -3    1    6    6    0  503  0.32856334381E+03  0.27557460116E+03 -0.76699151420E+03  0.87873273215E+03  0.00000000000E+00 0.  1.
<mgrwt>
<rscale>  0 0.11345131E+04</rscale>
<asrwt>0</asrwt>
<pdfrwt beam="1">  1        2 0.37442589E-01 0.11345131E+04</pdfrwt>
<pdfrwt beam="2">  1       -1 0.20340726E+00 0.11345131E+04</pdfrwt>
<totfact> 0.22490577E+01</totfact>
</mgrwt>
</event>
<event>
12    6  0.1529770E-007  0.1499392E+04  0.7818608E-02  0.8884857E-01
         -1   -1    0    0    0  501 -0.00000000000E+00  0.00000000000E+00  0.31335597700E+03  0.31335597700E+03  0.00000000000E+00 0.  1.
          2   -1    0    0  501    0  0.00000000000E+00 -0.00000000000E+00 -0.17936286415E+04  0.17936286415E+04  0.00000000000E+00 0. -1.
         24    2    1    2    0    0 -0.41457057257E+03  0.10464556507E+03 -0.76639444032E+03  0.88118714148E+03  0.79441086557E+02 0.  0.
        254    2    1    2    0    0  0.41457057257E+03 -0.10464556507E+03 -0.71387822422E+03  0.12257974770E+04  0.90007659774E+03 0.  0.
         23    2    4    4    0    0  0.35095113983E+03 -0.48156404284E+03 -0.45918747171E+03  0.75761699930E+03  0.89776130157E+02 0.  0.
         23    2    4    4    0    0  0.63619432745E+02  0.37691847778E+03 -0.25469075251E+03  0.46818047775E+03  0.90612412060E+02 0.  0.
          4    1    3    3  502    0 -0.41032684213E+03  0.95963486736E+02 -0.72401644027E+03  0.83772126268E+03  0.00000000000E+00 0. -1.
         -3    1    3    3    0  502 -0.42437304388E+01  0.86820783290E+01 -0.42378000051E+02  0.43465878808E+02  0.00000000000E+00 0.  1.
         11    1    5    5    0    0  0.24469366844E+03 -0.32046233844E+03 -0.25717447124E+03  0.47823614501E+03  0.00000000000E+00 0.  1.
        -11    1    5    5    0    0  0.10625747139E+03 -0.16110170441E+03 -0.20201300046E+03  0.27938085429E+03  0.00000000000E+00 0. -1.
          1    1    6    6  503    0 -0.20156763130E+02  0.77392526561E+02 -0.34462052423E+02  0.87083473315E+02  0.00000000000E+00 0. -1.
         -1    1    6    6    0  503  0.83776195875E+02  0.29952595122E+03 -0.22022870009E+03  0.38109700443E+03  0.00000000000E+00 0.  1.
<mgrwt>
<rscale>  0 0.14993922E+04</rscale>
<asrwt>0</asrwt>
<pdfrwt beam="1">  1        2 0.27594287E+00 0.14993922E+04</pdfrwt>
<pdfrwt beam="2">  1       -1 0.48208612E-01 0.14993922E+04</pdfrwt>
<totfact> 0.41195543E+01</totfact>
</mgrwt>
</event>
<event>
12    6  0.1529770E-007  0.1635878E+04  0.7818608E-02  0.8798805E-01
          2   -1    0    0  501    0  0.00000000000E+00  0.00000000000E+00  0.62840346698E+03  0.62840346698E+03  0.00000000000E+00 0. -1.
         -1   -1    0    0    0  501 -0.00000000000E+00 -0.00000000000E+00 -0.10646407096E+04  0.10646407096E+04  0.00000000000E+00 0.  1.
         24    2    1    2    0    0 -0.73684643895E+02  0.43963756487E+03  0.21281513696E+03  0.50028686838E+03  0.79284632571E+02 0.  0.
        254    2    1    2    0    0  0.73684643895E+02 -0.43963756487E+03 -0.64905237961E+03  0.11927573082E+04  0.89592990220E+03 0.  0.
         23    2    4    4    0    0 -0.13432884976E+03 -0.64879902541E+03 -0.55766419033E+03  0.87041286117E+03  0.87434458058E+02 0.  0.
         23    2    4    4    0    0  0.20801349366E+03  0.20916146054E+03 -0.91388189281E+02  0.32234444706E+03  0.92390536791E+02 0.  0.
          2    1    3    3  502    0 -0.35346343764E+02  0.38007729839E+03  0.18504868069E+03  0.42420647213E+03  0.00000000000E+00 0. -1.
         -1    1    3    3    0  502 -0.38338300130E+02  0.59560266481E+02  0.27766456267E+02  0.76080396252E+02  0.00000000000E+00 0.  1.
         11    1    5    5    0    0 -0.24715777798E+02 -0.31145751982E+03 -0.28684568157E+03  0.42414278416E+03  0.00000000000E+00 0.  1.
        -11    1    5    5    0    0 -0.10961307196E+03 -0.33734150559E+03 -0.27081850876E+03  0.44627007700E+03  0.00000000000E+00 0. -1.
          2    1    6    6  503    0  0.11623627458E+03  0.76589677323E+02 -0.80351568527E+02  0.16072717494E+03  0.00000000000E+00 0. -1.
         -2    1    6    6    0  503  0.91777219079E+02  0.13257178322E+03 -0.11036620754E+02  0.16161727211E+03  0.00000000000E+00 0.  1.
<mgrwt>
<rscale>  0 0.16358776E+04</rscale>
<asrwt>0</asrwt>
<pdfrwt beam="1">  1        2 0.96677457E-01 0.16358776E+04</pdfrwt>
<pdfrwt beam="2">  1       -1 0.16379088E+00 0.16358776E+04</pdfrwt>
<totfact> 0.14011807E+01</totfact>
</mgrwt>
</event>
<event>
12    6  0.1529770E-007  0.2036830E+04  0.7818608E-02  0.8589593E-01
          2   -1    0    0  501    0  0.00000000000E+00  0.00000000000E+00  0.10618806086E+04  0.10618806086E+04  0.00000000000E+00 0. -1.
         -1   -1    0    0    0  501 -0.00000000000E+00 -0.00000000000E+00 -0.97672835470E+03  0.97672835470E+03  0.00000000000E+00 0.  1.
         24    2    1    2    0    0 -0.56837126001E+03 -0.52681630090E+03  0.28852668801E+03  0.83290230383E+03  0.99485144301E+02 0.  0.
        254    2    1    2    0    0  0.56837126001E+03  0.52681630090E+03 -0.20337443407E+03  0.12057066595E+04  0.90099172264E+03 0.  0.
         23    2    4    4    0    0  0.38763004367E+03  0.63588397009E+03 -0.44454122711E+03  0.87211954280E+03  0.91488360849E+02 0.  0.
         23    2    4    4    0    0  0.18074121634E+03 -0.10906766919E+03  0.24116679304E+03  0.33358711671E+03  0.92497560089E+02 0.  0.
          4    1    3    3  502    0 -0.36604601539E+03 -0.38766627495E+03  0.22875399550E+03  0.58017516026E+03  0.00000000000E+00 0. -1.
         -3    1    3    3    0  502 -0.20232524462E+03 -0.13915002594E+03  0.59772692513E+02  0.25272714358E+03  0.00000000000E+00 0.  1.
         11    1    5    5    0    0  0.27041197653E+03  0.39244318848E+03 -0.32379611010E+03  0.57617550638E+03  0.00000000000E+00 0. -1.
        -11    1    5    5    0    0  0.11721806714E+03  0.24344078161E+03 -0.12074511701E+03  0.29594403642E+03  0.00000000000E+00 0.  1.
          2    1    6    6  503    0  0.10810719830E+03 -0.49535843429E+02  0.69033074442E+02  0.13750102354E+03  0.00000000000E+00 0.  1.
         -2    1    6    6    0  503  0.72634018043E+02 -0.59531825762E+02  0.17213371859E+03  0.19608609317E+03  0.00000000000E+00 0. -1.
<mgrwt>
<rscale>  0 0.20368298E+04</rscale>
<asrwt>0</asrwt>
<pdfrwt beam="1">  1        2 0.16336625E+00 0.20368298E+04</pdfrwt>
<pdfrwt beam="2">  1       -1 0.15026590E+00 0.20368298E+04</pdfrwt>
<totfact> 0.84411192E+00</totfact>
</mgrwt>
</event>
<event>
12    6  0.1529770E-007  0.2052552E+04  0.7818608E-02  0.8582438E-01
         -1   -1    0    0    0  501 -0.00000000000E+00  0.00000000000E+00  0.76002143937E+03  0.76002143937E+03  0.00000000000E+00 0.  1.
          2   -1    0    0  501    0  0.00000000000E+00 -0.00000000000E+00 -0.13858059280E+04  0.13858059280E+04  0.00000000000E+00 0. -1.
         24    2    1    2    0    0  0.67910532617E+03 -0.46602043240E+03 -0.13229283435E+03  0.83880940350E+03  0.87981440834E+02 0.  0.
        254    2    1    2    0    0 -0.67910532617E+03  0.46602043240E+03 -0.49349165429E+03  0.13070179639E+04  0.88679358230E+03 0.  0.
         23    2    4    4    0    0  0.10509865878E+03 -0.73405813734E+02  0.93368582215E+02  0.18517123324E+03  0.95585312201E+02 0.  0.
         23    2    4    4    0    0 -0.78420398495E+03  0.53942624614E+03 -0.58686023651E+03  0.11218467306E+04  0.90435528468E+02 0.  0.
          4    1    3    3  502    0  0.44734914523E+02 -0.16000552731E+02 -0.24927592411E+02  0.53652727130E+02  0.00000000000E+00 0. -1.
         -3    1    3    3    0  502  0.63437041165E+03 -0.45001987967E+03 -0.10736524194E+03  0.78515667637E+03  0.00000000000E+00 0.  1.
         11    1    5    5    0    0  0.48798380980E+02 -0.47270566972E+02 -0.57917363909E+01  0.68186015418E+02  0.00000000000E+00 0.  1.
        -11    1    5    5    0    0  0.56300277803E+02 -0.26135246762E+02  0.99160318606E+02  0.11698521783E+03  0.00000000000E+00 0. -1.
          2    1    6    6  503    0 -0.52496598894E+03  0.31319173462E+03 -0.35421213909E+03  0.70650165722E+03  0.00000000000E+00 0. -1.
         -2    1    6    6    0  503 -0.25923799601E+03  0.22623451151E+03 -0.23264809742E+03  0.41534507341E+03  0.00000000000E+00 0.  1.
<mgrwt>
<rscale>  0 0.20525518E+04</rscale>
<asrwt>0</asrwt>
<pdfrwt beam="1">  1        2 0.21320091E+00 0.20525518E+04</pdfrwt>
<pdfrwt beam="2">  1       -1 0.11692638E+00 0.20525518E+04</pdfrwt>
<totfact> 0.10251940E+01</totfact>
</mgrwt>
</event>
<event>
12    6  0.1529770E-007  0.1883215E+04  0.7818608E-02  0.8663257E-01
          2   -1    0    0  501    0  0.00000000000E+00  0.00000000000E+00  0.15726367448E+04  0.15726367448E+04  0.00000000000E+00 0. -1.
         -1   -1    0    0    0  501 -0.00000000000E+00 -0.00000000000E+00 -0.56378204075E+03  0.56378204075E+03  0.00000000000E+00 0.  1.
         24    2    1    2    0    0 -0.26153041174E+03 -0.45014414351E+03 -0.17976482036E+03  0.55656531966E+03  0.80135249423E+02 0.  0.
        254    2    1    2    0    0  0.26153041174E+03  0.45014414351E+03  0.11886195244E+04  0.15798534659E+04  0.90116185764E+03 0.  0.
         23    2    4    4    0    0  0.23135127826E+03  0.13300657787E+03 -0.58991263358E+02  0.28898491402E+03  0.93904992790E+02 0.  0.
         23    2    4    4    0    0  0.30179133483E+02  0.31713756565E+03  0.12476107878E+04  0.12908685519E+04  0.91224584481E+02 0.  0.
          2    1    3    3  502    0 -0.13135962507E+03 -0.16701741175E+03 -0.45762485324E+02  0.21735770516E+03  0.00000000000E+00 0. -1.
         -1    1    3    3    0  502 -0.13017078667E+03 -0.28312673176E+03 -0.13400233504E+03  0.33920761450E+03  0.00000000000E+00 0.  1.
         11    1    5    5    0    0  0.51995576598E+02  0.99615590584E+01  0.21394032498E+02  0.57100589062E+02  0.00000000000E+00 0. -1.
        -11    1    5    5    0    0  0.17935570166E+03  0.12304501881E+03 -0.80385295855E+02  0.23188432496E+03  0.00000000000E+00 0.  1.
          3    1    6    6  503    0  0.20049281134E+02  0.49587252416E+02  0.11192124964E+03  0.12404529575E+03  0.00000000000E+00 0. -1.
         -3    1    6    6    0  503  0.10129852349E+02  0.26755031323E+03  0.11356895381E+04  0.11668232561E+04  0.00000000000E+00 0.  1.
<mgrwt>
<rscale>  0 0.18832146E+04</rscale>
<asrwt>0</asrwt>
<pdfrwt beam="1">  1        2 0.24194411E+00 0.18832146E+04</pdfrwt>
<pdfrwt beam="2">  1       -1 0.86735699E-01 0.18832146E+04</pdfrwt>
<totfact> 0.16171033E+01</totfact>
</mgrwt>
</event>
<event>
12    6  0.1529770E-007  0.2436738E+04  0.7818608E-02  0.8425876E-01
          2   -1    0    0  501    0  0.00000000000E+00  0.00000000000E+00  0.26311325652E+04  0.26311325652E+04  0.00000000000E+00 0. -1.
         -1   -1    0    0    0  501 -0.00000000000E+00 -0.00000000000E+00 -0.56417660428E+03  0.56417660428E+03  0.00000000000E+00 0.  1.
         24    2    1    2    0    0 -0.77996875377E+03 -0.93640966755E+02 -0.38264605587E+02  0.79060116220E+03  0.80412251021E+02 0.  0.
        254    2    1    2    0    0  0.77996875377E+03  0.93640966755E+02  0.21052205665E+04  0.24047080073E+04  0.85647363012E+03 0.  0.
         23    2    4    4    0    0  0.65821162506E+03  0.43156050437E+03  0.14631279494E+04  0.16638314421E+04  0.90025878796E+02 0.  0.
         23    2    4    4    0    0  0.12175712871E+03 -0.33791953762E+03  0.64209261703E+03  0.74087656518E+03  0.87182244158E+02 0.  0.
          2    1    3    3  502    0 -0.35438287618E+03 -0.48427741551E+02  0.22227239508E+02  0.35836645945E+03  0.00000000000E+00 0. -1.
         -1    1    3    3    0  502 -0.42558587759E+03 -0.45213225204E+02 -0.60491845095E+02  0.43223470275E+03  0.00000000000E+00 0.  1.
         11    1    5    5    0    0  0.95133861190E+02  0.32804165077E+02  0.15309139304E+03  0.18320354640E+03  0.00000000000E+00 0. -1.
        -11    1    5    5    0    0  0.56307776387E+03  0.39875633930E+03  0.13100365564E+04  0.14806278957E+04  0.00000000000E+00 0.  1.
          2    1    6    6  503    0  0.11591843746E+03 -0.21653982455E+03  0.38775671451E+03  0.45900092528E+03  0.00000000000E+00 0.  1.
         -2    1    6    6    0  503  0.58386912478E+01 -0.12137971307E+03  0.25433590253E+03  0.28187563991E+03  0.00000000000E+00 0. -1.
<mgrwt>
<rscale>  0 0.24367383E+04</rscale>
<asrwt>0</asrwt>
<pdfrwt beam="1">  1        2 0.40478962E+00 0.24367383E+04</pdfrwt>
<pdfrwt beam="2">  1       -1 0.86796402E-01 0.24367383E+04</pdfrwt>
<totfact> 0.38913709E+00</totfact>
</mgrwt>
</event>
<event>
12    6  0.1529770E-007  0.1271597E+04  0.7818608E-02  0.9052397E-01
         -3   -1    0    0    0  501 -0.00000000000E+00  0.00000000000E+00  0.69811413364E+03  0.69811413364E+03  0.00000000000E+00 0.  1.
          2   -1    0    0  501    0  0.00000000000E+00 -0.00000000000E+00 -0.57904506678E+03  0.57904506678E+03  0.00000000000E+00 0. -1.
         24    2    1    2    0    0  0.14026992720E+03  0.17705725513E+03  0.23063012027E+03  0.33268245056E+03  0.80389280794E+02 0.  0.
        254    2    1    2    0    0 -0.14026992720E+03 -0.17705725513E+03 -0.11156105342E+03  0.94447674986E+03  0.91025575434E+03 0.  0.
         23    2    4    4    0    0 -0.49335087572E+03 -0.11550646527E+02  0.64572203564E+02  0.50652218691E+03  0.94162903255E+02 0.  0.
         23    2    4    4    0    0  0.35308094853E+03 -0.16550660860E+03 -0.17613325698E+03  0.43795456295E+03  0.93395295860E+02 0.  0.
          4    1    3    3  502    0  0.49667898332E+02  0.70883103985E+02  0.37335492888E+02  0.94261623073E+02  0.00000000000E+00 0. -1.
         -3    1    3    3    0  502  0.90602028863E+02  0.10617415114E+03  0.19329462738E+03  0.23842082749E+03  0.00000000000E+00 0.  1.
         11    1    5    5    0    0 -0.14245466282E+03  0.36533969000E+02  0.34603910794E+02  0.15108107920E+03  0.00000000000E+00 0. -1.
        -11    1    5    5    0    0 -0.35089621290E+03 -0.48084615527E+02  0.29968292769E+02  0.35544110771E+03  0.00000000000E+00 0.  1.
          4    1    6    6  503    0  0.19822945619E+02 -0.38368722838E+02 -0.92846592399E+01  0.44173668202E+02  0.00000000000E+00 0. -1.
         -4    1    6    6    0  503  0.33325800291E+03 -0.12713788576E+03 -0.16684859774E+03  0.39378089475E+03  0.00000000000E+00 0.  1.
<mgrwt>
<rscale>  0 0.12715967E+04</rscale>
<asrwt>0</asrwt>
<pdfrwt beam="1">  1        2 0.89083856E-01 0.12715967E+04</pdfrwt>
<pdfrwt beam="2">  1       -3 0.10740217E+00 0.12715967E+04</pdfrwt>
<totfact> 0.23650420E+01</totfact>
</mgrwt>
</event>
<event>
12    6  0.1529770E-007  0.2038692E+04  0.7818608E-02  0.8588742E-01
          2   -1    0    0  501    0  0.00000000000E+00  0.00000000000E+00  0.14730653325E+04  0.14730653325E+04  0.00000000000E+00 0. -1.
         -1   -1    0    0    0  501 -0.00000000000E+00 -0.00000000000E+00 -0.70537661562E+03  0.70537661562E+03  0.00000000000E+00 0.  1.
         24    2    1    2    0    0  0.59990208054E+03  0.15001024720E+03  0.89990668349E+03  0.10944952833E+04  0.75513612052E+02 0.  0.
        254    2    1    2    0    0 -0.59990208054E+03 -0.15001024720E+03 -0.13221796662E+03  0.10839466648E+04  0.88038241748E+03 0.  0.
         23    2    4    4    0    0 -0.20373416914E+02  0.30680874513E+03  0.32786829442E+02  0.32229066395E+03  0.90827383971E+02 0.  0.
         23    2    4    4    0    0 -0.57952866362E+03 -0.45681899233E+03 -0.16500479607E+03  0.76165600089E+03  0.91412347345E+02 0.  0.
          2    1    3    3  502    0  0.56322559670E+03  0.15080041792E+03  0.81586548710E+03  0.10027962564E+04  0.00000000000E+00 0. -1.
         -1    1    3    3    0  502  0.36676483840E+02 -0.79017072023E+00  0.84041196390E+02  0.91699026861E+02  0.00000000000E+00 0.  1.
         11    1    5    5    0    0 -0.14549915174E+02  0.29489343484E+03  0.51138816797E+02  0.29964815455E+03  0.00000000000E+00 0. -1.
        -11    1    5    5    0    0 -0.58235017399E+01  0.11915310286E+02 -0.18351987355E+02  0.22642509393E+02  0.00000000000E+00 0.  1.
          3    1    6    6  503    0 -0.31284286577E+03 -0.30163549118E+03 -0.83513864863E+02  0.44252592447E+03  0.00000000000E+00 0. -1.
         -3    1    6    6    0  503 -0.26668579785E+03 -0.15518350115E+03 -0.81490931204E+02  0.31913007642E+03  0.00000000000E+00 0.  1.
<mgrwt>
<rscale>  0 0.20386916E+04</rscale>
<asrwt>0</asrwt>
<pdfrwt beam="1">  1        2 0.22662543E+00 0.20386916E+04</pdfrwt>
<pdfrwt beam="2">  1       -1 0.10851948E+00 0.20386916E+04</pdfrwt>
<totfact> 0.10933300E+01</totfact>
</mgrwt>
</event>
<event>
12    6  0.1529770E-007  0.1486351E+04  0.7818608E-02  0.8893580E-01
         -1   -1    0    0    0  501 -0.00000000000E+00  0.00000000000E+00  0.31980507972E+03  0.31980507972E+03  0.00000000000E+00 0.  1.
          2   -1    0    0  501    0  0.00000000000E+00 -0.00000000000E+00 -0.17270204927E+04  0.17270204927E+04  0.00000000000E+00 0. -1.
         24    2    1    2    0    0 -0.36296147849E+03  0.14505237660E+03 -0.10476829018E+03  0.41259019837E+03  0.80455269163E+02 0.  0.
        254    2    1    2    0    0  0.36296147849E+03 -0.14505237660E+03 -0.13024471228E+04  0.16342353741E+04  0.90640803357E+03 0.  0.
         23    2    4    4    0    0  0.41606991246E+03  0.17299672775E+03 -0.23667248592E+03  0.51708704554E+03  0.91231064895E+02 0.  0.
         23    2    4    4    0    0 -0.53108433969E+02 -0.31804910434E+03 -0.10657746369E+04  0.11171483286E+04  0.90382922981E+02 0.  0.
          4    1    3    3  502    0 -0.25493389656E+03  0.97172497413E+02 -0.34204356975E+02  0.27496131347E+03  0.00000000000E+00 0. -1.
         -3    1    3    3    0  502 -0.10802758193E+03  0.47879879184E+02 -0.70563933208E+02  0.13762888490E+03  0.00000000000E+00 0.  1.
         11    1    5    5    0    0  0.12015678104E+01 -0.50675409613E+01 -0.11408894061E+02  0.12541395469E+02  0.00000000000E+00 0. -1.
        -11    1    5    5    0    0  0.41486834465E+03  0.17806426871E+03 -0.22526359186E+03  0.50454565007E+03  0.00000000000E+00 0.  1.
          2    1    6    6  503    0 -0.62072246080E+02 -0.16287338563E+03 -0.65983208606E+03  0.68246544621E+03  0.00000000000E+00 0. -1.
         -2    1    6    6    0  503  0.89638121115E+01 -0.15517571871E+03 -0.40594255086E+03  0.43468288235E+03  0.00000000000E+00 0.  1.
<mgrwt>
<rscale>  0 0.14863511E+04</rscale>
<asrwt>0</asrwt>
<pdfrwt beam="1">  1        2 0.26569546E+00 0.14863511E+04</pdfrwt>
<pdfrwt beam="2">  1       -1 0.49200781E-01 0.14863511E+04</pdfrwt>
<totfact> 0.43200769E+01</totfact>
</mgrwt>
</event>
<event>
12    6  0.1529770E-007  0.1896255E+04  0.7818608E-02  0.8656723E-01
         -1   -1    0    0    0  501 -0.00000000000E+00  0.00000000000E+00  0.65972002106E+03  0.65972002106E+03  0.00000000000E+00 0.  1.
          2   -1    0    0  501    0  0.00000000000E+00 -0.00000000000E+00 -0.13626163540E+04  0.13626163540E+04  0.00000000000E+00 0. -1.
         24    2    1    2    0    0 -0.90347607494E+00 -0.59443627935E+03 -0.73299958407E+03  0.94718345756E+03  0.80701955051E+02 0.  0.
        254    2    1    2    0    0  0.90347607494E+00  0.59443627935E+03  0.30103251146E+02  0.10751529175E+04  0.89537270663E+03 0.  0.
         23    2    4    4    0    0  0.33511346060E+03  0.42106804851E+03 -0.24722845269E+03  0.59915520405E+03  0.90915992922E+02 0.  0.
         23    2    4    4    0    0 -0.33420998452E+03  0.17336823085E+03  0.27733170384E+03  0.47599771345E+03  0.88927453757E+02 0.  0.
          2    1    3    3  502    0 -0.73902661285E+01 -0.31394631201E+03 -0.32409818197E+03  0.45128320865E+03  0.00000000000E+00 0. -1.
         -1    1    3    3    0  502  0.64867900535E+01 -0.28048996735E+03 -0.40890140210E+03  0.49590024890E+03  0.00000000000E+00 0.  1.
         11    1    5    5    0    0  0.20584922022E+03  0.18898203190E+03 -0.11188091569E+03  0.30100739051E+03  0.00000000000E+00 0.  1.
        -11    1    5    5    0    0  0.12926424038E+03  0.23208601661E+03 -0.13534753700E+03  0.29814781354E+03  0.00000000000E+00 0. -1.
          3    1    6    6  503    0 -0.14074688115E+03  0.91984307421E+02  0.17432869512E+03  0.24220093168E+03  0.00000000000E+00 0. -1.
         -3    1    6    6    0  503 -0.19346310337E+03  0.81383923426E+02  0.10300300872E+03  0.23379678177E+03  0.00000000000E+00 0.  1.
<mgrwt>
<rscale>  0 0.18962545E+04</rscale>
<asrwt>0</asrwt>
<pdfrwt beam="1">  1        2 0.20963328E+00 0.18962545E+04</pdfrwt>
<pdfrwt beam="2">  1       -1 0.10149539E+00 0.18962545E+04</pdfrwt>
<totfact> 0.14955550E+01</totfact>
</mgrwt>
</event>
<event>
12    6  0.1529770E-007  0.1325968E+04  0.7818608E-02  0.9009222E-01
         -1   -1    0    0    0  501 -0.00000000000E+00  0.00000000000E+00  0.21454521259E+03  0.21454521259E+03  0.00000000000E+00 0.  1.
          2   -1    0    0  501    0  0.00000000000E+00 -0.00000000000E+00 -0.20487429159E+04  0.20487429159E+04  0.00000000000E+00 0. -1.
         24    2    1    2    0    0  0.37059802570E+03  0.12606531587E+02 -0.50029062548E+03  0.62786709518E+03  0.80153340428E+02 0.  0.
        254    2    1    2    0    0 -0.37059802570E+03 -0.12606531587E+02 -0.13339070778E+04  0.16354210333E+04  0.87051251721E+03 0.  0.
         23    2    4    4    0    0 -0.34677081791E+03  0.36294058384E+03 -0.49311337640E+03  0.70957271501E+03  0.91415361737E+02 0.  0.
         23    2    4    4    0    0 -0.23827207791E+02 -0.37554711543E+03 -0.84079370144E+03  0.92584831831E+03  0.93046700038E+02 0.  0.
          2    1    3    3  502    0  0.33676360785E+03  0.22940035621E+02 -0.48085954100E+03  0.58750478379E+03  0.00000000000E+00 0. -1.
         -1    1    3    3    0  502  0.33834417852E+02 -0.10333504035E+02 -0.19431084476E+02  0.40362311392E+02  0.00000000000E+00 0.  1.
         11    1    5    5    0    0 -0.22398715714E+02  0.52152621491E+01 -0.62179268918E+01  0.23823602577E+02  0.00000000000E+00 0. -1.
        -11    1    5    5    0    0 -0.32437210219E+03  0.35772532169E+03 -0.48689544950E+03  0.68574911244E+03  0.00000000000E+00 0.  1.
          4    1    6    6  503    0 -0.36231166622E+01 -0.18046408519E+02 -0.11576168509E+03  0.11721590152E+03  0.00000000000E+00 0. -1.
         -4    1    6    6    0  503 -0.20204091129E+02 -0.35750070691E+03 -0.72503201636E+03  0.80863241679E+03  0.00000000000E+00 0.  1.
<mgrwt>
<rscale>  0 0.13259683E+04</rscale>
<asrwt>0</asrwt>
<pdfrwt beam="1">  1        2 0.31519122E+00 0.13259683E+04</pdfrwt>
<pdfrwt beam="2">  1       -1 0.33006955E-01 0.13259683E+04</pdfrwt>
<totfact> 0.60341579E+01</totfact>
</mgrwt>
</event>
<event>
12    6  0.1529770E-007  0.2251619E+04  0.7818608E-02  0.8497245E-01
         -1   -1    0    0    0  501 -0.00000000000E+00  0.00000000000E+00  0.30777875340E+03  0.30777875340E+03  0.00000000000E+00 0.  1.
          2   -1    0    0  501    0  0.00000000000E+00 -0.00000000000E+00 -0.41180471193E+04  0.41180471193E+04  0.00000000000E+00 0. -1.
         24    2    1    2    0    0 -0.65897427954E+03 -0.67035549682E+02 -0.28320880892E+03  0.72484495500E+03  0.80325047930E+02 0.  0.
        254    2    1    2    0    0  0.65897427954E+03  0.67035549682E+02 -0.35270595569E+04  0.37009809177E+04  0.90463792135E+03 0.  0.
         23    2    4    4    0    0 -0.11908386119E+03 -0.22090368200E+03 -0.11781321116E+04  0.12081672382E+04  0.93238405472E+02 0.  0.
         23    2    4    4    0    0  0.77805814073E+03  0.28793923168E+03 -0.23489274453E+04  0.24928136795E+04  0.91522815742E+02 0.  0.
          4    1    3    3  502    0 -0.44470502244E+02 -0.18072381665E+02 -0.38751639507E+02  0.61692188431E+02  0.00000000000E+00 0. -1.
         -3    1    3    3    0  502 -0.61450377729E+03 -0.48963168017E+02 -0.24445716941E+03  0.66315276657E+03  0.00000000000E+00 0.  1.
         11    1    5    5    0    0 -0.87632080696E+02 -0.16894687933E+03 -0.67288998285E+03  0.69928775095E+03  0.00000000000E+00 0.  1.
        -11    1    5    5    0    0 -0.31451780493E+02 -0.51956802672E+02 -0.50524212879E+03  0.50887948725E+03  0.00000000000E+00 0. -1.
          4    1    6    6  503    0  0.48824817193E+03  0.16230865551E+03 -0.13302095775E+04  0.14262495914E+04  0.00000000000E+00 0. -1.
         -4    1    6    6    0  503  0.28980996879E+03  0.12563057617E+03 -0.10187178678E+04  0.10665640880E+04  0.00000000000E+00 0.  1.
<mgrwt>
<rscale>  0 0.22516193E+04</rscale>
<asrwt>0</asrwt>
<pdfrwt beam="1">  1        2 0.63354563E+00 0.22516193E+04</pdfrwt>
<pdfrwt beam="2">  1       -1 0.47350584E-01 0.22516193E+04</pdfrwt>
<totfact> 0.12688780E+00</totfact>
</mgrwt>
</event>
<event>
12    6  0.1529770E-007  0.1172338E+04  0.7818608E-02  0.9137419E-01
         -1   -1    0    0    0  501 -0.00000000000E+00  0.00000000000E+00  0.10414684478E+04  0.10414684478E+04  0.00000000000E+00 0.  1.
          2   -1    0    0  501    0  0.00000000000E+00 -0.00000000000E+00 -0.32991320565E+03  0.32991320565E+03  0.00000000000E+00 0. -1.
         24    2    1    2    0    0  0.57744138907E+02  0.19861251597E+03  0.84817096339E+02  0.23748245581E+03  0.80141499301E+02 0.  0.
        254    2    1    2    0    0 -0.57744138907E+02 -0.19861251597E+03  0.62673814580E+03  0.11338991976E+04  0.92203328026E+03 0.  0.
         23    2    4    4    0    0  0.36658567863E+03 -0.13305691070E+03  0.56234021696E+03  0.69022588684E+03  0.89978075031E+02 0.  0.
         23    2    4    4    0    0 -0.42432981754E+03 -0.65555605269E+02  0.64397928843E+02  0.44367331079E+03  0.91354157168E+02 0.  0.
          4    1    3    3  502    0  0.36986140062E+02  0.16770056781E+03  0.34955768097E+02  0.17525227737E+03  0.00000000000E+00 0. -1.
         -3    1    3    3    0  502  0.20757998845E+02  0.30911948161E+02  0.49861328242E+02  0.62230178444E+02  0.00000000000E+00 0.  1.
         11    1    5    5    0    0  0.30514666449E+03 -0.94096594790E+02  0.39626589637E+03  0.50891582470E+03  0.00000000000E+00 0. -1.
        -11    1    5    5    0    0  0.61439014146E+02 -0.38960315909E+02  0.16607432059E+03  0.18131006214E+03  0.00000000000E+00 0.  1.
          4    1    6    6  503    0 -0.34157620025E+03 -0.28468026841E+02  0.79192779077E+02  0.35179003025E+03  0.00000000000E+00 0. -1.
         -4    1    6    6    0  503 -0.82753617296E+02 -0.37087578428E+02 -0.14794850235E+02  0.91883280540E+02  0.00000000000E+00 0.  1.
<mgrwt>
<rscale>  0 0.11723382E+04</rscale>
<asrwt>0</asrwt>
<pdfrwt beam="1">  1        2 0.50755878E-01 0.11723382E+04</pdfrwt>
<pdfrwt beam="2">  1       -1 0.16022591E+00 0.11723382E+04</pdfrwt>
<totfact> 0.32541617E+01</totfact>
</mgrwt>
</event>
<event>
12    6  0.1529770E-007  0.1044013E+04  0.7818608E-02  0.9261547E-01
         -3   -1    0    0    0  501 -0.00000000000E+00  0.00000000000E+00  0.42303925959E+03  0.42303925959E+03  0.00000000000E+00 0.  1.
          4   -1    0    0  501    0  0.00000000000E+00 -0.00000000000E+00 -0.64412666728E+03  0.64412666728E+03  0.00000000000E+00 0. -1.
         24    2    1    2    0    0 -0.57960928712E+02 -0.84455073121E+02 -0.53828533646E+02  0.13934169090E+03  0.77630323692E+02 0.  0.
        254    2    1    2    0    0  0.57960928712E+02  0.84455073121E+02 -0.16725887405E+03  0.92782423597E+03  0.90685729488E+03 0.  0.
         23    2    4    4    0    0 -0.26939213630E+03  0.37189723607E+03 -0.85456994529E+02  0.47553409513E+03  0.89163335638E+02 0.  0.
         23    2    4    4    0    0  0.32735306502E+03 -0.28744216295E+03 -0.81801879517E+02  0.45229014083E+03  0.89954420613E+02 0.  0.
          2    1    3    3  502    0  0.41619845247E+01 -0.80123301337E+01 -0.38632939731E+02  0.39673966044E+02  0.00000000000E+00 0. -1.
         -1    1    3    3    0  502 -0.62122913237E+02 -0.76442742987E+02 -0.15195593915E+02  0.99667724861E+02  0.00000000000E+00 0.  1.
         11    1    5    5    0    0 -0.31804092247E+02  0.11614622230E+02  0.59868851305E+01  0.34383753821E+02  0.00000000000E+00 0.  1.
        -11    1    5    5    0    0 -0.23758804406E+03  0.36028261384E+03 -0.91443879660E+02  0.44115034131E+03  0.00000000000E+00 0. -1.
          2    1    6    6  503    0  0.13744128865E+03 -0.16888181904E+03 -0.67449995001E+02  0.22794885052E+03  0.00000000000E+00 0. -1.
         -2    1    6    6    0  503  0.18991177637E+03 -0.11856034390E+03 -0.14351884516E+02  0.22434129031E+03  0.00000000000E+00 0.  1.
<mgrwt>
<rscale>  0 0.10440132E+04</rscale>
<asrwt>0</asrwt>
<pdfrwt beam="1">  1        4 0.99096410E-01 0.10440132E+04</pdfrwt>
<pdfrwt beam="2">  1       -3 0.65082963E-01 0.10440132E+04</pdfrwt>
<totfact> 0.43794908E+00</totfact>
</mgrwt>
</event>
<event>
12    6  0.1529770E-007  0.2831606E+04  0.7818608E-02  0.8293523E-01
          2   -1    0    0  501    0  0.00000000000E+00  0.00000000000E+00  0.24559908361E+04  0.24559908361E+04  0.00000000000E+00 0. -1.
         -1   -1    0    0    0  501 -0.00000000000E+00 -0.00000000000E+00 -0.81616668634E+03  0.81616668634E+03  0.00000000000E+00 0.  1.
         24    2    1    2    0    0  0.30002678443E+03 -0.11127348060E+04  0.13179952396E+04  0.17531959175E+04  0.91595052389E+02 0.  0.
        254    2    1    2    0    0 -0.30002678443E+03  0.11127348060E+04  0.32182891017E+03  0.15189616049E+04  0.93566857911E+03 0.  0.
         23    2    4    4    0    0  0.82801116272E+02  0.66245975046E+03 -0.22342694378E+03  0.70965812571E+03  0.89365039804E+02 0.  0.
         23    2    4    4    0    0 -0.38282790070E+03  0.45027505557E+03  0.54525585395E+03  0.80930347924E+03  0.91451342315E+02 0.  0.
          4    1    3    3  502    0  0.24291078144E+03 -0.10057240212E+04  0.11886192128E+04  0.15758496399E+04  0.00000000000E+00 0. -1.
         -3    1    3    3    0  502  0.57116002985E+02 -0.10701078481E+03  0.12937602683E+03  0.17734627760E+03  0.00000000000E+00 0.  1.
         11    1    5    5    0    0 -0.17815486744E+02  0.14698020274E+03 -0.40337069424E+02  0.15345243803E+03  0.00000000000E+00 0. -1.
        -11    1    5    5    0    0  0.10061660302E+03  0.51547954772E+03 -0.18308987435E+03  0.55620568768E+03  0.00000000000E+00 0.  1.
          3    1    6    6  503    0 -0.91111594346E+02  0.10515878428E+03  0.79020489418E+02  0.16001228166E+03  0.00000000000E+00 0. -1.
         -3    1    6    6    0  503 -0.29171630635E+03  0.34511627130E+03  0.46623536453E+03  0.64929119757E+03  0.00000000000E+00 0.  1.
<mgrwt>
<rscale>  0 0.28316058E+04</rscale>
<asrwt>0</asrwt>
<pdfrwt beam="1">  1        2 0.37784474E+00 0.28316058E+04</pdfrwt>
<pdfrwt beam="2">  1       -1 0.12556411E+00 0.28316058E+04</pdfrwt>
<totfact> 0.20150738E+00</totfact>
</mgrwt>
</event>
<event>
12    6  0.1529770E-007  0.2684783E+04  0.7818608E-02  0.8339959E-01
         -1   -1    0    0    0  501 -0.00000000000E+00  0.00000000000E+00  0.16686228825E+04  0.16686228825E+04  0.00000000000E+00 0.  1.
          2   -1    0    0  501    0  0.00000000000E+00 -0.00000000000E+00 -0.10799411131E+04  0.10799411131E+04  0.00000000000E+00 0. -1.
         24    2    1    2    0    0 -0.33927115913E+03 -0.92321774381E+02 -0.88140595174E+03  0.95220225467E+03  0.78641290743E+02 0.  0.
        254    2    1    2    0    0  0.33927115913E+03  0.92321774381E+02  0.14700877212E+04  0.17963617409E+04  0.97063348731E+03 0.  0.
         23    2    4    4    0    0  0.60579435625E+03 -0.31818120534E+02  0.13151663846E+04  0.14513392958E+04  0.93402021186E+02 0.  0.
         23    2    4    4    0    0 -0.26652319712E+03  0.12413989491E+03  0.15492133662E+03  0.34502244509E+03  0.92706736343E+02 0.  0.
          4    1    3    3  502    0 -0.28349407725E+03 -0.68684679252E+02 -0.64046867946E+03  0.70376601678E+03  0.00000000000E+00 0. -1.
         -3    1    3    3    0  502 -0.55777081877E+02 -0.23637095129E+02 -0.24093727228E+03  0.24843623790E+03  0.00000000000E+00 0.  1.
         11    1    5    5    0    0  0.57914909301E+03 -0.38109021985E+02  0.12881871495E+04  0.14129020142E+04  0.00000000000E+00 0. -1.
        -11    1    5    5    0    0  0.26645263237E+02  0.62909014509E+01  0.26979235056E+02  0.38437281619E+02  0.00000000000E+00 0.  1.
          2    1    6    6  503    0 -0.24350963516E+03  0.79134312226E+02  0.11535722303E+03  0.28083174801E+03  0.00000000000E+00 0. -1.
         -2    1    6    6    0  503 -0.23013561963E+02  0.45005582689E+02  0.39564113587E+02  0.64190697078E+02  0.00000000000E+00 0.  1.
<mgrwt>
<rscale>  0 0.26847826E+04</rscale>
<asrwt>0</asrwt>
<pdfrwt beam="1">  1        2 0.16614479E+00 0.26847826E+04</pdfrwt>
<pdfrwt beam="2">  1       -1 0.25671121E+00 0.26847826E+04</pdfrwt>
<totfact> 0.14146857E+00</totfact>
</mgrwt>
</event>
<event>
12    6  0.1529770E-007  0.2446888E+04  0.7818608E-02  0.8422155E-01
         -1   -1    0    0    0  501 -0.00000000000E+00  0.00000000000E+00  0.12456133935E+04  0.12456133935E+04  0.00000000000E+00 0.  1.
          2   -1    0    0  501    0  0.00000000000E+00 -0.00000000000E+00 -0.12016693600E+04  0.12016693600E+04  0.00000000000E+00 0. -1.
         24    2    1    2    0    0 -0.36639015411E+03  0.43500032055E+03 -0.86973532045E+03  0.10422250825E+04  0.79539744974E+02 0.  0.
        254    2    1    2    0    0  0.36639015411E+03 -0.43500032055E+03  0.91367935403E+03  0.14050576710E+04  0.90327740640E+03 0.  0.
         23    2    4    4    0    0  0.42016664718E+03 -0.26610901873E+03  0.10476915486E+04  0.11632414339E+04  0.90105667356E+02 0.  0.
         23    2    4    4    0    0 -0.53776493064E+02 -0.16889130182E+03 -0.13401219459E+03  0.24181623707E+03  0.95392039362E+02 0.  0.
          2    1    3    3  502    0 -0.33885774231E+03  0.42724255322E+03 -0.81779286187E+03  0.98292722708E+03  0.00000000000E+00 0. -1.
         -1    1    3    3    0  502 -0.27532411803E+02  0.77577673332E+01 -0.51942458585E+02  0.59297855421E+02  0.00000000000E+00 0.  1.
         11    1    5    5    0    0  0.24598589930E+03 -0.17282958114E+03  0.53317278798E+03  0.61208851370E+03  0.00000000000E+00 0.  1.
        -11    1    5    5    0    0  0.17418074788E+03 -0.93279437595E+02  0.51451876064E+03  0.55115292022E+03  0.00000000000E+00 0. -1.
          3    1    6    6  503    0 -0.30731104270E+02 -0.69896099343E+02 -0.35537229735E+01  0.76436211444E+02  0.00000000000E+00 0. -1.
         -3    1    6    6    0  503 -0.23045388793E+02 -0.98995202476E+02 -0.13045847162E+03  0.16538002562E+03  0.00000000000E+00 0.  1.
<mgrwt>
<rscale>  0 0.24468882E+04</rscale>
<asrwt>0</asrwt>
<pdfrwt beam="1">  1        2 0.18487221E+00 0.24468882E+04</pdfrwt>
<pdfrwt beam="2">  1       -1 0.19163283E+00 0.24468882E+04</pdfrwt>
<totfact> 0.33204309E+00</totfact>
</mgrwt>
</event>
<event>
12    6  0.1529770E-007  0.1640761E+04  0.7818608E-02  0.8795891E-01
          2   -1    0    0  501    0  0.00000000000E+00  0.00000000000E+00  0.26941966334E+04  0.26941966334E+04  0.00000000000E+00 0. -1.
         -1   -1    0    0    0  501 -0.00000000000E+00 -0.00000000000E+00 -0.24980502449E+03  0.24980502449E+03  0.00000000000E+00 0.  1.
         24    2    1    2    0    0 -0.12500598962E+03  0.38674789948E+03  0.15059592296E+04  0.15615984228E+04  0.73999984029E+02 0.  0.
        254    2    1    2    0    0  0.12500598962E+03 -0.38674789948E+03  0.93843237931E+03  0.13824032351E+04  0.93015210513E+03 0.  0.
         23    2    4    4    0    0  0.22549435440E+03 -0.66214033812E+03  0.69747025997E+03  0.99205982484E+03  0.91871656594E+02 0.  0.
         23    2    4    4    0    0 -0.10048836478E+03  0.27539243864E+03  0.24096211934E+03  0.39034341026E+03  0.91467635032E+02 0.  0.
          4    1    3    3  502    0 -0.11980222021E+03  0.36655109748E+03  0.14726005864E+04  0.15222564718E+04  0.00000000000E+00 0. -1.
         -1    1    3    3    0  502 -0.52037694107E+01  0.20196802000E+02  0.33358643201E+02  0.39341950935E+02  0.00000000000E+00 0.  1.
         11    1    5    5    0    0  0.10284118918E+03 -0.17348384850E+03  0.19846418126E+03  0.28295050296E+03  0.00000000000E+00 0. -1.
        -11    1    5    5    0    0  0.12265316522E+03 -0.48865648962E+03  0.49900607871E+03  0.70910932188E+03  0.00000000000E+00 0.  1.
          1    1    6    6  503    0 -0.14774684308E+02  0.29308209418E+02  0.73750665616E+02  0.80724365061E+02  0.00000000000E+00 0. -1.
         -1    1    6    6    0  503 -0.85713680468E+02  0.24608422923E+03  0.16721145373E+03  0.30961904520E+03  0.00000000000E+00 0.  1.
<mgrwt>
<rscale>  0 0.16407606E+04</rscale>
<asrwt>0</asrwt>
<pdfrwt beam="1">  1        2 0.41449177E+00 0.16407606E+04</pdfrwt>
<pdfrwt beam="2">  1       -1 0.38431544E-01 0.16407606E+04</pdfrwt>
<totfact> 0.19151865E+01</totfact>
</mgrwt>
</event>
<event>
12    6  0.1561233E-007  0.1151496E+04  0.7818608E-02  0.9156404E-01
          2   -1    0    0  501    0  0.00000000000E+00  0.00000000000E+00  0.25861178652E+04  0.25861178652E+04  0.00000000000E+00 0. -1.
         -1   -1    0    0    0  501 -0.00000000000E+00 -0.00000000000E+00 -0.12817897296E+03  0.12817897296E+03  0.00000000000E+00 0.  1.
         24    2    1    2    0    0  0.26838659125E+02 -0.16455780503E+03  0.93207632718E+02  0.20658640800E+03  0.78680978356E+02 0.  0.
        254    2    1    2    0    0 -0.26838659125E+02  0.16455780503E+03  0.23647312595E+04  0.25077104302E+04  0.81783744534E+03 0.  0.
         23    2    4    4    0    0  0.16369502034E+03 -0.13022779025E+02  0.21437515233E+04  0.21519077776E+04  0.89837837262E+02 0.  0.
         23    2    4    4    0    0 -0.19053367947E+03  0.17758058405E+03  0.22097973623E+03  0.35580265262E+03  0.99626989019E+02 0.  0.
          2    1    3    3  502    0 -0.44376648208E+01 -0.51704348969E+01  0.32466091914E+02  0.33173383762E+02  0.00000000000E+00 0. -1.
         -3    1    3    3    0  502  0.31276323945E+02 -0.15938737013E+03  0.60741540804E+02  0.17341302424E+03  0.00000000000E+00 0.  1.
         11    1    5    5    0    0  0.66548266011E+01  0.63510469061E+01  0.17443916634E+02  0.19720870707E+02  0.00000000000E+00 0.  1.
        -11    1    5    5    0    0  0.15704019374E+03 -0.19373825931E+02  0.21263076067E+04  0.21321869069E+04  0.00000000000E+00 0. -1.
          1    1    6    6  503    0 -0.19881515108E+03  0.16612361584E+03  0.18856439924E+03  0.32043884393E+03  0.00000000000E+00 0. -1.
         -1    1    6    6    0  503  0.82814716136E+01  0.11456968216E+02  0.32415336986E+02  0.35363808685E+02  0.00000000000E+00 0.  1.
<mgrwt>
<rscale>  0 0.11514963E+04</rscale>
<asrwt>0</asrwt>
<pdfrwt beam="1">  1        2 0.39786425E+00 0.11514963E+04</pdfrwt>
<pdfrwt beam="2">  1       -1 0.19719844E-01 0.11514963E+04</pdfrwt>
<totfact> 0.73864004E+01</totfact>
</mgrwt>
</event>
<event>
12    6  0.1529770E-007  0.1923927E+04  0.7818608E-02  0.8643037E-01
          2   -1    0    0  501    0  0.00000000000E+00  0.00000000000E+00  0.77814274470E+03  0.77814274470E+03  0.00000000000E+00 0. -1.
         -1   -1    0    0    0  501 -0.00000000000E+00 -0.00000000000E+00 -0.11892087612E+04  0.11892087612E+04  0.00000000000E+00 0.  1.
         24    2    1    2    0    0  0.48295014988E+03  0.84507210032E+02  0.42112008589E+03  0.65160211814E+03  0.82830415984E+02 0.  0.
        254    2    1    2    0    0 -0.48295014988E+03 -0.84507210032E+02 -0.83218610234E+03  0.13157493877E+04  0.89346540309E+03 0.  0.
         23    2    4    4    0    0 -0.33106008520E+03  0.21983712734E+02 -0.99534098673E+03  0.10529638515E+04  0.89135453231E+02 0.  0.
         23    2    4    4    0    0 -0.15189006468E+03 -0.10649092277E+03  0.16315488440E+03  0.26278553623E+03  0.89586904000E+02 0.  0.
          2    1    3    3  502    0  0.21227918481E+03  0.66631853464E+02  0.22836705998E+03  0.31883188405E+03  0.00000000000E+00 0. -1.
         -1    1    3    3    0  502  0.27067096507E+03  0.17875356568E+02  0.19275302590E+03  0.33277023409E+03  0.00000000000E+00 0.  1.
         11    1    5    5    0    0 -0.11784111028E+03 -0.34511886212E+02 -0.37270927040E+03  0.39241533839E+03  0.00000000000E+00 0. -1.
        -11    1    5    5    0    0 -0.21321897492E+03  0.56495598946E+02 -0.62263171634E+03  0.66054851310E+03  0.00000000000E+00 0.  1.
          3    1    6    6  503    0 -0.82917105073E+00 -0.15478043810E+02  0.52137143694E+02  0.54392454600E+02  0.00000000000E+00 0. -1.
         -3    1    6    6    0  503 -0.15106089363E+03 -0.91012878956E+02  0.11101774070E+03  0.20839308163E+03  0.00000000000E+00 0.  1.
<mgrwt>
<rscale>  0 0.19239274E+04</rscale>
<asrwt>0</asrwt>
<pdfrwt beam="1">  1        2 0.11971427E+00 0.19239274E+04</pdfrwt>
<pdfrwt beam="2">  1       -1 0.18295519E+00 0.19239274E+04</pdfrwt>
<totfact> 0.75566834E+00</totfact>
</mgrwt>
</event>
<event>
12    6  0.1529770E-007  0.1844709E+04  0.7818608E-02  0.8682879E-01
         -1   -1    0    0    0  501 -0.00000000000E+00  0.00000000000E+00  0.45742375704E+03  0.45742375704E+03  0.00000000000E+00 0.  1.
          2   -1    0    0  501    0  0.00000000000E+00 -0.00000000000E+00 -0.18598460473E+04  0.18598460473E+04  0.00000000000E+00 0. -1.
         24    2    1    2    0    0  0.39932807137E+03  0.57486184841E+03 -0.56904082138E+03  0.90539574971E+03  0.77491637376E+02 0.  0.
        254    2    1    2    0    0 -0.39932807137E+03 -0.57486184841E+03 -0.83338146886E+03  0.14118740546E+04  0.89940792753E+03 0.  0.
         23    2    4    4    0    0 -0.63728212819E+03 -0.29629761635E+03 -0.73862670812E+03  0.10232061228E+04  0.86374575727E+02 0.  0.
         23    2    4    4    0    0  0.23795405682E+03 -0.27856423206E+03 -0.94754760745E+02  0.38866793185E+03  0.88679941522E+02 0.  0.
          2    1    3    3  502    0  0.10374468669E+03  0.18603827162E+03 -0.21078719393E+03  0.29967388883E+03  0.00000000000E+00 0. -1.
         -1    1    3    3    0  502  0.29558338469E+03  0.38882357679E+03 -0.35825362745E+03  0.60572186088E+03  0.00000000000E+00 0.  1.
         11    1    5    5    0    0 -0.29494447198E+03 -0.99103243929E+02 -0.28882786923E+03  0.42454120242E+03  0.00000000000E+00 0. -1.
        -11    1    5    5    0    0 -0.34233765621E+03 -0.19719437242E+03 -0.44979883889E+03  0.59866492034E+03  0.00000000000E+00 0.  1.
          3    1    6    6  503    0  0.17393886848E+03 -0.20544887219E+03 -0.10905401440E+03  0.29044233009E+03  0.00000000000E+00 0. -1.
         -3    1    6    6    0  503  0.64015188342E+02 -0.73115359867E+02  0.14299253651E+02  0.98225601764E+02  0.00000000000E+00 0.  1.
<mgrwt>
<rscale>  0 0.18447089E+04</rscale>
<asrwt>0</asrwt>
<pdfrwt beam="1">  1        2 0.28613016E+00 0.18447089E+04</pdfrwt>
<pdfrwt beam="2">  1       -1 0.70372885E-01 0.18447089E+04</pdfrwt>
<totfact> 0.17475518E+01</totfact>
</mgrwt>
</event>
<event>
12    6  0.1529770E-007  0.1485977E+04  0.7818608E-02  0.8893832E-01
         -1   -1    0    0    0  501 -0.00000000000E+00  0.00000000000E+00  0.19605542335E+03  0.19605542335E+03  0.00000000000E+00 0.  1.
          2   -1    0    0  501    0  0.00000000000E+00 -0.00000000000E+00 -0.28156927328E+04  0.28156927328E+04  0.00000000000E+00 0. -1.
         24    2    1    2    0    0  0.45466956273E+03 -0.13422864015E+03 -0.10705442555E+04  0.11735028603E+04  0.79386529450E+02 0.  0.
        254    2    1    2    0    0 -0.45466956273E+03  0.13422864015E+03 -0.15490930539E+04  0.18382452958E+04  0.86874319496E+03 0.  0.
         23    2    4    4    0    0 -0.67555354173E+02 -0.30753414274E+03 -0.90107127186E+03  0.95868287829E+03  0.89456410235E+02 0.  0.
         23    2    4    4    0    0 -0.38711420855E+03  0.44176278289E+03 -0.64802178207E+03  0.87956241753E+03  0.93198977956E+02 0.  0.
          4    1    3    3  502    0  0.63673174492E+02  0.64856987323E+01 -0.17202652547E+03  0.18354689565E+03  0.00000000000E+00 0. -1.
         -3    1    3    3    0  502  0.39099638823E+03 -0.14071433888E+03 -0.89851773004E+03  0.98995596467E+03  0.00000000000E+00 0.  1.
         11    1    5    5    0    0 -0.35933938672E+02 -0.20413207904E+03 -0.70421983349E+03  0.73408904604E+03  0.00000000000E+00 0. -1.
        -11    1    5    5    0    0 -0.31621415501E+02 -0.10340206370E+03 -0.19685143837E+03  0.22459383225E+03  0.00000000000E+00 0.  1.
          4    1    6    6  503    0 -0.38478213558E+03  0.40797336989E+03 -0.61377441172E+03  0.83139556824E+03  0.00000000000E+00 0. -1.
         -4    1    6    6    0  503 -0.23320729683E+01  0.33789413000E+02 -0.34247370346E+02  0.48166849293E+02  0.00000000000E+00 0.  1.
<mgrwt>
<rscale>  0 0.14859769E+04</rscale>
<asrwt>0</asrwt>
<pdfrwt beam="1">  1        2 0.43318347E+00 0.14859769E+04</pdfrwt>
<pdfrwt beam="2">  1       -1 0.30162375E-01 0.14859769E+04</pdfrwt>
<totfact> 0.25327081E+01</totfact>
</mgrwt>
</event>
<event>
12    6  0.1529770E-007  0.2723641E+04  0.7818608E-02  0.8327375E-01
         -1   -1    0    0    0  501 -0.00000000000E+00  0.00000000000E+00  0.17130703859E+04  0.17130703859E+04  0.00000000000E+00 0.  1.
          2   -1    0    0  501    0  0.00000000000E+00 -0.00000000000E+00 -0.10825908899E+04  0.10825908899E+04  0.00000000000E+00 0. -1.
         24    2    1    2    0    0 -0.88362823023E+03  0.35247893684E+03  0.10585678877E+04  0.14255388771E+04  0.80962132626E+02 0.  0.
        254    2    1    2    0    0  0.88362823023E+03 -0.35247893684E+03 -0.42808839173E+03  0.13701223987E+04  0.88822039277E+03 0.  0.
         23    2    4    4    0    0  0.79002018560E+03 -0.53841069469E+03 -0.55538764290E+03  0.11094483145E+04  0.91663290310E+02 0.  0.
         23    2    4    4    0    0  0.93608044633E+02  0.18593175784E+03  0.12729925117E+03  0.26067408424E+03  0.91721285689E+02 0.  0.
          4    1    3    3  502    0 -0.54301332982E+03  0.24228569817E+03  0.61368063129E+03  0.85449970925E+03  0.00000000000E+00 0. -1.
         -3    1    3    3    0  502 -0.34061490042E+03  0.11019323867E+03  0.44488725644E+03  0.57103916781E+03  0.00000000000E+00 0.  1.
         11    1    5    5    0    0  0.10109457927E+03 -0.52843687035E+02 -0.98590240729E+02  0.15077335568E+03  0.00000000000E+00 0.  1.
        -11    1    5    5    0    0  0.68892560633E+03 -0.48556700765E+03 -0.45679740217E+03  0.95867495879E+03  0.00000000000E+00 0. -1.
          1    1    6    6  503    0  0.60041267661E+02  0.79341818757E+02  0.10874147667E+03  0.14739330641E+03  0.00000000000E+00 0. -1.
         -1    1    6    6    0  503  0.33566776971E+02  0.10658993909E+03  0.18557774504E+02  0.11328077783E+03  0.00000000000E+00 0.  1.
<mgrwt>
<rscale>  0 0.27236405E+04</rscale>
<asrwt>0</asrwt>
<pdfrwt beam="1">  1        2 0.16655244E+00 0.27236405E+04</pdfrwt>
<pdfrwt beam="2">  1       -1 0.26354929E+00 0.27236405E+04</pdfrwt>
<totfact> 0.12681086E+00</totfact>
</mgrwt>
</event>
<event>
12    6  0.1529770E-007  0.2814158E+04  0.7818608E-02  0.8298886E-01
         -1   -1    0    0    0  501 -0.00000000000E+00  0.00000000000E+00  0.93188701320E+03  0.93188701320E+03  0.00000000000E+00 0.  1.
          2   -1    0    0  501    0  0.00000000000E+00 -0.00000000000E+00 -0.21245822683E+04  0.21245822683E+04  0.00000000000E+00 0. -1.
         24    2    1    2    0    0  0.37444917542E+03 -0.15449656544E+03 -0.18422079680E+04  0.18880524478E+04  0.83249471815E+02 0.  0.
        254    2    1    2    0    0 -0.37444917542E+03  0.15449656544E+03  0.64951271292E+03  0.11684168337E+04  0.88275124429E+03 0.  0.
         23    2    4    4    0    0 -0.29368081981E+03 -0.27567281551E+03  0.43647999097E+02  0.41519446322E+03  0.90759954408E+02 0.  0.
         23    2    4    4    0    0 -0.80768355613E+02  0.43016938095E+03  0.60586471382E+03  0.75322237047E+03  0.93288071859E+02 0.  0.
          2    1    3    3  502    0  0.37301836196E+03 -0.15025277832E+03 -0.17448739243E+04  0.17906154270E+04  0.00000000000E+00 0. -1.
         -1    1    3    3    0  502  0.14308134620E+01 -0.42437871177E+01 -0.97334043667E+02  0.97437020751E+02  0.00000000000E+00 0.  1.
         11    1    5    5    0    0 -0.66656117115E+02 -0.18084195303E+02 -0.89194913463E-01  0.69065794894E+02  0.00000000000E+00 0.  1.
        -11    1    5    5    0    0 -0.22702470269E+03 -0.25758862021E+03  0.43737194010E+02  0.34612866832E+03  0.00000000000E+00 0. -1.
          1    1    6    6  503    0 -0.46441094906E+02  0.82859013093E+02  0.93480302506E+02  0.13327024538E+03  0.00000000000E+00 0. -1.
         -1    1    6    6    0  503 -0.34327260707E+02  0.34731036786E+03  0.51238441132E+03  0.61995212509E+03  0.00000000000E+00 0.  1.
<mgrwt>
<rscale>  0 0.28141575E+04</rscale>
<asrwt>0</asrwt>
<pdfrwt beam="1">  1        2 0.32685880E+00 0.28141575E+04</pdfrwt>
<pdfrwt beam="2">  1       -1 0.14336724E+00 0.28141575E+04</pdfrwt>
<totfact> 0.22155924E+00</totfact>
</mgrwt>
</event>
<event>
12    6  0.1529770E-007  0.2580115E+04  0.7818608E-02  0.8374987E-01
         -1   -1    0    0    0  501 -0.00000000000E+00  0.00000000000E+00  0.90595384304E+03  0.90595384304E+03  0.00000000000E+00 0.  1.
          2   -1    0    0  501    0  0.00000000000E+00 -0.00000000000E+00 -0.18370117392E+04  0.18370117392E+04  0.00000000000E+00 0. -1.
         24    2    1    2    0    0 -0.33064837529E+03 -0.10600973184E+04 -0.18951781575E+03  0.11296696812E+04  0.84272851890E+02 0.  0.
        254    2    1    2    0    0  0.33064837529E+03  0.10600973184E+04 -0.74154008040E+03  0.16132959011E+04  0.90537688341E+03 0.  0.
         23    2    4    4    0    0 -0.26346827726E+02  0.33513358687E+03 -0.71982503063E+03  0.79970465306E+03  0.91491972450E+02 0.  0.
         23    2    4    4    0    0  0.35699520302E+03  0.72496373150E+03 -0.21715049773E+02  0.81359124800E+03  0.91875940581E+02 0.  0.
          4    1    3    3  502    0 -0.50261214695E+02 -0.13671476892E+03 -0.53214126076E+02  0.15507695172E+03  0.00000000000E+00 0. -1.
         -3    1    3    3    0  502 -0.28038716060E+03 -0.92338254946E+03 -0.13630368967E+03  0.97459272945E+03  0.00000000000E+00 0.  1.
         11    1    5    5    0    0 -0.48010555909E+02  0.15441657807E+03 -0.27403563170E+03  0.31819022691E+03  0.00000000000E+00 0. -1.
        -11    1    5    5    0    0  0.21663728184E+02  0.18071700880E+03 -0.44578939893E+03  0.48151442615E+03  0.00000000000E+00 0.  1.
          1    1    6    6  503    0  0.55929595529E+02  0.82689998350E+02 -0.29896295792E+02  0.10420913581E+03  0.00000000000E+00 0. -1.
         -1    1    6    6    0  503  0.30106560749E+03  0.64227373315E+03  0.81812460195E+01  0.70938211219E+03  0.00000000000E+00 0.  1.
<mgrwt>
<rscale>  0 0.25801146E+04</rscale>
<asrwt>0</asrwt>
<pdfrwt beam="1">  1        2 0.28261719E+00 0.25801146E+04</pdfrwt>
<pdfrwt beam="2">  1       -1 0.13937752E+00 0.25801146E+04</pdfrwt>
<totfact> 0.35195346E+00</totfact>
</mgrwt>
</event>
<event>
12    6  0.1529770E-007  0.1619540E+04  0.7818608E-02  0.8808633E-01
          2   -1    0    0  501    0  0.00000000000E+00  0.00000000000E+00  0.69584804394E+03  0.69584804394E+03  0.00000000000E+00 0. -1.
         -1   -1    0    0    0  501 -0.00000000000E+00 -0.00000000000E+00 -0.94234293264E+03  0.94234293264E+03  0.00000000000E+00 0.  1.
         24    2    1    2    0    0 -0.36531142221E+03 -0.34474065001E+02 -0.51031878276E+03  0.63369776948E+03  0.80664159630E+02 0.  0.
        254    2    1    2    0    0  0.36531142221E+03  0.34474065001E+02  0.26382389406E+03  0.10044932071E+04  0.89708564790E+03 0.  0.
         23    2    4    4    0    0  0.19956608663E+03 -0.40012386031E+03 -0.83342092367E+01  0.45582900133E+03  0.88232040014E+02 0.  0.
         23    2    4    4    0    0  0.16574533558E+03  0.43459792531E+03  0.27215810330E+03  0.54866420577E+03  0.10303157065E+03 0.  0.
          4    1    3    3  502    0  0.73449371968E+00  0.26742027513E+01  0.16570593171E+01  0.32305861635E+01  0.00000000000E+00 0. -1.
         -3    1    3    3    0  502 -0.36604591593E+03 -0.37148267752E+02 -0.51197584208E+03  0.63046718331E+03  0.00000000000E+00 0.  1.
         11    1    5    5    0    0  0.13434970834E+03 -0.34044384343E+03 -0.20634505271E+02  0.36657555492E+03  0.00000000000E+00 0.  1.
        -11    1    5    5    0    0  0.65216378293E+02 -0.59680016881E+02  0.12300296034E+02  0.89253446405E+02  0.00000000000E+00 0. -1.
          3    1    6    6  503    0 -0.35452321287E+01  0.64444403024E+02  0.12147238046E+02  0.65674996339E+02  0.00000000000E+00 0. -1.
         -3    1    6    6    0  503  0.16929056771E+03  0.37015352229E+03  0.26001086525E+03  0.48298920943E+03  0.00000000000E+00 0.  1.
<mgrwt>
<rscale>  0 0.16195400E+04</rscale>
<asrwt>0</asrwt>
<pdfrwt beam="1">  1        2 0.10705355E+00 0.16195400E+04</pdfrwt>
<pdfrwt beam="2">  1       -1 0.14497583E+00 0.16195400E+04</pdfrwt>
<totfact> 0.17258446E+01</totfact>
</mgrwt>
</event>
<event>
12    6  0.1529770E-007  0.3959960E+04  0.7818608E-02  0.8012673E-01
         -1   -1    0    0    0  501 -0.00000000000E+00  0.00000000000E+00  0.18608299316E+04  0.18608299316E+04  0.00000000000E+00 0.  1.
          2   -1    0    0  501    0  0.00000000000E+00 -0.00000000000E+00 -0.21067591930E+04  0.21067591930E+04  0.00000000000E+00 0. -1.
         24    2    1    2    0    0 -0.14103118005E+04  0.69608274618E+03 -0.11421694468E+04  0.19453391232E+04  0.79263451784E+02 0.  0.
        254    2    1    2    0    0  0.14103118005E+04 -0.69608274618E+03  0.89624018540E+03  0.20222500015E+04  0.90151984690E+03 0.  0.
         23    2    4    4    0    0  0.12333319711E+04 -0.72126228842E+03  0.39851497263E+03  0.14862143732E+04  0.93230574347E+02 0.  0.
         23    2    4    4    0    0  0.17697982940E+03  0.25179542240E+02  0.49772521277E+03  0.53603562829E+03  0.87452489986E+02 0.  0.
          2    1    3    3  502    0 -0.11571716480E+04  0.53998740963E+03 -0.94287284925E+03  0.15873379714E+04  0.00000000000E+00 0. -1.
         -1    1    3    3    0  502 -0.25314015252E+03  0.15609533654E+03 -0.19929659757E+03  0.35800115183E+03  0.00000000000E+00 0.  1.
         11    1    5    5    0    0  0.10929917488E+03 -0.95338148315E+02  0.33029168279E+02  0.14875011970E+03  0.00000000000E+00 0. -1.
        -11    1    5    5    0    0  0.11240327962E+04 -0.62592414010E+03  0.36548580435E+03  0.13374642535E+04  0.00000000000E+00 0.  1.
          1    1    6    6  503    0  0.33835406094E+02 -0.30112888121E+02  0.10228897831E+03  0.11186892249E+03  0.00000000000E+00 0. -1.
         -1    1    6    6    0  503  0.14314442330E+03  0.55292430361E+02  0.39543623447E+03  0.42416670580E+03  0.00000000000E+00 0.  1.
<mgrwt>
<rscale>  0 0.39599599E+04</rscale>
<asrwt>0</asrwt>
<pdfrwt beam="1">  1        2 0.32411680E+00 0.39599599E+04</pdfrwt>
<pdfrwt beam="2">  1       -1 0.28628153E+00 0.39599599E+04</pdfrwt>
<totfact> 0.21251939E-01</totfact>
</mgrwt>
</event>
<event>
12    6  0.1529770E-007  0.1440713E+04  0.7818608E-02  0.8924864E-01
          2   -1    0    0  501    0  0.00000000000E+00  0.00000000000E+00  0.10383553657E+04  0.10383553657E+04  0.00000000000E+00 0. -1.
         -1   -1    0    0    0  501 -0.00000000000E+00 -0.00000000000E+00 -0.49974582555E+03  0.49974582555E+03  0.00000000000E+00 0.  1.
         24    2    1    2    0    0 -0.36285458930E+03 -0.21502548390E+03  0.51830029275E+02  0.43236583056E+03  0.79714790332E+02 0.  0.
        254    2    1    2    0    0  0.36285458930E+03  0.21502548390E+03  0.48677951083E+03  0.11057353606E+04  0.89877526885E+03 0.  0.
         23    2    4    4    0    0  0.17182836193E+03  0.40176489318E+03 -0.96685877255E+02  0.45776111377E+03  0.96213632431E+02 0.  0.
         23    2    4    4    0    0  0.19102622737E+03 -0.18673940929E+03  0.58346538809E+03  0.64797424687E+03  0.89867341038E+02 0.  0.
          4    1    3    3  502    0 -0.79760899423E+02 -0.25379934001E+02  0.36392670002E+02  0.91270852721E+02  0.00000000000E+00 0. -1.
         -3    1    3    3    0  502 -0.28309368988E+03 -0.18964554989E+03  0.15437359273E+02  0.34109497783E+03  0.00000000000E+00 0.  1.
         11    1    5    5    0    0  0.95319054614E+02  0.14669182018E+03 -0.14595441547E+01  0.17494668488E+03  0.00000000000E+00 0.  1.
        -11    1    5    5    0    0  0.76509307319E+02  0.25507307300E+03 -0.95226333100E+02  0.28281442890E+03  0.00000000000E+00 0. -1.
          1    1    6    6  503    0  0.16332015514E+03 -0.13198740636E+03  0.36539908785E+03  0.42143877599E+03  0.00000000000E+00 0. -1.
         -1    1    6    6    0  503  0.27706072223E+02 -0.54752002930E+02  0.21806630024E+03  0.22653547087E+03  0.00000000000E+00 0.  1.
<mgrwt>
<rscale>  0 0.14407134E+04</rscale>
<asrwt>0</asrwt>
<pdfrwt beam="1">  1        2 0.15974698E+00 0.14407134E+04</pdfrwt>
<pdfrwt beam="2">  1       -1 0.76883973E-01 0.14407134E+04</pdfrwt>
<totfact> 0.44737194E+01</totfact>
</mgrwt>
</event>
<event>
12    6  0.1529770E-007  0.1437386E+04  0.7818608E-02  0.8927193E-01
          2   -1    0    0  501    0  0.00000000000E+00  0.00000000000E+00  0.16278394989E+04  0.16278394989E+04  0.00000000000E+00 0. -1.
         -1   -1    0    0    0  501 -0.00000000000E+00 -0.00000000000E+00 -0.31730373795E+03  0.31730373795E+03  0.00000000000E+00 0.  1.
         24    2    1    2    0    0  0.15140578452E+03  0.28243961390E+03 -0.85334798432E+01  0.33049780574E+03  0.80374947823E+02 0.  0.
        254    2    1    2    0    0 -0.15140578452E+03 -0.28243961390E+03  0.13190692408E+04  0.16146454311E+04  0.87432280029E+03 0.  0.
         23    2    4    4    0    0 -0.32077525089E+03  0.16065509174E+03  0.90754414939E+03  0.98006085966E+03  0.90421708996E+02 0.  0.
         23    2    4    4    0    0  0.16936946637E+03 -0.44309470564E+03  0.41152509137E+03  0.63458457142E+03  0.91245510342E+02 0.  0.
          4    1    3    3  502    0  0.82795807116E+02  0.11005074432E+03 -0.37445714015E+02  0.14271823114E+03  0.00000000000E+00 0. -1.
         -3    1    3    3    0  502  0.68609977405E+02  0.17238886957E+03  0.28912234172E+02  0.18777957460E+03  0.00000000000E+00 0.  1.
         11    1    5    5    0    0 -0.10312722058E+03  0.10077699420E+03  0.34585421827E+03  0.37470837525E+03  0.00000000000E+00 0.  1.
        -11    1    5    5    0    0 -0.21764803031E+03  0.59878097538E+02  0.56168993112E+03  0.60535248441E+03  0.00000000000E+00 0. -1.
          3    1    6    6  503    0  0.18551922826E+02 -0.51574594337E+01  0.23264868018E+02  0.30199789938E+02  0.00000000000E+00 0. -1.
         -3    1    6    6    0  503  0.15081754355E+03 -0.43793724620E+03  0.38826022335E+03  0.60438478149E+03  0.00000000000E+00 0.  1.
<mgrwt>
<rscale>  0 0.14373859E+04</rscale>
<asrwt>0</asrwt>
<pdfrwt beam="1">  1        2 0.25043684E+00 0.14373859E+04</pdfrwt>
<pdfrwt beam="2">  1       -1 0.48815961E-01 0.14373859E+04</pdfrwt>
<totfact> 0.49983646E+01</totfact>
</mgrwt>
</event>
<event>
12    6  0.1529770E-007  0.2568421E+04  0.7818608E-02  0.8379008E-01
         -1   -1    0    0    0  501 -0.00000000000E+00  0.00000000000E+00  0.40048710078E+03  0.40048710078E+03  0.00000000000E+00 0.  1.
          2   -1    0    0  501    0  0.00000000000E+00 -0.00000000000E+00 -0.41179762295E+04  0.41179762295E+04  0.00000000000E+00 0. -1.
         24    2    1    2    0    0 -0.94736385144E+03  0.23647158279E+03 -0.26695930350E+04  0.28436814431E+04  0.79875531532E+02 0.  0.
        254    2    1    2    0    0  0.94736385144E+03 -0.23647158279E+03 -0.10478960937E+04  0.16747818872E+04  0.86798103095E+03 0.  0.
         23    2    4    4    0    0  0.60286631049E+03  0.89236563675E+02 -0.11833581593E+03  0.62738297780E+03  0.90526697041E+02 0.  0.
         23    2    4    4    0    0  0.34449754095E+03 -0.32570814647E+03 -0.92956027779E+03  0.10473989094E+04  0.90541775145E+02 0.  0.
          4    1    3    3  502    0 -0.77935829348E+03  0.19454135375E+03 -0.21016795170E+04  0.22499561063E+04  0.00000000000E+00 0. -1.
         -3    1    3    3    0  502 -0.16800555796E+03  0.41930229040E+02 -0.56791351805E+03  0.59372533683E+03  0.00000000000E+00 0.  1.
         11    1    5    5    0    0  0.20037354516E+03  0.39146903426E+02 -0.82516762001E+02  0.22020684289E+03  0.00000000000E+00 0.  1.
        -11    1    5    5    0    0  0.40249276534E+03  0.50089660249E+02 -0.35819053930E+02  0.40717613490E+03  0.00000000000E+00 0. -1.
          1    1    6    6  503    0  0.27678557133E+03 -0.29637315893E+03 -0.82672576619E+03  0.92082723369E+03  0.00000000000E+00 0. -1.
         -1    1    6    6    0  503  0.67711969627E+02 -0.29334987541E+02 -0.10283451160E+03  0.12657167574E+03  0.00000000000E+00 0.  1.
<mgrwt>
<rscale>  0 0.25684208E+04</rscale>
<asrwt>0</asrwt>
<pdfrwt beam="1">  1        2 0.63353485E+00 0.25684208E+04</pdfrwt>
<pdfrwt beam="2">  1       -1 0.61613396E-01 0.25684208E+04</pdfrwt>
<totfact> 0.73881564E-01</totfact>
</mgrwt>
</event>
<event>
12    6  0.1529770E-007  0.1932387E+04  0.7818608E-02  0.8638901E-01
         -1   -1    0    0    0  501 -0.00000000000E+00  0.00000000000E+00  0.16307374949E+04  0.16307374949E+04  0.00000000000E+00 0.  1.
          2   -1    0    0  501    0  0.00000000000E+00 -0.00000000000E+00 -0.57245842029E+03  0.57245842029E+03  0.00000000000E+00 0. -1.
         24    2    1    2    0    0 -0.78892816007E+02 -0.40863659874E+02  0.12763705885E+04  0.12820325197E+04  0.81188590326E+02 0.  0.
        254    2    1    2    0    0  0.78892816007E+02  0.40863659874E+02 -0.21809151392E+03  0.92116339549E+03  0.89055273714E+03 0.  0.
         23    2    4    4    0    0  0.44411014853E+03 -0.12707710372E+03 -0.41379639156E+02  0.47271454437E+03  0.91456829210E+02 0.  0.
         23    2    4    4    0    0 -0.36521733252E+03  0.16794076360E+03 -0.17671187476E+03  0.44844885112E+03  0.91057593519E+02 0.  0.
          2    1    3    3  502    0 -0.75598666265E+01 -0.86834511188E+01  0.18909411836E+02  0.22138648620E+02  0.00000000000E+00 0. -1.
         -1    1    3    3    0  502 -0.71332949380E+02 -0.32180208755E+02  0.12574611767E+04  0.12598938711E+04  0.00000000000E+00 0.  1.
         11    1    5    5    0    0  0.20032077452E+03 -0.10109943426E+03 -0.19555556176E+01  0.22439548237E+03  0.00000000000E+00 0.  1.
        -11    1    5    5    0    0  0.24378937401E+03 -0.25977669465E+02 -0.39424083538E+02  0.24831906200E+03  0.00000000000E+00 0. -1.
          4    1    6    6  503    0 -0.30607473631E+03  0.17473008710E+03 -0.15597390085E+03  0.38540914013E+03  0.00000000000E+00 0.  1.
         -4    1    6    6    0  503 -0.59142596211E+02 -0.67893235055E+01 -0.20737973911E+02  0.63039710994E+02  0.00000000000E+00 0. -1.
<mgrwt>
<rscale>  0 0.19323865E+04</rscale>
<asrwt>0</asrwt>
<pdfrwt beam="1">  1        2 0.88070527E-01 0.19323865E+04</pdfrwt>
<pdfrwt beam="2">  1       -1 0.25088269E+00 0.19323865E+04</pdfrwt>
<totfact> 0.38528657E+00</totfact>
</mgrwt>
</event>
<event>
12    6  0.1529770E-007  0.1677518E+04  0.7818608E-02  0.8774292E-01
         -1   -1    0    0    0  501 -0.00000000000E+00  0.00000000000E+00  0.44453969137E+03  0.44453969137E+03  0.00000000000E+00 0.  1.
          2   -1    0    0  501    0  0.00000000000E+00 -0.00000000000E+00 -0.15825728076E+04  0.15825728076E+04  0.00000000000E+00 0. -1.
         24    2    1    2    0    0  0.56357533465E+03 -0.17718703626E+03 -0.40681461338E+03  0.72157354030E+03  0.78471910628E+02 0.  0.
        254    2    1    2    0    0 -0.56357533465E+03  0.17718703626E+03 -0.73121850284E+03  0.13055389587E+04  0.90594650506E+03 0.  0.
         23    2    4    4    0    0 -0.28356201689E+02  0.42666182142E+03 -0.50228938059E+03  0.66582301882E+03  0.90450464405E+02 0.  0.
         23    2    4    4    0    0 -0.53521913296E+03 -0.24947478517E+03 -0.22892912226E+03  0.63971593983E+03  0.90170682246E+02 0.  0.
          2    1    3    3  502    0  0.52498505155E+03 -0.14240825530E+03 -0.36856005197E+03  0.65705854187E+03  0.00000000000E+00 0. -1.
         -1    1    3    3    0  502  0.38590283097E+02 -0.34778780952E+02 -0.38254561408E+02  0.64514998431E+02  0.00000000000E+00 0.  1.
         11    1    5    5    0    0  0.27166627785E+02  0.25740414597E+03 -0.29053461168E+03  0.38910831476E+03  0.00000000000E+00 0. -1.
        -11    1    5    5    0    0 -0.55522829475E+02  0.16925767545E+03 -0.21175476891E+03  0.27671470407E+03  0.00000000000E+00 0.  1.
          2    1    6    6  503    0 -0.12855526999E+03 -0.10287879302E+03 -0.52518833900E+02  0.17282572555E+03  0.00000000000E+00 0. -1.
         -2    1    6    6    0  503 -0.40666386297E+03 -0.14659599214E+03 -0.17641028836E+03  0.46689021429E+03  0.00000000000E+00 0.  1.
<mgrwt>
<rscale>  0 0.16775177E+04</rscale>
<asrwt>0</asrwt>
<pdfrwt beam="1">  1        2 0.24347274E+00 0.16775177E+04</pdfrwt>
<pdfrwt beam="2">  1       -1 0.68390721E-01 0.16775177E+04</pdfrwt>
<totfact> 0.26805212E+01</totfact>
</mgrwt>
</event>
<event>
12    6  0.1607832E-007  0.2182843E+04  0.7818608E-02  0.8525603E-01
          2   -1    0    0  501    0  0.00000000000E+00  0.00000000000E+00  0.17596404044E+04  0.17596404044E+04  0.00000000000E+00 0. -1.
         -1   -1    0    0    0  501 -0.00000000000E+00 -0.00000000000E+00 -0.67695691604E+03  0.67695691604E+03  0.00000000000E+00 0.  1.
         24    2    1    2    0    0 -0.67148676321E+02 -0.30959664041E+03  0.13953478718E+04  0.14330985509E+04  0.80104611406E+02 0.  0.
        254    2    1    2    0    0  0.67148676321E+02  0.30959664041E+03 -0.31266438347E+03  0.10034987695E+04  0.89938408883E+03 0.  0.
         23    2    4    4    0    0  0.81507006265E+02 -0.16417872087E+03 -0.45617546467E+03  0.49991896037E+03  0.90691057540E+02 0.  0.
         23    2    4    4    0    0 -0.14358329944E+02  0.47377536129E+03  0.14351108120E+03  0.50357980914E+03  0.91257542974E+02 0.  0.
          4    1    3    3  502    0 -0.35341925834E+02 -0.26066471883E+03  0.10268366736E+04  0.10599946705E+04  0.00000000000E+00 0. -1.
         -3    1    3    3    0  502 -0.31806750487E+02 -0.48931921585E+02  0.36851119823E+03  0.37310388037E+03  0.00000000000E+00 0.  1.
         11    1    5    5    0    0  0.87209749654E+00 -0.28269915979E+02 -0.16587547284E+02  0.32788647859E+02  0.00000000000E+00 0. -1.
        -11    1    5    5    0    0  0.80634908769E+02 -0.13590880489E+03 -0.43958791738E+03  0.46713031251E+03  0.00000000000E+00 0.  1.
          3    1    6    6  503    0  0.15196797717E+01  0.65648134142E+00 -0.67256230604E+01  0.69263554566E+01  0.00000000000E+00 0. -1.
         -3    1    6    6    0  503 -0.15878009716E+02  0.47311887994E+03  0.15023670426E+03  0.49665345369E+03  0.00000000000E+00 0.  1.
<mgrwt>
<rscale>  0 0.21828429E+04</rscale>
<asrwt>0</asrwt>
<pdfrwt beam="1">  1        2 0.27071391E+00 0.21828429E+04</pdfrwt>
<pdfrwt beam="2">  1       -1 0.10414722E+00 0.21828429E+04</pdfrwt>
<totfact> 0.82164734E+00</totfact>
</mgrwt>
</event>
<event>
12    6  0.1529770E-007  0.1427499E+04  0.7818608E-02  0.8934150E-01
          2   -1    0    0  501    0  0.00000000000E+00  0.00000000000E+00  0.10926802828E+04  0.10926802828E+04  0.00000000000E+00 0. -1.
         -1   -1    0    0    0  501 -0.00000000000E+00 -0.00000000000E+00 -0.46622845316E+03  0.46622845316E+03  0.00000000000E+00 0.  1.
         24    2    1    2    0    0 -0.24550936835E+03  0.22338339218E+03 -0.10213499571E+03  0.35629947328E+03  0.79641493351E+02 0.  0.
        254    2    1    2    0    0  0.24550936835E+03 -0.22338339218E+03  0.72858682534E+03  0.12026092627E+04  0.89736017672E+03 0.  0.
         23    2    4    4    0    0  0.45615125573E+03 -0.18346724617E+02  0.67876478985E+02  0.47288258007E+03  0.10295701882E+03 0.  0.
         23    2    4    4    0    0 -0.21064188738E+03 -0.20503666756E+03  0.66071034635E+03  0.72972668260E+03  0.97738578672E+02 0.  0.
          2    1    3    3  502    0 -0.56313756415E+02  0.10143254723E+03 -0.28466804912E+02  0.11945777405E+03  0.00000000000E+00 0. -1.
         -1    1    3    3    0  502 -0.18919561194E+03  0.12195084495E+03 -0.73668190801E+02  0.23684169923E+03  0.00000000000E+00 0.  1.
         11    1    5    5    0    0  0.35441347260E+03 -0.11172355822E+02  0.95486208573E+02  0.36722111476E+03  0.00000000000E+00 0.  1.
        -11    1    5    5    0    0  0.10173778313E+03 -0.71743687948E+01 -0.27609729589E+02  0.10566146531E+03  0.00000000000E+00 0. -1.
          3    1    6    6  503    0 -0.55154249225E+02 -0.65539006752E+02  0.10173188536E+03  0.13299146255E+03  0.00000000000E+00 0.  1.
         -3    1    6    6    0  503 -0.15548763815E+03 -0.13949766081E+03  0.55897846100E+03  0.59673522005E+03  0.00000000000E+00 0. -1.
<mgrwt>
<rscale>  0 0.14274994E+04</rscale>
<asrwt>0</asrwt>
<pdfrwt beam="1">  1        2 0.16810466E+00 0.14274994E+04</pdfrwt>
<pdfrwt beam="2">  1       -1 0.71727454E-01 0.14274994E+04</pdfrwt>
<totfact> 0.47860225E+01</totfact>
</mgrwt>
</event>
<event>
12    6  0.1529770E-007  0.2951392E+04  0.7818608E-02  0.8257749E-01
         -1   -1    0    0    0  501 -0.00000000000E+00  0.00000000000E+00  0.73469474301E+03  0.73469474301E+03  0.00000000000E+00 0.  1.
          2   -1    0    0  501    0  0.00000000000E+00 -0.00000000000E+00 -0.29640583777E+04  0.29640583777E+04  0.00000000000E+00 0. -1.
         24    2    1    2    0    0  0.13535278085E+03  0.13030091452E+04 -0.68202344840E+03  0.14790733016E+04  0.79678351631E+02 0.  0.
        254    2    1    2    0    0 -0.13535278085E+03 -0.13030091452E+04 -0.15473401863E+04  0.22196798191E+04  0.90363910906E+03 0.  0.
         23    2    4    4    0    0  0.35138404280E+03 -0.66705932086E+03 -0.95052628269E+03  0.12166851093E+04  0.91561771205E+02 0.  0.
         23    2    4    4    0    0 -0.48673682365E+03 -0.63594982432E+03 -0.59681390363E+03  0.10029947098E+04  0.92014334994E+02 0.  0.
          4    1    3    3  502    0  0.48225622024E+02  0.47696810491E+03 -0.29315589921E+03  0.56192941279E+03  0.00000000000E+00 0. -1.
         -3    1    3    3    0  502  0.87127158824E+02  0.82604104028E+03 -0.38886754919E+03  0.91714388884E+03  0.00000000000E+00 0.  1.
         11    1    5    5    0    0  0.13573432245E+03 -0.35590289671E+03 -0.47712526517E+03  0.61052370702E+03  0.00000000000E+00 0.  1.
        -11    1    5    5    0    0  0.21564972035E+03 -0.31115642415E+03 -0.47340101753E+03  0.60616140224E+03  0.00000000000E+00 0. -1.
          1    1    6    6  503    0 -0.15422839691E+03 -0.13573029932E+03 -0.15423348000E+03  0.25689896637E+03  0.00000000000E+00 0.  1.
         -1    1    6    6    0  503 -0.33250842673E+03 -0.50021952500E+03 -0.44258042362E+03  0.74609574346E+03  0.00000000000E+00 0. -1.
<mgrwt>
<rscale>  0 0.29513916E+04</rscale>
<asrwt>0</asrwt>
<pdfrwt beam="1">  1        2 0.45600898E+00 0.29513916E+04</pdfrwt>
<pdfrwt beam="2">  1       -1 0.11302996E+00 0.29513916E+04</pdfrwt>
<totfact> 0.12803516E+00</totfact>
</mgrwt>
</event>
<event>
12    6  0.1529770E-007  0.2632190E+04  0.7818608E-02  0.8357348E-01
          2   -1    0    0  501    0  0.00000000000E+00  0.00000000000E+00  0.35468700892E+04  0.35468700892E+04  0.00000000000E+00 0. -1.
         -1   -1    0    0    0  501 -0.00000000000E+00 -0.00000000000E+00 -0.48834780453E+03  0.48834780453E+03  0.00000000000E+00 0.  1.
         24    2    1    2    0    0  0.61178473033E+03  0.51403799654E+03  0.26474215119E+04  0.27665638524E+04  0.80741991471E+02 0.  0.
        254    2    1    2    0    0 -0.61178473033E+03 -0.51403799654E+03  0.41110077273E+03  0.12686540414E+04  0.89552421138E+03 0.  0.
         23    2    4    4    0    0 -0.31059863953E+03 -0.45597305942E+03 -0.18729537158E+03  0.59010313752E+03  0.93590656043E+02 0.  0.
         23    2    4    4    0    0 -0.30118609080E+03 -0.58064937121E+02  0.59839614430E+03  0.67855090384E+03  0.90932861875E+02 0.  0.
          4    1    3    3  502    0  0.43426717355E+03  0.31613205820E+03  0.17466830286E+04  0.18274104789E+04  0.00000000000E+00 0. -1.
         -3    1    3    3    0  502  0.17751755678E+03  0.19790593834E+03  0.90073848339E+03  0.93915337345E+03  0.00000000000E+00 0.  1.
         11    1    5    5    0    0 -0.81667481647E+02 -0.11149430695E+03 -0.55347062819E+01  0.13831554871E+03  0.00000000000E+00 0. -1.
        -11    1    5    5    0    0 -0.22893115788E+03 -0.34447875247E+03 -0.18176066530E+03  0.45178758881E+03  0.00000000000E+00 0.  1.
          2    1    6    6  503    0 -0.13028559054E+02  0.17305046066E+02  0.32522747957E+02  0.39076042597E+02  0.00000000000E+00 0. -1.
         -2    1    6    6    0  503 -0.28815753175E+03 -0.75369983186E+02  0.56587339635E+03  0.63947486124E+03  0.00000000000E+00 0.  1.
<mgrwt>
<rscale>  0 0.26321901E+04</rscale>
<asrwt>0</asrwt>
<pdfrwt beam="1">  1        2 0.54567230E+00 0.26321901E+04</pdfrwt>
<pdfrwt beam="2">  1       -1 0.75130434E-01 0.26321901E+04</pdfrwt>
<totfact> 0.13470635E+00</totfact>
</mgrwt>
</event>
<event>
12    6  0.1529770E-007  0.1569666E+04  0.7818608E-02  0.8839403E-01
          2   -1    0    0  501    0  0.00000000000E+00  0.00000000000E+00  0.98064810753E+03  0.98064810753E+03  0.00000000000E+00 0. -1.
         -1   -1    0    0    0  501 -0.00000000000E+00 -0.00000000000E+00 -0.62811795553E+03  0.62811795553E+03  0.00000000000E+00 0.  1.
         24    2    1    2    0    0 -0.36662548962E+02 -0.33381460475E+03  0.53308754815E+03  0.63530189057E+03  0.81546461229E+02 0.  0.
        254    2    1    2    0    0  0.36662548962E+02  0.33381460475E+03 -0.18055739615E+03  0.97346417249E+03  0.89568699275E+03 0.  0.
         23    2    4    4    0    0  0.42520830723E+03  0.13645820731E+03 -0.25387640606E+03  0.52178849324E+03  0.91580867219E+02 0.  0.
         23    2    4    4    0    0 -0.38854575827E+03  0.19735639744E+03  0.73319009918E+02  0.45167567926E+03  0.93369631789E+02 0.  0.
          2    1    3    3  502    0 -0.40555945826E+02 -0.30593717859E+03  0.43568451748E+03  0.53391323336E+03  0.00000000000E+00 0. -1.
         -1    1    3    3    0  502  0.38933968646E+01 -0.27877426153E+02  0.97403030666E+02  0.10138865721E+03  0.00000000000E+00 0.  1.
         11    1    5    5    0    0  0.79987818614E+01  0.11778121585E+02 -0.27620539112E+02  0.31074086312E+02  0.00000000000E+00 0.  1.
        -11    1    5    5    0    0  0.41720952537E+03  0.12468008573E+03 -0.22625586695E+03  0.49071440693E+03  0.00000000000E+00 0. -1.
          3    1    6    6  503    0 -0.26847792278E+03  0.98510027111E+02  0.17770398740E+02  0.28653168679E+03  0.00000000000E+00 0. -1.
         -3    1    6    6    0  503 -0.12006783549E+03  0.98846370325E+02  0.55548611178E+02  0.16514399247E+03  0.00000000000E+00 0.  1.
<mgrwt>
<rscale>  0 0.15696658E+04</rscale>
<asrwt>0</asrwt>
<pdfrwt beam="1">  1        2 0.15086894E+00 0.15696658E+04</pdfrwt>
<pdfrwt beam="2">  1       -1 0.96633532E-01 0.15696658E+04</pdfrwt>
<totfact> 0.29300986E+01</totfact>
</mgrwt>
</event>
<event>
12    6  0.1529770E-007  0.1380435E+04  0.7818608E-02  0.8968104E-01
          2   -1    0    0  501    0  0.00000000000E+00  0.00000000000E+00  0.78868151244E+03  0.78868151244E+03  0.00000000000E+00 0. -1.
         -1   -1    0    0    0  501 -0.00000000000E+00 -0.00000000000E+00 -0.60404622543E+03  0.60404622543E+03  0.00000000000E+00 0.  1.
         24    2    1    2    0    0 -0.21103685779E+03  0.19824741993E+03 -0.20982866690E+03  0.36634217723E+03  0.79623655440E+02 0.  0.
        254    2    1    2    0    0  0.21103685779E+03 -0.19824741993E+03  0.39446395391E+03  0.10263855606E+04  0.90223440043E+03 0.  0.
         23    2    4    4    0    0 -0.67390416481E+01 -0.51472959225E+03  0.96416055324E+02  0.53164512566E+03  0.91424920525E+02 0.  0.
         23    2    4    4    0    0  0.21777589944E+03  0.31648217233E+03  0.29804789858E+03  0.49474043498E+03  0.91368705679E+02 0.  0.
          4    1    3    3  502    0 -0.22121495844E+02  0.27263529012E+02 -0.63371532036E+02  0.72447302677E+02  0.00000000000E+00 0. -1.
         -3    1    3    3    0  502 -0.18891536195E+03  0.17098389092E+03 -0.14645713486E+03  0.29389487455E+03  0.00000000000E+00 0.  1.
         11    1    5    5    0    0  0.21856078878E+02 -0.92147925482E+02  0.45436735424E+02  0.10504011272E+03  0.00000000000E+00 0. -1.
        -11    1    5    5    0    0 -0.28595120526E+02 -0.42258166677E+03  0.50979319901E+02  0.42660501294E+03  0.00000000000E+00 0.  1.
          3    1    6    6  503    0  0.10419534237E+03  0.22873371548E+03  0.18796401726E+03  0.31385705943E+03  0.00000000000E+00 0. -1.
         -3    1    6    6    0  503  0.11358055707E+03  0.87748456845E+02  0.11008388132E+03  0.18088337555E+03  0.00000000000E+00 0.  1.
<mgrwt>
<rscale>  0 0.13804348E+04</rscale>
<asrwt>0</asrwt>
<pdfrwt beam="1">  1        2 0.12133562E+00 0.13804348E+04</pdfrwt>
<pdfrwt beam="2">  1       -1 0.92930189E-01 0.13804348E+04</pdfrwt>
<totfact> 0.43966808E+01</totfact>
</mgrwt>
</event>
<event>
12    6  0.1529770E-007  0.1524441E+04  0.7818608E-02  0.8868361E-01
         -1   -1    0    0    0  501 -0.00000000000E+00  0.00000000000E+00  0.98569412212E+03  0.98569412212E+03  0.00000000000E+00 0.  1.
          2   -1    0    0  501    0  0.00000000000E+00 -0.00000000000E+00 -0.58941177360E+03  0.58941177360E+03  0.00000000000E+00 0. -1.
         24    2    1    2    0    0  0.38326193012E+03 -0.28794603509E+03  0.99445371546E+02  0.49583277390E+03  0.78473763457E+02 0.  0.
        254    2    1    2    0    0 -0.38326193012E+03  0.28794603509E+03  0.29683697697E+03  0.10792731218E+04  0.92028020427E+03 0.  0.
         23    2    4    4    0    0  0.10309145457E+03 -0.11260680285E+03 -0.20287017978E+03  0.26953753879E+03  0.90476709245E+02 0.  0.
         23    2    4    4    0    0 -0.48635338469E+03  0.40055283794E+03  0.49970715675E+03  0.80973558303E+03  0.94774897183E+02 0.  0.
          2    1    3    3  502    0  0.23973760667E+03 -0.16136696214E+03  0.95727426302E+02  0.30442923096E+03  0.00000000000E+00 0. -1.
         -1    1    3    3    0  502  0.14352432345E+03 -0.12657907295E+03  0.37179452442E+01  0.19140354294E+03  0.00000000000E+00 0.  1.
         11    1    5    5    0    0  0.10956513404E+03 -0.10981823302E+03 -0.20894269903E+03  0.26023376871E+03  0.00000000000E+00 0. -1.
        -11    1    5    5    0    0 -0.64736794653E+01 -0.27885698262E+01  0.60725192490E+01  0.93037700705E+01  0.00000000000E+00 0.  1.
          4    1    6    6  503    0 -0.34516995183E+03  0.32099933794E+03  0.33215693926E+03  0.57663775709E+03  0.00000000000E+00 0. -1.
         -4    1    6    6    0  503 -0.14118343287E+03  0.79553500000E+02  0.16755021749E+03  0.23309782595E+03  0.00000000000E+00 0.  1.
<mgrwt>
<rscale>  0 0.15244405E+04</rscale>
<asrwt>0</asrwt>
<pdfrwt beam="1">  1        2 0.90678734E-01 0.15244405E+04</pdfrwt>
<pdfrwt beam="2">  1       -1 0.15164525E+00 0.15244405E+04</pdfrwt>
<totfact> 0.18919295E+01</totfact>
</mgrwt>
</event>
<event>
12    6  0.1529770E-007  0.2228513E+04  0.7818608E-02  0.8506653E-01
          2   -1    0    0  501    0  0.00000000000E+00  0.00000000000E+00  0.10398356302E+04  0.10398356302E+04  0.00000000000E+00 0. -1.
         -1   -1    0    0    0  501 -0.00000000000E+00 -0.00000000000E+00 -0.11940038294E+04  0.11940038294E+04  0.00000000000E+00 0.  1.
         24    2    1    2    0    0 -0.34003059091E+03  0.39844573210E+03  0.70842619566E+03  0.88438245144E+03  0.76712720803E+02 0.  0.
        254    2    1    2    0    0  0.34003059091E+03 -0.39844573210E+03 -0.86259439487E+03  0.13494570081E+04  0.89587126441E+03 0.  0.
         23    2    4    4    0    0  0.36806551697E+03 -0.48295733423E+03 -0.99330679852E+03  0.11678599973E+04  0.92296077152E+02 0.  0.
         23    2    4    4    0    0 -0.28034926054E+02  0.84511602129E+02  0.13071240366E+03  0.18159701076E+03  0.89238858550E+02 0.  0.
          2    1    3    3  502    0 -0.29587501220E+03  0.30121882005E+03  0.55147852401E+03  0.69455263505E+03  0.00000000000E+00 0. -1.
         -1    1    3    3    0  502 -0.44155578711E+02  0.97226912049E+02  0.15694767164E+03  0.18982981639E+03  0.00000000000E+00 0.  1.
         11    1    5    5    0    0  0.17423617877E+03 -0.28987179464E+03 -0.59998352603E+03  0.68874097804E+03  0.00000000000E+00 0.  1.
        -11    1    5    5    0    0  0.19382933820E+03 -0.19308553959E+03 -0.39332327250E+03  0.47911901927E+03  0.00000000000E+00 0. -1.
          2    1    6    6  503    0 -0.30339074528E+02 -0.11256626953E+01  0.70638387193E+01  0.31170889901E+02  0.00000000000E+00 0. -1.
         -2    1    6    6    0  503  0.23041484744E+01  0.85637264825E+02  0.12364856494E+03  0.15042612086E+03  0.00000000000E+00 0.  1.
<mgrwt>
<rscale>  0 0.22285132E+04</rscale>
<asrwt>0</asrwt>
<pdfrwt beam="1">  1        2 0.15997471E+00 0.22285132E+04</pdfrwt>
<pdfrwt beam="2">  1       -1 0.18369290E+00 0.22285132E+04</pdfrwt>
<totfact> 0.48375828E+00</totfact>
</mgrwt>
</event>
<event>
12    6  0.1529770E-007  0.1880436E+04  0.7818608E-02  0.8664657E-01
         -1   -1    0    0    0  501 -0.00000000000E+00  0.00000000000E+00  0.12342102360E+04  0.12342102360E+04  0.00000000000E+00 0.  1.
          2   -1    0    0  501    0  0.00000000000E+00 -0.00000000000E+00 -0.71625530645E+03  0.71625530645E+03  0.00000000000E+00 0. -1.
         24    2    1    2    0    0 -0.31401103397E+03  0.58176170023E+03 -0.97006597406E+02  0.67308423473E+03  0.81132618605E+02 0.  0.
        254    2    1    2    0    0  0.31401103397E+03 -0.58176170023E+03  0.61496152695E+03  0.12773813077E+04  0.90359046053E+03 0.  0.
         23    2    4    4    0    0  0.31386594331E+03 -0.62508790899E+03  0.55564250647E+02  0.70762565266E+03  0.91651262979E+02 0.  0.
         23    2    4    4    0    0  0.14509065162E+00  0.43326208767E+02  0.55939727631E+03  0.56975565506E+03  0.99090929532E+02 0.  0.
          2    1    3    3  502    0 -0.83290955497E+02  0.15327465609E+03  0.10271328302E+02  0.17474553972E+03  0.00000000000E+00 0. -1.
         -1    1    3    3    0  502 -0.23072007847E+03  0.42848704413E+03 -0.10727792571E+03  0.49833869501E+03  0.00000000000E+00 0.  1.
         11    1    5    5    0    0  0.25042672772E+03 -0.53682940241E+03  0.18054353436E+02  0.59264265197E+03  0.00000000000E+00 0. -1.
        -11    1    5    5    0    0  0.63439215591E+02 -0.88258506578E+02  0.37509897211E+02  0.11498300069E+03  0.00000000000E+00 0.  1.
          2    1    6    6  503    0 -0.72398369824E+01 -0.24372340060E+02  0.52810838758E+02  0.58612378299E+02  0.00000000000E+00 0.  1.
         -2    1    6    6    0  503  0.73849276340E+01  0.67698548827E+02  0.50658643755E+03  0.51114327676E+03  0.00000000000E+00 0. -1.
<mgrwt>
<rscale>  0 0.18804357E+04</rscale>
<asrwt>0</asrwt>
<pdfrwt beam="1">  1        2 0.11019312E+00 0.18804357E+04</pdfrwt>
<pdfrwt beam="2">  1       -1 0.18987850E+00 0.18804357E+04</pdfrwt>
<totfact> 0.75439581E+00</totfact>
</mgrwt>
</event>
<event>
12    6  0.1529770E-007  0.1646727E+04  0.7818608E-02  0.8792345E-01
         -1   -1    0    0    0  501 -0.00000000000E+00  0.00000000000E+00  0.77234620836E+03  0.77234620836E+03  0.00000000000E+00 0.  1.
          2   -1    0    0  501    0  0.00000000000E+00 -0.00000000000E+00 -0.87775098229E+03  0.87775098229E+03  0.00000000000E+00 0. -1.
         24    2    1    2    0    0 -0.37365727174E+03 -0.23968297799E+03  0.32140992946E+03  0.55400410061E+03  0.80922889684E+02 0.  0.
        254    2    1    2    0    0  0.37365727174E+03  0.23968297799E+03 -0.42681470338E+03  0.10960930900E+04  0.90674229213E+03 0.  0.
         23    2    4    4    0    0  0.40694549905E+03 -0.15653440177E+03 -0.51217057235E+03  0.67881833481E+03  0.91476654704E+02 0.  0.
         23    2    4    4    0    0 -0.33288227309E+02  0.39621737976E+03  0.85355868967E+02  0.41727475523E+03  0.93468063430E+02 0.  0.
          4    1    3    3  502    0 -0.35221731929E+02 -0.39588157849E+02  0.68173550391E+02  0.86344806531E+02  0.00000000000E+00 0. -1.
         -3    1    3    3    0  502 -0.33843553981E+03 -0.20009482015E+03  0.25323637907E+03  0.46765929408E+03  0.00000000000E+00 0.  1.
         11    1    5    5    0    0  0.24391326908E+03 -0.46002347773E+02 -0.29836615506E+03  0.38811372215E+03  0.00000000000E+00 0.  1.
        -11    1    5    5    0    0  0.16303222997E+03 -0.11053205399E+03 -0.21380441729E+03  0.29070461266E+03  0.00000000000E+00 0. -1.
          4    1    6    6  503    0  0.16976564159E+02  0.24555282971E+03  0.25157506356E+02  0.24742129260E+03  0.00000000000E+00 0. -1.
         -4    1    6    6    0  503 -0.50264791468E+02  0.15066455006E+03  0.60198362611E+02  0.16985346262E+03  0.00000000000E+00 0.  1.
<mgrwt>
<rscale>  0 0.16467272E+04</rscale>
<asrwt>0</asrwt>
<pdfrwt beam="1">  1        2 0.13503861E+00 0.16467272E+04</pdfrwt>
<pdfrwt beam="2">  1       -1 0.11882249E+00 0.16467272E+04</pdfrwt>
<totfact> 0.21006107E+01</totfact>
</mgrwt>
</event>
<event>
12    6  0.1529770E-007  0.1819561E+04  0.7818608E-02  0.8695966E-01
         -1   -1    0    0    0  501 -0.00000000000E+00  0.00000000000E+00  0.12030162719E+04  0.12030162719E+04  0.00000000000E+00 0.  1.
          2   -1    0    0  501    0  0.00000000000E+00 -0.00000000000E+00 -0.68802115478E+03  0.68802115478E+03  0.00000000000E+00 0. -1.
         24    2    1    2    0    0 -0.54213910033E+03  0.38115052341E+03  0.37475336879E+03  0.76544979190E+03  0.79263931926E+02 0.  0.
        254    2    1    2    0    0  0.54213910033E+03 -0.38115052341E+03  0.14024174836E+03  0.11255876348E+04  0.89893784550E+03 0.  0.
         23    2    4    4    0    0  0.67883707485E+03 -0.16321190578E+03 -0.15870533266E+03  0.72173592313E+03  0.90870565912E+02 0.  0.
         23    2    4    4    0    0 -0.13669797452E+03 -0.21793861762E+03  0.29894708102E+03  0.40385171168E+03  0.86852003369E+02 0.  0.
          2    1    3    3  502    0 -0.15558895798E+03  0.76949494536E+02  0.12408169964E+03  0.21336685952E+03  0.00000000000E+00 0. -1.
         -1    1    3    3    0  502 -0.38655014235E+03  0.30420102887E+03  0.25067166915E+03  0.55208293239E+03  0.00000000000E+00 0.  1.
         11    1    5    5    0    0  0.32782638394E+03 -0.12546212874E+03 -0.81958983555E+02  0.36045548787E+03  0.00000000000E+00 0. -1.
        -11    1    5    5    0    0  0.35101069091E+03 -0.37749777045E+02 -0.76746349104E+02  0.36128043526E+03  0.00000000000E+00 0.  1.
          3    1    6    6  503    0 -0.41742265751E+02 -0.87317575284E+02  0.17612001784E+03  0.20096028559E+03  0.00000000000E+00 0. -1.
         -3    1    6    6    0  503 -0.94955708770E+02 -0.13062104234E+03  0.12282706318E+03  0.20289142609E+03  0.00000000000E+00 0.  1.
<mgrwt>
<rscale>  0 0.18195611E+04</rscale>
<asrwt>0</asrwt>
<pdfrwt beam="1">  1        2 0.10584941E+00 0.18195611E+04</pdfrwt>
<pdfrwt beam="2">  1       -1 0.18507943E+00 0.18195611E+04</pdfrwt>
<totfact> 0.86271251E+00</totfact>
</mgrwt>
</event>
<event>
12    6  0.1529770E-007  0.1188566E+04  0.7818608E-02  0.9122924E-01
         -1   -1    0    0    0  501 -0.00000000000E+00  0.00000000000E+00  0.22913737883E+03  0.22913737883E+03  0.00000000000E+00 0.  1.
          2   -1    0    0  501    0  0.00000000000E+00 -0.00000000000E+00 -0.15413118371E+04  0.15413118371E+04  0.00000000000E+00 0. -1.
         24    2    1    2    0    0 -0.23213563424E+03 -0.29943003560E+02 -0.42116411388E+03  0.48761078609E+03  0.74843381430E+02 0.  0.
        254    2    1    2    0    0  0.23213563424E+03  0.29943003560E+02 -0.89101034439E+03  0.12828384298E+04  0.89274378583E+03 0.  0.
         23    2    4    4    0    0  0.28176740546E+03  0.32471508614E+03 -0.86364175594E+03  0.96897168386E+03  0.90533328540E+02 0.  0.
         23    2    4    4    0    0 -0.49631771223E+02 -0.29477208258E+03 -0.27368588445E+02  0.31386674598E+03  0.91702787405E+02 0.  0.
          2    1    3    3  502    0 -0.20460409349E+03 -0.25734380135E+02 -0.40723466379E+03  0.45647033286E+03  0.00000000000E+00 0. -1.
         -1    1    3    3    0  502 -0.27531540752E+02 -0.42086234252E+01 -0.13929450093E+02  0.31140453228E+02  0.00000000000E+00 0.  1.
         11    1    5    5    0    0  0.52680373393E+02  0.90190119346E+02 -0.29024818320E+03  0.30846958881E+03  0.00000000000E+00 0. -1.
        -11    1    5    5    0    0  0.22908703207E+03  0.23452496679E+03 -0.57339357274E+03  0.66050209506E+03  0.00000000000E+00 0.  1.
          3    1    6    6  503    0  0.24943964844E+02 -0.58732572872E+02 -0.17337017820E+02  0.66123283987E+02  0.00000000000E+00 0. -1.
         -3    1    6    6    0  503 -0.74575736068E+02 -0.23603950971E+03 -0.10031570625E+02  0.24774346200E+03  0.00000000000E+00 0.  1.
<mgrwt>
<rscale>  0 0.11885658E+04</rscale>
<asrwt>0</asrwt>
<pdfrwt beam="1">  1        2 0.23712490E+00 0.11885658E+04</pdfrwt>
<pdfrwt beam="2">  1       -1 0.35251903E-01 0.11885658E+04</pdfrwt>
<totfact> 0.10364252E+02</totfact>
</mgrwt>
</event>
<event>
12    6  0.1529770E-007  0.1551481E+04  0.7818608E-02  0.8850922E-01
          2   -1    0    0  501    0  0.00000000000E+00  0.00000000000E+00  0.44932382458E+03  0.44932382458E+03  0.00000000000E+00 0. -1.
         -1   -1    0    0    0  501 -0.00000000000E+00 -0.00000000000E+00 -0.13392862514E+04  0.13392862514E+04  0.00000000000E+00 0.  1.
         24    2    1    2    0    0 -0.10687305715E+02 -0.37136124449E+03 -0.69274710579E+03  0.79015053502E+03  0.80099456941E+02 0.  0.
        254    2    1    2    0    0  0.10687305715E+02  0.37136124449E+03 -0.19721532102E+03  0.99845954095E+03  0.90554082164E+03 0.  0.
         23    2    4    4    0    0  0.18877164058E+03  0.15313969277E+03  0.31457221974E+03  0.40763837586E+03  0.90149133400E+02 0.  0.
         23    2    4    4    0    0 -0.17808433486E+03  0.21822155172E+03 -0.51178754076E+03  0.59082116509E+03  0.88365639732E+02 0.  0.
          2    1    3    3  502    0  0.15016509414E+02 -0.47203859024E+02 -0.14413435330E+03  0.15240869944E+03  0.00000000000E+00 0. -1.
         -1    1    3    3    0  502 -0.25703815129E+02 -0.32415738547E+03 -0.54861275248E+03  0.63774183558E+03  0.00000000000E+00 0.  1.
         11    1    5    5    0    0  0.18086814960E+03  0.16502843317E+03  0.30012393002E+03  0.38732679311E+03  0.00000000000E+00 0.  1.
        -11    1    5    5    0    0  0.79034909832E+01 -0.11888740395E+02  0.14448289716E+02  0.20311582745E+02  0.00000000000E+00 0. -1.
          3    1    6    6  503    0  0.71585808858E+01  0.30921177529E+02 -0.52492190482E+02  0.61341621772E+02  0.00000000000E+00 0. -1.
         -3    1    6    6    0  503 -0.18524291575E+03  0.18730037419E+03 -0.45929535028E+03  0.52947954332E+03  0.00000000000E+00 0.  1.
<mgrwt>
<rscale>  0 0.15514809E+04</rscale>
<asrwt>0</asrwt>
<pdfrwt beam="1">  1        2 0.69126743E-01 0.15514809E+04</pdfrwt>
<pdfrwt beam="2">  1       -1 0.20604404E+00 0.15514809E+04</pdfrwt>
<totfact> 0.10487008E+01</totfact>
</mgrwt>
</event>
<event>
12    6  0.1529770E-007  0.1942755E+04  0.7818608E-02  0.8633862E-01
         -1   -1    0    0    0  501 -0.00000000000E+00  0.00000000000E+00  0.68133930014E+03  0.68133930014E+03  0.00000000000E+00 0.  1.
          2   -1    0    0  501    0  0.00000000000E+00 -0.00000000000E+00 -0.13848817618E+04  0.13848817618E+04  0.00000000000E+00 0. -1.
         24    2    1    2    0    0  0.56365237291E+03  0.96307481888E+01  0.25501121430E+03  0.62407717677E+03  0.81515976063E+02 0.  0.
        254    2    1    2    0    0 -0.56365237291E+03 -0.96307481888E+01 -0.95855367594E+03  0.14421438852E+04  0.91823585588E+03 0.  0.
         23    2    4    4    0    0 -0.34357503191E+03 -0.41664341329E+03 -0.74446475424E+03  0.92430860051E+03  0.92103649680E+02 0.  0.
         23    2    4    4    0    0 -0.22007734099E+03  0.40701266510E+03 -0.21408892171E+03  0.51783528464E+03  0.90697133640E+02 0.  0.
          4    1    3    3  502    0  0.12005001211E+02 -0.12045188752E+02  0.12403542008E+02  0.21048859363E+02  0.00000000000E+00 0. -1.
         -3    1    3    3    0  502  0.55164737169E+03  0.21675936941E+02  0.24260767230E+03  0.60302831741E+03  0.00000000000E+00 0.  1.
         11    1    5    5    0    0 -0.75000322858E+02 -0.91118336998E+02 -0.10397514270E+03  0.15728455126E+03  0.00000000000E+00 0. -1.
        -11    1    5    5    0    0 -0.26857470905E+03 -0.32552507629E+03 -0.64048961154E+03  0.76702404925E+03  0.00000000000E+00 0.  1.
          3    1    6    6  503    0 -0.27929749995E+02  0.70577537912E+02 -0.15300925549E+01  0.75918383648E+02  0.00000000000E+00 0. -1.
         -3    1    6    6    0  503 -0.19214759100E+03  0.33643512719E+03 -0.21255882915E+03  0.44191690100E+03  0.00000000000E+00 0.  1.
<mgrwt>
<rscale>  0 0.19427551E+04</rscale>
<asrwt>0</asrwt>
<pdfrwt beam="1">  1        2 0.21305873E+00 0.19427551E+04</pdfrwt>
<pdfrwt beam="2">  1       -1 0.10482143E+00 0.19427551E+04</pdfrwt>
<totfact> 0.13423189E+01</totfact>
</mgrwt>
</event>
<event>
12    6  0.1529770E-007  0.2386343E+04  0.7818608E-02  0.8444634E-01
          2   -1    0    0  501    0  0.00000000000E+00  0.00000000000E+00  0.55207676094E+03  0.55207676094E+03  0.00000000000E+00 0. -1.
         -1   -1    0    0    0  501 -0.00000000000E+00 -0.00000000000E+00 -0.25787325709E+04  0.25787325709E+04  0.00000000000E+00 0.  1.
         24    2    1    2    0    0 -0.35007567499E+03 -0.94858146681E+03 -0.68266352643E+03  0.12225423617E+04  0.78870516535E+02 0.  0.
        254    2    1    2    0    0  0.35007567499E+03  0.94858146681E+03 -0.13439922835E+04  0.19082669701E+04  0.90155853597E+03 0.  0.
         23    2    4    4    0    0 -0.15216679831E+03 -0.18279673206E+01  0.83330552590E+01  0.17804949988E+03  0.92054921793E+02 0.  0.
         23    2    4    4    0    0  0.50224247330E+03  0.95040943414E+03 -0.13523253388E+04  0.17302174703E+04  0.96659598752E+02 0.  0.
          4    1    3    3  502    0 -0.25825610008E+03 -0.73015127271E+03 -0.56001003848E+03  0.95573444924E+03  0.00000000000E+00 0. -1.
         -3    1    3    3    0  502 -0.91819574912E+02 -0.21843019410E+03 -0.12265348795E+03  0.26680791244E+03  0.00000000000E+00 0.  1.
         11    1    5    5    0    0 -0.13233746629E+03  0.17387854367E+02  0.36734644373E+02  0.13843762697E+03  0.00000000000E+00 0.  1.
        -11    1    5    5    0    0 -0.19829332015E+02 -0.19215821687E+02 -0.28401589114E+02  0.39611872910E+02  0.00000000000E+00 0. -1.
          4    1    6    6  503    0  0.23383465940E+03  0.50491865958E+03 -0.76059144562E+03  0.94240163831E+03  0.00000000000E+00 0. -1.
         -4    1    6    6    0  503  0.26840781389E+03  0.44549077456E+03 -0.59173389315E+03  0.78781583196E+03  0.00000000000E+00 0.  1.
<mgrwt>
<rscale>  0 0.23863431E+04</rscale>
<asrwt>0</asrwt>
<pdfrwt beam="1">  1        2 0.84934884E-01 0.23863431E+04</pdfrwt>
<pdfrwt beam="2">  1       -1 0.39672810E+00 0.23863431E+04</pdfrwt>
<totfact> 0.42429471E-01</totfact>
</mgrwt>
</event>
<event>
12    6  0.1529770E-007  0.1104254E+04  0.7818608E-02  0.9201055E-01
         -1   -1    0    0    0  501 -0.00000000000E+00  0.00000000000E+00  0.18360310623E+03  0.18360310623E+03  0.00000000000E+00 0.  1.
          2   -1    0    0  501    0  0.00000000000E+00 -0.00000000000E+00 -0.16603437738E+04  0.16603437738E+04  0.00000000000E+00 0. -1.
         24    2    1    2    0    0 -0.14593612296E+01 -0.16593872080E+03 -0.21920280026E+03  0.28412435899E+03  0.71686783512E+02 0.  0.
        254    2    1    2    0    0  0.14593612296E+01  0.16593872080E+03 -0.12575378673E+04  0.15598225210E+04  0.90780340415E+03 0.  0.
         23    2    4    4    0    0  0.27293427600E+01  0.34983287840E+03 -0.13009184557E+04  0.13500333684E+04  0.88378590327E+02 0.  0.
         23    2    4    4    0    0 -0.12699815304E+01 -0.18389415759E+03  0.43380588447E+02  0.20978915260E+03  0.91164351838E+02 0.  0.
          4    1    3    3  502    0  0.85312698880E+01 -0.14214722449E+03 -0.21514407464E+03  0.25800307915E+03  0.00000000000E+00 0. -1.
         -3    1    3    3    0  502 -0.99906311176E+01 -0.23791496309E+02 -0.40587256218E+01  0.26121279839E+02  0.00000000000E+00 0.  1.
         11    1    5    5    0    0 -0.25061622142E+02  0.66515312551E+02 -0.36177468051E+03  0.36869132233E+03  0.00000000000E+00 0. -1.
        -11    1    5    5    0    0  0.27790964902E+02  0.28331756585E+03 -0.93914377521E+03  0.98134204606E+03  0.00000000000E+00 0.  1.
          4    1    6    6  503    0  0.30286909812E+02 -0.18117064797E+02 -0.96745768947E+00  0.35305253394E+02  0.00000000000E+00 0. -1.
         -4    1    6    6    0  503 -0.31556891343E+02 -0.16577709280E+03  0.44348046136E+02  0.17448389921E+03  0.00000000000E+00 0.  1.
<mgrwt>
<rscale>  0 0.11042541E+04</rscale>
<asrwt>0</asrwt>
<pdfrwt beam="1">  1        2 0.25543752E+00 0.11042541E+04</pdfrwt>
<pdfrwt beam="2">  1       -1 0.28246630E-01 0.11042541E+04</pdfrwt>
<totfact> 0.13228938E+02</totfact>
</mgrwt>
</event>
<event>
12    6  0.1529770E-007  0.1197646E+04  0.7818608E-02  0.9114919E-01
          2   -1    0    0  501    0  0.00000000000E+00  0.00000000000E+00  0.21341000305E+04  0.21341000305E+04  0.00000000000E+00 0. -1.
         -1   -1    0    0    0  501 -0.00000000000E+00 -0.00000000000E+00 -0.16802826538E+03  0.16802826538E+03  0.00000000000E+00 0.  1.
         24    2    1    2    0    0  0.16577179204E+02 -0.17577551937E+03  0.75323796517E+03  0.77783631880E+03  0.80560974356E+02 0.  0.
        254    2    1    2    0    0 -0.16577179204E+02  0.17577551937E+03  0.12128337999E+04  0.15242919771E+04  0.90627168609E+03 0.  0.
         23    2    4    4    0    0  0.19833163786E+03  0.36755379009E+03  0.11348421216E+04  0.12127010670E+04  0.91356497647E+02 0.  0.
         23    2    4    4    0    0 -0.21490881707E+03 -0.19177827071E+03  0.77991678305E+02  0.31159091008E+03  0.89674347454E+02 0.  0.
          4    1    3    3  502    0 -0.44499897007E+01 -0.30084683261E+02  0.29435483036E+03  0.29592170709E+03  0.00000000000E+00 0. -1.
         -3    1    3    3    0  502  0.21027168905E+02 -0.14569083611E+03  0.45888313481E+03  0.48191461170E+03  0.00000000000E+00 0.  1.
         11    1    5    5    0    0  0.15280239243E+03  0.30378495493E+03  0.80882834345E+03  0.87740364664E+03  0.00000000000E+00 0.  1.
        -11    1    5    5    0    0  0.45529245430E+02  0.63768835157E+02  0.32601377816E+03  0.33529742033E+03  0.00000000000E+00 0. -1.
          2    1    6    6  503    0 -0.87065247347E+00  0.51336980325E+01  0.12399357418E+02  0.13448306793E+02  0.00000000000E+00 0. -1.
         -2    1    6    6    0  503 -0.21403816459E+03 -0.19691196874E+03  0.65592320887E+02  0.29814260329E+03  0.00000000000E+00 0.  1.
<mgrwt>
<rscale>  0 0.11976462E+04</rscale>
<asrwt>0</asrwt>
<pdfrwt beam="1">  1        2 0.32832306E+00 0.11976462E+04</pdfrwt>
<pdfrwt beam="2">  1       -1 0.25850504E-01 0.11976462E+04</pdfrwt>
<totfact> 0.83792640E+01</totfact>
</mgrwt>
</event>
<event>
12    6  0.1529770E-007  0.2017944E+04  0.7818608E-02  0.8598277E-01
          2   -1    0    0  501    0  0.00000000000E+00  0.00000000000E+00  0.22499351965E+04  0.22499351965E+04  0.00000000000E+00 0. -1.
         -1   -1    0    0    0  501 -0.00000000000E+00 -0.00000000000E+00 -0.45246852448E+03  0.45246852448E+03  0.00000000000E+00 0.  1.
         24    2    1    2    0    0 -0.67370346604E+03 -0.19709821800E+03  0.12582657207E+04  0.14432638598E+04  0.83987364497E+02 0.  0.
        254    2    1    2    0    0  0.67370346604E+03  0.19709821800E+03  0.53920095130E+03  0.12591398612E+04  0.89552859050E+03 0.  0.
         23    2    4    4    0    0  0.68953857733E+03  0.40881293429E+03  0.17161507816E+03  0.82494014892E+03  0.92103471039E+02 0.  0.
         23    2    4    4    0    0 -0.15835111288E+02 -0.21171471629E+03  0.36758587313E+03  0.43419971225E+03  0.91302487093E+02 0.  0.
          2    1    3    3  502    0 -0.42302664813E+03 -0.13379219059E+03  0.71241841490E+03  0.83928058072E+03  0.00000000000E+00 0. -1.
         -3    1    3    3    0  502 -0.25067681791E+03 -0.63306027409E+02  0.54584730578E+03  0.60398327905E+03  0.00000000000E+00 0.  1.
         11    1    5    5    0    0  0.49188663337E+03  0.27178183347E+03  0.80317203830E+02  0.56768713067E+03  0.00000000000E+00 0.  1.
        -11    1    5    5    0    0  0.19765194396E+03  0.13703110082E+03  0.91297874331E+02  0.25725301825E+03  0.00000000000E+00 0. -1.
          2    1    6    6  503    0  0.37148651761E+02 -0.63835132551E+02  0.11003159394E+03  0.13252131202E+03  0.00000000000E+00 0. -1.
         -2    1    6    6    0  503 -0.52983763049E+02 -0.14787958374E+03  0.25755427920E+03  0.30167840023E+03  0.00000000000E+00 0.  1.
<mgrwt>
<rscale>  0 0.20179444E+04</rscale>
<asrwt>0</asrwt>
<pdfrwt beam="1">  1        2 0.34614387E+00 0.20179444E+04</pdfrwt>
<pdfrwt beam="2">  1       -1 0.69610544E-01 0.20179444E+04</pdfrwt>
<totfact> 0.10667719E+01</totfact>
</mgrwt>
</event>
<event>
12    6  0.1529770E-007  0.2085479E+04  0.7818608E-02  0.8567667E-01
          2   -1    0    0  501    0  0.00000000000E+00  0.00000000000E+00  0.18315980951E+04  0.18315980951E+04  0.00000000000E+00 0. -1.
         -1   -1    0    0    0  501 -0.00000000000E+00 -0.00000000000E+00 -0.59363792870E+03  0.59363792870E+03  0.00000000000E+00 0.  1.
         24    2    1    2    0    0 -0.42345545124E+03  0.65141192355E+02  0.13409565570E+04  0.14100232097E+04  0.80268735821E+02 0.  0.
        254    2    1    2    0    0  0.42345545124E+03 -0.65141192355E+02 -0.10299639060E+03  0.10152128141E+04  0.91459876850E+03 0.  0.
         23    2    4    4    0    0  0.25702385032E+02  0.34189918498E+03  0.15101441462E+03  0.38552376617E+03  0.90926099520E+02 0.  0.
         23    2    4    4    0    0  0.39775306621E+03 -0.40704037734E+03 -0.25401080522E+03  0.62968904794E+03  0.89985762540E+02 0.  0.
          2    1    3    3  502    0 -0.42717684490E+03  0.64929768382E+02  0.13317508336E+04  0.14000915022E+04  0.00000000000E+00 0. -1.
         -1    1    3    3    0  502  0.37213936579E+01  0.21142397284E+00  0.92057233726E+01  0.99317074899E+01  0.00000000000E+00 0.  1.
         11    1    5    5    0    0 -0.12557253951E+02  0.19007306327E+03  0.12222029102E+03  0.22632554770E+03  0.00000000000E+00 0. -1.
        -11    1    5    5    0    0  0.38259638983E+02  0.15182612172E+03  0.28794123602E+02  0.15919821847E+03  0.00000000000E+00 0.  1.
          1    1    6    6  503    0  0.25978120323E+03 -0.24447762881E+03 -0.11356407462E+03  0.37436931443E+03  0.00000000000E+00 0. -1.
         -1    1    6    6    0  503  0.13797186298E+03 -0.16256274852E+03 -0.14044673060E+03  0.25531973351E+03  0.00000000000E+00 0.  1.
<mgrwt>
<rscale>  0 0.20854794E+04</rscale>
<asrwt>0</asrwt>
<pdfrwt beam="1">  1        2 0.28178432E+00 0.20854794E+04</pdfrwt>
<pdfrwt beam="2">  1       -1 0.91328913E-01 0.20854794E+04</pdfrwt>
<totfact> 0.10180034E+01</totfact>
</mgrwt>
</event>
<event>
12    6  0.1529770E-007  0.2353928E+04  0.7818608E-02  0.8456956E-01
          2   -1    0    0  501    0  0.00000000000E+00  0.00000000000E+00  0.28600842601E+04  0.28600842601E+04  0.00000000000E+00 0. -1.
         -1   -1    0    0    0  501 -0.00000000000E+00 -0.00000000000E+00 -0.48433705155E+03  0.48433705155E+03  0.00000000000E+00 0.  1.
         24    2    1    2    0    0  0.95355093841E+03  0.85816498307E+02  0.61863646780E+03  0.11443104483E+04  0.10055575163E+03 0.  0.
        254    2    1    2    0    0 -0.95355093841E+03 -0.85816498307E+02  0.17571107407E+04  0.22001108634E+04  0.91456317024E+03 0.  0.
         23    2    4    4    0    0 -0.12787840470E+03 -0.38897241277E+03  0.39368189181E+03  0.57502638926E+03  0.89540449650E+02 0.  0.
         23    2    4    4    0    0 -0.82567253371E+03  0.30315591446E+03  0.13634288489E+04  0.16250844741E+04  0.91228726209E+02 0.  0.
          2    1    3    3  502    0  0.25061526627E+03  0.62982860472E+02  0.18911792597E+03  0.32021936594E+03  0.00000000000E+00 0. -1.
         -1    1    3    3    0  502  0.70293567214E+03  0.22833637835E+02  0.42951854182E+03  0.82409108232E+03  0.00000000000E+00 0.  1.
         11    1    5    5    0    0 -0.38424201491E+02 -0.58601872686E+02  0.11026519177E+03  0.13064842616E+03  0.00000000000E+00 0. -1.
        -11    1    5    5    0    0 -0.89454203205E+02 -0.33037054009E+03  0.28341670004E+03  0.44437796310E+03  0.00000000000E+00 0.  1.
          3    1    6    6  503    0 -0.39667970133E+03  0.18589426236E+03  0.62963042723E+03  0.76703711587E+03  0.00000000000E+00 0. -1.
         -3    1    6    6    0  503 -0.42899283238E+03  0.11726165210E+03  0.73379842170E+03  0.85804735824E+03  0.00000000000E+00 0.  1.
<mgrwt>
<rscale>  0 0.23539284E+04</rscale>
<asrwt>0</asrwt>
<pdfrwt beam="1">  1        2 0.44001295E+00 0.23539284E+04</pdfrwt>
<pdfrwt beam="2">  1       -1 0.74513395E-01 0.23539284E+04</pdfrwt>
<totfact> 0.39572399E+00</totfact>
</mgrwt>
</event>
<event>
12    6  0.1529770E-007  0.1492343E+04  0.7818608E-02  0.8889561E-01
          2   -1    0    0  501    0  0.00000000000E+00  0.00000000000E+00  0.30795829296E+03  0.30795829296E+03  0.00000000000E+00 0. -1.
         -1   -1    0    0    0  501 -0.00000000000E+00 -0.00000000000E+00 -0.18079463490E+04  0.18079463490E+04  0.00000000000E+00 0.  1.
         24    2    1    2    0    0  0.28551742638E+03 -0.31736563029E+03 -0.20998329643E+03  0.48268282642E+03  0.81538837884E+02 0.  0.
        254    2    1    2    0    0 -0.28551742638E+03  0.31736563029E+03 -0.12900047597E+04  0.16332218156E+04  0.90612365323E+03 0.  0.
         23    2    4    4    0    0 -0.45614528836E+03  0.52527124513E+03 -0.10486169326E+04  0.12611426233E+04  0.83095365657E+02 0.  0.
         23    2    4    4    0    0  0.17062786198E+03 -0.20790561484E+03 -0.24138782705E+03  0.37207919234E+03  0.88522485014E+02 0.  0.
          4    1    3    3  502    0  0.23985042510E+03 -0.21587792885E+03 -0.14462546342E+03  0.35362131052E+03  0.00000000000E+00 0. -1.
         -3    1    3    3    0  502  0.45667001276E+02 -0.10148770144E+03 -0.65357833006E+02  0.12906151590E+03  0.00000000000E+00 0.  1.
         11    1    5    5    0    0 -0.76918327245E+02  0.95649256184E+02 -0.24632654659E+03  0.27521260296E+03  0.00000000000E+00 0.  1.
        -11    1    5    5    0    0 -0.37922696112E+03  0.42962198895E+03 -0.80229038601E+03  0.98593002029E+03  0.00000000000E+00 0. -1.
          1    1    6    6  503    0  0.17610080247E+03 -0.19338453659E+03 -0.24229671839E+03  0.35653439016E+03  0.00000000000E+00 0. -1.
         -1    1    6    6    0  503 -0.54729404909E+01 -0.14521078248E+02  0.90889134089E+00  0.15544802172E+02  0.00000000000E+00 0.  1.
<mgrwt>
<rscale>  0 0.14923432E+04</rscale>
<asrwt>0</asrwt>
<pdfrwt beam="1">  1        2 0.47378198E-01 0.14923432E+04</pdfrwt>
<pdfrwt beam="2">  1       -1 0.27814560E+00 0.14923432E+04</pdfrwt>
<totfact> 0.54093262E+00</totfact>
</mgrwt>
</event>
<event>
12    6  0.1529770E-007  0.1448153E+04  0.7818608E-02  0.8919682E-01
         -1   -1    0    0    0  501 -0.00000000000E+00  0.00000000000E+00  0.37433209640E+03  0.37433209640E+03  0.00000000000E+00 0.  1.
          2   -1    0    0  501    0  0.00000000000E+00 -0.00000000000E+00 -0.14005919407E+04  0.14005919407E+04  0.00000000000E+00 0. -1.
         24    2    1    2    0    0 -0.29761754766E+02  0.15045409576E+03 -0.82875959562E+03  0.84672689738E+03  0.81128135911E+02 0.  0.
        254    2    1    2    0    0  0.29761754766E+02 -0.15045409576E+03 -0.19750024869E+03  0.92819713974E+03  0.89387996118E+03 0.  0.
         23    2    4    4    0    0  0.25895135904E+03 -0.43367273480E+03 -0.20234350346E+03  0.55141503097E+03  0.89374469111E+02 0.  0.
         23    2    4    4    0    0 -0.22918960427E+03  0.28321863904E+03  0.48432547721E+01  0.37678210876E+03  0.95919904914E+02 0.  0.
          4    1    3    3  502    0 -0.54383547243E+02  0.13181507894E+03 -0.68722946432E+03  0.70186688330E+03  0.00000000000E+00 0. -1.
         -3    1    3    3    0  502  0.24621792477E+02  0.18639016821E+02 -0.14153013130E+03  0.14486001408E+03  0.00000000000E+00 0.  1.
         11    1    5    5    0    0  0.23597267869E+03 -0.35419625801E+03 -0.14075009080E+03  0.44827299979E+03  0.00000000000E+00 0. -1.
        -11    1    5    5    0    0  0.22978680348E+02 -0.79476476789E+02 -0.61593412659E+02  0.10314203118E+03  0.00000000000E+00 0.  1.
          1    1    6    6  503    0 -0.20099570516E+03  0.18137392723E+03  0.10715595077E+02  0.27094390369E+03  0.00000000000E+00 0. -1.
         -1    1    6    6    0  503 -0.28193899114E+02  0.10184471181E+03 -0.58723403049E+01  0.10583820507E+03  0.00000000000E+00 0.  1.
<mgrwt>
<rscale>  0 0.14481526E+04</rscale>
<asrwt>0</asrwt>
<pdfrwt beam="1">  1        2 0.21547568E+00 0.14481526E+04</pdfrwt>
<pdfrwt beam="2">  1       -1 0.57589553E-01 0.14481526E+04</pdfrwt>
<totfact> 0.48808601E+01</totfact>
</mgrwt>
</event>
<event>
12    6  0.1529770E-007  0.2391532E+04  0.7818608E-02  0.8442680E-01
          2   -1    0    0  501    0  0.00000000000E+00  0.00000000000E+00  0.21568311544E+04  0.21568311544E+04  0.00000000000E+00 0. -1.
         -1   -1    0    0    0  501 -0.00000000000E+00 -0.00000000000E+00 -0.66294335678E+03  0.66294335678E+03  0.00000000000E+00 0.  1.
         24    2    1    2    0    0  0.11055192229E+03 -0.79678112039E+03 -0.10730448235E+03  0.81544485986E+03  0.79713149497E+02 0.  0.
        254    2    1    2    0    0 -0.11055192229E+03  0.79678112039E+03  0.16011922800E+04  0.20043296513E+04  0.89801934967E+03 0.  0.
         23    2    4    4    0    0  0.18065810111E+03 -0.80074024865E+02  0.10100960922E+03  0.23967777509E+03  0.90516825859E+02 0.  0.
         23    2    4    4    0    0 -0.29121002340E+03  0.87685514526E+03  0.15001826707E+04  0.17646518762E+04  0.98843184720E+02 0.  0.
          4    1    3    3  502    0  0.58693521078E+00 -0.15437421943E+03 -0.44577580447E+02  0.16068262132E+03  0.00000000000E+00 0. -1.
         -3    1    3    3    0  502  0.10996498708E+03 -0.64240690096E+03 -0.62726901908E+02  0.65476223854E+03  0.00000000000E+00 0.  1.
         11    1    5    5    0    0  0.11395333474E+03 -0.86443276120E+01  0.27932016374E+02  0.11764473824E+03  0.00000000000E+00 0. -1.
        -11    1    5    5    0    0  0.66704766373E+02 -0.71429697253E+02  0.73077592846E+02  0.12203303685E+03  0.00000000000E+00 0.  1.
          4    1    6    6  503    0 -0.28919567166E+02  0.19018045003E+03  0.35727481526E+03  0.40577116526E+03  0.00000000000E+00 0. -1.
         -4    1    6    6    0  503 -0.26229045623E+03  0.68667469523E+03  0.11429078555E+04  0.13588807110E+04  0.00000000000E+00 0.  1.
<mgrwt>
<rscale>  0 0.23915325E+04</rscale>
<asrwt>0</asrwt>
<pdfrwt beam="1">  1        2 0.33182017E+00 0.23915325E+04</pdfrwt>
<pdfrwt beam="2">  1       -1 0.10199129E+00 0.23915325E+04</pdfrwt>
<totfact> 0.50916089E+00</totfact>
</mgrwt>
</event>
<event>
12    6  0.1529770E-007  0.3140569E+04  0.7818608E-02  0.8204692E-01
          2   -1    0    0  501    0  0.00000000000E+00  0.00000000000E+00  0.12501379481E+04  0.12501379481E+04  0.00000000000E+00 0. -1.
         -1   -1    0    0    0  501 -0.00000000000E+00 -0.00000000000E+00 -0.19724168894E+04  0.19724168894E+04  0.00000000000E+00 0.  1.
         24    2    1    2    0    0 -0.94931693814E+03 -0.22665938205E+03  0.75556536501E+03  0.12369075896E+04  0.80524778725E+02 0.  0.
        254    2    1    2    0    0  0.94931693814E+03  0.22665938205E+03 -0.14778443064E+04  0.19856472479E+04  0.89788310744E+03 0.  0.
         23    2    4    4    0    0  0.87453210885E+03  0.48546177412E+03 -0.93211324065E+03  0.13703539027E+04  0.92494224554E+02 0.  0.
         23    2    4    4    0    0  0.74784829289E+02 -0.25880239207E+03 -0.54573106572E+03  0.61529334522E+03  0.90509975992E+02 0.  0.
          4    1    3    3  502    0 -0.75070407772E+03 -0.19629605312E+03  0.63445705868E+03  0.10023095889E+04  0.00000000000E+00 0. -1.
         -3    1    3    3    0  502 -0.19861286042E+03 -0.30363328933E+02  0.12110830633E+03  0.23459800070E+03  0.00000000000E+00 0.  1.
         11    1    5    5    0    0  0.67979731326E+03  0.41938362914E+03 -0.73289972207E+03  0.10840429042E+04  0.00000000000E+00 0. -1.
        -11    1    5    5    0    0  0.19473479559E+03  0.66078144985E+02 -0.19921351859E+03  0.28631099847E+03  0.00000000000E+00 0.  1.
          2    1    6    6  503    0  0.27340324133E+02 -0.22319224390E+03 -0.43005571625E+03  0.48529392139E+03  0.00000000000E+00 0. -1.
         -2    1    6    6    0  503  0.47444505156E+02 -0.35610148173E+02 -0.11567534947E+03  0.12999942384E+03  0.00000000000E+00 0.  1.
<mgrwt>
<rscale>  0 0.31405689E+04</rscale>
<asrwt>0</asrwt>
<pdfrwt beam="1">  1        2 0.19232892E+00 0.31405689E+04</pdfrwt>
<pdfrwt beam="2">  1       -1 0.30344875E+00 0.31405689E+04</pdfrwt>
<totfact> 0.53458538E-01</totfact>
</mgrwt>
</event>
<event>
12    6  0.1529770E-007  0.1843071E+04  0.7818608E-02  0.8683724E-01
          2   -1    0    0  501    0  0.00000000000E+00  0.00000000000E+00  0.17147338269E+04  0.17147338269E+04  0.00000000000E+00 0. -1.
         -1   -1    0    0    0  501 -0.00000000000E+00 -0.00000000000E+00 -0.49525339108E+03  0.49525339108E+03  0.00000000000E+00 0.  1.
         24    2    1    2    0    0  0.49947549718E+03  0.46505236720E+03  0.65422034597E+03  0.94869381201E+03  0.79159404688E+02 0.  0.
        254    2    1    2    0    0 -0.49947549718E+03 -0.46505236720E+03  0.56526008988E+03  0.12612934060E+04  0.89754811029E+03 0.  0.
         23    2    4    4    0    0 -0.12578365652E+03  0.26218135358E+03  0.15634851530E+03  0.34259966852E+03  0.91482698996E+02 0.  0.
         23    2    4    4    0    0 -0.37369184066E+03 -0.72723372078E+03  0.40891157458E+03  0.91869373748E+03  0.90967197668E+02 0.  0.
          2    1    3    3  502    0  0.49710172597E+03  0.45544431012E+03  0.65322792355E+03  0.93874723205E+03  0.00000000000E+00 0. -1.
         -1    1    3    3    0  502  0.23737712041E+01  0.96080570791E+01  0.99242241946E+00  0.99465799561E+01  0.00000000000E+00 0.  1.
         11    1    5    5    0    0 -0.12026484970E+03  0.22028862548E+03  0.95534815566E+02  0.26854722783E+03  0.00000000000E+00 0. -1.
        -11    1    5    5    0    0 -0.55188068272E+01  0.41892728105E+02  0.60813699734E+02  0.74052440690E+02  0.00000000000E+00 0.  1.
          3    1    6    6  503    0 -0.43023390205E+02 -0.34881099860E+02  0.29204661696E+02  0.62614818510E+02  0.00000000000E+00 0. -1.
         -3    1    6    6    0  503 -0.33066845045E+03 -0.69235262092E+03  0.37970691288E+03  0.85607891897E+03  0.00000000000E+00 0.  1.
<mgrwt>
<rscale>  0 0.18430711E+04</rscale>
<asrwt>0</asrwt>
<pdfrwt beam="1">  1        2 0.26380520E+00 0.18430711E+04</pdfrwt>
<pdfrwt beam="2">  1       -1 0.76192830E-01 0.18430711E+04</pdfrwt>
<totfact> 0.17836724E+01</totfact>
</mgrwt>
</event>
<event>
12    6  0.1529770E-007  0.2984406E+04  0.7818608E-02  0.8248198E-01
          2   -1    0    0  501    0  0.00000000000E+00  0.00000000000E+00  0.20035823642E+04  0.20035823642E+04  0.00000000000E+00 0. -1.
         -1   -1    0    0    0  501 -0.00000000000E+00 -0.00000000000E+00 -0.11113441165E+04  0.11113441165E+04  0.00000000000E+00 0.  1.
         24    2    1    2    0    0 -0.10127312171E+04  0.42644506314E+03 -0.42119763899E+03  0.11795598158E+04  0.80461158569E+02 0.  0.
        254    2    1    2    0    0  0.10127312171E+04 -0.42644506314E+03  0.13134358867E+04  0.19353666649E+04  0.90169306821E+03 0.  0.
         23    2    4    4    0    0  0.99311328570E+03 -0.40607860022E+03  0.14263867078E+04  0.17872243271E+04  0.91749264174E+02 0.  0.
         23    2    4    4    0    0  0.19617931366E+02 -0.20366462924E+02 -0.11295082113E+03  0.14814233776E+03  0.91589345441E+02 0.  0.
          2    1    3    3  502    0 -0.41292635804E+03  0.21419944701E+03 -0.16283660361E+03  0.49285427840E+03  0.00000000000E+00 0. -1.
         -1    1    3    3    0  502 -0.59980485903E+03  0.21224561613E+03 -0.25836103537E+03  0.68670553739E+03  0.00000000000E+00 0.  1.
         11    1    5    5    0    0  0.37604185107E+02 -0.28192942280E+02  0.40933192463E+02  0.62325299656E+02  0.00000000000E+00 0.  1.
        -11    1    5    5    0    0  0.95550910060E+03 -0.37788565794E+03  0.13854535154E+04  0.17248990275E+04  0.00000000000E+00 0. -1.
          3    1    6    6  503    0 -0.48367724115E+00  0.11074478467E+02 -0.11016450870E+03  0.11072080651E+03  0.00000000000E+00 0. -1.
         -3    1    6    6    0  503  0.20101608607E+02 -0.31440941390E+02 -0.27863124354E+01  0.37421531250E+02  0.00000000000E+00 0.  1.
<mgrwt>
<rscale>  0 0.29844058E+04</rscale>
<asrwt>0</asrwt>
<pdfrwt beam="1">  1        2 0.30824344E+00 0.29844058E+04</pdfrwt>
<pdfrwt beam="2">  1       -1 0.17097602E+00 0.29844058E+04</pdfrwt>
<totfact> 0.15694101E+00</totfact>
</mgrwt>
</event>
<event>
12    6  0.1529770E-007  0.2776930E+04  0.7818608E-02  0.8310467E-01
          2   -1    0    0  501    0  0.00000000000E+00  0.00000000000E+00  0.16997743225E+04  0.16997743225E+04  0.00000000000E+00 0. -1.
         -1   -1    0    0    0  501 -0.00000000000E+00 -0.00000000000E+00 -0.11341712703E+04  0.11341712703E+04  0.00000000000E+00 0.  1.
         24    2    1    2    0    0  0.10010651926E+04  0.32675071141E+03 -0.41849932914E+03  0.11360306244E+04  0.80785790159E+02 0.  0.
        254    2    1    2    0    0 -0.10010651926E+04 -0.32675071141E+03  0.98410238140E+03  0.16979149684E+04  0.89753005271E+03 0.  0.
         23    2    4    4    0    0 -0.74235186978E+03  0.17348574481E+02  0.16449765809E+03  0.76659163348E+03  0.95999903108E+02 0.  0.
         23    2    4    4    0    0 -0.25871332285E+03 -0.34409928589E+03  0.81960472331E+03  0.93132333491E+03  0.10136246701E+03 0.  0.
          2    1    3    3  502    0  0.34404212117E+03  0.98858566934E+02 -0.10375502826E+03  0.37269706638E+03  0.00000000000E+00 0. -1.
         -1    1    3    3    0  502  0.65702307145E+03  0.22789214447E+03 -0.31474430088E+03  0.76333355807E+03  0.00000000000E+00 0.  1.
         11    1    5    5    0    0 -0.71516992173E+03  0.28008950202E+02  0.14184887769E+03  0.72963937828E+03  0.00000000000E+00 0.  1.
        -11    1    5    5    0    0 -0.27181948052E+02 -0.10660375722E+02  0.22648780401E+02  0.36952255197E+02  0.00000000000E+00 0. -1.
          3    1    6    6  503    0 -0.59727536280E+02 -0.26343929190E+02  0.15647555918E+03  0.16954640018E+03  0.00000000000E+00 0. -1.
         -3    1    6    6    0  503 -0.19898578657E+03 -0.31775535670E+03  0.66312916413E+03  0.76177693473E+03  0.00000000000E+00 0.  1.
<mgrwt>
<rscale>  0 0.27769301E+04</rscale>
<asrwt>0</asrwt>
<pdfrwt beam="1">  1        2 0.26150374E+00 0.27769301E+04</pdfrwt>
<pdfrwt beam="2">  1       -1 0.17448789E+00 0.27769301E+04</pdfrwt>
<totfact> 0.22210564E+00</totfact>
</mgrwt>
</event>
<event>
12    6  0.1529770E-007  0.2642810E+04  0.7818608E-02  0.8353803E-01
         -1   -1    0    0    0  501 -0.00000000000E+00  0.00000000000E+00  0.12043477752E+04  0.12043477752E+04  0.00000000000E+00 0.  1.
          2   -1    0    0  501    0  0.00000000000E+00 -0.00000000000E+00 -0.14498394105E+04  0.14498394105E+04  0.00000000000E+00 0. -1.
         24    2    1    2    0    0 -0.28184434209E+03 -0.10136775005E+04 -0.60347461260E+03  0.12157219541E+04  0.82583010081E+02 0.  0.
        254    2    1    2    0    0  0.28184434209E+03  0.10136775005E+04  0.35798297731E+03  0.14384652316E+04  0.91326453038E+03 0.  0.
         23    2    4    4    0    0 -0.14184099308E+03  0.70984539545E+02  0.35462409449E+03  0.40060037432E+03  0.97799485390E+02 0.  0.
         23    2    4    4    0    0  0.42368533517E+03  0.94269296092E+03  0.33588828138E+01  0.10378648573E+04  0.94725382741E+02 0.  0.
          2    1    3    3  502    0 -0.10794326940E+03 -0.31127509046E+03 -0.15211075969E+03  0.36287961442E+03  0.00000000000E+00 0. -1.
         -1    1    3    3    0  502 -0.17390107269E+03 -0.70240241000E+03 -0.45136385291E+03  0.85284233969E+03  0.00000000000E+00 0.  1.
         11    1    5    5    0    0 -0.61769904146E+02  0.83369608120E+01  0.23732788398E+03  0.24537634460E+03  0.00000000000E+00 0. -1.
        -11    1    5    5    0    0 -0.80071088934E+02  0.62647578733E+02  0.11729621051E+03  0.15522402973E+03  0.00000000000E+00 0.  1.
          4    1    6    6  503    0  0.16415227201E+03  0.45124826817E+03  0.32990136561E+02  0.48131000098E+03  0.00000000000E+00 0. -1.
         -4    1    6    6    0  503  0.25953306315E+03  0.49144469275E+03 -0.29631253747E+02  0.55655485633E+03  0.00000000000E+00 0.  1.
<mgrwt>
<rscale>  0 0.26428098E+04</rscale>
<asrwt>0</asrwt>
<pdfrwt beam="1">  1        2 0.22305222E+00 0.26428098E+04</pdfrwt>
<pdfrwt beam="2">  1       -1 0.18528427E+00 0.26428098E+04</pdfrwt>
<totfact> 0.25960125E+00</totfact>
</mgrwt>
</event>
<event>
12    6  0.1529770E-007  0.1668196E+04  0.7818608E-02  0.8779714E-01
          2   -1    0    0  501    0  0.00000000000E+00  0.00000000000E+00  0.25653388301E+04  0.25653388301E+04  0.00000000000E+00 0. -1.
         -1   -1    0    0    0  501 -0.00000000000E+00 -0.00000000000E+00 -0.27119983367E+03  0.27119983367E+03  0.00000000000E+00 0.  1.
         24    2    1    2    0    0  0.27736500388E+03 -0.81144337813E+02 -0.55609083555E+02  0.30469999093E+03  0.78955464427E+02 0.  0.
        254    2    1    2    0    0 -0.27736500388E+03  0.81144337813E+02  0.23497480800E+04  0.25318386728E+04  0.89742703153E+03 0.  0.
         23    2    4    4    0    0 -0.20086620842E+03  0.40158866242E+03  0.63345044290E+03  0.78175038967E+03  0.90848889212E+02 0.  0.
         23    2    4    4    0    0 -0.76498795459E+02 -0.32044432461E+03  0.17162976371E+04  0.17500882831E+04  0.92708084399E+02 0.  0.
          2    1    3    3  502    0  0.61766048432E+01 -0.19401711080E+02  0.26580212112E+01  0.20533921130E+02  0.00000000000E+00 0. -1.
         -1    1    3    3    0  502  0.27118839904E+03 -0.61742626733E+02 -0.58267104766E+02  0.28416606980E+03  0.00000000000E+00 0.  1.
         11    1    5    5    0    0 -0.16979854790E+03  0.26082670560E+03  0.39176958643E+03  0.50034540677E+03  0.00000000000E+00 0. -1.
        -11    1    5    5    0    0 -0.31067660520E+02  0.14076195682E+03  0.24168085647E+03  0.28140498290E+03  0.00000000000E+00 0.  1.
          4    1    6    6  503    0 -0.35546156525E+02 -0.28009822743E+03  0.13398107734E+04  0.13692375450E+04  0.00000000000E+00 0. -1.
         -4    1    6    6    0  503 -0.40952638934E+02 -0.40346097184E+02  0.37648686370E+03  0.38085073813E+03  0.00000000000E+00 0.  1.
<mgrwt>
<rscale>  0 0.16681960E+04</rscale>
<asrwt>0</asrwt>
<pdfrwt beam="1">  1        2 0.39466750E+00 0.16681960E+04</pdfrwt>
<pdfrwt beam="2">  1       -1 0.41723053E-01 0.16681960E+04</pdfrwt>
<totfact> 0.19565536E+01</totfact>
</mgrwt>
</event>
<event>
12    6  0.1529770E-007  0.2282591E+04  0.7818608E-02  0.8484817E-01
          2   -1    0    0  501    0  0.00000000000E+00  0.00000000000E+00  0.21907637480E+04  0.21907637480E+04  0.00000000000E+00 0. -1.
         -1   -1    0    0    0  501 -0.00000000000E+00 -0.00000000000E+00 -0.59456670120E+03  0.59456670120E+03  0.00000000000E+00 0.  1.
         24    2    1    2    0    0 -0.50420343420E+02  0.67382066388E+03  0.15163575084E+04  0.16620111040E+04  0.79776678491E+02 0.  0.
        254    2    1    2    0    0  0.50420343420E+02 -0.67382066388E+03  0.79839538443E+02  0.11233193452E+04  0.89380954425E+03 0.  0.
         23    2    4    4    0    0  0.39775590134E+03 -0.61733849525E+03 -0.38167845285E+02  0.74147116692E+03  0.94900643764E+02 0.  0.
         23    2    4    4    0    0 -0.34733555792E+03 -0.56482168630E+02  0.11800738373E+03  0.38184817832E+03  0.89722146125E+02 0.  0.
          4    1    3    3  502    0 -0.50801946467E+02  0.66799546429E+03  0.14720644362E+04  0.16173349938E+04  0.00000000000E+00 0. -1.
         -3    1    3    3    0  502  0.38160304685E+00  0.58251995879E+01  0.44293072193E+02  0.44676110119E+02  0.00000000000E+00 0.  1.
         11    1    5    5    0    0  0.96354166970E+01 -0.28034495029E+02 -0.19708273352E+02  0.35597615159E+02  0.00000000000E+00 0.  1.
        -11    1    5    5    0    0  0.38812048464E+03 -0.58930400022E+03 -0.18459571933E+02  0.70587355176E+03  0.00000000000E+00 0. -1.
          4    1    6    6  503    0 -0.33094472795E+03 -0.66877905178E+02  0.12664283185E+03  0.36060431781E+03  0.00000000000E+00 0. -1.
         -4    1    6    6    0  503 -0.16390829966E+02  0.10395736549E+02 -0.86354481218E+01  0.21243860516E+02  0.00000000000E+00 0.  1.
<mgrwt>
<rscale>  0 0.22825908E+04</rscale>
<asrwt>0</asrwt>
<pdfrwt beam="1">  1        2 0.33704057E+00 0.22825908E+04</pdfrwt>
<pdfrwt beam="2">  1       -1 0.91471801E-01 0.22825908E+04</pdfrwt>
<totfact> 0.62909296E+00</totfact>
</mgrwt>
</event>
<event>
12    6  0.1529770E-007  0.2556207E+04  0.7818608E-02  0.8383231E-01
          2   -1    0    0  501    0  0.00000000000E+00  0.00000000000E+00  0.16051337877E+04  0.16051337877E+04  0.00000000000E+00 0. -1.
         -1   -1    0    0    0  501 -0.00000000000E+00 -0.00000000000E+00 -0.10177022271E+04  0.10177022271E+04  0.00000000000E+00 0.  1.
         24    2    1    2    0    0  0.85846401651E+03  0.61280935488E+03 -0.11129023338E+03  0.10636991148E+04  0.81083399258E+02 0.  0.
        254    2    1    2    0    0 -0.85846401651E+03 -0.61280935488E+03  0.69872179404E+03  0.15591369000E+04  0.91115309063E+03 0.  0.
         23    2    4    4    0    0 -0.54085936506E+03 -0.80034466334E+03  0.31724797225E+03  0.10207437514E+04  0.90504680687E+02 0.  0.
         23    2    4    4    0    0 -0.31760465145E+03  0.18753530846E+03  0.38147382179E+03  0.53839314865E+03  0.91119148673E+02 0.  0.
          2    1    3    3  502    0  0.83728297428E+02  0.47344570592E+02  0.10883835056E+02  0.96800795556E+02  0.00000000000E+00 0. -1.
         -1    1    3    3    0  502  0.77473571908E+03  0.56546478428E+03 -0.12217406843E+03  0.96689831921E+03  0.00000000000E+00 0.  1.
         11    1    5    5    0    0 -0.94756806879E+02 -0.19236233949E+03  0.45682050252E+02  0.21924637242E+03  0.00000000000E+00 0. -1.
        -11    1    5    5    0    0 -0.44610255818E+03 -0.60798232384E+03  0.27156592200E+03  0.80149737898E+03  0.00000000000E+00 0.  1.
          3    1    6    6  503    0 -0.60622690831E+02  0.73477578315E+00  0.80385868354E+02  0.10068534337E+03  0.00000000000E+00 0. -1.
         -3    1    6    6    0  503 -0.25698196062E+03  0.18680053268E+03  0.30108795343E+03  0.43770780527E+03  0.00000000000E+00 0.  1.
<mgrwt>
<rscale>  0 0.25562067E+04</rscale>
<asrwt>0</asrwt>
<pdfrwt beam="1">  1        2 0.24694366E+00 0.25562067E+04</pdfrwt>
<pdfrwt beam="2">  1       -1 0.15656957E+00 0.25562067E+04</pdfrwt>
<totfact> 0.34761315E+00</totfact>
</mgrwt>
</event>
<event>
12    6  0.1529770E-007  0.1450274E+04  0.7818608E-02  0.8918211E-01
          2   -1    0    0  501    0  0.00000000000E+00  0.00000000000E+00  0.76496609585E+03  0.76496609585E+03  0.00000000000E+00 0. -1.
         -1   -1    0    0    0  501 -0.00000000000E+00 -0.00000000000E+00 -0.68738130268E+03  0.68738130268E+03  0.00000000000E+00 0.  1.
         24    2    1    2    0    0  0.88834017104E+02  0.42991012171E+03  0.78851826711E+02  0.45321171389E+03  0.80430415158E+02 0.  0.
        254    2    1    2    0    0 -0.88834017104E+02 -0.42991012171E+03 -0.12670335455E+01  0.99913568464E+03  0.89752789127E+03 0.  0.
         23    2    4    4    0    0 -0.26994170376E+02 -0.32867849898E+03 -0.42722633235E+03  0.54760651687E+03  0.92694753531E+02 0.  0.
         23    2    4    4    0    0 -0.61839846728E+02 -0.10123162273E+03  0.42595929881E+03  0.45152916777E+03  0.91461779038E+02 0.  0.
          4    1    3    3  502    0  0.88404704479E+02  0.43285007374E+03  0.81489869472E+02  0.44923844107E+03  0.00000000000E+00 0. -1.
         -3    1    3    3    0  502  0.42931262510E+00 -0.29399520265E+01 -0.26380427616E+01  0.39732728147E+01  0.00000000000E+00 0.  1.
         11    1    5    5    0    0 -0.34878745194E+02 -0.24813081244E+03 -0.37593954218E+03  0.45179195026E+03  0.00000000000E+00 0.  1.
        -11    1    5    5    0    0  0.78845748187E+01 -0.80547686539E+02 -0.51286790173E+02  0.95814566602E+02  0.00000000000E+00 0. -1.
          4    1    6    6  503    0 -0.18791143730E+02 -0.62095374075E+02  0.92203778415E+02  0.11274076156E+03  0.00000000000E+00 0. -1.
         -4    1    6    6    0  503 -0.43048702998E+02 -0.39136248659E+02  0.33375552039E+03  0.33878840621E+03  0.00000000000E+00 0.  1.
<mgrwt>
<rscale>  0 0.14502736E+04</rscale>
<asrwt>0</asrwt>
<pdfrwt beam="1">  1        2 0.11768709E+00 0.14502736E+04</pdfrwt>
<pdfrwt beam="2">  1       -1 0.10575097E+00 0.14502736E+04</pdfrwt>
<totfact> 0.33898060E+01</totfact>
</mgrwt>
</event>
<event>
12    6  0.1529770E-007  0.1726098E+04  0.7818608E-02  0.8746618E-01
          2   -1    0    0  501    0  0.00000000000E+00  0.00000000000E+00  0.20958911897E+04  0.20958911897E+04  0.00000000000E+00 0. -1.
         -1   -1    0    0    0  501 -0.00000000000E+00 -0.00000000000E+00 -0.35538763831E+03  0.35538763831E+03  0.00000000000E+00 0.  1.
         24    2    1    2    0    0  0.14954969276E+03 -0.37850876949E+03  0.13268109365E+04  0.13900888016E+04  0.79281875301E+02 0.  0.
        254    2    1    2    0    0 -0.14954969276E+03  0.37850876949E+03  0.41369261481E+03  0.10611900264E+04  0.88845297759E+03 0.  0.
         23    2    4    4    0    0 -0.27662127844E+03  0.33891436126E+03  0.64203306259E+03  0.78191545396E+03  0.88334861343E+02 0.  0.
         23    2    4    4    0    0  0.12707158567E+03  0.39594408224E+02 -0.22834044778E+03  0.27927457244E+03  0.90222068643E+02 0.  0.
          2    1    3    3  502    0  0.13446919974E+03 -0.33663088227E+03  0.12479771919E+04  0.12995573816E+04  0.00000000000E+00 0. -1.
         -1    1    3    3    0  502  0.15080493018E+02 -0.41877887220E+02  0.78833744634E+02  0.90531419964E+02  0.00000000000E+00 0.  1.
         11    1    5    5    0    0 -0.12298753920E+03  0.13091932094E+03  0.19231357091E+03  0.26315454195E+03  0.00000000000E+00 0.  1.
        -11    1    5    5    0    0 -0.15363373924E+03  0.20799504033E+03  0.44971949168E+03  0.51876091201E+03  0.00000000000E+00 0. -1.
          1    1    6    6  503    0  0.14566073999E+01  0.34928962937E+02 -0.45092322643E+02  0.57056741217E+02  0.00000000000E+00 0. -1.
         -1    1    6    6    0  503  0.12561497827E+03  0.46654452870E+01 -0.18324812514E+03  0.22221783122E+03  0.00000000000E+00 0.  1.
<mgrwt>
<rscale>  0 0.17260983E+04</rscale>
<asrwt>0</asrwt>
<pdfrwt beam="1">  1        2 0.32244479E+00 0.17260983E+04</pdfrwt>
<pdfrwt beam="2">  1       -1 0.54675022E-01 0.17260983E+04</pdfrwt>
<totfact> 0.21595921E+01</totfact>
</mgrwt>
</event>
<event>
12    6  0.1529770E-007  0.1858959E+04  0.7818608E-02  0.8675559E-01
         -1   -1    0    0    0  501 -0.00000000000E+00  0.00000000000E+00  0.47627447544E+03  0.47627447544E+03  0.00000000000E+00 0.  1.
          2   -1    0    0  501    0  0.00000000000E+00 -0.00000000000E+00 -0.18139373907E+04  0.18139373907E+04  0.00000000000E+00 0. -1.
         24    2    1    2    0    0 -0.65727714440E+03 -0.24685404508E+03 -0.37598941203E+03  0.80054312432E+03  0.80938815255E+02 0.  0.
        254    2    1    2    0    0  0.65727714440E+03  0.24685404508E+03 -0.96167350324E+03  0.14896687418E+04  0.89517979725E+03 0.  0.
         23    2    4    4    0    0  0.74338687941E+03  0.14308941213E+03 -0.31851846342E+03  0.82621220177E+03  0.89855208331E+02 0.  0.
         23    2    4    4    0    0 -0.86109735015E+02  0.10376463295E+03 -0.64315503982E+03  0.66345654005E+03  0.91346536747E+02 0.  0.
          2    1    3    3  502    0 -0.34379676073E+01  0.30646843251E+01 -0.92043535747E+01  0.10292328989E+02  0.00000000000E+00 0. -1.
         -1    1    3    3    0  502 -0.65383917679E+03 -0.24991872941E+03 -0.36678505845E+03  0.79025079533E+03  0.00000000000E+00 0.  1.
         11    1    5    5    0    0  0.21499227318E+03  0.71188125216E+02 -0.64115475284E+02  0.23537251512E+03  0.00000000000E+00 0. -1.
        -11    1    5    5    0    0  0.52839460623E+03  0.71901286911E+02 -0.25440298814E+03  0.59083968666E+03  0.00000000000E+00 0.  1.
          4    1    6    6  503    0  0.85103498136E+01 -0.39474902347E+01 -0.13889120656E+03  0.13920767218E+03  0.00000000000E+00 0. -1.
         -4    1    6    6    0  503 -0.94620084828E+02  0.10771212319E+03 -0.50426383326E+03  0.52424886787E+03  0.00000000000E+00 0.  1.
<mgrwt>
<rscale>  0 0.18589589E+04</rscale>
<asrwt>0</asrwt>
<pdfrwt beam="1">  1        2 0.27906729E+00 0.18589589E+04</pdfrwt>
<pdfrwt beam="2">  1       -1 0.73272997E-01 0.18589589E+04</pdfrwt>
<totfact> 0.17025875E+01</totfact>
</mgrwt>
</event>
<event>
12    6  0.1529770E-007  0.2131208E+04  0.7818608E-02  0.8547619E-01
          2   -1    0    0  501    0  0.00000000000E+00  0.00000000000E+00  0.15082762188E+04  0.15082762188E+04  0.00000000000E+00 0. -1.
         -1   -1    0    0    0  501 -0.00000000000E+00 -0.00000000000E+00 -0.75285398222E+03  0.75285398222E+03  0.00000000000E+00 0.  1.
         24    2    1    2    0    0  0.78564002536E+03 -0.36158916256E+03  0.22502769463E+03  0.89844833636E+03  0.92709103283E+02 0.  0.
        254    2    1    2    0    0 -0.78564002536E+03  0.36158916256E+03  0.53039454199E+03  0.13626818647E+04  0.90972881800E+03 0.  0.
         23    2    4    4    0    0 -0.81180627699E+03  0.58618507522E+03  0.37577856599E+03  0.10736670064E+04  0.94387161380E+02 0.  0.
         23    2    4    4    0    0  0.26166251629E+02 -0.22459591266E+03  0.15461597601E+03  0.28901485830E+03  0.92170990940E+02 0.  0.
          2    1    3    3  502    0  0.39600982945E+02 -0.73064314532E+01  0.28973345419E+02  0.49609238409E+02  0.00000000000E+00 0. -1.
         -1    1    3    3    0  502  0.74603904241E+03 -0.35428273110E+03  0.19605434922E+03  0.84883909795E+03  0.00000000000E+00 0.  1.
         11    1    5    5    0    0 -0.29088140662E+03  0.21785368863E+03  0.18480911415E+03  0.40770900290E+03  0.00000000000E+00 0. -1.
        -11    1    5    5    0    0 -0.52092487036E+03  0.36833138659E+03  0.19096945183E+03  0.66595800351E+03  0.00000000000E+00 0.  1.
          4    1    6    6  503    0 -0.38295693321E+01 -0.58884095758E+02 -0.19958103291E+01  0.59042235673E+02  0.00000000000E+00 0. -1.
         -4    1    6    6    0  503  0.29995820961E+02 -0.16571181690E+03  0.15661178634E+03  0.22997262262E+03  0.00000000000E+00 0.  1.
<mgrwt>
<rscale>  0 0.21312079E+04</rscale>
<asrwt>0</asrwt>
<pdfrwt beam="1">  1        2 0.23204249E+00 0.21312079E+04</pdfrwt>
<pdfrwt beam="2">  1       -1 0.11582369E+00 0.21312079E+04</pdfrwt>
<totfact> 0.88733063E+00</totfact>
</mgrwt>
</event>
<event>
12    6  0.1529770E-007  0.3445744E+04  0.7818608E-02  0.8126770E-01
         -1   -1    0    0    0  501 -0.00000000000E+00  0.00000000000E+00  0.17489130157E+04  0.17489130157E+04  0.00000000000E+00 0.  1.
          2   -1    0    0  501    0  0.00000000000E+00 -0.00000000000E+00 -0.16972191161E+04  0.16972191161E+04  0.00000000000E+00 0. -1.
         24    2    1    2    0    0  0.12182661894E+04 -0.42727827447E+02  0.10672161411E+04  0.16222598103E+04  0.82331190928E+02 0.  0.
        254    2    1    2    0    0 -0.12182661894E+04  0.42727827447E+02 -0.10155222415E+04  0.18238723215E+04  0.89957025669E+03 0.  0.
         23    2    4    4    0    0 -0.32597448508E+03 -0.90610355870E+02 -0.82580650687E+03  0.89730422039E+03  0.93428451963E+02 0.  0.
         23    2    4    4    0    0 -0.89229170431E+03  0.13333818332E+03 -0.18971573459E+03  0.92656810108E+03  0.92589574369E+02 0.  0.
          4    1    3    3  502    0  0.39491565176E+02  0.13308432412E+02  0.35060480622E+02  0.54460402081E+02  0.00000000000E+00 0. -1.
         -3    1    3    3    0  502  0.11787746242E+04 -0.56036259860E+02  0.10321556604E+04  0.15677994082E+04  0.00000000000E+00 0.  1.
         11    1    5    5    0    0 -0.27787415750E+03 -0.94380669576E+02 -0.62040182063E+03  0.68630909744E+03  0.00000000000E+00 0.  1.
        -11    1    5    5    0    0 -0.48100327577E+02  0.37703137065E+01 -0.20540468624E+03  0.21099512295E+03  0.00000000000E+00 0. -1.
          1    1    6    6  503    0 -0.70934095558E+02  0.99795674556E+01 -0.41780871285E+02  0.82926949085E+02  0.00000000000E+00 0. -1.
         -1    1    6    6    0  503 -0.82135760875E+03  0.12335861586E+03 -0.14793486330E+03  0.84364115200E+03  0.00000000000E+00 0.  1.
<mgrwt>
<rscale>  0 0.34457444E+04</rscale>
<asrwt>0</asrwt>
<pdfrwt beam="1">  1        2 0.26111063E+00 0.34457444E+04</pdfrwt>
<pdfrwt beam="2">  1       -1 0.26906354E+00 0.34457444E+04</pdfrwt>
<totfact> 0.48439811E-01</totfact>
</mgrwt>
</event>
<event>
12    6  0.1529770E-007  0.1941502E+04  0.7818608E-02  0.8634470E-01
          2   -1    0    0  501    0  0.00000000000E+00  0.00000000000E+00  0.54188322280E+03  0.54188322280E+03  0.00000000000E+00 0. -1.
         -1   -1    0    0    0  501 -0.00000000000E+00 -0.00000000000E+00 -0.17390416930E+04  0.17390416930E+04  0.00000000000E+00 0.  1.
         24    2    1    2    0    0 -0.32996591858E+03 -0.38107277391E+03 -0.11444277022E+04  0.12529970943E+04  0.78695529079E+02 0.  0.
        254    2    1    2    0    0  0.32996591858E+03  0.38107277391E+03 -0.52730768008E+02  0.10279278215E+04  0.89429363518E+03 0.  0.
         23    2    4    4    0    0  0.60618785089E+03  0.12259322964E+03 -0.10897949170E+03  0.63466193878E+03  0.91795622988E+02 0.  0.
         23    2    4    4    0    0 -0.27622193231E+03  0.25847954427E+03  0.56248723695E+02  0.39326588275E+03  0.91563665942E+02 0.  0.
          2    1    3    3  502    0 -0.84560192219E+02 -0.75366766141E+02 -0.19009121703E+03  0.22128092177E+03  0.00000000000E+00 0. -1.
         -1    1    3    3    0  502 -0.24540572636E+03 -0.30570600777E+03 -0.95433648518E+03  0.10317161725E+04  0.00000000000E+00 0.  1.
         11    1    5    5    0    0  0.30693996186E+03  0.10572028701E+03 -0.73432499091E+02  0.33283817569E+03  0.00000000000E+00 0.  1.
        -11    1    5    5    0    0  0.29924788903E+03  0.16872942634E+02 -0.35546992611E+02  0.30182376309E+03  0.00000000000E+00 0. -1.
          2    1    6    6  503    0 -0.26844401098E+03  0.21534320602E+03  0.39750452901E+02  0.34643178537E+03  0.00000000000E+00 0. -1.
         -2    1    6    6    0  503 -0.77779213305E+01  0.43136338250E+02  0.16498270794E+02  0.46834097376E+02  0.00000000000E+00 0.  1.
<mgrwt>
<rscale>  0 0.19415020E+04</rscale>
<asrwt>0</asrwt>
<pdfrwt beam="1">  1        2 0.83366649E-01 0.19415020E+04</pdfrwt>
<pdfrwt beam="2">  1       -1 0.26754488E+00 0.19415020E+04</pdfrwt>
<totfact> 0.32030242E+00</totfact>
</mgrwt>
</event>
<event>
12    6  0.1529770E-007  0.1218453E+04  0.7818608E-02  0.9096856E-01
          2   -1    0    0  501    0  0.00000000000E+00  0.00000000000E+00  0.19919574219E+04  0.19919574219E+04  0.00000000000E+00 0. -1.
         -1   -1    0    0    0  501 -0.00000000000E+00 -0.00000000000E+00 -0.18632771657E+03  0.18632771657E+03  0.00000000000E+00 0.  1.
         24    2    1    2    0    0  0.87594776163E+02  0.39299157394E+02 -0.29920292515E+02  0.12880054923E+03  0.80480364039E+02 0.  0.
        254    2    1    2    0    0 -0.87594776163E+02 -0.39299157394E+02  0.18355499978E+04  0.20494845892E+04  0.90660135581E+03 0.  0.
         23    2    4    4    0    0 -0.12410056154E+03  0.41201500483E+03  0.10222661662E+04  0.11139379759E+04  0.10330724093E+03 0.  0.
         23    2    4    4    0    0  0.36505785380E+02 -0.45131416222E+03  0.81328383159E+03  0.93554661328E+03  0.93806873446E+02 0.  0.
          2    1    3    3  502    0  0.63701330106E+02 -0.73627406377E+01  0.72537667239E+01  0.64534382609E+02  0.00000000000E+00 0. -1.
         -1    1    3    3    0  502  0.23893446057E+02  0.46661898032E+02 -0.37174059239E+02  0.64266166625E+02  0.00000000000E+00 0.  1.
         11    1    5    5    0    0 -0.77603983059E+02  0.34336245765E+03  0.73510657585E+03  0.81504713567E+03  0.00000000000E+00 0.  1.
        -11    1    5    5    0    0 -0.46496578484E+02  0.68652547185E+02  0.28715959040E+03  0.29889084028E+03  0.00000000000E+00 0. -1.
          4    1    6    6  503    0  0.51270159198E+02 -0.19908802041E+03  0.30332450817E+03  0.36642929243E+03  0.00000000000E+00 0. -1.
         -4    1    6    6    0  503 -0.14764373818E+02 -0.25222614181E+03  0.50995932341E+03  0.56911732085E+03  0.00000000000E+00 0.  1.
<mgrwt>
<rscale>  0 0.12184529E+04</rscale>
<asrwt>0</asrwt>
<pdfrwt beam="1">  1        2 0.30645497E+00 0.12184529E+04</pdfrwt>
<pdfrwt beam="2">  1       -1 0.28665804E-01 0.12184529E+04</pdfrwt>
<totfact> 0.83851441E+01</totfact>
</mgrwt>
</event>
<event>
12    6  0.1529770E-007  0.1440034E+04  0.7818608E-02  0.8925339E-01
          2   -1    0    0  501    0  0.00000000000E+00  0.00000000000E+00  0.81718848935E+03  0.81718848935E+03  0.00000000000E+00 0. -1.
         -1   -1    0    0    0  501 -0.00000000000E+00 -0.00000000000E+00 -0.63439971382E+03  0.63439971382E+03  0.00000000000E+00 0.  1.
         24    2    1    2    0    0  0.33781662799E+03  0.19494649986E+03  0.22498271186E+03  0.45753261253E+03  0.81207505480E+02 0.  0.
        254    2    1    2    0    0 -0.33781662799E+03 -0.19494649986E+03 -0.42193936335E+02  0.99405559064E+03  0.91336847825E+03 0.  0.
         23    2    4    4    0    0 -0.63551041900E+03 -0.21865109924E+03 -0.60205924013E+02  0.68115790145E+03  0.93110351596E+02 0.  0.
         23    2    4    4    0    0  0.29769379101E+03  0.23704599380E+02  0.18011987677E+02  0.31289768919E+03  0.91635315037E+02 0.  0.
          2    1    3    3  502    0  0.47272149752E+02  0.37806628768E+02  0.70368629410E+02  0.92821017695E+02  0.00000000000E+00 0. -1.
         -1    1    3    3    0  502  0.29054447823E+03  0.15713987109E+03  0.15461408245E+03  0.36471159484E+03  0.00000000000E+00 0.  1.
         11    1    5    5    0    0 -0.16613831329E+03 -0.17929019059E+02  0.23264936085E+00  0.16710309091E+03  0.00000000000E+00 0. -1.
        -11    1    5    5    0    0 -0.46937210571E+03 -0.20072208018E+03 -0.60438573373E+02  0.51405481054E+03  0.00000000000E+00 0.  1.
          3    1    6    6  503    0  0.15090165332E+02  0.20770319231E+02 -0.12649542063E+02  0.28620450120E+02  0.00000000000E+00 0. -1.
         -3    1    6    6    0  503  0.28260362568E+03  0.29342801493E+01  0.30661529740E+02  0.28427723907E+03  0.00000000000E+00 0.  1.
<mgrwt>
<rscale>  0 0.14400335E+04</rscale>
<asrwt>0</asrwt>
<pdfrwt beam="1">  1        2 0.12572131E+00 0.14400335E+04</pdfrwt>
<pdfrwt beam="2">  1       -1 0.97599956E-01 0.14400335E+04</pdfrwt>
<totfact> 0.37382033E+01</totfact>
</mgrwt>
</event>
<event>
12    6  0.1529770E-007  0.2270539E+04  0.7818608E-02  0.8489629E-01
          2   -1    0    0  501    0  0.00000000000E+00  0.00000000000E+00  0.13025032961E+04  0.13025032961E+04  0.00000000000E+00 0. -1.
         -1   -1    0    0    0  501 -0.00000000000E+00 -0.00000000000E+00 -0.98950755073E+03  0.98950755073E+03  0.00000000000E+00 0.  1.
         24    2    1    2    0    0 -0.14273095545E+03 -0.21637030955E+03 -0.79079691027E+03  0.83644937434E+03  0.84258922642E+02 0.  0.
        254    2    1    2    0    0  0.14273095545E+03  0.21637030955E+03  0.11037926556E+04  0.14555614725E+04  0.91275009561E+03 0.  0.
         23    2    4    4    0    0  0.54834321340E+02  0.21626479774E+03 -0.88198371705E+02  0.25688960989E+03  0.91847990495E+02 0.  0.
         23    2    4    4    0    0  0.87896634108E+02  0.10551181076E+00  0.11919910273E+04  0.11986718626E+04  0.90806362681E+02 0.  0.
          2    1    3    3  502    0 -0.21059763269E+02 -0.61328529345E+02 -0.10990205137E+03  0.12760549767E+03  0.00000000000E+00 0. -1.
         -1    1    3    3    0  502 -0.12167119218E+03 -0.15504178021E+03 -0.68089485891E+03  0.70884387667E+03  0.00000000000E+00 0.  1.
         11    1    5    5    0    0  0.75027987886E+02  0.13934315445E+03 -0.37711245701E+02  0.16268943331E+03  0.00000000000E+00 0. -1.
        -11    1    5    5    0    0 -0.20193666546E+02  0.76921643292E+02 -0.50487126005E+02  0.94200176579E+02  0.00000000000E+00 0.  1.
          1    1    6    6  503    0 -0.80379410983E+01 -0.22860374936E+02  0.36803045879E+03  0.36882736319E+03  0.00000000000E+00 0. -1.
         -1    1    6    6    0  503  0.95934575206E+02  0.22965886747E+02  0.82396056852E+03  0.82984449938E+03  0.00000000000E+00 0.  1.
<mgrwt>
<rscale>  0 0.22705390E+04</rscale>
<asrwt>0</asrwt>
<pdfrwt beam="1">  1        2 0.20038512E+00 0.22705390E+04</pdfrwt>
<pdfrwt beam="2">  1       -1 0.15223193E+00 0.22705390E+04</pdfrwt>
<totfact> 0.57205926E+00</totfact>
</mgrwt>
</event>
<event>
12    6  0.1529770E-007  0.1810160E+04  0.7818608E-02  0.8700915E-01
         -1   -1    0    0    0  501 -0.00000000000E+00  0.00000000000E+00  0.95404895096E+03  0.95404895096E+03  0.00000000000E+00 0.  1.
          2   -1    0    0  501    0  0.00000000000E+00 -0.00000000000E+00 -0.85862421151E+03  0.85862421151E+03  0.00000000000E+00 0. -1.
         24    2    1    2    0    0  0.41765879906E+03 -0.52876484790E+03 -0.27525960732E+02  0.67901276194E+03  0.79180272560E+02 0.  0.
        254    2    1    2    0    0 -0.41765879906E+03  0.52876484790E+03  0.12295070018E+03  0.11336604005E+04  0.90334815673E+03 0.  0.
         23    2    4    4    0    0 -0.19119874906E+03  0.67584851390E+03  0.32780521677E+03  0.77955929095E+03  0.83236125446E+02 0.  0.
         23    2    4    4    0    0 -0.22646005000E+03 -0.14708366601E+03 -0.20485451659E+03  0.35410110958E+03  0.10249128641E+03 0.  0.
          2    1    3    3  502    0  0.24071813291E+03 -0.25767935547E+03 -0.41073536333E+02  0.35500831699E+03  0.00000000000E+00 0. -1.
         -1    1    3    3    0  502  0.17694066614E+03 -0.27108549243E+03  0.13547575600E+02  0.32400444495E+03  0.00000000000E+00 0.  1.
         11    1    5    5    0    0 -0.78776963700E+02  0.38515376053E+03  0.15028793537E+03  0.42087491346E+03  0.00000000000E+00 0. -1.
        -11    1    5    5    0    0 -0.11242178536E+03  0.29069475337E+03  0.17751728140E+03  0.35868437749E+03  0.00000000000E+00 0.  1.
          1    1    6    6  503    0 -0.79092945029E+02 -0.84816502222E+02 -0.35854191731E+02  0.12138803923E+03  0.00000000000E+00 0. -1.
         -1    1    6    6    0  503 -0.14736710497E+03 -0.62267163785E+02 -0.16900032486E+03  0.23271307036E+03  0.00000000000E+00 0.  1.
<mgrwt>
<rscale>  0 0.18101597E+04</rscale>
<asrwt>0</asrwt>
<pdfrwt beam="1">  1        2 0.13209603E+00 0.18101597E+04</pdfrwt>
<pdfrwt beam="2">  1       -1 0.14677676E+00 0.18101597E+04</pdfrwt>
<totfact> 0.12465509E+01</totfact>
</mgrwt>
</event>
<event>
12    6  0.1529770E-007  0.1369727E+04  0.7818608E-02  0.8976028E-01
          2   -1    0    0  501    0  0.00000000000E+00  0.00000000000E+00  0.95503090656E+03  0.95503090656E+03  0.00000000000E+00 0. -1.
         -1   -1    0    0    0  501 -0.00000000000E+00 -0.00000000000E+00 -0.49112322505E+03  0.49112322505E+03  0.00000000000E+00 0.  1.
         24    2    1    2    0    0  0.56127002950E+02  0.93757517602E+02 -0.25626554640E+03  0.28921320251E+03  0.77662949149E+02 0.  0.
        254    2    1    2    0    0 -0.56127002950E+02 -0.93757517602E+02  0.72017322791E+03  0.11569409291E+04  0.89884488241E+03 0.  0.
         23    2    4    4    0    0  0.27617492067E+03 -0.33553543598E+03  0.53998321009E+03  0.69941535057E+03  0.93505881274E+02 0.  0.
         23    2    4    4    0    0 -0.33230192362E+03  0.24177791838E+03  0.18019001782E+03  0.45752557851E+03  0.89331305904E+02 0.  0.
          4    1    3    3  502    0 -0.12400243803E+02  0.13952714195E+01 -0.61252601880E+01  0.13900778434E+02  0.00000000000E+00 0. -1.
         -3    1    3    3    0  502  0.68527246753E+02  0.92362246182E+02 -0.25014028621E+03  0.27531242408E+03  0.00000000000E+00 0.  1.
         11    1    5    5    0    0  0.28082697273E+03 -0.30923141897E+03  0.51082272450E+03  0.65986946812E+03  0.00000000000E+00 0.  1.
        -11    1    5    5    0    0 -0.46520520580E+01 -0.26304017011E+02  0.29160485587E+02  0.39545882452E+02  0.00000000000E+00 0. -1.
          1    1    6    6  503    0 -0.13956576052E+03  0.81560514314E+02  0.27295901134E+02  0.16393835800E+03  0.00000000000E+00 0. -1.
         -1    1    6    6    0  503 -0.19273616310E+03  0.16021740406E+03  0.15289411669E+03  0.29358722051E+03  0.00000000000E+00 0.  1.
<mgrwt>
<rscale>  0 0.13697268E+04</rscale>
<asrwt>0</asrwt>
<pdfrwt beam="1">  1        2 0.14692783E+00 0.13697268E+04</pdfrwt>
<pdfrwt beam="2">  1       -1 0.75557419E-01 0.13697268E+04</pdfrwt>
<totfact> 0.52803037E+01</totfact>
</mgrwt>
</event>
<event>
12    6  0.1529770E-007  0.1507616E+04  0.7818608E-02  0.8879404E-01
         -1   -1    0    0    0  501 -0.00000000000E+00  0.00000000000E+00  0.17486707321E+03  0.17486707321E+03  0.00000000000E+00 0.  1.
          2   -1    0    0  501    0  0.00000000000E+00 -0.00000000000E+00 -0.32494755589E+04  0.32494755589E+04  0.00000000000E+00 0. -1.
         24    2    1    2    0    0  0.46997038162E+03 -0.85775598882E+02 -0.90133242917E+03  0.10232852675E+04  0.80516941114E+02 0.  0.
        254    2    1    2    0    0 -0.46997038162E+03  0.85775598882E+02 -0.21732760565E+04  0.24010573646E+04  0.90206321141E+03 0.  0.
         23    2    4    4    0    0 -0.11143928185E+03  0.36038887069E+03 -0.35721493540E+03  0.52743798924E+03  0.91046530720E+02 0.  0.
         23    2    4    4    0    0 -0.35853109976E+03 -0.27461327181E+03 -0.18160611211E+04  0.18736193753E+04  0.91730963271E+02 0.  0.
          4    1    3    3  502    0  0.25353538384E+02 -0.24364190943E+02 -0.77967675423E+02  0.85529960364E+02  0.00000000000E+00 0. -1.
         -3    1    3    3    0  502  0.44461684323E+03 -0.61411407939E+02 -0.82336475375E+03  0.93775530711E+03  0.00000000000E+00 0.  1.
         11    1    5    5    0    0 -0.88759870968E+01  0.78003676478E+01  0.38784724076E+01  0.12436696933E+02  0.00000000000E+00 0. -1.
        -11    1    5    5    0    0 -0.10256329476E+03  0.35258850305E+03 -0.36109340781E+03  0.51500129230E+03  0.00000000000E+00 0.  1.
          4    1    6    6  503    0 -0.13790013095E+02 -0.37478059562E+02 -0.22161814826E+03  0.22518741761E+03  0.00000000000E+00 0. -1.
         -4    1    6    6    0  503 -0.34474108667E+03 -0.23713521225E+03 -0.15944429728E+04  0.16484319577E+04  0.00000000000E+00 0.  1.
<mgrwt>
<rscale>  0 0.15076157E+04</rscale>
<asrwt>0</asrwt>
<pdfrwt beam="1">  1        2 0.49991930E+00 0.15076157E+04</pdfrwt>
<pdfrwt beam="2">  1       -1 0.26902628E-01 0.15076157E+04</pdfrwt>
<totfact> 0.16499403E+01</totfact>
</mgrwt>
</event>
<event>
12    6  0.1529770E-007  0.1347999E+04  0.7818608E-02  0.8992344E-01
         -1   -1    0    0    0  501 -0.00000000000E+00  0.00000000000E+00  0.25806558610E+03  0.25806558610E+03  0.00000000000E+00 0.  1.
          2   -1    0    0  501    0  0.00000000000E+00 -0.00000000000E+00 -0.17603105265E+04  0.17603105265E+04  0.00000000000E+00 0. -1.
         24    2    1    2    0    0 -0.13231435853E+02 -0.12777139131E+03  0.90835447211E+02  0.17638225384E+03  0.79743474149E+02 0.  0.
        254    2    1    2    0    0  0.13231435853E+02  0.12777139131E+03 -0.15930803876E+04  0.18419938588E+04  0.91571592484E+03 0.  0.
         23    2    4    4    0    0  0.16523991457E+03 -0.29628483324E+03 -0.11587685658E+04  0.12108697366E+04  0.91498623310E+02 0.  0.
         23    2    4    4    0    0 -0.15200847871E+03  0.42405622454E+03 -0.43431182182E+03  0.63112412221E+03  0.82223110403E+02 0.  0.
          2    1    3    3  502    0 -0.26895842525E+02 -0.27729279682E+02 -0.27272720100E+01  0.38726441993E+02  0.00000000000E+00 0. -1.
         -1    1    3    3    0  502  0.13664406672E+02 -0.10004211162E+03  0.93562719221E+02  0.13765581185E+03  0.00000000000E+00 0.  1.
         11    1    5    5    0    0  0.15425431914E+03 -0.19407544817E+03 -0.85202984120E+03  0.88736380637E+03  0.00000000000E+00 0. -1.
        -11    1    5    5    0    0  0.10985595426E+02 -0.10220938507E+03 -0.30673872461E+03  0.32350593021E+03  0.00000000000E+00 0.  1.
          4    1    6    6  503    0 -0.16178916592E+03  0.38493029485E+03 -0.39361922599E+03  0.57383199733E+03  0.00000000000E+00 0. -1.
         -4    1    6    6    0  503  0.97806872021E+01  0.39125929698E+02 -0.40692595836E+02  0.57292124876E+02  0.00000000000E+00 0.  1.
<mgrwt>
<rscale>  0 0.13479994E+04</rscale>
<asrwt>0</asrwt>
<pdfrwt beam="1">  1        2 0.27081701E+00 0.13479994E+04</pdfrwt>
<pdfrwt beam="2">  1       -1 0.39702397E-01 0.13479994E+04</pdfrwt>
<totfact> 0.62388017E+01</totfact>
</mgrwt>
</event>
<event>
12    6  0.1529770E-007  0.2790545E+04  0.7818608E-02  0.8306210E-01
          2   -1    0    0  501    0  0.00000000000E+00  0.00000000000E+00  0.15636079623E+04  0.15636079623E+04  0.00000000000E+00 0. -1.
         -1   -1    0    0    0  501 -0.00000000000E+00 -0.00000000000E+00 -0.12450595330E+04  0.12450595330E+04  0.00000000000E+00 0.  1.
         24    2    1    2    0    0 -0.26208108141E+03  0.19271431580E+03 -0.10677619448E+04  0.11192283053E+04  0.82043451051E+02 0.  0.
        254    2    1    2    0    0  0.26208108141E+03 -0.19271431580E+03  0.13863103742E+04  0.16894391900E+04  0.90913311582E+03 0.  0.
         23    2    4    4    0    0 -0.11811695008E+03 -0.44554917841E+03  0.90101424890E+03  0.10161703994E+04  0.91158761037E+02 0.  0.
         23    2    4    4    0    0  0.38019803148E+03  0.25283486260E+03  0.48529612532E+03  0.67326879055E+03  0.96449594041E+02 0.  0.
          4    1    3    3  502    0 -0.20529086551E+02 -0.62271833409E+01 -0.49043262030E+02  0.53530017350E+02  0.00000000000E+00 0. -1.
         -3    1    3    3    0  502 -0.24155199486E+03  0.19894149915E+03 -0.10187186828E+04  0.10656982880E+04  0.00000000000E+00 0.  1.
         11    1    5    5    0    0 -0.44299556742E+02 -0.32818870403E+03  0.62782570625E+03  0.70981363302E+03  0.00000000000E+00 0.  1.
        -11    1    5    5    0    0 -0.73817393335E+02 -0.11736047438E+03  0.27318854264E+03  0.30635676643E+03  0.00000000000E+00 0. -1.
          1    1    6    6  503    0  0.20945465125E+03  0.81589789536E+02  0.23919355342E+03  0.32824030935E+03  0.00000000000E+00 0. -1.
         -1    1    6    6    0  503  0.17074338023E+03  0.17124507307E+03  0.24610257190E+03  0.34502848120E+03  0.00000000000E+00 0.  1.
<mgrwt>
<rscale>  0 0.27905447E+04</rscale>
<asrwt>0</asrwt>
<pdfrwt beam="1">  1        2 0.24055507E+00 0.27905447E+04</pdfrwt>
<pdfrwt beam="2">  1       -1 0.19154762E+00 0.27905447E+04</pdfrwt>
<totfact> 0.19974242E+00</totfact>
</mgrwt>
</event>
<event>
12    6  0.1529770E-007  0.1453188E+04  0.7818608E-02  0.8916193E-01
          2   -1    0    0  501    0  0.00000000000E+00  0.00000000000E+00  0.11059308823E+04  0.11059308823E+04  0.00000000000E+00 0. -1.
         -1   -1    0    0    0  501 -0.00000000000E+00 -0.00000000000E+00 -0.47737082658E+03  0.47737082658E+03  0.00000000000E+00 0.  1.
         24    2    1    2    0    0  0.48240669549E+02 -0.27403756014E+03  0.57206113353E+03  0.64091676683E+03  0.78080823149E+02 0.  0.
        254    2    1    2    0    0 -0.48240669549E+02  0.27403756014E+03  0.56498922148E+02  0.94238494201E+03  0.89859529498E+03 0.  0.
         23    2    4    4    0    0  0.17812883206E+03  0.37221576578E+03 -0.28611794434E+03  0.51038515908E+03  0.91406101705E+02 0.  0.
         23    2    4    4    0    0 -0.22636950161E+03 -0.98178205640E+02  0.34261686649E+03  0.43199978293E+03  0.91407789216E+02 0.  0.
          4    1    3    3  502    0  0.53686999812E+02 -0.19019243166E+03  0.46164921373E+03  0.50217073944E+03  0.00000000000E+00 0. -1.
         -3    1    3    3    0  502 -0.54463302635E+01 -0.83845128486E+02  0.11041191980E+03  0.13874602739E+03  0.00000000000E+00 0.  1.
         11    1    5    5    0    0  0.15733528006E+03  0.26892016757E+03 -0.24841471607E+03  0.39847499048E+03  0.00000000000E+00 0.  1.
        -11    1    5    5    0    0  0.20793552001E+02  0.10329559821E+03 -0.37703228272E+02  0.11191016860E+03  0.00000000000E+00 0. -1.
          1    1    6    6  503    0 -0.49541342841E+02 -0.44374467705E+02  0.40625405717E+02  0.77934983315E+02  0.00000000000E+00 0. -1.
         -1    1    6    6    0  503 -0.17682815877E+03 -0.53803737935E+02  0.30199146077E+03  0.35406479962E+03  0.00000000000E+00 0.  1.
<mgrwt>
<rscale>  0 0.14531884E+04</rscale>
<asrwt>0</asrwt>
<pdfrwt beam="1">  1        2 0.17014321E+00 0.14531884E+04</pdfrwt>
<pdfrwt beam="2">  1       -1 0.73441666E-01 0.14531884E+04</pdfrwt>
<totfact> 0.44632862E+01</totfact>
</mgrwt>
</event>
<event>
12    6  0.1529770E-007  0.1224090E+04  0.7818608E-02  0.9092028E-01
         -3   -1    0    0    0  501 -0.00000000000E+00  0.00000000000E+00  0.39564028266E+03  0.39564028266E+03  0.00000000000E+00 0.  1.
          2   -1    0    0  501    0  0.00000000000E+00 -0.00000000000E+00 -0.94681786660E+03  0.94681786660E+03  0.00000000000E+00 0. -1.
         24    2    1    2    0    0  0.10266540198E+03 -0.27721464337E+03 -0.38957555160E+02  0.30634155196E+03  0.70280239700E+02 0.  0.
        254    2    1    2    0    0 -0.10266540198E+03  0.27721464337E+03 -0.51222002878E+03  0.10361165973E+04  0.85075266797E+03 0.  0.
         23    2    4    4    0    0  0.80374654786E+02  0.51989864308E+03 -0.14919070768E+03  0.55383606020E+03  0.87873944446E+02 0.  0.
         23    2    4    4    0    0 -0.18304005677E+03 -0.24268399971E+03 -0.36302932110E+03  0.48228053710E+03  0.91679018264E+02 0.  0.
          2    1    3    3  502    0  0.50524410305E+02 -0.78001224386E+02 -0.38031186649E+02  0.10041552769E+03  0.00000000000E+00 0. -1.
         -1    1    3    3    0  502  0.52140991678E+02 -0.19921341898E+03 -0.92636851110E+00  0.20592602427E+03  0.00000000000E+00 0.  1.
         11    1    5    5    0    0  0.97077321635E+02  0.37042902510E+03 -0.10469178372E+03  0.39699123238E+03  0.00000000000E+00 0.  1.
        -11    1    5    5    0    0 -0.16702666848E+02  0.14946961798E+03 -0.44498923958E+02  0.15684482782E+03  0.00000000000E+00 0. -1.
          1    1    6    6  503    0 -0.66497791737E+02 -0.12820294519E+03 -0.23008975840E+03  0.27166017077E+03  0.00000000000E+00 0. -1.
         -1    1    6    6    0  503 -0.11654226503E+03 -0.11448105453E+03 -0.13293956270E+03  0.21062036634E+03  0.00000000000E+00 0.  1.
<mgrwt>
<rscale>  0 0.12240903E+04</rscale>
<asrwt>0</asrwt>
<pdfrwt beam="1">  1        2 0.14566429E+00 0.12240903E+04</pdfrwt>
<pdfrwt beam="2">  1       -3 0.60867736E-01 0.12240903E+04</pdfrwt>
<totfact> 0.45033412E+01</totfact>
</mgrwt>
</event>
<event>
12    6  0.1529770E-007  0.1437652E+04  0.7818608E-02  0.8927006E-01
          2   -1    0    0  501    0  0.00000000000E+00  0.00000000000E+00  0.20193095698E+04  0.20193095698E+04  0.00000000000E+00 0. -1.
         -1   -1    0    0    0  501 -0.00000000000E+00 -0.00000000000E+00 -0.25588489462E+03  0.25588489462E+03  0.00000000000E+00 0.  1.
         24    2    1    2    0    0 -0.34163592131E+03  0.20020007471E+03  0.81682585773E+03  0.91097821821E+03  0.76691978447E+02 0.  0.
        254    2    1    2    0    0  0.34163592131E+03 -0.20020007471E+03  0.94659881749E+03  0.13642162463E+04  0.89902250953E+03 0.  0.
         23    2    4    4    0    0  0.26465683826E+03  0.10491174964E+03 -0.58420117243E+02  0.30707346297E+03  0.99153841653E+02 0.  0.
         23    2    4    4    0    0  0.76979083050E+02 -0.30511182435E+03  0.10050189347E+04  0.10571427833E+04  0.92026085937E+02 0.  0.
          2    1    3    3  502    0 -0.28627843462E+03  0.19139622760E+03  0.73646252477E+03  0.81299748367E+03  0.00000000000E+00 0. -1.
         -1    1    3    3    0  502 -0.55357486685E+02  0.88038471048E+01  0.80363332962E+02  0.97980734538E+02  0.00000000000E+00 0.  1.
         11    1    5    5    0    0 -0.57958487008E+01  0.12854194980E+02  0.39717379370E+01  0.14649126015E+02  0.00000000000E+00 0. -1.
        -11    1    5    5    0    0  0.27045268696E+03  0.92057554661E+02 -0.62391855180E+02  0.29242433696E+03  0.00000000000E+00 0.  1.
          4    1    6    6  503    0  0.52505325498E+01 -0.21781665356E+02  0.18975801076E+03  0.19107619340E+03  0.00000000000E+00 0. -1.
         -4    1    6    6    0  503  0.71728550500E+02 -0.28333015899E+03  0.81526092398E+03  0.86606658989E+03  0.00000000000E+00 0.  1.
<mgrwt>
<rscale>  0 0.14376520E+04</rscale>
<asrwt>0</asrwt>
<pdfrwt beam="1">  1        2 0.31066300E+00 0.14376520E+04</pdfrwt>
<pdfrwt beam="2">  1       -1 0.39366908E-01 0.14376520E+04</pdfrwt>
<totfact> 0.45222390E+01</totfact>
</mgrwt>
</event>
<event>
12    6  0.1529770E-007  0.1377022E+04  0.7818608E-02  0.8970621E-01
          2   -1    0    0  501    0  0.00000000000E+00  0.00000000000E+00  0.14709484889E+04  0.14709484889E+04  0.00000000000E+00 0. -1.
         -1   -1    0    0    0  501 -0.00000000000E+00 -0.00000000000E+00 -0.32227340103E+03  0.32227340103E+03  0.00000000000E+00 0.  1.
         24    2    1    2    0    0  0.24328597878E+03  0.14087261352E+02 -0.65743820255E+02  0.26480448548E+03  0.80079006151E+02 0.  0.
        254    2    1    2    0    0 -0.24328597878E+03 -0.14087261352E+02  0.12144189081E+04  0.15284174044E+04  0.89546633627E+03 0.  0.
         23    2    4    4    0    0  0.21522526400E+03 -0.13788943113E+02  0.72295136387E+01  0.23382332757E+03  0.90050171766E+02 0.  0.
         23    2    4    4    0    0 -0.45851124277E+03 -0.29831823972E+00  0.12071893944E+04  0.12945940768E+04  0.91841934826E+02 0.  0.
          2    1    3    3  502    0  0.50765763344E+02 -0.30015164610E+02 -0.16858905071E+02  0.61337553869E+02  0.00000000000E+00 0. -1.
         -1    1    3    3    0  502  0.19252021543E+03  0.44102425962E+02 -0.48884915185E+02  0.20346693161E+03  0.00000000000E+00 0.  1.
         11    1    5    5    0    0  0.18542796537E+03 -0.43054859691E+02  0.16389071806E+02  0.19106504902E+03  0.00000000000E+00 0.  1.
        -11    1    5    5    0    0  0.29797298629E+02  0.29265916578E+02 -0.91595581673E+01  0.42758278550E+02  0.00000000000E+00 0. -1.
          4    1    6    6  503    0 -0.12893956032E+03 -0.38114033315E+02  0.30386455171E+03  0.33228264405E+03  0.00000000000E+00 0. -1.
         -4    1    6    6    0  503 -0.32957168246E+03  0.37815715075E+02  0.90332484272E+03  0.96231143278E+03  0.00000000000E+00 0.  1.
<mgrwt>
<rscale>  0 0.13770223E+04</rscale>
<asrwt>0</asrwt>
<pdfrwt beam="1">  1        2 0.22629976E+00 0.13770223E+04</pdfrwt>
<pdfrwt beam="2">  1       -1 0.49580524E-01 0.13770223E+04</pdfrwt>
<totfact> 0.59731125E+01</totfact>
</mgrwt>
</event>
<event>
12    6  0.1529770E-007  0.1636441E+04  0.7818608E-02  0.8798468E-01
          2   -1    0    0  501    0  0.00000000000E+00  0.00000000000E+00  0.13518518079E+04  0.13518518079E+04  0.00000000000E+00 0. -1.
         -1   -1    0    0    0  501 -0.00000000000E+00 -0.00000000000E+00 -0.49523541031E+03  0.49523541031E+03  0.00000000000E+00 0.  1.
         24    2    1    2    0    0 -0.32882736493E+03  0.66007368913E+02 -0.21718041924E+03  0.40740069206E+03  0.79520945134E+02 0.  0.
        254    2    1    2    0    0  0.32882736493E+03 -0.66007368913E+02  0.10737968168E+04  0.14396865261E+04  0.89842822810E+03 0.  0.
         23    2    4    4    0    0  0.52924114773E+03 -0.71381555038E+02  0.26831011904E+03  0.60451410347E+03  0.90859575585E+02 0.  0.
         23    2    4    4    0    0 -0.20041378280E+03  0.53741861256E+01  0.80548669774E+03  0.83517242263E+03  0.92247433939E+02 0.  0.
          4    1    3    3  502    0 -0.33281830473E+02 -0.15845456807E+02 -0.34233605458E+02  0.50306048182E+02  0.00000000000E+00 0. -1.
         -3    1    3    3    0  502 -0.29554553445E+03  0.81852825720E+02 -0.18294681378E+03  0.35709464388E+03  0.00000000000E+00 0.  1.
         11    1    5    5    0    0  0.16266726525E+03 -0.64006318031E+02  0.78037500875E+02  0.19143484394E+03  0.00000000000E+00 0.  1.
        -11    1    5    5    0    0  0.36657388248E+03 -0.73752370076E+01  0.19027261816E+03  0.41307925954E+03  0.00000000000E+00 0. -1.
          3    1    6    6  503    0 -0.49176618564E+02 -0.49245062967E+01  0.38572017929E+03  0.38887356208E+03  0.00000000000E+00 0.  1.
         -3    1    6    6    0  503 -0.15123716424E+03  0.10298692422E+02  0.41976651846E+03  0.44629886055E+03  0.00000000000E+00 0. -1.
<mgrwt>
<rscale>  0 0.16364411E+04</rscale>
<asrwt>0</asrwt>
<pdfrwt beam="1">  1        2 0.20797720E+00 0.16364411E+04</pdfrwt>
<pdfrwt beam="2">  1       -1 0.76190064E-01 0.16364411E+04</pdfrwt>
<totfact> 0.29081814E+01</totfact>
</mgrwt>
</event>
<event>
12    6  0.1529770E-007  0.1091630E+04  0.7818608E-02  0.9213388E-01
         -1   -1    0    0    0  501 -0.00000000000E+00  0.00000000000E+00  0.27372892165E+03  0.27372892165E+03  0.00000000000E+00 0.  1.
          2   -1    0    0  501    0  0.00000000000E+00 -0.00000000000E+00 -0.10883545260E+04  0.10883545260E+04  0.00000000000E+00 0. -1.
         24    2    1    2    0    0  0.85227853900E+02 -0.24542280030E+01 -0.26913691441E+03  0.29550119986E+03  0.87272390268E+02 0.  0.
        254    2    1    2    0    0 -0.85227853900E+02  0.24542280030E+01 -0.54548868993E+03  0.10665822478E+04  0.91256231028E+03 0.  0.
         23    2    4    4    0    0 -0.25103216393E+03 -0.17862166793E+03  0.12595715480E+03  0.34496819788E+03  0.90636665440E+02 0.  0.
         23    2    4    4    0    0  0.16580431003E+03  0.18107589593E+03 -0.67144584473E+03  0.72161404991E+03  0.98019208888E+02 0.  0.
          2    1    3    3  502    0  0.74638298722E+02  0.35444615275E+02 -0.17912296145E+03  0.19726183541E+03  0.00000000000E+00 0. -1.
         -1    1    3    3    0  502  0.10589555178E+02 -0.37898843278E+02 -0.90013952955E+02  0.98239364448E+02  0.00000000000E+00 0.  1.
         11    1    5    5    0    0 -0.23249516209E+03 -0.13478126034E+03  0.84117410514E+02  0.28159497027E+03  0.00000000000E+00 0.  1.
        -11    1    5    5    0    0 -0.18537001841E+02 -0.43840407594E+02  0.41839744287E+02  0.63373227606E+02  0.00000000000E+00 0. -1.
          4    1    6    6  503    0  0.61861582338E+02  0.19019593355E+02 -0.25057583612E+03  0.25879886002E+03  0.00000000000E+00 0. -1.
         -4    1    6    6    0  503  0.10394272769E+03  0.16205630258E+03 -0.42087000861E+03  0.46281518989E+03  0.00000000000E+00 0.  1.
<mgrwt>
<rscale>  0 0.10916302E+04</rscale>
<asrwt>0</asrwt>
<pdfrwt beam="1">  1        2 0.16743916E+00 0.10916302E+04</pdfrwt>
<pdfrwt beam="2">  1       -1 0.42112142E-01 0.10916302E+04</pdfrwt>
<totfact> 0.13889234E+02</totfact>
</mgrwt>
</event>
<event>
12    6  0.1529770E-007  0.1597007E+04  0.7818608E-02  0.8822389E-01
         -1   -1    0    0    0  501 -0.00000000000E+00  0.00000000000E+00  0.41535831587E+03  0.41535831587E+03  0.00000000000E+00 0.  1.
          2   -1    0    0  501    0  0.00000000000E+00 -0.00000000000E+00 -0.15350781484E+04  0.15350781484E+04  0.00000000000E+00 0. -1.
         24    2    1    2    0    0 -0.25387065845E+02  0.53937475008E+03 -0.39799745617E+03  0.67603641838E+03  0.83985949547E+02 0.  0.
        254    2    1    2    0    0  0.25387065845E+02 -0.53937475008E+03 -0.72172237636E+03  0.12744000459E+04  0.90091212906E+03 0.  0.
         23    2    4    4    0    0  0.45184812926E+03 -0.25145402479E+03 -0.39177045976E+03  0.65519372602E+03  0.91645332550E+02 0.  0.
         23    2    4    4    0    0 -0.42646106342E+03 -0.28792072530E+03 -0.32995191660E+03  0.61920631987E+03  0.98898011258E+02 0.  0.
          4    1    3    3  502    0 -0.17573375759E+02  0.12778056805E+03 -0.13923231881E+03  0.18979551024E+03  0.00000000000E+00 0. -1.
         -3    1    3    3    0  502 -0.78136900856E+01  0.41159418203E+03 -0.25876513736E+03  0.48624090814E+03  0.00000000000E+00 0.  1.
         11    1    5    5    0    0  0.17275596058E+03 -0.63244017766E+02 -0.18069991461E+03  0.25786990294E+03  0.00000000000E+00 0.  1.
        -11    1    5    5    0    0  0.27909216868E+03 -0.18821000702E+03 -0.21107054514E+03  0.39732382308E+03  0.00000000000E+00 0. -1.
          2    1    6    6  503    0 -0.36447331667E+03 -0.20115177111E+03 -0.27801185817E+03  0.50059307513E+03  0.00000000000E+00 0. -1.
         -2    1    6    6    0  503 -0.61987746746E+02 -0.86768954189E+02 -0.51940058431E+02  0.11861324474E+03  0.00000000000E+00 0.  1.
<mgrwt>
<rscale>  0 0.15970065E+04</rscale>
<asrwt>0</asrwt>
<pdfrwt beam="1">  1        2 0.23616587E+00 0.15970065E+04</pdfrwt>
<pdfrwt beam="2">  1       -1 0.63901280E-01 0.15970065E+04</pdfrwt>
<totfact> 0.32918983E+01</totfact>
</mgrwt>
</event>
<event>
12    6  0.1529770E-007  0.1406040E+04  0.7818608E-02  0.8949458E-01
          2   -1    0    0  501    0  0.00000000000E+00  0.00000000000E+00  0.31518971703E+03  0.31518971703E+03  0.00000000000E+00 0. -1.
         -1   -1    0    0    0  501 -0.00000000000E+00 -0.00000000000E+00 -0.15680617338E+04  0.15680617338E+04  0.00000000000E+00 0.  1.
         24    2    1    2    0    0 -0.21787370663E+03  0.11005819910E+03 -0.81515824645E+03  0.85681359467E+03  0.10032352676E+03 0.  0.
        254    2    1    2    0    0  0.21787370663E+03 -0.11005819910E+03 -0.43771377031E+03  0.10264378562E+04  0.89576758626E+03 0.  0.
         23    2    4    4    0    0  0.37967132730E+03 -0.41548710303E+03 -0.27578608455E+03  0.63324366277E+03  0.90331182041E+02 0.  0.
         23    2    4    4    0    0 -0.16179762067E+03  0.30542890393E+03 -0.16192768575E+03  0.39319419338E+03  0.94423582248E+02 0.  0.
          2    1    3    3  502    0 -0.44943718338E+02 -0.15816050901E+02 -0.10863987800E+03  0.11862844674E+03  0.00000000000E+00 0. -1.
         -1    1    3    3    0  502 -0.17292998830E+03  0.12587425000E+03 -0.70651836845E+03  0.73818514793E+03  0.00000000000E+00 0.  1.
         11    1    5    5    0    0  0.25877673821E+03 -0.30683628264E+03 -0.15310381552E+03  0.42959828085E+03  0.00000000000E+00 0. -1.
        -11    1    5    5    0    0  0.12089458909E+03 -0.10865082039E+03 -0.12268226904E+03  0.20364538193E+03  0.00000000000E+00 0.  1.
          2    1    6    6  503    0 -0.25432761866E+02  0.14314465793E+03 -0.79985828967E+02  0.16593658820E+03  0.00000000000E+00 0. -1.
         -2    1    6    6    0  503 -0.13636485880E+03  0.16228424600E+03 -0.81941856786E+02  0.22725760518E+03  0.00000000000E+00 0.  1.
<mgrwt>
<rscale>  0 0.14060397E+04</rscale>
<asrwt>0</asrwt>
<pdfrwt beam="1">  1        2 0.48490725E-01 0.14060397E+04</pdfrwt>
<pdfrwt beam="2">  1       -1 0.24124027E+00 0.14060397E+04</pdfrwt>
<totfact> 0.92165524E+00</totfact>
</mgrwt>
</event>
<event>
12    6  0.1529770E-007  0.1617359E+04  0.7818608E-02  0.8809954E-01
          2   -1    0    0  501    0  0.00000000000E+00  0.00000000000E+00  0.46107963859E+04  0.46107963859E+04  0.00000000000E+00 0. -1.
         -1   -1    0    0    0  501 -0.00000000000E+00 -0.00000000000E+00 -0.14183290684E+03  0.14183290684E+03  0.00000000000E+00 0.  1.
         24    2    1    2    0    0 -0.25211831476E+03  0.19549014028E+03  0.21890253147E+03  0.39733218962E+03  0.90413002605E+02 0.  0.
        254    2    1    2    0    0  0.25211831476E+03 -0.19549014028E+03  0.42500609476E+04  0.43552971031E+04  0.89655716978E+03 0.  0.
         23    2    4    4    0    0  0.26462201352E+02 -0.47699457347E+03  0.32863777200E+04  0.33221676480E+04  0.91078490854E+02 0.  0.
         23    2    4    4    0    0  0.22565611341E+03  0.28150443319E+03  0.96368322757E+03  0.10331294551E+04  0.92226246511E+02 0.  0.
          4    1    3    3  502    0 -0.88781601024E+02  0.94912965531E+02  0.13676396902E+03  0.18866644357E+03  0.00000000000E+00 0. -1.
         -3    1    3    3    0  502 -0.16333671374E+03  0.10057717475E+03  0.82138562456E+02  0.20866574606E+03  0.00000000000E+00 0.  1.
         11    1    5    5    0    0 -0.28755057813E+01 -0.10264142449E+03  0.48616473504E+03  0.49689000810E+03  0.00000000000E+00 0. -1.
        -11    1    5    5    0    0  0.29337707133E+02 -0.37435314898E+03  0.28002129850E+04  0.28252776399E+04  0.00000000000E+00 0.  1.
          2    1    6    6  503    0  0.78777488769E+02  0.17193793895E+03  0.48458413487E+03  0.52018297873E+03  0.00000000000E+00 0. -1.
         -2    1    6    6    0  503  0.14687862464E+03  0.10956649424E+03  0.47909909270E+03  0.51294647641E+03  0.00000000000E+00 0.  1.
<mgrwt>
<rscale>  0 0.16173591E+04</rscale>
<asrwt>0</asrwt>
<pdfrwt beam="1">  1        2 0.70935317E+00 0.16173591E+04</pdfrwt>
<pdfrwt beam="2">  1       -1 0.21820451E-01 0.16173591E+04</pdfrwt>
<totfact> 0.18955693E+00</totfact>
</mgrwt>
</event>
<event>
12    6  0.1529770E-007  0.1764212E+04  0.7818608E-02  0.8725566E-01
         -1   -1    0    0    0  501 -0.00000000000E+00  0.00000000000E+00  0.86890577264E+03  0.86890577264E+03  0.00000000000E+00 0.  1.
          2   -1    0    0  501    0  0.00000000000E+00 -0.00000000000E+00 -0.89550720988E+03  0.89550720988E+03  0.00000000000E+00 0. -1.
         24    2    1    2    0    0 -0.40411206768E+03 -0.10771041331E+03 -0.50051255298E+03  0.65759884443E+03  0.83757555587E+02 0.  0.
        254    2    1    2    0    0  0.40411206768E+03  0.10771041331E+03  0.47391111574E+03  0.11068141381E+04  0.90859104898E+03 0.  0.
         23    2    4    4    0    0  0.44149827763E+03  0.44682012079E+03  0.21987593109E+03  0.67155168145E+03  0.89818073340E+02 0.  0.
         23    2    4    4    0    0 -0.37386209948E+02 -0.33910970748E+03  0.25403518465E+03  0.43526245664E+03  0.92338554870E+02 0.  0.
          2    1    3    3  502    0 -0.31622448104E+03 -0.11339114094E+03 -0.42384196474E+03  0.54083036557E+03  0.00000000000E+00 0. -1.
         -1    1    3    3    0  502 -0.87887586640E+02  0.56807276330E+01 -0.76670588244E+02  0.11676847885E+03  0.00000000000E+00 0.  1.
         11    1    5    5    0    0  0.20772714995E+03  0.22463478682E+03  0.15338599768E+03  0.34225519800E+03  0.00000000000E+00 0. -1.
        -11    1    5    5    0    0  0.23377112767E+03  0.22218533398E+03  0.66489933406E+02  0.32929648345E+03  0.00000000000E+00 0.  1.
          3    1    6    6  503    0 -0.20049741562E+02 -0.11867008149E+03  0.38207988545E+02  0.12627125867E+03  0.00000000000E+00 0. -1.
         -3    1    6    6    0  503 -0.17336468386E+02 -0.22043962600E+03  0.21582719610E+03  0.30899119797E+03  0.00000000000E+00 0.  1.
<mgrwt>
<rscale>  0 0.17642124E+04</rscale>
<asrwt>0</asrwt>
<pdfrwt beam="1">  1        2 0.13777034E+00 0.17642124E+04</pdfrwt>
<pdfrwt beam="2">  1       -1 0.13367781E+00 0.17642124E+04</pdfrwt>
<totfact> 0.15073472E+01</totfact>
</mgrwt>
</event>
<event>
12    6  0.1529770E-007  0.2080858E+04  0.7818608E-02  0.8569723E-01
         -1   -1    0    0    0  501 -0.00000000000E+00  0.00000000000E+00  0.50349383509E+03  0.50349383509E+03  0.00000000000E+00 0.  1.
          2   -1    0    0  501    0  0.00000000000E+00 -0.00000000000E+00 -0.21499617933E+04  0.21499617933E+04  0.00000000000E+00 0. -1.
         24    2    1    2    0    0  0.42320614210E+03 -0.47224829144E+03  0.40912592657E+02  0.64064794457E+03  0.81449746215E+02 0.  0.
        254    2    1    2    0    0 -0.42320614210E+03  0.47224829144E+03 -0.16873805509E+04  0.20128076839E+04  0.89555556006E+03 0.  0.
         23    2    4    4    0    0 -0.40858744160E+03  0.65293959840E+02 -0.14936525500E+04  0.15525725722E+04  0.90976114090E+02 0.  0.
         23    2    4    4    0    0 -0.14618700501E+02  0.40695433160E+03 -0.19372800096E+03  0.46023511167E+03  0.91979808895E+02 0.  0.
          4    1    3    3  502    0 -0.39190791682E+00 -0.45030047843E+01 -0.63933560910E+01  0.78297922073E+01  0.00000000000E+00 0. -1.
         -3    1    3    3    0  502  0.42359805002E+03 -0.46774528666E+03  0.47305948748E+02  0.63281815236E+03  0.00000000000E+00 0.  1.
         11    1    5    5    0    0 -0.24478364408E+03  0.12076354262E+01 -0.77681499149E+03  0.81447039344E+03  0.00000000000E+00 0.  1.
        -11    1    5    5    0    0 -0.16380379752E+03  0.64086324414E+02 -0.71683755846E+03  0.73810217875E+03  0.00000000000E+00 0. -1.
          3    1    6    6  503    0 -0.40155990070E+02  0.95711646325E+02 -0.32378205358E+02  0.10872704798E+03  0.00000000000E+00 0. -1.
         -3    1    6    6    0  503  0.25537289569E+02  0.31124268528E+03 -0.16134979561E+03  0.35150806369E+03  0.00000000000E+00 0.  1.
<mgrwt>
<rscale>  0 0.20808580E+04</rscale>
<asrwt>0</asrwt>
<pdfrwt beam="1">  1        2 0.33076335E+00 0.20808580E+04</pdfrwt>
<pdfrwt beam="2">  1       -1 0.77460591E-01 0.20808580E+04</pdfrwt>
<totfact> 0.96689071E+00</totfact>
</mgrwt>
</event>
<event>
12    6  0.1529770E-007  0.2390226E+04  0.7818608E-02  0.8443172E-01
         -1   -1    0    0    0  501 -0.00000000000E+00  0.00000000000E+00  0.82980266863E+03  0.82980266863E+03  0.00000000000E+00 0.  1.
          2   -1    0    0  501    0  0.00000000000E+00 -0.00000000000E+00 -0.17212468874E+04  0.17212468874E+04  0.00000000000E+00 0. -1.
         24    2    1    2    0    0 -0.50549180513E+03  0.19324014106E+03  0.54477363231E+03  0.77195503601E+03  0.79199431834E+02 0.  0.
        254    2    1    2    0    0  0.50549180513E+03 -0.19324014106E+03 -0.14362178510E+04  0.17790945200E+04  0.89977323711E+03 0.  0.
         23    2    4    4    0    0 -0.18006237463E+03 -0.28748540448E+03 -0.44423529603E+03  0.56631132392E+03  0.91067012787E+02 0.  0.
         23    2    4    4    0    0  0.68555417976E+03  0.94245263422E+02 -0.99198255502E+03  0.12127831961E+04  0.89145881189E+02 0.  0.
          2    1    3    3  502    0 -0.61051517565E+02  0.27351858094E+02  0.10843290379E+03  0.12740920910E+03  0.00000000000E+00 0. -1.
         -1    1    3    3    0  502 -0.44444028756E+03  0.16588828297E+03  0.43634072851E+03  0.64454582691E+03  0.00000000000E+00 0.  1.
         11    1    5    5    0    0 -0.11766415920E+03 -0.20734657176E+03 -0.37137930816E+03  0.44131626495E+03  0.00000000000E+00 0. -1.
        -11    1    5    5    0    0 -0.62398215433E+02 -0.80138832721E+02 -0.72855987867E+02  0.12499505897E+03  0.00000000000E+00 0.  1.
          4    1    6    6  503    0  0.33260756046E+03  0.66413581884E+01 -0.43578538633E+03  0.54825249644E+03  0.00000000000E+00 0. -1.
         -4    1    6    6    0  503  0.35294661930E+03  0.87603905233E+02 -0.55619716869E+03  0.66453069963E+03  0.00000000000E+00 0.  1.
<mgrwt>
<rscale>  0 0.23902261E+04</rscale>
<asrwt>0</asrwt>
<pdfrwt beam="1">  1        2 0.26480721E+00 0.23902261E+04</pdfrwt>
<pdfrwt beam="2">  1       -1 0.12766195E+00 0.23902261E+04</pdfrwt>
<totfact> 0.51913720E+00</totfact>
</mgrwt>
</event>
<event>
12    6  0.1529770E-007  0.1553145E+04  0.7818608E-02  0.8849862E-01
         -1   -1    0    0    0  501 -0.00000000000E+00  0.00000000000E+00  0.35133127582E+03  0.35133127582E+03  0.00000000000E+00 0.  1.
          2   -1    0    0  501    0  0.00000000000E+00 -0.00000000000E+00 -0.17165123245E+04  0.17165123245E+04  0.00000000000E+00 0. -1.
         24    2    1    2    0    0 -0.36927007141E+03 -0.15468943121E+03 -0.25837149302E+02  0.40935818242E+03  0.81347141694E+02 0.  0.
        254    2    1    2    0    0  0.36927007141E+03  0.15468943121E+03 -0.13393438994E+04  0.16584854179E+04  0.89243632537E+03 0.  0.
         23    2    4    4    0    0  0.30773942088E+03 -0.29685340785E+03 -0.33095047462E+03  0.54808232310E+03  0.89668942925E+02 0.  0.
         23    2    4    4    0    0  0.61530650526E+02  0.45154283906E+03 -0.10083934247E+04  0.11104030948E+04  0.91982484260E+02 0.  0.
          4    1    3    3  502    0 -0.91834833212E+02 -0.66727881454E+02 -0.33024676366E+02  0.11822383856E+03  0.00000000000E+00 0. -1.
         -3    1    3    3    0  502 -0.27743523820E+03 -0.87961549753E+02  0.71875270641E+01  0.29113434386E+03  0.00000000000E+00 0.  1.
         11    1    5    5    0    0  0.18414339039E+02 -0.36227122894E+01  0.13583701187E+01  0.18816404969E+02  0.00000000000E+00 0. -1.
        -11    1    5    5    0    0  0.28932508184E+03 -0.29323069556E+03 -0.33230884474E+03  0.52926591813E+03  0.00000000000E+00 0.  1.
          3    1    6    6  503    0  0.18067670939E+02  0.22190803345E+03 -0.59838415398E+03  0.63846159773E+03  0.00000000000E+00 0.  1.
         -3    1    6    6    0  503  0.43462979586E+02  0.22963480561E+03 -0.41000927077E+03  0.47194149707E+03  0.00000000000E+00 0. -1.
<mgrwt>
<rscale>  0 0.15531445E+04</rscale>
<asrwt>0</asrwt>
<pdfrwt beam="1">  1        2 0.26407882E+00 0.15531445E+04</pdfrwt>
<pdfrwt beam="2">  1       -1 0.54050965E-01 0.15531445E+04</pdfrwt>
<totfact> 0.36376128E+01</totfact>
</mgrwt>
</event>
<event>
12    6  0.1529770E-007  0.1959719E+04  0.7818608E-02  0.8625689E-01
         -1   -1    0    0    0  501 -0.00000000000E+00  0.00000000000E+00  0.45263765692E+03  0.45263765692E+03  0.00000000000E+00 0.  1.
          2   -1    0    0  501    0  0.00000000000E+00 -0.00000000000E+00 -0.21211763456E+04  0.21211763456E+04  0.00000000000E+00 0. -1.
         24    2    1    2    0    0 -0.23594455041E+02  0.67957279684E+03 -0.18228371497E+03  0.70866556923E+03  0.81262855951E+02 0.  0.
        254    2    1    2    0    0  0.23594455041E+02 -0.67957279684E+03 -0.14862549737E+04  0.18651484333E+04  0.89858163056E+03 0.  0.
         23    2    4    4    0    0 -0.18368219630E+03 -0.48558094548E+03 -0.14765197564E+04  0.15677481131E+04  0.90529282900E+02 0.  0.
         23    2    4    4    0    0  0.20727665134E+03 -0.19399185136E+03 -0.97352172557E+01  0.29740032019E+03  0.88066607798E+02 0.  0.
          4    1    3    3  502    0  0.17390132632E+02  0.41897256564E+02 -0.56700184876E+01  0.45715926440E+02  0.00000000000E+00 0. -1.
         -3    1    3    3    0  502 -0.40984587673E+02  0.63767554027E+03 -0.17661369649E+03  0.66294964279E+03  0.00000000000E+00 0.  1.
         11    1    5    5    0    0 -0.11325913633E+03 -0.21238459056E+03 -0.58255424220E+03  0.63032078450E+03  0.00000000000E+00 0. -1.
        -11    1    5    5    0    0 -0.70423059962E+02 -0.27319635492E+03 -0.89396551422E+03  0.93742732856E+03  0.00000000000E+00 0.  1.
          4    1    6    6  503    0  0.19214020486E+03 -0.13312339775E+03  0.10720397655E+01  0.23375381627E+03  0.00000000000E+00 0. -1.
         -4    1    6    6    0  503  0.15136446481E+02 -0.60868453609E+02 -0.10807257021E+02  0.63646503920E+02  0.00000000000E+00 0.  1.
<mgrwt>
<rscale>  0 0.19597186E+04</rscale>
<asrwt>0</asrwt>
<pdfrwt beam="1">  1        2 0.32633483E+00 0.19597186E+04</pdfrwt>
<pdfrwt beam="2">  1       -1 0.69636561E-01 0.19597186E+04</pdfrwt>
<totfact> 0.12654050E+01</totfact>
</mgrwt>
</event>
<event>
12    6  0.1529770E-007  0.3119658E+04  0.7818608E-02  0.8210364E-01
         -1   -1    0    0    0  501 -0.00000000000E+00  0.00000000000E+00  0.16280422185E+04  0.16280422185E+04  0.00000000000E+00 0.  1.
          2   -1    0    0  501    0  0.00000000000E+00 -0.00000000000E+00 -0.14944739440E+04  0.14944739440E+04  0.00000000000E+00 0. -1.
         24    2    1    2    0    0 -0.89715051274E+03 -0.34428527744E+03  0.11172526923E+04  0.14756820219E+04  0.77281670575E+02 0.  0.
        254    2    1    2    0    0  0.89715051274E+03  0.34428527744E+03 -0.98368441779E+03  0.16468341405E+04  0.90609947458E+03 0.  0.
         23    2    4    4    0    0  0.15457278156E+03  0.50076191116E+03 -0.25649696929E+03  0.59151029087E+03  0.97151904186E+02 0.  0.
         23    2    4    4    0    0  0.74257773118E+03 -0.15647663372E+03 -0.72718744850E+03  0.10553238497E+04  0.94869482192E+02 0.  0.
          2    1    3    3  502    0 -0.36467340007E+03 -0.17813555605E+03  0.44982559416E+03  0.60585644357E+03  0.00000000000E+00 0. -1.
         -1    1    3    3    0  502 -0.53247711267E+03 -0.16614972138E+03  0.66742709814E+03  0.86982557836E+03  0.00000000000E+00 0.  1.
         11    1    5    5    0    0  0.14086923839E+03  0.29673673068E+03 -0.16173556482E+03  0.36613552488E+03  0.00000000000E+00 0. -1.
        -11    1    5    5    0    0  0.13703543174E+02  0.20402518048E+03 -0.94761404472E+02  0.22537476599E+03  0.00000000000E+00 0.  1.
          4    1    6    6  503    0  0.44157278582E+03 -0.13236142817E+03 -0.47477911908E+03  0.66175621248E+03  0.00000000000E+00 0. -1.
         -4    1    6    6    0  503  0.30100494536E+03 -0.24115205550E+02 -0.25240832942E+03  0.39356763717E+03  0.00000000000E+00 0.  1.
<mgrwt>
<rscale>  0 0.31196581E+04</rscale>
<asrwt>0</asrwt>
<pdfrwt beam="1">  1        2 0.22991907E+00 0.31196581E+04</pdfrwt>
<pdfrwt beam="2">  1       -1 0.25046803E+00 0.31196581E+04</pdfrwt>
<totfact> 0.85425182E-01</totfact>
</mgrwt>
</event>
<event>
12    6  0.1529770E-007  0.2062359E+04  0.7818608E-02  0.8578008E-01
         -1   -1    0    0    0  501 -0.00000000000E+00  0.00000000000E+00  0.48205772964E+03  0.48205772964E+03  0.00000000000E+00 0.  1.
          2   -1    0    0  501    0  0.00000000000E+00 -0.00000000000E+00 -0.22058172904E+04  0.22058172904E+04  0.00000000000E+00 0. -1.
         24    2    1    2    0    0 -0.50129606888E+03 -0.61193456851E+03 -0.36690406896E+03  0.87561763174E+03  0.79536006836E+02 0.  0.
        254    2    1    2    0    0  0.50129606888E+03  0.61193456851E+03 -0.13568554918E+04  0.18122573883E+04  0.90413403377E+03 0.  0.
         23    2    4    4    0    0 -0.44196733633E+02  0.22749650403E+03  0.48929257868E+02  0.25350055591E+03  0.90335203319E+02 0.  0.
         23    2    4    4    0    0  0.54549280251E+03  0.38443806447E+03 -0.14057847496E+04  0.15587568324E+04  0.90205749029E+02 0.  0.
          4    1    3    3  502    0 -0.45159055706E+02 -0.92422598611E+02 -0.61270975807E+02  0.11973057054E+03  0.00000000000E+00 0. -1.
         -3    1    3    3    0  502 -0.45613701317E+03 -0.51951196989E+03 -0.30563309316E+03  0.75588706119E+03  0.00000000000E+00 0.  1.
         11    1    5    5    0    0  0.26768825933E+02  0.39193469475E+02  0.11119368153E+02  0.48747701889E+02  0.00000000000E+00 0. -1.
        -11    1    5    5    0    0 -0.70965559567E+02  0.18830303456E+03  0.37809889715E+02  0.20475285402E+03  0.00000000000E+00 0.  1.
          2    1    6    6  503    0  0.15555539664E+03  0.15463474149E+03 -0.41174729303E+03  0.46652461673E+03  0.00000000000E+00 0. -1.
         -2    1    6    6    0  503  0.38993740586E+03  0.22980332298E+03 -0.99403745659E+03  0.10922322156E+04  0.00000000000E+00 0.  1.
<mgrwt>
<rscale>  0 0.20623591E+04</rscale>
<asrwt>0</asrwt>
<pdfrwt beam="1">  1        2 0.33935650E+00 0.20623591E+04</pdfrwt>
<pdfrwt beam="2">  1       -1 0.74162728E-01 0.20623591E+04</pdfrwt>
<totfact> 0.98708729E+00</totfact>
</mgrwt>
</event>
<event>
12    6  0.1529770E-007  0.1445687E+04  0.7818608E-02  0.8921396E-01
          2   -1    0    0  501    0  0.00000000000E+00  0.00000000000E+00  0.23117910678E+04  0.23117910678E+04  0.00000000000E+00 0. -1.
         -1   -1    0    0    0  501 -0.00000000000E+00 -0.00000000000E+00 -0.22601636966E+03  0.22601636966E+03  0.00000000000E+00 0.  1.
         24    2    1    2    0    0  0.15342150757E+03 -0.13631875443E+03  0.13116731686E+04  0.13300276272E+04  0.79787379692E+02 0.  0.
        254    2    1    2    0    0 -0.15342150757E+03  0.13631875443E+03  0.77410152952E+03  0.12077798103E+04  0.90408955880E+03 0.  0.
         23    2    4    4    0    0 -0.14996552987E+03 -0.58850324825E+02  0.92578542669E+03  0.94407772751E+03  0.90835447005E+02 0.  0.
         23    2    4    4    0    0 -0.34559776921E+01  0.19516907925E+03 -0.15168389718E+03  0.26370208277E+03  0.91803434111E+02 0.  0.
          2    1    3    3  502    0  0.14506720735E+03 -0.14436225150E+03  0.12808026740E+04  0.12970506714E+04  0.00000000000E+00 0. -1.
         -1    1    3    3    0  502  0.83543002194E+01  0.80434970730E+01  0.30870494609E+02  0.32976955813E+02  0.00000000000E+00 0.  1.
         11    1    5    5    0    0 -0.10211075871E+03  0.71591879348E+01  0.56466220985E+03  0.57386520391E+03  0.00000000000E+00 0. -1.
        -11    1    5    5    0    0 -0.47854771160E+02 -0.66009512760E+02  0.36112321684E+03  0.37021252361E+03  0.00000000000E+00 0.  1.
          3    1    6    6  503    0 -0.12356273008E+02  0.20246330301E+03 -0.14952076791E+03  0.25199310821E+03  0.00000000000E+00 0. -1.
         -3    1    6    6    0  503  0.89002953163E+01 -0.72942237574E+01 -0.21631292639E+01  0.11708974556E+02  0.00000000000E+00 0.  1.
<mgrwt>
<rscale>  0 0.14456869E+04</rscale>
<asrwt>0</asrwt>
<pdfrwt beam="1">  1        2 0.35566015E+00 0.14456869E+04</pdfrwt>
<pdfrwt beam="2">  1       -1 0.34771751E-01 0.14456869E+04</pdfrwt>
<totfact> 0.38802044E+01</totfact>
</mgrwt>
</event>
<event>
12    6  0.1529770E-007  0.1463234E+04  0.7818608E-02  0.8909277E-01
         -1   -1    0    0    0  501 -0.00000000000E+00  0.00000000000E+00  0.68379313592E+03  0.68379313592E+03  0.00000000000E+00 0.  1.
          2   -1    0    0  501    0  0.00000000000E+00 -0.00000000000E+00 -0.78278548761E+03  0.78278548761E+03  0.00000000000E+00 0. -1.
         24    2    1    2    0    0 -0.27323204106E+03  0.10498853659E+03 -0.37021317817E+03  0.47859584073E+03  0.79484843782E+02 0.  0.
        254    2    1    2    0    0  0.27323204106E+03 -0.10498853659E+03  0.27122082649E+03  0.98798278280E+03  0.90380910668E+03 0.  0.
         23    2    4    4    0    0  0.26600652848E+03  0.91472566363E+02 -0.27310123306E+03  0.40251838332E+03  0.91159540460E+02 0.  0.
         23    2    4    4    0    0  0.72255125763E+01 -0.19646110296E+03  0.54432205955E+03  0.58546439948E+03  0.88503590558E+02 0.  0.
          2    1    3    3  502    0 -0.13304645887E+03  0.24574484162E+02 -0.12067184478E+03  0.18129246982E+03  0.00000000000E+00 0. -1.
         -1    1    3    3    0  502 -0.14018558219E+03  0.80414052430E+02 -0.24954133340E+03  0.29730337091E+03  0.00000000000E+00 0.  1.
         11    1    5    5    0    0  0.24520737845E+03  0.64447686923E+02 -0.20383894960E+03  0.32531596974E+03  0.00000000000E+00 0. -1.
        -11    1    5    5    0    0  0.20799150028E+02  0.27024879439E+02 -0.69262283469E+02  0.77202413576E+02  0.00000000000E+00 0.  1.
          3    1    6    6  503    0 -0.84916192847E+01 -0.14621641954E+03  0.48262386383E+03  0.50435814942E+03  0.00000000000E+00 0. -1.
         -3    1    6    6    0  503  0.15717131861E+02 -0.50244683410E+02  0.61698195721E+02  0.81106250068E+02  0.00000000000E+00 0.  1.
<mgrwt>
<rscale>  0 0.14632339E+04</rscale>
<asrwt>0</asrwt>
<pdfrwt beam="1">  1        2 0.12042854E+00 0.14632339E+04</pdfrwt>
<pdfrwt beam="2">  1       -1 0.10519894E+00 0.14632339E+04</pdfrwt>
<totfact> 0.33256553E+01</totfact>
</mgrwt>
</event>
<event>
12    6  0.1529770E-007  0.2087147E+04  0.7818608E-02  0.8566926E-01
          2   -1    0    0  501    0  0.00000000000E+00  0.00000000000E+00  0.14944473937E+04  0.14944473937E+04  0.00000000000E+00 0. -1.
         -1   -1    0    0    0  501 -0.00000000000E+00 -0.00000000000E+00 -0.72872812230E+03  0.72872812230E+03  0.00000000000E+00 0.  1.
         24    2    1    2    0    0  0.68086001892E+03 -0.49525918533E+03  0.23116485523E+03  0.87773606652E+03  0.90174199043E+02 0.  0.
        254    2    1    2    0    0 -0.68086001892E+03  0.49525918533E+03  0.53455441617E+03  0.13454394495E+04  0.90310955168E+03 0.  0.
         23    2    4    4    0    0  0.15339553253E+03  0.31124786278E+03  0.26150776006E+03  0.44404818247E+03  0.91580883886E+02 0.  0.
         23    2    4    4    0    0 -0.83425555145E+03  0.18401132255E+03  0.27304665611E+03  0.90139126700E+03  0.90051362398E+02 0.  0.
          2    1    3    3  502    0  0.25255511404E+03 -0.17063200949E+03  0.40417719532E+02  0.30746212830E+03  0.00000000000E+00 0. -1.
         -1    1    3    3    0  502  0.42830490488E+03 -0.32462717584E+03  0.19074713570E+03  0.57027393822E+03  0.00000000000E+00 0.  1.
         11    1    5    5    0    0  0.42367989993E+02  0.32283069898E+02  0.69858073655E+02  0.87848697389E+02  0.00000000000E+00 0. -1.
        -11    1    5    5    0    0  0.11102754254E+03  0.27896479288E+03  0.19164968641E+03  0.35619948508E+03  0.00000000000E+00 0.  1.
          3    1    6    6  503    0 -0.27144843457E+03  0.92412279346E+02  0.12117833955E+03  0.31130125599E+03  0.00000000000E+00 0. -1.
         -3    1    6    6    0  503 -0.56280711688E+03  0.91599043200E+02  0.15186831656E+03  0.59009001101E+03  0.00000000000E+00 0.  1.
<mgrwt>
<rscale>  0 0.20871472E+04</rscale>
<asrwt>0</asrwt>
<pdfrwt beam="1">  1        2 0.22991498E+00 0.20871472E+04</pdfrwt>
<pdfrwt beam="2">  1       -1 0.11211202E+00 0.20871472E+04</pdfrwt>
<totfact> 0.98033045E+00</totfact>
</mgrwt>
</event>
<event>
12    6  0.1529770E-007  0.1977656E+04  0.7818608E-02  0.8617139E-01
         -1   -1    0    0    0  501 -0.00000000000E+00  0.00000000000E+00  0.43040511772E+03  0.43040511772E+03  0.00000000000E+00 0.  1.
          2   -1    0    0  501    0  0.00000000000E+00 -0.00000000000E+00 -0.22717692308E+04  0.22717692308E+04  0.00000000000E+00 0. -1.
         24    2    1    2    0    0 -0.57193875317E+03  0.51013803284E+03 -0.51204848603E+03  0.92554076353E+03  0.84126707889E+02 0.  0.
        254    2    1    2    0    0  0.57193875317E+03 -0.51013803284E+03 -0.13293156270E+04  0.17766335850E+04  0.89554012140E+03 0.  0.
         23    2    4    4    0    0  0.63602436536E+03 -0.66331737328E+03 -0.12849084416E+04  0.15823245437E+04  0.90798277315E+02 0.  0.
         23    2    4    4    0    0 -0.64085612189E+02  0.15317934044E+03 -0.44407185429E+02  0.19430904130E+03  0.90626317288E+02 0.  0.
          4    1    3    3  502    0 -0.32584889117E+03  0.31703898651E+03 -0.25927022547E+03  0.52336628537E+03  0.00000000000E+00 0. -1.
         -3    1    3    3    0  502 -0.24608986200E+03  0.19309904633E+03 -0.25277826056E+03  0.40217447816E+03  0.00000000000E+00 0.  1.
         11    1    5    5    0    0  0.21137725054E+03 -0.25850934683E+03 -0.52681016996E+03  0.62372780892E+03  0.00000000000E+00 0. -1.
        -11    1    5    5    0    0  0.42464711482E+03 -0.40480802645E+03 -0.75809827163E+03  0.95859673474E+03  0.00000000000E+00 0.  1.
          1    1    6    6  503    0  0.21896787374E+02  0.47392871318E+02 -0.52252618577E+01  0.52467674911E+02  0.00000000000E+00 0. -1.
         -1    1    6    6    0  503 -0.85982399563E+02  0.10578646912E+03 -0.39181923571E+02  0.14184136639E+03  0.00000000000E+00 0.  1.
<mgrwt>
<rscale>  0 0.19776563E+04</rscale>
<asrwt>0</asrwt>
<pdfrwt beam="1">  1        2 0.34950296E+00 0.19776563E+04</pdfrwt>
<pdfrwt beam="2">  1       -1 0.66216171E-01 0.19776563E+04</pdfrwt>
<totfact> 0.11521614E+01</totfact>
</mgrwt>
</event>
<event>
12    6  0.1529770E-007  0.1678326E+04  0.7818608E-02  0.8773823E-01
         -1   -1    0    0    0  501 -0.00000000000E+00  0.00000000000E+00  0.13873348024E+04  0.13873348024E+04  0.00000000000E+00 0.  1.
          2   -1    0    0  501    0  0.00000000000E+00 -0.00000000000E+00 -0.50758786697E+03  0.50758786697E+03  0.00000000000E+00 0. -1.
         24    2    1    2    0    0  0.42712455424E+03  0.86697618695E+02  0.75478583924E+03  0.87521979392E+03  0.79725545628E+02 0.  0.
        254    2    1    2    0    0 -0.42712455424E+03 -0.86697618695E+02  0.12496109622E+03  0.10197028755E+04  0.91336017912E+03 0.  0.
         23    2    4    4    0    0 -0.60518050510E+03 -0.10927495008E+03  0.35361258644E+03  0.71525849418E+03  0.91478925104E+02 0.  0.
         23    2    4    4    0    0  0.17805595086E+03  0.22577331390E+02 -0.22865149022E+03  0.30444438131E+03  0.90505357872E+02 0.  0.
          4    1    3    3  502    0  0.42329148916E+03  0.95087618846E+02  0.73866875625E+03  0.85664979514E+03  0.00000000000E+00 0. -1.
         -3    1    3    3    0  502  0.38330650747E+01 -0.83900001511E+01  0.16117082992E+02  0.18569998777E+02  0.00000000000E+00 0.  1.
         11    1    5    5    0    0 -0.31702287671E+03 -0.96923589495E+02  0.21617670832E+03  0.39576515230E+03  0.00000000000E+00 0. -1.
        -11    1    5    5    0    0 -0.28815762839E+03 -0.12351360589E+02  0.13743587812E+03  0.31949334187E+03  0.00000000000E+00 0.  1.
          3    1    6    6  503    0  0.18865874322E+03  0.18300908524E+02 -0.21688272942E+03  0.28803673891E+03  0.00000000000E+00 0. -1.
         -3    1    6    6    0  503 -0.10602792355E+02  0.42764228658E+01 -0.11768760804E+02  0.16407642400E+02  0.00000000000E+00 0.  1.
<mgrwt>
<rscale>  0 0.16783257E+04</rscale>
<asrwt>0</asrwt>
<pdfrwt beam="1">  1        2 0.78090442E-01 0.16783257E+04</pdfrwt>
<pdfrwt beam="2">  1       -1 0.21343612E+00 0.16783257E+04</pdfrwt>
<totfact> 0.80303147E+00</totfact>
</mgrwt>
</event>
<event>
12    6  0.1529770E-007  0.2139354E+04  0.7818608E-02  0.8544103E-01
         -1   -1    0    0    0  501 -0.00000000000E+00  0.00000000000E+00  0.52362382323E+03  0.52362382323E+03  0.00000000000E+00 0.  1.
          2   -1    0    0  501    0  0.00000000000E+00 -0.00000000000E+00 -0.21851732428E+04  0.21851732428E+04  0.00000000000E+00 0. -1.
         24    2    1    2    0    0 -0.33977103064E+03  0.55260106793E+03 -0.14361689690E+04  0.15779487231E+04  0.80799578267E+02 0.  0.
        254    2    1    2    0    0  0.33977103064E+03 -0.55260106793E+03 -0.22538045065E+03  0.11308483430E+04  0.89844829217E+03 0.  0.
         23    2    4    4    0    0  0.20569581069E+03 -0.78440103325E+03 -0.22962406906E+03  0.84767813923E+03  0.90748372623E+02 0.  0.
         23    2    4    4    0    0  0.13407521995E+03  0.23179996532E+03  0.42436184106E+01  0.28317020373E+03  0.91978081391E+02 0.  0.
          2    1    3    3  502    0 -0.22825878719E+03  0.33838293002E+03 -0.98467642261E+03  0.10659234206E+04  0.00000000000E+00 0. -1.
         -1    1    3    3    0  502 -0.11151224345E+03  0.21421813791E+03 -0.45149254635E+03  0.51202530256E+03  0.00000000000E+00 0.  1.
         11    1    5    5    0    0  0.13039367223E+03 -0.59862538058E+03 -0.20323546871E+03  0.64549168219E+03  0.00000000000E+00 0. -1.
        -11    1    5    5    0    0  0.75302138465E+02 -0.18577565267E+03 -0.26388600352E+02  0.20218645704E+03  0.00000000000E+00 0.  1.
          4    1    6    6  503    0  0.31905570188E+02  0.15540008280E+02  0.24514991566E+02  0.43132842219E+02  0.00000000000E+00 0.  1.
         -4    1    6    6    0  503  0.10216964976E+03  0.21625995704E+03 -0.20271373156E+02  0.24003736151E+03  0.00000000000E+00 0. -1.
<mgrwt>
<rscale>  0 0.21393539E+04</rscale>
<asrwt>0</asrwt>
<pdfrwt beam="1">  1        2 0.33618050E+00 0.21393539E+04</pdfrwt>
<pdfrwt beam="2">  1       -1 0.80557511E-01 0.21393539E+04</pdfrwt>
<totfact> 0.84583571E+00</totfact>
</mgrwt>
</event>
<event>
12    6  0.1529770E-007  0.2036205E+04  0.7818608E-02  0.8589878E-01
         -1   -1    0    0    0  501 -0.00000000000E+00  0.00000000000E+00  0.39763998860E+03  0.39763998860E+03  0.00000000000E+00 0.  1.
          2   -1    0    0  501    0  0.00000000000E+00 -0.00000000000E+00 -0.26067122211E+04  0.26067122211E+04  0.00000000000E+00 0. -1.
         24    2    1    2    0    0 -0.89264394159E+02 -0.30175200293E+03 -0.19770157350E+04  0.20034457486E+04  0.78620911965E+02 0.  0.
        254    2    1    2    0    0  0.89264394159E+02  0.30175200293E+03 -0.23205649750E+03  0.10009064611E+04  0.92138000982E+03 0.  0.
         23    2    4    4    0    0  0.10046213216E+03 -0.15439370117E+03 -0.44389963587E+03  0.48880032420E+03  0.89156128508E+02 0.  0.
         23    2    4    4    0    0 -0.11197738003E+02  0.45614570410E+03  0.21184313837E+03  0.51210613690E+03  0.95816947702E+02 0.  0.
          2    1    3    3  502    0 -0.70964381064E+02 -0.28908072567E+03 -0.17292392846E+04  0.17546715114E+04  0.00000000000E+00 0. -1.
         -1    1    3    3    0  502 -0.18300013095E+02 -0.12671277267E+02 -0.24777645033E+03  0.24877423718E+03  0.00000000000E+00 0.  1.
         11    1    5    5    0    0  0.68112515208E+01 -0.27299323011E+02 -0.15250998596E+02  0.32003736380E+02  0.00000000000E+00 0.  1.
        -11    1    5    5    0    0  0.93650880641E+02 -0.12709437816E+03 -0.42864863728E+03  0.45679658782E+03  0.00000000000E+00 0. -1.
          4    1    6    6  503    0  0.23727737494E+02  0.33806897685E+03  0.12409758327E+03  0.36090698083E+03  0.00000000000E+00 0. -1.
         -4    1    6    6    0  503 -0.34925475496E+02  0.11807672725E+03  0.87745555099E+02  0.15119915607E+03  0.00000000000E+00 0.  1.
<mgrwt>
<rscale>  0 0.20362053E+04</rscale>
<asrwt>0</asrwt>
<pdfrwt beam="1">  1        2 0.40103265E+00 0.20362053E+04</pdfrwt>
<pdfrwt beam="2">  1       -1 0.61175383E-01 0.20362053E+04</pdfrwt>
<totfact> 0.86233954E+00</totfact>
</mgrwt>
</event>
<event>
12    6  0.1529770E-007  0.1959354E+04  0.7818608E-02  0.8625863E-01
          2   -1    0    0  501    0  0.00000000000E+00  0.00000000000E+00  0.18297151917E+04  0.18297151917E+04  0.00000000000E+00 0. -1.
         -1   -1    0    0    0  501 -0.00000000000E+00 -0.00000000000E+00 -0.52454434591E+03  0.52454434591E+03  0.00000000000E+00 0.  1.
         24    2    1    2    0    0 -0.36702437023E+03 -0.53382882281E+03  0.91870897943E+03  0.11270085217E+04  0.80261563897E+02 0.  0.
        254    2    1    2    0    0  0.36702437023E+03  0.53382882281E+03  0.38646186639E+03  0.12272510160E+04  0.96804554729E+03 0.  0.
         23    2    4    4    0    0 -0.26367633587E+03  0.40044858278E+02 -0.83946874743E+02  0.29355276598E+03  0.89427891983E+02 0.  0.
         23    2    4    4    0    0  0.63070070611E+03  0.49378396453E+03  0.47040874113E+03  0.93369824999E+03  0.94350696785E+02 0.  0.
          2    1    3    3  502    0 -0.32896998401E+03 -0.44760792661E+03  0.82085955302E+03  0.99115312245E+03  0.00000000000E+00 0. -1.
         -1    1    3    3    0  502 -0.38054386222E+02 -0.86220896195E+02  0.97849426403E+02  0.13585539923E+03  0.00000000000E+00 0.  1.
         11    1    5    5    0    0 -0.15028771931E+03  0.52803036351E+02 -0.14444173637E+02  0.15994747068E+03  0.00000000000E+00 0.  1.
        -11    1    5    5    0    0 -0.11338861656E+03 -0.12758178073E+02 -0.69502701106E+02  0.13360529531E+03  0.00000000000E+00 0. -1.
          1    1    6    6  503    0  0.36695007663E+02  0.41637731432E+02  0.60303686408E+02  0.81955834817E+02  0.00000000000E+00 0. -1.
         -1    1    6    6    0  503  0.59400569844E+03  0.45214623310E+03  0.41010505473E+03  0.85174241517E+03  0.00000000000E+00 0.  1.
<mgrwt>
<rscale>  0 0.19593537E+04</rscale>
<asrwt>0</asrwt>
<pdfrwt beam="1">  1        2 0.28149464E+00 0.19593537E+04</pdfrwt>
<pdfrwt beam="2">  1       -1 0.80699131E-01 0.19593537E+04</pdfrwt>
<totfact> 0.13501051E+01</totfact>
</mgrwt>
</event>
<event>
12    6  0.1529770E-007  0.1505428E+04  0.7818608E-02  0.8880851E-01
         -1   -1    0    0    0  501 -0.00000000000E+00  0.00000000000E+00  0.40149117251E+03  0.40149117251E+03  0.00000000000E+00 0.  1.
          2   -1    0    0  501    0  0.00000000000E+00 -0.00000000000E+00 -0.14111854816E+04  0.14111854816E+04  0.00000000000E+00 0. -1.
         24    2    1    2    0    0 -0.37009691313E+03 -0.28972081923E+03 -0.21345805673E+03  0.52248006504E+03  0.80691995725E+02 0.  0.
        254    2    1    2    0    0  0.37009691313E+03  0.28972081923E+03 -0.79623625236E+03  0.12901965891E+04  0.89983620215E+03 0.  0.
         23    2    4    4    0    0 -0.20973882760E+03 -0.11647886660E+03 -0.58211213586E+02  0.26330354614E+03  0.91556047619E+02 0.  0.
         23    2    4    4    0    0  0.57983574073E+03  0.40619968583E+03 -0.73802503878E+03  0.10268930429E+04  0.92847685953E+02 0.  0.
          2    1    3    3  502    0 -0.30453232448E+03 -0.19510876300E+03 -0.15721721814E+03  0.39436609861E+03  0.00000000000E+00 0. -1.
         -1    1    3    3    0  502 -0.65564588653E+02 -0.94612056225E+02 -0.56240838583E+02  0.12811396642E+03  0.00000000000E+00 0.  1.
         11    1    5    5    0    0 -0.11621466266E+01  0.11081954105E+01  0.13313583354E+02  0.13410077688E+02  0.00000000000E+00 0.  1.
        -11    1    5    5    0    0 -0.20857668097E+03 -0.11758706201E+03 -0.71524796940E+02  0.24989346845E+03  0.00000000000E+00 0. -1.
          2    1    6    6  503    0  0.23146896490E+03  0.21072745866E+03 -0.29100154842E+03  0.42739424976E+03  0.00000000000E+00 0. -1.
         -2    1    6    6    0  503  0.34836677583E+03  0.19547222717E+03 -0.44702349035E+03  0.59949879318E+03  0.00000000000E+00 0.  1.
<mgrwt>
<rscale>  0 0.15054282E+04</rscale>
<asrwt>0</asrwt>
<pdfrwt beam="1">  1        2 0.21710546E+00 0.15054282E+04</pdfrwt>
<pdfrwt beam="2">  1       -1 0.61767873E-01 0.15054282E+04</pdfrwt>
<totfact> 0.41722268E+01</totfact>
</mgrwt>
</event>
<event>
12    6  0.1529770E-007  0.1297408E+04  0.7818608E-02  0.9031623E-01
         -1   -1    0    0    0  501 -0.00000000000E+00  0.00000000000E+00  0.56942260129E+03  0.56942260129E+03  0.00000000000E+00 0.  1.
          2   -1    0    0  501    0  0.00000000000E+00 -0.00000000000E+00 -0.73902353765E+03  0.73902353765E+03  0.00000000000E+00 0. -1.
         24    2    1    2    0    0 -0.16115179485E+03 -0.13573460041E+03  0.20786124435E+03  0.30607438058E+03  0.77983631723E+02 0.  0.
        254    2    1    2    0    0  0.16115179485E+03  0.13573460041E+03 -0.37746218071E+03  0.10023717584E+04  0.90436588910E+03 0.  0.
         23    2    4    4    0    0  0.41871796324E+03  0.24279282667E+03 -0.48362257923E+03  0.69026706444E+03  0.91130300620E+02 0.  0.
         23    2    4    4    0    0 -0.25756616839E+03 -0.10705822627E+03  0.10616039852E+03  0.31210469392E+03  0.91309993127E+02 0.  0.
          4    1    3    3  502    0 -0.21513227376E+02 -0.64202048903E+02  0.65985670894E+02  0.94545390151E+02  0.00000000000E+00 0. -1.
         -3    1    3    3    0  502 -0.13963856747E+03 -0.71532551507E+02  0.14187557345E+03  0.21152899043E+03  0.00000000000E+00 0.  1.
         11    1    5    5    0    0  0.17974867227E+03  0.15549051833E+03 -0.24809329644E+03  0.34356537982E+03  0.00000000000E+00 0. -1.
        -11    1    5    5    0    0  0.23896929097E+03  0.87302308344E+02 -0.23552928279E+03  0.34670168462E+03  0.00000000000E+00 0.  1.
          3    1    6    6  503    0  0.74699683095E+01 -0.36738493072E+00  0.52692225213E+00  0.74975359480E+01  0.00000000000E+00 0. -1.
         -3    1    6    6    0  503 -0.26503613670E+03 -0.10669084133E+03  0.10563347627E+03  0.30460715798E+03  0.00000000000E+00 0.  1.
<mgrwt>
<rscale>  0 0.12974077E+04</rscale>
<asrwt>0</asrwt>
<pdfrwt beam="1">  1        2 0.11369593E+00 0.12974077E+04</pdfrwt>
<pdfrwt beam="2">  1       -1 0.87603478E-01 0.12974077E+04</pdfrwt>
<totfact> 0.54882462E+01</totfact>
</mgrwt>
</event>
<event>
12    6  0.1529770E-007  0.1380308E+04  0.7818608E-02  0.8968197E-01
          2   -1    0    0  501    0  0.00000000000E+00  0.00000000000E+00  0.77064211406E+03  0.77064211406E+03  0.00000000000E+00 0. -1.
         -1   -1    0    0    0  501 -0.00000000000E+00 -0.00000000000E+00 -0.61807272624E+03  0.61807272624E+03  0.00000000000E+00 0.  1.
         24    2    1    2    0    0 -0.65376476343E+02 -0.18704682701E+03  0.38847390459E+03  0.44346011712E+03  0.80525162357E+02 0.  0.
        254    2    1    2    0    0  0.65376476343E+02  0.18704682701E+03 -0.23590451678E+03  0.94525472318E+03  0.89364139984E+03 0.  0.
         23    2    4    4    0    0  0.17521146958E+02 -0.20404794006E+03 -0.43705622086E+03  0.49167309839E+03  0.93710954821E+02 0.  0.
         23    2    4    4    0    0  0.47855329386E+02  0.39109476707E+03  0.20115170408E+03  0.45358162479E+03  0.10014505935E+03 0.  0.
          2    1    3    3  502    0 -0.77416611570E+02 -0.10905641027E+03  0.26665147759E+03  0.29831131871E+03  0.00000000000E+00 0. -1.
         -1    1    3    3    0  502  0.12040135227E+02 -0.77990416743E+02  0.12182242700E+03  0.14514879841E+03  0.00000000000E+00 0.  1.
         11    1    5    5    0    0 -0.28731995829E+02 -0.49827398452E+02 -0.68254924461E+02  0.89258231744E+02  0.00000000000E+00 0. -1.
        -11    1    5    5    0    0  0.46253142786E+02 -0.15422054161E+03 -0.36880129640E+03  0.40241486665E+03  0.00000000000E+00 0.  1.
          3    1    6    6  503    0  0.24925560936E+00  0.30018718364E+02 -0.11145740700E+02  0.32022072330E+02  0.00000000000E+00 0. -1.
         -3    1    6    6    0  503  0.47606073776E+02  0.36107604871E+03  0.21229744478E+03  0.42155955246E+03  0.00000000000E+00 0.  1.
<mgrwt>
<rscale>  0 0.13803085E+04</rscale>
<asrwt>0</asrwt>
<pdfrwt beam="1">  1        2 0.11856033E+00 0.13803085E+04</pdfrwt>
<pdfrwt beam="2">  1       -1 0.95088112E-01 0.13803085E+04</pdfrwt>
<totfact> 0.43060458E+01</totfact>
</mgrwt>
</event>
<event>
12    6  0.1529770E-007  0.2033458E+04  0.7818608E-02  0.8591136E-01
          2   -1    0    0  501    0  0.00000000000E+00  0.00000000000E+00  0.16605410838E+04  0.16605410838E+04  0.00000000000E+00 0. -1.
         -1   -1    0    0    0  501 -0.00000000000E+00 -0.00000000000E+00 -0.62253090548E+03  0.62253090548E+03  0.00000000000E+00 0.  1.
         24    2    1    2    0    0 -0.61384864206E+03 -0.22351825249E+03 -0.13391664907E+03  0.67052759565E+03  0.70021590121E+02 0.  0.
        254    2    1    2    0    0  0.61384864206E+03  0.22351825249E+03  0.11719268274E+04  0.16125443936E+04  0.89449224039E+03 0.  0.
         23    2    4    4    0    0 -0.18515724509E+03 -0.44342402100E+02  0.69363409617E+02  0.22180875837E+03  0.90213018256E+02 0.  0.
         23    2    4    4    0    0  0.79900588715E+03  0.26786065459E+03  0.11025634178E+04  0.13907356353E+04  0.91322390440E+02 0.  0.
          2    1    3    3  502    0 -0.16827548122E+03 -0.73167620308E+02 -0.67929509432E+02  0.19566439761E+03  0.00000000000E+00 0. -1.
         -1    1    3    3    0  502 -0.44557316084E+03 -0.15035063218E+03 -0.65987139639E+02  0.47486319804E+03  0.00000000000E+00 0.  1.
         11    1    5    5    0    0  0.41555718058E-01 -0.32571448246E+01  0.27308076523E+02  0.27501668361E+02  0.00000000000E+00 0. -1.
        -11    1    5    5    0    0 -0.18519880081E+03 -0.41085257275E+02  0.42055333094E+02  0.19430709001E+03  0.00000000000E+00 0.  1.
          4    1    6    6  503    0  0.29440859289E+03  0.14451688906E+03  0.44235084707E+03  0.55066852343E+03  0.00000000000E+00 0. -1.
         -4    1    6    6    0  503  0.50459729426E+03  0.12334376553E+03  0.66021257072E+03  0.84006711184E+03  0.00000000000E+00 0.  1.
<mgrwt>
<rscale>  0 0.20334583E+04</rscale>
<asrwt>0</asrwt>
<pdfrwt beam="1">  1        2 0.25546786E+00 0.20334583E+04</pdfrwt>
<pdfrwt beam="2">  1       -1 0.95773986E-01 0.20334583E+04</pdfrwt>
<totfact> 0.11446050E+01</totfact>
</mgrwt>
</event>
<event>
12    6  0.1529770E-007  0.2547987E+04  0.7818608E-02  0.8386087E-01
          2   -1    0    0  501    0  0.00000000000E+00  0.00000000000E+00  0.24373467423E+04  0.24373467423E+04  0.00000000000E+00 0. -1.
         -1   -1    0    0    0  501 -0.00000000000E+00 -0.00000000000E+00 -0.66591242533E+03  0.66591242533E+03  0.00000000000E+00 0.  1.
         24    2    1    2    0    0 -0.64920815451E+03  0.43471541084E+03  0.17520339950E+04  0.19202243699E+04  0.84792658366E+02 0.  0.
        254    2    1    2    0    0  0.64920815451E+03 -0.43471541084E+03  0.19400321928E+02  0.11830347977E+04  0.88811386864E+03 0.  0.
         23    2    4    4    0    0  0.82342002452E+03 -0.25060415584E+03 -0.12922922257E+03  0.87518038709E+03  0.91747143124E+02 0.  0.
         23    2    4    4    0    0 -0.17421187001E+03 -0.18411125500E+03  0.14862954450E+03  0.30785441057E+03  0.91852418239E+02 0.  0.
          4    1    3    3  502    0 -0.63311908402E+03  0.43730353249E+03  0.17102166026E+04  0.18753439636E+04  0.00000000000E+00 0. -1.
         -3    1    3    3    0  502 -0.16089070497E+02 -0.25881216467E+01  0.41817392441E+02  0.44880406345E+02  0.00000000000E+00 0.  1.
         11    1    5    5    0    0  0.45141384404E+03 -0.16628583237E+03 -0.10864772922E+03  0.49318329828E+03  0.00000000000E+00 0.  1.
        -11    1    5    5    0    0  0.37200618048E+03 -0.84318323471E+02 -0.20581493346E+02  0.38199708881E+03  0.00000000000E+00 0. -1.
          3    1    6    6  503    0 -0.72839153043E+02 -0.48096729149E+02  0.82659182687E+01  0.87676467628E+02  0.00000000000E+00 0. -1.
         -3    1    6    6    0  503 -0.10137271697E+03 -0.13601452585E+03  0.14036362623E+03  0.22017794294E+03  0.00000000000E+00 0.  1.
<mgrwt>
<rscale>  0 0.25479870E+04</rscale>
<asrwt>0</asrwt>
<pdfrwt beam="1">  1        2 0.37497642E+00 0.25479870E+04</pdfrwt>
<pdfrwt beam="2">  1       -1 0.10244807E+00 0.25479870E+04</pdfrwt>
<totfact> 0.34455382E+00</totfact>
</mgrwt>
</event>
<event>
12    6  0.1529770E-007  0.1821360E+04  0.7818608E-02  0.8695022E-01
          2   -1    0    0  501    0  0.00000000000E+00  0.00000000000E+00  0.11715101993E+04  0.11715101993E+04  0.00000000000E+00 0. -1.
         -3   -1    0    0    0  501 -0.00000000000E+00 -0.00000000000E+00 -0.70792219931E+03  0.70792219931E+03  0.00000000000E+00 0.  1.
         24    2    1    2    0    0  0.11862277827E+03 -0.22488391813E+03  0.83266180486E+03  0.87435235981E+03  0.80760309984E+02 0.  0.
        254    2    1    2    0    0 -0.11862277827E+03  0.22488391813E+03 -0.36907380485E+03  0.10050800388E+04  0.89962562818E+03 0.  0.
         23    2    4    4    0    0  0.36327902812E+03 -0.22407483446E+02 -0.22616320877E+03  0.43800856489E+03  0.90708094106E+02 0.  0.
         23    2    4    4    0    0 -0.48190180638E+03  0.24729140157E+03 -0.14291059607E+03  0.56707147394E+03  0.88114867066E+02 0.  0.
          2    1    3    3  502    0  0.81904369999E+02 -0.20274162429E+03  0.62047750194E+03  0.65787903330E+03  0.00000000000E+00 0. -1.
         -1    1    3    3    0  502  0.36718408270E+02 -0.22142293841E+02  0.21218430292E+03  0.21647332651E+03  0.00000000000E+00 0.  1.
         11    1    5    5    0    0  0.17831189269E+03  0.33151734226E+02 -0.97128414048E+02  0.20573793372E+03  0.00000000000E+00 0. -1.
        -11    1    5    5    0    0  0.18496713543E+03 -0.55559217672E+02 -0.12903479472E+03  0.23227063117E+03  0.00000000000E+00 0.  1.
          4    1    6    6  503    0 -0.28532588949E+03  0.10217406209E+03 -0.98931515861E+02  0.31880691179E+03  0.00000000000E+00 0. -1.
         -4    1    6    6    0  503 -0.19657591690E+03  0.14511733948E+03 -0.43979080213E+02  0.24826456215E+03  0.00000000000E+00 0.  1.
<mgrwt>
<rscale>  0 0.18213600E+04</rscale>
<asrwt>0</asrwt>
<pdfrwt beam="1">  1        2 0.18023234E+00 0.18213600E+04</pdfrwt>
<pdfrwt beam="2">  1       -3 0.10891111E+00 0.18213600E+04</pdfrwt>
<totfact> 0.84111916E+00</totfact>
</mgrwt>
</event>
<event>
12    6  0.1529770E-007  0.1792066E+04  0.7818608E-02  0.8710530E-01
         -3   -1    0    0    0  501 -0.00000000000E+00  0.00000000000E+00  0.27490008566E+03  0.27490008566E+03  0.00000000000E+00 0.  1.
          4   -1    0    0  501    0  0.00000000000E+00 -0.00000000000E+00 -0.29206067182E+04  0.29206067182E+04  0.00000000000E+00 0. -1.
         24    2    1    2    0    0 -0.59789371879E+03  0.18523851655E+03 -0.14013257231E+04  0.15368939842E+04  0.80864883852E+02 0.  0.
        254    2    1    2    0    0  0.59789371879E+03 -0.18523851655E+03 -0.12443809095E+04  0.16586128197E+04  0.90040126101E+03 0.  0.
         23    2    4    4    0    0 -0.17124936095E+03 -0.31331423514E+02 -0.14818711377E+02  0.19734000421E+03  0.91735932592E+02 0.  0.
         23    2    4    4    0    0  0.76914307974E+03 -0.15390709303E+03 -0.12295621981E+04  0.14612728155E+04  0.90700451527E+02 0.  0.
          4    1    3    3  502    0 -0.34758874419E+03  0.71230107311E+02 -0.83746396059E+03  0.90952600214E+03  0.00000000000E+00 0. -1.
         -3    1    3    3    0  502 -0.25030497460E+03  0.11400840924E+03 -0.56386176247E+03  0.62736798202E+03  0.00000000000E+00 0.  1.
         11    1    5    5    0    0  0.67389457116E+01 -0.71586427455E+01 -0.14739669573E+02  0.17717714706E+02  0.00000000000E+00 0. -1.
        -11    1    5    5    0    0 -0.17798830666E+03 -0.24172780769E+02 -0.79041803469E-01  0.17962228950E+03  0.00000000000E+00 0.  1.
          3    1    6    6  503    0  0.10369196047E+03 -0.15386159645E+02 -0.11336979359E+03  0.15440682198E+03  0.00000000000E+00 0. -1.
         -3    1    6    6    0  503  0.66545111927E+03 -0.13852093339E+03 -0.11161924045E+04  0.13068659935E+04  0.00000000000E+00 0.  1.
<mgrwt>
<rscale>  0 0.17920659E+04</rscale>
<asrwt>0</asrwt>
<pdfrwt beam="1">  1        4 0.44932412E+00 0.17920659E+04</pdfrwt>
<pdfrwt beam="2">  1       -3 0.42292320E-01 0.17920659E+04</pdfrwt>
<totfact> 0.36343235E-02</totfact>
</mgrwt>
</event>
<event>
12    6  0.1529770E-007  0.1278813E+04  0.7818608E-02  0.9046537E-01
         -1   -1    0    0    0  501 -0.00000000000E+00  0.00000000000E+00  0.34066690562E+03  0.34066690562E+03  0.00000000000E+00 0.  1.
          2   -1    0    0  501    0  0.00000000000E+00 -0.00000000000E+00 -0.12001193533E+04  0.12001193533E+04  0.00000000000E+00 0. -1.
         24    2    1    2    0    0 -0.18890664206E+03  0.23691293813E+03 -0.32439558829E+03  0.45072175782E+03  0.78129031716E+02 0.  0.
        254    2    1    2    0    0  0.18890664206E+03 -0.23691293813E+03 -0.53505685938E+03  0.10900645011E+04  0.90007850442E+03 0.  0.
         23    2    4    4    0    0  0.24759258837E+03 -0.29599195077E+02 -0.73518038519E+03  0.78172271969E+03  0.91771507284E+02 0.  0.
         23    2    4    4    0    0 -0.58685946310E+02 -0.20731374306E+03  0.20012352580E+03  0.30834178141E+03  0.92748047048E+02 0.  0.
          2    1    3    3  502    0 -0.17951780025E+03  0.19532758012E+03 -0.24759098806E+03  0.36287849417E+03  0.00000000000E+00 0. -1.
         -1    1    3    3    0  502 -0.93888418132E+01  0.41585358009E+02 -0.76804600230E+02  0.87843263646E+02  0.00000000000E+00 0.  1.
         11    1    5    5    0    0  0.41788320634E+01  0.13702976422E+02 -0.17300597001E+02  0.22462075969E+02  0.00000000000E+00 0. -1.
        -11    1    5    5    0    0  0.24341375631E+03 -0.43302171499E+02 -0.71787978819E+03  0.75926064372E+03  0.00000000000E+00 0.  1.
          4    1    6    6  503    0 -0.12645998363E+02  0.64648052038E+01  0.44097864023E+01  0.14871489402E+02  0.00000000000E+00 0. -1.
         -4    1    6    6    0  503 -0.46039947947E+02 -0.21377854826E+03  0.19571373940E+03  0.29347029201E+03  0.00000000000E+00 0.  1.
<mgrwt>
<rscale>  0 0.12788134E+04</rscale>
<asrwt>0</asrwt>
<pdfrwt beam="1">  1        2 0.18463375E+00 0.12788134E+04</pdfrwt>
<pdfrwt beam="2">  1       -1 0.52410292E-01 0.12788134E+04</pdfrwt>
<totfact> 0.77715935E+01</totfact>
</mgrwt>
</event>
<event>
12    6  0.1529770E-007  0.1750451E+04  0.7818608E-02  0.8733102E-01
          2   -1    0    0  501    0  0.00000000000E+00  0.00000000000E+00  0.24424414641E+04  0.24424414641E+04  0.00000000000E+00 0. -1.
         -1   -1    0    0    0  501 -0.00000000000E+00 -0.00000000000E+00 -0.31362884136E+03  0.31362884136E+03  0.00000000000E+00 0.  1.
         24    2    1    2    0    0 -0.45394917074E+03  0.33740112627E+03  0.31029547917E+03  0.65004714031E+03  0.79803700443E+02 0.  0.
        254    2    1    2    0    0  0.45394917074E+03 -0.33740112627E+03  0.18185171436E+04  0.21060231652E+04  0.89912157192E+03 0.  0.
         23    2    4    4    0    0  0.25487033915E+03 -0.24475737684E+03  0.18294500978E+04  0.18655507638E+04  0.92341370272E+02 0.  0.
         23    2    4    4    0    0  0.19907883159E+03 -0.92643749430E+02 -0.10932954217E+02  0.24047240137E+03  0.97427926368E+02 0.  0.
          4    1    3    3  502    0 -0.10521656059E+03  0.68559987610E+02  0.10729739292E+03  0.16517786489E+03  0.00000000000E+00 0. -1.
         -3    1    3    3    0  502 -0.34873261016E+03  0.26884113867E+03  0.20299808625E+03  0.48486927542E+03  0.00000000000E+00 0.  1.
         11    1    5    5    0    0  0.24435813374E+03 -0.19042051060E+03  0.15669041793E+04  0.15972349781E+04  0.00000000000E+00 0.  1.
        -11    1    5    5    0    0  0.10512205414E+02 -0.54336866241E+02  0.26254591854E+03  0.26831578566E+03  0.00000000000E+00 0. -1.
          1    1    6    6  503    0  0.75274650319E+02 -0.16976105545E+02  0.39720564678E+02  0.86788158170E+02  0.00000000000E+00 0. -1.
         -1    1    6    6    0  503  0.12380418127E+03 -0.75667643885E+02 -0.50653518895E+02  0.15368424320E+03  0.00000000000E+00 0.  1.
<mgrwt>
<rscale>  0 0.17504515E+04</rscale>
<asrwt>0</asrwt>
<pdfrwt beam="1">  1        2 0.37576021E+00 0.17504515E+04</pdfrwt>
<pdfrwt beam="2">  1       -1 0.48250593E-01 0.17504515E+04</pdfrwt>
<totfact> 0.17440941E+01</totfact>
</mgrwt>
</event>
<event>
12    6  0.1869776E-007  0.2285621E+04  0.7818608E-02  0.8483612E-01
         -1   -1    0    0    0  501 -0.00000000000E+00  0.00000000000E+00  0.55227857554E+03  0.55227857554E+03  0.00000000000E+00 0.  1.
          2   -1    0    0  501    0  0.00000000000E+00 -0.00000000000E+00 -0.23647778229E+04  0.23647778229E+04  0.00000000000E+00 0. -1.
         24    2    1    2    0    0 -0.22626464665E+03  0.46803558890E+03  0.26834249854E+03  0.59039585100E+03  0.79413862554E+02 0.  0.
        254    2    1    2    0    0  0.22626464665E+03 -0.46803558890E+03 -0.20808417459E+04  0.23266605474E+04  0.90177265912E+03 0.  0.
         23    2    4    4    0    0  0.55436801606E+03 -0.25423357320E+03 -0.10081566492E+04  0.11819963973E+04  0.93685895137E+02 0.  0.
         23    2    4    4    0    0 -0.32810336941E+03 -0.21380201570E+03 -0.10726850967E+04  0.11446641501E+04  0.78990993040E+02 0.  0.
          2    1    3    3  502    0 -0.33334471458E+02  0.25421741831E+02  0.32477992301E+02  0.53030858272E+02  0.00000000000E+00 0. -1.
         -1    1    3    3    0  502 -0.19293017519E+03  0.44261384707E+03  0.23586450624E+03  0.53736499273E+03  0.00000000000E+00 0.  1.
         11    1    5    5    0    0  0.10271282907E+02 -0.67079842269E+00 -0.21609504549E+01  0.10517553420E+02  0.00000000000E+00 0. -1.
        -11    1    5    5    0    0  0.54409673315E+03 -0.25356277477E+03 -0.10059956987E+04  0.11714788438E+04  0.00000000000E+00 0.  1.
          4    1    6    6  503    0 -0.92099681537E+01 -0.86084808019E+00 -0.79335213439E+02  0.79872652793E+02  0.00000000000E+00 0. -1.
         -4    1    6    6    0  503 -0.31889340126E+03 -0.21294116762E+03 -0.99334988326E+03  0.10647914973E+04  0.00000000000E+00 0.  1.
<mgrwt>
<rscale>  0 0.22856213E+04</rscale>
<asrwt>0</asrwt>
<pdfrwt beam="1">  1        2 0.36381197E+00 0.22856213E+04</pdfrwt>
<pdfrwt beam="2">  1       -1 0.84965935E-01 0.22856213E+04</pdfrwt>
<totfact> 0.58930246E+00</totfact>
</mgrwt>
</event>
<event>
12    6  0.1529770E-007  0.1760181E+04  0.7818608E-02  0.8727766E-01
          2   -1    0    0  501    0  0.00000000000E+00  0.00000000000E+00  0.24110909558E+03  0.24110909558E+03  0.00000000000E+00 0. -1.
         -1   -1    0    0    0  501 -0.00000000000E+00 -0.00000000000E+00 -0.32124850664E+04  0.32124850664E+04  0.00000000000E+00 0.  1.
         24    2    1    2    0    0 -0.56906794729E+03  0.27228351468E+03 -0.93560316184E+03  0.11310430256E+04  0.76996157915E+02 0.  0.
        254    2    1    2    0    0  0.56906794729E+03 -0.27228351468E+03 -0.20357728090E+04  0.23225511364E+04  0.92298223726E+03 0.  0.
         23    2    4    4    0    0  0.21970279057E+03 -0.48439728573E+03 -0.51698220485E+03  0.74712996509E+03  0.89568621695E+02 0.  0.
         23    2    4    4    0    0  0.34936515672E+03  0.21211377105E+03 -0.15187906042E+04  0.15754211713E+04  0.90436182707E+02 0.  0.
          4    1    3    3  502    0 -0.37890936358E+02  0.41898198211E+02 -0.87562370735E+02  0.10420341089E+03  0.00000000000E+00 0. -1.
         -3    1    3    3    0  502 -0.53117701093E+03  0.23038531647E+03 -0.84804079110E+03  0.10268396147E+04  0.00000000000E+00 0.  1.
         11    1    5    5    0    0  0.18261879339E+02 -0.12182058032E+03 -0.96307562917E+02  0.15636142971E+03  0.00000000000E+00 0.  1.
        -11    1    5    5    0    0  0.20144091123E+03 -0.36257670541E+03 -0.42067464193E+03  0.59076853537E+03  0.00000000000E+00 0. -1.
          4    1    6    6  503    0  0.32498859731E+03  0.18155525871E+03 -0.12649909283E+04  0.13186288140E+04  0.00000000000E+00 0. -1.
         -4    1    6    6    0  503  0.24376559408E+02  0.30558512337E+02 -0.25379967583E+03  0.25679235731E+03  0.00000000000E+00 0.  1.
<mgrwt>
<rscale>  0 0.17601811E+04</rscale>
<asrwt>0</asrwt>
<pdfrwt beam="1">  1        2 0.37093709E-01 0.17601811E+04</pdfrwt>
<pdfrwt beam="2">  1       -1 0.49422845E+00 0.17601811E+04</pdfrwt>
<totfact> 0.24642023E-01</totfact>
</mgrwt>
</event>
<event>
12    6  0.1529770E-007  0.1766621E+04  0.7818608E-02  0.8724254E-01
          2   -1    0    0  501    0  0.00000000000E+00  0.00000000000E+00  0.13945724672E+04  0.13945724672E+04  0.00000000000E+00 0. -1.
         -1   -1    0    0    0  501 -0.00000000000E+00 -0.00000000000E+00 -0.55948115901E+03  0.55948115901E+03  0.00000000000E+00 0.  1.
         24    2    1    2    0    0 -0.64883609687E+02  0.29178768443E+03  0.90323435071E+03  0.95483886656E+03  0.80839552209E+02 0.  0.
        254    2    1    2    0    0  0.64883609687E+02 -0.29178768443E+03 -0.68143042493E+02  0.99921475968E+03  0.95101878327E+03 0.  0.
         23    2    4    4    0    0  0.47749148804E+03 -0.30126920283E+03 -0.72994658137E+02  0.57632988087E+03  0.89814574207E+02 0.  0.
         23    2    4    4    0    0 -0.41260787836E+03  0.94815183997E+01  0.48516156440E+01  0.42288487881E+03  0.92048476780E+02 0.  0.
          2    1    3    3  502    0 -0.61153825066E+02  0.22121042667E+03  0.77676020068E+03  0.80995694488E+03  0.00000000000E+00 0. -1.
         -1    1    3    3    0  502 -0.37297846209E+01  0.70577257757E+02  0.12647415003E+03  0.14488192169E+03  0.00000000000E+00 0.  1.
         11    1    5    5    0    0  0.24120637663E+03 -0.18986946149E+03 -0.71086467403E+02  0.31509397706E+03  0.00000000000E+00 0.  1.
        -11    1    5    5    0    0  0.23628511142E+03 -0.11139974134E+03 -0.19081907338E+01  0.26123590381E+03  0.00000000000E+00 0. -1.
          1    1    6    6  503    0 -0.22899347184E+03 -0.80435436692E+01 -0.41115931606E+02  0.23279439120E+03  0.00000000000E+00 0. -1.
         -1    1    6    6    0  503 -0.18361440651E+03  0.17525062069E+02  0.45967547250E+02  0.19009048761E+03  0.00000000000E+00 0.  1.
<mgrwt>
<rscale>  0 0.17666205E+04</rscale>
<asrwt>0</asrwt>
<pdfrwt beam="1">  1        2 0.21454961E+00 0.17666205E+04</pdfrwt>
<pdfrwt beam="2">  1       -1 0.86074025E-01 0.17666205E+04</pdfrwt>
<totfact> 0.20947753E+01</totfact>
</mgrwt>
</event>
<event>
12    6  0.1529770E-007  0.1509085E+04  0.7818608E-02  0.8878434E-01
          2   -1    0    0  501    0  0.00000000000E+00  0.00000000000E+00  0.14377851671E+04  0.14377851671E+04  0.00000000000E+00 0. -1.
         -1   -1    0    0    0  501 -0.00000000000E+00 -0.00000000000E+00 -0.39598003035E+03  0.39598003035E+03  0.00000000000E+00 0.  1.
         24    2    1    2    0    0 -0.37038812099E+03  0.23240354152E+03  0.82897654216E+02  0.45229165118E+03  0.80603662304E+02 0.  0.
        254    2    1    2    0    0  0.37038812099E+03 -0.23240354152E+03  0.95890748257E+03  0.13814735463E+04  0.89317794012E+03 0.  0.
         23    2    4    4    0    0 -0.14857594019E+03  0.67232796286E+02 -0.59825648186E+02  0.19602470104E+03  0.90837857402E+02 0.  0.
         23    2    4    4    0    0  0.51896406118E+03 -0.29963633780E+03  0.10187331308E+04  0.11854488453E+04  0.91466612974E+02 0.  0.
          2    1    3    3  502    0 -0.14909012200E+03  0.62049517418E+02  0.18548804527E+01  0.16149751599E+03  0.00000000000E+00 0. -1.
         -1    1    3    3    0  502 -0.22129799898E+03  0.17035402410E+03  0.81042773763E+02  0.29079413519E+03  0.00000000000E+00 0.  1.
         11    1    5    5    0    0 -0.13763416465E+03  0.28607529826E+02 -0.24797564581E+02  0.14274618471E+03  0.00000000000E+00 0. -1.
        -11    1    5    5    0    0 -0.10941775544E+02  0.38625266460E+02 -0.35028083605E+02  0.53278516329E+02  0.00000000000E+00 0.  1.
          4    1    6    6  503    0  0.38548201822E+03 -0.17469068200E+03  0.69956323125E+03  0.81761967642E+03  0.00000000000E+00 0. -1.
         -4    1    6    6    0  503  0.13348204296E+03 -0.12494565581E+03  0.31916989951E+03  0.36782916884E+03  0.00000000000E+00 0.  1.
<mgrwt>
<rscale>  0 0.15090848E+04</rscale>
<asrwt>0</asrwt>
<pdfrwt beam="1">  1        2 0.22119772E+00 0.15090848E+04</pdfrwt>
<pdfrwt beam="2">  1       -1 0.60920005E-01 0.15090848E+04</pdfrwt>
<totfact> 0.41399815E+01</totfact>
</mgrwt>
</event>
<event>
12    6  0.1529770E-007  0.1942390E+04  0.7818608E-02  0.8634039E-01
          2   -1    0    0  501    0  0.00000000000E+00  0.00000000000E+00  0.12605291774E+04  0.12605291774E+04  0.00000000000E+00 0. -1.
         -1   -1    0    0    0  501 -0.00000000000E+00 -0.00000000000E+00 -0.74827306046E+03  0.74827306046E+03  0.00000000000E+00 0.  1.
         24    2    1    2    0    0  0.44037307671E+03 -0.18227764368E+03 -0.40307091434E+03  0.62925604342E+03  0.79645590664E+02 0.  0.
        254    2    1    2    0    0 -0.44037307671E+03  0.18227764368E+03  0.91532703123E+03  0.13795461944E+04  0.91551654398E+03 0.  0.
         23    2    4    4    0    0  0.20536900276E+03  0.25915153064E+03  0.16035524995E+03  0.37890584131E+03  0.92303235384E+02 0.  0.
         23    2    4    4    0    0 -0.64574207948E+03 -0.76873886960E+02  0.75497178129E+03  0.10006403531E+04  0.91685865810E+02 0.  0.
          4    1    3    3  502    0  0.84415594805E+02 -0.42746033017E+02 -0.42521684941E+02  0.10373673253E+03  0.00000000000E+00 0. -1.
         -3    1    3    3    0  502  0.35595748191E+03 -0.13953161066E+03 -0.36054922940E+03  0.52551931089E+03  0.00000000000E+00 0.  1.
         11    1    5    5    0    0  0.96123503457E+01  0.39439070444E+02  0.50517366717E+02  0.64806187179E+02  0.00000000000E+00 0. -1.
        -11    1    5    5    0    0  0.19575665242E+03  0.21971246020E+03  0.10983788323E+03  0.31409965413E+03  0.00000000000E+00 0.  1.
          2    1    6    6  503    0 -0.46429747816E+03 -0.66496498671E+02  0.60158362840E+03  0.76282160072E+03  0.00000000000E+00 0. -1.
         -2    1    6    6    0  503 -0.18144460131E+03 -0.10377388289E+02  0.15338815289E+03  0.23781875237E+03  0.00000000000E+00 0.  1.
<mgrwt>
<rscale>  0 0.19423903E+04</rscale>
<asrwt>0</asrwt>
<pdfrwt beam="1">  1        2 0.19392756E+00 0.19423903E+04</pdfrwt>
<pdfrwt beam="2">  1       -1 0.11511893E+00 0.19423903E+04</pdfrwt>
<totfact> 0.12704921E+01</totfact>
</mgrwt>
</event>
<event>
12    6  0.1529770E-007  0.1530682E+04  0.7818608E-02  0.8864302E-01
         -1   -1    0    0    0  501 -0.00000000000E+00  0.00000000000E+00  0.24347133852E+03  0.24347133852E+03  0.00000000000E+00 0.  1.
          2   -1    0    0  501    0  0.00000000000E+00 -0.00000000000E+00 -0.24058149309E+04  0.24058149309E+04  0.00000000000E+00 0. -1.
         24    2    1    2    0    0 -0.45381593427E+03 -0.13725816121E+03 -0.45900612291E+03  0.66484590056E+03  0.80899601966E+02 0.  0.
        254    2    1    2    0    0  0.45381593427E+03  0.13725816121E+03 -0.17033374695E+04  0.19844403689E+04  0.90103070852E+03 0.  0.
         23    2    4    4    0    0  0.40994381875E+03  0.46600329978E+03 -0.79402347423E+03  0.10120227123E+04  0.92215414408E+02 0.  0.
         23    2    4    4    0    0  0.43872115516E+02 -0.32874513857E+03 -0.90931399527E+03  0.97241765660E+03  0.93520202132E+02 0.  0.
          2    1    3    3  502    0 -0.35470995588E+03 -0.11124686322E+03 -0.40221616003E+03  0.54769777868E+03  0.00000000000E+00 0. -1.
         -1    1    3    3    0  502 -0.99105978388E+02 -0.26011297990E+02 -0.56789962880E+02  0.11714812188E+03  0.00000000000E+00 0.  1.
         11    1    5    5    0    0  0.32406168784E+03  0.39900206230E+03 -0.69777814009E+03  0.86666773104E+03  0.00000000000E+00 0.  1.
        -11    1    5    5    0    0  0.85882130911E+02  0.67001237481E+02 -0.96245334141E+02  0.14535498126E+03  0.00000000000E+00 0. -1.
          1    1    6    6  503    0  0.63038236213E+02 -0.15663096227E+03 -0.50829226989E+03  0.53560069940E+03  0.00000000000E+00 0. -1.
         -1    1    6    6    0  503 -0.19166120697E+02 -0.17211417630E+03 -0.40102172539E+03  0.43681695720E+03  0.00000000000E+00 0.  1.
<mgrwt>
<rscale>  0 0.15306822E+04</rscale>
<asrwt>0</asrwt>
<pdfrwt beam="1">  1        2 0.37012536E+00 0.15306822E+04</pdfrwt>
<pdfrwt beam="2">  1       -1 0.37457130E-01 0.15306822E+04</pdfrwt>
<totfact> 0.29794735E+01</totfact>
</mgrwt>
</event>
<event>
12    6  0.1529770E-007  0.1652258E+04  0.7818608E-02  0.8789072E-01
         -1   -1    0    0    0  501 -0.00000000000E+00  0.00000000000E+00  0.13125231683E+04  0.13125231683E+04  0.00000000000E+00 0.  1.
          2   -1    0    0  501    0  0.00000000000E+00 -0.00000000000E+00 -0.51998227141E+03  0.51998227141E+03  0.00000000000E+00 0. -1.
         24    2    1    2    0    0 -0.65194212181E+02  0.40662107762E+03 -0.16564526874E+03  0.45099633836E+03  0.79801980554E+02 0.  0.
        254    2    1    2    0    0  0.65194212181E+02 -0.40662107762E+03  0.95818616565E+03  0.13815091014E+04  0.90601086257E+03 0.  0.
         23    2    4    4    0    0 -0.17155091817E+03 -0.18220926180E+03 -0.88694021888E+02  0.28122789311E+03  0.92696093416E+02 0.  0.
         23    2    4    4    0    0  0.23674513035E+03 -0.22441181581E+03  0.10468801875E+04  0.11002812083E+04  0.90838815382E+02 0.  0.
          4    1    3    3  502    0 -0.54591717706E+02  0.37979497001E+03 -0.17349835801E+03  0.42110112220E+03  0.00000000000E+00 0. -1.
         -3    1    3    3    0  502 -0.10602494475E+02  0.26826107608E+02  0.78530892725E+01  0.29895216166E+02  0.00000000000E+00 0.  1.
         11    1    5    5    0    0 -0.48478082899E+02 -0.59917516117E+02 -0.74426183855E+02  0.10714238238E+03  0.00000000000E+00 0.  1.
        -11    1    5    5    0    0 -0.12307283527E+03 -0.12229174568E+03 -0.14267838033E+02  0.17408551073E+03  0.00000000000E+00 0. -1.
          3    1    6    6  503    0  0.58792312004E+02 -0.30790199914E+02  0.12373839992E+03  0.14041283409E+03  0.00000000000E+00 0. -1.
         -3    1    6    6    0  503  0.17795281835E+03 -0.19362161590E+03  0.92314178762E+03  0.95986837418E+03  0.00000000000E+00 0.  1.
<mgrwt>
<rscale>  0 0.16522576E+04</rscale>
<asrwt>0</asrwt>
<pdfrwt beam="1">  1        2 0.79997273E-01 0.16522576E+04</pdfrwt>
<pdfrwt beam="2">  1       -1 0.20192664E+00 0.16522576E+04</pdfrwt>
<totfact> 0.93710662E+00</totfact>
</mgrwt>
</event>
<event>
12    6  0.1529770E-007  0.2625953E+04  0.7818608E-02  0.8359439E-01
         -1   -1    0    0    0  501 -0.00000000000E+00  0.00000000000E+00  0.13053181520E+04  0.13053181520E+04  0.00000000000E+00 0.  1.
          2   -1    0    0  501    0  0.00000000000E+00 -0.00000000000E+00 -0.13206793881E+04  0.13206793881E+04  0.00000000000E+00 0. -1.
         24    2    1    2    0    0  0.20120778933E+03 -0.17970276217E+03  0.11165447395E+04  0.11528364234E+04  0.97887724423E+02 0.  0.
        254    2    1    2    0    0 -0.20120778933E+03  0.17970276217E+03 -0.11319059757E+04  0.14731611167E+04  0.90344611392E+03 0.  0.
         23    2    4    4    0    0  0.17283121883E+03 -0.27990159112E+03 -0.45634476622E+03  0.56987631033E+03  0.91065539621E+02 0.  0.
         23    2    4    4    0    0 -0.37403900816E+03  0.45960435328E+03 -0.67556120943E+03  0.90328480635E+03  0.91646890341E+02 0.  0.
          4    1    3    3  502    0  0.10229190535E+03 -0.28594341812E+02  0.39473297816E+03  0.40877303523E+03  0.00000000000E+00 0. -1.
         -3    1    3    3    0  502  0.98915883980E+02 -0.15110842035E+03  0.72181176136E+03  0.74406338819E+03  0.00000000000E+00 0.  1.
         11    1    5    5    0    0  0.18014339075E+03 -0.24100285805E+03 -0.41544779574E+03  0.51296285421E+03  0.00000000000E+00 0.  1.
        -11    1    5    5    0    0 -0.73121719231E+01 -0.38898733066E+02 -0.40896970488E+02  0.56913456119E+02  0.00000000000E+00 0. -1.
          1    1    6    6  503    0 -0.83352180459E+02  0.50347216406E+02 -0.11962967772E+03  0.15425202747E+03  0.00000000000E+00 0. -1.
         -1    1    6    6    0  503 -0.29068682770E+03  0.40925713688E+03 -0.55593153172E+03  0.74903277888E+03  0.00000000000E+00 0.  1.
<mgrwt>
<rscale>  0 0.26259526E+04</rscale>
<asrwt>0</asrwt>
<pdfrwt beam="1">  1        2 0.20318145E+00 0.26259526E+04</pdfrwt>
<pdfrwt beam="2">  1       -1 0.20081818E+00 0.26259526E+04</pdfrwt>
<totfact> 0.24022089E+00</totfact>
</mgrwt>
</event>
<event>
12    6  0.1529770E-007  0.3018459E+04  0.7818608E-02  0.8238479E-01
          2   -1    0    0  501    0  0.00000000000E+00  0.00000000000E+00  0.21176829063E+04  0.21176829063E+04  0.00000000000E+00 0. -1.
         -1   -1    0    0    0  501 -0.00000000000E+00 -0.00000000000E+00 -0.10755970359E+04  0.10755970359E+04  0.00000000000E+00 0.  1.
         24    2    1    2    0    0 -0.44367322347E+03  0.26281988614E+02 -0.90370848266E+03  0.10101943180E+04  0.79163541713E+02 0.  0.
        254    2    1    2    0    0  0.44367322347E+03 -0.26281988614E+02  0.19457943531E+04  0.21830856243E+04  0.88442665407E+03 0.  0.
         23    2    4    4    0    0  0.49192072814E+03 -0.50507031791E+02  0.20021395041E+04  0.20643524776E+04  0.91932557439E+02 0.  0.
         23    2    4    4    0    0 -0.48247504675E+02  0.24225043177E+02 -0.56345151010E+02  0.11873314666E+03  0.89488041932E+02 0.  0.
          4    1    3    3  502    0 -0.24626846539E+01 -0.68706778666E+01 -0.63043988873E+01  0.96445049320E+01  0.00000000000E+00 0. -1.
         -3    1    3    3    0  502 -0.44121053881E+03  0.33152666481E+02 -0.89740408377E+03  0.10005498131E+04  0.00000000000E+00 0.  1.
         11    1    5    5    0    0  0.51474362146E+02 -0.18887400748E+02  0.13507255737E+03  0.14577702020E+03  0.00000000000E+00 0.  1.
        -11    1    5    5    0    0  0.44044636600E+03 -0.31619631043E+02  0.18670669467E+04  0.19185754574E+04  0.00000000000E+00 0. -1.
          3    1    6    6  503    0 -0.41037516088E+02  0.49769283000E+02 -0.99317447429E+01  0.65266368143E+02  0.00000000000E+00 0. -1.
         -3    1    6    6    0  503 -0.72099885874E+01 -0.25544239823E+02 -0.46413406267E+02  0.53466778515E+02  0.00000000000E+00 0.  1.
<mgrwt>
<rscale>  0 0.30184588E+04</rscale>
<asrwt>0</asrwt>
<pdfrwt beam="1">  1        2 0.32579737E+00 0.30184588E+04</pdfrwt>
<pdfrwt beam="2">  1       -1 0.16547647E+00 0.30184588E+04</pdfrwt>
<totfact> 0.14839108E+00</totfact>
</mgrwt>
</event>
<event>
12    6  0.1529770E-007  0.1136623E+04  0.7818608E-02  0.9170213E-01
          2   -1    0    0  501    0  0.00000000000E+00  0.00000000000E+00  0.49978449276E+03  0.49978449276E+03  0.00000000000E+00 0. -1.
         -1   -1    0    0    0  501 -0.00000000000E+00 -0.00000000000E+00 -0.64623497977E+03  0.64623497977E+03  0.00000000000E+00 0.  1.
         24    2    1    2    0    0  0.51560838547E+02 -0.18951153172E+03 -0.14579110198E+02  0.21284757743E+03  0.80736609017E+02 0.  0.
        254    2    1    2    0    0 -0.51560838547E+02  0.18951153172E+03 -0.13187137681E+03  0.93317189510E+03  0.90268853159E+03 0.  0.
         23    2    4    4    0    0 -0.41865789691E+03 -0.17056795696E+02 -0.23700262028E+03  0.48963161666E+03  0.89462333373E+02 0.  0.
         23    2    4    4    0    0  0.36709705836E+03  0.20656832742E+03  0.10513124347E+03  0.44354027844E+03  0.90800198737E+02 0.  0.
          2    1    3    3  502    0  0.56465771361E+02 -0.12659895308E+03  0.21314985761E+02  0.14024980169E+03  0.00000000000E+00 0. -1.
         -1    1    3    3    0  502 -0.49049328143E+01 -0.62912578643E+02 -0.35894095958E+02  0.72597775738E+02  0.00000000000E+00 0.  1.
         11    1    5    5    0    0 -0.85861449133E+02 -0.32434415998E+02 -0.78145534342E+02  0.12054420071E+03  0.00000000000E+00 0. -1.
        -11    1    5    5    0    0 -0.33279644778E+03  0.15377620302E+02 -0.15885708594E+03  0.36908741595E+03  0.00000000000E+00 0.  1.
          3    1    6    6  503    0  0.91191839274E+02  0.99444001776E+02  0.33654021205E+02  0.13905989423E+03  0.00000000000E+00 0. -1.
         -3    1    6    6    0  503  0.27590521909E+03  0.10712432564E+03  0.71477222265E+02  0.30448038421E+03  0.00000000000E+00 0.  1.
<mgrwt>
<rscale>  0 0.11366235E+04</rscale>
<asrwt>0</asrwt>
<pdfrwt beam="1">  1        2 0.76889922E-01 0.11366235E+04</pdfrwt>
<pdfrwt beam="2">  1       -1 0.99420766E-01 0.11366235E+04</pdfrwt>
<totfact> 0.67459562E+01</totfact>
</mgrwt>
</event>
<event>
12    6  0.1529770E-007  0.3383510E+04  0.7818608E-02  0.8141965E-01
          2   -1    0    0  501    0  0.00000000000E+00  0.00000000000E+00  0.16518617845E+04  0.16518617845E+04  0.00000000000E+00 0. -1.
         -1   -1    0    0    0  501 -0.00000000000E+00 -0.00000000000E+00 -0.17326115503E+04  0.17326115503E+04  0.00000000000E+00 0.  1.
         24    2    1    2    0    0 -0.82619222339E+02 -0.54847304176E+03  0.14308912645E+04  0.15366337256E+04  0.78388662503E+02 0.  0.
        254    2    1    2    0    0  0.82619222339E+02  0.54847304176E+03 -0.15116410302E+04  0.18478396092E+04  0.90653406100E+03 0.  0.
         23    2    4    4    0    0  0.89916581132E+02  0.57830455578E+03 -0.16027537923E+04  0.17081095947E+04  0.79356902774E+02 0.  0.
         23    2    4    4    0    0 -0.72973587929E+01 -0.29831514020E+02  0.91112762111E+02  0.13973001449E+03  0.10138920483E+03 0.  0.
          2    1    3    3  502    0 -0.26132225933E+02 -0.33957782222E+03  0.95302714593E+03  0.10120556958E+04  0.00000000000E+00 0. -1.
         -1    1    3    3    0  502 -0.56486996406E+02 -0.20889521954E+03  0.47786411855E+03  0.52457802976E+03  0.00000000000E+00 0.  1.
         11    1    5    5    0    0  0.24568340168E+02  0.16766192502E+03 -0.57433529725E+03  0.59881145456E+03  0.00000000000E+00 0.  1.
        -11    1    5    5    0    0  0.65348240964E+02  0.41064263075E+03 -0.10284184951E+04  0.11092981402E+04  0.00000000000E+00 0. -1.
          4    1    6    6  503    0  0.19926751085E+02 -0.56772003682E+02  0.79511938696E+02  0.99711003435E+02  0.00000000000E+00 0. -1.
         -4    1    6    6    0  503 -0.27224109878E+02  0.26940489662E+02  0.11600823416E+02  0.40019011055E+02  0.00000000000E+00 0.  1.
<mgrwt>
<rscale>  0 0.33835099E+04</rscale>
<asrwt>0</asrwt>
<pdfrwt beam="1">  1        2 0.25413258E+00 0.33835099E+04</pdfrwt>
<pdfrwt beam="2">  1       -1 0.26655562E+00 0.33835099E+04</pdfrwt>
<totfact> 0.53579632E-01</totfact>
</mgrwt>
</event>
<event>
12    6  0.1529770E-007  0.1312520E+04  0.7818608E-02  0.9019695E-01
          2   -1    0    0  501    0  0.00000000000E+00  0.00000000000E+00  0.14659846708E+04  0.14659846708E+04  0.00000000000E+00 0. -1.
         -1   -1    0    0    0  501 -0.00000000000E+00 -0.00000000000E+00 -0.29378023937E+03  0.29378023937E+03  0.00000000000E+00 0.  1.
         24    2    1    2    0    0  0.85997482304E+02  0.11603335974E+03 -0.10142170686E+03  0.19419482858E+03  0.81030619461E+02 0.  0.
        254    2    1    2    0    0 -0.85997482304E+02 -0.11603335974E+03  0.12736261383E+04  0.15655700816E+04  0.89890312754E+03 0.  0.
         23    2    4    4    0    0 -0.15769517592E+02 -0.42705885800E+03  0.28187127117E+03  0.51978572235E+03  0.89987986800E+02 0.  0.
         23    2    4    4    0    0 -0.70227964712E+02  0.31102549826E+03  0.99175486714E+03  0.10457843593E+04  0.91751740975E+02 0.  0.
          4    1    3    3  502    0  0.13988559783E+02  0.74775151261E+02 -0.21677494024E+02  0.79100675079E+02  0.00000000000E+00 0. -1.
         -3    1    3    3    0  502  0.72008922521E+02  0.41258208479E+02 -0.79744212835E+02  0.11509415350E+03  0.00000000000E+00 0.  1.
         11    1    5    5    0    0  0.72461797378E+01 -0.30002157076E+03  0.23932212312E+03  0.38384961724E+03  0.00000000000E+00 0.  1.
        -11    1    5    5    0    0 -0.23015697330E+02 -0.12703728723E+03  0.42549148050E+02  0.13593610511E+03  0.00000000000E+00 0. -1.
          2    1    6    6  503    0 -0.89485455603E+01  0.23968996515E+02  0.19520059175E+03  0.19687016097E+03  0.00000000000E+00 0. -1.
         -2    1    6    6    0  503 -0.61279419151E+02  0.28705650174E+03  0.79655427540E+03  0.84891419829E+03  0.00000000000E+00 0.  1.
<mgrwt>
<rscale>  0 0.13125202E+04</rscale>
<asrwt>0</asrwt>
<pdfrwt beam="1">  1        2 0.22553610E+00 0.13125202E+04</pdfrwt>
<pdfrwt beam="2">  1       -1 0.45196961E-01 0.13125202E+04</pdfrwt>
<totfact> 0.71914109E+01</totfact>
</mgrwt>
</event>
<event>
12    6  0.1529770E-007  0.1257054E+04  0.7818608E-02  0.9064333E-01
          2   -1    0    0  501    0  0.00000000000E+00  0.00000000000E+00  0.19956128258E+04  0.19956128258E+04  0.00000000000E+00 0. -1.
         -1   -1    0    0    0  501 -0.00000000000E+00 -0.00000000000E+00 -0.19795718459E+03  0.19795718459E+03  0.00000000000E+00 0.  1.
         24    2    1    2    0    0 -0.48666899640E+02 -0.29722797355E+03  0.47058417776E+03  0.56434093234E+03  0.79487635414E+02 0.  0.
        254    2    1    2    0    0  0.48666899640E+02  0.29722797355E+03  0.13270714634E+04  0.16292290780E+04  0.89585477855E+03 0.  0.
         23    2    4    4    0    0  0.19893859009E+03  0.32513507651E+03  0.13871964493E+04  0.14413369466E+04  0.88593590830E+02 0.  0.
         23    2    4    4    0    0 -0.15027169045E+03 -0.27907102962E+02 -0.60124985810E+02  0.18789213139E+03  0.91258160034E+02 0.  0.
          4    1    3    3  502    0 -0.30158899519E+01 -0.21134365058E+03  0.35624458482E+03  0.41422872721E+03  0.00000000000E+00 0. -1.
         -3    1    3    3    0  502 -0.45651009688E+02 -0.85884322962E+02  0.11433959294E+03  0.15011220513E+03  0.00000000000E+00 0.  1.
         11    1    5    5    0    0  0.12107096473E+03  0.13676798410E+03  0.54366181592E+03  0.57352578849E+03  0.00000000000E+00 0.  1.
        -11    1    5    5    0    0  0.77867625367E+02  0.18836709241E+03  0.84353463334E+03  0.86781115816E+03  0.00000000000E+00 0. -1.
          2    1    6    6  503    0 -0.12637291679E+03  0.13866466100E+01 -0.12370833552E+02  0.12698454398E+03  0.00000000000E+00 0. -1.
         -2    1    6    6    0  503 -0.23898773665E+02 -0.29293749572E+02 -0.47754152258E+02  0.60907587414E+02  0.00000000000E+00 0.  1.
<mgrwt>
<rscale>  0 0.12570535E+04</rscale>
<asrwt>0</asrwt>
<pdfrwt beam="1">  1        2 0.30701734E+00 0.12570535E+04</pdfrwt>
<pdfrwt beam="2">  1       -1 0.30454953E-01 0.12570535E+04</pdfrwt>
<totfact> 0.74842854E+01</totfact>
</mgrwt>
</event>
<event>
12    6  0.1529770E-007  0.3833888E+04  0.7818608E-02  0.8038921E-01
         -1   -1    0    0    0  501 -0.00000000000E+00  0.00000000000E+00  0.14943361772E+04  0.14943361772E+04  0.00000000000E+00 0.  1.
          2   -1    0    0  501    0  0.00000000000E+00 -0.00000000000E+00 -0.24590683381E+04  0.24590683381E+04  0.00000000000E+00 0. -1.
         24    2    1    2    0    0  0.39949541832E+03 -0.16870110568E+04 -0.90750441822E+03  0.19584448940E+04  0.79619334998E+02 0.  0.
        254    2    1    2    0    0 -0.39949541832E+03  0.16870110568E+04 -0.57227742664E+02  0.19949596214E+04  0.98538620925E+03 0.  0.
         23    2    4    4    0    0  0.90927733712E+02  0.47129684332E+03  0.37016658062E+03  0.61311325148E+03  0.92173718855E+02 0.  0.
         23    2    4    4    0    0 -0.49042315204E+03  0.12157142135E+04 -0.42739432329E+03  0.13818463699E+04  0.91419721702E+02 0.  0.
          4    1    3    3  502    0  0.35960788327E+03 -0.13953424631E+04 -0.76392417817E+03  0.16309134155E+04  0.00000000000E+00 0. -1.
         -3    1    3    3    0  502  0.39887535052E+02 -0.29166859375E+03 -0.14358024005E+03  0.32753147844E+03  0.00000000000E+00 0.  1.
         11    1    5    5    0    0 -0.15560759751E+02  0.32532311963E+02  0.16868006529E+02  0.39812287173E+02  0.00000000000E+00 0.  1.
        -11    1    5    5    0    0  0.10648849346E+03  0.43876453135E+03  0.35329857410E+03  0.57330096431E+03  0.00000000000E+00 0. -1.
          4    1    6    6  503    0 -0.39149652436E+03  0.96909511380E+03 -0.37884062835E+03  0.11117261758E+04  0.00000000000E+00 0. -1.
         -4    1    6    6    0  503 -0.98926627681E+02  0.24661909971E+03 -0.48553694937E+02  0.27012019417E+03  0.00000000000E+00 0.  1.
<mgrwt>
<rscale>  0 0.38338883E+04</rscale>
<asrwt>0</asrwt>
<pdfrwt beam="1">  1        2 0.37831820E+00 0.38338883E+04</pdfrwt>
<pdfrwt beam="2">  1       -1 0.22989787E+00 0.38338883E+04</pdfrwt>
<totfact> 0.31585680E-01</totfact>
</mgrwt>
</event>
<event>
12    6  0.1529770E-007  0.1205170E+04  0.7818608E-02  0.9108343E-01
          2   -1    0    0  501    0  0.00000000000E+00  0.00000000000E+00  0.74050477526E+03  0.74050477526E+03  0.00000000000E+00 0. -1.
         -1   -1    0    0    0  501 -0.00000000000E+00 -0.00000000000E+00 -0.49035320105E+03  0.49035320105E+03  0.00000000000E+00 0.  1.
         24    2    1    2    0    0  0.15928969457E+03 -0.16603423140E+03  0.16687573866E+03  0.29640767332E+03  0.84079865951E+02 0.  0.
        254    2    1    2    0    0 -0.15928969457E+03  0.16603423140E+03  0.83275835556E+02  0.93445030299E+03  0.90184362900E+03 0.  0.
         23    2    4    4    0    0 -0.50062719738E+03  0.23286773095E+03 -0.20574282833E+02  0.55983119603E+03  0.90181461870E+02 0.  0.
         23    2    4    4    0    0  0.34133750281E+03 -0.66833499546E+02  0.10385011839E+03  0.37461910695E+03  0.92610046518E+02 0.  0.
          4    1    3    3  502    0  0.67257112723E+02 -0.37560309896E+02  0.96320383569E+02  0.12333658169E+03  0.00000000000E+00 0. -1.
         -1    1    3    3    0  502  0.92032581848E+02 -0.12847392150E+03  0.70555355094E+02  0.17307109164E+03  0.00000000000E+00 0.  1.
         11    1    5    5    0    0 -0.94821878020E+02  0.71355866618E+01 -0.35967140422E+01  0.95157981799E+02  0.00000000000E+00 0. -1.
        -11    1    5    5    0    0 -0.40580531936E+03  0.22573214428E+03 -0.16977568791E+02  0.46467321424E+03  0.00000000000E+00 0.  1.
          2    1    6    6  503    0  0.13913058401E+03 -0.86825056353E+01 -0.12947389605E+01  0.13940725111E+03  0.00000000000E+00 0. -1.
         -2    1    6    6    0  503  0.20220691880E+03 -0.58150993910E+02  0.10514485735E+03  0.23521185584E+03  0.00000000000E+00 0.  1.
<mgrwt>
<rscale>  0 0.12051703E+04</rscale>
<asrwt>0</asrwt>
<pdfrwt beam="1">  1        2 0.11392381E+00 0.12051703E+04</pdfrwt>
<pdfrwt beam="2">  1       -1 0.75438954E-01 0.12051703E+04</pdfrwt>
<totfact> 0.75879744E+01</totfact>
</mgrwt>
</event>
<event>
12    6  0.1529770E-007  0.1290800E+04  0.7818608E-02  0.9036893E-01
          2   -1    0    0  501    0  0.00000000000E+00  0.00000000000E+00  0.14659785523E+04  0.14659785523E+04  0.00000000000E+00 0. -1.
         -1   -1    0    0    0  501 -0.00000000000E+00 -0.00000000000E+00 -0.28413850881E+03  0.28413850881E+03  0.00000000000E+00 0.  1.
         24    2    1    2    0    0  0.22460476564E+03  0.14241885112E+03  0.64845848242E+02  0.28617576340E+03  0.83433528145E+02 0.  0.
        254    2    1    2    0    0 -0.22460476564E+03 -0.14241885112E+03  0.11169941953E+04  0.14639412978E+04  0.90813967046E+03 0.  0.
         23    2    4    4    0    0 -0.38736651590E+03 -0.30568422888E+03  0.24495705546E+03  0.55741167922E+03  0.84900857968E+02 0.  0.
         23    2    4    4    0    0  0.16276175026E+03  0.16326537776E+03  0.87203713984E+03  0.90652961854E+03  0.90554983872E+02 0.  0.
          2    1    3    3  502    0  0.14987812232E+03  0.78521856482E+02  0.79187571558E+02  0.18681489498E+03  0.00000000000E+00 0. -1.
         -1    1    3    3    0  502  0.74726643323E+02  0.63896994638E+02 -0.14341723316E+02  0.99360868423E+02  0.00000000000E+00 0.  1.
         11    1    5    5    0    0 -0.22698320118E+03 -0.14026677569E+03  0.98639599940E+02  0.28447480144E+03  0.00000000000E+00 0.  1.
        -11    1    5    5    0    0 -0.16038331473E+03 -0.16541745319E+03  0.14631745552E+03  0.27293687778E+03  0.00000000000E+00 0. -1.
          2    1    6    6  503    0  0.10477445599E+03  0.92380183417E+02  0.35590081544E+03  0.38233123773E+03  0.00000000000E+00 0. -1.
         -2    1    6    6    0  503  0.57987294273E+02  0.70885194348E+02  0.51613632440E+03  0.52419838080E+03  0.00000000000E+00 0.  1.
<mgrwt>
<rscale>  0 0.12907997E+04</rscale>
<asrwt>0</asrwt>
<pdfrwt beam="1">  1        2 0.22553516E+00 0.12907997E+04</pdfrwt>
<pdfrwt beam="2">  1       -1 0.43713618E-01 0.12907997E+04</pdfrwt>
<totfact> 0.76645977E+01</totfact>
</mgrwt>
</event>
<event>
12    6  0.1529770E-007  0.1742024E+04  0.7818608E-02  0.8737753E-01
         -1   -1    0    0    0  501 -0.00000000000E+00  0.00000000000E+00  0.12417011782E+04  0.12417011782E+04  0.00000000000E+00 0.  1.
          2   -1    0    0  501    0  0.00000000000E+00 -0.00000000000E+00 -0.61098575248E+03  0.61098575248E+03  0.00000000000E+00 0. -1.
         24    2    1    2    0    0 -0.16378621865E+03 -0.26259875045E+03 -0.35813091950E+03  0.47888020033E+03  0.72694302430E+02 0.  0.
        254    2    1    2    0    0  0.16378621865E+03  0.26259875045E+03  0.98884634525E+03  0.13738067304E+04  0.90207749598E+03 0.  0.
         23    2    4    4    0    0 -0.33442230420E+03  0.13515015546E+03  0.18552851561E+03  0.41571214576E+03  0.91059958073E+02 0.  0.
         23    2    4    4    0    0  0.49820852285E+03  0.12744859498E+03  0.80331782963E+03  0.95809458461E+03  0.90392594011E+02 0.  0.
          2    1    3    3  502    0 -0.75166479087E+02 -0.67376330266E+02 -0.87274172174E+02  0.13344043835E+03  0.00000000000E+00 0. -1.
         -1    1    3    3    0  502 -0.88619739565E+02 -0.19522242018E+03 -0.27085674733E+03  0.34543976198E+03  0.00000000000E+00 0.  1.
         11    1    5    5    0    0 -0.33374350136E+03  0.12427316236E+03  0.16505705097E+03  0.39252053916E+03  0.00000000000E+00 0. -1.
        -11    1    5    5    0    0 -0.67880283257E+00  0.10876993102E+02  0.20471464648E+02  0.23191606608E+02  0.00000000000E+00 0.  1.
          1    1    6    6  503    0  0.23731614314E+03  0.97160241657E+02  0.44865819653E+03  0.51677194358E+03  0.00000000000E+00 0. -1.
         -1    1    6    6    0  503  0.26089237971E+03  0.30288353327E+02  0.35465963310E+03  0.44132264103E+03  0.00000000000E+00 0.  1.
<mgrwt>
<rscale>  0 0.17420238E+04</rscale>
<asrwt>0</asrwt>
<pdfrwt beam="1">  1        2 0.93997808E-01 0.17420238E+04</pdfrwt>
<pdfrwt beam="2">  1       -1 0.19103095E+00 0.17420238E+04</pdfrwt>
<totfact> 0.91323927E+00</totfact>
</mgrwt>
</event>
<event>
12    6  0.1529770E-007  0.2408576E+04  0.7818608E-02  0.8436300E-01
          2   -1    0    0  501    0  0.00000000000E+00  0.00000000000E+00  0.22245210121E+04  0.22245210121E+04  0.00000000000E+00 0. -1.
         -1   -1    0    0    0  501 -0.00000000000E+00 -0.00000000000E+00 -0.65196471941E+03  0.65196471941E+03  0.00000000000E+00 0.  1.
         24    2    1    2    0    0  0.10276121901E+04  0.65207670160E+02  0.57328793953E+03  0.11811714676E+04  0.79171463374E+02 0.  0.
        254    2    1    2    0    0 -0.10276121901E+04 -0.65207670160E+02  0.99926835321E+03  0.16953142640E+04  0.90294759446E+03 0.  0.
         23    2    4    4    0    0 -0.60820225736E+03 -0.31964986284E+03  0.14868547531E+03  0.70912222035E+03  0.93064129262E+02 0.  0.
         23    2    4    4    0    0 -0.41940993278E+03  0.25444219268E+03  0.85058287790E+03  0.98619204363E+03  0.91858552173E+02 0.  0.
          4    1    3    3  502    0  0.83188345123E+03  0.55961656902E+02  0.42773887298E+03  0.93708181443E+03  0.00000000000E+00 0. -1.
         -3    1    3    3    0  502  0.19572873892E+03  0.92460132581E+01  0.14554906655E+03  0.24408965314E+03  0.00000000000E+00 0.  1.
         11    1    5    5    0    0 -0.19608031829E+03 -0.14584271034E+03  0.76465974517E+02  0.25605591702E+03  0.00000000000E+00 0. -1.
        -11    1    5    5    0    0 -0.41212193907E+03 -0.17380715250E+03  0.72219500797E+02  0.45306630333E+03  0.00000000000E+00 0.  1.
          2    1    6    6  503    0 -0.27376063769E+03  0.11969992714E+03  0.55238559304E+03  0.62801497013E+03  0.00000000000E+00 0.  1.
         -2    1    6    6    0  503 -0.14564929509E+03  0.13474226554E+03  0.29819728486E+03  0.35817707350E+03  0.00000000000E+00 0. -1.
<mgrwt>
<rscale>  0 0.24085757E+04</rscale>
<asrwt>0</asrwt>
<pdfrwt beam="1">  1        2 0.34223400E+00 0.24085757E+04</pdfrwt>
<pdfrwt beam="2">  1       -1 0.10030227E+00 0.24085757E+04</pdfrwt>
<totfact> 0.48399085E+00</totfact>
</mgrwt>
</event>
<event>
12    6  0.1529770E-007  0.1792246E+04  0.7818608E-02  0.8710434E-01
         -1   -1    0    0    0  501 -0.00000000000E+00  0.00000000000E+00  0.68148574201E+03  0.68148574201E+03  0.00000000000E+00 0.  1.
          2   -1    0    0  501    0  0.00000000000E+00 -0.00000000000E+00 -0.11783614227E+04  0.11783614227E+04  0.00000000000E+00 0. -1.
         24    2    1    2    0    0 -0.30269324577E+03 -0.17169646168E+03 -0.77603593028E+03  0.85430387133E+03  0.80625451876E+02 0.  0.
        254    2    1    2    0    0  0.30269324577E+03  0.17169646168E+03  0.27916024955E+03  0.10055432934E+04  0.90115703072E+03 0.  0.
         23    2    4    4    0    0  0.99792376231E+02  0.22135594453E+02 -0.32003449003E+03  0.34928623077E+03  0.95552568243E+02 0.  0.
         23    2    4    4    0    0  0.20290086954E+03  0.14956086723E+03  0.59919473959E+03  0.65625706265E+03  0.90009890916E+02 0.  0.
          4    1    3    3  502    0 -0.19133194735E+03 -0.62634208807E+02 -0.44204607999E+03  0.48573212270E+03  0.00000000000E+00 0. -1.
         -3    1    3    3    0  502 -0.11136129841E+03 -0.10906225287E+03 -0.33398985029E+03  0.36857174862E+03  0.00000000000E+00 0.  1.
         11    1    5    5    0    0  0.97246020446E+02  0.49173525202E+02 -0.28381510400E+03  0.30401617939E+03  0.00000000000E+00 0. -1.
        -11    1    5    5    0    0  0.25463557844E+01 -0.27037930749E+02 -0.36219386032E+02  0.45270051375E+02  0.00000000000E+00 0.  1.
          1    1    6    6  503    0  0.19099621946E+03  0.10289986192E+03  0.52178971491E+03  0.56509507520E+03  0.00000000000E+00 0. -1.
         -1    1    6    6    0  503  0.11904650073E+02  0.46661005309E+02  0.77405024675E+02  0.91161987444E+02  0.00000000000E+00 0.  1.
<mgrwt>
<rscale>  0 0.17922461E+04</rscale>
<asrwt>0</asrwt>
<pdfrwt beam="1">  1        2 0.18128637E+00 0.17922461E+04</pdfrwt>
<pdfrwt beam="2">  1       -1 0.10484396E+00 0.17922461E+04</pdfrwt>
<totfact> 0.17962245E+01</totfact>
</mgrwt>
</event>
<event>
12    6  0.1529770E-007  0.1383957E+04  0.7818608E-02  0.8965514E-01
         -1   -1    0    0    0  501 -0.00000000000E+00  0.00000000000E+00  0.12136112077E+04  0.12136112077E+04  0.00000000000E+00 0.  1.
          2   -1    0    0  501    0  0.00000000000E+00 -0.00000000000E+00 -0.39455315816E+03  0.39455315816E+03  0.00000000000E+00 0. -1.
         24    2    1    2    0    0 -0.34133562732E+03  0.10754499546E+03  0.66720438031E+02  0.37239457824E+03  0.78423010207E+02 0.  0.
        254    2    1    2    0    0  0.34133562732E+03 -0.10754499546E+03  0.75233761146E+03  0.12357697876E+04  0.91270978395E+03 0.  0.
         23    2    4    4    0    0 -0.14565786035E+03 -0.26880138928E+03  0.13430011461E+01  0.32200205846E+03  0.10105999623E+03 0.  0.
         23    2    4    4    0    0  0.48699348767E+03  0.16125639383E+03  0.75099461032E+03  0.91376772911E+03  0.88387083065E+02 0.  0.
          2    1    3    3  502    0 -0.22649724523E+03  0.40647297698E+02  0.17908173130E+02  0.23081141127E+03  0.00000000000E+00 0. -1.
         -1    1    3    3    0  502 -0.11483838209E+03  0.66897697758E+02  0.48812264901E+02  0.14158316698E+03  0.00000000000E+00 0.  1.
         11    1    5    5    0    0 -0.14919003027E+03 -0.25444249656E+03  0.22919921738E+02  0.29584450646E+03  0.00000000000E+00 0. -1.
        -11    1    5    5    0    0  0.35321699177E+01 -0.14358892719E+02 -0.21576920592E+02  0.26157552001E+02  0.00000000000E+00 0.  1.
          3    1    6    6  503    0  0.38342944091E+03  0.94663457203E+02  0.53258573592E+03  0.66304364290E+03  0.00000000000E+00 0. -1.
         -3    1    6    6    0  503  0.10356404676E+03  0.66592936623E+02  0.21840887440E+03  0.25072408621E+03  0.00000000000E+00 0.  1.
<mgrwt>
<rscale>  0 0.13839568E+04</rscale>
<asrwt>0</asrwt>
<pdfrwt beam="1">  1        2 0.60700487E-01 0.13839568E+04</pdfrwt>
<pdfrwt beam="2">  1       -1 0.18670941E+00 0.13839568E+04</pdfrwt>
<totfact> 0.16783610E+01</totfact>
</mgrwt>
</event>
<event>
12    6  0.1529770E-007  0.1846872E+04  0.7818608E-02  0.8681763E-01
          2   -1    0    0  501    0  0.00000000000E+00  0.00000000000E+00  0.10620813365E+04  0.10620813365E+04  0.00000000000E+00 0. -1.
         -1   -1    0    0    0  501 -0.00000000000E+00 -0.00000000000E+00 -0.80288935084E+03  0.80288935084E+03  0.00000000000E+00 0.  1.
         24    2    1    2    0    0  0.37701202368E+03 -0.38323529975E+03  0.55712450548E+03  0.77814796249E+03  0.78225161858E+02 0.  0.
        254    2    1    2    0    0 -0.37701202368E+03  0.38323529975E+03 -0.29793251984E+03  0.10868227248E+04  0.89633279971E+03 0.  0.
         23    2    4    4    0    0 -0.11130081699E+03  0.88051224661E+02  0.31122727845E+03  0.35391178989E+03  0.90830865581E+02 0.  0.
         23    2    4    4    0    0 -0.26571120669E+03  0.29518407509E+03 -0.60915979830E+03  0.73291093494E+03  0.91360249214E+02 0.  0.
          4    1    3    3  502    0  0.36085052803E+03 -0.33518122372E+03  0.50191493207E+03  0.70319140734E+03  0.00000000000E+00 0. -1.
         -3    1    3    3    0  502  0.16161495651E+02 -0.48054076031E+02  0.55209573408E+02  0.74956555155E+02  0.00000000000E+00 0.  1.
         11    1    5    5    0    0 -0.52787589726E+02  0.44140181173E+02  0.56952733369E+02  0.89322444331E+02  0.00000000000E+00 0.  1.
        -11    1    5    5    0    0 -0.58513227266E+02  0.43911043488E+02  0.25427454509E+03  0.26458934556E+03  0.00000000000E+00 0. -1.
          4    1    6    6  503    0 -0.21202409942E+03  0.27954485177E+03 -0.54002028797E+03  0.64398870666E+03  0.00000000000E+00 0. -1.
         -4    1    6    6    0  503 -0.53687107269E+02  0.15639223322E+02 -0.69139510325E+02  0.88922228273E+02  0.00000000000E+00 0.  1.
<mgrwt>
<rscale>  0 0.18468717E+04</rscale>
<asrwt>0</asrwt>
<pdfrwt beam="1">  1        2 0.16339713E+00 0.18468717E+04</pdfrwt>
<pdfrwt beam="2">  1       -1 0.12352144E+00 0.18468717E+04</pdfrwt>
<totfact> 0.14226857E+01</totfact>
</mgrwt>
</event>
<event>
12    6  0.1529770E-007  0.2083392E+04  0.7818608E-02  0.8568595E-01
          2   -1    0    0  501    0  0.00000000000E+00  0.00000000000E+00  0.45545194835E+03  0.45545194835E+03  0.00000000000E+00 0. -1.
         -1   -1    0    0    0  501 -0.00000000000E+00 -0.00000000000E+00 -0.23825359211E+04  0.23825359211E+04  0.00000000000E+00 0.  1.
         24    2    1    2    0    0 -0.32915969519E+03  0.39783069122E+03 -0.16949855606E+04  0.17736297148E+04  0.78555399598E+02 0.  0.
        254    2    1    2    0    0  0.32915969519E+03 -0.39783069122E+03 -0.23209841221E+03  0.10643581547E+04  0.90131750493E+03 0.  0.
         23    2    4    4    0    0  0.10454299819E+03 -0.66457672105E+03 -0.14498580358E+03  0.69345772135E+03  0.85271750467E+02 0.  0.
         23    2    4    4    0    0  0.22461669700E+03  0.26674602983E+03 -0.87112608631E+02  0.37090043334E+03  0.91500928252E+02 0.  0.
          2    1    3    3  502    0 -0.15368001020E+02  0.11867382495E+02 -0.13141137545E+03  0.13283809627E+03  0.00000000000E+00 0. -1.
         -1    1    3    3    0  502 -0.31379169417E+03  0.38596330873E+03 -0.15635741851E+04  0.16407916185E+04  0.00000000000E+00 0.  1.
         11    1    5    5    0    0  0.86076430447E+02 -0.63098520305E+03 -0.12095190202E+03  0.64821357665E+03  0.00000000000E+00 0. -1.
        -11    1    5    5    0    0  0.18466567741E+02 -0.33591518000E+02 -0.24033901561E+02  0.45244144703E+02  0.00000000000E+00 0.  1.
          3    1    6    6  503    0  0.20455147757E+03  0.19551446678E+03 -0.89737511053E+02  0.29685018879E+03  0.00000000000E+00 0. -1.
         -3    1    6    6    0  503  0.20065219432E+02  0.71231563052E+02  0.26249024227E+01  0.74050244553E+02  0.00000000000E+00 0.  1.
<mgrwt>
<rscale>  0 0.20833921E+04</rscale>
<asrwt>0</asrwt>
<pdfrwt beam="1">  1        2 0.70069531E-01 0.20833921E+04</pdfrwt>
<pdfrwt beam="2">  1       -1 0.36654399E+00 0.20833921E+04</pdfrwt>
<totfact> 0.87280678E-01</totfact>
</mgrwt>
</event>
<event>
12    6  0.1529770E-007  0.2663691E+04  0.7818608E-02  0.8346883E-01
          2   -1    0    0  501    0  0.00000000000E+00  0.00000000000E+00  0.17020279486E+04  0.17020279486E+04  0.00000000000E+00 0. -1.
         -1   -1    0    0    0  501 -0.00000000000E+00 -0.00000000000E+00 -0.10421761971E+04  0.10421761971E+04  0.00000000000E+00 0.  1.
         24    2    1    2    0    0  0.10575592007E+04 -0.42141630215E+03  0.59308247840E+03  0.12868291733E+04  0.90329023241E+02 0.  0.
        254    2    1    2    0    0 -0.10575592007E+04  0.42141630215E+03  0.66769273114E+02  0.14573749724E+04  0.90744725011E+03 0.  0.
         23    2    4    4    0    0 -0.30693452490E+03 -0.20343738760E+03 -0.21643112361E+03  0.43637820067E+03  0.89375217515E+02 0.  0.
         23    2    4    4    0    0 -0.75062467576E+03  0.62485368975E+03  0.28320039672E+03  0.10209967717E+04  0.91391497021E+02 0.  0.
          2    1    3    3  502    0  0.82464413851E+03 -0.36347489268E+03  0.48773493712E+03  0.10247132875E+04  0.00000000000E+00 0. -1.
         -1    1    3    3    0  502  0.23291506216E+03 -0.57941409470E+02  0.10534754128E+03  0.26211588575E+03  0.00000000000E+00 0.  1.
         11    1    5    5    0    0 -0.26648204878E+03 -0.13860159999E+03 -0.19045781650E+03  0.35566454098E+03  0.00000000000E+00 0.  1.
        -11    1    5    5    0    0 -0.40452476120E+02 -0.64835787611E+02 -0.25973307109E+02  0.80713659696E+02  0.00000000000E+00 0. -1.
          1    1    6    6  503    0 -0.19982957668E+03  0.20552903077E+03  0.53319990981E+02  0.29157685718E+03  0.00000000000E+00 0. -1.
         -1    1    6    6    0  503 -0.55079509908E+03  0.41932465898E+03  0.22988040574E+03  0.72941991455E+03  0.00000000000E+00 0.  1.
<mgrwt>
<rscale>  0 0.26636914E+04</rscale>
<asrwt>0</asrwt>
<pdfrwt beam="1">  1        2 0.26185045E+00 0.26636914E+04</pdfrwt>
<pdfrwt beam="2">  1       -1 0.16033480E+00 0.26636914E+04</pdfrwt>
<totfact> 0.28467809E+00</totfact>
</mgrwt>
</event>
<event>
12    6  0.1529770E-007  0.1598217E+04  0.7818608E-02  0.8821644E-01
         -1   -1    0    0    0  501 -0.00000000000E+00  0.00000000000E+00  0.59890306042E+03  0.59890306042E+03  0.00000000000E+00 0.  1.
          2   -1    0    0  501    0  0.00000000000E+00 -0.00000000000E+00 -0.10662403136E+04  0.10662403136E+04  0.00000000000E+00 0. -1.
         24    2    1    2    0    0  0.28459061645E+03 -0.16697202997E+03  0.28682867410E+03  0.44443784243E+03  0.79892613778E+02 0.  0.
        254    2    1    2    0    0 -0.28459061645E+03  0.16697202997E+03 -0.75416592730E+03  0.12207055316E+04  0.90137909409E+03 0.  0.
         23    2    4    4    0    0 -0.58420086779E+03  0.21941465685E+03 -0.40952714737E+03  0.75185499586E+03  0.90221975237E+02 0.  0.
         23    2    4    4    0    0  0.29961025133E+03 -0.52442626882E+02 -0.34463877993E+03  0.46885053576E+03  0.92349360726E+02 0.  0.
          4    1    3    3  502    0 -0.22259248767E+01 -0.11341534280E+02  0.19186646792E+02  0.22398940968E+02  0.00000000000E+00 0. -1.
         -3    1    3    3    0  502  0.28681654133E+03 -0.15563049569E+03  0.26764202730E+03  0.42203890146E+03  0.00000000000E+00 0.  1.
         11    1    5    5    0    0 -0.26313900734E+03  0.11218330764E+03 -0.13640526081E+03  0.31691264865E+03  0.00000000000E+00 0. -1.
        -11    1    5    5    0    0 -0.32106186044E+03  0.10723134920E+03 -0.27312188655E+03  0.43494234721E+03  0.00000000000E+00 0.  1.
          3    1    6    6  503    0  0.14927402637E+03 -0.24060056920E+02 -0.23942799413E+03  0.28317377291E+03  0.00000000000E+00 0. -1.
         -3    1    6    6    0  503  0.15033622496E+03 -0.28382569962E+02 -0.10521078580E+03  0.18567676285E+03  0.00000000000E+00 0.  1.
<mgrwt>
<rscale>  0 0.15982172E+04</rscale>
<asrwt>0</asrwt>
<pdfrwt beam="1">  1        2 0.16403697E+00 0.15982172E+04</pdfrwt>
<pdfrwt beam="2">  1       -1 0.92138933E-01 0.15982172E+04</pdfrwt>
<totfact> 0.28687427E+01</totfact>
</mgrwt>
</event>
<event>
12    6  0.1529770E-007  0.1570372E+04  0.7818608E-02  0.8838959E-01
         -1   -1    0    0    0  501 -0.00000000000E+00  0.00000000000E+00  0.44026248240E+03  0.44026248240E+03  0.00000000000E+00 0.  1.
          2   -1    0    0  501    0  0.00000000000E+00 -0.00000000000E+00 -0.14003402044E+04  0.14003402044E+04  0.00000000000E+00 0. -1.
         24    2    1    2    0    0 -0.18931213649E+03  0.46544800894E+03 -0.16168087754E+03  0.53386519144E+03  0.79939992615E+02 0.  0.
        254    2    1    2    0    0  0.18931213649E+03 -0.46544800894E+03 -0.79839684444E+03  0.13067374953E+04  0.90423693050E+03 0.  0.
         23    2    4    4    0    0 -0.19457155213E+02  0.65824323673E+02 -0.71377466455E+03  0.72247094785E+03  0.88196237155E+02 0.  0.
         23    2    4    4    0    0  0.20876929170E+03 -0.53127233261E+03 -0.84622179892E+02  0.58426654750E+03  0.91496320357E+02 0.  0.
          2    1    3    3  502    0 -0.70569589705E+02  0.96581199844E+02 -0.56786758259E+02  0.13241121957E+03  0.00000000000E+00 0. -1.
         -1    1    3    3    0  502 -0.11874254679E+03  0.36886680910E+03 -0.10489411928E+03  0.40145397187E+03  0.00000000000E+00 0.  1.
         11    1    5    5    0    0  0.50454092426E+01  0.66711277682E+02 -0.27534269952E+03  0.28335393574E+03  0.00000000000E+00 0.  1.
        -11    1    5    5    0    0 -0.24502564456E+02 -0.88695400850E+00 -0.43843196504E+03  0.43911701210E+03  0.00000000000E+00 0. -1.
          3    1    6    6  503    0  0.17312985763E+03 -0.32076229761E+03 -0.58536556546E+02  0.36917330297E+03  0.00000000000E+00 0. -1.
         -3    1    6    6    0  503  0.35639434070E+02 -0.21051003500E+03 -0.26085623346E+02  0.21509324453E+03  0.00000000000E+00 0.  1.
<mgrwt>
<rscale>  0 0.15703723E+04</rscale>
<asrwt>0</asrwt>
<pdfrwt beam="1">  1        2 0.21543696E+00 0.15703723E+04</pdfrwt>
<pdfrwt beam="2">  1       -1 0.67732688E-01 0.15703723E+04</pdfrwt>
<totfact> 0.34970633E+01</totfact>
</mgrwt>
</event>
<event>
12    6  0.1529770E-007  0.1850537E+04  0.7818608E-02  0.8679877E-01
         -1   -1    0    0    0  501 -0.00000000000E+00  0.00000000000E+00  0.39749264016E+03  0.39749264016E+03  0.00000000000E+00 0.  1.
          2   -1    0    0  501    0  0.00000000000E+00 -0.00000000000E+00 -0.21538053415E+04  0.21538053415E+04  0.00000000000E+00 0. -1.
         24    2    1    2    0    0  0.49186112769E+03  0.42222672197E+03 -0.29507759527E+03  0.71679754715E+03  0.80778479090E+02 0.  0.
        254    2    1    2    0    0 -0.49186112769E+03 -0.42222672197E+03 -0.14612351060E+04  0.18345004345E+04  0.89998946401E+03 0.  0.
         23    2    4    4    0    0 -0.40921685217E+03 -0.40430320872E+03 -0.27943385298E+03  0.64627736489E+03  0.93121627457E+02 0.  0.
         23    2    4    4    0    0 -0.82644275519E+02 -0.17923513253E+02 -0.11818012531E+04  0.11882230696E+04  0.89825011970E+02 0.  0.
          4    1    3    3  502    0  0.17963951641E+03  0.12388609057E+03 -0.13292495978E+03  0.25551353041E+03  0.00000000000E+00 0. -1.
         -3    1    3    3    0  502  0.31222161128E+03  0.29834063140E+03 -0.16215263549E+03  0.46128401673E+03  0.00000000000E+00 0.  1.
         11    1    5    5    0    0 -0.16709496594E+03 -0.12721834682E+03 -0.62457110894E+02  0.21910300343E+03  0.00000000000E+00 0.  1.
        -11    1    5    5    0    0 -0.24212188622E+03 -0.27708486190E+03 -0.21697674208E+03  0.42717436146E+03  0.00000000000E+00 0. -1.
          2    1    6    6  503    0 -0.84987574383E+02  0.16273886576E+02 -0.94504919693E+03  0.94900248251E+03  0.00000000000E+00 0. -1.
         -2    1    6    6    0  503  0.23432988645E+01 -0.34197399829E+02 -0.23675205613E+03  0.23922058708E+03  0.00000000000E+00 0.  1.
<mgrwt>
<rscale>  0 0.18505370E+04</rscale>
<asrwt>0</asrwt>
<pdfrwt beam="1">  1        2 0.33135467E+00 0.18505370E+04</pdfrwt>
<pdfrwt beam="2">  1       -1 0.61152714E-01 0.18505370E+04</pdfrwt>
<totfact> 0.15919817E+01</totfact>
</mgrwt>
</event>
<event>
12    6  0.1529770E-007  0.1106720E+04  0.7818608E-02  0.9198666E-01
          2   -1    0    0  501    0  0.00000000000E+00  0.00000000000E+00  0.25450094043E+03  0.25450094043E+03  0.00000000000E+00 0. -1.
         -1   -1    0    0    0  501 -0.00000000000E+00 -0.00000000000E+00 -0.12031684274E+04  0.12031684274E+04  0.00000000000E+00 0.  1.
         24    2    1    2    0    0 -0.11310665578E+03  0.15770782360E+03 -0.11860086865E+03  0.23718155888E+03  0.67261078058E+02 0.  0.
        254    2    1    2    0    0  0.11310665578E+03 -0.15770782360E+03 -0.83006661835E+03  0.12204878090E+04  0.87345007172E+03 0.  0.
         23    2    4    4    0    0 -0.31532647073E+03 -0.10903172381E+03 -0.87569697482E+02  0.35709660557E+03  0.92362513237E+02 0.  0.
         23    2    4    4    0    0  0.42843312651E+03 -0.48676099791E+02 -0.74249692087E+03  0.86339120342E+03  0.90655314557E+02 0.  0.
          4    1    3    3  502    0 -0.21365563465E+01 -0.38163885488E+01 -0.14770051490E+02  0.15404029200E+02  0.00000000000E+00 0. -1.
         -3    1    3    3    0  502 -0.11097009944E+03  0.16152421215E+03 -0.10383081716E+03  0.22177752968E+03  0.00000000000E+00 0.  1.
         11    1    5    5    0    0 -0.31198593561E+03 -0.98939493098E+02 -0.98549977128E+02  0.34181331938E+03  0.00000000000E+00 0.  1.
        -11    1    5    5    0    0 -0.33405351185E+01 -0.10092230711E+02  0.10980279646E+02  0.15283286188E+02  0.00000000000E+00 0. -1.
          2    1    6    6  503    0  0.36411169557E+03 -0.60530617591E+02 -0.57172008374E+03  0.68051828533E+03  0.00000000000E+00 0.  1.
         -2    1    6    6    0  503  0.64321430944E+02  0.11854517800E+02 -0.17077683713E+03  0.18287291809E+03  0.00000000000E+00 0. -1.
<mgrwt>
<rscale>  0 0.11067204E+04</rscale>
<asrwt>0</asrwt>
<pdfrwt beam="1">  1        2 0.39153991E-01 0.11067204E+04</pdfrwt>
<pdfrwt beam="2">  1       -1 0.18510283E+00 0.11067204E+04</pdfrwt>
<totfact> 0.28741182E+01</totfact>
</mgrwt>
</event>
<event>
12    6  0.1529770E-007  0.2060603E+04  0.7818608E-02  0.8578799E-01
          2   -1    0    0  501    0  0.00000000000E+00  0.00000000000E+00  0.27406744464E+04  0.27406744464E+04  0.00000000000E+00 0. -1.
         -1   -1    0    0    0  501 -0.00000000000E+00 -0.00000000000E+00 -0.38732108220E+03  0.38732108220E+03  0.00000000000E+00 0.  1.
         24    2    1    2    0    0  0.17863086023E+03  0.23020535176E+03 -0.22725232650E+03  0.37797073771E+03  0.79465530005E+02 0.  0.
        254    2    1    2    0    0 -0.17863086023E+03 -0.23020535176E+03  0.25806056907E+04  0.27500247909E+04  0.90454802603E+03 0.  0.
         23    2    4    4    0    0 -0.46431569379E+03 -0.29292811306E+03  0.21548256257E+04  0.22254922719E+04  0.90257588453E+02 0.  0.
         23    2    4    4    0    0  0.28568483356E+03  0.62722761301E+02  0.42578006500E+03  0.52453251896E+03  0.91080902420E+02 0.  0.
          2    1    3    3  502    0  0.86249773703E+01  0.28509964959E+02 -0.56123266329E+02  0.63537621612E+02  0.00000000000E+00 0. -1.
         -1    1    3    3    0  502  0.17000588286E+03  0.20169538680E+03 -0.17112906017E+03  0.31443311610E+03  0.00000000000E+00 0.  1.
         11    1    5    5    0    0 -0.85608470456E+02 -0.16802429934E+02  0.30712815611E+03  0.31927861836E+03  0.00000000000E+00 0. -1.
        -11    1    5    5    0    0 -0.37870722334E+03 -0.27612568313E+03  0.18476974696E+04  0.19062136536E+04  0.00000000000E+00 0.  1.
          3    1    6    6  503    0  0.33996147432E+01  0.20615945465E+02  0.26961537762E+02  0.34110102702E+02  0.00000000000E+00 0. -1.
         -3    1    6    6    0  503  0.28228521882E+03  0.42106815836E+02  0.39881852724E+03  0.49042241626E+03  0.00000000000E+00 0.  1.
<mgrwt>
<rscale>  0 0.20606028E+04</rscale>
<asrwt>0</asrwt>
<pdfrwt beam="1">  1        2 0.42164221E+00 0.20606028E+04</pdfrwt>
<pdfrwt beam="2">  1       -1 0.59587860E-01 0.20606028E+04</pdfrwt>
<totfact> 0.75514404E+00</totfact>
</mgrwt>
</event>
<event>
12    6  0.1529770E-007  0.1823403E+04  0.7818608E-02  0.8693952E-01
         -1   -1    0    0    0  501 -0.00000000000E+00  0.00000000000E+00  0.37891834920E+03  0.37891834920E+03  0.00000000000E+00 0.  1.
          2   -1    0    0  501    0  0.00000000000E+00 -0.00000000000E+00 -0.21936109162E+04  0.21936109162E+04  0.00000000000E+00 0. -1.
         24    2    1    2    0    0 -0.40311358937E+03  0.43357131128E+03 -0.22326427303E+03  0.63769242502E+03  0.79498713354E+02 0.  0.
        254    2    1    2    0    0  0.40311358937E+03 -0.43357131128E+03 -0.15914282940E+04  0.19348368404E+04  0.92761249244E+03 0.  0.
         23    2    4    4    0    0  0.52233078161E+02  0.79964566210E+02  0.77263278734E+02  0.15158517316E+03  0.88802163144E+02 0.  0.
         23    2    4    4    0    0  0.35088051121E+03 -0.51353587749E+03 -0.16686915727E+04  0.17832516672E+04  0.92837024849E+02 0.  0.
          4    1    3    3  502    0 -0.38955373883E+02  0.66851579989E+02 -0.52076134061E+02  0.93266170930E+02  0.00000000000E+00 0. -1.
         -3    1    3    3    0  502 -0.36415821549E+03  0.36671973129E+03 -0.17118813897E+03  0.54442625409E+03  0.00000000000E+00 0.  1.
         11    1    5    5    0    0  0.38042248381E+02  0.63157574785E+02  0.97130694983E+02  0.12194451124E+03  0.00000000000E+00 0. -1.
        -11    1    5    5    0    0  0.14190829780E+02  0.16806991425E+02 -0.19867416249E+02  0.29640661920E+02  0.00000000000E+00 0.  1.
          3    1    6    6  503    0  0.82905363380E+02 -0.61101178934E+02 -0.27902482977E+03  0.29742479549E+03  0.00000000000E+00 0.  1.
         -3    1    6    6    0  503  0.26797514783E+03 -0.45243469855E+03 -0.13896667429E+04  0.14858268717E+04  0.00000000000E+00 0. -1.
<mgrwt>
<rscale>  0 0.18234028E+04</rscale>
<asrwt>0</asrwt>
<pdfrwt beam="1">  1        2 0.33747861E+00 0.18234028E+04</pdfrwt>
<pdfrwt beam="2">  1       -1 0.58295130E-01 0.18234028E+04</pdfrwt>
<totfact> 0.16661927E+01</totfact>
</mgrwt>
</event>
<event>
12    6  0.1529770E-007  0.1397743E+04  0.7818608E-02  0.8955454E-01
          2   -1    0    0  501    0  0.00000000000E+00  0.00000000000E+00  0.10584308626E+04  0.10584308626E+04  0.00000000000E+00 0. -1.
         -1   -1    0    0    0  501 -0.00000000000E+00 -0.00000000000E+00 -0.46145819237E+03  0.46145819237E+03  0.00000000000E+00 0.  1.
         24    2    1    2    0    0 -0.66285806551E+02  0.16127232775E+02  0.60441543314E+03  0.61333642798E+03  0.78801410414E+02 0.  0.
        254    2    1    2    0    0  0.66285806551E+02 -0.16127232775E+02 -0.74427628818E+01  0.90655262702E+03  0.90395153357E+03 0.  0.
         23    2    4    4    0    0  0.12052860719E+02  0.80312076462E+02  0.42946468559E+03  0.44656808442E+03  0.91585134005E+02 0.  0.
         23    2    4    4    0    0  0.54232945832E+02 -0.96439309237E+02 -0.43690744848E+03  0.45998454260E+03  0.91956011867E+02 0.  0.
          4    1    3    3  502    0 -0.84294996546E+02  0.89183825721E+01  0.50002362495E+03  0.50715757857E+03  0.00000000000E+00 0. -1.
         -3    1    3    3    0  502  0.18009189995E+02  0.72088502031E+01  0.10439180819E+03  0.10617884941E+03  0.00000000000E+00 0.  1.
         11    1    5    5    0    0  0.30370481603E+02  0.29196740689E+02  0.33477025032E+03  0.33741063457E+03  0.00000000000E+00 0.  1.
        -11    1    5    5    0    0 -0.18317620885E+02  0.51115335772E+02  0.94694435277E+02  0.10915744985E+03  0.00000000000E+00 0. -1.
          3    1    6    6  503    0  0.54217674719E+02 -0.10846978186E+03 -0.31582014571E+03  0.33830107045E+03  0.00000000000E+00 0. -1.
         -3    1    6    6    0  503  0.15271113497E-01  0.12030472621E+02 -0.12108730277E+03  0.12168347216E+03  0.00000000000E+00 0.  1.
<mgrwt>
<rscale>  0 0.13977433E+04</rscale>
<asrwt>0</asrwt>
<pdfrwt beam="1">  1        2 0.16283552E+00 0.13977433E+04</pdfrwt>
<pdfrwt beam="2">  1       -1 0.70993568E-01 0.13977433E+04</pdfrwt>
<totfact> 0.51469353E+01</totfact>
</mgrwt>
</event>
<event>
12    6  0.1529770E-007  0.1066517E+04  0.7818608E-02  0.9238456E-01
          2   -1    0    0  501    0  0.00000000000E+00  0.00000000000E+00  0.15186956148E+04  0.15186956148E+04  0.00000000000E+00 0. -1.
         -1   -1    0    0    0  501 -0.00000000000E+00 -0.00000000000E+00 -0.18724263504E+03  0.18724263504E+03  0.00000000000E+00 0.  1.
         24    2    1    2    0    0  0.85990322170E+02 -0.97111363752E+01  0.19224615257E+02  0.11291027714E+03  0.69932132647E+02 0.  0.
        254    2    1    2    0    0 -0.85990322170E+02  0.97111363752E+01  0.13122283646E+04  0.15930279727E+04  0.89905850730E+03 0.  0.
         23    2    4    4    0    0 -0.39720243240E+03 -0.11679803794E+03  0.11157191492E+04  0.11936238235E+04  0.92179489584E+02 0.  0.
         23    2    4    4    0    0  0.31121211023E+03  0.12650917432E+03  0.19650921538E+03  0.39940414921E+03  0.89723207365E+02 0.  0.
          2    1    3    3  502    0 -0.47636830292E+01 -0.60731957440E+01  0.20678153912E+02  0.22071756426E+02  0.00000000000E+00 0. -1.
         -1    1    3    3    0  502  0.90754005199E+02 -0.36379406312E+01 -0.14535386545E+01  0.90838520718E+02  0.00000000000E+00 0.  1.
         11    1    5    5    0    0 -0.14415780244E+03 -0.71032408242E+02  0.53268433311E+03  0.55639884414E+03  0.00000000000E+00 0. -1.
        -11    1    5    5    0    0 -0.25304462996E+03 -0.45765629703E+02  0.58303481606E+03  0.63722497939E+03  0.00000000000E+00 0.  1.
          3    1    6    6  503    0  0.61989560894E+02  0.10877049922E+02  0.77917582832E+02  0.10016069883E+03  0.00000000000E+00 0. -1.
         -3    1    6    6    0  503  0.24922254934E+03  0.11563212440E+03  0.11859163255E+03  0.29924345039E+03  0.00000000000E+00 0.  1.
<mgrwt>
<rscale>  0 0.10665169E+04</rscale>
<asrwt>0</asrwt>
<pdfrwt beam="1">  1        2 0.23364547E+00 0.10665169E+04</pdfrwt>
<pdfrwt beam="2">  1       -1 0.28806560E-01 0.10665169E+04</pdfrwt>
<totfact> 0.15374150E+02</totfact>
</mgrwt>
</event>
<event>
12    6  0.1529770E-007  0.2050957E+04  0.7818608E-02  0.8583160E-01
          2   -1    0    0  501    0  0.00000000000E+00  0.00000000000E+00  0.11342409157E+04  0.11342409157E+04  0.00000000000E+00 0. -1.
         -1   -1    0    0    0  501 -0.00000000000E+00 -0.00000000000E+00 -0.92714539814E+03  0.92714539814E+03  0.00000000000E+00 0.  1.
         24    2    1    2    0    0 -0.17460457208E+03  0.24079486033E+03 -0.68829169246E+03  0.75392315589E+03  0.78649537386E+02 0.  0.
        254    2    1    2    0    0  0.17460457208E+03 -0.24079486033E+03  0.89538721005E+03  0.13074631580E+04  0.90513685828E+03 0.  0.
         23    2    4    4    0    0  0.23138900218E+03  0.27655864397E+03  0.58913860361E+03  0.69688166572E+03  0.92380776525E+02 0.  0.
         23    2    4    4    0    0 -0.56784430102E+02 -0.51735350430E+03  0.30624860643E+03  0.61058149226E+03  0.90235413391E+02 0.  0.
          2    1    3    3  502    0 -0.54703490943E+02  0.13191267254E+03 -0.27144834606E+03  0.30672076825E+03  0.00000000000E+00 0. -1.
         -1    1    3    3    0  502 -0.11990108113E+03  0.10888218779E+03 -0.41684334640E+03  0.44720238764E+03  0.00000000000E+00 0.  1.
         11    1    5    5    0    0  0.21970554375E+03  0.22005778008E+03  0.45773031639E+03  0.55336515527E+03  0.00000000000E+00 0. -1.
        -11    1    5    5    0    0  0.11683458431E+02  0.56500863893E+02  0.13140828723E+03  0.14351651046E+03  0.00000000000E+00 0.  1.
          2    1    6    6  503    0 -0.41789337023E+02 -0.36744296886E+03  0.16829877871E+03  0.40630673508E+03  0.00000000000E+00 0. -1.
         -2    1    6    6    0  503 -0.14995093079E+02 -0.14991053544E+03  0.13794982772E+03  0.20427475718E+03  0.00000000000E+00 0.  1.
<mgrwt>
<rscale>  0 0.20509571E+04</rscale>
<asrwt>0</asrwt>
<pdfrwt beam="1">  1        2 0.17449860E+00 0.20509571E+04</pdfrwt>
<pdfrwt beam="2">  1       -1 0.14263775E+00 0.20509571E+04</pdfrwt>
<totfact> 0.87399184E+00</totfact>
</mgrwt>
</event>
<event>
12    6  0.1529770E-007  0.2054136E+04  0.7818608E-02  0.8581721E-01
          2   -1    0    0  501    0  0.00000000000E+00  0.00000000000E+00  0.46681040466E+04  0.46681040466E+04  0.00000000000E+00 0. -1.
         -1   -1    0    0    0  501 -0.00000000000E+00 -0.00000000000E+00 -0.22597360551E+03  0.22597360551E+03  0.00000000000E+00 0.  1.
         24    2    1    2    0    0 -0.80456858114E+03  0.21222153031E+03  0.18369355426E+04  0.20181379316E+04  0.78612617588E+02 0.  0.
        254    2    1    2    0    0  0.80456858114E+03 -0.21222153031E+03  0.26051948986E+04  0.28759397206E+04  0.88973042947E+03 0.  0.
         23    2    4    4    0    0  0.67254960730E+03  0.25220505976E+03  0.14599098030E+04  0.16295528381E+04  0.90418210230E+02 0.  0.
         23    2    4    4    0    0  0.13201897384E+03 -0.46442659007E+03  0.11452850956E+04  0.12463868825E+04  0.93173191929E+02 0.  0.
          4    1    3    3  502    0 -0.56687166854E+03  0.16386154264E+03  0.13784682310E+04  0.14994561539E+04  0.00000000000E+00 0. -1.
         -3    1    3    3    0  502 -0.23769691260E+03  0.48359987670E+02  0.45846731161E+03  0.51868177766E+03  0.00000000000E+00 0.  1.
         11    1    5    5    0    0  0.67158893473E+03  0.24900426845E+03  0.14599744261E+04  0.16262103640E+04  0.00000000000E+00 0.  1.
        -11    1    5    5    0    0  0.96067257106E+00  0.32007913057E+01 -0.64623158645E-01  0.33424740724E+01  0.00000000000E+00 0. -1.
          1    1    6    6  503    0  0.12209804851E+03 -0.33658699077E+03  0.91919349748E+03  0.98646612797E+03  0.00000000000E+00 0.  1.
         -1    1    6    6    0  503  0.99209253216E+01 -0.12783959929E+03  0.22609159809E+03  0.25992075453E+03  0.00000000000E+00 0. -1.
<mgrwt>
<rscale>  0 0.20541356E+04</rscale>
<asrwt>0</asrwt>
<pdfrwt beam="1">  1        2 0.71816978E+00 0.20541356E+04</pdfrwt>
<pdfrwt beam="2">  1       -1 0.34765174E-01 0.20541356E+04</pdfrwt>
<totfact> 0.69842836E-01</totfact>
</mgrwt>
</event>
<event>
12    6  0.3039161E-007  0.1504522E+04  0.7818608E-02  0.8881451E-01
          2   -1    0    0  501    0  0.00000000000E+00  0.00000000000E+00  0.19162887644E+04  0.19162887644E+04  0.00000000000E+00 0. -1.
         -1   -1    0    0    0  501 -0.00000000000E+00 -0.00000000000E+00 -0.29530861094E+03  0.29530861094E+03  0.00000000000E+00 0.  1.
         24    2    1    2    0    0 -0.24175732371E+03 -0.35008780286E+02 -0.13154338035E+03  0.28858927057E+03  0.79422212942E+02 0.  0.
        254    2    1    2    0    0  0.24175732371E+03  0.35008780286E+02  0.17525235338E+04  0.19230081048E+04  0.75296030189E+03 0.  0.
         23    2    4    4    0    0 -0.17842989348E+03 -0.13512732622E+03  0.10814400608E+04  0.11083121045E+04  0.93522695924E+02 0.  0.
         23    2    4    4    0    0  0.42018721719E+03  0.17013610651E+03  0.67108347302E+03  0.81469600030E+03  0.88729662066E+02 0.  0.
          2    1    3    3  502    0 -0.17553862871E+02  0.18194325510E+02 -0.52549313697E+01  0.25822197547E+02  0.00000000000E+00 0. -1.
         -1    1    3    3    0  502 -0.22420346084E+03 -0.53203105795E+02 -0.12628844898E+03  0.26276707302E+03  0.00000000000E+00 0.  1.
         11    1    5    5    0    0 -0.15652842264E+03 -0.12613020863E+03  0.10493560496E+04  0.10684372211E+04  0.00000000000E+00 0. -1.
        -11    1    5    5    0    0 -0.21901470838E+02 -0.89971175941E+01  0.32084011266E+02  0.39874883433E+02  0.00000000000E+00 0.  1.
          2    1    6    6  503    0  0.36842534406E+03  0.17555178623E+03  0.57050002323E+03  0.70144560751E+03  0.00000000000E+00 0. -1.
         -2    1    6    6    0  503  0.51761873124E+02 -0.54156797188E+01  0.10058344979E+03  0.11325039279E+03  0.00000000000E+00 0.  1.
<mgrwt>
<rscale>  0 0.15045219E+04</rscale>
<asrwt>0</asrwt>
<pdfrwt beam="1">  1        2 0.29481365E+00 0.15045219E+04</pdfrwt>
<pdfrwt beam="2">  1       -1 0.45432095E-01 0.15045219E+04</pdfrwt>
<totfact> 0.39369618E+01</totfact>
</mgrwt>
</event>
<event>
12    6  0.1529770E-007  0.1522554E+04  0.7818608E-02  0.8869592E-01
         -1   -1    0    0    0  501 -0.00000000000E+00  0.00000000000E+00  0.23745337856E+03  0.23745337856E+03  0.00000000000E+00 0.  1.
          2   -1    0    0  501    0  0.00000000000E+00 -0.00000000000E+00 -0.24406588297E+04  0.24406588297E+04  0.00000000000E+00 0. -1.
         24    2    1    2    0    0 -0.25185157273E+03 -0.35403770195E+03 -0.33090783840E+03  0.55202394528E+03  0.80364977211E+02 0.  0.
        254    2    1    2    0    0  0.25185157273E+03  0.35403770195E+03 -0.18722976127E+04  0.21260882630E+04  0.90883499176E+03 0.  0.
         23    2    4    4    0    0  0.22313963902E+03 -0.25900756085E+03 -0.43643033149E+03  0.56202370279E+03  0.92320058343E+02 0.  0.
         23    2    4    4    0    0  0.28711933703E+02  0.61304526280E+03 -0.14358672812E+04  0.15640645602E+04  0.89074293253E+02 0.  0.
          4    1    3    3  502    0 -0.10354319304E+03 -0.13043316733E+03 -0.17555034335E+03  0.24197505453E+03  0.00000000000E+00 0. -1.
         -3    1    3    3    0  502 -0.14830837969E+03 -0.22360453462E+03 -0.15535749505E+03  0.31004889075E+03  0.00000000000E+00 0.  1.
         11    1    5    5    0    0  0.33112297925E+02 -0.84432267842E+02 -0.15966115923E+03  0.18362167055E+03  0.00000000000E+00 0. -1.
        -11    1    5    5    0    0  0.19002734110E+03 -0.17457529301E+03 -0.27676917226E+03  0.37840203225E+03  0.00000000000E+00 0.  1.
          1    1    6    6  503    0  0.23846153079E+02  0.61251881070E+02 -0.11311716234E+03  0.13082784248E+03  0.00000000000E+00 0. -1.
         -1    1    6    6    0  503  0.48657806236E+01  0.55179338173E+03 -0.13227501189E+04  0.14332367177E+04  0.00000000000E+00 0.  1.
<mgrwt>
<rscale>  0 0.15225540E+04</rscale>
<asrwt>0</asrwt>
<pdfrwt beam="1">  1        2 0.37548597E+00 0.15225540E+04</pdfrwt>
<pdfrwt beam="2">  1       -1 0.36531290E-01 0.15225540E+04</pdfrwt>
<totfact> 0.29795666E+01</totfact>
</mgrwt>
</event>
<event>
12    6  0.1529770E-007  0.4146814E+04  0.7818608E-02  0.7975567E-01
          2   -1    0    0  501    0  0.00000000000E+00  0.00000000000E+00  0.17392598969E+04  0.17392598969E+04  0.00000000000E+00 0. -1.
         -1   -1    0    0    0  501 -0.00000000000E+00 -0.00000000000E+00 -0.24717505778E+04  0.24717505778E+04  0.00000000000E+00 0.  1.
         24    2    1    2    0    0 -0.51661163276E+03 -0.63492697004E+03  0.14756077694E+04  0.16896438477E+04  0.86360909511E+02 0.  0.
        254    2    1    2    0    0  0.51661163276E+03  0.63492697004E+03 -0.22080984502E+04  0.25213666270E+04  0.90087239145E+03 0.  0.
         23    2    4    4    0    0  0.39217830759E+03  0.68154036872E+03 -0.22226403445E+04  0.23593773176E+04  0.90720045922E+02 0.  0.
         23    2    4    4    0    0  0.12443332517E+03 -0.46613398679E+02  0.14541894358E+02  0.16198930935E+03  0.91501957921E+02 0.  0.
          2    1    3    3  502    0 -0.28612155647E+03 -0.28749651386E+03  0.75844102046E+03  0.86008870012E+03  0.00000000000E+00 0. -1.
         -1    1    3    3    0  502 -0.23049007629E+03 -0.34743045618E+03  0.71716674889E+03  0.82955514757E+03  0.00000000000E+00 0.  1.
         11    1    5    5    0    0  0.29346938199E+03  0.49720051609E+03 -0.17431730461E+04  0.18362965175E+04  0.00000000000E+00 0. -1.
        -11    1    5    5    0    0  0.98708925599E+02  0.18433985262E+03 -0.47946729841E+03  0.52308080017E+03  0.00000000000E+00 0.  1.
          1    1    6    6  503    0  0.45038795835E+02 -0.12566716486E+00  0.46363717845E+02  0.64638249164E+02  0.00000000000E+00 0. -1.
         -1    1    6    6    0  503  0.79394529333E+02 -0.46487731514E+02 -0.31821823487E+02  0.97351060186E+02  0.00000000000E+00 0.  1.
<mgrwt>
<rscale>  0 0.41468140E+04</rscale>
<asrwt>0</asrwt>
<pdfrwt beam="1">  1        2 0.26757845E+00 0.41468140E+04</pdfrwt>
<pdfrwt beam="2">  1       -1 0.38026932E+00 0.41468140E+04</pdfrwt>
<totfact> 0.80612879E-02</totfact>
</mgrwt>
</event>
<event>
12    6  0.1529770E-007  0.1990637E+04  0.7818608E-02  0.8611011E-01
          2   -1    0    0  501    0  0.00000000000E+00  0.00000000000E+00  0.17058082294E+04  0.17058082294E+04  0.00000000000E+00 0. -1.
         -1   -1    0    0    0  501 -0.00000000000E+00 -0.00000000000E+00 -0.58075651682E+03  0.58075651682E+03  0.00000000000E+00 0.  1.
         24    2    1    2    0    0 -0.37183534811E+03  0.24750182697E+03 -0.30194817347E+03  0.54724736087E+03  0.93745901607E+02 0.  0.
        254    2    1    2    0    0  0.37183534811E+03 -0.24750182697E+03  0.14269998860E+04  0.17393173853E+04  0.88846925198E+03 0.  0.
         23    2    4    4    0    0  0.15880295094E+03 -0.55051461899E+03  0.10631570138E+04  0.12118217498E+04  0.99621255141E+02 0.  0.
         23    2    4    4    0    0  0.21303239717E+03  0.30301279202E+03  0.36384287222E+03  0.52749563547E+03  0.93115280142E+02 0.  0.
          4    1    3    3  502    0 -0.13412381641E+02  0.14568076322E+02  0.56762462387E+01  0.20599529130E+02  0.00000000000E+00 0. -1.
         -3    1    3    3    0  502 -0.35842296647E+03  0.23293375064E+03 -0.30762441971E+03  0.52664783174E+03  0.00000000000E+00 0.  1.
         11    1    5    5    0    0  0.13227428593E+03 -0.45197098427E+03  0.78363209651E+03  0.91425025022E+03  0.00000000000E+00 0. -1.
        -11    1    5    5    0    0  0.26528665006E+02 -0.98543634724E+02  0.27952491727E+03  0.29757149962E+03  0.00000000000E+00 0.  1.
          4    1    6    6  503    0  0.57301842578E+02  0.13502654662E+03  0.18946001163E+03  0.23960543705E+03  0.00000000000E+00 0. -1.
         -4    1    6    6    0  503  0.15573055459E+03  0.16798624541E+03  0.17438286059E+03  0.28789019842E+03  0.00000000000E+00 0.  1.
<mgrwt>
<rscale>  0 0.19906373E+04</rscale>
<asrwt>0</asrwt>
<pdfrwt beam="1">  1        2 0.26243203E+00 0.19906373E+04</pdfrwt>
<pdfrwt beam="2">  1       -1 0.89347157E-01 0.19906373E+04</pdfrwt>
<totfact> 0.12652830E+01</totfact>
</mgrwt>
</event>
<event>
12    6  0.1529770E-007  0.1588665E+04  0.7818608E-02  0.8827542E-01
          2   -1    0    0  501    0  0.00000000000E+00  0.00000000000E+00  0.81260199351E+03  0.81260199351E+03  0.00000000000E+00 0. -1.
         -1   -1    0    0    0  501 -0.00000000000E+00 -0.00000000000E+00 -0.77647380854E+03  0.77647380854E+03  0.00000000000E+00 0.  1.
         24    2    1    2    0    0  0.14074891084E+03  0.46394106946E+03  0.20413123682E+03  0.53319719871E+03  0.87052392447E+02 0.  0.
        254    2    1    2    0    0 -0.14074891084E+03 -0.46394106946E+03 -0.16800305185E+03  0.10558786033E+04  0.92282340008E+03 0.  0.
         23    2    4    4    0    0 -0.41457421826E+03  0.73567001499E+02 -0.45309887027E+02  0.43339237339E+03  0.92152467656E+02 0.  0.
         23    2    4    4    0    0  0.27382530743E+03 -0.53750807096E+03 -0.12269316482E+03  0.62248622995E+03  0.92413572883E+02 0.  0.
          2    1    3    3  502    0  0.44223052638E+02  0.19202544705E+03  0.12732921935E+03  0.23461070052E+03  0.00000000000E+00 0. -1.
         -1    1    3    3    0  502  0.96525858197E+02  0.27191562240E+03  0.76802017473E+02  0.29858649818E+03  0.00000000000E+00 0.  1.
         11    1    5    5    0    0 -0.25986020422E+02 -0.15662316885E+02  0.73770588981E+01  0.31225028832E+02  0.00000000000E+00 0. -1.
        -11    1    5    5    0    0 -0.38858819784E+03  0.89229318384E+02 -0.52686945925E+02  0.40216734456E+03  0.00000000000E+00 0.  1.
          2    1    6    6  503    0  0.23111077840E+03 -0.39854288408E+03 -0.12399397767E+03  0.47709865735E+03  0.00000000000E+00 0. -1.
         -2    1    6    6    0  503  0.42714529027E+02 -0.13896518688E+03  0.13008128474E+01  0.14538757260E+03  0.00000000000E+00 0.  1.
<mgrwt>
<rscale>  0 0.15886651E+04</rscale>
<asrwt>0</asrwt>
<pdfrwt beam="1">  1        2 0.12501569E+00 0.15886651E+04</pdfrwt>
<pdfrwt beam="2">  1       -1 0.11945751E+00 0.15886651E+04</pdfrwt>
<totfact> 0.23143573E+01</totfact>
</mgrwt>
</event>
<event>
12    6  0.1529770E-007  0.1442165E+04  0.7818608E-02  0.8923850E-01
          2   -1    0    0  501    0  0.00000000000E+00  0.00000000000E+00  0.19933333348E+04  0.19933333348E+04  0.00000000000E+00 0. -1.
         -1   -1    0    0    0  501 -0.00000000000E+00 -0.00000000000E+00 -0.26084964500E+03  0.26084964500E+03  0.00000000000E+00 0.  1.
         24    2    1    2    0    0 -0.41783239180E+03  0.13132346013E+03  0.46933210927E+03  0.64483148820E+03  0.60870851470E+02 0.  0.
        254    2    1    2    0    0  0.41783239180E+03 -0.13132346013E+03  0.12631515805E+04  0.16093514916E+04  0.89589650591E+03 0.  0.
         23    2    4    4    0    0  0.63012964959E+03 -0.88950656888E+02  0.51594921500E+03  0.82455045311E+03  0.93296637787E+02 0.  0.
         23    2    4    4    0    0 -0.21229725779E+03 -0.42372803241E+02  0.74720236555E+03  0.78480103851E+03  0.10361329468E+03 0.  0.
          4    1    3    3  502    0 -0.23462424331E+03  0.73029099782E+02  0.30681678241E+03  0.39308818722E+03  0.00000000000E+00 0. -1.
         -3    1    3    3    0  502 -0.18320814849E+03  0.58294360346E+02  0.16251532686E+03  0.25174330097E+03  0.00000000000E+00 0.  1.
         11    1    5    5    0    0  0.50207704668E+03 -0.32294875372E+02  0.40732789129E+03  0.64733324556E+03  0.00000000000E+00 0. -1.
        -11    1    5    5    0    0  0.12805260290E+03 -0.56655781516E+02  0.10862132371E+03  0.17721720755E+03  0.00000000000E+00 0.  1.
          1    1    6    6  503    0 -0.96952154780E+02 -0.53325437271E+02  0.49560978842E+03  0.50781136749E+03  0.00000000000E+00 0. -1.
         -1    1    6    6    0  503 -0.11534510301E+03  0.10952634030E+02  0.25159257713E+03  0.27698967101E+03  0.00000000000E+00 0.  1.
<mgrwt>
<rscale>  0 0.14421654E+04</rscale>
<asrwt>0</asrwt>
<pdfrwt beam="1">  1        2 0.30666666E+00 0.14421654E+04</pdfrwt>
<pdfrwt beam="2">  1       -1 0.40130716E-01 0.14421654E+04</pdfrwt>
<totfact> 0.45118030E+01</totfact>
</mgrwt>
</event>
<event>
12    6  0.1529770E-007  0.1079809E+04  0.7818608E-02  0.9225098E-01
         -3   -1    0    0    0  501 -0.00000000000E+00  0.00000000000E+00  0.30645308058E+03  0.30645308058E+03  0.00000000000E+00 0.  1.
          4   -1    0    0  501    0  0.00000000000E+00 -0.00000000000E+00 -0.95119538137E+03  0.95119538137E+03  0.00000000000E+00 0. -1.
         24    2    1    2    0    0 -0.30657218173E+02  0.12734232929E+03 -0.29129457823E+02  0.15337714185E+03  0.74297297889E+02 0.  0.
        254    2    1    2    0    0  0.30657218173E+02 -0.12734232929E+03 -0.61561284297E+03  0.11042713201E+04  0.90734780659E+03 0.  0.
         23    2    4    4    0    0 -0.36054049689E+02  0.56859983638E+01 -0.82472176792E+03  0.83056832173E+03  0.91353803934E+02 0.  0.
         23    2    4    4    0    0  0.66711267863E+02 -0.13302832765E+03  0.20910892495E+03  0.27370299837E+03  0.95078176288E+02 0.  0.
          2    1    3    3  502    0  0.70754933126E+01 -0.71578393062E+01 -0.61835441425E+01  0.11812429357E+02  0.00000000000E+00 0. -1.
         -1    1    3    3    0  502 -0.37732711486E+02  0.13450016859E+03 -0.22945913681E+02  0.14156471249E+03  0.00000000000E+00 0.  1.
         11    1    5    5    0    0 -0.20648427416E+02 -0.28843270083E+02 -0.12808416013E+03  0.13290539440E+03  0.00000000000E+00 0. -1.
        -11    1    5    5    0    0 -0.15405622273E+02  0.34529268447E+02 -0.69663760779E+03  0.69766292733E+03  0.00000000000E+00 0.  1.
          2    1    6    6  503    0  0.36668803773E+02 -0.14081082382E+03  0.17494626888E+03  0.22754886567E+03  0.00000000000E+00 0.  1.
         -2    1    6    6    0  503  0.30042464090E+02  0.77824961690E+01  0.34162656079E+02  0.46154132703E+02  0.00000000000E+00 0. -1.
<mgrwt>
<rscale>  0 0.10798088E+04</rscale>
<asrwt>0</asrwt>
<pdfrwt beam="1">  1        4 0.14633775E+00 0.10798088E+04</pdfrwt>
<pdfrwt beam="2">  1       -3 0.47146628E-01 0.10798088E+04</pdfrwt>
<totfact> 0.32276644E+00</totfact>
</mgrwt>
</event>
<event>
12    6  0.1529770E-007  0.2645530E+04  0.7818608E-02  0.8352898E-01
          2   -1    0    0  501    0  0.00000000000E+00  0.00000000000E+00  0.20835490707E+04  0.20835490707E+04  0.00000000000E+00 0. -1.
         -1   -1    0    0    0  501 -0.00000000000E+00 -0.00000000000E+00 -0.83977225765E+03  0.83977225765E+03  0.00000000000E+00 0.  1.
         24    2    1    2    0    0 -0.43358499926E+03  0.41520886031E+03 -0.54982403774E+03  0.81810090003E+03  0.81168102640E+02 0.  0.
        254    2    1    2    0    0  0.43358499926E+03 -0.41520886031E+03  0.17936008508E+04  0.21052204284E+04  0.92442127335E+03 0.  0.
         23    2    4    4    0    0  0.59299616459E+02  0.25859741170E+03  0.24218299781E+03  0.37043755235E+03  0.90456121495E+02 0.  0.
         23    2    4    4    0    0  0.37428538280E+03 -0.67380627201E+03  0.15514178530E+04  0.17347828760E+04  0.92031691407E+02 0.  0.
          2    1    3    3  502    0 -0.15186042299E+03  0.12482546110E+03 -0.13385469971E+03  0.23782359943E+03  0.00000000000E+00 0. -1.
         -1    1    3    3    0  502 -0.28172457626E+03  0.29038339922E+03 -0.41596933803E+03  0.58027730061E+03  0.00000000000E+00 0.  1.
         11    1    5    5    0    0  0.42332985016E+02  0.21465119575E+03  0.23778700568E+03  0.32312517315E+03  0.00000000000E+00 0. -1.
        -11    1    5    5    0    0  0.16966631442E+02  0.43946215947E+02  0.43959921335E+01  0.47312379198E+02  0.00000000000E+00 0.  1.
          2    1    6    6  503    0  0.35456600101E+03 -0.58340809083E+03  0.13937119570E+04  0.15519391317E+04  0.00000000000E+00 0. -1.
         -2    1    6    6    0  503  0.19719381786E+02 -0.90398181184E+02  0.15770589603E+03  0.18284374428E+03  0.00000000000E+00 0.  1.
<mgrwt>
<rscale>  0 0.26455296E+04</rscale>
<asrwt>0</asrwt>
<pdfrwt beam="1">  1        2 0.32054601E+00 0.26455296E+04</pdfrwt>
<pdfrwt beam="2">  1       -1 0.12919573E+00 0.26455296E+04</pdfrwt>
<totfact> 0.30992566E+00</totfact>
</mgrwt>
</event>
<event>
12    6  0.1529770E-007  0.1640504E+04  0.7818608E-02  0.8796044E-01
         -1   -1    0    0    0  501 -0.00000000000E+00  0.00000000000E+00  0.43384883552E+03  0.43384883552E+03  0.00000000000E+00 0.  1.
          2   -1    0    0  501    0  0.00000000000E+00 -0.00000000000E+00 -0.15508018467E+04  0.15508018467E+04  0.00000000000E+00 0. -1.
         24    2    1    2    0    0 -0.50660405078E+03  0.23037797129E+03 -0.37516158895E+03  0.67593759394E+03  0.80148232390E+02 0.  0.
        254    2    1    2    0    0  0.50660405078E+03 -0.23037797129E+03 -0.74179142227E+03  0.13087130883E+04  0.92344667385E+03 0.  0.
         23    2    4    4    0    0 -0.89309578666E+02 -0.19709077590E+03  0.11428669038E+03  0.26123255375E+03  0.91433170977E+02 0.  0.
         23    2    4    4    0    0  0.59591362945E+03 -0.33287195393E+02 -0.85607811265E+03  0.10474805346E+04  0.90136808277E+02 0.  0.
          4    1    3    3  502    0 -0.14604064168E+03  0.58141746586E+02 -0.64990639229E+02  0.17009442938E+03  0.00000000000E+00 0. -1.
         -3    1    3    3    0  502 -0.36056340910E+03  0.17223622471E+03 -0.31017094972E+03  0.50584316456E+03  0.00000000000E+00 0.  1.
         11    1    5    5    0    0 -0.43525885881E+02 -0.56452674850E+02  0.84161342155E+02  0.11029296783E+03  0.00000000000E+00 0. -1.
        -11    1    5    5    0    0 -0.45783692785E+02 -0.14063810105E+03  0.30125348220E+02  0.15093958592E+03  0.00000000000E+00 0.  1.
          1    1    6    6  503    0  0.29027575609E+03 -0.60579949368E+02 -0.40636983080E+03  0.50305703874E+03  0.00000000000E+00 0. -1.
         -1    1    6    6    0  503  0.30563787336E+03  0.27292753975E+02 -0.44970828185E+03  0.54442349583E+03  0.00000000000E+00 0.  1.
<mgrwt>
<rscale>  0 0.16405043E+04</rscale>
<asrwt>0</asrwt>
<pdfrwt beam="1">  1        2 0.23858490E+00 0.16405043E+04</pdfrwt>
<pdfrwt beam="2">  1       -1 0.66745975E-01 0.16405043E+04</pdfrwt>
<totfact> 0.29436541E+01</totfact>
</mgrwt>
</event>
<event>
12    6  0.1529770E-007  0.2777925E+04  0.7818608E-02  0.8310155E-01
         -1   -1    0    0    0  501 -0.00000000000E+00  0.00000000000E+00  0.80468893193E+03  0.80468893193E+03  0.00000000000E+00 0.  1.
          2   -1    0    0  501    0  0.00000000000E+00 -0.00000000000E+00 -0.23974695321E+04  0.23974695321E+04  0.00000000000E+00 0. -1.
         24    2    1    2    0    0 -0.33299646268E+03  0.88388724932E+03 -0.16440310337E+04  0.18976928560E+04  0.79100078626E+02 0.  0.
        254    2    1    2    0    0  0.33299646268E+03 -0.88388724932E+03  0.51250433486E+02  0.13044656080E+04  0.89825419673E+03 0.  0.
         23    2    4    4    0    0 -0.18032495714E+02 -0.81578445404E+03 -0.21572660270E+03  0.84878711116E+03  0.89845125652E+02 0.  0.
         23    2    4    4    0    0  0.35102895840E+03 -0.68102795273E+02  0.26697703618E+03  0.45567849687E+03  0.92232501327E+02 0.  0.
          4    1    3    3  502    0 -0.30112475231E+03  0.83634355970E+03 -0.15692294664E+04  0.18035043067E+04  0.00000000000E+00 0. -1.
         -3    1    3    3    0  502 -0.31871710375E+02  0.47543689621E+02 -0.74801567332E+02  0.94188549306E+02  0.00000000000E+00 0.  1.
         11    1    5    5    0    0 -0.94941074928E+01 -0.43821816650E+03 -0.16210593437E+03  0.46733674527E+03  0.00000000000E+00 0.  1.
        -11    1    5    5    0    0 -0.85383882211E+01 -0.37756628755E+03 -0.53620668329E+02  0.38145036589E+03  0.00000000000E+00 0. -1.
          2    1    6    6  503    0  0.33621169881E+03 -0.66486705896E+02  0.22211215845E+03  0.40840249682E+03  0.00000000000E+00 0.  1.
         -2    1    6    6    0  503  0.14817259588E+02 -0.16160893769E+01  0.44864877732E+02  0.47276000047E+02  0.00000000000E+00 0. -1.
<mgrwt>
<rscale>  0 0.27779253E+04</rscale>
<asrwt>0</asrwt>
<pdfrwt beam="1">  1        2 0.36884146E+00 0.27779253E+04</pdfrwt>
<pdfrwt beam="2">  1       -1 0.12379830E+00 0.27779253E+04</pdfrwt>
<totfact> 0.22658700E+00</totfact>
</mgrwt>
</event>
<event>
12    6  0.1529770E-007  0.1885308E+04  0.7818608E-02  0.8662204E-01
          2   -1    0    0  501    0  0.00000000000E+00  0.00000000000E+00  0.62983193764E+03  0.62983193764E+03  0.00000000000E+00 0. -1.
         -1   -1    0    0    0  501 -0.00000000000E+00 -0.00000000000E+00 -0.14108477285E+04  0.14108477285E+04  0.00000000000E+00 0.  1.
         24    2    1    2    0    0  0.71416594265E+03  0.60971975937E+02 -0.45047364577E+03  0.85032315249E+03  0.79827204900E+02 0.  0.
        254    2    1    2    0    0 -0.71416594265E+03 -0.60971975937E+02 -0.33054214504E+03  0.11903565136E+04  0.89103307701E+03 0.  0.
         23    2    4    4    0    0 -0.37180746061E+03  0.37347698643E+03 -0.33267001633E+03  0.62982522748E+03  0.91019944261E+02 0.  0.
         23    2    4    4    0    0 -0.34235848204E+03 -0.43444896237E+03  0.21278712890E+01  0.56053128611E+03  0.90750006902E+02 0.  0.
          4    1    3    3  502    0  0.24397909395E+03 -0.63901194910E+00 -0.11686569579E+03  0.27052504038E+03  0.00000000000E+00 0. -1.
         -3    1    3    3    0  502  0.47018684870E+03  0.61610987886E+02 -0.33360794998E+03  0.57979811212E+03  0.00000000000E+00 0.  1.
         11    1    5    5    0    0 -0.34826334322E+02  0.54957070100E+01 -0.29550774493E+02  0.46003528462E+02  0.00000000000E+00 0.  1.
        -11    1    5    5    0    0 -0.33698112629E+03  0.36798127942E+03 -0.30311924183E+03  0.58382169902E+03  0.00000000000E+00 0. -1.
          3    1    6    6  503    0 -0.86160544025E+02 -0.17722080227E+03 -0.96608769448E+01  0.19729213022E+03  0.00000000000E+00 0. -1.
         -3    1    6    6    0  503 -0.25619793801E+03 -0.25722816009E+03  0.11788748234E+02  0.36323915589E+03  0.00000000000E+00 0.  1.
<mgrwt>
<rscale>  0 0.18853084E+04</rscale>
<asrwt>0</asrwt>
<pdfrwt beam="1">  1        2 0.96897222E-01 0.18853084E+04</pdfrwt>
<pdfrwt beam="2">  1       -1 0.21705349E+00 0.18853084E+04</pdfrwt>
<totfact> 0.57646687E+00</totfact>
</mgrwt>
</event>
<event>
12    6  0.2201906E-007  0.2160336E+04  0.7818608E-02  0.8535121E-01
          2   -1    0    0  501    0  0.00000000000E+00  0.00000000000E+00  0.19620384631E+04  0.19620384631E+04  0.00000000000E+00 0. -1.
         -1   -1    0    0    0  501 -0.00000000000E+00 -0.00000000000E+00 -0.59466886899E+03  0.59466886899E+03  0.00000000000E+00 0.  1.
         24    2    1    2    0    0  0.89349909463E+01  0.13697512188E+02  0.16276460473E+04  0.16295778202E+04  0.77619333283E+02 0.  0.
        254    2    1    2    0    0 -0.89349909463E+01 -0.13697512188E+02 -0.26027645318E+03  0.92712951190E+03  0.88969536576E+03 0.  0.
         23    2    4    4    0    0 -0.36746069692E+03  0.29131545023E+02 -0.38089244548E+03  0.53643665639E+03  0.82518001641E+02 0.  0.
         23    2    4    4    0    0  0.35852570598E+03 -0.42829057210E+02  0.12061599230E+03  0.39069285551E+03  0.87850325876E+02 0.  0.
          2    1    3    3  502    0  0.18257744074E+02  0.22786102213E+02  0.15774659142E+04  0.15777361193E+04  0.00000000000E+00 0. -1.
         -1    1    3    3    0  502 -0.93227531275E+01 -0.90885900255E+01  0.50180133034E+02  0.51841700839E+02  0.00000000000E+00 0.  1.
         11    1    5    5    0    0 -0.24242185505E+02  0.52532974342E+01 -0.23652045034E+01  0.24917361103E+02  0.00000000000E+00 0.  1.
        -11    1    5    5    0    0 -0.34321851142E+03  0.23878247589E+02 -0.37852724098E+03  0.51151929529E+03  0.00000000000E+00 0. -1.
          4    1    6    6  503    0  0.16474364295E+03  0.14112069303E+02  0.24990948438E+02  0.16722489616E+03  0.00000000000E+00 0. -1.
         -4    1    6    6    0  503  0.19378206303E+03 -0.56941126513E+02  0.95625043863E+02  0.22346795934E+03  0.00000000000E+00 0.  1.
<mgrwt>
<rscale>  0 0.21603363E+04</rscale>
<asrwt>0</asrwt>
<pdfrwt beam="1">  1        2 0.30185207E+00 0.21603363E+04</pdfrwt>
<pdfrwt beam="2">  1       -1 0.91487519E-01 0.21603363E+04</pdfrwt>
<totfact> 0.85284226E+00</totfact>
</mgrwt>
</event>
<event>
12    6  0.1529770E-007  0.3137156E+04  0.7818608E-02  0.8205614E-01
         -1   -1    0    0    0  501 -0.00000000000E+00  0.00000000000E+00  0.78583667361E+03  0.78583667361E+03  0.00000000000E+00 0.  1.
          2   -1    0    0  501    0  0.00000000000E+00 -0.00000000000E+00 -0.31309768762E+04  0.31309768762E+04  0.00000000000E+00 0. -1.
         24    2    1    2    0    0  0.15954663738E+03 -0.70292024895E+03 -0.26273909293E+04  0.27256292763E+04  0.79497487156E+02 0.  0.
        254    2    1    2    0    0 -0.15954663738E+03  0.70292024895E+03  0.28225072668E+03  0.11911842736E+04  0.90537422924E+03 0.  0.
         23    2    4    4    0    0  0.19731388662E+03 -0.11767125032E+03  0.12591740967E+03  0.27792942873E+03  0.92791596012E+02 0.  0.
         23    2    4    4    0    0 -0.35686052400E+03  0.82059149927E+03  0.15633331700E+03  0.91325484483E+03  0.94204370087E+02 0.  0.
          4    1    3    3  502    0  0.13415232797E+03 -0.43964764107E+03 -0.15972940118E+04  0.16621176419E+04  0.00000000000E+00 0. -1.
         -3    1    3    3    0  502  0.25394309416E+02 -0.26327260788E+03 -0.10300969175E+04  0.10635116343E+04  0.00000000000E+00 0.  1.
         11    1    5    5    0    0  0.16808778548E+03 -0.96427130896E+02  0.60171811563E+02  0.20290968953E+03  0.00000000000E+00 0.  1.
        -11    1    5    5    0    0  0.29226101141E+02 -0.21244119420E+02  0.65745598112E+02  0.75019739195E+02  0.00000000000E+00 0. -1.
          4    1    6    6  503    0 -0.31234916662E+03  0.62749319963E+03  0.13650539863E+03  0.71410324276E+03  0.00000000000E+00 0. -1.
         -4    1    6    6    0  503 -0.44511357378E+02  0.19309829964E+03  0.19827918368E+02  0.19915160207E+03  0.00000000000E+00 0.  1.
<mgrwt>
<rscale>  0 0.31371557E+04</rscale>
<asrwt>0</asrwt>
<pdfrwt beam="1">  1        2 0.48168876E+00 0.31371557E+04</pdfrwt>
<pdfrwt beam="2">  1       -1 0.12089795E+00 0.31371557E+04</pdfrwt>
<totfact> 0.83941152E-01</totfact>
</mgrwt>
</event>
<event>
12    6  0.1529770E-007  0.1248035E+04  0.7818608E-02  0.9071820E-01
         -1   -1    0    0    0  501 -0.00000000000E+00  0.00000000000E+00  0.15600723794E+03  0.15600723794E+03  0.00000000000E+00 0.  1.
          2   -1    0    0  501    0  0.00000000000E+00 -0.00000000000E+00 -0.24960237770E+04  0.24960237770E+04  0.00000000000E+00 0. -1.
         24    2    1    2    0    0 -0.17357612078E+03 -0.24225929515E+03 -0.69195233996E+03  0.75766395595E+03  0.80239601072E+02 0.  0.
        254    2    1    2    0    0  0.17357612078E+03  0.24225929515E+03 -0.16480641991E+04  0.18943670589E+04  0.88526420576E+03 0.  0.
         23    2    4    4    0    0  0.22021728173E+03 -0.16326269432E+03 -0.12231620973E+03  0.31217873988E+03  0.85696860738E+02 0.  0.
         23    2    4    4    0    0 -0.46641160954E+02  0.40552198946E+03 -0.15257479893E+04  0.15821883191E+04  0.93752163767E+02 0.  0.
          4    1    3    3  502    0 -0.15392963493E+03 -0.19424477505E+03 -0.62914314289E+03  0.67620001434E+03  0.00000000000E+00 0. -1.
         -3    1    3    3    0  502 -0.19646485852E+02 -0.48014520098E+02 -0.62809197064E+02  0.81463941609E+02  0.00000000000E+00 0.  1.
         11    1    5    5    0    0  0.11803615659E+03 -0.11366173489E+03 -0.31758143661E+02  0.16691346240E+03  0.00000000000E+00 0. -1.
        -11    1    5    5    0    0  0.10218112514E+03 -0.49600959429E+02 -0.90558066073E+02  0.14526527748E+03  0.00000000000E+00 0.  1.
          3    1    6    6  503    0  0.19849720800E+01  0.21863479523E+03 -0.66412644501E+03  0.69919171102E+03  0.00000000000E+00 0. -1.
         -3    1    6    6    0  503 -0.48626133034E+02  0.18688719423E+03 -0.86162154432E+03  0.88299660804E+03  0.00000000000E+00 0.  1.
<mgrwt>
<rscale>  0 0.12480349E+04</rscale>
<asrwt>0</asrwt>
<pdfrwt beam="1">  1        2 0.38400363E+00 0.12480349E+04</pdfrwt>
<pdfrwt beam="2">  1       -1 0.24001115E-01 0.12480349E+04</pdfrwt>
<totfact> 0.59219350E+01</totfact>
</mgrwt>
</event>
<event>
12    6  0.1529770E-007  0.1708521E+04  0.7818608E-02  0.8756520E-01
          2   -1    0    0  501    0  0.00000000000E+00  0.00000000000E+00  0.19002189109E+04  0.19002189109E+04  0.00000000000E+00 0. -1.
         -1   -1    0    0    0  501 -0.00000000000E+00 -0.00000000000E+00 -0.38404027557E+03  0.38404027557E+03  0.00000000000E+00 0.  1.
         24    2    1    2    0    0 -0.47058021368E+03  0.96436793470E+02  0.23488052500E+02  0.48763315238E+03  0.80551909025E+02 0.  0.
        254    2    1    2    0    0  0.47058021368E+03 -0.96436793470E+02  0.14926905828E+04  0.17966260341E+04  0.87692310819E+03 0.  0.
         23    2    4    4    0    0 -0.11141101069E+03  0.67437317138E+02 -0.24629784762E+02  0.16071388793E+03  0.90896217906E+02 0.  0.
         23    2    4    4    0    0  0.58199122437E+03 -0.16387411061E+03  0.15173203675E+04  0.16359121461E+04  0.91536564815E+02 0.  0.
          2    1    3    3  502    0 -0.22202909010E+03  0.73066666379E+02 -0.18523393930E+02  0.23447552262E+03  0.00000000000E+00 0. -1.
         -1    1    3    3    0  502 -0.24855112358E+03  0.23370127091E+02  0.42011446431E+02  0.25315762975E+03  0.00000000000E+00 0.  1.
         11    1    5    5    0    0 -0.78823439002E+02  0.13366944770E+02 -0.48167309240E+02  0.93337556364E+02  0.00000000000E+00 0. -1.
        -11    1    5    5    0    0 -0.32587571692E+02  0.54070372368E+02  0.23537524478E+02  0.67376331566E+02  0.00000000000E+00 0.  1.
          4    1    6    6  503    0  0.38297141762E+03 -0.13945775815E+03  0.93273099339E+03  0.10178912904E+04  0.00000000000E+00 0. -1.
         -4    1    6    6    0  503  0.19901980675E+03 -0.24416352453E+02  0.58458937416E+03  0.61802085573E+03  0.00000000000E+00 0.  1.
<mgrwt>
<rscale>  0 0.17085205E+04</rscale>
<asrwt>0</asrwt>
<pdfrwt beam="1">  1        2 0.29234136E+00 0.17085205E+04</pdfrwt>
<pdfrwt beam="2">  1       -1 0.59083121E-01 0.17085205E+04</pdfrwt>
<totfact> 0.23874615E+01</totfact>
</mgrwt>
</event>
<event>
12    6  0.1529770E-007  0.2302198E+04  0.7818608E-02  0.8477055E-01
          2   -1    0    0  501    0  0.00000000000E+00  0.00000000000E+00  0.13340793700E+04  0.13340793700E+04  0.00000000000E+00 0. -1.
         -1   -1    0    0    0  501 -0.00000000000E+00 -0.00000000000E+00 -0.99321552894E+03  0.99321552894E+03  0.00000000000E+00 0.  1.
         24    2    1    2    0    0 -0.95837242256E+03  0.78890667236E+02  0.12742884920E+01  0.96531057176E+03  0.84388615631E+02 0.  0.
        254    2    1    2    0    0  0.95837242256E+03 -0.78890667236E+02  0.33958955260E+03  0.13619843272E+04  0.90276176573E+03 0.  0.
         23    2    4    4    0    0  0.26915170085E+03 -0.22460607694E+03 -0.24872612616E+03  0.44005600752E+03  0.94308409217E+02 0.  0.
         23    2    4    4    0    0  0.68922072170E+03  0.14571540970E+03  0.58831567876E+03  0.92192831970E+03  0.87053460196E+02 0.  0.
          2    1    3    3  502    0 -0.11820447830E+03  0.27896932123E+02  0.21567596061E+02  0.12335193032E+03  0.00000000000E+00 0. -1.
         -1    1    3    3    0  502 -0.84016794425E+03  0.50993735113E+02 -0.20293307569E+02  0.84195864145E+03  0.00000000000E+00 0.  1.
         11    1    5    5    0    0  0.16510631850E+03 -0.13468176298E+03 -0.20519308792E+03  0.29580986633E+03  0.00000000000E+00 0.  1.
        -11    1    5    5    0    0  0.10404538235E+03 -0.89924313957E+02 -0.43533038244E+02  0.14424614119E+03  0.00000000000E+00 0. -1.
          1    1    6    6  503    0  0.10288659435E+02 -0.87245550012E+01  0.12692799027E+02  0.18522459882E+02  0.00000000000E+00 0. -1.
         -1    1    6    6    0  503  0.67893206227E+03  0.15443996471E+03  0.57562287974E+03  0.90340585982E+03  0.00000000000E+00 0.  1.
<mgrwt>
<rscale>  0 0.23021975E+04</rscale>
<asrwt>0</asrwt>
<pdfrwt beam="1">  1        2 0.20524298E+00 0.23021975E+04</pdfrwt>
<pdfrwt beam="2">  1       -1 0.15280239E+00 0.23021975E+04</pdfrwt>
<totfact> 0.54136721E+00</totfact>
</mgrwt>
</event>
<event>
12    6  0.1529770E-007  0.1430199E+04  0.7818608E-02  0.8932245E-01
         -1   -1    0    0    0  501 -0.00000000000E+00  0.00000000000E+00  0.18202613251E+03  0.18202613251E+03  0.00000000000E+00 0.  1.
          2   -1    0    0  501    0  0.00000000000E+00 -0.00000000000E+00 -0.28093062024E+04  0.28093062024E+04  0.00000000000E+00 0. -1.
         24    2    1    2    0    0 -0.38743423084E+02 -0.37468864947E+02 -0.17079151682E+04  0.17106502396E+04  0.80281080913E+02 0.  0.
        254    2    1    2    0    0  0.38743423084E+02  0.37468864947E+02 -0.91936490175E+03  0.12806820953E+04  0.88994934576E+03 0.  0.
         23    2    4    4    0    0  0.51589082621E+02 -0.39459634747E+03 -0.63641422114E+03  0.75622881000E+03  0.92147931750E+02 0.  0.
         23    2    4    4    0    0 -0.12845659537E+02  0.43206521241E+03 -0.28295068061E+03  0.52445328532E+03  0.90248557194E+02 0.  0.
          2    1    3    3  502    0 -0.33958993178E+01 -0.55686862320E+02 -0.11228969176E+04  0.11242820137E+04  0.00000000000E+00 0. -1.
         -1    1    3    3    0  502 -0.35347523766E+02  0.18217997373E+02 -0.58501825060E+03  0.58636822595E+03  0.00000000000E+00 0.  1.
         11    1    5    5    0    0  0.17182331026E+02 -0.24164752752E+03 -0.46235081517E+03  0.52197417210E+03  0.00000000000E+00 0. -1.
        -11    1    5    5    0    0  0.34406751595E+02 -0.15294881994E+03 -0.17406340597E+03  0.23425463790E+03  0.00000000000E+00 0.  1.
          4    1    6    6  503    0 -0.10796202296E+01  0.41602065879E+03 -0.24827176602E+03  0.48447210851E+03  0.00000000000E+00 0. -1.
         -4    1    6    6    0  503 -0.11766039307E+02  0.16044553626E+02 -0.34678914590E+02  0.39981176811E+02  0.00000000000E+00 0.  1.
<mgrwt>
<rscale>  0 0.14301988E+04</rscale>
<asrwt>0</asrwt>
<pdfrwt beam="1">  1        2 0.43220097E+00 0.14301988E+04</pdfrwt>
<pdfrwt beam="2">  1       -1 0.28004019E-01 0.14301988E+04</pdfrwt>
<totfact> 0.29243273E+01</totfact>
</mgrwt>
</event>
<event>
12    6  0.1529770E-007  0.4418328E+04  0.7818608E-02  0.7925093E-01
          2   -1    0    0  501    0  0.00000000000E+00  0.00000000000E+00  0.24227139307E+04  0.24227139307E+04  0.00000000000E+00 0. -1.
         -1   -1    0    0    0  501 -0.00000000000E+00 -0.00000000000E+00 -0.20144374907E+04  0.20144374907E+04  0.00000000000E+00 0.  1.
         24    2    1    2    0    0  0.20036584863E+04  0.55919659714E+03 -0.19793722049E+03  0.20911431762E+04  0.79702423786E+02 0.  0.
        254    2    1    2    0    0 -0.20036584863E+04 -0.55919659714E+03  0.60621366053E+03  0.23460082451E+04  0.89939508565E+03 0.  0.
         23    2    4    4    0    0 -0.19963628579E+04 -0.35444192412E+03  0.47180107612E+03  0.20835711104E+04  0.87055033084E+02 0.  0.
         23    2    4    4    0    0 -0.72956284081E+01 -0.20475467302E+03  0.13441258441E+03  0.26243713473E+03  0.93961718382E+02 0.  0.
          2    1    3    3  502    0  0.84403683245E+03  0.20348655867E+03 -0.10698661074E+03  0.87478631046E+03  0.00000000000E+00 0. -1.
         -1    1    3    3    0  502  0.11596216538E+04  0.35571003847E+03 -0.90950609757E+02  0.12163568658E+04  0.00000000000E+00 0.  1.
         11    1    5    5    0    0 -0.14294615836E+04 -0.28115250514E+03  0.30956267967E+03  0.14893744333E+04  0.00000000000E+00 0. -1.
        -11    1    5    5    0    0 -0.56690127429E+03 -0.73289418984E+02  0.16223839645E+03  0.59419667705E+03  0.00000000000E+00 0.  1.
          4    1    6    6  503    0  0.25676639776E+02 -0.35260150952E+02  0.60564029109E+02  0.74636249217E+02  0.00000000000E+00 0.  1.
         -4    1    6    6    0  503 -0.32972268184E+02 -0.16949452206E+03  0.73848555303E+02  0.18780088551E+03  0.00000000000E+00 0. -1.
<mgrwt>
<rscale>  0 0.44183281E+04</rscale>
<asrwt>0</asrwt>
<pdfrwt beam="1">  1        2 0.37272522E+00 0.44183281E+04</pdfrwt>
<pdfrwt beam="2">  1       -1 0.30991346E+00 0.44183281E+04</pdfrwt>
<totfact> 0.95276420E-02</totfact>
</mgrwt>
</event>
<event>
12    6  0.1529770E-007  0.1838714E+04  0.7818608E-02  0.8685978E-01
         -1   -1    0    0    0  501 -0.00000000000E+00  0.00000000000E+00  0.10830351216E+04  0.10830351216E+04  0.00000000000E+00 0.  1.
          2   -1    0    0  501    0  0.00000000000E+00 -0.00000000000E+00 -0.78041544306E+03  0.78041544306E+03  0.00000000000E+00 0. -1.
         24    2    1    2    0    0 -0.67514272081E+03 -0.11739748128E+03 -0.19438173531E+01  0.68998125403E+03  0.80439358680E+02 0.  0.
        254    2    1    2    0    0  0.67514272081E+03  0.11739748128E+03  0.30456349593E+03  0.11734693107E+04  0.90259151224E+03 0.  0.
         23    2    4    4    0    0 -0.93730685617E+02  0.14026161887E+03  0.34827998468E+03  0.39756926479E+03  0.91124142928E+02 0.  0.
         23    2    4    4    0    0  0.76887340642E+03 -0.22864137589E+02 -0.43716488753E+02  0.77590004587E+03  0.91764186400E+02 0.  0.
          2    1    3    3  502    0 -0.59934019664E+03 -0.77681318690E+02 -0.43924931263E+01  0.60436938421E+03  0.00000000000E+00 0. -1.
         -1    1    3    3    0  502 -0.75802524168E+02 -0.39716162589E+02  0.24486757732E+01  0.85611869820E+02  0.00000000000E+00 0.  1.
         11    1    5    5    0    0 -0.65469442845E+02  0.10314737121E+03  0.32115359483E+03  0.34360625664E+03  0.00000000000E+00 0. -1.
        -11    1    5    5    0    0 -0.28261242772E+02  0.37114247654E+02  0.27126389856E+02  0.53963008150E+02  0.00000000000E+00 0.  1.
          1    1    6    6  503    0  0.61087219413E+03  0.36218893014E+01 -0.42203583671E+01  0.61089750947E+03  0.00000000000E+00 0. -1.
         -1    1    6    6    0  503  0.15800121229E+03 -0.26486026890E+02 -0.39496130386E+02  0.16500253641E+03  0.00000000000E+00 0.  1.
<mgrwt>
<rscale>  0 0.18387140E+04</rscale>
<asrwt>0</asrwt>
<pdfrwt beam="1">  1        2 0.12006391E+00 0.18387140E+04</pdfrwt>
<pdfrwt beam="2">  1       -1 0.16662079E+00 0.18387140E+04</pdfrwt>
<totfact> 0.99676192E+00</totfact>
</mgrwt>
</event>
<event>
12    6  0.1529770E-007  0.1831638E+04  0.7818608E-02  0.8689653E-01
          2   -1    0    0  501    0  0.00000000000E+00  0.00000000000E+00  0.76841702761E+03  0.76841702761E+03  0.00000000000E+00 0. -1.
         -1   -1    0    0    0  501 -0.00000000000E+00 -0.00000000000E+00 -0.10914967187E+04  0.10914967187E+04  0.00000000000E+00 0.  1.
         24    2    1    2    0    0  0.46594463805E+03  0.45971498372E+03  0.14431612506E+03  0.67504762417E+03  0.80124147216E+02 0.  0.
        254    2    1    2    0    0 -0.46594463805E+03 -0.45971498372E+03 -0.46739581613E+03  0.11848661221E+04  0.87006126590E+03 0.  0.
         23    2    4    4    0    0 -0.21441998100E+03 -0.36690361198E+03 -0.69612481331E+03  0.82096596342E+03  0.93814543969E+02 0.  0.
         23    2    4    4    0    0 -0.25152465705E+03 -0.92811371740E+02  0.22872899718E+03  0.36390015870E+03  0.90707042284E+02 0.  0.
          2    1    3    3  502    0  0.97135646558E+02  0.98694598128E+02  0.64698277889E+02  0.15284575458E+03  0.00000000000E+00 0. -1.
         -1    1    3    3    0  502  0.36880899149E+03  0.36102038559E+03  0.79617847175E+02  0.52220186959E+03  0.00000000000E+00 0.  1.
         11    1    5    5    0    0 -0.14476669745E+03 -0.15934390307E+03 -0.31768905945E+03  0.38376322731E+03  0.00000000000E+00 0.  1.
        -11    1    5    5    0    0 -0.69653283547E+02 -0.20755970891E+03 -0.37843575386E+03  0.43720273612E+03  0.00000000000E+00 0. -1.
          4    1    6    6  503    0 -0.20677815734E+03 -0.76038631423E+02  0.13417703187E+03  0.25795843794E+03  0.00000000000E+00 0. -1.
         -4    1    6    6    0  503 -0.44746499713E+02 -0.16772740317E+02  0.94551965305E+02  0.10594172076E+03  0.00000000000E+00 0.  1.
<mgrwt>
<rscale>  0 0.18316382E+04</rscale>
<asrwt>0</asrwt>
<pdfrwt beam="1">  1        2 0.11821800E+00 0.18316382E+04</pdfrwt>
<pdfrwt beam="2">  1       -1 0.16792257E+00 0.18316382E+04</pdfrwt>
<totfact> 0.99552445E+00</totfact>
</mgrwt>
</event>
<event>
12    6  0.1529770E-007  0.1884371E+04  0.7818608E-02  0.8662675E-01
          2   -1    0    0  501    0  0.00000000000E+00  0.00000000000E+00  0.15463200674E+04  0.15463200674E+04  0.00000000000E+00 0. -1.
         -1   -1    0    0    0  501 -0.00000000000E+00 -0.00000000000E+00 -0.57408149691E+03  0.57408149691E+03  0.00000000000E+00 0.  1.
         24    2    1    2    0    0  0.35150449163E+03  0.18265536132E+02  0.10922713510E+04  0.11505576713E+04  0.82687442999E+02 0.  0.
        254    2    1    2    0    0 -0.35150449163E+03 -0.18265536132E+02 -0.12003278049E+03  0.96984389307E+03  0.89571215861E+03 0.  0.
         23    2    4    4    0    0 -0.24796076931E+03  0.37468134725E+03 -0.26750871587E+03  0.52998074332E+03  0.86301912614E+02 0.  0.
         23    2    4    4    0    0 -0.10354372232E+03 -0.39294688338E+03  0.14747593538E+03  0.43986314976E+03  0.81251974775E+02 0.  0.
          2    1    3    3  502    0  0.24914231729E+03  0.36417085079E+02  0.85959759373E+03  0.89571542440E+03  0.00000000000E+00 0. -1.
         -1    1    3    3    0  502  0.10236217435E+03 -0.18151548946E+02  0.23267375728E+03  0.25484224688E+03  0.00000000000E+00 0.  1.
         11    1    5    5    0    0 -0.25145841783E+03  0.37669807937E+03 -0.26735869240E+03  0.52594053780E+03  0.00000000000E+00 0.  1.
        -11    1    5    5    0    0  0.34976485166E+01 -0.20167321158E+01 -0.15002346847E+00  0.40402055163E+01  0.00000000000E+00 0. -1.
          2    1    6    6  503    0  0.99800879337E+01 -0.76983390251E+02  0.40091501270E+02  0.87369176509E+02  0.00000000000E+00 0. -1.
         -2    1    6    6    0  503 -0.11352381025E+03 -0.31596349313E+03  0.10738443411E+03  0.35249397325E+03  0.00000000000E+00 0.  1.
<mgrwt>
<rscale>  0 0.18843712E+04</rscale>
<asrwt>0</asrwt>
<pdfrwt beam="1">  1        2 0.23789539E+00 0.18843712E+04</pdfrwt>
<pdfrwt beam="2">  1       -1 0.88320231E-01 0.18843712E+04</pdfrwt>
<totfact> 0.16079766E+01</totfact>
</mgrwt>
</event>
<event>
12    6  0.1529770E-007  0.1618236E+04  0.7818608E-02  0.8809423E-01
          2   -1    0    0  501    0  0.00000000000E+00  0.00000000000E+00  0.84019174743E+03  0.84019174743E+03  0.00000000000E+00 0. -1.
         -1   -1    0    0    0  501 -0.00000000000E+00 -0.00000000000E+00 -0.77919323567E+03  0.77919323567E+03  0.00000000000E+00 0.  1.
         24    2    1    2    0    0  0.55861324537E+03  0.12810484143E+03  0.67638709175E+02  0.58238795412E+03  0.78365335650E+02 0.  0.
        254    2    1    2    0    0 -0.55861324537E+03 -0.12810484143E+03 -0.66401974188E+01  0.10369970290E+04  0.86421012352E+03 0.  0.
         23    2    4    4    0    0 -0.47977286049E+03  0.24059156829E+03 -0.22827065828E+03  0.58998351218E+03  0.88919912370E+02 0.  0.
         23    2    4    4    0    0 -0.78840384878E+02 -0.36869640972E+03  0.22163046086E+03  0.44701351680E+03  0.92456336696E+02 0.  0.
          2    1    3    3  502    0  0.92324347131E+02  0.19835062314E+01 -0.10948931849E+02  0.92992464635E+02  0.00000000000E+00 0. -1.
         -1    1    3    3    0  502  0.46628889824E+03  0.12612133519E+03  0.78587641024E+02  0.48939548949E+03  0.00000000000E+00 0.  1.
         11    1    5    5    0    0 -0.33856007891E+03  0.20458977982E+03 -0.14007550603E+03  0.41964395913E+03  0.00000000000E+00 0.  1.
        -11    1    5    5    0    0 -0.14121278158E+03  0.36001788467E+02 -0.88195152251E+02  0.17033955306E+03  0.00000000000E+00 0. -1.
          2    1    6    6  503    0  0.16377749107E+02 -0.71859931180E+02  0.64387351847E+02  0.97866293753E+02  0.00000000000E+00 0. -1.
         -2    1    6    6    0  503 -0.95218133985E+02 -0.29683647854E+03  0.15724310901E+03  0.34914722305E+03  0.00000000000E+00 0.  1.
<mgrwt>
<rscale>  0 0.16182357E+04</rscale>
<asrwt>0</asrwt>
<pdfrwt beam="1">  1        2 0.12926027E+00 0.16182357E+04</pdfrwt>
<pdfrwt beam="2">  1       -1 0.11987588E+00 0.16182357E+04</pdfrwt>
<totfact> 0.21881519E+01</totfact>
</mgrwt>
</event>
<event>
12    6  0.1529770E-007  0.2253922E+04  0.7818608E-02  0.8496314E-01
          2   -1    0    0  501    0  0.00000000000E+00  0.00000000000E+00  0.10163803479E+04  0.10163803479E+04  0.00000000000E+00 0. -1.
         -1   -1    0    0    0  501 -0.00000000000E+00 -0.00000000000E+00 -0.12495724530E+04  0.12495724530E+04  0.00000000000E+00 0.  1.
         24    2    1    2    0    0  0.28715893183E+03 -0.12011581184E+03 -0.98338195968E+03  0.10344578576E+04  0.78580659664E+02 0.  0.
        254    2    1    2    0    0 -0.28715893183E+03  0.12011581184E+03  0.75018985454E+03  0.12314949434E+04  0.92569266891E+03 0.  0.
         23    2    4    4    0    0 -0.23564921153E+03  0.70864468419E+02  0.95826347751E+03  0.99362948335E+03  0.92077869602E+02 0.  0.
         23    2    4    4    0    0 -0.51509720298E+02  0.49251343424E+02 -0.20807362298E+03  0.23786546000E+03  0.90589173575E+02 0.  0.
          2    1    3    3  502    0  0.10856469505E+03 -0.55798880686E+02 -0.27104536549E+03  0.29726318011E+03  0.00000000000E+00 0. -1.
         -1    1    3    3    0  502  0.17859423678E+03 -0.64316931156E+02 -0.71233659419E+03  0.73719467746E+03  0.00000000000E+00 0.  1.
         11    1    5    5    0    0 -0.13432889174E+02 -0.15804969511E+01  0.95701521038E+01  0.16568895360E+02  0.00000000000E+00 0.  1.
        -11    1    5    5    0    0 -0.22221632236E+03  0.72444965370E+02  0.94869332541E+03  0.97706058799E+03  0.00000000000E+00 0. -1.
          3    1    6    6  503    0  0.72500489749E+01  0.28561737387E+02 -0.11457845155E+02  0.31616740317E+02  0.00000000000E+00 0.  1.
         -3    1    6    6    0  503 -0.58759769273E+02  0.20689606037E+02 -0.19661577782E+03  0.20624871968E+03  0.00000000000E+00 0. -1.
<mgrwt>
<rscale>  0 0.22539218E+04</rscale>
<asrwt>0</asrwt>
<pdfrwt beam="1">  1        2 0.15636621E+00 0.22539218E+04</pdfrwt>
<pdfrwt beam="2">  1       -1 0.19224192E+00 0.22539218E+04</pdfrwt>
<totfact> 0.43480641E+00</totfact>
</mgrwt>
</event>
<event>
12    6  0.1529770E-007  0.2213499E+04  0.7818608E-02  0.8512830E-01
         -1   -1    0    0    0  501 -0.00000000000E+00  0.00000000000E+00  0.10273430515E+04  0.10273430515E+04  0.00000000000E+00 0.  1.
          2   -1    0    0  501    0  0.00000000000E+00 -0.00000000000E+00 -0.11922938400E+04  0.11922938400E+04  0.00000000000E+00 0. -1.
         24    2    1    2    0    0  0.76849041611E+03  0.35801616238E+03 -0.45903618295E+03  0.96791260981E+03  0.85950629912E+02 0.  0.
        254    2    1    2    0    0 -0.76849041611E+03 -0.35801616238E+03  0.29408539450E+03  0.12517242817E+04  0.87268228230E+03 0.  0.
         23    2    4    4    0    0 -0.65595675174E+03  0.47174039397E+02 -0.95817135396E+02  0.67105675643E+03  0.92906387139E+02 0.  0.
         23    2    4    4    0    0 -0.11253366437E+03 -0.40519020178E+03  0.38990252989E+03  0.58066752522E+03  0.91147500199E+02 0.  0.
          4    1    3    3  502    0  0.70890077097E+03  0.34888598331E+03 -0.40967609180E+03  0.88999788350E+03  0.00000000000E+00 0. -1.
         -3    1    3    3    0  502  0.59589645143E+02  0.91301790721E+01 -0.49360091146E+02  0.77914726311E+02  0.00000000000E+00 0.  1.
         11    1    5    5    0    0 -0.30559342898E+03  0.54675076145E+02 -0.78338718283E+02  0.32017754851E+03  0.00000000000E+00 0. -1.
        -11    1    5    5    0    0 -0.35036332276E+03 -0.75010367477E+01 -0.17478417113E+02  0.35087920792E+03  0.00000000000E+00 0.  1.
          1    1    6    6  503    0 -0.80832425999E+02 -0.13446417827E+03  0.12532285224E+03  0.20079918731E+03  0.00000000000E+00 0. -1.
         -1    1    6    6    0  503 -0.31701238372E+02 -0.27072602351E+03  0.26457967765E+03  0.37986833791E+03  0.00000000000E+00 0.  1.
<mgrwt>
<rscale>  0 0.22134993E+04</rscale>
<asrwt>0</asrwt>
<pdfrwt beam="1">  1        2 0.18342982E+00 0.22134993E+04</pdfrwt>
<pdfrwt beam="2">  1       -1 0.15805278E+00 0.22134993E+04</pdfrwt>
<totfact> 0.60253062E+00</totfact>
</mgrwt>
</event>
<event>
12    6  0.1529770E-007  0.1937986E+04  0.7818608E-02  0.8636176E-01
         -1   -1    0    0    0  501 -0.00000000000E+00  0.00000000000E+00  0.71787294887E+03  0.71787294887E+03  0.00000000000E+00 0.  1.
          2   -1    0    0  501    0  0.00000000000E+00 -0.00000000000E+00 -0.13079571584E+04  0.13079571584E+04  0.00000000000E+00 0. -1.
         24    2    1    2    0    0  0.39322277411E+03 -0.29953382027E+03 -0.83661289047E+03  0.97493018774E+03  0.78886519148E+02 0.  0.
        254    2    1    2    0    0 -0.39322277411E+03  0.29953382027E+03  0.24652868098E+03  0.10508999195E+04  0.89401878653E+03 0.  0.
         23    2    4    4    0    0 -0.45495180867E+03  0.41166439343E+03 -0.13695537647E+03  0.63538109575E+03  0.92215186762E+02 0.  0.
         23    2    4    4    0    0  0.61729034551E+02 -0.11213057316E+03  0.38348405744E+03  0.41551882374E+03  0.95979849049E+02 0.  0.
          4    1    3    3  502    0  0.20069402210E+03 -0.12129856909E+03 -0.45426628455E+03  0.51122332756E+03  0.00000000000E+00 0. -1.
         -3    1    3    3    0  502  0.19252875202E+03 -0.17823525118E+03 -0.38234660593E+03  0.46370686018E+03  0.00000000000E+00 0.  1.
         11    1    5    5    0    0 -0.26493993014E+03  0.21429244972E+03 -0.32997412120E+02  0.34234960172E+03  0.00000000000E+00 0. -1.
        -11    1    5    5    0    0 -0.19001187852E+03  0.19737194371E+03 -0.10395796435E+03  0.29303149403E+03  0.00000000000E+00 0.  1.
          2    1    6    6  503    0  0.91045220983E+01 -0.35237370150E+02  0.22692138748E+02  0.42889366266E+02  0.00000000000E+00 0. -1.
         -2    1    6    6    0  503  0.52624512453E+02 -0.76893203010E+02  0.36079191869E+03  0.37262945747E+03  0.00000000000E+00 0.  1.
<mgrwt>
<rscale>  0 0.19379856E+04</rscale>
<asrwt>0</asrwt>
<pdfrwt beam="1">  1        2 0.20122418E+00 0.19379856E+04</pdfrwt>
<pdfrwt beam="2">  1       -1 0.11044199E+00 0.19379856E+04</pdfrwt>
<totfact> 0.13160711E+01</totfact>
</mgrwt>
</event>
<event>
12    6  0.1529770E-007  0.2765890E+04  0.7818608E-02  0.8313937E-01
          2   -1    0    0  501    0  0.00000000000E+00  0.00000000000E+00  0.21466916001E+04  0.21466916001E+04  0.00000000000E+00 0. -1.
         -1   -1    0    0    0  501 -0.00000000000E+00 -0.00000000000E+00 -0.89092316928E+03  0.89092316928E+03  0.00000000000E+00 0.  1.
         24    2    1    2    0    0 -0.49366050215E+03  0.31686206367E+03  0.17597496875E+04  0.18565910500E+04  0.78160766134E+02 0.  0.
        254    2    1    2    0    0  0.49366050215E+03 -0.31686206367E+03 -0.50398125664E+03  0.11810237195E+04  0.89259042126E+03 0.  0.
         23    2    4    4    0    0  0.49306204934E+03 -0.55406607599E+03 -0.18055080769E+03  0.76885451375E+03  0.91865489130E+02 0.  0.
         23    2    4    4    0    0  0.59845281222E+00  0.23720401232E+03 -0.32343044895E+03  0.41216920571E+03  0.94921531938E+02 0.  0.
          2    1    3    3  502    0 -0.30780788228E+03  0.19856288149E+03  0.12138176015E+04  0.12678825183E+04  0.00000000000E+00 0. -1.
         -1    1    3    3    0  502 -0.18585261987E+03  0.11829918219E+03  0.54593208595E+03  0.58870853169E+03  0.00000000000E+00 0.  1.
         11    1    5    5    0    0  0.10620015479E+03 -0.11384454582E+03 -0.23259637832E+00  0.15568913768E+03  0.00000000000E+00 0.  1.
        -11    1    5    5    0    0  0.38686189455E+03 -0.44022153017E+03 -0.18031821131E+03  0.61316537607E+03  0.00000000000E+00 0. -1.
          3    1    6    6  503    0 -0.85593686307E+01  0.21587828235E+03 -0.22859518417E+03  0.31453529819E+03  0.00000000000E+00 0. -1.
         -3    1    6    6    0  503  0.91578214429E+01  0.21325729967E+02 -0.94835264781E+02  0.97633907523E+02  0.00000000000E+00 0.  1.
<mgrwt>
<rscale>  0 0.27658903E+04</rscale>
<asrwt>0</asrwt>
<pdfrwt beam="1">  1        2 0.33026025E+00 0.27658903E+04</pdfrwt>
<pdfrwt beam="2">  1       -1 0.13706510E+00 0.27658903E+04</pdfrwt>
<totfact> 0.24320528E+00</totfact>
</mgrwt>
</event>
<event>
12    6  0.1529770E-007  0.1374508E+04  0.7818608E-02  0.8972480E-01
          2   -1    0    0  501    0  0.00000000000E+00  0.00000000000E+00  0.14570986799E+04  0.14570986799E+04  0.00000000000E+00 0. -1.
         -1   -1    0    0    0  501 -0.00000000000E+00 -0.00000000000E+00 -0.32414985119E+03  0.32414985119E+03  0.00000000000E+00 0.  1.
         24    2    1    2    0    0 -0.20504201801E+03 -0.16972250061E+03  0.77850910539E+03  0.82661518304E+03  0.79801486773E+02 0.  0.
        254    2    1    2    0    0  0.20504201801E+03  0.16972250061E+03  0.35443972335E+03  0.95463334808E+03  0.84548764356E+03 0.  0.
         23    2    4    4    0    0  0.24471550585E+03 -0.30434736756E+03  0.16954484505E+03  0.43631930045E+03  0.95478157284E+02 0.  0.
         23    2    4    4    0    0 -0.39673487834E+02  0.47406986817E+03  0.18489487829E+03  0.51831404763E+03  0.90261345037E+02 0.  0.
          2    1    3    3  502    0 -0.13398715876E+03 -0.15340216448E+03  0.60675412327E+03  0.64002761573E+03  0.00000000000E+00 0. -1.
         -1    1    3    3    0  502 -0.71054859250E+02 -0.16320336130E+02  0.17175498211E+03  0.18658756731E+03  0.00000000000E+00 0.  1.
         11    1    5    5    0    0  0.24772819281E+01 -0.25811247434E+02 -0.73993841928E+01  0.26964945879E+02  0.00000000000E+00 0. -1.
        -11    1    5    5    0    0  0.24223822392E+03 -0.27853612012E+03  0.17694422925E+03  0.40935435457E+03  0.00000000000E+00 0.  1.
          3    1    6    6  503    0  0.19422056798E+02  0.29931461601E+02  0.77426378960E+01  0.36511054839E+02  0.00000000000E+00 0. -1.
         -3    1    6    6    0  503 -0.59095544632E+02  0.44413840657E+03  0.17715224040E+03  0.48180299279E+03  0.00000000000E+00 0.  1.
<mgrwt>
<rscale>  0 0.13745084E+04</rscale>
<asrwt>0</asrwt>
<pdfrwt beam="1">  1        2 0.22416902E+00 0.13745084E+04</pdfrwt>
<pdfrwt beam="2">  1       -1 0.49869209E-01 0.13745084E+04</pdfrwt>
<totfact> 0.60165486E+01</totfact>
</mgrwt>
</event>
<event>
12    6  0.1529770E-007  0.1738419E+04  0.7818608E-02  0.8739751E-01
         -1   -1    0    0    0  501 -0.00000000000E+00  0.00000000000E+00  0.49085691095E+03  0.49085691095E+03  0.00000000000E+00 0.  1.
          2   -1    0    0  501    0  0.00000000000E+00 -0.00000000000E+00 -0.15391967592E+04  0.15391967592E+04  0.00000000000E+00 0. -1.
         24    2    1    2    0    0 -0.57675430638E+03 -0.14968720526E+03 -0.11742715208E+03  0.61397425190E+03  0.90130220223E+02 0.  0.
        254    2    1    2    0    0  0.57675430638E+03  0.14968720526E+03 -0.93091269614E+03  0.14160794182E+04  0.88522916894E+03 0.  0.
         23    2    4    4    0    0 -0.64344549732E+00 -0.24994569439E+02  0.14845375908E+03  0.17611453540E+03  0.91392934474E+02 0.  0.
         23    2    4    4    0    0  0.57739775188E+03  0.17468177470E+03 -0.10793664552E+04  0.12399648828E+04  0.92623321551E+02 0.  0.
          2    1    3    3  502    0 -0.49117491243E+02 -0.17689696692E+02 -0.37402913616E+02  0.64221735122E+02  0.00000000000E+00 0. -1.
         -1    1    3    3    0  502 -0.52763681514E+03 -0.13199750857E+03 -0.80024238461E+02  0.54975251678E+03  0.00000000000E+00 0.  1.
         11    1    5    5    0    0 -0.32800362461E+02  0.20442132739E+02  0.52642737204E+02  0.65306985452E+02  0.00000000000E+00 0.  1.
        -11    1    5    5    0    0  0.32156916963E+02 -0.45436702177E+02  0.95811021876E+02  0.11080754995E+03  0.00000000000E+00 0. -1.
          1    1    6    6  503    0  0.29787052548E+01 -0.54168514305E+00  0.15647866064E+01  0.34080294765E+01  0.00000000000E+00 0. -1.
         -1    1    6    6    0  503  0.57441904663E+03  0.17522345984E+03 -0.10809312418E+04  0.12365568533E+04  0.00000000000E+00 0.  1.
<mgrwt>
<rscale>  0 0.17384192E+04</rscale>
<asrwt>0</asrwt>
<pdfrwt beam="1">  1        2 0.23679950E+00 0.17384192E+04</pdfrwt>
<pdfrwt beam="2">  1       -1 0.75516447E-01 0.17384192E+04</pdfrwt>
<totfact> 0.22981189E+01</totfact>
</mgrwt>
</event>
<event>
12    6  0.1529770E-007  0.1876705E+04  0.7818608E-02  0.8666539E-01
          2   -1    0    0  501    0  0.00000000000E+00  0.00000000000E+00  0.19936227399E+04  0.19936227399E+04  0.00000000000E+00 0. -1.
         -1   -1    0    0    0  501 -0.00000000000E+00 -0.00000000000E+00 -0.44166105367E+03  0.44166105367E+03  0.00000000000E+00 0.  1.
         24    2    1    2    0    0  0.37301263736E+02 -0.69559603540E+03  0.33966734231E+03  0.77898007852E+03  0.78681831157E+02 0.  0.
        254    2    1    2    0    0 -0.37301263736E+02  0.69559603540E+03  0.12122943439E+04  0.16563037150E+04  0.88794098418E+03 0.  0.
         23    2    4    4    0    0 -0.34823239394E+03  0.17055124475E+02  0.52864119955E+03  0.63961732832E+03  0.89956274722E+02 0.  0.
         23    2    4    4    0    0  0.31093113020E+03  0.67854091093E+03  0.68365314433E+03  0.10166863867E+04  0.95779181418E+02 0.  0.
          4    1    3    3  502    0  0.28215320223E+02 -0.78660884444E+02  0.31583908825E+02  0.89337463214E+02  0.00000000000E+00 0. -1.
         -3    1    3    3    0  502  0.90859435128E+01 -0.61693515096E+03  0.30808343348E+03  0.68964261531E+03  0.00000000000E+00 0.  1.
         11    1    5    5    0    0 -0.27060067445E+03  0.50651740143E+01  0.33512480508E+03  0.43076561606E+03  0.00000000000E+00 0. -1.
        -11    1    5    5    0    0 -0.77631719486E+02  0.11989950460E+02  0.19351639448E+03  0.20885171226E+03  0.00000000000E+00 0.  1.
          2    1    6    6  503    0  0.28631525151E+03  0.61966266606E+03  0.58394290121E+03  0.89830259648E+03  0.00000000000E+00 0. -1.
         -2    1    6    6    0  503  0.24615878687E+02  0.58878244866E+02  0.99710243121E+02  0.11838379021E+03  0.00000000000E+00 0.  1.
<mgrwt>
<rscale>  0 0.18767051E+04</rscale>
<asrwt>0</asrwt>
<pdfrwt beam="1">  1        2 0.30671119E+00 0.18767051E+04</pdfrwt>
<pdfrwt beam="2">  1       -1 0.67947855E-01 0.18767051E+04</pdfrwt>
<totfact> 0.15783280E+01</totfact>
</mgrwt>
</event>
<event>
12    6  0.1529770E-007  0.1294164E+04  0.7818608E-02  0.9034206E-01
         -1   -1    0    0    0  501 -0.00000000000E+00  0.00000000000E+00  0.19516188912E+03  0.19516188912E+03  0.00000000000E+00 0.  1.
          2   -1    0    0  501    0  0.00000000000E+00 -0.00000000000E+00 -0.21454765630E+04  0.21454765630E+04  0.00000000000E+00 0. -1.
         24    2    1    2    0    0 -0.19870790523E+03 -0.13001629974E+03 -0.84395384280E+02  0.26312446925E+03  0.75649425837E+02 0.  0.
        254    2    1    2    0    0  0.19870790523E+03  0.13001629974E+03 -0.18659192896E+04  0.20775139829E+04  0.88205469444E+03 0.  0.
         23    2    4    4    0    0  0.19190712605E+03  0.26853442932E+03 -0.18784261806E+04  0.19093816944E+04  0.91183630064E+02 0.  0.
         23    2    4    4    0    0  0.68007791757E+01 -0.13851812958E+03  0.12506890946E+02  0.16813228848E+03  0.94225905622E+02 0.  0.
          4    1    3    3  502    0 -0.61917382627E+02 -0.24793656443E+01 -0.25967078230E+02  0.67187786667E+02  0.00000000000E+00 0. -1.
         -3    1    3    3    0  502 -0.13679052260E+03 -0.12753693409E+03 -0.58428306050E+02  0.19593668258E+03  0.00000000000E+00 0.  1.
         11    1    5    5    0    0  0.72747312083E+02  0.70112761908E+02 -0.80298217452E+03  0.80931350131E+03  0.00000000000E+00 0. -1.
        -11    1    5    5    0    0  0.11915981397E+03  0.19842166741E+03 -0.10754440060E+04  0.11000681931E+04  0.00000000000E+00 0.  1.
          3    1    6    6  503    0  0.66280167877E+01  0.13520039559E+02 -0.28352251186E+01  0.15321898632E+02  0.00000000000E+00 0. -1.
         -3    1    6    6    0  503  0.17276238799E+00 -0.15203816914E+03  0.15342116064E+02  0.15281038985E+03  0.00000000000E+00 0.  1.
<mgrwt>
<rscale>  0 0.12941642E+04</rscale>
<asrwt>0</asrwt>
<pdfrwt beam="1">  1        2 0.33007332E+00 0.12941642E+04</pdfrwt>
<pdfrwt beam="2">  1       -1 0.30024905E-01 0.12941642E+04</pdfrwt>
<totfact> 0.63172943E+01</totfact>
</mgrwt>
</event>
<event>
12    6  0.1529770E-007  0.1873480E+04  0.7818608E-02  0.8668171E-01
          2   -1    0    0  501    0  0.00000000000E+00  0.00000000000E+00  0.96663950377E+03  0.96663950377E+03  0.00000000000E+00 0. -1.
         -1   -1    0    0    0  501 -0.00000000000E+00 -0.00000000000E+00 -0.90776571671E+03  0.90776571671E+03  0.00000000000E+00 0.  1.
         24    2    1    2    0    0 -0.34377227197E+03 -0.59591665628E+03  0.23948768498E+03  0.73285804193E+03  0.80190536603E+02 0.  0.
        254    2    1    2    0    0  0.34377227197E+03  0.59591665628E+03 -0.18061389792E+03  0.11415471785E+04  0.89286759629E+03 0.  0.
         23    2    4    4    0    0  0.27048309348E+01  0.29694365840E+03 -0.49351786236E+03  0.58331012129E+03  0.92238629389E+02 0.  0.
         23    2    4    4    0    0  0.34106744104E+03  0.29897299788E+03  0.31290396444E+03  0.55823705726E+03  0.89486693636E+02 0.  0.
          2    1    3    3  502    0 -0.31978138616E+03 -0.49962773197E+03  0.19912299950E+03  0.62572995327E+03  0.00000000000E+00 0. -1.
         -3    1    3    3    0  502 -0.23990885807E+02 -0.96288924307E+02  0.40364685479E+02  0.10712808866E+03  0.00000000000E+00 0.  1.
         11    1    5    5    0    0 -0.19865614388E+02  0.19828085458E+03 -0.39316185367E+03  0.44077906383E+03  0.00000000000E+00 0.  1.
        -11    1    5    5    0    0  0.22570445323E+02  0.98662803821E+02 -0.10035600869E+03  0.14253105746E+03  0.00000000000E+00 0. -1.
          2    1    6    6  503    0  0.24120871242E+03  0.25327564939E+03  0.26303055693E+03  0.43762457815E+03  0.00000000000E+00 0.  1.
         -2    1    6    6    0  503  0.99858728618E+02  0.45697348484E+02  0.49873407510E+02  0.12061247911E+03  0.00000000000E+00 0. -1.
<mgrwt>
<rscale>  0 0.18734804E+04</rscale>
<asrwt>0</asrwt>
<pdfrwt beam="1">  1        2 0.14871377E+00 0.18734804E+04</pdfrwt>
<pdfrwt beam="2">  1       -1 0.13965626E+00 0.18734804E+04</pdfrwt>
<totfact> 0.11960896E+01</totfact>
</mgrwt>
</event>
<event>
12    6  0.1529770E-007  0.2471948E+04  0.7818608E-02  0.8413048E-01
          2   -1    0    0  501    0  0.00000000000E+00  0.00000000000E+00  0.15133454744E+04  0.15133454744E+04  0.00000000000E+00 0. -1.
         -1   -1    0    0    0  501 -0.00000000000E+00 -0.00000000000E+00 -0.10094398671E+04  0.10094398671E+04  0.00000000000E+00 0.  1.
         24    2    1    2    0    0 -0.25631720812E+03 -0.83492001098E+03 -0.34120010214E+03  0.94114964875E+03  0.80964286731E+02 0.  0.
        254    2    1    2    0    0  0.25631720812E+03  0.83492001098E+03  0.84510570946E+03  0.15816356928E+04  0.10122143392E+04 0.  0.
         23    2    4    4    0    0 -0.20956717078E+03 -0.23893200775E+02 -0.69063913008E+02  0.24030888384E+03  0.92137134007E+02 0.  0.
         23    2    4    4    0    0  0.46588437890E+03  0.85881321175E+03  0.91416962247E+03  0.13413268089E+04  0.94037878127E+02 0.  0.
          2    1    3    3  502    0 -0.17557945563E+03 -0.47881543097E+03 -0.16747796093E+03  0.53678788135E+03  0.00000000000E+00 0. -1.
         -1    1    3    3    0  502 -0.80737752489E+02 -0.35610458001E+03 -0.17372214121E+03  0.40436176739E+03  0.00000000000E+00 0.  1.
         11    1    5    5    0    0 -0.92749705592E+01  0.10622117891E+02 -0.30272440846E+02  0.33395735389E+02  0.00000000000E+00 0.  1.
        -11    1    5    5    0    0 -0.20029220022E+03 -0.34515318666E+02 -0.38791472163E+02  0.20691314846E+03  0.00000000000E+00 0. -1.
          4    1    6    6  503    0  0.11933879781E+03  0.25516784530E+03  0.31841907146E+03  0.42513889849E+03  0.00000000000E+00 0.  1.
         -4    1    6    6    0  503  0.34654558108E+03  0.60364536645E+03  0.59575055101E+03  0.91618791044E+03  0.00000000000E+00 0. -1.
<mgrwt>
<rscale>  0 0.24719476E+04</rscale>
<asrwt>0</asrwt>
<pdfrwt beam="1">  1        2 0.23282238E+00 0.24719476E+04</pdfrwt>
<pdfrwt beam="2">  1       -1 0.15529844E+00 0.24719476E+04</pdfrwt>
<totfact> 0.40324100E+00</totfact>
</mgrwt>
</event>
<event>
12    6  0.1529770E-007  0.2417689E+04  0.7818608E-02  0.8432910E-01
         -1   -1    0    0    0  501 -0.00000000000E+00  0.00000000000E+00  0.38769879825E+03  0.38769879825E+03  0.00000000000E+00 0.  1.
          2   -1    0    0  501    0  0.00000000000E+00 -0.00000000000E+00 -0.37691774717E+04  0.37691774717E+04  0.00000000000E+00 0. -1.
         24    2    1    2    0    0 -0.19063511234E+02 -0.46374041122E+03 -0.30496321295E+04  0.30857743877E+04  0.79554133453E+02 0.  0.
        254    2    1    2    0    0  0.19063511234E+02  0.46374041122E+03 -0.33184654399E+03  0.10711018823E+04  0.90648691496E+03 0.  0.
         23    2    4    4    0    0  0.29421366767E+02  0.65902324559E+03 -0.46926319297E+03  0.81532265690E+03  0.96777246950E+02 0.  0.
         23    2    4    4    0    0 -0.10357855533E+02 -0.19528283438E+03  0.13741664898E+03  0.25577922538E+03  0.91087903390E+02 0.  0.
          4    1    3    3  502    0 -0.98011617022E+01 -0.45457192838E+03 -0.28829987749E+04  0.29186321517E+04  0.00000000000E+00 0. -1.
         -3    1    3    3    0  502 -0.92623495317E+01 -0.91684828383E+01 -0.16663335461E+03  0.16714223603E+03  0.00000000000E+00 0.  1.
         11    1    5    5    0    0 -0.77575231738E+01  0.24587641324E+03 -0.12328905143E+03  0.27516464154E+03  0.00000000000E+00 0.  1.
        -11    1    5    5    0    0  0.37178889941E+02  0.41314683235E+03 -0.34597414154E+03  0.54015801536E+03  0.00000000000E+00 0. -1.
          3    1    6    6  503    0  0.27869882905E+02 -0.13636659047E+03  0.11912913101E+03  0.18320569648E+03  0.00000000000E+00 0. -1.
         -3    1    6    6    0  503 -0.38227738438E+02 -0.58916243909E+02  0.18287517968E+02  0.72573528892E+02  0.00000000000E+00 0.  1.
<mgrwt>
<rscale>  0 0.24176895E+04</rscale>
<asrwt>0</asrwt>
<pdfrwt beam="1">  1        2 0.57987346E+00 0.24176895E+04</pdfrwt>
<pdfrwt beam="2">  1       -1 0.59645968E-01 0.24176895E+04</pdfrwt>
<totfact> 0.15130295E+00</totfact>
</mgrwt>
</event>
<event>
12    6  0.1529770E-007  0.2285664E+04  0.7818608E-02  0.8483595E-01
         -1   -1    0    0    0  501 -0.00000000000E+00  0.00000000000E+00  0.17185667815E+04  0.17185667815E+04  0.00000000000E+00 0.  1.
          2   -1    0    0  501    0  0.00000000000E+00 -0.00000000000E+00 -0.75997339847E+03  0.75997339847E+03  0.00000000000E+00 0. -1.
         24    2    1    2    0    0 -0.72919872553E+02  0.95561013817E+03  0.30097934418E+03  0.10079749692E+04  0.83168076735E+02 0.  0.
        254    2    1    2    0    0  0.72919872553E+02 -0.95561013817E+03  0.65761403886E+03  0.14705652108E+04  0.90088721325E+03 0.  0.
         23    2    4    4    0    0  0.50442739390E+02 -0.10700424566E+04  0.73374407068E+03  0.13015098541E+04  0.89510949857E+02 0.  0.
         23    2    4    4    0    0  0.22477133163E+02  0.11443231843E+03 -0.76130031829E+02  0.16905535667E+03  0.95832952868E+02 0.  0.
          2    1    3    3  502    0 -0.24928091048E+02  0.40134785335E+03  0.16904783769E+03  0.43620944573E+03  0.00000000000E+00 0. -1.
         -1    1    3    3    0  502 -0.47991781505E+02  0.55426228482E+03  0.13193150649E+03  0.57176552350E+03  0.00000000000E+00 0.  1.
         11    1    5    5    0    0  0.73058499048E+02 -0.83488603821E+03  0.59083851616E+03  0.10254084032E+04  0.00000000000E+00 0. -1.
        -11    1    5    5    0    0 -0.22615759657E+02 -0.23515641839E+03  0.14290555453E+03  0.27610145094E+03  0.00000000000E+00 0.  1.
          3    1    6    6  503    0  0.27963522900E+02  0.99443926950E+02 -0.97725521177E+02  0.14220172541E+03  0.00000000000E+00 0. -1.
         -3    1    6    6    0  503 -0.54863897372E+01  0.14988391478E+02  0.21595489349E+02  0.26853631256E+02  0.00000000000E+00 0.  1.
<mgrwt>
<rscale>  0 0.22856641E+04</rscale>
<asrwt>0</asrwt>
<pdfrwt beam="1">  1        2 0.11691898E+00 0.22856641E+04</pdfrwt>
<pdfrwt beam="2">  1       -1 0.26439489E+00 0.22856641E+04</pdfrwt>
<totfact> 0.21447295E+00</totfact>
</mgrwt>
</event>
<event>
12    6  0.1529770E-007  0.2194257E+04  0.7818608E-02  0.8520822E-01
         -1   -1    0    0    0  501 -0.00000000000E+00  0.00000000000E+00  0.85957735220E+03  0.85957735220E+03  0.00000000000E+00 0.  1.
          2   -1    0    0  501    0  0.00000000000E+00 -0.00000000000E+00 -0.14003291048E+04  0.14003291048E+04  0.00000000000E+00 0. -1.
         24    2    1    2    0    0  0.43325837425E+03  0.11802601477E+03 -0.10459595570E+04  0.11411092471E+04  0.80348987826E+02 0.  0.
        254    2    1    2    0    0 -0.43325837425E+03 -0.11802601477E+03  0.50520780437E+03  0.11187972100E+04  0.89153200302E+03 0.  0.
         23    2    4    4    0    0  0.24136268095E+03  0.11254608213E+03  0.14007415634E+03  0.31246114986E+03  0.84194040985E+02 0.  0.
         23    2    4    4    0    0 -0.67462105520E+03 -0.23057209691E+03  0.36513364803E+03  0.80633606011E+03  0.92618577574E+02 0.  0.
          2    1    3    3  502    0  0.17632856989E+03  0.10895883343E+02 -0.44603629152E+03  0.47974874485E+03  0.00000000000E+00 0. -1.
         -1    1    3    3    0  502  0.25692980436E+03  0.10713013143E+03 -0.59992326547E+03  0.66136050221E+03  0.00000000000E+00 0.  1.
         11    1    5    5    0    0  0.18287644363E+03  0.10825966876E+03  0.13875188725E+03  0.25380314366E+03  0.00000000000E+00 0. -1.
        -11    1    5    5    0    0  0.58486237321E+02  0.42864133689E+01  0.13222690843E+01  0.58658006197E+02  0.00000000000E+00 0.  1.
          3    1    6    6  503    0 -0.51678385489E+03 -0.17858894875E+03  0.23439802157E+03  0.59489662783E+03  0.00000000000E+00 0. -1.
         -3    1    6    6    0  503 -0.15783720031E+03 -0.51983148154E+02  0.13073562646E+03  0.21143943227E+03  0.00000000000E+00 0.  1.
<mgrwt>
<rscale>  0 0.21942572E+04</rscale>
<asrwt>0</asrwt>
<pdfrwt beam="1">  1        2 0.21543524E+00 0.21942572E+04</pdfrwt>
<pdfrwt beam="2">  1       -1 0.13224267E+00 0.21942572E+04</pdfrwt>
<totfact> 0.73194269E+00</totfact>
</mgrwt>
</event>
<event>
12    6  0.1529770E-007  0.1626052E+04  0.7818608E-02  0.8804701E-01
          2   -1    0    0  501    0  0.00000000000E+00  0.00000000000E+00  0.19320043541E+04  0.19320043541E+04  0.00000000000E+00 0. -1.
         -1   -1    0    0    0  501 -0.00000000000E+00 -0.00000000000E+00 -0.34213750414E+03  0.34213750414E+03  0.00000000000E+00 0.  1.
         24    2    1    2    0    0  0.36429790382E+03  0.15595645502E+03 -0.46749464132E+01  0.40419148161E+03  0.79457662266E+02 0.  0.
        254    2    1    2    0    0 -0.36429790382E+03 -0.15595645502E+03  0.15945417964E+04  0.18699503767E+04  0.89281324595E+03 0.  0.
         23    2    4    4    0    0  0.28776356206E+03 -0.71358407008E+02  0.57093469569E+03  0.64991104962E+03  0.92293313816E+02 0.  0.
         23    2    4    4    0    0 -0.65206146588E+03 -0.84598048007E+02  0.10236071007E+04  0.12200393270E+04  0.91561334103E+02 0.  0.
          2    1    3    3  502    0  0.61201536567E+02 -0.34856764079E+01 -0.70775902840E+01  0.61707943593E+02  0.00000000000E+00 0. -1.
         -1    1    3    3    0  502  0.30309636725E+03  0.15944213142E+03  0.24026438708E+01  0.34248353801E+03  0.00000000000E+00 0.  1.
         11    1    5    5    0    0  0.16355726158E+02 -0.72626041739E+01  0.10796209004E+03  0.10943522323E+03  0.00000000000E+00 0.  1.
        -11    1    5    5    0    0  0.27140783591E+03 -0.64095802835E+02  0.46297260565E+03  0.54047582639E+03  0.00000000000E+00 0. -1.
          2    1    6    6  503    0 -0.90277148211E+01  0.57081734084E+01  0.40182272926E+02  0.41577613400E+02  0.00000000000E+00 0.  1.
         -2    1    6    6    0  503 -0.64303375106E+03 -0.90306221416E+02  0.98342482778E+03  0.11784617136E+04  0.00000000000E+00 0. -1.
<mgrwt>
<rscale>  0 0.16260518E+04</rscale>
<asrwt>0</asrwt>
<pdfrwt beam="1">  1        2 0.29723143E+00 0.16260518E+04</pdfrwt>
<pdfrwt beam="2">  1       -1 0.52636540E-01 0.16260518E+04</pdfrwt>
<totfact> 0.28904375E+01</totfact>
</mgrwt>
</event>
<event>
12    6  0.1529770E-007  0.2042755E+04  0.7818608E-02  0.8586888E-01
         -1   -1    0    0    0  501 -0.00000000000E+00  0.00000000000E+00  0.85726597276E+03  0.85726597276E+03  0.00000000000E+00 0.  1.
          2   -1    0    0  501    0  0.00000000000E+00 -0.00000000000E+00 -0.12169061958E+04  0.12169061958E+04  0.00000000000E+00 0. -1.
         24    2    1    2    0    0 -0.27759905792E+03 -0.18721187887E+03 -0.89315742937E+03  0.95721525708E+03  0.80133202840E+02 0.  0.
        254    2    1    2    0    0  0.27759905792E+03  0.18721187887E+03  0.53351720628E+03  0.11169569115E+04  0.92241130103E+03 0.  0.
         23    2    4    4    0    0  0.36085657850E+03  0.48718403308E+03  0.18365397933E+03  0.63995316035E+03  0.90804796000E+02 0.  0.
         23    2    4    4    0    0 -0.83257520577E+02 -0.29997215420E+03  0.34986322695E+03  0.47700375119E+03  0.90626668483E+02 0.  0.
          4    1    3    3  502    0 -0.17689053638E+03 -0.16065820700E+03 -0.65718217388E+03  0.69927800695E+03  0.00000000000E+00 0. -1.
         -3    1    3    3    0  502 -0.10070852155E+03 -0.26553671874E+02 -0.23597525549E+03  0.25793725014E+03  0.00000000000E+00 0.  1.
         11    1    5    5    0    0  0.30106781456E+03  0.40039851989E+03  0.18644231804E+03  0.53452927109E+03  0.00000000000E+00 0. -1.
        -11    1    5    5    0    0  0.59788763942E+02  0.86785513193E+02 -0.27883387104E+01  0.10542388926E+03  0.00000000000E+00 0.  1.
          4    1    6    6  503    0 -0.71388498839E+02 -0.23244696640E+03  0.21020773709E+03  0.32142682323E+03  0.00000000000E+00 0. -1.
         -4    1    6    6    0  503 -0.11869021738E+02 -0.67525187802E+02  0.13965548986E+03  0.15557692796E+03  0.00000000000E+00 0.  1.
<mgrwt>
<rscale>  0 0.20427553E+04</rscale>
<asrwt>0</asrwt>
<pdfrwt beam="1">  1        2 0.18721634E+00 0.20427553E+04</pdfrwt>
<pdfrwt beam="2">  1       -1 0.13188707E+00 0.20427553E+04</pdfrwt>
<totfact> 0.95514398E+00</totfact>
</mgrwt>
</event>
<event>
12    6  0.1529770E-007  0.1305125E+04  0.7818608E-02  0.9025510E-01
         -1   -1    0    0    0  501 -0.00000000000E+00  0.00000000000E+00  0.24610518309E+03  0.24610518309E+03  0.00000000000E+00 0.  1.
          2   -1    0    0  501    0  0.00000000000E+00 -0.00000000000E+00 -0.17303093929E+04  0.17303093929E+04  0.00000000000E+00 0. -1.
         24    2    1    2    0    0  0.15258860490E+03 -0.16419915192E+02 -0.85058308864E+03  0.86798358374E+03  0.79693255634E+02 0.  0.
        254    2    1    2    0    0 -0.15258860490E+03  0.16419915192E+02 -0.63362112112E+03  0.11084309922E+04  0.89643217445E+03 0.  0.
         23    2    4    4    0    0 -0.33279104610E+03 -0.32994198299E+03 -0.48721102200E+03  0.68143358306E+03  0.85822815482E+02 0.  0.
         23    2    4    4    0    0  0.18020244120E+03  0.34636189818E+03 -0.14641009912E+03  0.42699740914E+03  0.91931419894E+02 0.  0.
          2    1    3    3  502    0  0.77558061785E+02  0.92379029952E+01 -0.60234710556E+03  0.60739001257E+03  0.00000000000E+00 0. -1.
         -1    1    3    3    0  502  0.75030543118E+02 -0.25657818187E+02 -0.24823598309E+03  0.26059357117E+03  0.00000000000E+00 0.  1.
         11    1    5    5    0    0 -0.31041509696E+03 -0.27422636916E+03 -0.40206012892E+03  0.57724343325E+03  0.00000000000E+00 0. -1.
        -11    1    5    5    0    0 -0.22375949137E+02 -0.55715613830E+02 -0.85150893082E+02  0.10419014981E+03  0.00000000000E+00 0.  1.
          1    1    6    6  503    0  0.14101685160E+03  0.29047743828E+03 -0.81991972452E+02  0.33314498065E+03  0.00000000000E+00 0. -1.
         -1    1    6    6    0  503  0.39185589592E+02  0.55884459907E+02 -0.64418126671E+02  0.93852428496E+02  0.00000000000E+00 0.  1.
<mgrwt>
<rscale>  0 0.13051254E+04</rscale>
<asrwt>0</asrwt>
<pdfrwt beam="1">  1        2 0.26620144E+00 0.13051254E+04</pdfrwt>
<pdfrwt beam="2">  1       -1 0.37862336E-01 0.13051254E+04</pdfrwt>
<totfact> 0.70897048E+01</totfact>
</mgrwt>
</event>
<event>
12    6  0.1529770E-007  0.1778776E+04  0.7818608E-02  0.8717668E-01
         -1   -1    0    0    0  501 -0.00000000000E+00  0.00000000000E+00  0.67225738546E+03  0.67225738546E+03  0.00000000000E+00 0.  1.
          2   -1    0    0  501    0  0.00000000000E+00 -0.00000000000E+00 -0.11766494023E+04  0.11766494023E+04  0.00000000000E+00 0. -1.
         24    2    1    2    0    0  0.52037458102E+03  0.12009002946E+03  0.21845617651E+03  0.58238823259E+03  0.79004004069E+02 0.  0.
        254    2    1    2    0    0 -0.52037458102E+03 -0.12009002946E+03 -0.72284819333E+03  0.12665185551E+04  0.89238356112E+03 0.  0.
         23    2    4    4    0    0 -0.82208954140E+01  0.27177227184E+03  0.84290290894E+01  0.28748922809E+03  0.93012132921E+02 0.  0.
         23    2    4    4    0    0 -0.51215368561E+03 -0.39186230131E+03 -0.73127722242E+03  0.97902932705E+03  0.88738865975E+02 0.  0.
          4    1    3    3  502    0  0.24916604410E+03  0.21498509891E+02  0.82111928765E+02  0.26322665577E+03  0.00000000000E+00 0. -1.
         -3    1    3    3    0  502  0.27120853692E+03  0.98591519573E+02  0.13634424774E+03  0.31916157683E+03  0.00000000000E+00 0.  1.
         11    1    5    5    0    0 -0.37395578783E+02  0.17078084868E+03 -0.26269087039E+02  0.17678968443E+03  0.00000000000E+00 0. -1.
        -11    1    5    5    0    0  0.29174683369E+02  0.10099142317E+03  0.34698116129E+02  0.11069954366E+03  0.00000000000E+00 0.  1.
          3    1    6    6  503    0 -0.49740817052E+02 -0.35679318397E+02 -0.11458706822E+03  0.12991288945E+03  0.00000000000E+00 0. -1.
         -3    1    6    6    0  503 -0.46241286856E+03 -0.35618298291E+03 -0.61669015420E+03  0.84911643760E+03  0.00000000000E+00 0.  1.
<mgrwt>
<rscale>  0 0.17787763E+04</rscale>
<asrwt>0</asrwt>
<pdfrwt beam="1">  1        2 0.18102299E+00 0.17787763E+04</pdfrwt>
<pdfrwt beam="2">  1       -1 0.10342421E+00 0.17787763E+04</pdfrwt>
<totfact> 0.18605341E+01</totfact>
</mgrwt>
</event>
<event>
12    6  0.1529770E-007  0.1506793E+04  0.7818608E-02  0.8879948E-01
         -1   -1    0    0    0  501 -0.00000000000E+00  0.00000000000E+00  0.42780025701E+03  0.42780025701E+03  0.00000000000E+00 0.  1.
          2   -1    0    0  501    0  0.00000000000E+00 -0.00000000000E+00 -0.13268015666E+04  0.13268015666E+04  0.00000000000E+00 0. -1.
         24    2    1    2    0    0  0.45371676983E+03 -0.45013167776E+02 -0.12399512450E+03  0.47888992921E+03  0.77946654193E+02 0.  0.
        254    2    1    2    0    0 -0.45371676983E+03  0.45013167776E+02 -0.77500618504E+03  0.12757118944E+04  0.90494262693E+03 0.  0.
         23    2    4    4    0    0 -0.27783609578E+03 -0.33351425169E+03 -0.71774573985E+03  0.84364839196E+03  0.90327238313E+02 0.  0.
         23    2    4    4    0    0 -0.17588067405E+03  0.37852741947E+03 -0.57260445198E+02  0.43206350239E+03  0.95828454662E+02 0.  0.
          2    1    3    3  502    0  0.26932705788E+03 -0.29355677926E+02 -0.11289766634E+03  0.29350417885E+03  0.00000000000E+00 0. -1.
         -1    1    3    3    0  502  0.18438971194E+03 -0.15657489850E+02 -0.11097458159E+02  0.18538575036E+03  0.00000000000E+00 0.  1.
         11    1    5    5    0    0 -0.22277226662E+03 -0.29012106496E+03 -0.53663377673E+03  0.64944093298E+03  0.00000000000E+00 0.  1.
        -11    1    5    5    0    0 -0.55063829163E+02 -0.43393186739E+02 -0.18111196312E+03  0.19420745898E+03  0.00000000000E+00 0. -1.
          1    1    6    6  503    0  0.10595970773E+02  0.98857957732E+01 -0.63292183074E+01  0.15813366469E+02  0.00000000000E+00 0. -1.
         -1    1    6    6    0  503 -0.18647664482E+03  0.36864162370E+03 -0.50931226891E+02  0.41625013593E+03  0.00000000000E+00 0.  1.
<mgrwt>
<rscale>  0 0.15067927E+04</rscale>
<asrwt>0</asrwt>
<pdfrwt beam="1">  1        2 0.20412332E+00 0.15067927E+04</pdfrwt>
<pdfrwt beam="2">  1       -1 0.65815424E-01 0.15067927E+04</pdfrwt>
<totfact> 0.41078427E+01</totfact>
</mgrwt>
</event>
<event>
12    6  0.1529770E-007  0.1332332E+04  0.7818608E-02  0.9004312E-01
          2   -1    0    0  501    0  0.00000000000E+00  0.00000000000E+00  0.79091745909E+03  0.79091745909E+03  0.00000000000E+00 0. -1.
         -1   -1    0    0    0  501 -0.00000000000E+00 -0.00000000000E+00 -0.56109119099E+03  0.56109119099E+03  0.00000000000E+00 0.  1.
         24    2    1    2    0    0 -0.83478461772E+02 -0.76157271587E+02 -0.26584896493E+03  0.30008061819E+03  0.81265747159E+02 0.  0.
        254    2    1    2    0    0  0.83478461772E+02  0.76157271587E+02  0.49567523303E+03  0.10519280319E+04  0.92091805501E+03 0.  0.
         23    2    4    4    0    0 -0.32476644204E+03  0.28926354453E+03  0.14706302432E+03  0.46848973193E+03  0.93319107010E+02 0.  0.
         23    2    4    4    0    0  0.40824490382E+03 -0.21310627294E+03  0.34861220871E+03  0.58343829996E+03  0.82411120250E+02 0.  0.
          4    1    3    3  502    0  0.11357625611E+02 -0.23773057592E+02 -0.26578022323E+02  0.37423858665E+02  0.00000000000E+00 0. -1.
         -3    1    3    3    0  502 -0.94836087383E+02 -0.52384213995E+02 -0.23927094261E+03  0.26265675952E+03  0.00000000000E+00 0.  1.
         11    1    5    5    0    0 -0.32088146598E+03  0.29356381962E+03  0.15217474505E+03  0.46076217774E+03  0.00000000000E+00 0.  1.
        -11    1    5    5    0    0 -0.38849760623E+01 -0.43002750982E+01 -0.51117207340E+01  0.77275541918E+01  0.00000000000E+00 0. -1.
          2    1    6    6  503    0  0.34102986650E+02 -0.36780370513E+02  0.64237441146E+02  0.81500050298E+02  0.00000000000E+00 0. -1.
         -2    1    6    6    0  503  0.37414191717E+03 -0.17632590242E+03  0.28437476756E+03  0.50193824966E+03  0.00000000000E+00 0.  1.
<mgrwt>
<rscale>  0 0.13323315E+04</rscale>
<asrwt>0</asrwt>
<pdfrwt beam="1">  1        2 0.12167961E+00 0.13323315E+04</pdfrwt>
<pdfrwt beam="2">  1       -1 0.86321722E-01 0.13323315E+04</pdfrwt>
<totfact> 0.51721907E+01</totfact>
</mgrwt>
</event>
<event>
12    6  0.1529770E-007  0.1027600E+04  0.7818608E-02  0.9278781E-01
          2   -1    0    0  501    0  0.00000000000E+00  0.00000000000E+00  0.50965221718E+03  0.50965221718E+03  0.00000000000E+00 0. -1.
         -1   -1    0    0    0  501 -0.00000000000E+00 -0.00000000000E+00 -0.51798128888E+03  0.51798128888E+03  0.00000000000E+00 0.  1.
         24    2    1    2    0    0  0.46507270780E+02 -0.13370264653E+02  0.34557933821E+02  0.98387192667E+02  0.78384301225E+02 0.  0.
        254    2    1    2    0    0 -0.46507270780E+02  0.13370264653E+02 -0.42887005521E+02  0.92924631340E+03  0.92699391881E+03 0.  0.
         23    2    4    4    0    0  0.11027257012E+03  0.25711683955E+02 -0.45563573617E+03  0.47814484021E+03  0.90539680441E+02 0.  0.
         23    2    4    4    0    0 -0.15677984090E+03 -0.12341419302E+02  0.41274873065E+03  0.45110147319E+03  0.91644941572E+02 0.  0.
          2    1    3    3  502    0  0.41165395942E+02  0.73033599109E+01  0.54825317699E+02  0.68947402779E+02  0.00000000000E+00 0. -1.
         -3    1    3    3    0  502  0.53418748375E+01 -0.20673624564E+02 -0.20267383879E+02  0.29439789888E+02  0.00000000000E+00 0.  1.
         11    1    5    5    0    0  0.50549776538E+02  0.29616255574E+02 -0.36407173941E+03  0.36875552056E+03  0.00000000000E+00 0. -1.
        -11    1    5    5    0    0  0.59722793580E+02 -0.39045716190E+01 -0.91563996757E+02  0.10938931965E+03  0.00000000000E+00 0.  1.
          4    1    6    6  503    0 -0.61748985743E+02 -0.35241741981E+00  0.61981815213E+02  0.87491753071E+02  0.00000000000E+00 0.  1.
         -4    1    6    6    0  503 -0.95030855155E+02 -0.11989001882E+02  0.35076691544E+03  0.36360972012E+03  0.00000000000E+00 0. -1.
<mgrwt>
<rscale>  0 0.10275998E+04</rscale>
<asrwt>0</asrwt>
<pdfrwt beam="1">  1        2 0.78408033E-01 0.10275998E+04</pdfrwt>
<pdfrwt beam="2">  1       -1 0.79689429E-01 0.10275998E+04</pdfrwt>
<totfact> 0.10804216E+02</totfact>
</mgrwt>
</event>
<event>
12    6  0.1529770E-007  0.1929482E+04  0.7818608E-02  0.8640319E-01
          2   -1    0    0  501    0  0.00000000000E+00  0.00000000000E+00  0.66684585409E+03  0.66684585409E+03  0.00000000000E+00 0. -1.
         -1   -1    0    0    0  501 -0.00000000000E+00 -0.00000000000E+00 -0.13957121781E+04  0.13957121781E+04  0.00000000000E+00 0.  1.
         24    2    1    2    0    0 -0.30912010980E+03 -0.22183237688E+03  0.40919638855E+03  0.56333220361E+03  0.71670367032E+02 0.  0.
        254    2    1    2    0    0  0.30912010980E+03  0.22183237688E+03 -0.11380627126E+04  0.14992258286E+04  0.89873605783E+03 0.  0.
         23    2    4    4    0    0  0.55705254550E+03  0.35897362969E+03 -0.68831935748E+03  0.95979514720E+03  0.90849223675E+02 0.  0.
         23    2    4    4    0    0 -0.24793243570E+03 -0.13714125281E+03 -0.44974335511E+03  0.53943068141E+03  0.91859450704E+02 0.  0.
          4    1    3    3  502    0 -0.28766252126E+03 -0.21313578704E+03  0.40360755852E+03  0.53951427336E+03  0.00000000000E+00 0. -1.
         -1    1    3    3    0  502 -0.21457588536E+02 -0.86965898350E+01  0.55888300238E+01  0.23817930254E+02  0.00000000000E+00 0.  1.
         11    1    5    5    0    0  0.18078073972E+03  0.11865692630E+03 -0.28794266616E+03  0.36010015414E+03  0.00000000000E+00 0.  1.
        -11    1    5    5    0    0  0.37627180578E+03  0.24031670338E+03 -0.40037669132E+03  0.59969499306E+03  0.00000000000E+00 0. -1.
          2    1    6    6  503    0 -0.14185270683E+03 -0.12105760777E+03 -0.32670316788E+03  0.37618093351E+03  0.00000000000E+00 0. -1.
         -2    1    6    6    0  503 -0.10607972887E+03 -0.16083645043E+02 -0.12304018723E+03  0.16324974790E+03  0.00000000000E+00 0.  1.
<mgrwt>
<rscale>  0 0.19294817E+04</rscale>
<asrwt>0</asrwt>
<pdfrwt beam="1">  1        2 0.10259167E+00 0.19294817E+04</pdfrwt>
<pdfrwt beam="2">  1       -1 0.21472495E+00 0.19294817E+04</pdfrwt>
<totfact> 0.55481365E+00</totfact>
</mgrwt>
</event>
<event>
12    6  0.1529770E-007  0.2890889E+04  0.7818608E-02  0.8275593E-01
          2   -1    0    0  501    0  0.00000000000E+00  0.00000000000E+00  0.16066267284E+04  0.16066267284E+04  0.00000000000E+00 0. -1.
         -1   -1    0    0    0  501 -0.00000000000E+00 -0.00000000000E+00 -0.13004329333E+04  0.13004329333E+04  0.00000000000E+00 0.  1.
         24    2    1    2    0    0 -0.71025130025E+03  0.89730314252E+03  0.75093608139E+03  0.13716432461E+04  0.88827681788E+02 0.  0.
        254    2    1    2    0    0  0.71025130025E+03 -0.89730314252E+03 -0.44474228634E+03  0.15354164156E+04  0.92200760786E+03 0.  0.
         23    2    4    4    0    0  0.42193348092E+02 -0.28557037328E+03  0.24811447429E+03  0.39132519870E+03  0.90795936404E+02 0.  0.
         23    2    4    4    0    0  0.66805795216E+03 -0.61173276924E+03 -0.69285676063E+03  0.11440912169E+04  0.91519470263E+02 0.  0.
          2    1    3    3  502    0 -0.64661707875E+03  0.81728787512E+03  0.65154169252E+03  0.12290564244E+04  0.00000000000E+00 0. -1.
         -1    1    3    3    0  502 -0.63634221495E+02  0.80015267402E+02  0.99394388877E+02  0.14258682163E+03  0.00000000000E+00 0.  1.
         11    1    5    5    0    0  0.25762616135E+02 -0.12618460566E+02  0.30355280363E+02  0.41765787232E+02  0.00000000000E+00 0.  1.
        -11    1    5    5    0    0  0.16430731957E+02 -0.27295191271E+03  0.21775919392E+03  0.34955941147E+03  0.00000000000E+00 0. -1.
          4    1    6    6  503    0  0.56023477806E+03 -0.54599176722E+03 -0.57014074044E+03  0.96800334727E+03  0.00000000000E+00 0. -1.
         -4    1    6    6    0  503  0.10782317409E+03 -0.65741002015E+02 -0.12271602019E+03  0.17608786963E+03  0.00000000000E+00 0.  1.
<mgrwt>
<rscale>  0 0.28908894E+04</rscale>
<asrwt>0</asrwt>
<pdfrwt beam="1">  1        2 0.24717334E+00 0.28908894E+04</pdfrwt>
<pdfrwt beam="2">  1       -1 0.20006660E+00 0.28908894E+04</pdfrwt>
<totfact> 0.16346821E+00</totfact>
</mgrwt>
</event>
<event>
12    6  0.1529770E-007  0.1427120E+04  0.7818608E-02  0.8934418E-01
          2   -1    0    0  501    0  0.00000000000E+00  0.00000000000E+00  0.10894783663E+04  0.10894783663E+04  0.00000000000E+00 0. -1.
         -1   -1    0    0    0  501 -0.00000000000E+00 -0.00000000000E+00 -0.46735046258E+03  0.46735046258E+03  0.00000000000E+00 0.  1.
         24    2    1    2    0    0  0.13924026538E+03  0.22236508789E+03 -0.17236024449E+03  0.32393477423E+03  0.79947484362E+02 0.  0.
        254    2    1    2    0    0 -0.13924026538E+03 -0.22236508789E+03  0.79448814818E+03  0.12328940546E+04  0.90552871214E+03 0.  0.
         23    2    4    4    0    0 -0.50645915426E+03 -0.58972127625E+02  0.34074639309E+03  0.62002812546E+03  0.91368403629E+02 0.  0.
         23    2    4    4    0    0  0.36721888888E+03 -0.16339296026E+03  0.45374175509E+03  0.61286592917E+03  0.90421761782E+02 0.  0.
          2    1    3    3  502    0  0.90333020311E+01 -0.42591380852E+01  0.13927836482E+01  0.10083682319E+02  0.00000000000E+00 0. -1.
         -1    1    3    3    0  502  0.13020696335E+03  0.22662422597E+03 -0.17375302814E+03  0.31385109191E+03  0.00000000000E+00 0.  1.
         11    1    5    5    0    0 -0.29475108412E+03 -0.15647387524E+02  0.24530784211E+03  0.38379549206E+03  0.00000000000E+00 0.  1.
        -11    1    5    5    0    0 -0.21170807014E+03 -0.43324740102E+02  0.95438550980E+02  0.23623263339E+03  0.00000000000E+00 0. -1.
          1    1    6    6  503    0  0.18034252923E+03 -0.70407260605E+02  0.28460104043E+03  0.34420685991E+03  0.00000000000E+00 0. -1.
         -1    1    6    6    0  503  0.18687635965E+03 -0.92985699658E+02  0.16914071466E+03  0.26865906926E+03  0.00000000000E+00 0.  1.
<mgrwt>
<rscale>  0 0.14271205E+04</rscale>
<asrwt>0</asrwt>
<pdfrwt beam="1">  1        2 0.16761206E+00 0.14271205E+04</pdfrwt>
<pdfrwt beam="2">  1       -1 0.71900071E-01 0.14271205E+04</pdfrwt>
<totfact> 0.47842659E+01</totfact>
</mgrwt>
</event>
<event>
12    6  0.1529770E-007  0.3636006E+04  0.7818608E-02  0.8082293E-01
         -1   -1    0    0    0  501 -0.00000000000E+00  0.00000000000E+00  0.13533571644E+04  0.13533571644E+04  0.00000000000E+00 0.  1.
          2   -1    0    0  501    0  0.00000000000E+00 -0.00000000000E+00 -0.24421753993E+04  0.24421753993E+04  0.00000000000E+00 0. -1.
         24    2    1    2    0    0 -0.88815939197E+03  0.22336949728E+03  0.99236548757E+03  0.13526069386E+04  0.77686753373E+02 0.  0.
        254    2    1    2    0    0  0.88815939197E+03 -0.22336949728E+03 -0.20811837224E+04  0.24429256251E+04  0.89321827419E+03 0.  0.
         23    2    4    4    0    0  0.18822438320E+03 -0.33250518799E+03 -0.14069180709E+04  0.14607263067E+04  0.91185341419E+02 0.  0.
         23    2    4    4    0    0  0.69993500877E+03  0.10913569071E+03 -0.67426565155E+03  0.98219931838E+03  0.90893985843E+02 0.  0.
          4    1    3    3  502    0 -0.17029301582E+03  0.57507888377E+02  0.15597877860E+03  0.23798371339E+03  0.00000000000E+00 0. -1.
         -3    1    3    3    0  502 -0.71786637615E+03  0.16586160890E+03  0.83638670897E+03  0.11146232252E+04  0.00000000000E+00 0.  1.
         11    1    5    5    0    0  0.17661083073E+02 -0.42863526952E+02 -0.85862599187E+02  0.97578592618E+02  0.00000000000E+00 0. -1.
        -11    1    5    5    0    0  0.17056330013E+03 -0.28964166104E+03 -0.13210554717E+04  0.13631477141E+04  0.00000000000E+00 0.  1.
          3    1    6    6  503    0  0.48692144092E+02 -0.10281211398E+02 -0.69443141231E+02  0.85434056839E+02  0.00000000000E+00 0. -1.
         -3    1    6    6    0  503  0.65124286468E+03  0.11941690211E+03 -0.60482251032E+03  0.89676526154E+03  0.00000000000E+00 0.  1.
<mgrwt>
<rscale>  0 0.36360064E+04</rscale>
<asrwt>0</asrwt>
<pdfrwt beam="1">  1        2 0.37571929E+00 0.36360064E+04</pdfrwt>
<pdfrwt beam="2">  1       -1 0.20820880E+00 0.36360064E+04</pdfrwt>
<totfact> 0.45908517E-01</totfact>
</mgrwt>
</event>
<event>
12    6  0.1529770E-007  0.2045673E+04  0.7818608E-02  0.8585560E-01
          2   -1    0    0  501    0  0.00000000000E+00  0.00000000000E+00  0.21049976422E+04  0.21049976422E+04  0.00000000000E+00 0. -1.
         -1   -1    0    0    0  501 -0.00000000000E+00 -0.00000000000E+00 -0.49700490611E+03  0.49700490611E+03  0.00000000000E+00 0.  1.
         24    2    1    2    0    0  0.19732909324E+03  0.36897961461E+03  0.15485655341E+04  0.16060282513E+04  0.78656236897E+02 0.  0.
        254    2    1    2    0    0 -0.19732909324E+03 -0.36897961461E+03  0.59427202077E+02  0.99597429707E+03  0.90185834866E+03 0.  0.
         23    2    4    4    0    0 -0.25153896535E+03  0.24839920345E+03 -0.13269976301E+02  0.36520694564E+03  0.90697329112E+02 0.  0.
         23    2    4    4    0    0  0.54209872111E+02 -0.61737881806E+03  0.72697178378E+02  0.63076735144E+03  0.92126308230E+02 0.  0.
          4    1    3    3  502    0  0.93622905243E+02  0.21833377512E+03  0.74709860755E+03  0.78395868204E+03  0.00000000000E+00 0. -1.
         -1    1    3    3    0  502  0.10370618800E+03  0.15064583950E+03  0.80146692651E+03  0.82206956925E+03  0.00000000000E+00 0.  1.
         11    1    5    5    0    0 -0.15333773526E+03  0.14463117524E+03 -0.52153700937E+02  0.21714199601E+03  0.00000000000E+00 0.  1.
        -11    1    5    5    0    0 -0.98201230085E+02  0.10376802821E+03  0.38883724635E+02  0.14806494963E+03  0.00000000000E+00 0. -1.
          2    1    6    6  503    0  0.69095834988E+02 -0.57121646939E+03  0.51011597793E+02  0.57763714599E+03  0.00000000000E+00 0. -1.
         -2    1    6    6    0  503 -0.14885962877E+02 -0.46162348669E+02  0.21685580585E+02  0.53130205446E+02  0.00000000000E+00 0.  1.
<mgrwt>
<rscale>  0 0.20456727E+04</rscale>
<asrwt>0</asrwt>
<pdfrwt beam="1">  1        2 0.32384579E+00 0.20456727E+04</pdfrwt>
<pdfrwt beam="2">  1       -1 0.76462294E-01 0.20456727E+04</pdfrwt>
<totfact> 0.10561514E+01</totfact>
</mgrwt>
</event>
<event>
12    6  0.1529770E-007  0.1683362E+04  0.7818608E-02  0.8770911E-01
         -1   -1    0    0    0  501 -0.00000000000E+00  0.00000000000E+00  0.52130251216E+03  0.52130251216E+03  0.00000000000E+00 0.  1.
          2   -1    0    0  501    0  0.00000000000E+00 -0.00000000000E+00 -0.13589550046E+04  0.13589550046E+04  0.00000000000E+00 0. -1.
         24    2    1    2    0    0 -0.47606127347E+03  0.63674061776E+02 -0.69410244068E+03  0.84772937075E+03  0.78601308080E+02 0.  0.
        254    2    1    2    0    0  0.47606127347E+03 -0.63674061776E+02 -0.14355005173E+03  0.10325281460E+04  0.90267327014E+03 0.  0.
         23    2    4    4    0    0  0.29654717942E+03 -0.40554524583E+03  0.15744524381E+03  0.53472654351E+03  0.93468152295E+02 0.  0.
         23    2    4    4    0    0  0.17951409405E+03  0.34187118406E+03 -0.30099529554E+03  0.49780160247E+03  0.90039163874E+02 0.  0.
          2    1    3    3  502    0 -0.44661926758E+03  0.42834552383E+02 -0.66019388228E+03  0.79822273286E+03  0.00000000000E+00 0. -1.
         -1    1    3    3    0  502 -0.29442005891E+02  0.20839509393E+02 -0.33908558405E+02  0.49506637896E+02  0.00000000000E+00 0.  1.
         11    1    5    5    0    0  0.28158511060E+03 -0.34982530339E+03  0.16064744588E+03  0.47694393724E+03  0.00000000000E+00 0. -1.
        -11    1    5    5    0    0  0.14962068822E+02 -0.55719942437E+02 -0.32022020656E+01  0.57782606264E+02  0.00000000000E+00 0.  1.
          1    1    6    6  503    0  0.18958470635E+03  0.32515902155E+03 -0.27983577802E+03  0.46901898984E+03  0.00000000000E+00 0. -1.
         -1    1    6    6    0  503 -0.10070612296E+02  0.16712162507E+02 -0.21159517521E+02  0.28782612623E+02  0.00000000000E+00 0.  1.
<mgrwt>
<rscale>  0 0.16833617E+04</rscale>
<asrwt>0</asrwt>
<pdfrwt beam="1">  1        2 0.20907000E+00 0.16833617E+04</pdfrwt>
<pdfrwt beam="2">  1       -1 0.80200386E-01 0.16833617E+04</pdfrwt>
<totfact> 0.25746846E+01</totfact>
</mgrwt>
</event>
<event>
12    6  0.1529770E-007  0.1588545E+04  0.7818608E-02  0.8827616E-01
          2   -1    0    0  501    0  0.00000000000E+00  0.00000000000E+00  0.64718237710E+03  0.64718237710E+03  0.00000000000E+00 0. -1.
         -1   -1    0    0    0  501 -0.00000000000E+00 -0.00000000000E+00 -0.97479317180E+03  0.97479317180E+03  0.00000000000E+00 0.  1.
         24    2    1    2    0    0 -0.44227057210E+03  0.12350548596E+03  0.16754000253E+03  0.49533409852E+03  0.80183244518E+02 0.  0.
        254    2    1    2    0    0  0.44227057210E+03 -0.12350548596E+03 -0.49515079722E+03  0.11266414504E+04  0.90182580453E+03 0.  0.
         23    2    4    4    0    0  0.16023112866E+03  0.50195534757E+02  0.24477809483E+03  0.31085048179E+03  0.92293553507E+02 0.  0.
         23    2    4    4    0    0  0.28203944344E+03 -0.17370102072E+03 -0.73992889205E+03  0.81579096859E+03  0.91114471333E+02 0.  0.
          4    1    3    3  502    0 -0.35494437885E+03  0.69639334780E+02  0.14835241982E+03  0.39095215755E+03  0.00000000000E+00 0. -1.
         -3    1    3    3    0  502 -0.87326193253E+02  0.53866151180E+02  0.19187582702E+02  0.10438194097E+03  0.00000000000E+00 0.  1.
         11    1    5    5    0    0  0.16171382814E+03  0.46477294848E+02  0.18168546639E+03  0.24763099533E+03  0.00000000000E+00 0.  1.
        -11    1    5    5    0    0 -0.14826994772E+01  0.37182399092E+01  0.63092628435E+02  0.63219486463E+02  0.00000000000E+00 0. -1.
          1    1    6    6  503    0  0.20695985868E+03 -0.83803079351E+02 -0.53550110559E+03  0.58018684344E+03  0.00000000000E+00 0. -1.
         -1    1    6    6    0  503  0.75079584751E+02 -0.89897941366E+02 -0.20442778646E+03  0.23560412514E+03  0.00000000000E+00 0.  1.
<mgrwt>
<rscale>  0 0.15885452E+04</rscale>
<asrwt>0</asrwt>
<pdfrwt beam="1">  1        2 0.99566520E-01 0.15885452E+04</pdfrwt>
<pdfrwt beam="2">  1       -1 0.14996818E+00 0.15885452E+04</pdfrwt>
<totfact> 0.17303300E+01</totfact>
</mgrwt>
</event>
<event>
12    6  0.1529770E-007  0.1371993E+04  0.7818608E-02  0.8974345E-01
         -1   -1    0    0    0  501 -0.00000000000E+00  0.00000000000E+00  0.33665529664E+03  0.33665529664E+03  0.00000000000E+00 0.  1.
          2   -1    0    0  501    0  0.00000000000E+00 -0.00000000000E+00 -0.13978421984E+04  0.13978421984E+04  0.00000000000E+00 0. -1.
         24    2    1    2    0    0  0.17852281556E+02  0.10564244682E+03  0.16633710504E+03  0.21321783828E+03  0.79465612186E+02 0.  0.
        254    2    1    2    0    0 -0.17852281556E+02 -0.10564244682E+03 -0.12275240068E+04  0.15212796568E+04  0.89218696264E+03 0.  0.
         23    2    4    4    0    0  0.12788712704E+03  0.36156499010E+03 -0.62915300450E+03  0.74248643433E+03  0.91478099891E+02 0.  0.
         23    2    4    4    0    0 -0.14573940859E+03 -0.46720743693E+03 -0.59837100233E+03  0.77879322247E+03  0.94595256738E+02 0.  0.
          4    1    3    3  502    0  0.45981131826E+02  0.56459488468E+02  0.67477899752E+02  0.99273386550E+02  0.00000000000E+00 0. -1.
         -3    1    3    3    0  502 -0.28128850270E+02  0.49182958356E+02  0.98859205284E+02  0.11394445173E+03  0.00000000000E+00 0.  1.
         11    1    5    5    0    0  0.51809380624E+01  0.40409020767E+02 -0.26301495497E+02  0.48492264785E+02  0.00000000000E+00 0.  1.
        -11    1    5    5    0    0  0.12270618898E+03  0.32115596933E+03 -0.60285150901E+03  0.69399416955E+03  0.00000000000E+00 0. -1.
          3    1    6    6  503    0 -0.15431074833E+03 -0.37967814699E+03 -0.50767660436E+03  0.65245906919E+03  0.00000000000E+00 0. -1.
         -3    1    6    6    0  503  0.85713397400E+01 -0.87529289934E+02 -0.90694397971E+02  0.12633415328E+03  0.00000000000E+00 0.  1.
<mgrwt>
<rscale>  0 0.13719927E+04</rscale>
<asrwt>0</asrwt>
<pdfrwt beam="1">  1        2 0.21505265E+00 0.13719927E+04</pdfrwt>
<pdfrwt beam="2">  1       -1 0.51793122E-01 0.13719927E+04</pdfrwt>
<totfact> 0.60512229E+01</totfact>
</mgrwt>
</event>
<event>
12    6  0.1529770E-007  0.1389749E+04  0.7818608E-02  0.8961272E-01
         -1   -1    0    0    0  501 -0.00000000000E+00  0.00000000000E+00  0.33818848406E+03  0.33818848406E+03  0.00000000000E+00 0.  1.
          2   -1    0    0  501    0  0.00000000000E+00 -0.00000000000E+00 -0.14277568098E+04  0.14277568098E+04  0.00000000000E+00 0. -1.
         24    2    1    2    0    0 -0.67848906514E+02  0.10026755474E+03  0.16209569772E+03  0.21820186984E+03  0.81731169909E+02 0.  0.
        254    2    1    2    0    0  0.67848906514E+02 -0.10026755474E+03 -0.12516640235E+04  0.15477434240E+04  0.90232467678E+03 0.  0.
         23    2    4    4    0    0  0.24939195200E+03 -0.34582573738E+03 -0.26231080916E+03  0.50870695056E+03  0.90465543627E+02 0.  0.
         23    2    4    4    0    0 -0.18154304549E+03  0.24555818264E+03 -0.98935321433E+03  0.10390364735E+04  0.86719733080E+02 0.  0.
          2    1    3    3  502    0 -0.43435254152E+02  0.36800550962E+02  0.19420488539E+02  0.60150288689E+02  0.00000000000E+00 0. -1.
         -1    1    3    3    0  502 -0.24413652362E+02  0.63467003779E+02  0.14267520918E+03  0.15805158115E+03  0.00000000000E+00 0.  1.
         11    1    5    5    0    0  0.18129500289E+03 -0.29085167326E+03 -0.23995528474E+03  0.41837914932E+03  0.00000000000E+00 0. -1.
        -11    1    5    5    0    0  0.68096949110E+02 -0.54974064123E+02 -0.22355524422E+02  0.90327801238E+02  0.00000000000E+00 0.  1.
          1    1    6    6  503    0 -0.14310339644E+03  0.13155680063E+03 -0.67558421271E+03  0.70299345824E+03  0.00000000000E+00 0. -1.
         -1    1    6    6    0  503 -0.38439649051E+02  0.11400138201E+03 -0.31376900162E+03  0.33604301525E+03  0.00000000000E+00 0.  1.
<mgrwt>
<rscale>  0 0.13897495E+04</rscale>
<asrwt>0</asrwt>
<pdfrwt beam="1">  1        2 0.21965489E+00 0.13897495E+04</pdfrwt>
<pdfrwt beam="2">  1       -1 0.52028999E-01 0.13897495E+04</pdfrwt>
<totfact> 0.57594324E+01</totfact>
</mgrwt>
</event>
<event>
12    6  0.1529770E-007  0.4070350E+04  0.7818608E-02  0.7990503E-01
         -1   -1    0    0    0  501 -0.00000000000E+00  0.00000000000E+00  0.19947781330E+04  0.19947781330E+04  0.00000000000E+00 0.  1.
          2   -1    0    0  501    0  0.00000000000E+00 -0.00000000000E+00 -0.20763900729E+04  0.20763900729E+04  0.00000000000E+00 0. -1.
         24    2    1    2    0    0  0.17770580224E+04  0.18338594962E+03  0.70860767737E+03  0.19235703040E+04  0.80201325091E+02 0.  0.
        254    2    1    2    0    0 -0.17770580224E+04 -0.18338594962E+03 -0.79021961734E+03  0.21475979019E+04  0.89228027158E+03 0.  0.
         23    2    4    4    0    0 -0.58886650267E+03  0.26253347395E+03 -0.21978593406E+01  0.65136232612E+03  0.92630806951E+02 0.  0.
         23    2    4    4    0    0 -0.11881915197E+04 -0.44591942357E+03 -0.78802175800E+03  0.14962355758E+04  0.84257861434E+02 0.  0.
          2    1    3    3  502    0  0.22767351582E+02  0.11735090824E+02  0.92977133987E+01  0.27249075748E+02  0.00000000000E+00 0. -1.
         -1    1    3    3    0  502  0.17542906708E+04  0.17165085880E+03  0.69930996397E+03  0.18963212283E+04  0.00000000000E+00 0.  1.
         11    1    5    5    0    0 -0.29244430506E+03  0.14294001029E+03 -0.45979308434E+02  0.32873943315E+03  0.00000000000E+00 0.  1.
        -11    1    5    5    0    0 -0.29642219760E+03  0.11959346366E+03  0.43781449093E+02  0.32262289297E+03  0.00000000000E+00 0. -1.
          4    1    6    6  503    0  0.25553267745E+00 -0.13439700019E+01 -0.50447369576E+01  0.52269420589E+01  0.00000000000E+00 0. -1.
         -4    1    6    6    0  503 -0.11884470524E+04 -0.44457545357E+03 -0.78297702104E+03  0.14910086337E+04  0.00000000000E+00 0.  1.
<mgrwt>
<rscale>  0 0.40703501E+04</rscale>
<asrwt>0</asrwt>
<pdfrwt beam="1">  1        2 0.31944463E+00 0.40703501E+04</pdfrwt>
<pdfrwt beam="2">  1       -1 0.30688894E+00 0.40703501E+04</pdfrwt>
<totfact> 0.16103120E-01</totfact>
</mgrwt>
</event>
<event>
12    6  0.1529770E-007  0.1920043E+04  0.7818608E-02  0.8644943E-01
         -1   -1    0    0    0  501 -0.00000000000E+00  0.00000000000E+00  0.98263302451E+03  0.98263302451E+03  0.00000000000E+00 0.  1.
          2   -1    0    0  501    0  0.00000000000E+00 -0.00000000000E+00 -0.93793060537E+03  0.93793060537E+03  0.00000000000E+00 0. -1.
         24    2    1    2    0    0  0.44376617215E+02  0.60330418562E+03 -0.43469742568E+03  0.74915880129E+03  0.79572816434E+02 0.  0.
        254    2    1    2    0    0 -0.44376617215E+02 -0.60330418562E+03  0.47939984482E+03  0.11714048286E+04  0.88114688712E+03 0.  0.
         23    2    4    4    0    0  0.36835322576E+03 -0.41754835913E+03  0.98274387920E+02  0.57273577045E+03  0.91310877200E+02 0.  0.
         23    2    4    4    0    0 -0.41272984298E+03 -0.18575582650E+03  0.38112545690E+03  0.59866905813E+03  0.91087193990E+02 0.  0.
          4    1    3    3  502    0  0.45197186794E+02  0.60482141221E+03 -0.43603218363E+03  0.74697777178E+03  0.00000000000E+00 0. -1.
         -3    1    3    3    0  502 -0.82056957882E+00 -0.15172265888E+01  0.13347579533E+01  0.21810295159E+01  0.00000000000E+00 0.  1.
         11    1    5    5    0    0  0.20585442424E+03 -0.18588876655E+03  0.82294916026E+02  0.28931493344E+03  0.00000000000E+00 0. -1.
        -11    1    5    5    0    0  0.16249880152E+03 -0.23165959258E+03  0.15979471893E+02  0.28342083701E+03  0.00000000000E+00 0.  1.
          1    1    6    6  503    0 -0.20229647279E+03 -0.13800323534E+03  0.18279001179E+03  0.30558295809E+03  0.00000000000E+00 0. -1.
         -1    1    6    6    0  503 -0.21043337019E+03 -0.47752591161E+02  0.19833544511E+03  0.29308610004E+03  0.00000000000E+00 0.  1.
<mgrwt>
<rscale>  0 0.19200433E+04</rscale>
<asrwt>0</asrwt>
<pdfrwt beam="1">  1        2 0.14429702E+00 0.19200433E+04</pdfrwt>
<pdfrwt beam="2">  1       -1 0.15117431E+00 0.19200433E+04</pdfrwt>
<totfact> 0.10079181E+01</totfact>
</mgrwt>
</event>
<event>
12    6  0.1529770E-007  0.1520209E+04  0.7818608E-02  0.8871124E-01
          4   -1    0    0  501    0  0.00000000000E+00  0.00000000000E+00  0.52286738822E+03  0.52286738822E+03  0.00000000000E+00 0. -1.
         -3   -1    0    0    0  501 -0.00000000000E+00 -0.00000000000E+00 -0.11049822666E+04  0.11049822666E+04  0.00000000000E+00 0.  1.
         24    2    1    2    0    0  0.24311898561E+01  0.25579052810E+03 -0.63701122599E+03  0.69095657153E+03  0.78758978890E+02 0.  0.
        254    2    1    2    0    0 -0.24311898561E+01 -0.25579052810E+03  0.54896347641E+02  0.93689308326E+03  0.89962232938E+03 0.  0.
         23    2    4    4    0    0  0.27140689956E+03  0.13302768800E+03  0.26217663137E+03  0.41039362191E+03  0.91259344508E+02 0.  0.
         23    2    4    4    0    0 -0.27383808942E+03 -0.38881821610E+03 -0.20728028373E+03  0.52649946135E+03  0.89831299611E+02 0.  0.
          2    1    3    3  502    0 -0.19628220933E+02  0.12328769662E+02 -0.53202477937E+02  0.58032484670E+02  0.00000000000E+00 0. -1.
         -1    1    3    3    0  502  0.22059410789E+02  0.24346175844E+03 -0.58380874806E+03  0.63292408686E+03  0.00000000000E+00 0.  1.
         11    1    5    5    0    0  0.30604052260E+02  0.74094006332E+01  0.72719555675E+02  0.79244185970E+02  0.00000000000E+00 0. -1.
        -11    1    5    5    0    0  0.24080284730E+03  0.12561828737E+03  0.18945707570E+03  0.33114943594E+03  0.00000000000E+00 0.  1.
          3    1    6    6  503    0 -0.21849400371E+03 -0.32247930439E+03 -0.20476471397E+03  0.44006944851E+03  0.00000000000E+00 0. -1.
         -3    1    6    6    0  503 -0.55344085703E+02 -0.66338911710E+02 -0.25155697606E+01  0.86430012845E+02  0.00000000000E+00 0.  1.
<mgrwt>
<rscale>  0 0.15202094E+04</rscale>
<asrwt>0</asrwt>
<pdfrwt beam="1">  1        4 0.80441136E-01 0.15202094E+04</pdfrwt>
<pdfrwt beam="2">  1       -3 0.16999727E+00 0.15202094E+04</pdfrwt>
<totfact> 0.70004738E-01</totfact>
</mgrwt>
</event>
<event>
12    6  0.1529770E-007  0.2104162E+04  0.7818608E-02  0.8559412E-01
         -1   -1    0    0    0  501 -0.00000000000E+00  0.00000000000E+00  0.91103532485E+03  0.91103532485E+03  0.00000000000E+00 0.  1.
          2   -1    0    0  501    0  0.00000000000E+00 -0.00000000000E+00 -0.12149637468E+04  0.12149637468E+04  0.00000000000E+00 0. -1.
         24    2    1    2    0    0  0.18308063144E+03 -0.62421919093E+03 -0.66865620257E+03  0.93660329048E+03  0.83405578783E+02 0.  0.
        254    2    1    2    0    0 -0.18308063144E+03  0.62421919093E+03  0.36472778059E+03  0.11893957812E+04  0.92653540378E+03 0.  0.
         23    2    4    4    0    0  0.32484825642E+03  0.47580683973E+03  0.10858565596E+03  0.59454770580E+03  0.98881703840E+02 0.  0.
         23    2    4    4    0    0 -0.50792888786E+03  0.14841235119E+03  0.25614212463E+03  0.59484807540E+03  0.90650227182E+02 0.  0.
          4    1    3    3  502    0  0.54023468971E+02 -0.24002750862E+03 -0.20047080343E+03  0.31736459022E+03  0.00000000000E+00 0. -1.
         -3    1    3    3    0  502  0.12905716247E+03 -0.38419168230E+03 -0.46818539914E+03  0.61923870026E+03  0.00000000000E+00 0.  1.
         11    1    5    5    0    0  0.27378536463E+03  0.45057514091E+03  0.10411115382E+03  0.53741558950E+03  0.00000000000E+00 0. -1.
        -11    1    5    5    0    0  0.51062891783E+02  0.25231698826E+02  0.44745021429E+01  0.57132116295E+02  0.00000000000E+00 0.  1.
          2    1    6    6  503    0 -0.91237801210E+02 -0.42061804536E+01  0.62533686413E+02  0.11069096738E+03  0.00000000000E+00 0. -1.
         -2    1    6    6    0  503 -0.41669108665E+03  0.15261853164E+03  0.19360843822E+03  0.48415710802E+03  0.00000000000E+00 0.  1.
<mgrwt>
<rscale>  0 0.21041624E+04</rscale>
<asrwt>0</asrwt>
<pdfrwt beam="1">  1        2 0.18691750E+00 0.21041624E+04</pdfrwt>
<pdfrwt beam="2">  1       -1 0.14015928E+00 0.21041624E+04</pdfrwt>
<totfact> 0.81445784E+00</totfact>
</mgrwt>
</event>
<event>
12    6  0.1529770E-007  0.2285508E+04  0.7818608E-02  0.8483657E-01
         -1   -1    0    0    0  501 -0.00000000000E+00  0.00000000000E+00  0.63302237040E+03  0.63302237040E+03  0.00000000000E+00 0.  1.
          2   -1    0    0  501    0  0.00000000000E+00 -0.00000000000E+00 -0.20629394260E+04  0.20629394260E+04  0.00000000000E+00 0. -1.
         24    2    1    2    0    0  0.50144782158E+03  0.37161220137E+03  0.25807835722E+03  0.68011181271E+03  0.80013082297E+02 0.  0.
        254    2    1    2    0    0 -0.50144782158E+03 -0.37161220137E+03 -0.16879954129E+04  0.20158499837E+04  0.90817239393E+03 0.  0.
         23    2    4    4    0    0  0.12649164801E+03  0.14985071620E+03 -0.12301923088E+03  0.24841571548E+03  0.90118046862E+02 0.  0.
         23    2    4    4    0    0 -0.62793946959E+03 -0.52146291757E+03 -0.15649761820E+04  0.17674342682E+04  0.91879761345E+02 0.  0.
          4    1    3    3  502    0  0.28924503367E+03  0.16803157631E+03  0.12170707560E+03  0.35596335822E+03  0.00000000000E+00 0. -1.
         -3    1    3    3    0  502  0.21220278791E+03  0.20358062506E+03  0.13637128162E+03  0.32414845449E+03  0.00000000000E+00 0.  1.
         11    1    5    5    0    0  0.10986674143E+02 -0.57631229141E+01 -0.31977189142E+02  0.34299580462E+02  0.00000000000E+00 0.  1.
        -11    1    5    5    0    0  0.11550497386E+03  0.15561383912E+03 -0.91042041736E+02  0.21411613502E+03  0.00000000000E+00 0. -1.
          3    1    6    6  503    0 -0.53094958250E+03 -0.46217251032E+03 -0.14011101602E+04  0.15679989061E+04  0.00000000000E+00 0. -1.
         -3    1    6    6    0  503 -0.96989887093E+02 -0.59290407248E+02 -0.16386602180E+03  0.19943536218E+03  0.00000000000E+00 0.  1.
<mgrwt>
<rscale>  0 0.22855081E+04</rscale>
<asrwt>0</asrwt>
<pdfrwt beam="1">  1        2 0.31737529E+00 0.22855081E+04</pdfrwt>
<pdfrwt beam="2">  1       -1 0.97388059E-01 0.22855081E+04</pdfrwt>
<totfact> 0.64443198E+00</totfact>
</mgrwt>
</event>
<event>
12    6  0.1529770E-007  0.1649223E+04  0.7818608E-02  0.8790866E-01
          2   -1    0    0  501    0  0.00000000000E+00  0.00000000000E+00  0.61025714119E+03  0.61025714119E+03  0.00000000000E+00 0. -1.
         -1   -1    0    0    0  501 -0.00000000000E+00 -0.00000000000E+00 -0.11142587296E+04  0.11142587296E+04  0.00000000000E+00 0.  1.
         24    2    1    2    0    0 -0.46171145425E+03 -0.22682736489E+03 -0.45391288194E+03  0.69055390474E+03  0.78737986484E+02 0.  0.
        254    2    1    2    0    0  0.46171145425E+03  0.22682736489E+03 -0.50088706425E+02  0.10339619660E+04  0.89551122170E+03 0.  0.
         23    2    4    4    0    0 -0.18287276172E+03  0.74784259831E+02  0.22279611961E+03  0.31192649521E+03  0.92870312829E+02 0.  0.
         23    2    4    4    0    0  0.64458421597E+03  0.15204310506E+03 -0.27288482604E+03  0.72203547079E+03  0.90902010635E+02 0.  0.
          2    1    3    3  502    0 -0.22044425504E+01 -0.11116817322E+01 -0.17973484845E+02  0.18142258975E+02  0.00000000000E+00 0. -1.
         -1    1    3    3    0  502 -0.45950701169E+03 -0.22571568316E+03 -0.43593939710E+03  0.67241164577E+03  0.00000000000E+00 0.  1.
         11    1    5    5    0    0 -0.17256104210E+01 -0.30222134888E+01 -0.77999510266E+01  0.85411206357E+01  0.00000000000E+00 0.  1.
        -11    1    5    5    0    0 -0.18114715130E+03  0.77806473320E+02  0.23059607064E+03  0.30338537458E+03  0.00000000000E+00 0. -1.
          3    1    6    6  503    0  0.57226878047E+03  0.15316511975E+03 -0.21801944544E+03  0.63125556599E+03  0.00000000000E+00 0. -1.
         -3    1    6    6    0  503  0.72315435495E+02 -0.11220146834E+01 -0.54865380599E+02  0.90779904803E+02  0.00000000000E+00 0.  1.
<mgrwt>
<rscale>  0 0.16492233E+04</rscale>
<asrwt>0</asrwt>
<pdfrwt beam="1">  1        2 0.93885714E-01 0.16492233E+04</pdfrwt>
<pdfrwt beam="2">  1       -1 0.17142442E+00 0.16492233E+04</pdfrwt>
<totfact> 0.12736033E+01</totfact>
</mgrwt>
</event>
<event>
12    6  0.1529770E-007  0.1342941E+04  0.7818608E-02  0.8996189E-01
          2   -1    0    0  501    0  0.00000000000E+00  0.00000000000E+00  0.12985810223E+04  0.12985810223E+04  0.00000000000E+00 0. -1.
         -1   -1    0    0    0  501 -0.00000000000E+00 -0.00000000000E+00 -0.34720387116E+03  0.34720387116E+03  0.00000000000E+00 0.  1.
         24    2    1    2    0    0 -0.10651097127E+03  0.25874462200E+03 -0.40207836791E+02  0.29428929873E+03  0.81830036033E+02 0.  0.
        254    2    1    2    0    0  0.10651097127E+03 -0.25874462200E+03  0.99158498797E+03  0.13514955948E+04  0.87464632161E+03 0.  0.
         23    2    4    4    0    0  0.28940048778E+03 -0.39660090997E+03  0.22835569568E+03  0.54923007462E+03  0.91991450714E+02 0.  0.
         23    2    4    4    0    0 -0.18288951652E+03  0.13785628797E+03  0.76322929229E+03  0.80226552015E+03  0.93048808829E+02 0.  0.
          4    1    3    3  502    0  0.75471792759E+01 -0.10962409821E+01  0.34583603710E+00  0.76342165203E+01  0.00000000000E+00 0. -1.
         -3    1    3    3    0  502 -0.11405815054E+03  0.25984086298E+03 -0.40553672828E+02  0.28665508221E+03  0.00000000000E+00 0.  1.
         11    1    5    5    0    0  0.60806329394E+02 -0.10902300978E+03  0.18631291620E+02  0.12621628810E+03  0.00000000000E+00 0.  1.
        -11    1    5    5    0    0  0.22859415839E+03 -0.28757790019E+03  0.20972440406E+03  0.42301378652E+03  0.00000000000E+00 0. -1.
          1    1    6    6  503    0 -0.14870397601E+03  0.98086123919E+02  0.43808228142E+03  0.47291631974E+03  0.00000000000E+00 0. -1.
         -1    1    6    6    0  503 -0.34185540506E+02  0.39770164048E+02  0.32514701087E+03  0.32934920040E+03  0.00000000000E+00 0.  1.
<mgrwt>
<rscale>  0 0.13429406E+04</rscale>
<asrwt>0</asrwt>
<pdfrwt beam="1">  1        2 0.19978169E+00 0.13429406E+04</pdfrwt>
<pdfrwt beam="2">  1       -1 0.53415981E-01 0.13429406E+04</pdfrwt>
<totfact> 0.65226659E+01</totfact>
</mgrwt>
</event>
<event>
12    6  0.1529770E-007  0.2595100E+04  0.7818608E-02  0.8369867E-01
         -1   -1    0    0    0  501 -0.00000000000E+00  0.00000000000E+00  0.12707017684E+04  0.12707017684E+04  0.00000000000E+00 0.  1.
          2   -1    0    0  501    0  0.00000000000E+00 -0.00000000000E+00 -0.13249656028E+04  0.13249656028E+04  0.00000000000E+00 0. -1.
         24    2    1    2    0    0  0.81315917969E+03  0.46487294939E+03  0.61682946522E+03  0.11243508674E+04  0.79696758334E+02 0.  0.
        254    2    1    2    0    0 -0.81315917969E+03 -0.46487294939E+03 -0.67109329957E+03  0.14713165038E+04  0.91491602189E+03 0.  0.
         23    2    4    4    0    0 -0.32991736564E+02 -0.30060025783E+03  0.12646626168E+03  0.34015615782E+03  0.90903941972E+02 0.  0.
         23    2    4    4    0    0 -0.78016744313E+03 -0.16427269156E+03 -0.79755956125E+03  0.11311603460E+04  0.88180032584E+02 0.  0.
          4    1    3    3  502    0  0.80594881524E+03  0.46805994583E+03  0.61343999917E+03  0.11157697963E+04  0.00000000000E+00 0. -1.
         -3    1    3    3    0  502  0.72103644581E+01 -0.31869964415E+01  0.33894660503E+01  0.85810711477E+01  0.00000000000E+00 0.  1.
         11    1    5    5    0    0 -0.21645329490E+02 -0.38424060305E+02 -0.87283120088E+01  0.44956780685E+02  0.00000000000E+00 0. -1.
        -11    1    5    5    0    0 -0.11346407074E+02 -0.26217619753E+03  0.13519457368E+03  0.29519937713E+03  0.00000000000E+00 0.  1.
          1    1    6    6  503    0 -0.60120226066E+03 -0.10775457191E+03 -0.65411174966E+03  0.89493987901E+03  0.00000000000E+00 0. -1.
         -1    1    6    6    0  503 -0.17896518247E+03 -0.56518119643E+02 -0.14344781159E+03  0.23622046701E+03  0.00000000000E+00 0.  1.
<mgrwt>
<rscale>  0 0.25951001E+04</rscale>
<asrwt>0</asrwt>
<pdfrwt beam="1">  1        2 0.20384086E+00 0.25951001E+04</pdfrwt>
<pdfrwt beam="2">  1       -1 0.19549258E+00 0.25951001E+04</pdfrwt>
<totfact> 0.26069633E+00</totfact>
</mgrwt>
</event>
<event>
12    6  0.1529770E-007  0.1226828E+04  0.7818608E-02  0.9089693E-01
         -1   -1    0    0    0  501 -0.00000000000E+00  0.00000000000E+00  0.25165420429E+03  0.25165420429E+03  0.00000000000E+00 0.  1.
          2   -1    0    0  501    0  0.00000000000E+00 -0.00000000000E+00 -0.14952136255E+04  0.14952136255E+04  0.00000000000E+00 0. -1.
         24    2    1    2    0    0  0.16449222560E+03 -0.16488509805E+03 -0.52208114041E+03  0.57724464036E+03  0.79986685206E+02 0.  0.
        254    2    1    2    0    0 -0.16449222560E+03  0.16488509805E+03 -0.72147828080E+03  0.11696231894E+04  0.89064173928E+03 0.  0.
         23    2    4    4    0    0 -0.18387563704E+03  0.28903245844E+03 -0.87964301943E+03  0.94823492396E+03  0.89596972397E+02 0.  0.
         23    2    4    4    0    0  0.19383411438E+02 -0.12414736039E+03  0.15816473862E+03  0.22138826548E+03  0.90600197659E+02 0.  0.
          4    1    3    3  502    0  0.11329438373E+03 -0.10686142777E+03 -0.42784190359E+03  0.45530613503E+03  0.00000000000E+00 0. -1.
         -3    1    3    3    0  502  0.51197841869E+02 -0.58023670287E+02 -0.94239236821E+02  0.12193850533E+03  0.00000000000E+00 0.  1.
         11    1    5    5    0    0 -0.17325362930E+03  0.29006483633E+03 -0.80791703197E+03  0.87571933853E+03  0.00000000000E+00 0.  1.
        -11    1    5    5    0    0 -0.10622007743E+02 -0.10323778910E+01 -0.71725987459E+02  0.72515585425E+02  0.00000000000E+00 0. -1.
          3    1    6    6  503    0 -0.86711293908E+01 -0.50059718275E+02  0.77587877776E+01  0.51394189034E+02  0.00000000000E+00 0. -1.
         -3    1    6    6    0  503  0.28054540829E+02 -0.74087642113E+02  0.15040595085E+03  0.16999407644E+03  0.00000000000E+00 0.  1.
<mgrwt>
<rscale>  0 0.12268281E+04</rscale>
<asrwt>0</asrwt>
<pdfrwt beam="1">  1        2 0.23003287E+00 0.12268281E+04</pdfrwt>
<pdfrwt beam="2">  1       -1 0.38716031E-01 0.12268281E+04</pdfrwt>
<totfact> 0.92646305E+01</totfact>
</mgrwt>
</event>
<event>
12    6  0.1529770E-007  0.1891594E+04  0.7818608E-02  0.8659052E-01
          2   -1    0    0  501    0  0.00000000000E+00  0.00000000000E+00  0.19165273545E+04  0.19165273545E+04  0.00000000000E+00 0. -1.
         -1   -1    0    0    0  501 -0.00000000000E+00 -0.00000000000E+00 -0.46674613777E+03  0.46674613777E+03  0.00000000000E+00 0.  1.
         24    2    1    2    0    0  0.75386509078E+02 -0.31019001683E+03 -0.27132350324E+03  0.42613767425E+03  0.77948070630E+02 0.  0.
        254    2    1    2    0    0 -0.75386509078E+02  0.31019001683E+03  0.17211047200E+04  0.19571358180E+04  0.87537316660E+03 0.  0.
         23    2    4    4    0    0  0.41594586751E+02  0.59694637085E+03  0.10354335607E+04  0.11993530293E+04  0.90829241404E+02 0.  0.
         23    2    4    4    0    0 -0.11698109583E+03 -0.28675635401E+03  0.68567115928E+03  0.75778278867E+03  0.90421417798E+02 0.  0.
          2    1    3    3  502    0 -0.80764458932E+01 -0.43978959868E+02 -0.14688321617E+02  0.47065111083E+02  0.00000000000E+00 0. -1.
         -1    1    3    3    0  502  0.83462954972E+02 -0.26621105696E+03 -0.25663518162E+03  0.37907256317E+03  0.00000000000E+00 0.  1.
         11    1    5    5    0    0 -0.11195043793E+02  0.17483242246E+02  0.60758002567E+02  0.64206912719E+02  0.00000000000E+00 0. -1.
        -11    1    5    5    0    0  0.52789630544E+02  0.57946312860E+03  0.97467555812E+03  0.11351461166E+04  0.00000000000E+00 0.  1.
          4    1    6    6  503    0 -0.62065172513E+02 -0.14327043071E+03  0.23949223727E+03  0.28589339563E+03  0.00000000000E+00 0. -1.
         -4    1    6    6    0  503 -0.54915923316E+02 -0.14348592331E+03  0.44617892200E+03  0.47188939304E+03  0.00000000000E+00 0.  1.
<mgrwt>
<rscale>  0 0.18915938E+04</rscale>
<asrwt>0</asrwt>
<pdfrwt beam="1">  1        2 0.29485036E+00 0.18915938E+04</pdfrwt>
<pdfrwt beam="2">  1       -1 0.71807099E-01 0.18915938E+04</pdfrwt>
<totfact> 0.15531200E+01</totfact>
</mgrwt>
</event>
<event>
12    6  0.1529770E-007  0.2073598E+04  0.7818608E-02  0.8572964E-01
          2   -1    0    0  501    0  0.00000000000E+00  0.00000000000E+00  0.28870792003E+04  0.28870792003E+04  0.00000000000E+00 0. -1.
         -1   -1    0    0    0  501 -0.00000000000E+00 -0.00000000000E+00 -0.37233201497E+03  0.37233201497E+03  0.00000000000E+00 0.  1.
         24    2    1    2    0    0  0.11530900984E+03 -0.34430878756E+03  0.22204390629E+04  0.22513421946E+04  0.79670172540E+02 0.  0.
        254    2    1    2    0    0 -0.11530900984E+03  0.34430878756E+03  0.29430812251E+03  0.10080690207E+04  0.89316357438E+03 0.  0.
         23    2    4    4    0    0  0.14628513845E+03  0.38398557684E+03  0.50502146905E+03  0.65765633988E+03  0.92848867647E+02 0.  0.
         23    2    4    4    0    0 -0.26159414829E+03 -0.39676789282E+02 -0.21071334654E+03  0.35041268083E+03  0.91559742494E+02 0.  0.
          4    1    3    3  502    0  0.43520340972E+02 -0.13976244617E+03  0.11409607969E+04  0.11503126103E+04  0.00000000000E+00 0. -1.
         -3    1    3    3    0  502  0.71788668867E+02 -0.20454634139E+03  0.10794782660E+04  0.11010295843E+04  0.00000000000E+00 0.  1.
         11    1    5    5    0    0  0.20222527666E+02  0.13496640777E+03  0.21881804625E+03  0.25788799742E+03  0.00000000000E+00 0. -1.
        -11    1    5    5    0    0  0.12606261078E+03  0.24901916908E+03  0.28620342281E+03  0.39976834246E+03  0.00000000000E+00 0.  1.
          3    1    6    6  503    0 -0.10860850082E+02  0.11785795910E+02  0.37747668910E+01  0.16465476453E+02  0.00000000000E+00 0. -1.
         -3    1    6    6    0  503 -0.25073329821E+03 -0.51462585191E+02 -0.21448811344E+03  0.33394720438E+03  0.00000000000E+00 0.  1.
<mgrwt>
<rscale>  0 0.20735979E+04</rscale>
<asrwt>0</asrwt>
<pdfrwt beam="1">  1        2 0.44416602E+00 0.20735979E+04</pdfrwt>
<pdfrwt beam="2">  1       -1 0.57281850E-01 0.20735979E+04</pdfrwt>
<totfact> 0.66473885E+00</totfact>
</mgrwt>
</event>
<event>
12    6  0.1529770E-007  0.1681619E+04  0.7818608E-02  0.8771918E-01
         -1   -1    0    0    0  501 -0.00000000000E+00  0.00000000000E+00  0.51664936710E+03  0.51664936710E+03  0.00000000000E+00 0.  1.
          2   -1    0    0  501    0  0.00000000000E+00 -0.00000000000E+00 -0.13683561200E+04  0.13683561200E+04  0.00000000000E+00 0. -1.
         24    2    1    2    0    0  0.15299794269E+03  0.49624309521E+03  0.25489889869E+02  0.52596881336E+03  0.79547961202E+02 0.  0.
        254    2    1    2    0    0 -0.15299794269E+03 -0.49624309521E+03 -0.87719664272E+03  0.13590366737E+04  0.89879983892E+03 0.  0.
         23    2    4    4    0    0  0.29126523613E+03 -0.31817420037E+03 -0.11654067449E+03  0.45578551969E+03  0.89935819294E+02 0.  0.
         23    2    4    4    0    0 -0.44426317882E+03 -0.17806889484E+03 -0.76065596823E+03  0.90325115400E+03  0.90481168458E+02 0.  0.
          2    1    3    3  502    0  0.37330719649E+00  0.30721557098E+02  0.18802293131E+02  0.36020544912E+02  0.00000000000E+00 0. -1.
         -1    1    3    3    0  502  0.15262463549E+03  0.46552153811E+03  0.66875967380E+01  0.48994826845E+03  0.00000000000E+00 0.  1.
         11    1    5    5    0    0  0.13606277107E+03 -0.14411908719E+03 -0.99998485944E+02  0.22199794178E+03  0.00000000000E+00 0.  1.
        -11    1    5    5    0    0  0.15520246506E+03 -0.17405511317E+03 -0.16542188551E+02  0.23378757791E+03  0.00000000000E+00 0. -1.
          2    1    6    6  503    0 -0.10516559852E+03 -0.80422660405E+02 -0.24369615076E+03  0.27733629642E+03  0.00000000000E+00 0. -1.
         -2    1    6    6    0  503 -0.33909758030E+03 -0.97646234437E+02 -0.51695981747E+03  0.62591485758E+03  0.00000000000E+00 0.  1.
<mgrwt>
<rscale>  0 0.16816187E+04</rscale>
<asrwt>0</asrwt>
<pdfrwt beam="1">  1        2 0.21051632E+00 0.16816187E+04</pdfrwt>
<pdfrwt beam="2">  1       -1 0.79484520E-01 0.16816187E+04</pdfrwt>
<totfact> 0.25921009E+01</totfact>
</mgrwt>
</event>
<event>
12    6  0.1529770E-007  0.1396931E+04  0.7818608E-02  0.8956043E-01
         -1   -1    0    0    0  501 -0.00000000000E+00  0.00000000000E+00  0.19057017157E+03  0.19057017157E+03  0.00000000000E+00 0.  1.
          2   -1    0    0  501    0  0.00000000000E+00 -0.00000000000E+00 -0.25599715552E+04  0.25599715552E+04  0.00000000000E+00 0. -1.
         24    2    1    2    0    0 -0.34178135031E+03  0.22884720011E+03 -0.79726980605E+03  0.90069988119E+03  0.80222190966E+02 0.  0.
        254    2    1    2    0    0  0.34178135031E+03 -0.22884720011E+03 -0.15721315775E+04  0.18498418456E+04  0.88381651038E+03 0.  0.
         23    2    4    4    0    0 -0.26315734224E+01 -0.50962116890E+03 -0.74594489817E+03  0.90797205176E+03  0.90877910974E+02 0.  0.
         23    2    4    4    0    0  0.34441292373E+03  0.28077396879E+03 -0.82618667937E+03  0.94186979379E+03  0.84142710323E+02 0.  0.
          4    1    3    3  502    0 -0.27593881354E+03  0.15168445049E+03 -0.55597968953E+03  0.63895525391E+03  0.00000000000E+00 0. -1.
         -3    1    3    3    0  502 -0.65842536768E+02  0.77162749620E+02 -0.24129011652E+03  0.26174462727E+03  0.00000000000E+00 0.  1.
         11    1    5    5    0    0 -0.17072761485E+02 -0.43224058154E+03 -0.67662072436E+03  0.80308094495E+03  0.00000000000E+00 0. -1.
        -11    1    5    5    0    0  0.14441188062E+02 -0.77380587360E+02 -0.69324173814E+02  0.10489110681E+03  0.00000000000E+00 0.  1.
          3    1    6    6  503    0  0.27302389714E+03  0.19479391438E+03 -0.67641658716E+03  0.75500073965E+03  0.00000000000E+00 0. -1.
         -3    1    6    6    0  503  0.71389026587E+02  0.85980054406E+02 -0.14977009221E+03  0.18686905414E+03  0.00000000000E+00 0.  1.
<mgrwt>
<rscale>  0 0.13969312E+04</rscale>
<asrwt>0</asrwt>
<pdfrwt beam="1">  1        2 0.39384175E+00 0.13969312E+04</pdfrwt>
<pdfrwt beam="2">  1       -1 0.29318490E-01 0.13969312E+04</pdfrwt>
<totfact> 0.37997074E+01</totfact>
</mgrwt>
</event>
<event>
12    6  0.1529770E-007  0.1340786E+04  0.7818608E-02  0.8997833E-01
         -1   -1    0    0    0  501 -0.00000000000E+00  0.00000000000E+00  0.92714752547E+03  0.92714752547E+03  0.00000000000E+00 0.  1.
          2   -1    0    0  501    0  0.00000000000E+00 -0.00000000000E+00 -0.48474104281E+03  0.48474104281E+03  0.00000000000E+00 0. -1.
         24    2    1    2    0    0 -0.92073318673E+02  0.29815010856E+03 -0.79674981320E+02  0.33274435702E+03  0.83664336700E+02 0.  0.
        254    2    1    2    0    0  0.92073318673E+02 -0.29815010856E+03  0.52208146398E+03  0.10791442113E+04  0.89141022566E+03 0.  0.
         23    2    4    4    0    0  0.19503975034E+03  0.21631239930E+03 -0.36388631220E+02  0.30744127667E+03  0.91457355170E+02 0.  0.
         23    2    4    4    0    0 -0.10296643166E+03 -0.51446250786E+03  0.55847009520E+03  0.77170293459E+03  0.91448422539E+02 0.  0.
          4    1    3    3  502    0 -0.45171576523E+02  0.21766957932E+03 -0.22490009345E+02  0.22344197817E+03  0.00000000000E+00 0. -1.
         -3    1    3    3    0  502 -0.46901742150E+02  0.80480529240E+02 -0.57184971975E+02  0.10930237885E+03  0.00000000000E+00 0.  1.
         11    1    5    5    0    0  0.15871713025E+02  0.14159493020E+02  0.22511302096E+02  0.30970328364E+02  0.00000000000E+00 0.  1.
        -11    1    5    5    0    0  0.17916803731E+03  0.20215290628E+03 -0.58899933316E+02  0.27647094830E+03  0.00000000000E+00 0. -1.
          3    1    6    6  503    0 -0.65909635614E+02 -0.34469797859E+03  0.30843345459E+03  0.46721726469E+03  0.00000000000E+00 0. -1.
         -3    1    6    6    0  503 -0.37056796050E+02 -0.16976452927E+03  0.25003664061E+03  0.30448566991E+03  0.00000000000E+00 0.  1.
<mgrwt>
<rscale>  0 0.13407855E+04</rscale>
<asrwt>0</asrwt>
<pdfrwt beam="1">  1        2 0.74575545E-01 0.13407855E+04</pdfrwt>
<pdfrwt beam="2">  1       -1 0.14263808E+00 0.13407855E+04</pdfrwt>
<totfact> 0.28480941E+01</totfact>
</mgrwt>
</event>
<event>
12    6  0.1529770E-007  0.1167976E+04  0.7818608E-02  0.9141358E-01
         -1   -1    0    0    0  501 -0.00000000000E+00  0.00000000000E+00  0.11993231153E+04  0.11993231153E+04  0.00000000000E+00 0.  1.
          2   -1    0    0  501    0  0.00000000000E+00 -0.00000000000E+00 -0.28436194799E+03  0.28436194799E+03  0.00000000000E+00 0. -1.
         24    2    1    2    0    0  0.18988881830E+03  0.28070710499E+02  0.46939167199E+02  0.21395470057E+03  0.82021950560E+02 0.  0.
        254    2    1    2    0    0 -0.18988881830E+03 -0.28070710499E+02  0.86802200008E+03  0.12697303627E+04  0.90659101762E+03 0.  0.
         23    2    4    4    0    0 -0.19029870952E+03 -0.32632403756E+03  0.47782947469E+02  0.39216552596E+03  0.93859540512E+02 0.  0.
         23    2    4    4    0    0  0.40989121747E+00  0.29825332706E+03  0.82023905261E+03  0.87756483674E+03  0.91502590849E+02 0.  0.
          4    1    3    3  502    0  0.15251508227E+03  0.92952864894E+01  0.67860214007E+02  0.16718929785E+03  0.00000000000E+00 0. -1.
         -3    1    3    3    0  502  0.37373736029E+02  0.18775424010E+02 -0.20921046808E+02  0.46765402715E+02  0.00000000000E+00 0.  1.
         11    1    5    5    0    0 -0.14656286829E+03 -0.21805945200E+03 -0.77861071102E+01  0.26285209231E+03  0.00000000000E+00 0. -1.
        -11    1    5    5    0    0 -0.43735841231E+02 -0.10826458557E+03  0.55569054579E+02  0.12931343365E+03  0.00000000000E+00 0.  1.
          3    1    6    6  503    0 -0.16493559858E+02  0.28941244575E+03  0.79289871481E+03  0.84422744164E+03  0.00000000000E+00 0. -1.
         -3    1    6    6    0  503  0.16903451075E+02  0.88408813084E+01  0.27340337803E+02  0.33337395095E+02  0.00000000000E+00 0.  1.
<mgrwt>
<rscale>  0 0.11679758E+04</rscale>
<asrwt>0</asrwt>
<pdfrwt beam="1">  1        2 0.43747993E-01 0.11679758E+04</pdfrwt>
<pdfrwt beam="2">  1       -1 0.18451125E+00 0.11679758E+04</pdfrwt>
<totfact> 0.25522804E+01</totfact>
</mgrwt>
</event>
<event>
12    6  0.1529770E-007  0.2319632E+04  0.7818608E-02  0.8470220E-01
          2   -1    0    0  501    0  0.00000000000E+00  0.00000000000E+00  0.23991876528E+04  0.23991876528E+04  0.00000000000E+00 0. -1.
         -1   -1    0    0    0  501 -0.00000000000E+00 -0.00000000000E+00 -0.56067879285E+03  0.56067879285E+03  0.00000000000E+00 0.  1.
         24    2    1    2    0    0  0.56362683607E+03  0.59659212180E+03  0.94317512594E+02  0.83008609044E+03  0.80930551900E+02 0.  0.
        254    2    1    2    0    0 -0.56362683607E+03 -0.59659212180E+03  0.17441913474E+04  0.21297803552E+04  0.90562880646E+03 0.  0.
         23    2    4    4    0    0 -0.22516328579E+03 -0.77571622233E+03  0.10058223075E+04  0.12928241687E+04  0.85332608813E+02 0.  0.
         23    2    4    4    0    0 -0.33846355028E+03  0.17912410053E+03  0.73836903992E+03  0.83695618653E+03  0.93079540132E+02 0.  0.
          2    1    3    3  502    0  0.17273171909E+03  0.14521405982E+03  0.58202551874E+00  0.22566282083E+03  0.00000000000E+00 0. -1.
         -1    1    3    3    0  502  0.39089511698E+03  0.45137806198E+03  0.93735487075E+02  0.60442326961E+03  0.00000000000E+00 0.  1.
         11    1    5    5    0    0 -0.20480738016E+03 -0.75250251132E+03  0.98091000791E+03  0.12531522398E+04  0.00000000000E+00 0.  1.
        -11    1    5    5    0    0 -0.20355905633E+02 -0.23213711016E+02  0.24912299541E+02  0.39671928888E+02  0.00000000000E+00 0. -1.
          2    1    6    6  503    0  0.51523493236E+01 -0.62021790894E+00  0.19306184493E+02  0.19991501532E+02  0.00000000000E+00 0. -1.
         -2    1    6    6    0  503 -0.34361589961E+03  0.17974431844E+03  0.71906285543E+03  0.81696468499E+03  0.00000000000E+00 0.  1.
<mgrwt>
<rscale>  0 0.23196324E+04</rscale>
<asrwt>0</asrwt>
<pdfrwt beam="1">  1        2 0.36910579E+00 0.23196324E+04</pdfrwt>
<pdfrwt beam="2">  1       -1 0.86258277E-01 0.23196324E+04</pdfrwt>
<totfact> 0.54342058E+00</totfact>
</mgrwt>
</event>
<event>
12    6  0.2067241E-007  0.1714650E+04  0.7818608E-02  0.8753053E-01
          2   -1    0    0  501    0  0.00000000000E+00  0.00000000000E+00  0.11515157169E+04  0.11515157169E+04  0.00000000000E+00 0. -1.
         -1   -1    0    0    0  501 -0.00000000000E+00 -0.00000000000E+00 -0.63829454377E+03  0.63829454377E+03  0.00000000000E+00 0.  1.
         24    2    1    2    0    0  0.31013799145E+03  0.14085320865E+03  0.72653579159E+03  0.80647711999E+03  0.80782971452E+02 0.  0.
        254    2    1    2    0    0 -0.31013799145E+03 -0.14085320865E+03 -0.21331461850E+03  0.98333314063E+03  0.89744957455E+03 0.  0.
         23    2    4    4    0    0 -0.16137191294E+03  0.35860535685E+03 -0.20875209221E+03  0.45443595227E+03  0.91081844865E+02 0.  0.
         23    2    4    4    0    0 -0.14876607851E+03 -0.49945856551E+03 -0.45625262873E+01  0.52889718836E+03  0.90117780905E+02 0.  0.
          2    1    3    3  502    0  0.30317611170E+03  0.13874989675E+03  0.72633038840E+03  0.79920155259E+03  0.00000000000E+00 0. -1.
         -1    1    3    3    0  502  0.69618797460E+01  0.21033118991E+01  0.20540319816E+00  0.72755674017E+01  0.00000000000E+00 0.  1.
         11    1    5    5    0    0 -0.15143091032E+03  0.30710451779E+03 -0.14491139994E+03  0.37181153731E+03  0.00000000000E+00 0.  1.
        -11    1    5    5    0    0 -0.99410026242E+01  0.51500839068E+02 -0.63840692276E+02  0.82624414964E+02  0.00000000000E+00 0. -1.
          4    1    6    6  503    0 -0.62276327277E+02 -0.31248468404E+03 -0.35409988318E+02  0.32059146273E+03  0.00000000000E+00 0.  1.
         -4    1    6    6    0  503 -0.86489751229E+02 -0.18697388146E+03  0.30847462030E+02  0.20830572563E+03  0.00000000000E+00 0. -1.
<mgrwt>
<rscale>  0 0.17146501E+04</rscale>
<asrwt>0</asrwt>
<pdfrwt beam="1">  1        2 0.17715626E+00 0.17146501E+04</pdfrwt>
<pdfrwt beam="2">  1       -1 0.98199161E-01 0.17146501E+04</pdfrwt>
<totfact> 0.21819430E+01</totfact>
</mgrwt>
</event>
<event>
12    6  0.1529770E-007  0.1824226E+04  0.7818608E-02  0.8693521E-01
         -1   -1    0    0    0  501 -0.00000000000E+00  0.00000000000E+00  0.19481820910E+04  0.19481820910E+04  0.00000000000E+00 0.  1.
          2   -1    0    0  501    0  0.00000000000E+00 -0.00000000000E+00 -0.42703913807E+03  0.42703913807E+03  0.00000000000E+00 0. -1.
         24    2    1    2    0    0 -0.51538473672E+03  0.27669158007E+03  0.10331363945E+03  0.59917852201E+03  0.78495450938E+02 0.  0.
        254    2    1    2    0    0  0.51538473672E+03 -0.27669158007E+03  0.14178293134E+04  0.17760427070E+04  0.89549320365E+03 0.  0.
         23    2    4    4    0    0  0.48010155720E+03  0.22776173067E+03  0.56796305199E+03  0.78314100128E+03  0.91405077912E+02 0.  0.
         23    2    4    4    0    0  0.35283179517E+02 -0.50445331074E+03  0.84986626145E+03  0.99290170575E+03  0.88674063033E+02 0.  0.
          4    1    3    3  502    0 -0.42488977450E+03  0.19213333291E+03  0.84477937595E+02  0.47390195192E+03  0.00000000000E+00 0. -1.
         -3    1    3    3    0  502 -0.90494962214E+02  0.84558247164E+02  0.18835701858E+02  0.12527657009E+03  0.00000000000E+00 0.  1.
         11    1    5    5    0    0  0.15792040387E+03  0.31379499293E+02  0.14988631202E+03  0.21997598383E+03  0.00000000000E+00 0. -1.
        -11    1    5    5    0    0  0.32218115333E+03  0.19638223137E+03  0.41807673997E+03  0.56316501744E+03  0.00000000000E+00 0.  1.
          4    1    6    6  503    0 -0.59527322146E+01 -0.28523279693E+03  0.40704300597E+03  0.49706859907E+03  0.00000000000E+00 0. -1.
         -4    1    6    6    0  503  0.41235911732E+02 -0.21922051380E+03  0.44282325548E+03  0.49583310668E+03  0.00000000000E+00 0.  1.
<mgrwt>
<rscale>  0 0.18242259E+04</rscale>
<asrwt>0</asrwt>
<pdfrwt beam="1">  1        2 0.65698330E-01 0.18242259E+04</pdfrwt>
<pdfrwt beam="2">  1       -1 0.29972032E+00 0.18242259E+04</pdfrwt>
<totfact> 0.26402376E+00</totfact>
</mgrwt>
</event>
<event>
12    6  0.1529770E-007  0.2618434E+04  0.7818608E-02  0.8361967E-01
         -1   -1    0    0    0  501 -0.00000000000E+00  0.00000000000E+00  0.12220029148E+04  0.12220029148E+04  0.00000000000E+00 0.  1.
          2   -1    0    0  501    0  0.00000000000E+00 -0.00000000000E+00 -0.14026552232E+04  0.14026552232E+04  0.00000000000E+00 0. -1.
         24    2    1    2    0    0 -0.84215276820E+03 -0.12291550613E+03 -0.84909466739E+03  0.12058000063E+04  0.93071985495E+02 0.  0.
        254    2    1    2    0    0  0.84215276820E+03  0.12291550613E+03  0.66844235890E+03  0.14188581317E+04  0.91761304698E+03 0.  0.
         23    2    4    4    0    0  0.83118476412E+03 -0.23060320965E+03  0.35470731209E+03  0.93730354596E+03  0.93138110369E+02 0.  0.
         23    2    4    4    0    0  0.10968004072E+02  0.35351871579E+03  0.31373504680E+03  0.48155458570E+03  0.91484205698E+02 0.  0.
          4    1    3    3  502    0 -0.58394264913E+03 -0.69836684333E+02 -0.64134697780E+03  0.87016787224E+03  0.00000000000E+00 0. -1.
         -3    1    3    3    0  502 -0.25821011907E+03 -0.53078821801E+02 -0.20774768960E+03  0.33563213411E+03  0.00000000000E+00 0.  1.
         11    1    5    5    0    0  0.42040072998E+02 -0.21729175472E+01 -0.89023395200E+00  0.42105603247E+02  0.00000000000E+00 0. -1.
        -11    1    5    5    0    0  0.78914469113E+03 -0.22843029210E+03  0.35559754604E+03  0.89519794271E+03  0.00000000000E+00 0.  1.
          3    1    6    6  503    0  0.37123712532E+02  0.60129357093E+02  0.56100348002E+02  0.90227261194E+02  0.00000000000E+00 0. -1.
         -3    1    6    6    0  503 -0.26155708460E+02  0.29338935869E+03  0.25763469880E+03  0.39132732451E+03  0.00000000000E+00 0.  1.
<mgrwt>
<rscale>  0 0.26184337E+04</rscale>
<asrwt>0</asrwt>
<pdfrwt beam="1">  1        2 0.21579311E+00 0.26184337E+04</pdfrwt>
<pdfrwt beam="2">  1       -1 0.18800045E+00 0.26184337E+04</pdfrwt>
<totfact> 0.26481046E+00</totfact>
</mgrwt>
</event>
<event>
12    6  0.1529770E-007  0.1475633E+04  0.7818608E-02  0.8900820E-01
          4   -1    0    0  501    0  0.00000000000E+00  0.00000000000E+00  0.25003795990E+03  0.25003795990E+03  0.00000000000E+00 0. -1.
         -1   -1    0    0    0  501 -0.00000000000E+00 -0.00000000000E+00 -0.21771629900E+04  0.21771629900E+04  0.00000000000E+00 0.  1.
         24    2    1    2    0    0 -0.30918014563E+03  0.27046523243E+03 -0.91025413573E+03  0.10021661982E+04  0.83849226957E+02 0.  0.
        254    2    1    2    0    0  0.30918014563E+03 -0.27046523243E+03 -0.10168708944E+04  0.14250347517E+04  0.90991967959E+03 0.  0.
         23    2    4    4    0    0  0.16647375979E+02 -0.55760379771E+03 -0.47563409032E+03  0.73879589429E+03  0.91610344386E+02 0.  0.
         23    2    4    4    0    0  0.29253276965E+03  0.28713856528E+03 -0.54123680408E+03  0.68623885742E+03  0.99812395791E+02 0.  0.
          2    1    3    3  502    0 -0.54845445480E+02  0.59675014592E+02 -0.11188604246E+03  0.13815794134E+03  0.00000000000E+00 0. -1.
         -1    1    3    3    0  502 -0.25433470015E+03  0.21079021784E+03 -0.79836809327E+03  0.86400825690E+03  0.00000000000E+00 0.  1.
         11    1    5    5    0    0  0.10047558390E+02 -0.50145498138E+03 -0.45895564874E+03  0.67985170390E+03  0.00000000000E+00 0.  1.
        -11    1    5    5    0    0  0.65998175892E+01 -0.56148816333E+02 -0.16678441577E+02  0.58944190394E+02  0.00000000000E+00 0. -1.
          2    1    6    6  503    0  0.77487788753E+01 -0.47433133389E+00  0.27130586622E+01  0.82237006011E+01  0.00000000000E+00 0. -1.
         -2    1    6    6    0  503  0.28478399077E+03  0.28761289661E+03 -0.54394986275E+03  0.67801515682E+03  0.00000000000E+00 0.  1.
<mgrwt>
<rscale>  0 0.14756333E+04</rscale>
<asrwt>0</asrwt>
<pdfrwt beam="1">  1        4 0.38467376E-01 0.14756333E+04</pdfrwt>
<pdfrwt beam="2">  1       -1 0.33494817E+00 0.14756333E+04</pdfrwt>
<totfact> 0.53217417E-01</totfact>
</mgrwt>
</event>
<event>
12    6  0.1529770E-007  0.1380353E+04  0.7818608E-02  0.8968164E-01
         -1   -1    0    0    0  501 -0.00000000000E+00  0.00000000000E+00  0.42340465379E+03  0.42340465379E+03  0.00000000000E+00 0.  1.
          2   -1    0    0  501    0  0.00000000000E+00 -0.00000000000E+00 -0.11250310391E+04  0.11250310391E+04  0.00000000000E+00 0. -1.
         24    2    1    2    0    0  0.14677711442E+03  0.16639080314E+03  0.16675118321E+03  0.28882549361E+03  0.79904868234E+02 0.  0.
        254    2    1    2    0    0 -0.14677711442E+03 -0.16639080314E+03 -0.86837756853E+03  0.12596101993E+04  0.88504736142E+03 0.  0.
         23    2    4    4    0    0 -0.22770059073E+03 -0.10926209101E+03 -0.10212629115E+04  0.10559300907E+04  0.90689903638E+02 0.  0.
         23    2    4    4    0    0  0.80923476314E+02 -0.57128712125E+02  0.15288534295E+03  0.20368010855E+03  0.91100821972E+02 0.  0.
          2    1    3    3  502    0  0.86186890720E+02  0.48774575114E+02  0.44069756654E+02  0.10839410852E+03  0.00000000000E+00 0. -1.
         -3    1    3    3    0  502  0.60590223697E+02  0.11761622802E+03  0.12268142656E+03  0.18043138509E+03  0.00000000000E+00 0.  1.
         11    1    5    5    0    0 -0.63241582142E+02  0.96629969982E+01 -0.20118874148E+03  0.21111556295E+03  0.00000000000E+00 0. -1.
        -11    1    5    5    0    0 -0.16445900859E+03 -0.11892508801E+03 -0.82007417000E+03  0.84481452779E+03  0.00000000000E+00 0.  1.
          3    1    6    6  503    0  0.45842159190E+02 -0.49549472460E+02  0.26871637000E+02  0.72654928638E+02  0.00000000000E+00 0. -1.
         -3    1    6    6    0  503  0.35081317123E+02 -0.75792396645E+01  0.12601370595E+03  0.13102517991E+03  0.00000000000E+00 0.  1.
<mgrwt>
<rscale>  0 0.13803527E+04</rscale>
<asrwt>0</asrwt>
<pdfrwt beam="1">  1        2 0.17308170E+00 0.13803527E+04</pdfrwt>
<pdfrwt beam="2">  1       -1 0.65139177E-01 0.13803527E+04</pdfrwt>
<totfact> 0.55848811E+01</totfact>
</mgrwt>
</event>
<event>
12    6  0.1529770E-007  0.2120080E+04  0.7818608E-02  0.8552449E-01
          2   -1    0    0  501    0  0.00000000000E+00  0.00000000000E+00  0.22834177932E+04  0.22834177932E+04  0.00000000000E+00 0. -1.
         -1   -1    0    0    0  501 -0.00000000000E+00 -0.00000000000E+00 -0.49210649344E+03  0.49210649344E+03  0.00000000000E+00 0.  1.
         24    2    1    2    0    0  0.96490531173E+02  0.13367404919E+03 -0.37824829626E+03  0.42054830583E+03  0.81301475235E+02 0.  0.
        254    2    1    2    0    0 -0.96490531173E+02 -0.13367404919E+03  0.21695595960E+04  0.23549759808E+04  0.90096828769E+03 0.  0.
         23    2    4    4    0    0 -0.16004382979E+03  0.21531650494E+02  0.86095824830E+01  0.18559470802E+03  0.91069376346E+02 0.  0.
         23    2    4    4    0    0  0.63553298620E+02 -0.15520569968E+03  0.21609500135E+04  0.21693812728E+04  0.91554981773E+02 0.  0.
          4    1    3    3  502    0  0.55969851002E+02  0.11406091966E+03 -0.20194389559E+03  0.23858720540E+03  0.00000000000E+00 0. -1.
         -3    1    3    3    0  502  0.40520680171E+02  0.19613129529E+02 -0.17630440068E+03  0.18196110043E+03  0.00000000000E+00 0.  1.
         11    1    5    5    0    0 -0.99657262045E+02  0.31101326623E+02  0.45832158585E+02  0.11401512688E+03  0.00000000000E+00 0.  1.
        -11    1    5    5    0    0 -0.60386567748E+02 -0.95696761290E+01 -0.37222576102E+02  0.71579581147E+02  0.00000000000E+00 0. -1.
          1    1    6    6  503    0  0.71575065851E+02 -0.13400574560E+03  0.14236977102E+04  0.14317806047E+04  0.00000000000E+00 0. -1.
         -1    1    6    6    0  503 -0.80217672309E+01 -0.21199954084E+02  0.73725230331E+03  0.73760066807E+03  0.00000000000E+00 0.  1.
<mgrwt>
<rscale>  0 0.21200799E+04</rscale>
<asrwt>0</asrwt>
<pdfrwt beam="1">  1        2 0.35129504E+00 0.21200799E+04</pdfrwt>
<pdfrwt beam="2">  1       -1 0.75708693E-01 0.21200799E+04</pdfrwt>
<totfact> 0.85045410E+00</totfact>
</mgrwt>
</event>
<event>
12    6  0.1529770E-007  0.2057446E+04  0.7818608E-02  0.8580224E-01
         -1   -1    0    0    0  501 -0.00000000000E+00  0.00000000000E+00  0.42489080275E+03  0.42489080275E+03  0.00000000000E+00 0.  1.
          2   -1    0    0  501    0  0.00000000000E+00 -0.00000000000E+00 -0.24906883819E+04  0.24906883819E+04  0.00000000000E+00 0. -1.
         24    2    1    2    0    0 -0.27475945682E+03 -0.11450716061E+03  0.26618353491E+03  0.40582836203E+03  0.72376351342E+02 0.  0.
        254    2    1    2    0    0  0.27475945682E+03  0.11450716061E+03 -0.23319811140E+04  0.25097508226E+04  0.87869711867E+03 0.  0.
         23    2    4    4    0    0  0.17185013942E+03 -0.31387455547E+03 -0.49283995185E+03  0.61625771748E+03  0.93982175015E+02 0.  0.
         23    2    4    4    0    0  0.10290931740E+03  0.42838171608E+03 -0.18391411622E+04  0.18934931051E+04  0.93673381575E+02 0.  0.
          2    1    3    3  502    0  0.41883935139E+01 -0.50265447838E+01  0.75295620309E+01  0.99751239124E+01  0.00000000000E+00 0. -1.
         -1    1    3    3    0  502 -0.27894785033E+03 -0.10948061583E+03  0.25865397288E+03  0.39585323812E+03  0.00000000000E+00 0.  1.
         11    1    5    5    0    0  0.10391012818E+03 -0.19650798602E+03 -0.37816894743E+03  0.43866212067E+03  0.00000000000E+00 0. -1.
        -11    1    5    5    0    0  0.67940011238E+02 -0.11736656945E+03 -0.11467100442E+03  0.17759559680E+03  0.00000000000E+00 0.  1.
          3    1    6    6  503    0  0.10515349115E+03  0.37770057630E+03 -0.17178017822E+04  0.17619755801E+04  0.00000000000E+00 0. -1.
         -3    1    6    6    0  503 -0.22441737469E+01  0.50681139775E+02 -0.12133937998E+03  0.13151752499E+03  0.00000000000E+00 0.  1.
<mgrwt>
<rscale>  0 0.20574456E+04</rscale>
<asrwt>0</asrwt>
<pdfrwt beam="1">  1        2 0.38318283E+00 0.20574456E+04</pdfrwt>
<pdfrwt beam="2">  1       -1 0.65367815E-01 0.20574456E+04</pdfrwt>
<totfact> 0.88052412E+00</totfact>
</mgrwt>
</event>
<event>
12    6  0.1651084E-007  0.1489621E+04  0.7818608E-02  0.8891384E-01
          2   -1    0    0  501    0  0.00000000000E+00  0.00000000000E+00  0.25763656422E+04  0.25763656422E+04  0.00000000000E+00 0. -1.
         -1   -1    0    0    0  501 -0.00000000000E+00 -0.00000000000E+00 -0.21531980110E+03  0.21531980110E+03  0.00000000000E+00 0.  1.
         24    2    1    2    0    0  0.26929481388E+03 -0.22146881088E+03  0.17311455375E+03  0.39574153458E+03  0.71236103861E+02 0.  0.
        254    2    1    2    0    0 -0.26929481388E+03  0.22146881088E+03  0.21879312874E+04  0.23959439088E+04  0.91210512804E+03 0.  0.
         23    2    4    4    0    0  0.15576420855E+03 -0.20044101657E+03  0.12555119017E+04  0.12840239278E+04  0.89264897850E+02 0.  0.
         23    2    4    4    0    0 -0.42505902243E+03  0.42190982745E+03  0.93241938571E+03  0.11119199810E+04  0.90978339499E+02 0.  0.
          2    1    3    3  502    0  0.13249040090E+02 -0.94903835806E+01  0.29363871889E+02  0.33583350282E+02  0.00000000000E+00 0. -1.
         -1    1    3    3    0  502  0.25604577379E+03 -0.21197842730E+03  0.14375068186E+03  0.36215818430E+03  0.00000000000E+00 0.  1.
         11    1    5    5    0    0  0.15264822653E+03 -0.19083913632E+03  0.12472889601E+04  0.12710038580E+04  0.00000000000E+00 0. -1.
        -11    1    5    5    0    0  0.31159820151E+01 -0.96018802524E+01  0.82229415477E+01  0.13020069739E+02  0.00000000000E+00 0.  1.
          4    1    6    6  503    0 -0.42925852389E+03  0.42062758335E+03  0.92852360302E+03  0.11060499652E+04  0.00000000000E+00 0. -1.
         -4    1    6    6    0  503  0.41995014630E+01  0.12822441029E+01  0.38957826906E+01  0.58700157794E+01  0.00000000000E+00 0.  1.
<mgrwt>
<rscale>  0 0.14896208E+04</rscale>
<asrwt>0</asrwt>
<pdfrwt beam="1">  1        2 0.39636392E+00 0.14896208E+04</pdfrwt>
<pdfrwt beam="2">  1       -1 0.33126125E-01 0.14896208E+04</pdfrwt>
<totfact> 0.29726898E+01</totfact>
</mgrwt>
</event>
<event>
12    6  0.1529770E-007  0.1867818E+04  0.7818608E-02  0.8671043E-01
          2   -1    0    0  501    0  0.00000000000E+00  0.00000000000E+00  0.91090994994E+03  0.91090994994E+03  0.00000000000E+00 0. -1.
         -1   -1    0    0    0  501 -0.00000000000E+00 -0.00000000000E+00 -0.95748857987E+03  0.95748857987E+03  0.00000000000E+00 0.  1.
         24    2    1    2    0    0 -0.91179783943E+02 -0.33808478487E+03  0.60288596071E+03  0.70173659269E+03  0.79672386325E+02 0.  0.
        254    2    1    2    0    0  0.91179783943E+02  0.33808478487E+03 -0.64946459063E+03  0.11666619371E+04  0.90370390409E+03 0.  0.
         23    2    4    4    0    0  0.41490626113E+03  0.18417226207E+03 -0.64844313424E+03  0.79672291868E+03  0.90676806142E+02 0.  0.
         23    2    4    4    0    0 -0.32372647719E+03  0.15391252280E+03 -0.10214563948E+01  0.36993901844E+03  0.91465497763E+02 0.  0.
          4    1    3    3  502    0 -0.85232187762E+02 -0.33050414009E+03  0.60204290233E+03  0.69206442525E+03  0.00000000000E+00 0. -1.
         -3    1    3    3    0  502 -0.59475961815E+01 -0.75806447781E+01  0.84305837637E+00  0.96721674414E+01  0.00000000000E+00 0.  1.
         11    1    5    5    0    0  0.19599307434E+03  0.79023231777E+02 -0.37938624018E+03  0.43427166104E+03  0.00000000000E+00 0. -1.
        -11    1    5    5    0    0  0.21891318679E+03  0.10514903029E+03 -0.26905689406E+03  0.36245125764E+03  0.00000000000E+00 0.  1.
          3    1    6    6  503    0 -0.18612807471E+03  0.12073338474E+03  0.33179152427E+02  0.22432357554E+03  0.00000000000E+00 0. -1.
         -3    1    6    6    0  503 -0.13759840247E+03  0.33179138060E+02 -0.34200608822E+02  0.14561544290E+03  0.00000000000E+00 0.  1.
<mgrwt>
<rscale>  0 0.18678178E+04</rscale>
<asrwt>0</asrwt>
<pdfrwt beam="1">  1        2 0.14013999E+00 0.18678178E+04</pdfrwt>
<pdfrwt beam="2">  1       -1 0.14730593E+00 0.18678178E+04</pdfrwt>
<totfact> 0.11315703E+01</totfact>
</mgrwt>
</event>
<event>
12    6  0.1529770E-007  0.1623638E+04  0.7818608E-02  0.8806156E-01
          2   -1    0    0  501    0  0.00000000000E+00  0.00000000000E+00  0.13280404093E+04  0.13280404093E+04  0.00000000000E+00 0. -1.
         -1   -1    0    0    0  501 -0.00000000000E+00 -0.00000000000E+00 -0.49625763419E+03  0.49625763419E+03  0.00000000000E+00 0.  1.
         24    2    1    2    0    0 -0.31372079690E+03  0.44076146777E+03  0.46682941544E+03  0.71903027847E+03  0.79896360065E+02 0.  0.
        254    2    1    2    0    0  0.31372079690E+03 -0.44076146777E+03  0.36495335962E+03  0.11052677650E+04  0.89203949898E+03 0.  0.
         23    2    4    4    0    0 -0.28127573850E+03 -0.47044800068E+02 -0.45003103882E+00  0.29894206278E+03  0.89648759542E+02 0.  0.
         23    2    4    4    0    0  0.59499653540E+03 -0.39371666771E+03  0.36540339066E+03  0.80632570221E+03  0.87222752606E+02 0.  0.
          4    1    3    3  502    0 -0.30033256509E+03  0.37971991217E+03  0.40637812627E+03  0.63208388910E+03  0.00000000000E+00 0. -1.
         -3    1    3    3    0  502 -0.13388231814E+02  0.61041555607E+02  0.60451289170E+02  0.86946389369E+02  0.00000000000E+00 0.  1.
         11    1    5    5    0    0 -0.24780055170E+02 -0.44376426949E+01  0.27678630592E+02  0.37414574678E+02  0.00000000000E+00 0.  1.
        -11    1    5    5    0    0 -0.25649568333E+03 -0.42607157373E+02 -0.28128661630E+02  0.26152748810E+03  0.00000000000E+00 0. -1.
          3    1    6    6  503    0  0.44125145311E+03 -0.25473214884E+03  0.23188957685E+03  0.55978932499E+03  0.00000000000E+00 0. -1.
         -3    1    6    6    0  503  0.15374508228E+03 -0.13898451887E+03  0.13351381381E+03  0.24653637721E+03  0.00000000000E+00 0.  1.
<mgrwt>
<rscale>  0 0.16236381E+04</rscale>
<asrwt>0</asrwt>
<pdfrwt beam="1">  1        2 0.20431391E+00 0.16236381E+04</pdfrwt>
<pdfrwt beam="2">  1       -1 0.76347329E-01 0.16236381E+04</pdfrwt>
<totfact> 0.29921521E+01</totfact>
</mgrwt>
</event>
<event>
12    6  0.1529770E-007  0.2367205E+04  0.7818608E-02  0.8451884E-01
         -1   -1    0    0    0  501 -0.00000000000E+00  0.00000000000E+00  0.43436440874E+03  0.43436440874E+03  0.00000000000E+00 0.  1.
          2   -1    0    0  501    0  0.00000000000E+00 -0.00000000000E+00 -0.32252067306E+04  0.32252067306E+04  0.00000000000E+00 0. -1.
         24    2    1    2    0    0  0.46402679721E+03  0.20131927970E+03  0.15779427269E+03  0.53725012771E+03  0.88816362937E+02 0.  0.
        254    2    1    2    0    0 -0.46402679721E+03 -0.20131927970E+03 -0.29486365945E+04  0.31223210116E+04  0.89363326486E+03 0.  0.
         23    2    4    4    0    0 -0.28006202100E+03 -0.50650360525E+03 -0.23319577621E+04  0.24044432782E+04  0.91322702162E+02 0.  0.
         23    2    4    4    0    0 -0.18396477621E+03  0.30518432555E+03 -0.61667883239E+03  0.71787773341E+03  0.89861818186E+02 0.  0.
          2    1    3    3  502    0  0.27979971738E+02  0.18566362316E+02  0.35560552979E+02  0.48909524188E+02  0.00000000000E+00 0. -1.
         -1    1    3    3    0  502  0.43604682547E+03  0.18275291738E+03  0.12223371971E+03  0.48834060352E+03  0.00000000000E+00 0.  1.
         11    1    5    5    0    0 -0.62135345946E+02 -0.54967922940E+02 -0.27345014329E+03  0.28575733522E+03  0.00000000000E+00 0. -1.
        -11    1    5    5    0    0 -0.21792667505E+03 -0.45153568231E+03 -0.20585076188E+04  0.21186859430E+04  0.00000000000E+00 0.  1.
          4    1    6    6  503    0 -0.27833246056E+02  0.34069910149E+02 -0.30816966678E+02  0.53713441509E+02  0.00000000000E+00 0. -1.
         -4    1    6    6    0  503 -0.15613153015E+03  0.27111441540E+03 -0.58586186571E+03  0.66416429190E+03  0.00000000000E+00 0.  1.
<mgrwt>
<rscale>  0 0.23672051E+04</rscale>
<asrwt>0</asrwt>
<pdfrwt beam="1">  1        2 0.49618567E+00 0.23672051E+04</pdfrwt>
<pdfrwt beam="2">  1       -1 0.66825291E-01 0.23672051E+04</pdfrwt>
<totfact> 0.29082732E+00</totfact>
</mgrwt>
</event>
<event>
12    6  0.1529770E-007  0.1154409E+04  0.7818608E-02  0.9153726E-01
         -1   -1    0    0    0  501 -0.00000000000E+00  0.00000000000E+00  0.36117356467E+03  0.36117356467E+03  0.00000000000E+00 0.  1.
          2   -1    0    0  501    0  0.00000000000E+00 -0.00000000000E+00 -0.92245078688E+03  0.92245078688E+03  0.00000000000E+00 0. -1.
         24    2    1    2    0    0  0.14248134223E+03  0.13869537927E+03 -0.20263545770E+03  0.29546107582E+03  0.81846059740E+02 0.  0.
        254    2    1    2    0    0 -0.14248134223E+03 -0.13869537927E+03 -0.35864176451E+03  0.98816327573E+03  0.89905806438E+03 0.  0.
         23    2    4    4    0    0 -0.20356772020E+01  0.36265146853E+03 -0.24693241031E+03  0.44784540052E+03  0.89831263434E+02 0.  0.
         23    2    4    4    0    0 -0.14044566503E+03 -0.50134684780E+03 -0.11170935420E+03  0.54031787521E+03  0.91601199939E+02 0.  0.
          4    1    3    3  502    0  0.11356238943E+03  0.96769709794E+02 -0.96361761477E+02  0.17761301220E+03  0.00000000000E+00 0. -1.
         -3    1    3    3    0  502  0.28918952803E+02  0.41925669477E+02 -0.10627369622E+03  0.11784806363E+03  0.00000000000E+00 0.  1.
         11    1    5    5    0    0 -0.28337627516E+01 -0.32888373235E+01 -0.12548102593E+02  0.13277859050E+02  0.00000000000E+00 0. -1.
        -11    1    5    5    0    0  0.79808554959E+00  0.36594030586E+03 -0.23438430772E+03  0.43456754147E+03  0.00000000000E+00 0.  1.
          1    1    6    6  503    0 -0.60678304984E+02 -0.99058422609E+02 -0.46119168779E+02  0.12498562123E+03  0.00000000000E+00 0. -1.
         -1    1    6    6    0  503 -0.79767360047E+02 -0.40228842519E+03 -0.65590185418E+02  0.41533225398E+03  0.00000000000E+00 0.  1.
<mgrwt>
<rscale>  0 0.11544087E+04</rscale>
<asrwt>0</asrwt>
<pdfrwt beam="1">  1        2 0.14191550E+00 0.11544087E+04</pdfrwt>
<pdfrwt beam="2">  1       -1 0.55565164E-01 0.11544087E+04</pdfrwt>
<totfact> 0.10471269E+02</totfact>
</mgrwt>
</event>
<event>
12    6  0.1529770E-007  0.5543073E+04  0.7818608E-02  0.7749790E-01
          2   -1    0    0  501    0  0.00000000000E+00  0.00000000000E+00  0.17763951855E+04  0.17763951855E+04  0.00000000000E+00 0. -1.
         -1   -1    0    0    0  501 -0.00000000000E+00 -0.00000000000E+00 -0.43241590679E+04  0.43241590679E+04  0.00000000000E+00 0.  1.
         24    2    1    2    0    0 -0.47002937265E+03 -0.22158201449E+04  0.37242351362E+03  0.22968316559E+04  0.77135311364E+02 0.  0.
        254    2    1    2    0    0  0.47002937265E+03  0.22158201449E+04 -0.29201873960E+04  0.38037225975E+04  0.90001369167E+03 0.  0.
         23    2    4    4    0    0  0.11436911838E+03  0.20046881778E+04 -0.23288514433E+04  0.30763214215E+04  0.91375366547E+02 0.  0.
         23    2    4    4    0    0  0.35566025426E+03  0.21113196712E+03 -0.59133595267E+03  0.72740117603E+03  0.91451287430E+02 0.  0.
          4    1    3    3  502    0 -0.42155411800E+03 -0.19734098737E+04  0.35583259293E+03  0.20490659429E+04  0.00000000000E+00 0. -1.
         -3    1    3    3    0  502 -0.48475254645E+02 -0.24241027122E+03  0.16590920695E+02  0.24776571303E+03  0.00000000000E+00 0.  1.
         11    1    5    5    0    0  0.11806674314E+03  0.19519262958E+04 -0.22857626547E+04  0.30081002200E+04  0.00000000000E+00 0.  1.
        -11    1    5    5    0    0 -0.36976247575E+01  0.52761882001E+02 -0.43088788645E+02  0.68221201456E+02  0.00000000000E+00 0. -1.
          3    1    6    6  503    0  0.11873670485E+02 -0.85341169829E+01 -0.31032366019E+02  0.34304853071E+02  0.00000000000E+00 0. -1.
         -3    1    6    6    0  503  0.34378658378E+03  0.21966608410E+03 -0.56030358665E+03  0.69309632296E+03  0.00000000000E+00 0.  1.
<mgrwt>
<rscale>  0 0.55430733E+04</rscale>
<asrwt>0</asrwt>
<pdfrwt beam="1">  1        2 0.27329157E+00 0.55430733E+04</pdfrwt>
<pdfrwt beam="2">  1       -1 0.66525524E+00 0.55430733E+04</pdfrwt>
<totfact> 0.18781893E-03</totfact>
</mgrwt>
</event>
<event>
12    6  0.1529770E-007  0.3023628E+04  0.7818608E-02  0.8237016E-01
          2   -1    0    0  501    0  0.00000000000E+00  0.00000000000E+00  0.23700441518E+04  0.23700441518E+04  0.00000000000E+00 0. -1.
         -1   -1    0    0    0  501 -0.00000000000E+00 -0.00000000000E+00 -0.96436271944E+03  0.96436271944E+03  0.00000000000E+00 0.  1.
         24    2    1    2    0    0  0.30579341084E+02 -0.13396782005E+04  0.29946444030E+03  0.13752539477E+04  0.77276727495E+02 0.  0.
        254    2    1    2    0    0 -0.30579341084E+02  0.13396782005E+04  0.11062169921E+04  0.19591529236E+04  0.90492616675E+03 0.  0.
         23    2    4    4    0    0  0.24632398062E+03  0.93600051282E+02  0.42889352766E+03  0.51118062224E+03  0.88991558324E+02 0.  0.
         23    2    4    4    0    0 -0.27690332170E+03  0.12460781492E+04  0.67732346442E+03  0.14479723013E+04  0.92035353831E+02 0.  0.
          2    1    3    3  502    0  0.42709201797E+02 -0.12353324952E+04  0.26057292792E+03  0.12632373888E+04  0.00000000000E+00 0. -1.
         -1    1    3    3    0  502 -0.12129860713E+02 -0.10434570530E+03  0.38891512385E+02  0.11201655891E+03  0.00000000000E+00 0.  1.
         11    1    5    5    0    0  0.24100127535E+03  0.66199925996E+02  0.39246656274E+03  0.46528920877E+03  0.00000000000E+00 0.  1.
        -11    1    5    5    0    0  0.53227052628E+01  0.27400125285E+02  0.36426964917E+02  0.45891413468E+02  0.00000000000E+00 0. -1.
          3    1    6    6  503    0 -0.59641517542E+02  0.17562754026E+03  0.12787130113E+03  0.22528473797E+03  0.00000000000E+00 0. -1.
         -3    1    6    6    0  503 -0.21726180416E+03  0.10704506090E+04  0.54945216329E+03  0.12226875634E+04  0.00000000000E+00 0.  1.
<mgrwt>
<rscale>  0 0.30236284E+04</rscale>
<asrwt>0</asrwt>
<pdfrwt beam="1">  1        2 0.36462218E+00 0.30236284E+04</pdfrwt>
<pdfrwt beam="2">  1       -1 0.14836350E+00 0.30236284E+04</pdfrwt>
<totfact> 0.14432225E+00</totfact>
</mgrwt>
</event>
<event>
12    6  0.1695084E-007  0.1427781E+04  0.7818608E-02  0.8933951E-01
         -1   -1    0    0    0  501 -0.00000000000E+00  0.00000000000E+00  0.65135279926E+03  0.65135279926E+03  0.00000000000E+00 0.  1.
          2   -1    0    0  501    0  0.00000000000E+00 -0.00000000000E+00 -0.78243268120E+03  0.78243268120E+03  0.00000000000E+00 0. -1.
         24    2    1    2    0    0  0.28936467519E+03 -0.25724281902E+02 -0.35819927579E+03  0.46799104832E+03  0.79468523353E+02 0.  0.
        254    2    1    2    0    0 -0.28936467519E+03  0.25724281902E+02  0.22711939385E+03  0.96579443213E+03  0.89262646843E+03 0.  0.
         23    2    4    4    0    0  0.25339306066E+03  0.16485418572E+03 -0.71362179616E+02  0.32434613902E+03  0.93396528163E+02 0.  0.
         23    2    4    4    0    0 -0.54275773586E+03 -0.13912990382E+03  0.29848157347E+03  0.64144829312E+03  0.91769129219E+02 0.  0.
          4    1    3    3  502    0  0.28341757229E+03 -0.39080825783E+02 -0.33469875083E+03  0.44031362122E+03  0.00000000000E+00 0. -1.
         -3    1    3    3    0  502  0.59471029008E+01  0.13356543881E+02 -0.23500524964E+02  0.27677427101E+02  0.00000000000E+00 0.  1.
         11    1    5    5    0    0  0.25208352735E+03  0.13451059954E+03 -0.60277054228E+02  0.29201460480E+03  0.00000000000E+00 0. -1.
        -11    1    5    5    0    0  0.13095333113E+01  0.30343586181E+02 -0.11085125387E+02  0.32331534215E+02  0.00000000000E+00 0.  1.
          3    1    6    6  503    0 -0.50843347546E+03 -0.10729269378E+03  0.26111047205E+03  0.58154535482E+03  0.00000000000E+00 0. -1.
         -3    1    6    6    0  503 -0.34324260398E+02 -0.31837210040E+02  0.37371101421E+02  0.59902938296E+02  0.00000000000E+00 0.  1.
<mgrwt>
<rscale>  0 0.14277811E+04</rscale>
<asrwt>0</asrwt>
<pdfrwt beam="1">  1        2 0.12037426E+00 0.14277811E+04</pdfrwt>
<pdfrwt beam="2">  1       -1 0.10020812E+00 0.14277811E+04</pdfrwt>
<totfact> 0.37338889E+01</totfact>
</mgrwt>
</event>
<event>
12    6  0.1529770E-007  0.3278812E+04  0.7818608E-02  0.8168308E-01
          2   -1    0    0  501    0  0.00000000000E+00  0.00000000000E+00  0.17517416522E+04  0.17517416522E+04  0.00000000000E+00 0. -1.
         -1   -1    0    0    0  501 -0.00000000000E+00 -0.00000000000E+00 -0.15342738933E+04  0.15342738933E+04  0.00000000000E+00 0.  1.
         24    2    1    2    0    0  0.10851420343E+04 -0.68053749608E+03 -0.72071738271E+03  0.14719521337E+04  0.80901297616E+02 0.  0.
        254    2    1    2    0    0 -0.10851420343E+04  0.68053749608E+03  0.93818514163E+03  0.18140634117E+04  0.87747944905E+03 0.  0.
         23    2    4    4    0    0 -0.18294535026E+03  0.16454400810E+03 -0.15397739897E+03  0.30355070009E+03  0.88827114962E+02 0.  0.
         23    2    4    4    0    0 -0.90219668407E+03  0.51599348799E+03  0.10921625406E+04  0.15105127116E+04  0.92852035524E+02 0.  0.
          2    1    3    3  502    0  0.46637280738E+03 -0.24780389955E+03 -0.31080010426E+03  0.61278631912E+03  0.00000000000E+00 0. -1.
         -1    1    3    3    0  502  0.61876922696E+03 -0.43273359653E+03 -0.40991727845E+03  0.85916581460E+03  0.00000000000E+00 0.  1.
         11    1    5    5    0    0 -0.16768152761E+03  0.17543279095E+03 -0.14003019853E+03  0.28018246794E+03  0.00000000000E+00 0. -1.
        -11    1    5    5    0    0 -0.15263822649E+02 -0.10888782852E+02 -0.13947200433E+02  0.23368232149E+02  0.00000000000E+00 0.  1.
          3    1    6    6  503    0 -0.12076714619E+03  0.38620730874E+02  0.15493504932E+03  0.20020273215E+03  0.00000000000E+00 0. -1.
         -3    1    6    6    0  503 -0.78142953788E+03  0.47737275712E+03  0.93722749127E+03  0.13103099795E+04  0.00000000000E+00 0.  1.
<mgrwt>
<rscale>  0 0.32788117E+04</rscale>
<asrwt>0</asrwt>
<pdfrwt beam="1">  1        2 0.26949872E+00 0.32788117E+04</pdfrwt>
<pdfrwt beam="2">  1       -1 0.23604214E+00 0.32788117E+04</pdfrwt>
<totfact> 0.75231260E-01</totfact>
</mgrwt>
</event>
<event>
12    6  0.1529770E-007  0.1806577E+04  0.7818608E-02  0.8702810E-01
          2   -1    0    0  501    0  0.00000000000E+00  0.00000000000E+00  0.21740831808E+04  0.21740831808E+04  0.00000000000E+00 0. -1.
         -1   -1    0    0    0  501 -0.00000000000E+00 -0.00000000000E+00 -0.37529838489E+03  0.37529838489E+03  0.00000000000E+00 0.  1.
         24    2    1    2    0    0  0.13667747480E+03  0.17423239248E+03  0.15845822091E+04  0.16018641801E+04  0.77655748887E+02 0.  0.
        254    2    1    2    0    0 -0.13667747480E+03 -0.17423239248E+03  0.21420258682E+03  0.94751738562E+03  0.89602945775E+03 0.  0.
         23    2    4    4    0    0  0.14538798257E+03 -0.43424113598E+03 -0.56316258268E+02  0.46946411549E+03  0.86729494000E+02 0.  0.
         23    2    4    4    0    0 -0.28206545738E+03  0.26000874350E+03  0.27051884509E+03  0.47805327014E+03  0.90493174336E+02 0.  0.
          4    1    3    3  502    0  0.94177638512E+02  0.16154500370E+03  0.11604596457E+04  0.11754287750E+04  0.00000000000E+00 0. -1.
         -3    1    3    3    0  502  0.42499836290E+02  0.12687388776E+02  0.42412256339E+03  0.42643540506E+03  0.00000000000E+00 0.  1.
         11    1    5    5    0    0  0.96607195544E+02 -0.16916311768E+03 -0.43660693736E+02  0.19963808953E+03  0.00000000000E+00 0. -1.
        -11    1    5    5    0    0  0.48780787029E+02 -0.26507801830E+03 -0.12655564533E+02  0.26982602595E+03  0.00000000000E+00 0.  1.
          4    1    6    6  503    0 -0.23300425521E+03  0.16016089104E+03  0.18797042552E+03  0.33952227443E+03  0.00000000000E+00 0. -1.
         -4    1    6    6    0  503 -0.49061202167E+02  0.99847852458E+02  0.82548419566E+02  0.13853099571E+03  0.00000000000E+00 0.  1.
<mgrwt>
<rscale>  0 0.18065768E+04</rscale>
<asrwt>0</asrwt>
<pdfrwt beam="1">  1        2 0.33447433E+00 0.18065768E+04</pdfrwt>
<pdfrwt beam="2">  1       -1 0.57738214E-01 0.18065768E+04</pdfrwt>
<totfact> 0.17438273E+01</totfact>
</mgrwt>
</event>
<event>
12    6  0.1529770E-007  0.1111137E+04  0.7818608E-02  0.9194405E-01
         -1   -1    0    0    0  501 -0.00000000000E+00  0.00000000000E+00  0.75327775600E+03  0.75327775600E+03  0.00000000000E+00 0.  1.
          2   -1    0    0  501    0  0.00000000000E+00 -0.00000000000E+00 -0.40975074549E+03  0.40975074549E+03  0.00000000000E+00 0. -1.
         24    2    1    2    0    0  0.35199613141E+01 -0.10307819288E+03  0.21302879535E+03  0.24997952614E+03  0.80442475484E+02 0.  0.
        254    2    1    2    0    0 -0.35199613141E+01  0.10307819288E+03  0.13049821516E+03  0.91304897536E+03  0.89777009489E+03 0.  0.
         23    2    4    4    0    0  0.18529308478E+03 -0.91807769367E+02  0.43826879878E+03  0.49262856247E+03  0.88550363052E+02 0.  0.
         23    2    4    4    0    0 -0.18881304609E+03  0.19488596225E+03 -0.30777058362E+03  0.42042041289E+03  0.91649805078E+02 0.  0.
          4    1    3    3  502    0 -0.27664430336E+02 -0.23309564360E+02  0.11111689631E+03  0.11685726825E+03  0.00000000000E+00 0. -1.
         -3    1    3    3    0  502  0.31184391650E+02 -0.79768628523E+02  0.10191189904E+03  0.13312225789E+03  0.00000000000E+00 0.  1.
         11    1    5    5    0    0  0.18193147177E+03 -0.84030894130E+02  0.34503440579E+03  0.39901001588E+03  0.00000000000E+00 0. -1.
        -11    1    5    5    0    0  0.33616130020E+01 -0.77768752365E+01  0.93234392993E+02  0.93618546598E+02  0.00000000000E+00 0.  1.
          3    1    6    6  503    0 -0.13194825501E+03  0.12988950976E+03 -0.14140106835E+03  0.23297186284E+03  0.00000000000E+00 0. -1.
         -3    1    6    6    0  503 -0.56864791077E+02  0.64996452492E+02 -0.16636951527E+03  0.18744855004E+03  0.00000000000E+00 0.  1.
<mgrwt>
<rscale>  0 0.11111366E+04</rscale>
<asrwt>0</asrwt>
<pdfrwt beam="1">  1        2 0.63038576E-01 0.11111366E+04</pdfrwt>
<pdfrwt beam="2">  1       -1 0.11588889E+00 0.11111366E+04</pdfrwt>
<totfact> 0.59236034E+01</totfact>
</mgrwt>
</event>
<event>
12    6  0.1529770E-007  0.1784416E+04  0.7818608E-02  0.8714631E-01
          2   -1    0    0  501    0  0.00000000000E+00  0.00000000000E+00  0.45110527994E+03  0.45110527994E+03  0.00000000000E+00 0. -1.
         -1   -1    0    0    0  501 -0.00000000000E+00 -0.00000000000E+00 -0.17646318829E+04  0.17646318829E+04  0.00000000000E+00 0.  1.
         24    2    1    2    0    0 -0.58634266465E+03 -0.27706559256E+03 -0.49480323242E+03  0.81981981913E+03  0.81922121899E+02 0.  0.
        254    2    1    2    0    0  0.58634266465E+03  0.27706559256E+03 -0.81872337050E+03  0.13959173437E+04  0.92612861416E+03 0.  0.
         23    2    4    4    0    0  0.81208827739E+03  0.99384145042E+02 -0.52846649685E+03  0.97814779404E+03  0.90175884455E+02 0.  0.
         23    2    4    4    0    0 -0.22574561274E+03  0.17768144752E+03 -0.29025687365E+03  0.41776954962E+03  0.88037295686E+02 0.  0.
          4    1    3    3  502    0 -0.47110295873E+03 -0.24950118881E+03 -0.37857434557E+03  0.65384048212E+03  0.00000000000E+00 0. -1.
         -3    1    3    3    0  502 -0.11523970592E+03 -0.27564403752E+02 -0.11622888685E+03  0.16597933700E+03  0.00000000000E+00 0.  1.
         11    1    5    5    0    0  0.20049388814E+03  0.63972615175E+02 -0.13147151553E+03  0.24814321282E+03  0.00000000000E+00 0.  1.
        -11    1    5    5    0    0  0.61159438925E+03  0.35411529867E+02 -0.39699498132E+03  0.73000458122E+03  0.00000000000E+00 0. -1.
          3    1    6    6  503    0 -0.18503395101E+03  0.17182030693E+03 -0.27637991850E+03  0.37436030805E+03  0.00000000000E+00 0. -1.
         -3    1    6    6    0  503 -0.40711661723E+02  0.58611405920E+01 -0.13876955152E+02  0.43409241569E+02  0.00000000000E+00 0.  1.
<mgrwt>
<rscale>  0 0.17844156E+04</rscale>
<asrwt>0</asrwt>
<pdfrwt beam="1">  1        2 0.69400813E-01 0.17844156E+04</pdfrwt>
<pdfrwt beam="2">  1       -1 0.27148183E+00 0.17844156E+04</pdfrwt>
<totfact> 0.37889911E+00</totfact>
</mgrwt>
</event>
<event>
12    6  0.1529770E-007  0.1503833E+04  0.7818608E-02  0.8881908E-01
          2   -1    0    0  501    0  0.00000000000E+00  0.00000000000E+00  0.21927638999E+04  0.21927638999E+04  0.00000000000E+00 0. -1.
         -1   -1    0    0    0  501 -0.00000000000E+00 -0.00000000000E+00 -0.25783836188E+03  0.25783836188E+03  0.00000000000E+00 0.  1.
         24    2    1    2    0    0 -0.16061858022E+03 -0.43847829816E+03  0.54367159899E+03  0.72083502722E+03  0.77219056257E+02 0.  0.
        254    2    1    2    0    0  0.16061858022E+03  0.43847829816E+03  0.13912539390E+04  0.17297672345E+04  0.91566676067E+03 0.  0.
         23    2    4    4    0    0 -0.32864864639E+03  0.24821289439E+03  0.94608668082E+03  0.10355155253E+04  0.87136799066E+02 0.  0.
         23    2    4    4    0    0  0.48926722661E+03  0.19026540377E+03  0.44516725818E+03  0.69425170925E+03  0.90709454505E+02 0.  0.
          2    1    3    3  502    0 -0.96782346665E+01 -0.41200089197E+02  0.21169649947E+02  0.47320921958E+02  0.00000000000E+00 0. -1.
         -1    1    3    3    0  502 -0.15094034555E+03 -0.39727820897E+03  0.52250194904E+03  0.67351410526E+03  0.00000000000E+00 0.  1.
         11    1    5    5    0    0 -0.24791347185E+03  0.14457551657E+03  0.70024804591E+03  0.75677638396E+03  0.00000000000E+00 0. -1.
        -11    1    5    5    0    0 -0.80735174535E+02  0.10363737782E+03  0.24583863491E+03  0.27873914132E+03  0.00000000000E+00 0.  1.
          1    1    6    6  503    0  0.18718367234E+03  0.11502250407E+03  0.15692043001E+03  0.26998504586E+03  0.00000000000E+00 0. -1.
         -1    1    6    6    0  503  0.30208355427E+03  0.75242899702E+02  0.28824682817E+03  0.42426666340E+03  0.00000000000E+00 0.  1.
<mgrwt>
<rscale>  0 0.15038333E+04</rscale>
<asrwt>0</asrwt>
<pdfrwt beam="1">  1        2 0.33734828E+00 0.15038333E+04</pdfrwt>
<pdfrwt beam="2">  1       -1 0.39667442E-01 0.15038333E+04</pdfrwt>
<totfact> 0.35503910E+01</totfact>
</mgrwt>
</event>
<event>
12    6  0.1529770E-007  0.1963705E+04  0.7818608E-02  0.8623780E-01
         -1   -1    0    0    0  501 -0.00000000000E+00  0.00000000000E+00  0.38006683773E+03  0.38006683773E+03  0.00000000000E+00 0.  1.
          2   -1    0    0  501    0  0.00000000000E+00 -0.00000000000E+00 -0.25364858636E+04  0.25364858636E+04  0.00000000000E+00 0. -1.
         24    2    1    2    0    0  0.44988566078E+03 -0.61266196527E+03 -0.73544078811E+03  0.10606758328E+04  0.80051720852E+02 0.  0.
        254    2    1    2    0    0 -0.44988566078E+03  0.61266196527E+03 -0.14209782377E+04  0.18558768685E+04  0.92051507724E+03 0.  0.
         23    2    4    4    0    0 -0.14795987361E+03 -0.15051218940E+03 -0.77229926386E+03  0.80574001621E+03  0.90690558573E+02 0.  0.
         23    2    4    4    0    0 -0.30192578717E+03  0.76317415467E+03 -0.64867897386E+03  0.10501368523E+04  0.91700741788E+02 0.  0.
          2    1    3    3  502    0  0.39658231263E+03 -0.49448183700E+03 -0.62817594138E+03  0.89240956469E+03  0.00000000000E+00 0. -1.
         -1    1    3    3    0  502  0.53303348148E+02 -0.11818012827E+03 -0.10726484673E+03  0.16826626812E+03  0.00000000000E+00 0.  1.
         11    1    5    5    0    0 -0.16389371571E+02  0.12114483705E+02 -0.77380891467E+02  0.80019838666E+02  0.00000000000E+00 0. -1.
        -11    1    5    5    0    0 -0.13157050204E+03 -0.16262667310E+03 -0.69491837239E+03  0.72572017755E+03  0.00000000000E+00 0.  1.
          2    1    6    6  503    0 -0.65768179570E+02  0.21085774885E+03 -0.22330692107E+03  0.31408983538E+03  0.00000000000E+00 0. -1.
         -2    1    6    6    0  503 -0.23615760760E+03  0.55231640582E+03 -0.42537205279E+03  0.73604701688E+03  0.00000000000E+00 0.  1.
<mgrwt>
<rscale>  0 0.19637048E+04</rscale>
<asrwt>0</asrwt>
<pdfrwt beam="1">  1        2 0.39022858E+00 0.19637048E+04</pdfrwt>
<pdfrwt beam="2">  1       -1 0.58471824E-01 0.19637048E+04</pdfrwt>
<totfact> 0.10430217E+01</totfact>
</mgrwt>
</event>
<event>
12    6  0.1529770E-007  0.1383095E+04  0.7818608E-02  0.8966147E-01
         -3   -1    0    0    0  501 -0.00000000000E+00  0.00000000000E+00  0.34753502277E+03  0.34753502277E+03  0.00000000000E+00 0.  1.
          2   -1    0    0  501    0  0.00000000000E+00 -0.00000000000E+00 -0.13760863563E+04  0.13760863563E+04  0.00000000000E+00 0. -1.
         24    2    1    2    0    0 -0.38646987568E+03  0.34974278593E+01 -0.25152509519E+03  0.46811159505E+03  0.80575400081E+02 0.  0.
        254    2    1    2    0    0  0.38646987568E+03 -0.34974278593E+01 -0.77702623838E+03  0.12555097841E+04  0.90728377366E+03 0.  0.
         23    2    4    4    0    0  0.60259261170E+03 -0.13718380827E+03 -0.76094510361E+03  0.98452894191E+03  0.91227922323E+02 0.  0.
         23    2    4    4    0    0 -0.21612273602E+03  0.13368638041E+03 -0.16081134775E+02  0.27098084216E+03  0.92687262275E+02 0.  0.
          2    1    3    3  502    0 -0.77301215840E+02 -0.22620056523E+02 -0.80291444182E+02  0.11372713369E+03  0.00000000000E+00 0. -1.
         -1    1    3    3    0  502 -0.30916865984E+03  0.26117484383E+02 -0.17123365101E+03  0.35438446136E+03  0.00000000000E+00 0.  1.
         11    1    5    5    0    0  0.54866764654E+03 -0.14547080632E+03 -0.71691277922E+03  0.91441887276E+03  0.00000000000E+00 0. -1.
        -11    1    5    5    0    0  0.53924965168E+02  0.82869980455E+01 -0.44032324393E+02  0.70110069151E+02  0.00000000000E+00 0.  1.
          1    1    6    6  503    0 -0.22376976694E+03  0.11997197912E+03 -0.98667641182E+01  0.25409356034E+03  0.00000000000E+00 0. -1.
         -1    1    6    6    0  503  0.76470309187E+01  0.13714401291E+02 -0.62143706568E+01  0.16887281821E+02  0.00000000000E+00 0.  1.
<mgrwt>
<rscale>  0 0.13830954E+04</rscale>
<asrwt>0</asrwt>
<pdfrwt beam="1">  1        2 0.21170559E+00 0.13830954E+04</pdfrwt>
<pdfrwt beam="2">  1       -3 0.53466927E-01 0.13830954E+04</pdfrwt>
<totfact> 0.32156178E+01</totfact>
</mgrwt>
</event>
<event>
12    6  0.1529770E-007  0.1768191E+04  0.7818608E-02  0.8723400E-01
          2   -1    0    0  501    0  0.00000000000E+00  0.00000000000E+00  0.28075742596E+04  0.28075742596E+04  0.00000000000E+00 0. -1.
         -1   -1    0    0    0  501 -0.00000000000E+00 -0.00000000000E+00 -0.27839867763E+03  0.27839867763E+03  0.00000000000E+00 0.  1.
         24    2    1    2    0    0  0.19765372310E+03 -0.42623525374E+03  0.15491892279E+03  0.50140294001E+03  0.81618317957E+02 0.  0.
        254    2    1    2    0    0 -0.19765372310E+03  0.42623525374E+03  0.23742566592E+04  0.25845699973E+04  0.90673254112E+03 0.  0.
         23    2    4    4    0    0 -0.52836898363E+03  0.26271683417E+03  0.10602104463E+04  0.12166138777E+04  0.88933790827E+02 0.  0.
         23    2    4    4    0    0  0.33071526054E+03  0.16351841958E+03  0.13140462129E+04  0.13679561196E+04  0.92063229737E+02 0.  0.
          4    1    3    3  502    0  0.42286766549E+02 -0.31714712027E+02  0.16888195238E+02  0.55490582287E+02  0.00000000000E+00 0. -1.
         -3    1    3    3    0  502  0.15536695655E+03 -0.39452054172E+03  0.13803072755E+03  0.44591235772E+03  0.00000000000E+00 0.  1.
         11    1    5    5    0    0 -0.22662820071E+03  0.14010302263E+03  0.55291044595E+03  0.61375822565E+03  0.00000000000E+00 0. -1.
        -11    1    5    5    0    0 -0.30174078293E+03  0.12261381153E+03  0.50730000033E+03  0.60285565204E+03  0.00000000000E+00 0.  1.
          2    1    6    6  503    0  0.20965973193E+03  0.54929918516E+02  0.79653261847E+03  0.82549301113E+03  0.00000000000E+00 0. -1.
         -2    1    6    6    0  503  0.12105552861E+03  0.10858850106E+03  0.51751359447E+03  0.54246310845E+03  0.00000000000E+00 0.  1.
<mgrwt>
<rscale>  0 0.17681911E+04</rscale>
<asrwt>0</asrwt>
<pdfrwt beam="1">  1        2 0.43193448E+00 0.17681911E+04</pdfrwt>
<pdfrwt beam="2">  1       -1 0.42830568E-01 0.17681911E+04</pdfrwt>
<totfact> 0.13277332E+01</totfact>
</mgrwt>
</event>
<event>
12    6  0.1529770E-007  0.2200847E+04  0.7818608E-02  0.8518076E-01
         -1   -1    0    0    0  501 -0.00000000000E+00  0.00000000000E+00  0.11596417425E+04  0.11596417425E+04  0.00000000000E+00 0.  1.
          2   -1    0    0  501    0  0.00000000000E+00 -0.00000000000E+00 -0.10442288903E+04  0.10442288903E+04  0.00000000000E+00 0. -1.
         24    2    1    2    0    0 -0.53619446765E+03 -0.26282227586E+03  0.74993920897E+03  0.96195469278E+03  0.79799486214E+02 0.  0.
        254    2    1    2    0    0  0.53619446765E+03  0.26282227586E+03 -0.63452635682E+03  0.12419159400E+04  0.88495844465E+03 0.  0.
         23    2    4    4    0    0  0.28196045798E+03 -0.25646374817E+03 -0.18884890686E+02  0.39242578128E+03  0.91465844585E+02 0.  0.
         23    2    4    4    0    0  0.25423400967E+03  0.51928602403E+03 -0.61564146614E+03  0.84949015874E+03  0.91248060525E+02 0.  0.
          4    1    3    3  502    0 -0.28200186833E+02 -0.28793589261E+00  0.56564483013E+02  0.63205017072E+02  0.00000000000E+00 0. -1.
         -3    1    3    3    0  502 -0.50799428082E+03 -0.26253433996E+03  0.69337472595E+03  0.89874967571E+03  0.00000000000E+00 0.  1.
         11    1    5    5    0    0  0.28525341428E+03 -0.25707259052E+03 -0.11335559778E+02  0.38416704970E+03  0.00000000000E+00 0.  1.
        -11    1    5    5    0    0 -0.32929563024E+01  0.60884234838E+00 -0.75493309075E+01  0.82587315833E+01  0.00000000000E+00 0. -1.
          3    1    6    6  503    0  0.55267884505E+02  0.12789107000E+03 -0.20811601391E+03  0.25044548327E+03  0.00000000000E+00 0. -1.
         -3    1    6    6    0  503  0.19896612517E+03  0.39139495403E+03 -0.40752545223E+03  0.59904467548E+03  0.00000000000E+00 0.  1.
<mgrwt>
<rscale>  0 0.22008466E+04</rscale>
<asrwt>0</asrwt>
<pdfrwt beam="1">  1        2 0.16065060E+00 0.22008466E+04</pdfrwt>
<pdfrwt beam="2">  1       -1 0.17840642E+00 0.22008466E+04</pdfrwt>
<totfact> 0.52573319E+00</totfact>
</mgrwt>
</event>
<event>
12    6  0.1529770E-007  0.2678525E+04  0.7818608E-02  0.8342006E-01
          2   -1    0    0  501    0  0.00000000000E+00  0.00000000000E+00  0.12060207043E+04  0.12060207043E+04  0.00000000000E+00 0. -1.
         -1   -1    0    0    0  501 -0.00000000000E+00 -0.00000000000E+00 -0.14872254719E+04  0.14872254719E+04  0.00000000000E+00 0.  1.
         24    2    1    2    0    0 -0.96029721679E+03 -0.69686985311E+03 -0.14684164309E+03  0.11985940073E+04  0.85245465265E+02 0.  0.
        254    2    1    2    0    0  0.96029721679E+03  0.69686985311E+03 -0.13436312450E+03  0.14946521690E+04  0.89896235753E+03 0.  0.
         23    2    4    4    0    0  0.10256462973E+04  0.82313870492E+03 -0.13870143629E+03  0.13253513445E+04  0.88376711253E+02 0.  0.
         23    2    4    4    0    0 -0.65349080517E+02 -0.12626885181E+03  0.43383117898E+01  0.16930082452E+03  0.91812978243E+02 0.  0.
          4    1    3    3  502    0 -0.15140378212E+03 -0.13171071573E+03  0.18527890480E+01  0.20068445557E+03  0.00000000000E+00 0. -1.
         -3    1    3    3    0  502 -0.80889343467E+03 -0.56515913738E+03 -0.14869443214E+03  0.99790955170E+03  0.00000000000E+00 0.  1.
         11    1    5    5    0    0  0.66345864672E+03  0.48046748261E+03 -0.10015598814E+03  0.82526214000E+03  0.00000000000E+00 0. -1.
        -11    1    5    5    0    0  0.36218765059E+03  0.34267122231E+03 -0.38545448149E+02  0.50008920446E+03  0.00000000000E+00 0.  1.
          3    1    6    6  503    0 -0.84563670540E+02 -0.10632300299E+03  0.20261833397E+02  0.13735405794E+03  0.00000000000E+00 0. -1.
         -3    1    6    6    0  503  0.19214590023E+02 -0.19945848824E+02 -0.15923521607E+02  0.31946766588E+02  0.00000000000E+00 0.  1.
<mgrwt>
<rscale>  0 0.26785255E+04</rscale>
<asrwt>0</asrwt>
<pdfrwt beam="1">  1        2 0.18554165E+00 0.26785255E+04</pdfrwt>
<pdfrwt beam="2">  1       -1 0.22880392E+00 0.26785255E+04</pdfrwt>
<totfact> 0.18084078E+00</totfact>
</mgrwt>
</event>
<event>
12    6  0.1529770E-007  0.3118386E+04  0.7818608E-02  0.8210710E-01
          2   -1    0    0  501    0  0.00000000000E+00  0.00000000000E+00  0.26567999327E+04  0.26567999327E+04  0.00000000000E+00 0. -1.
         -1   -1    0    0    0  501 -0.00000000000E+00 -0.00000000000E+00 -0.91504148906E+03  0.91504148906E+03  0.00000000000E+00 0.  1.
         24    2    1    2    0    0  0.22804971113E+03  0.10953982914E+04 -0.23594480911E+03  0.11463199894E+04  0.80470351234E+02 0.  0.
        254    2    1    2    0    0 -0.22804971113E+03 -0.10953982914E+04  0.19777032528E+04  0.24255214324E+04  0.84849276689E+03 0.  0.
         23    2    4    4    0    0  0.43492508972E+02  0.28511538339E+02 -0.28351423902E+02  0.10839792453E+03  0.90784363463E+02 0.  0.
         23    2    4    4    0    0 -0.27154222010E+03 -0.11239098298E+04  0.20060546767E+04  0.23171235079E+04  0.88867892085E+02 0.  0.
          2    1    3    3  502    0  0.10971132500E+03  0.40073611524E+03 -0.57829308041E+02  0.41948806629E+03  0.00000000000E+00 0. -1.
         -1    1    3    3    0  502  0.11833838613E+03  0.69466217619E+03 -0.17811550107E+03  0.72683192307E+03  0.00000000000E+00 0.  1.
         11    1    5    5    0    0  0.22962518312E+02 -0.99011018683E+01  0.27762684966E+02  0.37364096964E+02  0.00000000000E+00 0. -1.
        -11    1    5    5    0    0  0.20529990660E+02  0.38412640208E+02 -0.56114108868E+02  0.71033827563E+02  0.00000000000E+00 0.  1.
          1    1    6    6  503    0 -0.54302177486E+02 -0.31596497204E+03  0.49062865957E+03  0.58608793847E+03  0.00000000000E+00 0. -1.
         -1    1    6    6    0  503 -0.21724004262E+03 -0.80794485774E+03  0.15154260171E+04  0.17310355694E+04  0.00000000000E+00 0.  1.
<mgrwt>
<rscale>  0 0.31183856E+04</rscale>
<asrwt>0</asrwt>
<pdfrwt beam="1">  1        2 0.40873845E+00 0.31183856E+04</pdfrwt>
<pdfrwt beam="2">  1       -1 0.14077561E+00 0.31183856E+04</pdfrwt>
<totfact> 0.11207711E+00</totfact>
</mgrwt>
</event>
<event>
12    6  0.1529770E-007  0.1456720E+04  0.7818608E-02  0.8913755E-01
         -1   -1    0    0    0  501 -0.00000000000E+00  0.00000000000E+00  0.44569323343E+03  0.44569323343E+03  0.00000000000E+00 0.  1.
          2   -1    0    0  501    0  0.00000000000E+00 -0.00000000000E+00 -0.11902989191E+04  0.11902989191E+04  0.00000000000E+00 0. -1.
         24    2    1    2    0    0 -0.33638072800E+03 -0.29049817135E+03 -0.31638596635E+03  0.55086817242E+03  0.76252750440E+02 0.  0.
        254    2    1    2    0    0  0.33638072800E+03  0.29049817135E+03 -0.42821971928E+03  0.10851239801E+04  0.89251372113E+03 0.  0.
         23    2    4    4    0    0  0.77800966968E+02  0.24134169344E+03  0.24019074916E+03  0.36094789240E+03  0.91065809109E+02 0.  0.
         23    2    4    4    0    0  0.25857976104E+03  0.49156477910E+02 -0.66841046844E+03  0.72417608767E+03  0.91534690055E+02 0.  0.
          4    1    3    3  502    0 -0.17131516331E+03 -0.15921153813E+03 -0.21147177483E+03  0.31530542431E+03  0.00000000000E+00 0. -1.
         -3    1    3    3    0  502 -0.16506556470E+03 -0.13128663323E+03 -0.10491419152E+03  0.23556274811E+03  0.00000000000E+00 0.  1.
         11    1    5    5    0    0 -0.17963361696E+02  0.39689298657E+02  0.22054829741E+02  0.48829686731E+02  0.00000000000E+00 0.  1.
        -11    1    5    5    0    0  0.95764328664E+02  0.20165239479E+03  0.21813591942E+03  0.31211820567E+03  0.00000000000E+00 0. -1.
          1    1    6    6  503    0  0.13727768422E+03  0.13572136090E+02 -0.46177483475E+03  0.48193916988E+03  0.00000000000E+00 0. -1.
         -1    1    6    6    0  503  0.12130207682E+03  0.35584341819E+02 -0.20663563370E+03  0.24223691778E+03  0.00000000000E+00 0.  1.
<mgrwt>
<rscale>  0 0.14567198E+04</rscale>
<asrwt>0</asrwt>
<pdfrwt beam="1">  1        2 0.18312291E+00 0.14567198E+04</pdfrwt>
<pdfrwt beam="2">  1       -1 0.68568191E-01 0.14567198E+04</pdfrwt>
<totfact> 0.45674392E+01</totfact>
</mgrwt>
</event>
<event>
12    6  0.1529770E-007  0.1439450E+04  0.7818608E-02  0.8925747E-01
         -3   -1    0    0    0  501 -0.00000000000E+00  0.00000000000E+00  0.52481796677E+03  0.52481796677E+03  0.00000000000E+00 0.  1.
          2   -1    0    0  501    0  0.00000000000E+00 -0.00000000000E+00 -0.98701714101E+03  0.98701714101E+03  0.00000000000E+00 0. -1.
         24    2    1    2    0    0 -0.35612280331E+03  0.24561340085E+03 -0.94782921317E+02  0.45034721712E+03  0.81727719193E+02 0.  0.
        254    2    1    2    0    0  0.35612280331E+03 -0.24561340085E+03 -0.36741625293E+03  0.10614878907E+04  0.89700192050E+03 0.  0.
         23    2    4    4    0    0  0.49931008323E+03 -0.14142768050E+03  0.11507187405E+03  0.53875565147E+03  0.87771110118E+02 0.  0.
         23    2    4    4    0    0 -0.14318727992E+03 -0.10418572035E+03 -0.48248812697E+03  0.52273223918E+03  0.95377878768E+02 0.  0.
          4    1    3    3  502    0 -0.11641025827E+03  0.62227772347E+02  0.60410202810E+01  0.13213681473E+03  0.00000000000E+00 0. -1.
         -1    1    3    3    0  502 -0.23971254504E+03  0.18338562851E+03 -0.10082394160E+03  0.31821040239E+03  0.00000000000E+00 0.  1.
         11    1    5    5    0    0  0.14346540751E+03 -0.23602473489E+01  0.18390173361E+02  0.14465853723E+03  0.00000000000E+00 0.  1.
        -11    1    5    5    0    0  0.35584467572E+03 -0.13906743315E+03  0.96681700684E+02  0.39409711424E+03  0.00000000000E+00 0. -1.
          2    1    6    6  503    0 -0.50341906513E+02 -0.93987253043E+02 -0.22967090383E+03  0.25321262873E+03  0.00000000000E+00 0.  1.
         -2    1    6    6    0  503 -0.92845373406E+02 -0.10198467308E+02 -0.25281722315E+03  0.26951961045E+03  0.00000000000E+00 0. -1.
<mgrwt>
<rscale>  0 0.14394504E+04</rscale>
<asrwt>0</asrwt>
<pdfrwt beam="1">  1        2 0.15184879E+00 0.14394504E+04</pdfrwt>
<pdfrwt beam="2">  1       -3 0.80741226E-01 0.14394504E+04</pdfrwt>
<totfact> 0.22544070E+01</totfact>
</mgrwt>
</event>
<event>
12    6  0.1529770E-007  0.2587464E+04  0.7818608E-02  0.8372472E-01
          2   -1    0    0  501    0  0.00000000000E+00  0.00000000000E+00  0.20814359668E+04  0.20814359668E+04  0.00000000000E+00 0. -1.
         -1   -1    0    0    0  501 -0.00000000000E+00 -0.00000000000E+00 -0.80412869029E+03  0.80412869029E+03  0.00000000000E+00 0.  1.
         24    2    1    2    0    0 -0.20630478960E+03 -0.10238035970E+04  0.80477649614E+02  0.10498771296E+04  0.70921532646E+02 0.  0.
        254    2    1    2    0    0  0.20630478960E+03  0.10238035970E+04  0.11968296269E+04  0.18356875275E+04  0.92011524889E+03 0.  0.
         23    2    4    4    0    0  0.33275093178E+03  0.90480742399E+03  0.45814952068E+03  0.10712755280E+04  0.91272211120E+02 0.  0.
         23    2    4    4    0    0 -0.12644614218E+03  0.11899617302E+03  0.73868010627E+03  0.76441199949E+03  0.92350904150E+02 0.  0.
          2    1    3    3  502    0 -0.91148494519E+01 -0.54804868816E+02  0.20435506406E+02  0.59196824649E+02  0.00000000000E+00 0. -1.
         -1    1    3    3    0  502 -0.19718994015E+03 -0.96899872819E+03  0.60042143208E+02  0.99068030499E+03  0.00000000000E+00 0.  1.
         11    1    5    5    0    0  0.24200914729E+03  0.64143559304E+03  0.37030214035E+03  0.77918657749E+03  0.00000000000E+00 0.  1.
        -11    1    5    5    0    0  0.90741784490E+02  0.26337183095E+03  0.87847380326E+02  0.29208895052E+03  0.00000000000E+00 0. -1.
          4    1    6    6  503    0 -0.57340063671E+02  0.10899722543E+03  0.39678853913E+03  0.41546290188E+03  0.00000000000E+00 0. -1.
         -4    1    6    6    0  503 -0.69106078512E+02  0.99989475842E+01  0.34189156714E+03  0.34894909761E+03  0.00000000000E+00 0.  1.
<mgrwt>
<rscale>  0 0.25874639E+04</rscale>
<asrwt>0</asrwt>
<pdfrwt beam="1">  1        2 0.32022092E+00 0.25874639E+04</pdfrwt>
<pdfrwt beam="2">  1       -1 0.12371211E+00 0.25874639E+04</pdfrwt>
<totfact> 0.34808922E+00</totfact>
</mgrwt>
</event>
<event>
12    6  0.1529770E-007  0.1312090E+04  0.7818608E-02  0.9020033E-01
         -1   -1    0    0    0  501 -0.00000000000E+00  0.00000000000E+00  0.98168414366E+03  0.98168414366E+03  0.00000000000E+00 0.  1.
          2   -1    0    0  501    0  0.00000000000E+00 -0.00000000000E+00 -0.43842489802E+03  0.43842489802E+03  0.00000000000E+00 0. -1.
         24    2    1    2    0    0 -0.22260974148E+03 -0.25220107884E+03  0.12977697772E+02  0.34665555483E+03  0.82711376981E+02 0.  0.
        254    2    1    2    0    0  0.22260974148E+03  0.25220107884E+03  0.53028154787E+03  0.10734534869E+04  0.87059944135E+03 0.  0.
         23    2    4    4    0    0  0.28758809357E+03 -0.72949573423E+02  0.64067938839E+03  0.71229108904E+03  0.94127387075E+02 0.  0.
         23    2    4    4    0    0 -0.64978352087E+02  0.32515065226E+03 -0.11039784052E+03  0.36116239782E+03  0.91134304742E+02 0.  0.
          2    1    3    3  502    0 -0.12364217443E+03 -0.19598531239E+03 -0.28245723038E+01  0.23174470474E+03  0.00000000000E+00 0. -1.
         -1    1    3    3    0  502 -0.98967567058E+02 -0.56215766449E+02  0.15802270076E+02  0.11491085008E+03  0.00000000000E+00 0.  1.
         11    1    5    5    0    0  0.28042324335E+03 -0.86584508357E+02  0.58458687415E+03  0.65412222553E+03  0.00000000000E+00 0.  1.
        -11    1    5    5    0    0  0.71648502240E+01  0.13634934935E+02  0.56092514240E+02  0.58168863519E+02  0.00000000000E+00 0. -1.
          1    1    6    6  503    0  0.76276966024E+01  0.19202583606E+03 -0.58318840354E+02  0.20083124909E+03  0.00000000000E+00 0. -1.
         -1    1    6    6    0  503 -0.72606048690E+02  0.13312481620E+03 -0.52079000169E+02  0.16033114873E+03  0.00000000000E+00 0.  1.
<mgrwt>
<rscale>  0 0.13120896E+04</rscale>
<asrwt>0</asrwt>
<pdfrwt beam="1">  1        2 0.67449984E-01 0.13120896E+04</pdfrwt>
<pdfrwt beam="2">  1       -1 0.15102833E+00 0.13120896E+04</pdfrwt>
<totfact> 0.27499016E+01</totfact>
</mgrwt>
</event>
<event>
12    6  0.1529770E-007  0.1271723E+04  0.7818608E-02  0.9052295E-01
         -1   -1    0    0    0  501 -0.00000000000E+00  0.00000000000E+00  0.13301048677E+03  0.13301048677E+03  0.00000000000E+00 0.  1.
          2   -1    0    0  501    0  0.00000000000E+00 -0.00000000000E+00 -0.30397587124E+04  0.30397587124E+04  0.00000000000E+00 0. -1.
         24    2    1    2    0    0  0.29484567091E+03 -0.15878357831E+02 -0.91577268689E+03  0.96552807181E+03  0.80117111114E+02 0.  0.
        254    2    1    2    0    0 -0.29484567091E+03  0.15878357831E+02 -0.19909755387E+04  0.22072411274E+04  0.90594906402E+03 0.  0.
         23    2    4    4    0    0 -0.22648529178E+03 -0.61686305377E+02 -0.20441969774E+04  0.20595866224E+04  0.89749568426E+02 0.  0.
         23    2    4    4    0    0 -0.68360379131E+02  0.77564663208E+02  0.53221438687E+02  0.14765450496E+03  0.90994026646E+02 0.  0.
          4    1    3    3  502    0  0.18980085446E+03 -0.13974062776E+02 -0.46023641412E+03  0.49803332787E+03  0.00000000000E+00 0. -1.
         -3    1    3    3    0  502  0.10504481645E+03 -0.19042950547E+01 -0.45553627277E+03  0.46749474394E+03  0.00000000000E+00 0.  1.
         11    1    5    5    0    0 -0.22613946312E+03 -0.49076380959E+02 -0.17649775777E+04  0.17800824132E+04  0.00000000000E+00 0. -1.
        -11    1    5    5    0    0 -0.34582865612E+00 -0.12609924418E+02 -0.27921939970E+03  0.27950420920E+03  0.00000000000E+00 0.  1.
          1    1    6    6  503    0 -0.52924108428E+02  0.69410801040E+02  0.78191687945E+02  0.11718686197E+03  0.00000000000E+00 0. -1.
         -1    1    6    6    0  503 -0.15436270703E+02  0.81538621682E+01 -0.24970249258E+02  0.30467642992E+02  0.00000000000E+00 0.  1.
<mgrwt>
<rscale>  0 0.12717229E+04</rscale>
<asrwt>0</asrwt>
<pdfrwt beam="1">  1        2 0.46765517E+00 0.12717229E+04</pdfrwt>
<pdfrwt beam="2">  1       -1 0.20463152E-01 0.12717229E+04</pdfrwt>
<totfact> 0.36653916E+01</totfact>
</mgrwt>
</event>
<event>
12    6  0.1529770E-007  0.1867989E+04  0.7818608E-02  0.8670956E-01
          2   -1    0    0  501    0  0.00000000000E+00  0.00000000000E+00  0.21787384262E+04  0.21787384262E+04  0.00000000000E+00 0. -1.
         -1   -1    0    0    0  501 -0.00000000000E+00 -0.00000000000E+00 -0.40039028657E+03  0.40039028657E+03  0.00000000000E+00 0.  1.
         24    2    1    2    0    0 -0.43062979276E+03  0.11650375993E+03 -0.85091497362E+02  0.46108072975E+03  0.79622433630E+02 0.  0.
        254    2    1    2    0    0  0.43062979276E+03 -0.11650375993E+03  0.18634396370E+04  0.21180479830E+04  0.90261001166E+03 0.  0.
         23    2    4    4    0    0 -0.16856310228E+03  0.11708580862E+03  0.11377223442E+03  0.25181628698E+03  0.91349411804E+02 0.  0.
         23    2    4    4    0    0  0.59919289503E+03 -0.23358956854E+03  0.17496674026E+04  0.18662316960E+04  0.88817293627E+02 0.  0.
          2    1    3    3  502    0 -0.97044648753E+02  0.58094661657E-01  0.24375304540E+01  0.97075273789E+02  0.00000000000E+00 0. -1.
         -1    1    3    3    0  502 -0.33358514400E+03  0.11644566526E+03 -0.87529027816E+02  0.36400545596E+03  0.00000000000E+00 0.  1.
         11    1    5    5    0    0 -0.15361973333E+03  0.12079379911E+03  0.73649121816E+02  0.20884050736E+03  0.00000000000E+00 0.  1.
        -11    1    5    5    0    0 -0.14943368948E+02 -0.37079904963E+01  0.40123112599E+02  0.42975779617E+02  0.00000000000E+00 0. -1.
          2    1    6    6  503    0  0.15668996686E+03 -0.63844529324E+02  0.35555344896E+03  0.39375896778E+03  0.00000000000E+00 0. -1.
         -2    1    6    6    0  503  0.44250292817E+03 -0.16974503922E+03  0.13941139536E+04  0.14724727282E+04  0.00000000000E+00 0.  1.
<mgrwt>
<rscale>  0 0.18679890E+04</rscale>
<asrwt>0</asrwt>
<pdfrwt beam="1">  1        2 0.33519052E+00 0.18679890E+04</pdfrwt>
<pdfrwt beam="2">  1       -1 0.61598507E-01 0.18679890E+04</pdfrwt>
<totfact> 0.15171907E+01</totfact>
</mgrwt>
</event>
<event>
12    6  0.1529770E-007  0.2644836E+04  0.7818608E-02  0.8353129E-01
         -1   -1    0    0    0  501 -0.00000000000E+00  0.00000000000E+00  0.58351481343E+03  0.58351481343E+03  0.00000000000E+00 0.  1.
          2   -1    0    0  501    0  0.00000000000E+00 -0.00000000000E+00 -0.29969927973E+04  0.29969927973E+04  0.00000000000E+00 0. -1.
         24    2    1    2    0    0 -0.82479994203E+03 -0.79368807645E+03 -0.76717410417E+03  0.13802703758E+04  0.79715099269E+02 0.  0.
        254    2    1    2    0    0  0.82479994203E+03  0.79368807645E+03 -0.16463038797E+04  0.22002372350E+04  0.90580997938E+03 0.  0.
         23    2    4    4    0    0  0.40450138148E+03  0.14433543612E+01 -0.12705752985E+03  0.43363326337E+03  0.90943610637E+02 0.  0.
         23    2    4    4    0    0  0.42029856055E+03  0.79224472208E+03 -0.15192463499E+04  0.17666039716E+04  0.92073564346E+02 0.  0.
          4    1    3    3  502    0 -0.65001719550E+03 -0.63263232047E+03 -0.56838922296E+03  0.10704262311E+04  0.00000000000E+00 0. -1.
         -3    1    3    3    0  502 -0.17478274653E+03 -0.16105575598E+03 -0.19878488120E+03  0.30984414471E+03  0.00000000000E+00 0.  1.
         11    1    5    5    0    0  0.39889130742E+03 -0.11459480025E+02 -0.11552609709E+03  0.41544178163E+03  0.00000000000E+00 0.  1.
        -11    1    5    5    0    0  0.56100740624E+01  0.12902834386E+02 -0.11531432766E+02  0.18191481738E+02  0.00000000000E+00 0. -1.
          1    1    6    6  503    0  0.27046413348E+03  0.58307692289E+03 -0.11298287308E+04  0.12998624952E+04  0.00000000000E+00 0.  1.
         -1    1    6    6    0  503  0.14983442707E+03  0.20916779920E+03 -0.38941761911E+03  0.46674147644E+03  0.00000000000E+00 0. -1.
<mgrwt>
<rscale>  0 0.26448362E+04</rscale>
<asrwt>0</asrwt>
<pdfrwt beam="1">  1        2 0.46107581E+00 0.26448362E+04</pdfrwt>
<pdfrwt beam="2">  1       -1 0.89771510E-01 0.26448362E+04</pdfrwt>
<totfact> 0.21279874E+00</totfact>
</mgrwt>
</event>
<event>
12    6  0.1529770E-007  0.1449054E+04  0.7818608E-02  0.8919057E-01
          2   -1    0    0  501    0  0.00000000000E+00  0.00000000000E+00  0.64621103916E+03  0.64621103916E+03  0.00000000000E+00 0. -1.
         -1   -1    0    0    0  501 -0.00000000000E+00 -0.00000000000E+00 -0.81233379700E+03  0.81233379700E+03  0.00000000000E+00 0.  1.
         24    2    1    2    0    0 -0.27118387137E+03 -0.16233192587E+03 -0.35945155536E+03  0.48539434676E+03  0.80683982071E+02 0.  0.
        254    2    1    2    0    0  0.27118387137E+03  0.16233192587E+03  0.19332879752E+03  0.97315048940E+03  0.89986304781E+03 0.  0.
         23    2    4    4    0    0  0.43486280650E+03 -0.17365032575E+03  0.31085182133E+03  0.56880289257E+03  0.87451584698E+02 0.  0.
         23    2    4    4    0    0 -0.16367893513E+03  0.33598225163E+03 -0.11752302381E+03  0.40434759683E+03  0.10005223995E+03 0.  0.
          2    1    3    3  502    0 -0.68592345902E+02 -0.68438095795E+02 -0.68628881426E+02  0.11873755193E+03  0.00000000000E+00 0. -1.
         -1    1    3    3    0  502 -0.20259152547E+03 -0.93893830079E+02 -0.29082267394E+03  0.36665679483E+03  0.00000000000E+00 0.  1.
         11    1    5    5    0    0  0.14834201591E+03 -0.89921177951E+02  0.77889519231E+02  0.19015243657E+03  0.00000000000E+00 0.  1.
        -11    1    5    5    0    0  0.28652079059E+03 -0.83729147804E+02  0.23296230210E+03  0.37865045600E+03  0.00000000000E+00 0. -1.
          2    1    6    6  503    0 -0.78683916597E+02  0.74783523178E+02 -0.87157160376E+01  0.10890223954E+03  0.00000000000E+00 0.  1.
         -2    1    6    6    0  503 -0.84995018533E+02  0.26119872845E+03 -0.10880730777E+03  0.29544535729E+03  0.00000000000E+00 0. -1.
<mgrwt>
<rscale>  0 0.14490536E+04</rscale>
<asrwt>0</asrwt>
<pdfrwt beam="1">  1        2 0.99417084E-01 0.14490536E+04</pdfrwt>
<pdfrwt beam="2">  1       -1 0.12497443E+00 0.14490536E+04</pdfrwt>
<totfact> 0.28105669E+01</totfact>
</mgrwt>
</event>
<event>
12    6  0.1529770E-007  0.1574761E+04  0.7818608E-02  0.8836205E-01
         -1   -1    0    0    0  501 -0.00000000000E+00  0.00000000000E+00  0.18520033940E+03  0.18520033940E+03  0.00000000000E+00 0.  1.
          2   -1    0    0  501    0  0.00000000000E+00 -0.00000000000E+00 -0.33475529532E+04  0.33475529532E+04  0.00000000000E+00 0. -1.
         24    2    1    2    0    0 -0.94304941879E+01  0.47651317528E+03 -0.15440020065E+04  0.16179084499E+04  0.80819649654E+02 0.  0.
        254    2    1    2    0    0  0.94304941879E+01 -0.47651317528E+03 -0.16183506073E+04  0.19148448427E+04  0.90576947563E+03 0.  0.
         23    2    4    4    0    0  0.18378576986E+03  0.14773841034E+03 -0.12165748218E+03  0.28103843061E+03  0.92618623497E+02 0.  0.
         23    2    4    4    0    0 -0.17435527567E+03 -0.62425158562E+03 -0.14966931251E+04  0.16338064121E+04  0.95620484536E+02 0.  0.
          4    1    3    3  502    0 -0.28619514392E+02  0.36678761570E+03 -0.10888609163E+04  0.11493347322E+04  0.00000000000E+00 0. -1.
         -3    1    3    3    0  502  0.19189020204E+02  0.10972555958E+03 -0.45514109022E+03  0.46857371771E+03  0.00000000000E+00 0.  1.
         11    1    5    5    0    0  0.12720433844E+03  0.68984851504E+02 -0.30371101448E+02  0.14785890997E+03  0.00000000000E+00 0.  1.
        -11    1    5    5    0    0  0.56581431418E+02  0.78753558834E+02 -0.91286380735E+02  0.13317952064E+03  0.00000000000E+00 0. -1.
          2    1    6    6  503    0 -0.32285540736E+02 -0.26715106347E+03 -0.67565452862E+03  0.72726961225E+03  0.00000000000E+00 0.  1.
         -2    1    6    6    0  503 -0.14206973493E+03 -0.35710052215E+03 -0.82103859647E+03  0.90653679980E+03  0.00000000000E+00 0. -1.
<mgrwt>
<rscale>  0 0.15747609E+04</rscale>
<asrwt>0</asrwt>
<pdfrwt beam="1">  1        2 0.51500812E+00 0.15747609E+04</pdfrwt>
<pdfrwt beam="2">  1       -1 0.28492361E-01 0.15747609E+04</pdfrwt>
<totfact> 0.12776020E+01</totfact>
</mgrwt>
</event>
<event>
12    6  0.1529770E-007  0.1297864E+04  0.7818608E-02  0.9031261E-01
         -1   -1    0    0    0  501 -0.00000000000E+00  0.00000000000E+00  0.69973122703E+03  0.69973122703E+03  0.00000000000E+00 0.  1.
          2   -1    0    0  501    0  0.00000000000E+00 -0.00000000000E+00 -0.60182087624E+03  0.60182087624E+03  0.00000000000E+00 0. -1.
         24    2    1    2    0    0  0.73526540121E+02 -0.71365938826E+02  0.33621930869E+03  0.36098621100E+03  0.82270114086E+02 0.  0.
        254    2    1    2    0    0 -0.73526540121E+02  0.71365938826E+02 -0.23830895790E+03  0.94056589227E+03  0.90408726844E+03 0.  0.
         23    2    4    4    0    0  0.29455192597E+03 -0.21753440768E+03  0.54067439993E+02  0.38120857502E+03  0.91184614840E+02 0.  0.
         23    2    4    4    0    0 -0.36807846609E+03  0.28890034650E+03 -0.29237639789E+03  0.55935731725E+03  0.91931947185E+02 0.  0.
          2    1    3    3  502    0  0.64344672920E+02 -0.78063352239E+01  0.13473170367E+03  0.14951189845E+03  0.00000000000E+00 0. -1.
         -1    1    3    3    0  502  0.91818672012E+01 -0.63559603602E+02  0.20148760502E+03  0.21147431255E+03  0.00000000000E+00 0.  1.
         11    1    5    5    0    0  0.17761041481E+02  0.12913306318E+01 -0.13000452207E+02  0.22048444092E+02  0.00000000000E+00 0. -1.
        -11    1    5    5    0    0  0.27679088449E+03 -0.21882573831E+03  0.67067892200E+02  0.35916013092E+03  0.00000000000E+00 0.  1.
          2    1    6    6  503    0 -0.67879173901E+02  0.68249077084E+02 -0.21238401703E+02  0.98572757288E+02  0.00000000000E+00 0. -1.
         -2    1    6    6    0  503 -0.30019929219E+03  0.22065126942E+03 -0.27113799619E+03  0.46078455997E+03  0.00000000000E+00 0.  1.
<mgrwt>
<rscale>  0 0.12978642E+04</rscale>
<asrwt>0</asrwt>
<pdfrwt beam="1">  1        2 0.92587827E-01 0.12978642E+04</pdfrwt>
<pdfrwt beam="2">  1       -1 0.10765096E+00 0.12978642E+04</pdfrwt>
<totfact> 0.44479366E+01</totfact>
</mgrwt>
</event>
<event>
12    6  0.1529770E-007  0.1910827E+04  0.7818608E-02  0.8649486E-01
         -1   -1    0    0    0  501 -0.00000000000E+00  0.00000000000E+00  0.59340204612E+03  0.59340204612E+03  0.00000000000E+00 0.  1.
          2   -1    0    0  501    0  0.00000000000E+00 -0.00000000000E+00 -0.15382736848E+04  0.15382736848E+04  0.00000000000E+00 0. -1.
         24    2    1    2    0    0 -0.14828468040E+03 -0.36609874665E+02  0.43940174585E+03  0.47176148186E+03  0.78462552545E+02 0.  0.
        254    2    1    2    0    0  0.14828468040E+03  0.36609874665E+02 -0.13842733845E+04  0.16599142490E+04  0.90320201600E+03 0.  0.
         23    2    4    4    0    0 -0.24104528904E+03  0.27519587634E+03 -0.95746019609E+03  0.10290142115E+04  0.91129680766E+02 0.  0.
         23    2    4    4    0    0  0.38932996944E+03 -0.23858600167E+03 -0.42681318840E+03  0.63090003749E+03  0.85815232971E+02 0.  0.
          4    1    3    3  502    0 -0.84728406028E+02 -0.17768516184E+02  0.13610349834E+03  0.16130339493E+03  0.00000000000E+00 0. -1.
         -3    1    3    3    0  502 -0.63556274373E+02 -0.18841358481E+02  0.30329824751E+03  0.31045808693E+03  0.00000000000E+00 0.  1.
         11    1    5    5    0    0 -0.67217367732E+02  0.23822098195E+02 -0.17302739911E+03  0.18714739573E+03  0.00000000000E+00 0. -1.
        -11    1    5    5    0    0 -0.17382792131E+03  0.25137377814E+03 -0.78443279698E+03  0.84186681580E+03  0.00000000000E+00 0.  1.
          2    1    6    6  503    0  0.99981658509E+02 -0.65386033583E+02 -0.63845136633E+02  0.13545429819E+03  0.00000000000E+00 0. -1.
         -2    1    6    6    0  503  0.28934831093E+03 -0.17319996809E+03 -0.36296805177E+03  0.49544573930E+03  0.00000000000E+00 0.  1.
<mgrwt>
<rscale>  0 0.19108268E+04</rscale>
<asrwt>0</asrwt>
<pdfrwt beam="1">  1        2 0.23665749E+00 0.19108268E+04</pdfrwt>
<pdfrwt beam="2">  1       -1 0.91292624E-01 0.19108268E+04</pdfrwt>
<totfact> 0.15070937E+01</totfact>
</mgrwt>
</event>
<event>
12    6  0.1529770E-007  0.2974187E+04  0.7818608E-02  0.8251141E-01
         -1   -1    0    0    0  501 -0.00000000000E+00  0.00000000000E+00  0.15844967672E+04  0.15844967672E+04  0.00000000000E+00 0.  1.
          2   -1    0    0  501    0  0.00000000000E+00 -0.00000000000E+00 -0.13956779734E+04  0.13956779734E+04  0.00000000000E+00 0. -1.
         24    2    1    2    0    0  0.33549725317E+03 -0.11482333490E+04  0.68611659865E+03  0.13818416605E+04  0.87932685689E+02 0.  0.
        254    2    1    2    0    0 -0.33549725317E+03  0.11482333490E+04 -0.49729780487E+03  0.15983330801E+04  0.93614384445E+03 0.  0.
         23    2    4    4    0    0  0.10837509189E+03  0.10416050775E+04 -0.38423833475E+03  0.11192586708E+04  0.91730999418E+02 0.  0.
         23    2    4    4    0    0 -0.44387234507E+03  0.10662827146E+03 -0.11305947011E+03  0.47907440924E+03  0.91310452952E+02 0.  0.
          2    1    3    3  502    0  0.69156026695E+02 -0.15330737864E+03  0.11946835724E+03  0.20629686560E+03  0.00000000000E+00 0. -1.
         -3    1    3    3    0  502  0.26634122648E+03 -0.99492597033E+03  0.56664824141E+03  0.11755447949E+04  0.00000000000E+00 0.  1.
         11    1    5    5    0    0  0.61641248052E+02  0.37727073294E+03 -0.99815648709E+02  0.39508987980E+03  0.00000000000E+00 0. -1.
        -11    1    5    5    0    0  0.46733843842E+02  0.66433434457E+03 -0.28442268604E+03  0.72416879101E+03  0.00000000000E+00 0.  1.
          1    1    6    6  503    0 -0.12555651021E+03  0.23379436742E+00 -0.20734728339E+01  0.12557384762E+03  0.00000000000E+00 0. -1.
         -1    1    6    6    0  503 -0.31831583486E+03  0.10639447709E+03 -0.11098599728E+03  0.35350056162E+03  0.00000000000E+00 0.  1.
<mgrwt>
<rscale>  0 0.29741871E+04</rscale>
<asrwt>0</asrwt>
<pdfrwt beam="1">  1        2 0.21471969E+00 0.29741871E+04</pdfrwt>
<pdfrwt beam="2">  1       -1 0.24376874E+00 0.29741871E+04</pdfrwt>
<totfact> 0.10888784E+00</totfact>
</mgrwt>
</event>
<event>
12    6  0.1529770E-007  0.1989485E+04  0.7818608E-02  0.8611553E-01
          2   -1    0    0  501    0  0.00000000000E+00  0.00000000000E+00  0.67337506096E+03  0.67337506096E+03  0.00000000000E+00 0. -1.
         -1   -1    0    0    0  501 -0.00000000000E+00 -0.00000000000E+00 -0.14694818969E+04  0.14694818969E+04  0.00000000000E+00 0.  1.
         24    2    1    2    0    0 -0.25528693459E+03 -0.48384260262E+03  0.28817248227E+03  0.62386084711E+03  0.82969234856E+02 0.  0.
        254    2    1    2    0    0  0.25528693459E+03  0.48384260262E+03 -0.10842793182E+04  0.15189961107E+04  0.91236640747E+03 0.  0.
         23    2    4    4    0    0  0.22635423042E+03  0.10503699031E+03  0.90453945053E+02  0.28098874999E+03  0.92215803888E+02 0.  0.
         23    2    4    4    0    0  0.28932704171E+02  0.37880561232E+03 -0.11747332633E+04  0.12380073608E+04  0.91286319772E+02 0.  0.
          4    1    3    3  502    0 -0.67027570609E+02 -0.17992043647E+03  0.66412462732E+02  0.20316169395E+03  0.00000000000E+00 0. -1.
         -3    1    3    3    0  502 -0.18825936398E+03 -0.30392216615E+03  0.22176001954E+03  0.42069915316E+03  0.00000000000E+00 0.  1.
         11    1    5    5    0    0  0.14686192936E+03  0.55527710408E+02  0.96623760678E+01  0.15730579909E+03  0.00000000000E+00 0. -1.
        -11    1    5    5    0    0  0.79492301061E+02  0.49509279898E+02  0.80791568985E+02  0.12368295090E+03  0.00000000000E+00 0.  1.
          3    1    6    6  503    0  0.42588462517E+02  0.72314434396E+02 -0.25013542549E+03  0.26383874933E+03  0.00000000000E+00 0. -1.
         -3    1    6    6    0  503 -0.13655758346E+02  0.30649117792E+03 -0.92459783777E+03  0.97416861142E+03  0.00000000000E+00 0.  1.
<mgrwt>
<rscale>  0 0.19894848E+04</rscale>
<asrwt>0</asrwt>
<pdfrwt beam="1">  1        2 0.10359616E+00 0.19894848E+04</pdfrwt>
<pdfrwt beam="2">  1       -1 0.22607413E+00 0.19894848E+04</pdfrwt>
<totfact> 0.45778084E+00</totfact>
</mgrwt>
</event>
<event>
12    6  0.1529770E-007  0.4159993E+04  0.7818608E-02  0.7973026E-01
         -1   -1    0    0    0  501 -0.00000000000E+00  0.00000000000E+00  0.17337081035E+04  0.17337081035E+04  0.00000000000E+00 0.  1.
          2   -1    0    0  501    0  0.00000000000E+00 -0.00000000000E+00 -0.24954516396E+04  0.24954516396E+04  0.00000000000E+00 0. -1.
         24    2    1    2    0    0 -0.53815591608E+03 -0.12539124390E+04  0.10976535965E+04  0.17529924843E+04  0.78936921662E+02 0.  0.
        254    2    1    2    0    0  0.53815591608E+03  0.12539124390E+04 -0.18593971326E+04  0.24761672588E+04  0.90118721807E+03 0.  0.
         23    2    4    4    0    0 -0.21219681087E+03  0.43393832001E+03 -0.79440494533E+03  0.93412521407E+03  0.90447478013E+02 0.  0.
         23    2    4    4    0    0  0.75035272695E+03  0.81997411898E+03 -0.10649921873E+04  0.15420420447E+04  0.91096311843E+02 0.  0.
          4    1    3    3  502    0 -0.40812460324E+02 -0.66234871277E+02  0.81950104544E+02  0.11299794125E+03  0.00000000000E+00 0. -1.
         -3    1    3    3    0  502 -0.49734345575E+03 -0.11876775677E+04  0.10157034919E+04  0.16399945431E+04  0.00000000000E+00 0.  1.
         11    1    5    5    0    0 -0.54864958157E+02  0.42256362222E+02 -0.11815780284E+03  0.13695630747E+03  0.00000000000E+00 0.  1.
        -11    1    5    5    0    0 -0.15733185271E+03  0.39168195779E+03 -0.67624714249E+03  0.79716890661E+03  0.00000000000E+00 0. -1.
          2    1    6    6  503    0  0.69757857444E+03  0.72221201760E+03 -0.96126136577E+03  0.13900465745E+04  0.00000000000E+00 0. -1.
         -2    1    6    6    0  503  0.52774152504E+02  0.97762101379E+02 -0.10373082148E+03  0.15199547021E+03  0.00000000000E+00 0.  1.
<mgrwt>
<rscale>  0 0.41599927E+04</rscale>
<asrwt>0</asrwt>
<pdfrwt beam="1">  1        2 0.38391563E+00 0.41599927E+04</pdfrwt>
<pdfrwt beam="2">  1       -1 0.26672432E+00 0.41599927E+04</pdfrwt>
<totfact> 0.16823947E-01</totfact>
</mgrwt>
</event>
<event>
12    6  0.1537297E-007  0.3948818E+04  0.7818608E-02  0.8014952E-01
         -1   -1    0    0    0  501 -0.00000000000E+00  0.00000000000E+00  0.20253494279E+04  0.20253494279E+04  0.00000000000E+00 0.  1.
          2   -1    0    0  501    0  0.00000000000E+00 -0.00000000000E+00 -0.19247493762E+04  0.19247493762E+04  0.00000000000E+00 0. -1.
         24    2    1    2    0    0  0.12814821496E+04 -0.69485423250E+02  0.14181307666E+04  0.19143191451E+04  0.80611378247E+02 0.  0.
        254    2    1    2    0    0 -0.12814821496E+04  0.69485423250E+02 -0.13175307149E+04  0.20357796589E+04  0.87263217406E+03 0.  0.
         23    2    4    4    0    0 -0.10269241664E+04 -0.48046496910E+02 -0.13904539051E+04  0.17316692462E+04  0.91840115237E+02 0.  0.
         23    2    4    4    0    0 -0.25455798322E+03  0.11753192016E+03  0.72923190153E+02  0.30411041274E+03  0.92476117976E+02 0.  0.
          4    1    3    3  502    0  0.12342076725E+03  0.73813495647E+01  0.16659533024E+03  0.20746366951E+03  0.00000000000E+00 0. -1.
         -3    1    3    3    0  502  0.11580613824E+04 -0.76866772815E+02  0.12515354364E+04  0.17068554756E+04  0.00000000000E+00 0.  1.
         11    1    5    5    0    0 -0.34680860571E+03  0.27151364919E+02 -0.47254186998E+03  0.58677868442E+03  0.00000000000E+00 0. -1.
        -11    1    5    5    0    0 -0.68011556071E+03 -0.75197861829E+02 -0.91791203507E+03  0.11448905618E+04  0.00000000000E+00 0.  1.
          4    1    6    6  503    0 -0.20348605000E+02 -0.11654577377E+02  0.21339932476E+02  0.31706270947E+02  0.00000000000E+00 0. -1.
         -4    1    6    6    0  503 -0.23420937822E+03  0.12918649754E+03  0.51583257677E+02  0.27240414179E+03  0.00000000000E+00 0.  1.
<mgrwt>
<rscale>  0 0.39488176E+04</rscale>
<asrwt>0</asrwt>
<pdfrwt beam="1">  1        2 0.29611529E+00 0.39488176E+04</pdfrwt>
<pdfrwt beam="2">  1       -1 0.31159222E+00 0.39488176E+04</pdfrwt>
<totfact> 0.18410778E-01</totfact>
</mgrwt>
</event>
<event>
12    6  0.1529770E-007  0.1650384E+04  0.7818608E-02  0.8790179E-01
         -1   -1    0    0    0  501 -0.00000000000E+00  0.00000000000E+00  0.43502054639E+03  0.43502054639E+03  0.00000000000E+00 0.  1.
          2   -1    0    0  501    0  0.00000000000E+00 -0.00000000000E+00 -0.15653097718E+04  0.15653097718E+04  0.00000000000E+00 0. -1.
         24    2    1    2    0    0 -0.38682523982E+03  0.10891165418E+03 -0.90411496710E+03  0.99264701028E+03  0.80179166308E+02 0.  0.
        254    2    1    2    0    0  0.38682523982E+03 -0.10891165418E+03 -0.22617425828E+03  0.10076833079E+04  0.89597730959E+03 0.  0.
         23    2    4    4    0    0  0.27945007060E+03 -0.46821421356E+03 -0.27585739113E+03  0.61753510228E+03  0.89080921423E+02 0.  0.
         23    2    4    4    0    0  0.10737516922E+03  0.35930255938E+03  0.49683132852E+02  0.39014820560E+03  0.95495824532E+02 0.  0.
          2    1    3    3  502    0 -0.39011666753E+03  0.11035347027E+03 -0.88855444628E+03  0.97667697151E+03  0.00000000000E+00 0. -1.
         -1    1    3    3    0  502  0.32914277100E+01 -0.14418160892E+01 -0.15560520823E+02  0.15970038769E+02  0.00000000000E+00 0.  1.
         11    1    5    5    0    0  0.13259064180E+03 -0.30699346627E+03 -0.16890901034E+03  0.37464052157E+03  0.00000000000E+00 0.  1.
        -11    1    5    5    0    0  0.14685942880E+03 -0.16122074729E+03 -0.10694838080E+03  0.24289458071E+03  0.00000000000E+00 0. -1.
          2    1    6    6  503    0  0.44460013666E+02  0.28847691124E+03  0.30300987698E+02  0.29345147979E+03  0.00000000000E+00 0. -1.
         -2    1    6    6    0  503  0.62915155550E+02  0.70825648136E+02  0.19382145155E+02  0.96696725811E+02  0.00000000000E+00 0.  1.
<mgrwt>
<rscale>  0 0.16503841E+04</rscale>
<asrwt>0</asrwt>
<pdfrwt beam="1">  1        2 0.24081689E+00 0.16503841E+04</pdfrwt>
<pdfrwt beam="2">  1       -1 0.66926238E-01 0.16503841E+04</pdfrwt>
<totfact> 0.28708468E+01</totfact>
</mgrwt>
</event>
<event>
12    6  0.1529770E-007  0.2138364E+04  0.7818608E-02  0.8544530E-01
          2   -1    0    0  501    0  0.00000000000E+00  0.00000000000E+00  0.20035874445E+04  0.20035874445E+04  0.00000000000E+00 0. -1.
         -1   -1    0    0    0  501 -0.00000000000E+00 -0.00000000000E+00 -0.57055156120E+03  0.57055156120E+03  0.00000000000E+00 0.  1.
         24    2    1    2    0    0  0.49620412195E+03  0.69061505824E+03  0.84902247640E+03  0.12044917896E+04  0.82423397835E+02 0.  0.
        254    2    1    2    0    0 -0.49620412195E+03 -0.69061505824E+03  0.58401340691E+03  0.13696472161E+04  0.90094070162E+03 0.  0.
         23    2    4    4    0    0  0.67813706800E+02 -0.14381008335E+03  0.54827165476E+03  0.57809120738E+03  0.91146024255E+02 0.  0.
         23    2    4    4    0    0 -0.56401782875E+03 -0.54680497488E+03  0.35741752152E+02  0.79155600872E+03  0.90397181346E+02 0.  0.
          4    1    3    3  502    0 -0.33382660336E+01  0.62638674034E+01  0.73119659196E+01  0.10190431815E+02  0.00000000000E+00 0. -1.
         -3    1    3    3    0  502  0.49954238798E+03  0.68435119083E+03  0.84171051048E+03  0.11943013578E+04  0.00000000000E+00 0.  1.
         11    1    5    5    0    0  0.34823590509E+02 -0.14583197346E+03  0.46110855220E+03  0.48487188396E+03  0.00000000000E+00 0.  1.
        -11    1    5    5    0    0  0.32990116291E+02  0.20218901062E+01  0.87163102559E+02  0.93219323427E+02  0.00000000000E+00 0. -1.
          2    1    6    6  503    0 -0.43720844622E+03 -0.43115925744E+03  0.64935207945E+02  0.61746749870E+03  0.00000000000E+00 0. -1.
         -2    1    6    6    0  503 -0.12680938253E+03 -0.11564571744E+03 -0.29193455792E+02  0.17408851002E+03  0.00000000000E+00 0.  1.
<mgrwt>
<rscale>  0 0.21383638E+04</rscale>
<asrwt>0</asrwt>
<pdfrwt beam="1">  1        2 0.30824422E+00 0.21383638E+04</pdfrwt>
<pdfrwt beam="2">  1       -1 0.87777164E-01 0.21383638E+04</pdfrwt>
<totfact> 0.88760528E+00</totfact>
</mgrwt>
</event>
<event>
12    6  0.1529770E-007  0.3931498E+04  0.7818608E-02  0.8018510E-01
         -3   -1    0    0    0  501 -0.00000000000E+00  0.00000000000E+00  0.17853092525E+04  0.17853092525E+04  0.00000000000E+00 0.  1.
          2   -1    0    0  501    0  0.00000000000E+00 -0.00000000000E+00 -0.21644254301E+04  0.21644254301E+04  0.00000000000E+00 0. -1.
         24    2    1    2    0    0  0.16920901068E+04  0.74941148917E+03 -0.39602772319E+03  0.18943217109E+04  0.82645491710E+02 0.  0.
        254    2    1    2    0    0 -0.16920901068E+04 -0.74941148917E+03  0.16911545563E+02  0.20554129716E+04  0.89423149901E+03 0.  0.
         23    2    4    4    0    0 -0.97269728631E+03  0.36386242720E+01 -0.17582869637E+03  0.99247366170E+03  0.89078551380E+02 0.  0.
         23    2    4    4    0    0 -0.71939282052E+03 -0.75305011345E+03  0.19274024193E+03  0.10629393099E+04  0.89892558959E+02 0.  0.
          2    1    3    3  502    0  0.12770686829E+04  0.59714205795E+03 -0.28073126974E+03  0.14374606444E+04  0.00000000000E+00 0. -1.
         -1    1    3    3    0  502  0.41502142388E+03  0.15226943123E+03 -0.11529645345E+03  0.45686106656E+03  0.00000000000E+00 0.  1.
         11    1    5    5    0    0 -0.31125231480E+03  0.17712577549E+01 -0.14284659937E+02  0.31158496807E+03  0.00000000000E+00 0.  1.
        -11    1    5    5    0    0 -0.66144497151E+03  0.18673665171E+01 -0.16154403643E+03  0.68088869362E+03  0.00000000000E+00 0. -1.
          3    1    6    6  503    0 -0.65098485613E+03 -0.70694073497E+03  0.16028702581E+03  0.97428867196E+03  0.00000000000E+00 0. -1.
         -3    1    6    6    0  503 -0.68407964386E+02 -0.46109378475E+02  0.32453216120E+02  0.88650637963E+02  0.00000000000E+00 0.  1.
<mgrwt>
<rscale>  0 0.39314978E+04</rscale>
<asrwt>0</asrwt>
<pdfrwt beam="1">  1        2 0.33298852E+00 0.39314978E+04</pdfrwt>
<pdfrwt beam="2">  1       -3 0.27466296E+00 0.39314978E+04</pdfrwt>
<totfact> 0.14263233E-01</totfact>
</mgrwt>
</event>
<event>
12    6  0.1529770E-007  0.3665857E+04  0.7818608E-02  0.8075571E-01
         -1   -1    0    0    0  501 -0.00000000000E+00  0.00000000000E+00  0.13503913329E+04  0.13503913329E+04  0.00000000000E+00 0.  1.
          2   -1    0    0  501    0  0.00000000000E+00 -0.00000000000E+00 -0.24878917503E+04  0.24878917503E+04  0.00000000000E+00 0. -1.
         24    2    1    2    0    0 -0.63374326367E+03 -0.15534057895E+04 -0.14303364505E+03  0.16858123861E+04  0.82490644465E+02 0.  0.
        254    2    1    2    0    0  0.63374326367E+03  0.15534057895E+04 -0.99446677239E+03  0.21524706971E+04  0.91075016849E+03 0.  0.
         23    2    4    4    0    0  0.44085132590E+03  0.57695496536E+03  0.14057625874E+02  0.73270031862E+03  0.97083554042E+02 0.  0.
         23    2    4    4    0    0  0.19289193777E+03  0.97645082411E+03 -0.10085243983E+04  0.14197703785E+04  0.89235385922E+02 0.  0.
          2    1    3    3  502    0 -0.54151066695E+03 -0.13552100697E+04 -0.15010673413E+03  0.14670924194E+04  0.00000000000E+00 0. -1.
         -1    1    3    3    0  502 -0.92232596723E+02 -0.19819571980E+03  0.70730890754E+01  0.21871996670E+03  0.00000000000E+00 0.  1.
         11    1    5    5    0    0  0.19812477801E+03  0.18229257995E+03  0.67132957789E+01  0.26931223646E+03  0.00000000000E+00 0.  1.
        -11    1    5    5    0    0  0.24272654788E+03  0.39466238540E+03  0.73443300952E+01  0.46338808216E+03  0.00000000000E+00 0. -1.
          2    1    6    6  503    0  0.18544502067E+03  0.78967670927E+03 -0.79135894813E+03  0.11332379034E+04  0.00000000000E+00 0. -1.
         -2    1    6    6    0  503  0.74469170995E+01  0.18677411484E+03 -0.21716545013E+03  0.28653247508E+03  0.00000000000E+00 0.  1.
<mgrwt>
<rscale>  0 0.36658573E+04</rscale>
<asrwt>0</asrwt>
<pdfrwt beam="1">  1        2 0.38275258E+00 0.36658573E+04</pdfrwt>
<pdfrwt beam="2">  1       -1 0.20775251E+00 0.36658573E+04</pdfrwt>
<totfact> 0.43400127E-01</totfact>
</mgrwt>
</event>
<event>
12    6  0.1529770E-007  0.1925162E+04  0.7818608E-02  0.8642432E-01
          2   -1    0    0  501    0  0.00000000000E+00  0.00000000000E+00  0.16753581775E+04  0.16753581775E+04  0.00000000000E+00 0. -1.
         -1   -1    0    0    0  501 -0.00000000000E+00 -0.00000000000E+00 -0.55305308942E+03  0.55305308942E+03  0.00000000000E+00 0.  1.
         24    2    1    2    0    0 -0.54822886779E+03  0.22633619217E+03 -0.10104286920E+03  0.60694113193E+03  0.79905649676E+02 0.  0.
        254    2    1    2    0    0  0.54822886779E+03 -0.22633619217E+03  0.12233479573E+04  0.16214701350E+04  0.88363013232E+03 0.  0.
         23    2    4    4    0    0  0.54049815372E+03 -0.11495730734E+03  0.13297385413E+04  0.14431408509E+04  0.95380765830E+02 0.  0.
         23    2    4    4    0    0  0.77307140718E+01 -0.11137888483E+03 -0.10639058400E+03  0.17832928415E+03  0.89539696761E+02 0.  0.
          2    1    3    3  502    0 -0.31897145625E+03  0.14840538534E+03 -0.23091420210E+02  0.35256228101E+03  0.00000000000E+00 0. -1.
         -1    1    3    3    0  502 -0.22925741154E+03  0.77930806827E+02 -0.77951448987E+02  0.25437885092E+03  0.00000000000E+00 0.  1.
         11    1    5    5    0    0  0.26276441011E+03 -0.59664137277E+02  0.52649676241E+03  0.59144212340E+03  0.00000000000E+00 0. -1.
        -11    1    5    5    0    0  0.27773374361E+03 -0.55293170063E+02  0.80324177890E+03  0.85169872747E+03  0.00000000000E+00 0.  1.
          3    1    6    6  503    0 -0.16024658982E+02 -0.50146188753E+01 -0.55619525564E+02  0.58098775563E+02  0.00000000000E+00 0. -1.
         -3    1    6    6    0  503  0.23755373054E+02 -0.10636426595E+03 -0.50771058441E+02  0.12023050859E+03  0.00000000000E+00 0.  1.
<mgrwt>
<rscale>  0 0.19251618E+04</rscale>
<asrwt>0</asrwt>
<pdfrwt beam="1">  1        2 0.25774741E+00 0.19251618E+04</pdfrwt>
<pdfrwt beam="2">  1       -1 0.85085091E-01 0.19251618E+04</pdfrwt>
<totfact> 0.14720999E+01</totfact>
</mgrwt>
</event>
<event>
12    6  0.1529770E-007  0.2571353E+04  0.7818608E-02  0.8377997E-01
         -1   -1    0    0    0  501 -0.00000000000E+00  0.00000000000E+00  0.18016078221E+04  0.18016078221E+04  0.00000000000E+00 0.  1.
          2   -1    0    0  501    0  0.00000000000E+00 -0.00000000000E+00 -0.91749393031E+03  0.91749393031E+03  0.00000000000E+00 0. -1.
         24    2    1    2    0    0  0.83584631239E+03 -0.29682956812E+03 -0.35350758165E+03  0.95806769399E+03  0.78608177300E+02 0.  0.
        254    2    1    2    0    0 -0.83584631239E+03  0.29682956812E+03  0.12376214734E+04  0.17610340584E+04  0.88475261679E+03 0.  0.
         23    2    4    4    0    0 -0.19280549459E+03  0.79731263086E+02  0.10156945290E+04  0.10410992516E+04  0.93387593069E+02 0.  0.
         23    2    4    4    0    0 -0.64304081780E+03  0.21709830504E+03  0.22192694448E+03  0.71993480678E+03  0.91768131288E+02 0.  0.
          4    1    3    3  502    0  0.66510964512E+03 -0.24945258398E+03 -0.25116012180E+03  0.75344464858E+03  0.00000000000E+00 0. -1.
         -3    1    3    3    0  502  0.17073666727E+03 -0.47376984137E+02 -0.10234745985E+03  0.20462304541E+03  0.00000000000E+00 0.  1.
         11    1    5    5    0    0 -0.69069414101E+02  0.72134683412E+01  0.53430898680E+03  0.53880303587E+03  0.00000000000E+00 0.  1.
        -11    1    5    5    0    0 -0.12373608049E+03  0.72517794745E+02  0.48138554216E+03  0.50229621576E+03  0.00000000000E+00 0. -1.
          2    1    6    6  503    0 -0.71234350602E+02  0.18848533489E+02 -0.43596349654E+01  0.73814675624E+02  0.00000000000E+00 0. -1.
         -2    1    6    6    0  503 -0.57180646719E+03  0.19824977155E+03  0.22628657945E+03  0.64612013115E+03  0.00000000000E+00 0.  1.
<mgrwt>
<rscale>  0 0.25713531E+04</rscale>
<asrwt>0</asrwt>
<pdfrwt beam="1">  1        2 0.14115291E+00 0.25713531E+04</pdfrwt>
<pdfrwt beam="2">  1       -1 0.27717043E+00 0.25713531E+04</pdfrwt>
<totfact> 0.13392772E+00</totfact>
</mgrwt>
</event>
<event>
12    6  0.1529770E-007  0.1615807E+04  0.7818608E-02  0.8810896E-01
         -1   -1    0    0    0  501 -0.00000000000E+00  0.00000000000E+00  0.15939943226E+04  0.15939943226E+04  0.00000000000E+00 0.  1.
          2   -1    0    0  501    0  0.00000000000E+00 -0.00000000000E+00 -0.40947938627E+03  0.40947938627E+03  0.00000000000E+00 0. -1.
         24    2    1    2    0    0  0.18239236590E+03  0.25617480287E+03 -0.15001818462E+03  0.35739858081E+03  0.79597644988E+02 0.  0.
        254    2    1    2    0    0 -0.18239236590E+03 -0.25617480287E+03  0.13345331209E+04  0.16460751280E+04  0.91087439942E+03 0.  0.
         23    2    4    4    0    0  0.94826573804E+02 -0.48036331371E+03  0.11044006612E+04  0.12116000219E+04  0.92373158848E+02 0.  0.
         23    2    4    4    0    0 -0.27721893971E+03  0.22418851084E+03  0.23013245977E+03  0.43447510612E+03  0.93256848933E+02 0.  0.
          2    1    3    3  502    0  0.75939919467E+02  0.91165014464E+02 -0.98957087813E+02  0.15450060343E+03  0.00000000000E+00 0. -1.
         -1    1    3    3    0  502  0.10645244643E+03  0.16500978840E+03 -0.51061096812E+02  0.20289797739E+03  0.00000000000E+00 0.  1.
         11    1    5    5    0    0  0.36983776002E+02 -0.18742101616E+03  0.32540191148E+03  0.37733385878E+03  0.00000000000E+00 0.  1.
        -11    1    5    5    0    0  0.57842797802E+02 -0.29294229755E+03  0.77899874968E+03  0.83426616313E+03  0.00000000000E+00 0. -1.
          2    1    6    6  503    0 -0.22409393146E+03  0.14075014964E+03  0.13433026677E+03  0.29677148669E+03  0.00000000000E+00 0. -1.
         -2    1    6    6    0  503 -0.53125008246E+02  0.83438361202E+02  0.95802192996E+02  0.13770361943E+03  0.00000000000E+00 0.  1.
<mgrwt>
<rscale>  0 0.16158067E+04</rscale>
<asrwt>0</asrwt>
<pdfrwt beam="1">  1        2 0.62996830E-01 0.16158067E+04</pdfrwt>
<pdfrwt beam="2">  1       -1 0.24522989E+00 0.16158067E+04</pdfrwt>
<totfact> 0.63566901E+00</totfact>
</mgrwt>
</event>
<event>
12    6  0.1529770E-007  0.1920948E+04  0.7818608E-02  0.8644499E-01
          2   -1    0    0  501    0  0.00000000000E+00  0.00000000000E+00  0.33384152019E+04  0.33384152019E+04  0.00000000000E+00 0. -1.
         -1   -1    0    0    0  501 -0.00000000000E+00 -0.00000000000E+00 -0.27633169234E+03  0.27633169234E+03  0.00000000000E+00 0.  1.
         24    2    1    2    0    0 -0.71688026635E+03  0.12366019303E+03  0.13283080182E+04  0.15165785694E+04  0.79995039507E+02 0.  0.
        254    2    1    2    0    0  0.71688026635E+03 -0.12366019303E+03  0.17337754914E+04  0.20981683248E+04  0.93119477299E+03 0.  0.
         23    2    4    4    0    0  0.43346263074E+03  0.33581870432E+03  0.12429390340E+04  0.13612823409E+04  0.86764710774E+02 0.  0.
         23    2    4    4    0    0  0.28341763560E+03 -0.45947889735E+03  0.49083645735E+03  0.73688598390E+03  0.10312183146E+03 0.  0.
          2    1    3    3  502    0 -0.94000983036E+02  0.14056692633E+02  0.23545509793E+03  0.25391510109E+03  0.00000000000E+00 0. -1.
         -1    1    3    3    0  502 -0.62287928331E+03  0.10960350040E+03  0.10928529202E+04  0.12626634683E+04  0.00000000000E+00 0.  1.
         11    1    5    5    0    0  0.19486898558E+03  0.20539675017E+03  0.62054773942E+03  0.68208595017E+03  0.00000000000E+00 0.  1.
        -11    1    5    5    0    0  0.23859364517E+03  0.13042195415E+03  0.62239129459E+03  0.67919639076E+03  0.00000000000E+00 0. -1.
          4    1    6    6  503    0  0.16258627269E+01  0.52335244660E+01  0.91850077884E+01  0.10695680250E+02  0.00000000000E+00 0. -1.
         -4    1    6    6    0  503  0.28179177288E+03 -0.46471242181E+03  0.48165144956E+03  0.72619030365E+03  0.00000000000E+00 0.  1.
<mgrwt>
<rscale>  0 0.19209476E+04</rscale>
<asrwt>0</asrwt>
<pdfrwt beam="1">  1        2 0.51360231E+00 0.19209476E+04</pdfrwt>
<pdfrwt beam="2">  1       -1 0.42512570E-01 0.19209476E+04</pdfrwt>
<totfact> 0.61140102E+00</totfact>
</mgrwt>
</event>
<event>
12    6  0.1529770E-007  0.2189633E+04  0.7818608E-02  0.8522756E-01
         -1   -1    0    0    0  501 -0.00000000000E+00  0.00000000000E+00  0.65494449877E+03  0.65494449877E+03  0.00000000000E+00 0.  1.
          2   -1    0    0  501    0  0.00000000000E+00 -0.00000000000E+00 -0.18301135310E+04  0.18301135310E+04  0.00000000000E+00 0. -1.
         24    2    1    2    0    0 -0.12483402872E+03 -0.61746835012E+03 -0.12440499815E+04  0.13964115024E+04  0.73851401235E+02 0.  0.
        254    2    1    2    0    0  0.12483402872E+03  0.61746835012E+03  0.68880949286E+02  0.10886465273E+04  0.88518697358E+03 0.  0.
         23    2    4    4    0    0 -0.29112663221E+03  0.34930940132E+03 -0.21404610472E+03  0.51100136412E+03  0.92384443223E+02 0.  0.
         23    2    4    4    0    0  0.41596066093E+03  0.26815894880E+03  0.28292705401E+03  0.57764516323E+03  0.93240138628E+02 0.  0.
          2    1    3    3  502    0 -0.61109412316E+02 -0.46374974993E+03 -0.92907509625E+03  0.10401820635E+04  0.00000000000E+00 0. -1.
         -1    1    3    3    0  502 -0.63724616408E+02 -0.15371860019E+03 -0.31497488524E+03  0.35622943886E+03  0.00000000000E+00 0.  1.
         11    1    5    5    0    0 -0.70192171042E+01 -0.56489474213E+01 -0.70565738101E+01  0.11444441868E+02  0.00000000000E+00 0. -1.
        -11    1    5    5    0    0 -0.28410741510E+03  0.35495834875E+03 -0.20698953091E+03  0.49955692225E+03  0.00000000000E+00 0.  1.
          2    1    6    6  503    0  0.30764852414E+02  0.16240850106E+02 -0.43959605363E+01  0.35065165411E+02  0.00000000000E+00 0. -1.
         -2    1    6    6    0  503  0.38519580852E+03  0.25191809869E+03  0.28732301454E+03  0.54257999782E+03  0.00000000000E+00 0.  1.
<mgrwt>
<rscale>  0 0.21896327E+04</rscale>
<asrwt>0</asrwt>
<pdfrwt beam="1">  1        2 0.28155593E+00 0.21896327E+04</pdfrwt>
<pdfrwt beam="2">  1       -1 0.10076069E+00 0.21896327E+04</pdfrwt>
<totfact> 0.80998230E+00</totfact>
</mgrwt>
</event>
<event>
12    6  0.1529770E-007  0.1945389E+04  0.7818608E-02  0.8632588E-01
         -1   -1    0    0    0  501 -0.00000000000E+00  0.00000000000E+00  0.78964428502E+03  0.78964428502E+03  0.00000000000E+00 0.  1.
          2   -1    0    0  501    0  0.00000000000E+00 -0.00000000000E+00 -0.11981779727E+04  0.11981779727E+04  0.00000000000E+00 0. -1.
         24    2    1    2    0    0 -0.16859513091E+03 -0.32353693185E+03  0.52317121394E+03  0.64278500012E+03  0.79774512528E+02 0.  0.
        254    2    1    2    0    0  0.16859513091E+03  0.32353693185E+03 -0.93170490164E+03  0.13450372576E+04  0.89886079914E+03 0.  0.
         23    2    4    4    0    0  0.51572318775E+02  0.33797879616E+03 -0.10790189760E+04  0.11357958760E+04  0.94132623356E+02 0.  0.
         23    2    4    4    0    0  0.11702281213E+03 -0.14441864310E+02  0.14731407432E+03  0.20924138161E+03  0.90430156916E+02 0.  0.
          2    1    3    3  502    0 -0.99838510574E+02 -0.15770060288E+03  0.20335052367E+03  0.27602290452E+03  0.00000000000E+00 0. -1.
         -1    1    3    3    0  502 -0.68756620334E+02 -0.16583632897E+03  0.31982069027E+03  0.36676209560E+03  0.00000000000E+00 0.  1.
         11    1    5    5    0    0 -0.14501543796E+02  0.23061128637E+02 -0.42511098618E+02  0.50490632123E+02  0.00000000000E+00 0. -1.
        -11    1    5    5    0    0  0.66073862571E+02  0.31491766752E+03 -0.10365078773E+04  0.10853052439E+04  0.00000000000E+00 0.  1.
          3    1    6    6  503    0  0.42495726581E+02 -0.24623282496E+02  0.64281952164E+01  0.49532963895E+02  0.00000000000E+00 0. -1.
         -3    1    6    6    0  503  0.74527085552E+02  0.10181418185E+02  0.14088587910E+03  0.15970841771E+03  0.00000000000E+00 0.  1.
<mgrwt>
<rscale>  0 0.19453888E+04</rscale>
<asrwt>0</asrwt>
<pdfrwt beam="1">  1        2 0.18433507E+00 0.19453888E+04</pdfrwt>
<pdfrwt beam="2">  1       -1 0.12148374E+00 0.19453888E+04</pdfrwt>
<totfact> 0.12136315E+01</totfact>
</mgrwt>
</event>
<event>
12    6  0.1529770E-007  0.1645793E+04  0.7818608E-02  0.8792899E-01
          2   -1    0    0  501    0  0.00000000000E+00  0.00000000000E+00  0.19877450755E+04  0.19877450755E+04  0.00000000000E+00 0. -1.
         -1   -1    0    0    0  501 -0.00000000000E+00 -0.00000000000E+00 -0.34066688164E+03  0.34066688164E+03  0.00000000000E+00 0.  1.
         24    2    1    2    0    0 -0.56163938018E+03 -0.15313249099E+02  0.43898366573E+03  0.71728401197E+03  0.78207455439E+02 0.  0.
        254    2    1    2    0    0  0.56163938018E+03  0.15313249099E+02  0.12080945282E+04  0.16111279452E+04  0.90585185204E+03 0.  0.
         23    2    4    4    0    0  0.32883679733E+03 -0.37614762689E+03  0.29921132327E+03  0.59020089505E+03  0.95859292982E+02 0.  0.
         23    2    4    4    0    0  0.23280258285E+03  0.39146087599E+03  0.90888320491E+03  0.10209270502E+04  0.93726738776E+02 0.  0.
          4    1    3    3  502    0 -0.24880731256E+03 -0.17635541661E+02  0.24235425333E+03  0.34778107370E+03  0.00000000000E+00 0. -1.
         -1    1    3    3    0  502 -0.31283206762E+03  0.23222925615E+01  0.19662941239E+03  0.36950293828E+03  0.00000000000E+00 0.  1.
         11    1    5    5    0    0  0.32917127150E+03 -0.34908769392E+03  0.29376709257E+03  0.56259670165E+03  0.00000000000E+00 0. -1.
        -11    1    5    5    0    0 -0.33447417370E+00 -0.27059932970E+02  0.54442306970E+01  0.27604193398E+02  0.00000000000E+00 0.  1.
          2    1    6    6  503    0  0.20000935462E+03  0.36466761007E+03  0.86578908108E+03  0.96050868850E+03  0.00000000000E+00 0. -1.
         -2    1    6    6    0  503  0.32793228229E+02  0.26793265925E+02  0.43094123830E+02  0.60418361657E+02  0.00000000000E+00 0.  1.
<mgrwt>
<rscale>  0 0.16457933E+04</rscale>
<asrwt>0</asrwt>
<pdfrwt beam="1">  1        2 0.30580693E+00 0.16457933E+04</pdfrwt>
<pdfrwt beam="2">  1       -1 0.52410291E-01 0.16457933E+04</pdfrwt>
<totfact> 0.27097223E+01</totfact>
</mgrwt>
</event>
<event>
12    6  0.1529770E-007  0.2125263E+04  0.7818608E-02  0.8550196E-01
          2   -1    0    0  501    0  0.00000000000E+00  0.00000000000E+00  0.14507539983E+04  0.14507539983E+04  0.00000000000E+00 0. -1.
         -1   -1    0    0    0  501 -0.00000000000E+00 -0.00000000000E+00 -0.77834424680E+03  0.77834424680E+03  0.00000000000E+00 0.  1.
         24    2    1    2    0    0 -0.19498276511E+03  0.89905838444E+02  0.11571264235E+04  0.11794286178E+04  0.77517520033E+02 0.  0.
        254    2    1    2    0    0  0.19498276511E+03 -0.89905838444E+02 -0.48471667201E+03  0.10496696273E+04  0.90595515119E+03 0.  0.
         23    2    4    4    0    0 -0.94911110260E+02 -0.33039469847E+03  0.80119164983E+02  0.36455991089E+03  0.91192501902E+02 0.  0.
         23    2    4    4    0    0  0.28989387537E+03  0.24048886003E+03 -0.56483583700E+03  0.68510971646E+03  0.91991576009E+02 0.  0.
          4    1    3    3  502    0 -0.23443603418E+02  0.34091486555E+02  0.34720073223E+03  0.34965723281E+03  0.00000000000E+00 0. -1.
         -3    1    3    3    0  502 -0.17153916169E+03  0.55814351889E+02  0.80992569129E+03  0.82977138495E+03  0.00000000000E+00 0.  1.
         11    1    5    5    0    0  0.44897399534E+01 -0.10528041715E+03 -0.12173609690E+01  0.10538313891E+03  0.00000000000E+00 0.  1.
        -11    1    5    5    0    0 -0.99400850213E+02 -0.22511428132E+03  0.81336525952E+02  0.25917677198E+03  0.00000000000E+00 0. -1.
          4    1    6    6  503    0  0.29234558564E+03  0.23246799687E+03 -0.52443411356E+03  0.64384660477E+03  0.00000000000E+00 0. -1.
         -4    1    6    6    0  503 -0.24517102769E+01  0.80208631563E+01 -0.40401723440E+02  0.41263111685E+02  0.00000000000E+00 0.  1.
<mgrwt>
<rscale>  0 0.21252633E+04</rscale>
<asrwt>0</asrwt>
<pdfrwt beam="1">  1        2 0.22319292E+00 0.21252633E+04</pdfrwt>
<pdfrwt beam="2">  1       -1 0.11974527E+00 0.21252633E+04</pdfrwt>
<totfact> 0.88276809E+00</totfact>
</mgrwt>
</event>
<event>
12    6  0.1529770E-007  0.1562595E+04  0.7818608E-02  0.8843863E-01
         -1   -1    0    0    0  501 -0.00000000000E+00  0.00000000000E+00  0.88169819283E+03  0.88169819283E+03  0.00000000000E+00 0.  1.
          2   -1    0    0  501    0  0.00000000000E+00 -0.00000000000E+00 -0.69232923137E+03  0.69232923137E+03  0.00000000000E+00 0. -1.
         24    2    1    2    0    0  0.13698744774E+03  0.16884253324E+03  0.54070059741E+03  0.58760806528E+03  0.75184709026E+02 0.  0.
        254    2    1    2    0    0 -0.13698744774E+03 -0.16884253324E+03 -0.35133163595E+03  0.98641935892E+03  0.89572086689E+03 0.  0.
         23    2    4    4    0    0  0.21015613199E+03 -0.31208666456E+03 -0.44411905045E+03  0.58914213262E+03  0.91011183111E+02 0.  0.
         23    2    4    4    0    0 -0.34714357973E+03  0.14324413132E+03  0.92787414502E+02  0.39727722630E+03  0.90510464291E+02 0.  0.
          4    1    3    3  502    0 -0.48056003032E+01  0.31499625834E+02  0.59604446176E+02  0.67587056645E+02  0.00000000000E+00 0. -1.
         -3    1    3    3    0  502  0.14179304804E+03  0.13734290741E+03  0.48109615123E+03  0.52002100863E+03  0.00000000000E+00 0.  1.
         11    1    5    5    0    0  0.16855693415E+02 -0.45518751061E+01 -0.30002411444E+01  0.17715400487E+02  0.00000000000E+00 0. -1.
        -11    1    5    5    0    0  0.19330043857E+03 -0.30753478945E+03 -0.44111880931E+03  0.57142673214E+03  0.00000000000E+00 0.  1.
          3    1    6    6  503    0 -0.21556937353E+03  0.99518116683E+02  0.10179866595E+03  0.25833501261E+03  0.00000000000E+00 0.  1.
         -3    1    6    6    0  503 -0.13157420619E+03  0.43726014634E+02 -0.90112514505E+01  0.13894221369E+03  0.00000000000E+00 0. -1.
<mgrwt>
<rscale>  0 0.15625946E+04</rscale>
<asrwt>0</asrwt>
<pdfrwt beam="1">  1        2 0.10651219E+00 0.15625946E+04</pdfrwt>
<pdfrwt beam="2">  1       -1 0.13564588E+00 0.15625946E+04</pdfrwt>
<totfact> 0.20769031E+01</totfact>
</mgrwt>
</event>
<event>
12    6  0.1529770E-007  0.1317530E+04  0.7818608E-02  0.9015778E-01
          2   -1    0    0  501    0  0.00000000000E+00  0.00000000000E+00  0.27250668753E+04  0.27250668753E+04  0.00000000000E+00 0. -1.
         -1   -1    0    0    0  501 -0.00000000000E+00 -0.00000000000E+00 -0.15925156126E+03  0.15925156126E+03  0.00000000000E+00 0.  1.
         24    2    1    2    0    0 -0.13125700423E+03  0.64928011415E+02  0.17799600827E+02  0.16739792183E+03  0.79127685519E+02 0.  0.
        254    2    1    2    0    0  0.13125700423E+03 -0.64928011415E+02  0.25480157133E+04  0.27169205148E+04  0.93157337919E+03 0.  0.
         23    2    4    4    0    0 -0.42138214433E+02  0.28106753512E+03  0.20871264929E+04  0.21083698692E+04  0.91388838866E+02 0.  0.
         23    2    4    4    0    0  0.17339521867E+03 -0.34599554654E+03  0.46088922038E+03  0.60855064553E+03  0.90200857184E+02 0.  0.
          2    1    3    3  502    0 -0.21624883022E+02  0.10556472790E+02  0.36382594386E+02  0.43620727386E+02  0.00000000000E+00 0. -1.
         -1    1    3    3    0  502 -0.10963212121E+03  0.54371538625E+02 -0.18582993559E+02  0.12377719444E+03  0.00000000000E+00 0.  1.
         11    1    5    5    0    0 -0.16491452015E+02  0.29874783057E+02  0.51176875176E+03  0.51290518220E+03  0.00000000000E+00 0. -1.
        -11    1    5    5    0    0 -0.25646762418E+02  0.25119275206E+03  0.15753577411E+04  0.15954646870E+04  0.00000000000E+00 0.  1.
          2    1    6    6  503    0 -0.25601495781E+01  0.42316067121E+01  0.28507773321E+01  0.57085718551E+01  0.00000000000E+00 0. -1.
         -2    1    6    6    0  503  0.17595536825E+03 -0.35022715325E+03  0.45803844304E+03  0.60284207368E+03  0.00000000000E+00 0.  1.
<mgrwt>
<rscale>  0 0.13175297E+04</rscale>
<asrwt>0</asrwt>
<pdfrwt beam="1">  1        2 0.41924102E+00 0.13175297E+04</pdfrwt>
<pdfrwt beam="2">  1       -1 0.24500242E-01 0.13175297E+04</pdfrwt>
<totfact> 0.41777253E+01</totfact>
</mgrwt>
</event>
<event>
12    6  0.1529770E-007  0.1446797E+04  0.7818608E-02  0.8920624E-01
          2   -1    0    0  501    0  0.00000000000E+00  0.00000000000E+00  0.55344080516E+03  0.55344080516E+03  0.00000000000E+00 0. -1.
         -1   -1    0    0    0  501 -0.00000000000E+00 -0.00000000000E+00 -0.94554952944E+03  0.94554952944E+03  0.00000000000E+00 0.  1.
         24    2    1    2    0    0  0.17441743250E+03  0.35890237100E+03 -0.30124950533E+03  0.50825642274E+03  0.91328933655E+02 0.  0.
        254    2    1    2    0    0 -0.17441743250E+03 -0.35890237100E+03 -0.90859218955E+02  0.99073391186E+03  0.90225602451E+03 0.  0.
         23    2    4    4    0    0  0.52337996302E+02  0.25918496402E+03 -0.16107528162E+03  0.32237855187E+03  0.89814102024E+02 0.  0.
         23    2    4    4    0    0 -0.22675542881E+03 -0.61808733503E+03  0.70216062665E+02  0.66835536000E+03  0.91206433778E+02 0.  0.
          2    1    3    3  502    0  0.50718327526E+02  0.19824670183E+03 -0.12643807418E+03  0.24054249133E+03  0.00000000000E+00 0. -1.
         -3    1    3    3    0  502  0.12369910498E+03  0.16065566917E+03 -0.17481143115E+03  0.26771393141E+03  0.00000000000E+00 0.  1.
         11    1    5    5    0    0  0.18323523853E+02  0.49841490459E+00 -0.98939254086E+01  0.20830019294E+02  0.00000000000E+00 0.  1.
        -11    1    5    5    0    0  0.34014472449E+02  0.25868654912E+03 -0.15118135621E+03  0.30154853257E+03  0.00000000000E+00 0. -1.
          1    1    6    6  503    0 -0.39872647157E+02 -0.23127412213E+03  0.35596063463E+02  0.23737023253E+03  0.00000000000E+00 0. -1.
         -1    1    6    6    0  503 -0.18688278165E+03 -0.38681321290E+03  0.34619999201E+02  0.43098512747E+03  0.00000000000E+00 0.  1.
<mgrwt>
<rscale>  0 0.14467974E+04</rscale>
<asrwt>0</asrwt>
<pdfrwt beam="1">  1        2 0.85144739E-01 0.14467974E+04</pdfrwt>
<pdfrwt beam="2">  1       -1 0.14546916E+00 0.14467974E+04</pdfrwt>
<totfact> 0.22953516E+01</totfact>
</mgrwt>
</event>
<event>
12    6  0.1529770E-007  0.1764502E+04  0.7818608E-02  0.8725408E-01
          2   -1    0    0  501    0  0.00000000000E+00  0.00000000000E+00  0.77878505558E+03  0.77878505558E+03  0.00000000000E+00 0. -1.
         -1   -1    0    0    0  501 -0.00000000000E+00 -0.00000000000E+00 -0.99946318042E+03  0.99946318042E+03  0.00000000000E+00 0.  1.
         24    2    1    2    0    0 -0.29466686807E+03 -0.55733900330E+03 -0.23716109632E+03  0.67848280877E+03  0.81475201441E+02 0.  0.
        254    2    1    2    0    0  0.29466686807E+03  0.55733900330E+03  0.16482971473E+02  0.10997654272E+04  0.90097557061E+03 0.  0.
         23    2    4    4    0    0  0.34336314874E+03 -0.14078606766E+03  0.81945815295E+02  0.39011786686E+03  0.88078741145E+02 0.  0.
         23    2    4    4    0    0 -0.48696280670E+02  0.69812507096E+03 -0.65462843822E+02  0.70964756037E+03  0.97797410815E+02 0.  0.
          2    1    3    3  502    0 -0.25454566144E+03 -0.43185594808E+03 -0.21241177507E+03  0.54443715509E+03  0.00000000000E+00 0. -1.
         -1    1    3    3    0  502 -0.40121206628E+02 -0.12548305522E+03 -0.24749321249E+02  0.13404565368E+03  0.00000000000E+00 0.  1.
         11    1    5    5    0    0  0.14246627977E+03 -0.74355841506E+02 -0.63757229633E+01  0.16082935640E+03  0.00000000000E+00 0.  1.
        -11    1    5    5    0    0  0.20089686897E+03 -0.66430226152E+02  0.88321538258E+02  0.22928851046E+03  0.00000000000E+00 0. -1.
          1    1    6    6  503    0 -0.59172905336E+02  0.61726453709E+03 -0.84755560357E+02  0.62585976583E+03  0.00000000000E+00 0. -1.
         -1    1    6    6    0  503  0.10476624666E+02  0.80860533864E+02  0.19292716536E+02  0.83787794532E+02  0.00000000000E+00 0.  1.
<mgrwt>
<rscale>  0 0.17645022E+04</rscale>
<asrwt>0</asrwt>
<pdfrwt beam="1">  1        2 0.11981309E+00 0.17645022E+04</pdfrwt>
<pdfrwt beam="2">  1       -1 0.15376357E+00 0.17645022E+04</pdfrwt>
<totfact> 0.12585239E+01</totfact>
</mgrwt>
</event>
<event>
12    6  0.1529770E-007  0.2315990E+04  0.7818608E-02  0.8471643E-01
          2   -1    0    0  501    0  0.00000000000E+00  0.00000000000E+00  0.32318565644E+04  0.32318565644E+04  0.00000000000E+00 0. -1.
         -1   -1    0    0    0  501 -0.00000000000E+00 -0.00000000000E+00 -0.41491691952E+03  0.41491691952E+03  0.00000000000E+00 0.  1.
         24    2    1    2    0    0 -0.22845438051E+03 -0.21033958621E+02 -0.30623917157E+03  0.38985080528E+03  0.74614936738E+02 0.  0.
        254    2    1    2    0    0  0.22845438051E+03  0.21033958621E+02  0.31231788164E+04  0.32569226786E+04  0.89479918623E+03 0.  0.
         23    2    4    4    0    0  0.17073668375E+03  0.16059621060E+03  0.18287852323E+03  0.31130330987E+03  0.92320303524E+02 0.  0.
         23    2    4    4    0    0  0.57717696759E+02 -0.13956225198E+03  0.29403002932E+04  0.29456193687E+04  0.92188375585E+02 0.  0.
          2    1    3    3  502    0 -0.45332052501E+02 -0.35296511604E+02 -0.67818735967E+02  0.88883179869E+02  0.00000000000E+00 0. -1.
         -1    1    3    3    0  502 -0.18312232801E+03  0.14262552983E+02 -0.23842043560E+03  0.30096762541E+03  0.00000000000E+00 0.  1.
         11    1    5    5    0    0  0.69468132929E+02  0.10580816999E+03  0.13923763755E+03  0.18817095960E+03  0.00000000000E+00 0. -1.
        -11    1    5    5    0    0  0.10126855082E+03  0.54788040615E+02  0.43640885680E+02  0.12313235027E+03  0.00000000000E+00 0.  1.
          3    1    6    6  503    0 -0.50213232030E+01 -0.96475954589E+02  0.13186565038E+04  0.13221905303E+04  0.00000000000E+00 0. -1.
         -3    1    6    6    0  503  0.62739019962E+02 -0.43086297390E+02  0.16216437894E+04  0.16234288384E+04  0.00000000000E+00 0.  1.
<mgrwt>
<rscale>  0 0.23159896E+04</rscale>
<asrwt>0</asrwt>
<pdfrwt beam="1">  1        2 0.49720869E+00 0.23159896E+04</pdfrwt>
<pdfrwt beam="2">  1       -1 0.63833374E-01 0.23159896E+04</pdfrwt>
<totfact> 0.31730558E+00</totfact>
</mgrwt>
</event>
<event>
12    6  0.1529770E-007  0.2440976E+04  0.7818608E-02  0.8424320E-01
          2   -1    0    0  501    0  0.00000000000E+00  0.00000000000E+00  0.76212759969E+03  0.76212759969E+03  0.00000000000E+00 0. -1.
         -1   -1    0    0    0  501 -0.00000000000E+00 -0.00000000000E+00 -0.19545157496E+04  0.19545157496E+04  0.00000000000E+00 0.  1.
         24    2    1    2    0    0 -0.24916313749E+03  0.40084004079E+03 -0.15709377348E+04  0.16423366806E+04  0.81666385266E+02 0.  0.
        254    2    1    2    0    0  0.24916313749E+03 -0.40084004079E+03  0.37854958486E+03  0.10743066687E+04  0.88773871317E+03 0.  0.
         23    2    4    4    0    0  0.66817059648E+02  0.27606324853E+03  0.12005616585E+03  0.32161222040E+03  0.91353712055E+02 0.  0.
         23    2    4    4    0    0  0.18234607784E+03 -0.67690328931E+03  0.25849341901E+03  0.75269444831E+03  0.91005107869E+02 0.  0.
          4    1    3    3  502    0 -0.39089171748E+02  0.40542307221E+02 -0.28314311316E+03  0.28868956433E+03  0.00000000000E+00 0. -1.
         -3    1    3    3    0  502 -0.21007396574E+03  0.36029773357E+03 -0.12877946217E+04  0.13536471163E+04  0.00000000000E+00 0.  1.
         11    1    5    5    0    0  0.40568435476E+02  0.25451216454E+03  0.12641583472E+03  0.28705958114E+03  0.00000000000E+00 0. -1.
        -11    1    5    5    0    0  0.26248624172E+02  0.21551083984E+02 -0.63596688687E+01  0.34552639261E+02  0.00000000000E+00 0.  1.
          1    1    6    6  503    0  0.97232072629E+02 -0.26444684960E+03  0.64646444972E+02  0.28907676326E+03  0.00000000000E+00 0. -1.
         -1    1    6    6    0  503  0.85114005210E+02 -0.41245643971E+03  0.19384697404E+03  0.46361768505E+03  0.00000000000E+00 0.  1.
<mgrwt>
<rscale>  0 0.24409755E+04</rscale>
<asrwt>0</asrwt>
<pdfrwt beam="1">  1        2 0.11725040E+00 0.24409755E+04</pdfrwt>
<pdfrwt beam="2">  1       -1 0.30069472E+00 0.24409755E+04</pdfrwt>
<totfact> 0.12272835E+00</totfact>
</mgrwt>
</event>
<event>
12    6  0.1529770E-007  0.1011630E+04  0.7818608E-02  0.9295880E-01
          2   -1    0    0  501    0  0.00000000000E+00  0.00000000000E+00  0.24066612778E+03  0.24066612778E+03  0.00000000000E+00 0. -1.
         -1   -1    0    0    0  501 -0.00000000000E+00 -0.00000000000E+00 -0.10630861110E+04  0.10630861110E+04  0.00000000000E+00 0.  1.
         24    2    1    2    0    0  0.52408985303E+02  0.38881781542E+02 -0.11494449423E+03  0.15427468870E+03  0.79560971229E+02 0.  0.
        254    2    1    2    0    0 -0.52408985303E+02 -0.38881781542E+02 -0.70747548896E+03  0.11494775501E+04  0.90361417426E+03 0.  0.
         23    2    4    4    0    0  0.35831430765E+03 -0.22956684393E+03 -0.26391044165E+03  0.50891981535E+03  0.90887723792E+02 0.  0.
         23    2    4    4    0    0 -0.41072329296E+03  0.19068506239E+03 -0.44356504731E+03  0.64055773471E+03  0.92248815203E+02 0.  0.
          4    1    3    3  502    0  0.55520600064E+02  0.42698127946E+02 -0.43052506166E+02  0.82214265482E+02  0.00000000000E+00 0. -1.
         -3    1    3    3    0  502 -0.31116147614E+01 -0.38163464036E+01 -0.71891988067E+02  0.72060423219E+02  0.00000000000E+00 0.  1.
         11    1    5    5    0    0  0.95324087990E+02 -0.64931500374E+02 -0.12150098377E+03  0.16752692485E+03  0.00000000000E+00 0.  1.
        -11    1    5    5    0    0  0.26299021966E+03 -0.16463534356E+03 -0.14240945788E+03  0.34139289050E+03  0.00000000000E+00 0. -1.
          4    1    6    6  503    0 -0.16346375518E+03  0.57463355208E+02 -0.11335175599E+03  0.20705327101E+03  0.00000000000E+00 0.  1.
         -4    1    6    6    0  503 -0.24725953778E+03  0.13322170718E+03 -0.33021329132E+03  0.43350446370E+03  0.00000000000E+00 0. -1.
<mgrwt>
<rscale>  0 0.10116300E+04</rscale>
<asrwt>0</asrwt>
<pdfrwt beam="1">  1        2 0.37025559E-01 0.10116300E+04</pdfrwt>
<pdfrwt beam="2">  1       -1 0.16355170E+00 0.10116300E+04</pdfrwt>
<totfact> 0.44191797E+01</totfact>
</mgrwt>
</event>
<event>
12    6  0.1529770E-007  0.1602765E+04  0.7818608E-02  0.8818851E-01
          2   -1    0    0  501    0  0.00000000000E+00  0.00000000000E+00  0.11583062152E+04  0.11583062152E+04  0.00000000000E+00 0. -1.
         -1   -1    0    0    0  501 -0.00000000000E+00 -0.00000000000E+00 -0.55444229807E+03  0.55444229807E+03  0.00000000000E+00 0.  1.
         24    2    1    2    0    0  0.68026061555E+02  0.18774048333E+03  0.75178519615E+03  0.78235550255E+03  0.83815971572E+02 0.  0.
        254    2    1    2    0    0 -0.68026061555E+02 -0.18774048333E+03 -0.14792127900E+03  0.93039301075E+03  0.89659155447E+03 0.  0.
         23    2    4    4    0    0  0.31831272320E+03 -0.14296574089E+03 -0.33228834907E+03  0.49058447363E+03  0.92170418363E+02 0.  0.
         23    2    4    4    0    0 -0.38633878476E+03 -0.44774742433E+02  0.18436707007E+03  0.43980853711E+03  0.90431734599E+02 0.  0.
          4    1    3    3  502    0  0.73007797764E+02  0.10975131092E+03  0.55904084679E+03  0.57437109708E+03  0.00000000000E+00 0. -1.
         -3    1    3    3    0  502 -0.49817362090E+01  0.77989172404E+02  0.19274434936E+03  0.20798440547E+03  0.00000000000E+00 0.  1.
         11    1    5    5    0    0  0.22151550168E+03 -0.10254700598E+03 -0.17044004958E+03  0.29771599960E+03  0.00000000000E+00 0.  1.
        -11    1    5    5    0    0  0.96797221526E+02 -0.40418734912E+02 -0.16184829949E+03  0.19286847403E+03  0.00000000000E+00 0. -1.
          1    1    6    6  503    0 -0.84146718737E+02 -0.17978084850E+00  0.82403626792E+02  0.11777546563E+03  0.00000000000E+00 0. -1.
         -1    1    6    6    0  503 -0.30219206602E+03 -0.44594961585E+02  0.10196344328E+03  0.32203307149E+03  0.00000000000E+00 0.  1.
<mgrwt>
<rscale>  0 0.16027651E+04</rscale>
<asrwt>0</asrwt>
<pdfrwt beam="1">  1        2 0.17820096E+00 0.16027651E+04</pdfrwt>
<pdfrwt beam="2">  1       -1 0.85298816E-01 0.16027651E+04</pdfrwt>
<totfact> 0.29815612E+01</totfact>
</mgrwt>
</event>
<event>
12    6  0.1529770E-007  0.2298140E+04  0.7818608E-02  0.8478655E-01
         -1   -1    0    0    0  501 -0.00000000000E+00  0.00000000000E+00  0.66250946318E+03  0.66250946318E+03  0.00000000000E+00 0.  1.
          2   -1    0    0  501    0  0.00000000000E+00 -0.00000000000E+00 -0.19929697479E+04  0.19929697479E+04  0.00000000000E+00 0. -1.
         24    2    1    2    0    0  0.10433233532E+03 -0.27974036230E+03 -0.16332417603E+04  0.16622079464E+04  0.79477688702E+02 0.  0.
        254    2    1    2    0    0 -0.10433233532E+03  0.27974036230E+03  0.30278147557E+03  0.99327126469E+03  0.89764763511E+03 0.  0.
         23    2    4    4    0    0 -0.86337956131E+00 -0.30093677776E+03 -0.19570697539E+02  0.31489544213E+03  0.90622500747E+02 0.  0.
         23    2    4    4    0    0 -0.10346895576E+03  0.58067714006E+03  0.32235217311E+03  0.67837582256E+03  0.91602769245E+02 0.  0.
          2    1    3    3  502    0  0.39800494804E+02 -0.19452157592E+03 -0.11754844709E+04  0.11921352542E+04  0.00000000000E+00 0. -1.
         -1    1    3    3    0  502  0.64531840515E+02 -0.85218786383E+02 -0.45775728939E+03  0.47007269223E+03  0.00000000000E+00 0.  1.
         11    1    5    5    0    0  0.26402856939E+02 -0.27623330539E+03 -0.17608237374E+02  0.27805035494E+03  0.00000000000E+00 0.  1.
        -11    1    5    5    0    0 -0.27266236501E+02 -0.24703472367E+02 -0.19624601652E+01  0.36845087187E+02  0.00000000000E+00 0. -1.
          1    1    6    6  503    0 -0.72240763688E+02  0.16729777238E+03  0.92497154459E+02  0.20435996713E+03  0.00000000000E+00 0. -1.
         -1    1    6    6    0  503 -0.31228192071E+02  0.41337936768E+03  0.22985501865E+03  0.47401585543E+03  0.00000000000E+00 0.  1.
<mgrwt>
<rscale>  0 0.22981395E+04</rscale>
<asrwt>0</asrwt>
<pdfrwt beam="1">  1        2 0.30661072E+00 0.22981395E+04</pdfrwt>
<pdfrwt beam="2">  1       -1 0.10192454E+00 0.22981395E+04</pdfrwt>
<totfact> 0.63460450E+00</totfact>
</mgrwt>
</event>
<event>
12    6  0.1529770E-007  0.2098393E+04  0.7818608E-02  0.8561952E-01
         -1   -1    0    0    0  501 -0.00000000000E+00  0.00000000000E+00  0.13567412024E+04  0.13567412024E+04  0.00000000000E+00 0.  1.
          2   -1    0    0  501    0  0.00000000000E+00 -0.00000000000E+00 -0.81136572708E+03  0.81136572708E+03  0.00000000000E+00 0. -1.
         24    2    1    2    0    0 -0.68703569422E+03 -0.50822637984E+03  0.29491568150E+03  0.90764409843E+03  0.80811211624E+02 0.  0.
        254    2    1    2    0    0  0.68703569422E+03  0.50822637984E+03  0.25045979386E+03  0.12604628311E+04  0.89203382330E+03 0.  0.
         23    2    4    4    0    0 -0.34619832178E+02 -0.85363591476E+02  0.29373149780E+03  0.32111217997E+03  0.91374853175E+02 0.  0.
         23    2    4    4    0    0  0.72165552640E+03  0.59358997132E+03 -0.43271703944E+02  0.93935065112E+03  0.85857163731E+02 0.  0.
          4    1    3    3  502    0 -0.56033655651E+03 -0.38314358492E+03  0.21118412478E+03  0.71089717807E+03  0.00000000000E+00 0. -1.
         -1    1    3    3    0  502 -0.12669913771E+03 -0.12508279492E+03  0.83731556722E+02  0.19674692036E+03  0.00000000000E+00 0.  1.
         11    1    5    5    0    0  0.23558632781E+02 -0.12471427070E+02  0.12979261219E+03  0.13250157679E+03  0.00000000000E+00 0.  1.
        -11    1    5    5    0    0 -0.58178464958E+02 -0.72892164406E+02  0.16393888561E+03  0.18861060318E+03  0.00000000000E+00 0. -1.
          1    1    6    6  503    0  0.15601541799E+03  0.13050572089E+03  0.25975958808E+02  0.20505439344E+03  0.00000000000E+00 0. -1.
         -1    1    6    6    0  503  0.56564010842E+03  0.46308425042E+03 -0.69247662752E+02  0.73429625768E+03  0.00000000000E+00 0.  1.
<mgrwt>
<rscale>  0 0.20983930E+04</rscale>
<asrwt>0</asrwt>
<pdfrwt beam="1">  1        2 0.12482550E+00 0.20983930E+04</pdfrwt>
<pdfrwt beam="2">  1       -1 0.20872941E+00 0.20983930E+04</pdfrwt>
<totfact> 0.46616380E+00</totfact>
</mgrwt>
</event>
<event>
12    6  0.1529770E-007  0.1623656E+04  0.7818608E-02  0.8806146E-01
         -1   -1    0    0    0  501 -0.00000000000E+00  0.00000000000E+00  0.27126840902E+03  0.27126840902E+03  0.00000000000E+00 0.  1.
          2   -1    0    0  501    0  0.00000000000E+00 -0.00000000000E+00 -0.24295653864E+04  0.24295653864E+04  0.00000000000E+00 0. -1.
         24    2    1    2    0    0 -0.59687248832E+02 -0.18368388841E+03  0.12253008593E+03  0.24225377152E+03  0.79818101470E+02 0.  0.
        254    2    1    2    0    0  0.59687248832E+02  0.18368388841E+03 -0.22808270633E+04  0.24585800239E+04  0.89729666369E+03 0.  0.
         23    2    4    4    0    0 -0.10821673482E+03  0.41934721749E+03 -0.57526882734E+03  0.72626246565E+03  0.94657249036E+02 0.  0.
         23    2    4    4    0    0  0.16790398365E+03 -0.23566332908E+03 -0.17055582360E+04  0.17323175583E+04  0.90919051628E+02 0.  0.
          4    1    3    3  502    0  0.77189858057E+01  0.10804012086E+01  0.17799257583E+02  0.19430995320E+02  0.00000000000E+00 0. -1.
         -3    1    3    3    0  502 -0.67406234638E+02 -0.18476428962E+03  0.10473082835E+03  0.22282277620E+03  0.00000000000E+00 0.  1.
         11    1    5    5    0    0 -0.11152670090E+03  0.42262519561E+03 -0.57392246062E+03  0.72141337095E+03  0.00000000000E+00 0.  1.
        -11    1    5    5    0    0  0.33099660825E+01 -0.32779781275E+01 -0.13463667210E+01  0.48490947010E+01  0.00000000000E+00 0. -1.
          2    1    6    6  503    0  0.20405545516E+02  0.24879831094E+00 -0.21883747819E+03  0.21978691964E+03  0.00000000000E+00 0. -1.
         -2    1    6    6    0  503  0.14749843814E+03 -0.23591212739E+03 -0.14867207578E+04  0.15125306386E+04  0.00000000000E+00 0.  1.
<mgrwt>
<rscale>  0 0.16236556E+04</rscale>
<asrwt>0</asrwt>
<pdfrwt beam="1">  1        2 0.37377931E+00 0.16236556E+04</pdfrwt>
<pdfrwt beam="2">  1       -1 0.41733600E-01 0.16236556E+04</pdfrwt>
<totfact> 0.23515640E+01</totfact>
</mgrwt>
</event>
<event>
12    6  0.1529770E-007  0.1250692E+04  0.7818608E-02  0.9069608E-01
          2   -1    0    0  501    0  0.00000000000E+00  0.00000000000E+00  0.97097720036E+03  0.97097720036E+03  0.00000000000E+00 0. -1.
         -1   -1    0    0    0  501 -0.00000000000E+00 -0.00000000000E+00 -0.40274623405E+03  0.40274623405E+03  0.00000000000E+00 0.  1.
         24    2    1    2    0    0  0.10828296814E+03 -0.88337362623E+02  0.42285126678E+03  0.45223695028E+03  0.78653509519E+02 0.  0.
        254    2    1    2    0    0 -0.10828296814E+03  0.88337362623E+02  0.14537969953E+03  0.92148648413E+03  0.89915148477E+03 0.  0.
         23    2    4    4    0    0 -0.15444516543E+03 -0.34461082532E+03  0.25304081166E+03  0.46373866422E+03  0.91727674567E+02 0.  0.
         23    2    4    4    0    0  0.46162197286E+02  0.43294818794E+03 -0.10766111213E+03  0.45774781990E+03  0.91471687772E+02 0.  0.
          4    1    3    3  502    0  0.61182646585E+02 -0.11508123311E+01  0.15497855151E+03  0.16662230355E+03  0.00000000000E+00 0. -1.
         -3    1    3    3    0  502  0.47100321555E+02 -0.87186550292E+02  0.26787271527E+03  0.28561464673E+03  0.00000000000E+00 0.  1.
         11    1    5    5    0    0 -0.10666725690E+03 -0.28774689987E+03  0.23702780041E+03  0.38776069972E+03  0.00000000000E+00 0. -1.
        -11    1    5    5    0    0 -0.47777908532E+02 -0.56863925449E+02  0.16013011244E+02  0.75977964504E+02  0.00000000000E+00 0.  1.
          4    1    6    6  503    0  0.18419070621E+02  0.40346914444E+03 -0.91263604321E+02  0.41407204464E+03  0.00000000000E+00 0. -1.
         -4    1    6    6    0  503  0.27743126665E+02  0.29479043502E+02 -0.16397507808E+02  0.43675775267E+02  0.00000000000E+00 0.  1.
<mgrwt>
<rscale>  0 0.12506917E+04</rscale>
<asrwt>0</asrwt>
<pdfrwt beam="1">  1        2 0.14938111E+00 0.12506917E+04</pdfrwt>
<pdfrwt beam="2">  1       -1 0.61960959E-01 0.12506917E+04</pdfrwt>
<totfact> 0.77974334E+01</totfact>
</mgrwt>
</event>
<event>
12    6  0.1529770E-007  0.2182310E+04  0.7818608E-02  0.8525827E-01
          2   -1    0    0  501    0  0.00000000000E+00  0.00000000000E+00  0.17212831428E+04  0.17212831428E+04  0.00000000000E+00 0. -1.
         -1   -1    0    0    0  501 -0.00000000000E+00 -0.00000000000E+00 -0.69170464393E+03  0.69170464393E+03  0.00000000000E+00 0.  1.
         24    2    1    2    0    0  0.53843608928E+02  0.13617764377E+03 -0.55730661397E+03  0.58186375119E+03  0.80816323126E+02 0.  0.
        254    2    1    2    0    0 -0.53843608928E+02 -0.13617764377E+03  0.15868851128E+04  0.18311240355E+04  0.90186883043E+03 0.  0.
         23    2    4    4    0    0  0.26688897945E+03 -0.27004257096E+03  0.13393707089E+04  0.13950605870E+04  0.90152250391E+02 0.  0.
         23    2    4    4    0    0 -0.32073258837E+03  0.13386492719E+03  0.24751440398E+03  0.43606344852E+03  0.89992994057E+02 0.  0.
          4    1    3    3  502    0 -0.58766899280E+01  0.12052687340E+02 -0.81413067594E+01  0.15687053018E+02  0.00000000000E+00 0. -1.
         -3    1    3    3    0  502  0.59720298856E+02  0.12412495643E+03 -0.54916530721E+03  0.56617669817E+03  0.00000000000E+00 0.  1.
         11    1    5    5    0    0  0.11324444270E+03 -0.14132669148E+03  0.78348545695E+03  0.80414364313E+03  0.00000000000E+00 0. -1.
        -11    1    5    5    0    0  0.15364453674E+03 -0.12871587948E+03  0.55588525190E+03  0.59091694389E+03  0.00000000000E+00 0.  1.
          4    1    6    6  503    0 -0.32269795101E+03  0.13909684189E+03  0.23608718061E+03  0.42334271679E+03  0.00000000000E+00 0. -1.
         -4    1    6    6    0  503  0.19653626401E+01 -0.52319146982E+01  0.11427223370E+02  0.12720731727E+02  0.00000000000E+00 0.  1.
<mgrwt>
<rscale>  0 0.21823103E+04</rscale>
<asrwt>0</asrwt>
<pdfrwt beam="1">  1        2 0.26481279E+00 0.21823103E+04</pdfrwt>
<pdfrwt beam="2">  1       -1 0.10641610E+00 0.21823103E+04</pdfrwt>
<totfact> 0.82074202E+00</totfact>
</mgrwt>
</event>
<event>
12    6  0.1529770E-007  0.1601468E+04  0.7818608E-02  0.8819647E-01
         -1   -1    0    0    0  501 -0.00000000000E+00  0.00000000000E+00  0.40721731348E+03  0.40721731348E+03  0.00000000000E+00 0.  1.
          2   -1    0    0  501    0  0.00000000000E+00 -0.00000000000E+00 -0.15745267984E+04  0.15745267984E+04  0.00000000000E+00 0. -1.
         24    2    1    2    0    0 -0.43578432336E+03  0.62337711125E+02 -0.11835632592E+02  0.44763902498E+03  0.80291019270E+02 0.  0.
        254    2    1    2    0    0  0.43578432336E+03 -0.62337711125E+02 -0.11554738523E+04  0.15341050869E+04  0.90805540996E+03 0.  0.
         23    2    4    4    0    0 -0.21660505419E+02 -0.19486727375E+03  0.60767893398E+02  0.22474368107E+03  0.91512586231E+02 0.  0.
         23    2    4    4    0    0  0.45744482877E+03  0.13252956263E+03 -0.12162417457E+04  0.13093614058E+04  0.91451903772E+02 0.  0.
          4    1    3    3  502    0 -0.55670062397E+02  0.36332525547E+02 -0.23031789587E+01  0.66517012059E+02  0.00000000000E+00 0. -1.
         -3    1    3    3    0  502 -0.38011426096E+03  0.26005185578E+02 -0.95324536337E+01  0.38112201292E+03  0.00000000000E+00 0.  1.
         11    1    5    5    0    0  0.60218701338E+01 -0.21745107003E+02  0.42953882477E+02  0.48519569437E+02  0.00000000000E+00 0. -1.
        -11    1    5    5    0    0 -0.27682375553E+02 -0.17312216675E+03  0.17814010921E+02  0.17622411164E+03  0.00000000000E+00 0.  1.
          4    1    6    6  503    0  0.76391536729E+02 -0.10827884327E+02 -0.22021027265E+03  0.23333553982E+03  0.00000000000E+00 0. -1.
         -4    1    6    6    0  503  0.38105329205E+03  0.14335744696E+03 -0.99603147307E+03  0.10760258660E+04  0.00000000000E+00 0.  1.
<mgrwt>
<rscale>  0 0.16014675E+04</rscale>
<asrwt>0</asrwt>
<pdfrwt beam="1">  1        2 0.24223489E+00 0.16014675E+04</pdfrwt>
<pdfrwt beam="2">  1       -1 0.62648817E-01 0.16014675E+04</pdfrwt>
<totfact> 0.32534968E+01</totfact>
</mgrwt>
</event>
<event>
12    6  0.1529770E-007  0.1374170E+04  0.7818608E-02  0.8972731E-01
         -1   -1    0    0    0  501 -0.00000000000E+00  0.00000000000E+00  0.40765707778E+03  0.40765707778E+03  0.00000000000E+00 0.  1.
          2   -1    0    0  501    0  0.00000000000E+00 -0.00000000000E+00 -0.11580455832E+04  0.11580455832E+04  0.00000000000E+00 0. -1.
         24    2    1    2    0    0  0.75756002367E+02  0.35832852244E+03 -0.26432508115E+03  0.45856713904E+03  0.79232383492E+02 0.  0.
        254    2    1    2    0    0 -0.75756002367E+02 -0.35832852244E+03 -0.48606342430E+03  0.11071355220E+04  0.92485302057E+03 0.  0.
         23    2    4    4    0    0 -0.25152412865E+03 -0.61393169533E+03 -0.29331350125E+03  0.73069796975E+03  0.87807739756E+02 0.  0.
         23    2    4    4    0    0  0.17576812628E+03  0.25560317289E+03 -0.19274992305E+03  0.37643755221E+03  0.91242981494E+02 0.  0.
          2    1    3    3  502    0  0.13223241515E+02  0.97418480668E+02 -0.31223842472E+02  0.10315106800E+03  0.00000000000E+00 0. -1.
         -1    1    3    3    0  502  0.62532760852E+02  0.26091004178E+03 -0.23310123867E+03  0.35541607104E+03  0.00000000000E+00 0.  1.
         11    1    5    5    0    0 -0.11086209310E+03 -0.34844931262E+03 -0.19605736363E+03  0.41490458782E+03  0.00000000000E+00 0. -1.
        -11    1    5    5    0    0 -0.14066203555E+03 -0.26548238271E+03 -0.97256137620E+02  0.31579338194E+03  0.00000000000E+00 0.  1.
          2    1    6    6  503    0  0.25913353073E+02  0.11478195853E+03 -0.67412481074E+02  0.13561284038E+03  0.00000000000E+00 0. -1.
         -2    1    6    6    0  503  0.14985477321E+03  0.14082121435E+03 -0.12533744198E+03  0.24082471183E+03  0.00000000000E+00 0.  1.
<mgrwt>
<rscale>  0 0.13741695E+04</rscale>
<asrwt>0</asrwt>
<pdfrwt beam="1">  1        2 0.17816086E+00 0.13741695E+04</pdfrwt>
<pdfrwt beam="2">  1       -1 0.62716474E-01 0.13741695E+04</pdfrwt>
<totfact> 0.57563398E+01</totfact>
</mgrwt>
</event>
<event>
12    6  0.1529770E-007  0.3061352E+04  0.7818608E-02  0.8226425E-01
         -1   -1    0    0    0  501 -0.00000000000E+00  0.00000000000E+00  0.65292004580E+03  0.65292004580E+03  0.00000000000E+00 0.  1.
          2   -1    0    0  501    0  0.00000000000E+00 -0.00000000000E+00 -0.35884462315E+04  0.35884462315E+04  0.00000000000E+00 0. -1.
         24    2    1    2    0    0 -0.21035644842E+03 -0.13797661158E+04 -0.16942884539E+04  0.21964873527E+04  0.77064620012E+02 0.  0.
        254    2    1    2    0    0  0.21035644842E+03  0.13797661158E+04 -0.12412377318E+04  0.20448789247E+04  0.83237872384E+03 0.  0.
         23    2    4    4    0    0  0.57091994095E+02  0.13928740737E+04 -0.12385667542E+04  0.18670211431E+04  0.91447597946E+02 0.  0.
         23    2    4    4    0    0  0.15326445432E+03 -0.13107957933E+02 -0.26709776346E+01  0.17785778155E+03  0.89243738240E+02 0.  0.
          2    1    3    3  502    0 -0.20776408225E+03 -0.12107584024E+04 -0.15051285807E+04  0.19428108162E+04  0.00000000000E+00 0. -1.
         -1    1    3    3    0  502 -0.25923661695E+01 -0.16900771342E+03 -0.18915987318E+03  0.25367653652E+03  0.00000000000E+00 0.  1.
         11    1    5    5    0    0  0.77126645255E+02  0.82505064866E+03 -0.71862524805E+03  0.10968497342E+04  0.00000000000E+00 0.  1.
        -11    1    5    5    0    0 -0.20034651159E+02  0.56782342509E+03 -0.51994150613E+03  0.77017140892E+03  0.00000000000E+00 0. -1.
          4    1    6    6  503    0  0.26673555534E+02  0.32517492489E+02 -0.95188722189E+01  0.43121628111E+02  0.00000000000E+00 0. -1.
         -4    1    6    6    0  503  0.12659089879E+03 -0.45625450422E+02  0.68478945843E+01  0.13473615344E+03  0.00000000000E+00 0.  1.
<mgrwt>
<rscale>  0 0.30613516E+04</rscale>
<asrwt>0</asrwt>
<pdfrwt beam="1">  1        2 0.55206863E+00 0.30613516E+04</pdfrwt>
<pdfrwt beam="2">  1       -1 0.10044924E+00 0.30613516E+04</pdfrwt>
<totfact> 0.64162429E-01</totfact>
</mgrwt>
</event>
<event>
12    6  0.1529770E-007  0.1376004E+04  0.7818608E-02  0.8971373E-01
          2   -1    0    0  501    0  0.00000000000E+00  0.00000000000E+00  0.36702954125E+03  0.36702954125E+03  0.00000000000E+00 0. -1.
         -1   -1    0    0    0  501 -0.00000000000E+00 -0.00000000000E+00 -0.12896698792E+04  0.12896698792E+04  0.00000000000E+00 0.  1.
         24    2    1    2    0    0  0.18080395534E+03 -0.25280221544E+03  0.35267320707E+02  0.32619958996E+03  0.92538414639E+02 0.  0.
        254    2    1    2    0    0 -0.18080395534E+03  0.25280221544E+03 -0.95790765867E+03  0.13304998305E+04  0.86950772626E+03 0.  0.
         23    2    4    4    0    0  0.64539358340E+02  0.38458019723E+03 -0.84608918823E+02  0.40934928821E+03  0.91328603078E+02 0.  0.
         23    2    4    4    0    0 -0.24534331368E+03 -0.13177798178E+03 -0.87329873985E+03  0.92115054229E+03  0.91152918227E+02 0.  0.
          2    1    3    3  502    0  0.10619524219E+03 -0.18281015590E+03  0.62268593234E+02  0.22039591708E+03  0.00000000000E+00 0. -1.
         -1    1    3    3    0  502  0.74608713150E+02 -0.69992059545E+02 -0.27001272528E+02  0.10580367288E+03  0.00000000000E+00 0.  1.
         11    1    5    5    0    0  0.24019458879E+02  0.13032797487E+03 -0.73744498997E+02  0.15165937680E+03  0.00000000000E+00 0. -1.
        -11    1    5    5    0    0  0.40519899461E+02  0.25425222235E+03 -0.10864419826E+02  0.25768991141E+03  0.00000000000E+00 0.  1.
          1    1    6    6  503    0 -0.93152307607E+02 -0.82173019866E+02 -0.27398157296E+03  0.30082496560E+03  0.00000000000E+00 0. -1.
         -1    1    6    6    0  503 -0.15219100607E+03 -0.49604961917E+02 -0.59931716689E+03  0.62032557670E+03  0.00000000000E+00 0.  1.
<mgrwt>
<rscale>  0 0.13760043E+04</rscale>
<asrwt>0</asrwt>
<pdfrwt beam="1">  1        2 0.56466084E-01 0.13760043E+04</pdfrwt>
<pdfrwt beam="2">  1       -1 0.19841075E+00 0.13760043E+04</pdfrwt>
<totfact> 0.15091228E+01</totfact>
</mgrwt>
</event>
<event>
12    6  0.1529770E-007  0.1558674E+04  0.7818608E-02  0.8846346E-01
         -1   -1    0    0    0  501 -0.00000000000E+00  0.00000000000E+00  0.66009984191E+03  0.66009984191E+03  0.00000000000E+00 0.  1.
          2   -1    0    0  501    0  0.00000000000E+00 -0.00000000000E+00 -0.92011225909E+03  0.92011225909E+03  0.00000000000E+00 0. -1.
         24    2    1    2    0    0 -0.16150020713E+03 -0.52308944751E+02 -0.58197209531E+03  0.61131290933E+03  0.78698226065E+02 0.  0.
        254    2    1    2    0    0  0.16150020713E+03  0.52308944751E+02  0.32195967812E+03  0.96889919168E+03  0.89793600367E+03 0.  0.
         23    2    4    4    0    0  0.36263742979E+03  0.32659933335E+03  0.89350906438E+01  0.49666894520E+03  0.91799647381E+02 0.  0.
         23    2    4    4    0    0 -0.20113722266E+03 -0.27429038860E+03  0.31302458748E+03  0.47223024647E+03  0.96569217169E+02 0.  0.
          4    1    3    3  502    0 -0.12111040476E+03 -0.68335296715E+02 -0.49392468175E+03  0.51312672330E+03  0.00000000000E+00 0. -1.
         -3    1    3    3    0  502 -0.40389802368E+02  0.16026351964E+02 -0.88047413558E+02  0.98186186029E+02  0.00000000000E+00 0.  1.
         11    1    5    5    0    0  0.33592284660E+03  0.31881542454E+03  0.26292394032E+02  0.46387360754E+03  0.00000000000E+00 0. -1.
        -11    1    5    5    0    0  0.26714583192E+02  0.77839088051E+01 -0.17357303388E+02  0.32795337661E+02  0.00000000000E+00 0.  1.
          3    1    6    6  503    0 -0.93914241666E+02 -0.86194160200E+02  0.65299973686E+02  0.14322501389E+03  0.00000000000E+00 0. -1.
         -3    1    6    6    0  503 -0.10722298099E+03 -0.18809622840E+03  0.24772461379E+03  0.32900523258E+03  0.00000000000E+00 0.  1.
<mgrwt>
<rscale>  0 0.15586737E+04</rscale>
<asrwt>0</asrwt>
<pdfrwt beam="1">  1        2 0.14155573E+00 0.15586737E+04</pdfrwt>
<pdfrwt beam="2">  1       -1 0.10155382E+00 0.15586737E+04</pdfrwt>
<totfact> 0.28708636E+01</totfact>
</mgrwt>
</event>
<event>
12    6  0.1529770E-007  0.1816095E+04  0.7818608E-02  0.8697787E-01
         -1   -1    0    0    0  501 -0.00000000000E+00  0.00000000000E+00  0.98007931107E+03  0.98007931107E+03  0.00000000000E+00 0.  1.
          2   -1    0    0  501    0  0.00000000000E+00 -0.00000000000E+00 -0.84130977450E+03  0.84130977450E+03  0.00000000000E+00 0. -1.
         24    2    1    2    0    0 -0.24634713506E+03 -0.56843458850E+03  0.33199500099E+03  0.70756335780E+03  0.81366038764E+02 0.  0.
        254    2    1    2    0    0  0.24634713506E+03  0.56843458850E+03 -0.19322546441E+03  0.11138257278E+04  0.90524409933E+03 0.  0.
         23    2    4    4    0    0 -0.57814875741E+01 -0.21122603869E+03 -0.17056194204E+03  0.28917252906E+03  0.99395726634E+02 0.  0.
         23    2    4    4    0    0  0.25212862263E+03  0.77966062719E+03 -0.22663522377E+02  0.82465319871E+03  0.89998483036E+02 0.  0.
          2    1    3    3  502    0 -0.13006391882E+03 -0.23797408514E+03  0.10896211236E+03  0.29226876349E+03  0.00000000000E+00 0. -1.
         -1    1    3    3    0  502 -0.11628321624E+03 -0.33046050336E+03  0.22303288863E+03  0.41529459431E+03  0.00000000000E+00 0.  1.
         11    1    5    5    0    0 -0.10547267198E+02 -0.68812878473E+01  0.10279766025E+02  0.16256400503E+02  0.00000000000E+00 0.  1.
        -11    1    5    5    0    0  0.47657796240E+01 -0.20434475084E+03 -0.18084170806E+03  0.27291612856E+03  0.00000000000E+00 0. -1.
          4    1    6    6  503    0  0.14950949508E+03  0.34448601119E+03 -0.36718143345E+02  0.37732204160E+03  0.00000000000E+00 0.  1.
         -4    1    6    6    0  503  0.10261912756E+03  0.43517461599E+03  0.14054620967E+02  0.44733115711E+03  0.00000000000E+00 0. -1.
<mgrwt>
<rscale>  0 0.18160950E+04</rscale>
<asrwt>0</asrwt>
<pdfrwt beam="1">  1        2 0.12943227E+00 0.18160950E+04</pdfrwt>
<pdfrwt beam="2">  1       -1 0.15078143E+00 0.18160950E+04</pdfrwt>
<totfact> 0.11917084E+01</totfact>
</mgrwt>
</event>
<event>
12    6  0.1529770E-007  0.1934791E+04  0.7818608E-02  0.8637730E-01
         -1   -1    0    0    0  501 -0.00000000000E+00  0.00000000000E+00  0.49760440474E+03  0.49760440474E+03  0.00000000000E+00 0.  1.
          2   -1    0    0  501    0  0.00000000000E+00 -0.00000000000E+00 -0.18807182140E+04  0.18807182140E+04  0.00000000000E+00 0. -1.
         24    2    1    2    0    0 -0.34735876941E+03 -0.60788860667E+03 -0.19798897967E+03  0.73196225575E+03  0.79890143106E+02 0.  0.
        254    2    1    2    0    0  0.34735876941E+03  0.60788860667E+03 -0.11851248296E+04  0.16463603630E+04  0.90321365707E+03 0.  0.
         23    2    4    4    0    0  0.52683359653E+03  0.30417898937E+03 -0.29043274859E+03  0.68019848135E+03  0.90776079264E+02 0.  0.
         23    2    4    4    0    0 -0.17947482712E+03  0.30370961730E+03 -0.89469208102E+03  0.96616188165E+03  0.92434390321E+02 0.  0.
          2    1    3    3  502    0 -0.12481888392E+03 -0.15390028891E+03 -0.72723258056E+02  0.21107753309E+03  0.00000000000E+00 0. -1.
         -1    1    3    3    0  502 -0.22253988548E+03 -0.45398831776E+03 -0.12526572161E+03  0.52088472266E+03  0.00000000000E+00 0.  1.
         11    1    5    5    0    0  0.48080650846E+03  0.25789188102E+03 -0.23307230307E+03  0.59330078319E+03  0.00000000000E+00 0.  1.
        -11    1    5    5    0    0  0.46027088077E+02  0.46287108347E+02 -0.57360445515E+02  0.86897698161E+02  0.00000000000E+00 0. -1.
          3    1    6    6  503    0 -0.13239125096E+03  0.18831844402E+03 -0.46655573218E+03  0.52025525554E+03  0.00000000000E+00 0. -1.
         -3    1    6    6    0  503 -0.47083576165E+02  0.11539117329E+03 -0.42813634884E+03  0.44590662611E+03  0.00000000000E+00 0.  1.
<mgrwt>
<rscale>  0 0.19347906E+04</rscale>
<asrwt>0</asrwt>
<pdfrwt beam="1">  1        2 0.28934126E+00 0.19347906E+04</pdfrwt>
<pdfrwt beam="2">  1       -1 0.76554524E-01 0.19347906E+04</pdfrwt>
<totfact> 0.14174335E+01</totfact>
</mgrwt>
</event>
<event>
12    6  0.1529770E-007  0.1153360E+04  0.7818608E-02  0.9154690E-01
         -1   -1    0    0    0  501 -0.00000000000E+00  0.00000000000E+00  0.18000849387E+04  0.18000849387E+04  0.00000000000E+00 0.  1.
          2   -1    0    0  501    0  0.00000000000E+00 -0.00000000000E+00 -0.18474665382E+03  0.18474665382E+03  0.00000000000E+00 0. -1.
         24    2    1    2    0    0  0.13271394415E+03  0.12618356728E+03  0.45400098956E+03  0.49599610635E+03  0.79749328370E+02 0.  0.
        254    2    1    2    0    0 -0.13271394415E+03 -0.12618356728E+03  0.11613372953E+04  0.14888354862E+04  0.91345033129E+03 0.  0.
         23    2    4    4    0    0  0.30587449933E+03  0.19886553362E+03  0.42718838225E+03  0.56914036495E+03  0.91236677330E+02 0.  0.
         23    2    4    4    0    0 -0.43858844348E+03 -0.32504910090E+03  0.73414891308E+03  0.91969512121E+03  0.94062472095E+02 0.  0.
          2    1    3    3  502    0  0.89128964061E+02  0.65737744387E+02  0.17406205783E+03  0.20630807848E+03  0.00000000000E+00 0. -1.
         -1    1    3    3    0  502  0.43584980088E+02  0.60445822896E+02  0.27993893172E+03  0.28968802787E+03  0.00000000000E+00 0.  1.
         11    1    5    5    0    0  0.28664390262E+02  0.44753042477E+02  0.30609500882E+02  0.61330446145E+02  0.00000000000E+00 0. -1.
        -11    1    5    5    0    0  0.27721010907E+03  0.15411249114E+03  0.39657888137E+03  0.50780991881E+03  0.00000000000E+00 0.  1.
          3    1    6    6  503    0 -0.24178450358E+02 -0.53914618323E+01  0.11200176632E+02  0.27186564310E+02  0.00000000000E+00 0. -1.
         -3    1    6    6    0  503 -0.41440999312E+03 -0.31965763907E+03  0.72294873644E+03  0.89250855690E+03  0.00000000000E+00 0.  1.
<mgrwt>
<rscale>  0 0.11533597E+04</rscale>
<asrwt>0</asrwt>
<pdfrwt beam="1">  1        2 0.28422563E-01 0.11533597E+04</pdfrwt>
<pdfrwt beam="2">  1       -1 0.27693613E+00 0.11533597E+04</pdfrwt>
<totfact> 0.10075407E+01</totfact>
</mgrwt>
</event>
<event>
12    6  0.1529770E-007  0.1119172E+04  0.7818608E-02  0.9186705E-01
         -1   -1    0    0    0  501 -0.00000000000E+00  0.00000000000E+00  0.11160820090E+03  0.11160820090E+03  0.00000000000E+00 0.  1.
          2   -1    0    0  501    0  0.00000000000E+00 -0.00000000000E+00 -0.28056740122E+04  0.28056740122E+04  0.00000000000E+00 0. -1.
         24    2    1    2    0    0 -0.16552090158E+03  0.13219453942E+03 -0.70397677897E+03  0.73946013258E+03  0.79658127184E+02 0.  0.
        254    2    1    2    0    0  0.16552090158E+03 -0.13219453942E+03 -0.19900890324E+04  0.21778220806E+04  0.85882599679E+03 0.  0.
         23    2    4    4    0    0  0.48563081070E+03 -0.11237879338E+03 -0.84308548682E+03  0.98331891050E+03  0.87502366537E+02 0.  0.
         23    2    4    4    0    0 -0.32010990912E+03 -0.19815746037E+02 -0.11470035455E+04  0.11945031701E+04  0.91420304648E+02 0.  0.
          2    1    3    3  502    0 -0.97397339867E+02  0.94787385110E+02 -0.31946228297E+03  0.34717004541E+03  0.00000000000E+00 0. -1.
         -1    1    3    3    0  502 -0.68123561713E+02  0.37407154310E+02 -0.38451449600E+03  0.39229008717E+03  0.00000000000E+00 0.  1.
         11    1    5    5    0    0  0.23865982252E+03 -0.23563876129E+02 -0.46298948492E+03  0.52141445155E+03  0.00000000000E+00 0.  1.
        -11    1    5    5    0    0  0.24697098819E+03 -0.88814917255E+02 -0.38009600190E+03  0.46190445895E+03  0.00000000000E+00 0. -1.
          1    1    6    6  503    0 -0.27360852594E+03  0.10013176252E+02 -0.10178315732E+04  0.10540128085E+04  0.00000000000E+00 0. -1.
         -1    1    6    6    0  503 -0.46501383181E+02 -0.29828922289E+02 -0.12917197235E+03  0.14049036153E+03  0.00000000000E+00 0.  1.
<mgrwt>
<rscale>  0 0.11191715E+04</rscale>
<asrwt>0</asrwt>
<pdfrwt beam="1">  1        2 0.43164212E+00 0.11191715E+04</pdfrwt>
<pdfrwt beam="2">  1       -1 0.17170494E-01 0.11191715E+04</pdfrwt>
<totfact> 0.69264876E+01</totfact>
</mgrwt>
</event>
<event>
12    6  0.1529770E-007  0.3612919E+04  0.7818608E-02  0.8087539E-01
          2   -1    0    0  501    0  0.00000000000E+00  0.00000000000E+00  0.23473183604E+04  0.23473183604E+04  0.00000000000E+00 0. -1.
         -1   -1    0    0    0  501 -0.00000000000E+00 -0.00000000000E+00 -0.13902232797E+04  0.13902232797E+04  0.00000000000E+00 0.  1.
         24    2    1    2    0    0  0.15753576859E+04 -0.56411700843E+03  0.18068166839E+03  0.16848656920E+04  0.78400874703E+02 0.  0.
        254    2    1    2    0    0 -0.15753576859E+04  0.56411700843E+03  0.77641341233E+03  0.20526759481E+04  0.90037821123E+03 0.  0.
         23    2    4    4    0    0 -0.14793199152E+03 -0.21322261261E+03  0.11339761259E+03  0.29504700937E+03  0.82740332080E+02 0.  0.
         23    2    4    4    0    0 -0.14274256944E+04  0.77733962105E+03  0.66301579974E+03  0.17576289387E+04  0.88704769146E+02 0.  0.
          2    1    3    3  502    0  0.63476353076E+03 -0.25771338862E+03  0.47985560394E+02  0.68676309209E+03  0.00000000000E+00 0. -1.
         -1    1    3    3    0  502  0.94059415513E+03 -0.30640361982E+03  0.13269610799E+03  0.99810259992E+03  0.00000000000E+00 0.  1.
         11    1    5    5    0    0 -0.25424978018E+02 -0.99497473532E+02  0.62910717360E+02  0.12043228431E+03  0.00000000000E+00 0. -1.
        -11    1    5    5    0    0 -0.12250701350E+03 -0.11372513908E+03  0.50486895228E+02  0.17461472506E+03  0.00000000000E+00 0.  1.
          4    1    6    6  503    0 -0.11872144743E+04  0.66341786284E+03  0.52245008010E+03  0.14568992947E+04  0.00000000000E+00 0. -1.
         -4    1    6    6    0  503 -0.24021122006E+03  0.11392175821E+03  0.14056571964E+03  0.30072964399E+03  0.00000000000E+00 0.  1.
<mgrwt>
<rscale>  0 0.36129194E+04</rscale>
<asrwt>0</asrwt>
<pdfrwt beam="1">  1        2 0.36112590E+00 0.36129194E+04</pdfrwt>
<pdfrwt beam="2">  1       -1 0.21388050E+00 0.36129194E+04</pdfrwt>
<totfact> 0.47718333E-01</totfact>
</mgrwt>
</event>
<event>
12    6  0.1529770E-007  0.1574011E+04  0.7818608E-02  0.8836675E-01
         -1   -1    0    0    0  501 -0.00000000000E+00  0.00000000000E+00  0.15852978992E+03  0.15852978992E+03  0.00000000000E+00 0.  1.
          2   -1    0    0  501    0  0.00000000000E+00 -0.00000000000E+00 -0.39070089149E+04  0.39070089149E+04  0.00000000000E+00 0. -1.
         24    2    1    2    0    0 -0.27615949418E+03 -0.45701572560E+03 -0.12043546439E+04  0.13197876215E+04  0.79005175847E+02 0.  0.
        254    2    1    2    0    0  0.27615949418E+03  0.45701572560E+03 -0.25441244810E+04  0.27457510833E+04  0.88399784888E+03 0.  0.
         23    2    4    4    0    0  0.20758733561E+03  0.54252277852E+03 -0.25361657005E+04  0.26032838033E+04  0.86756168739E+02 0.  0.
         23    2    4    4    0    0  0.68572158572E+02 -0.85507052921E+02 -0.79587805120E+01  0.14246728003E+03  0.90664142086E+02 0.  0.
          2    1    3    3  502    0 -0.20963387674E+03 -0.28804707416E+03 -0.84919540205E+03  0.92089647087E+03  0.00000000000E+00 0. -1.
         -1    1    3    3    0  502 -0.66525617437E+02 -0.16896865144E+03 -0.35515924190E+03  0.39889115063E+03  0.00000000000E+00 0.  1.
         11    1    5    5    0    0  0.81392831665E+02  0.31835631501E+03 -0.13300220547E+04  0.13700124826E+04  0.00000000000E+00 0.  1.
        -11    1    5    5    0    0  0.12619450394E+03  0.22416646351E+03 -0.12061436458E+04  0.12332713207E+04  0.00000000000E+00 0. -1.
          4    1    6    6  503    0  0.75310223505E-01  0.18068273763E+02 -0.11264487471E+01  0.18103510024E+02  0.00000000000E+00 0. -1.
         -4    1    6    6    0  503  0.68496848349E+02 -0.10357532668E+03 -0.68323317649E+01  0.12436377000E+03  0.00000000000E+00 0.  1.
<mgrwt>
<rscale>  0 0.15740105E+04</rscale>
<asrwt>0</asrwt>
<pdfrwt beam="1">  1        2 0.60107829E+00 0.15740105E+04</pdfrwt>
<pdfrwt beam="2">  1       -1 0.24389199E-01 0.15740105E+04</pdfrwt>
<totfact> 0.66160325E+00</totfact>
</mgrwt>
</event>
<event>
12    6  0.1529770E-007  0.1761485E+04  0.7818608E-02  0.8727054E-01
          2   -1    0    0  501    0  0.00000000000E+00  0.00000000000E+00  0.23636480472E+04  0.23636480472E+04  0.00000000000E+00 0. -1.
         -1   -1    0    0    0  501 -0.00000000000E+00 -0.00000000000E+00 -0.32818233621E+03  0.32818233621E+03  0.00000000000E+00 0.  1.
         24    2    1    2    0    0  0.48233492198E+03 -0.18469800654E+03  0.12677934150E+04  0.13712864494E+04  0.79787545692E+02 0.  0.
        254    2    1    2    0    0 -0.48233492198E+03  0.18469800654E+03  0.76767229600E+03  0.13205439341E+04  0.94220761896E+03 0.  0.
         23    2    4    4    0    0  0.17474971581E+03 -0.21638473663E+03  0.27676633057E+03  0.40299257404E+03  0.91889039479E+02 0.  0.
         23    2    4    4    0    0 -0.65708463778E+03  0.40108274317E+03  0.49090596542E+03  0.91755136004E+03  0.91017818823E+02 0.  0.
          4    1    3    3  502    0  0.17833898861E+03 -0.73809409549E+02  0.57778514756E+03  0.60917017370E+03  0.00000000000E+00 0. -1.
         -3    1    3    3    0  502  0.30399593337E+03 -0.11088859699E+03  0.69000826748E+03  0.76211627567E+03  0.00000000000E+00 0.  1.
         11    1    5    5    0    0  0.14906559384E+03 -0.11796946806E+03  0.19670652239E+03  0.27355219359E+03  0.00000000000E+00 0. -1.
        -11    1    5    5    0    0  0.25684121963E+02 -0.98415268566E+02  0.80059808178E+02  0.12944038046E+03  0.00000000000E+00 0.  1.
          1    1    6    6  503    0 -0.48519862233E+03  0.25530191326E+03  0.37373468619E+03  0.66353175183E+03  0.00000000000E+00 0. -1.
         -1    1    6    6    0  503 -0.17188601545E+03  0.14578082991E+03  0.11717127924E+03  0.25401960821E+03  0.00000000000E+00 0.  1.
<mgrwt>
<rscale>  0 0.17614852E+04</rscale>
<asrwt>0</asrwt>
<pdfrwt beam="1">  1        2 0.36363815E+00 0.17614852E+04</pdfrwt>
<pdfrwt beam="2">  1       -1 0.50489592E-01 0.17614852E+04</pdfrwt>
<totfact> 0.17733215E+01</totfact>
</mgrwt>
</event>
<event>
12    6  0.1529770E-007  0.1462920E+04  0.7818608E-02  0.8909492E-01
          4   -1    0    0  501    0  0.00000000000E+00  0.00000000000E+00  0.10029243806E+04  0.10029243806E+04  0.00000000000E+00 0. -1.
         -3   -1    0    0    0  501 -0.00000000000E+00 -0.00000000000E+00 -0.53347331230E+03  0.53347331230E+03  0.00000000000E+00 0.  1.
         24    2    1    2    0    0 -0.43486275591E+03 -0.48470842430E+02  0.26751429265E+03  0.51913168033E+03  0.80490780304E+02 0.  0.
        254    2    1    2    0    0  0.43486275591E+03  0.48470842430E+02  0.20193677562E+03  0.10172660125E+04  0.89587758084E+03 0.  0.
         23    2    4    4    0    0  0.56084472220E+03 -0.27840805081E+03  0.90663699105E+02  0.63832239194E+03  0.84721452705E+02 0.  0.
         23    2    4    4    0    0 -0.12598196629E+03  0.32687889324E+03  0.11127307651E+03  0.37894362058E+03  0.92169969877E+02 0.  0.
          2    1    3    3  502    0 -0.35190092032E+02 -0.22491196135E+02  0.99055098713E+01  0.42922204121E+02  0.00000000000E+00 0. -1.
         -1    1    3    3    0  502 -0.39967266388E+03 -0.25979646294E+02  0.25760878278E+03  0.47620947621E+03  0.00000000000E+00 0.  1.
         11    1    5    5    0    0  0.34437371480E+03 -0.12773410135E+03  0.36871548867E+02  0.36914599714E+03  0.00000000000E+00 0.  1.
        -11    1    5    5    0    0  0.21647100740E+03 -0.15067394946E+03  0.53792150238E+02  0.26917639480E+03  0.00000000000E+00 0. -1.
          3    1    6    6  503    0 -0.22812682096E+02  0.18690894789E+03  0.61259746868E+02  0.19801042864E+03  0.00000000000E+00 0. -1.
         -3    1    6    6    0  503 -0.10316928420E+03  0.13996994535E+03  0.50013329644E+02  0.18093319194E+03  0.00000000000E+00 0.  1.
<mgrwt>
<rscale>  0 0.14629195E+04</rscale>
<asrwt>0</asrwt>
<pdfrwt beam="1">  1        4 0.15429606E+00 0.14629195E+04</pdfrwt>
<pdfrwt beam="2">  1       -3 0.82072817E-01 0.14629195E+04</pdfrwt>
<totfact> 0.84000490E-01</totfact>
</mgrwt>
</event>
<event>
12    6  0.1529770E-007  0.2622227E+04  0.7818608E-02  0.8360690E-01
         -1   -1    0    0    0  501 -0.00000000000E+00  0.00000000000E+00  0.76443439500E+03  0.76443439500E+03  0.00000000000E+00 0.  1.
          2   -1    0    0  501    0  0.00000000000E+00 -0.00000000000E+00 -0.22487462229E+04  0.22487462229E+04  0.00000000000E+00 0. -1.
         24    2    1    2    0    0  0.76862522583E+03 -0.85776034600E+03 -0.55364786828E+03  0.12803858104E+04  0.79525546357E+02 0.  0.
        254    2    1    2    0    0 -0.76862522583E+03  0.85776034600E+03 -0.93066395959E+03  0.17327948074E+04  0.89994715961E+03 0.  0.
         23    2    4    4    0    0 -0.12033919612E+03  0.21509687227E+03 -0.75428179730E+03  0.79867136149E+03  0.90480535700E+02 0.  0.
         23    2    4    4    0    0 -0.64828602971E+03  0.64266347373E+03 -0.17638216229E+03  0.93412344596E+03  0.90470041063E+02 0.  0.
          2    1    3    3  502    0  0.22586795587E+03 -0.22222169011E+03 -0.11999319808E+03  0.33881732634E+03  0.00000000000E+00 0. -1.
         -1    1    3    3    0  502  0.54275726996E+03 -0.63553865589E+03 -0.43365467020E+03  0.94156848408E+03  0.00000000000E+00 0.  1.
         11    1    5    5    0    0 -0.98102874104E+02  0.21888765417E+03 -0.69621014298E+03  0.73637255669E+03  0.00000000000E+00 0.  1.
        -11    1    5    5    0    0 -0.22236322012E+02 -0.37907818988E+01 -0.58071654327E+02  0.62298804806E+02  0.00000000000E+00 0. -1.
          1    1    6    6  503    0 -0.13372184953E+03  0.18754597939E+03 -0.41159823993E+02  0.23398538103E+03  0.00000000000E+00 0. -1.
         -1    1    6    6    0  503 -0.51456418018E+03  0.45511749434E+03 -0.13522233829E+03  0.70013806492E+03  0.00000000000E+00 0.  1.
<mgrwt>
<rscale>  0 0.26222273E+04</rscale>
<asrwt>0</asrwt>
<pdfrwt beam="1">  1        2 0.34596095E+00 0.26222273E+04</pdfrwt>
<pdfrwt beam="2">  1       -1 0.11760529E+00 0.26222273E+04</pdfrwt>
<totfact> 0.31648991E+00</totfact>
</mgrwt>
</event>
<event>
12    6  0.1529770E-007  0.2047410E+04  0.7818608E-02  0.8584770E-01
          2   -1    0    0  501    0  0.00000000000E+00  0.00000000000E+00  0.12260761087E+04  0.12260761087E+04  0.00000000000E+00 0. -1.
         -1   -1    0    0    0  501 -0.00000000000E+00 -0.00000000000E+00 -0.85473611693E+03  0.85473611693E+03  0.00000000000E+00 0.  1.
         24    2    1    2    0    0  0.57924824964E+03 -0.21596821186E+03  0.70112852390E+03  0.93816661354E+03  0.80028647822E+02 0.  0.
        254    2    1    2    0    0 -0.57924824964E+03  0.21596821186E+03 -0.32978853211E+03  0.11426456121E+04  0.90261160847E+03 0.  0.
         23    2    4    4    0    0 -0.16496090665E+03 -0.89002272360E+02  0.27367383460E+03  0.34413507604E+03  0.91641025796E+02 0.  0.
         23    2    4    4    0    0 -0.41428734299E+03  0.30497048422E+03 -0.60346236671E+03  0.79851053608E+03  0.93868255483E+02 0.  0.
          2    1    3    3  502    0  0.42142865035E+03 -0.18279883601E+03  0.47900403433E+03  0.66367340363E+03  0.00000000000E+00 0. -1.
         -1    1    3    3    0  502  0.15781959930E+03 -0.33169375849E+02  0.22212448957E+03  0.27449320990E+03  0.00000000000E+00 0.  1.
         11    1    5    5    0    0 -0.78083733308E+02 -0.51771653061E+01  0.16094886931E+03  0.17896483169E+03  0.00000000000E+00 0.  1.
        -11    1    5    5    0    0 -0.86877173344E+02 -0.83825107053E+02  0.11272496528E+03  0.16517024435E+03  0.00000000000E+00 0. -1.
          1    1    6    6  503    0 -0.19091631884E+03  0.19084799721E+03 -0.27663146178E+03  0.38651903508E+03  0.00000000000E+00 0. -1.
         -1    1    6    6    0  503 -0.22337102415E+03  0.11412248701E+03 -0.32683090494E+03  0.41199150100E+03  0.00000000000E+00 0.  1.
<mgrwt>
<rscale>  0 0.20474096E+04</rscale>
<asrwt>0</asrwt>
<pdfrwt beam="1">  1        2 0.18862709E+00 0.20474096E+04</pdfrwt>
<pdfrwt beam="2">  1       -1 0.13149786E+00 0.20474096E+04</pdfrwt>
<totfact> 0.94994854E+00</totfact>
</mgrwt>
</event>
<event>
12    6  0.1529770E-007  0.2038893E+04  0.7818608E-02  0.8588650E-01
          2   -1    0    0  501    0  0.00000000000E+00  0.00000000000E+00  0.52816176644E+03  0.52816176644E+03  0.00000000000E+00 0. -1.
         -1   -1    0    0    0  501 -0.00000000000E+00 -0.00000000000E+00 -0.19677130876E+04  0.19677130876E+04  0.00000000000E+00 0.  1.
         24    2    1    2    0    0  0.53124865411E+03 -0.37014911039E+03 -0.11850129155E+04  0.13527476088E+04  0.80218369902E+02 0.  0.
        254    2    1    2    0    0 -0.53124865411E+03  0.37014911039E+03 -0.25453840574E+03  0.11431272453E+04  0.90703616383E+03 0.  0.
         23    2    4    4    0    0 -0.68413412744E+03  0.24826244332E+03  0.87060420516E+02  0.73884240659E+03  0.92923839080E+02 0.  0.
         23    2    4    4    0    0  0.15288547333E+03  0.12188666707E+03 -0.34159882626E+03  0.40428483869E+03  0.92337127584E+02 0.  0.
          2    1    3    3  502    0  0.91605391322E+01 -0.12934139909E+02 -0.60190314110E+02  0.62242118899E+02  0.00000000000E+00 0. -1.
         -1    1    3    3    0  502  0.52208811498E+03 -0.35721497048E+03 -0.11248226014E+04  0.12905054899E+04  0.00000000000E+00 0.  1.
         11    1    5    5    0    0 -0.58742447437E+03  0.18064961694E+03  0.57928857460E+02  0.61729859040E+03  0.00000000000E+00 0.  1.
        -11    1    5    5    0    0 -0.96709653074E+02  0.67612826375E+02  0.29131563057E+02  0.12154381619E+03  0.00000000000E+00 0. -1.
          3    1    6    6  503    0  0.38625815320E+01  0.51049315429E+02 -0.84008605874E+02  0.98378849367E+02  0.00000000000E+00 0. -1.
         -3    1    6    6    0  503  0.14902289180E+03  0.70837351643E+02 -0.25759022038E+03  0.30590598932E+03  0.00000000000E+00 0.  1.
<mgrwt>
<rscale>  0 0.20388927E+04</rscale>
<asrwt>0</asrwt>
<pdfrwt beam="1">  1        2 0.81255656E-01 0.20388927E+04</pdfrwt>
<pdfrwt beam="2">  1       -1 0.30272509E+00 0.20388927E+04</pdfrwt>
<totfact> 0.19383523E+00</totfact>
</mgrwt>
</event>
<event>
12    6  0.1529770E-007  0.2535547E+04  0.7818608E-02  0.8390430E-01
         -1   -1    0    0    0  501 -0.00000000000E+00  0.00000000000E+00  0.58919347902E+03  0.58919347902E+03  0.00000000000E+00 0.  1.
          2   -1    0    0  501    0  0.00000000000E+00 -0.00000000000E+00 -0.27278806267E+04  0.27278806267E+04  0.00000000000E+00 0. -1.
         24    2    1    2    0    0 -0.90390492880E+03 -0.49288871485E+03 -0.14690390039E+04  0.17956762988E+04  0.79964802289E+02 0.  0.
        254    2    1    2    0    0  0.90390492880E+03  0.49288871485E+03 -0.66964814382E+03  0.15213978069E+04  0.89790826085E+03 0.  0.
         23    2    4    4    0    0  0.72514998336E+03  0.52944785596E+03 -0.89687180243E+02  0.90686779367E+03  0.90597319785E+02 0.  0.
         23    2    4    4    0    0  0.17875494544E+03 -0.36559141110E+02 -0.57996096358E+03  0.61453001327E+03  0.89456786285E+02 0.  0.
          2    1    3    3  502    0 -0.53556994399E+03 -0.33122306942E+03 -0.92813909337E+03  0.11215997786E+04  0.00000000000E+00 0. -1.
         -1    1    3    3    0  502 -0.36833498481E+03 -0.16166564544E+03 -0.54089991050E+03  0.67407652023E+03  0.00000000000E+00 0.  1.
         11    1    5    5    0    0  0.31285887689E+03  0.25849741849E+03 -0.78680440535E+02  0.41339110287E+03  0.00000000000E+00 0.  1.
        -11    1    5    5    0    0  0.41229110647E+03  0.27095043748E+03 -0.11006739708E+02  0.49347669080E+03  0.00000000000E+00 0. -1.
          3    1    6    6  503    0  0.13444227122E+03 -0.36305325964E+01 -0.49702153745E+03  0.51489641069E+03  0.00000000000E+00 0. -1.
         -3    1    6    6    0  503  0.44312674213E+02 -0.32928608513E+02 -0.82939426133E+02  0.99633602573E+02  0.00000000000E+00 0.  1.
<mgrwt>
<rscale>  0 0.25355469E+04</rscale>
<asrwt>0</asrwt>
<pdfrwt beam="1">  1        2 0.41967394E+00 0.25355469E+04</pdfrwt>
<pdfrwt beam="2">  1       -1 0.90645151E-01 0.25355469E+04</pdfrwt>
<totfact> 0.30724409E+00</totfact>
</mgrwt>
</event>
<event>
12    6  0.1529770E-007  0.2170839E+04  0.7818608E-02  0.8530665E-01
         -1   -1    0    0    0  501 -0.00000000000E+00  0.00000000000E+00  0.10131968249E+04  0.10131968249E+04  0.00000000000E+00 0.  1.
          2   -1    0    0  501    0  0.00000000000E+00 -0.00000000000E+00 -0.11627902619E+04  0.11627902619E+04  0.00000000000E+00 0. -1.
         24    2    1    2    0    0  0.26123129541E+02  0.89902498585E+03 -0.26263652630E+02  0.90329035655E+03  0.79469149371E+02 0.  0.
        254    2    1    2    0    0 -0.26123129541E+02 -0.89902498585E+03 -0.12332978435E+03  0.12726967303E+04  0.89197443261E+03 0.  0.
         23    2    4    4    0    0  0.41063320452E+03 -0.45407153748E+03  0.42227863473E+02  0.62080538863E+03  0.93891151353E+02 0.  0.
         23    2    4    4    0    0 -0.43675633406E+03 -0.44495344837E+03 -0.16555764783E+03  0.65189134163E+03  0.93879284062E+02 0.  0.
          4    1    3    3  502    0  0.35381151961E+02  0.69395093589E+03 -0.49950556294E+02  0.69664537996E+03  0.00000000000E+00 0. -1.
         -3    1    3    3    0  502 -0.92580224206E+01  0.20507404996E+03  0.23686903663E+02  0.20664497659E+03  0.00000000000E+00 0.  1.
         11    1    5    5    0    0  0.20386043021E+02 -0.65463403247E+02  0.17863241572E+01  0.68587454165E+02  0.00000000000E+00 0. -1.
        -11    1    5    5    0    0  0.39024716150E+03 -0.38860813423E+03  0.40441539316E+02  0.55221793447E+03  0.00000000000E+00 0.  1.
          2    1    6    6  503    0 -0.32504883145E+02 -0.19283097787E+02  0.10126917232E+02  0.39127480639E+02  0.00000000000E+00 0. -1.
         -2    1    6    6    0  503 -0.40425145091E+03 -0.42567035059E+03 -0.17568456506E+03  0.61276386099E+03  0.00000000000E+00 0.  1.
<mgrwt>
<rscale>  0 0.21708389E+04</rscale>
<asrwt>0</asrwt>
<pdfrwt beam="1">  1        2 0.17889081E+00 0.21708389E+04</pdfrwt>
<pdfrwt beam="2">  1       -1 0.15587644E+00 0.21708389E+04</pdfrwt>
<totfact> 0.65461539E+00</totfact>
</mgrwt>
</event>
<event>
12    6  0.1529770E-007  0.1649917E+04  0.7818608E-02  0.8790456E-01
         -1   -1    0    0    0  501 -0.00000000000E+00  0.00000000000E+00  0.49268108955E+03  0.49268108955E+03  0.00000000000E+00 0.  1.
          2   -1    0    0  501    0  0.00000000000E+00 -0.00000000000E+00 -0.13813323131E+04  0.13813323131E+04  0.00000000000E+00 0. -1.
         24    2    1    2    0    0 -0.36575910932E+03  0.44077013248E+03 -0.35690204503E+03  0.67952824107E+03  0.79508018021E+02 0.  0.
        254    2    1    2    0    0  0.36575910932E+03 -0.44077013248E+03 -0.53174917851E+03  0.11944851616E+04  0.90331587867E+03 0.  0.
         23    2    4    4    0    0  0.43574130928E+03 -0.54578752508E+03 -0.67989021936E+03  0.97882163177E+03  0.89925331703E+02 0.  0.
         23    2    4    4    0    0 -0.69982199962E+02  0.10501739260E+03  0.14814104085E+03  0.21566352981E+03  0.92945301375E+02 0.  0.
          2    1    3    3  502    0 -0.13395040222E+03  0.16205375687E+03 -0.17697192256E+03  0.27481483174E+03  0.00000000000E+00 0. -1.
         -1    1    3    3    0  502 -0.23180870710E+03  0.27871637561E+03 -0.17993012248E+03  0.40471340933E+03  0.00000000000E+00 0.  1.
         11    1    5    5    0    0  0.10856311657E+03 -0.97146073036E+02 -0.18106551043E+03  0.23239627547E+03  0.00000000000E+00 0. -1.
        -11    1    5    5    0    0  0.32717819271E+03 -0.44864145204E+03 -0.49882470893E+03  0.74642535629E+03  0.00000000000E+00 0.  1.
          2    1    6    6  503    0  0.42994405272E+01  0.18264328446E+02  0.81075989438E+02  0.83218909785E+02  0.00000000000E+00 0. -1.
         -2    1    6    6    0  503 -0.74281640489E+02  0.86753064153E+02  0.67065051413E+02  0.13244462003E+03  0.00000000000E+00 0.  1.
<mgrwt>
<rscale>  0 0.16499167E+04</rscale>
<asrwt>0</asrwt>
<pdfrwt beam="1">  1        2 0.21251266E+00 0.16499167E+04</pdfrwt>
<pdfrwt beam="2">  1       -1 0.75797091E-01 0.16499167E+04</pdfrwt>
<totfact> 0.28240200E+01</totfact>
</mgrwt>
</event>
<event>
12    6  0.1529770E-007  0.1763297E+04  0.7818608E-02  0.8726065E-01
          2   -1    0    0  501    0  0.00000000000E+00  0.00000000000E+00  0.87534454817E+03  0.87534454817E+03  0.00000000000E+00 0. -1.
         -1   -1    0    0    0  501 -0.00000000000E+00 -0.00000000000E+00 -0.88799830504E+03  0.88799830504E+03  0.00000000000E+00 0.  1.
         24    2    1    2    0    0 -0.12210448232E+02 -0.11361718146E+03 -0.61745779999E+03  0.63304652409E+03  0.80223487396E+02 0.  0.
        254    2    1    2    0    0  0.12210448232E+02  0.11361718146E+03  0.60480404312E+03  0.11302963291E+04  0.94801049681E+03 0.  0.
         23    2    4    4    0    0  0.10407601369E+03  0.50340660292E+03  0.45640470977E+03  0.69368275704E+03  0.92954202866E+02 0.  0.
         23    2    4    4    0    0 -0.91865565460E+02 -0.38978942146E+03  0.14839933335E+03  0.43661357207E+03  0.90741247385E+02 0.  0.
          4    1    3    3  502    0 -0.41659011620E+01 -0.63657565591E+02 -0.15197497004E+03  0.16482121194E+03  0.00000000000E+00 0. -1.
         -3    1    3    3    0  502 -0.80445470699E+01 -0.49959615869E+02 -0.46548282996E+03  0.46822531215E+03  0.00000000000E+00 0.  1.
         11    1    5    5    0    0 -0.64226874641E+01  0.53290457917E+00  0.14517209327E+01  0.66062391130E+01  0.00000000000E+00 0. -1.
        -11    1    5    5    0    0  0.11049870116E+03  0.50287369834E+03  0.45495298884E+03  0.68707651793E+03  0.00000000000E+00 0.  1.
          4    1    6    6  503    0 -0.54330474864E+02 -0.87077304342E+02  0.15148992970E+02  0.10374849116E+03  0.00000000000E+00 0. -1.
         -4    1    6    6    0  503 -0.37535090596E+02 -0.30271211712E+03  0.13325034038E+03  0.33286508091E+03  0.00000000000E+00 0.  1.
<mgrwt>
<rscale>  0 0.17632975E+04</rscale>
<asrwt>0</asrwt>
<pdfrwt beam="1">  1        2 0.13466839E+00 0.17632975E+04</pdfrwt>
<pdfrwt beam="2">  1       -1 0.13661512E+00 0.17632975E+04</pdfrwt>
<totfact> 0.14716415E+01</totfact>
</mgrwt>
</event>
<event>
12    6  0.1529770E-007  0.2913068E+04  0.7818608E-02  0.8269000E-01
          2   -1    0    0  501    0  0.00000000000E+00  0.00000000000E+00  0.10402361925E+04  0.10402361925E+04  0.00000000000E+00 0. -1.
         -1   -1    0    0    0  501 -0.00000000000E+00 -0.00000000000E+00 -0.20394318242E+04  0.20394318242E+04  0.00000000000E+00 0.  1.
         24    2    1    2    0    0 -0.43853435505E+03  0.10826912775E+04 -0.10943681076E+04  0.16025463169E+04  0.77332787216E+02 0.  0.
        254    2    1    2    0    0  0.43853435505E+03 -0.10826912775E+04  0.95172475839E+02  0.14771216998E+04  0.89905390993E+03 0.  0.
         23    2    4    4    0    0  0.48659262405E+03 -0.39283293140E+03  0.36426375003E+03  0.72936017504E+03  0.90488074217E+02 0.  0.
         23    2    4    4    0    0 -0.48058268996E+02 -0.68985834611E+03 -0.26909127419E+03  0.74776152478E+03  0.92320361670E+02 0.  0.
          2    1    3    3  502    0 -0.72970916923E+01  0.33198696361E+02 -0.17450874611E+02  0.38209082846E+02  0.00000000000E+00 0. -1.
         -1    1    3    3    0  502 -0.43123726336E+03  0.10494925811E+04 -0.10769172329E+04  0.15643372340E+04  0.00000000000E+00 0.  1.
         11    1    5    5    0    0  0.42490656189E+02 -0.91142012699E+01  0.12988822211E+02  0.45356741843E+02  0.00000000000E+00 0.  1.
        -11    1    5    5    0    0  0.44410196786E+03 -0.38371873013E+03  0.35127492782E+03  0.68400343320E+03  0.00000000000E+00 0. -1.
          2    1    6    6  503    0 -0.35202080557E+02 -0.18835926687E+03 -0.11260581541E+03  0.22225766479E+03  0.00000000000E+00 0. -1.
         -2    1    6    6    0  503 -0.12856188439E+02 -0.50149907924E+03 -0.15648545878E+03  0.52550385999E+03  0.00000000000E+00 0.  1.
<mgrwt>
<rscale>  0 0.29130677E+04</rscale>
<asrwt>0</asrwt>
<pdfrwt beam="1">  1        2 0.16003634E+00 0.29130677E+04</pdfrwt>
<pdfrwt beam="2">  1       -1 0.31375874E+00 0.29130677E+04</pdfrwt>
<totfact> 0.62696289E-01</totfact>
</mgrwt>
</event>
<event>
12    6  0.1529770E-007  0.4983082E+04  0.7818608E-02  0.7831122E-01
          2   -1    0    0  501    0  0.00000000000E+00  0.00000000000E+00  0.16457063621E+04  0.16457063621E+04  0.00000000000E+00 0. -1.
         -1   -1    0    0    0  501 -0.00000000000E+00 -0.00000000000E+00 -0.37721047380E+04  0.37721047380E+04  0.00000000000E+00 0.  1.
         24    2    1    2    0    0  0.19254507520E+04 -0.77585258703E+03  0.30178601919E+03  0.20992117095E+04  0.79417658842E+02 0.  0.
        254    2    1    2    0    0 -0.19254507520E+04  0.77585258703E+03 -0.24281843951E+04  0.33185993906E+04  0.89872944946E+03 0.  0.
         23    2    4    4    0    0 -0.21766422319E+02 -0.12354706859E+03 -0.14920225270E+03  0.21453333503E+03  0.89585625688E+02 0.  0.
         23    2    4    4    0    0 -0.19036843297E+04  0.89939965562E+03 -0.22789821424E+04  0.31040660556E+04  0.92372637699E+02 0.  0.
          4    1    3    3  502    0  0.41503204917E+03 -0.17218956875E+03  0.98177172964E+02  0.45993435044E+03  0.00000000000E+00 0. -1.
         -3    1    3    3    0  502  0.15104187029E+04 -0.60366301828E+03  0.20360884622E+03  0.16392773590E+04  0.00000000000E+00 0.  1.
         11    1    5    5    0    0 -0.16267923479E+02 -0.13256275727E+02  0.79689289471E+01  0.22447227201E+02  0.00000000000E+00 0. -1.
        -11    1    5    5    0    0 -0.54984988400E+01 -0.11029079286E+03 -0.15717118165E+03  0.19208610783E+03  0.00000000000E+00 0.  1.
          3    1    6    6  503    0 -0.15177967426E+04  0.70817831518E+03 -0.18652150594E+04  0.25068407799E+04  0.00000000000E+00 0. -1.
         -3    1    6    6    0  503 -0.38588758708E+03  0.19122134044E+03 -0.41376708310E+03  0.59722527572E+03  0.00000000000E+00 0.  1.
<mgrwt>
<rscale>  0 0.49830821E+04</rscale>
<asrwt>0</asrwt>
<pdfrwt beam="1">  1        2 0.25318560E+00 0.49830821E+04</pdfrwt>
<pdfrwt beam="2">  1       -1 0.58032380E+00 0.49830821E+04</pdfrwt>
<totfact> 0.47126007E-03</totfact>
</mgrwt>
</event>
<event>
12    6  0.1529770E-007  0.1627980E+04  0.7818608E-02  0.8803541E-01
         -1   -1    0    0    0  501 -0.00000000000E+00  0.00000000000E+00  0.45280927471E+03  0.45280927471E+03  0.00000000000E+00 0.  1.
          2   -1    0    0  501    0  0.00000000000E+00 -0.00000000000E+00 -0.14632638303E+04  0.14632638303E+04  0.00000000000E+00 0. -1.
         24    2    1    2    0    0 -0.48101226311E+03  0.27266691994E+03 -0.46564098570E+03  0.72717849288E+03  0.79037879820E+02 0.  0.
        254    2    1    2    0    0  0.48101226311E+03 -0.27266691994E+03 -0.54481356984E+03  0.11888946121E+04  0.90051570018E+03 0.  0.
         23    2    4    4    0    0  0.28085329508E+03  0.18571242547E+03 -0.58214542012E+03  0.67875489519E+03  0.91908863791E+02 0.  0.
         23    2    4    4    0    0  0.20015896803E+03 -0.45837934541E+03  0.37331850287E+02  0.51013971689E+03  0.93132308732E+02 0.  0.
          4    1    3    3  502    0 -0.16166333357E+03  0.11460007926E+03 -0.12544726610E+03  0.23453193420E+03  0.00000000000E+00 0. -1.
         -3    1    3    3    0  502 -0.31934892954E+03  0.15806684068E+03 -0.34019371960E+03  0.49264655868E+03  0.00000000000E+00 0.  1.
         11    1    5    5    0    0  0.34513714540E+02 -0.67275386841E+01 -0.43052023539E+02  0.55587165775E+02  0.00000000000E+00 0.  1.
        -11    1    5    5    0    0  0.24633958054E+03  0.19243996415E+03 -0.53909339658E+03  0.62316772942E+03  0.00000000000E+00 0. -1.
          3    1    6    6  503    0  0.20668965104E+03 -0.45455456079E+03  0.31050737697E+02  0.50030451617E+03  0.00000000000E+00 0. -1.
         -3    1    6    6    0  503 -0.65306830137E+01 -0.38247846120E+01  0.62811125898E+01  0.98352007260E+01  0.00000000000E+00 0.  1.
<mgrwt>
<rscale>  0 0.16279796E+04</rscale>
<asrwt>0</asrwt>
<pdfrwt beam="1">  1        2 0.22511751E+00 0.16279796E+04</pdfrwt>
<pdfrwt beam="2">  1       -1 0.69662966E-01 0.16279796E+04</pdfrwt>
<totfact> 0.30259558E+01</totfact>
</mgrwt>
</event>
<event>
12    6  0.1529770E-007  0.2739486E+04  0.7818608E-02  0.8322306E-01
         -1   -1    0    0    0  501 -0.00000000000E+00  0.00000000000E+00  0.13036952701E+04  0.13036952701E+04  0.00000000000E+00 0.  1.
          2   -1    0    0  501    0  0.00000000000E+00 -0.00000000000E+00 -0.14391368415E+04  0.14391368415E+04  0.00000000000E+00 0. -1.
         24    2    1    2    0    0 -0.56103873241E+03  0.10630356621E+04  0.15485007419E+03  0.12145631917E+04  0.79849376648E+02 0.  0.
        254    2    1    2    0    0  0.56103873241E+03 -0.10630356621E+04 -0.29029164558E+03  0.15282689199E+04  0.89806869108E+03 0.  0.
         23    2    4    4    0    0  0.54526864729E+03 -0.17011997678E+03  0.18650444788E+02  0.57884182745E+03  0.91931049727E+02 0.  0.
         23    2    4    4    0    0  0.15770085129E+02 -0.89291568536E+03 -0.30894209037E+03  0.94942709248E+03  0.91757680845E+02 0.  0.
          4    1    3    3  502    0 -0.14316410508E+01  0.17261040124E+02 -0.42982198861E+01  0.17845666041E+02  0.00000000000E+00 0. -1.
         -3    1    3    3    0  502 -0.55960709136E+03  0.10457746220E+04  0.15914829407E+03  0.11967175257E+04  0.00000000000E+00 0.  1.
         11    1    5    5    0    0  0.77929620507E+02 -0.19322357138E+02  0.34808814718E+02  0.87510186948E+02  0.00000000000E+00 0.  1.
        -11    1    5    5    0    0  0.46733902678E+03 -0.15079761965E+03 -0.16158369930E+02  0.49133164050E+03  0.00000000000E+00 0. -1.
          3    1    6    6  503    0  0.31710224314E+02 -0.70926550749E+03 -0.27823227218E+03  0.76254593024E+03  0.00000000000E+00 0. -1.
         -3    1    6    6    0  503 -0.15940139186E+02 -0.18365017787E+03 -0.30709818190E+02  0.18688116225E+03  0.00000000000E+00 0.  1.
<mgrwt>
<rscale>  0 0.27394860E+04</rscale>
<asrwt>0</asrwt>
<pdfrwt beam="1">  1        2 0.22140567E+00 0.27394860E+04</pdfrwt>
<pdfrwt beam="2">  1       -1 0.20056850E+00 0.27394860E+04</pdfrwt>
<totfact> 0.20418107E+00</totfact>
</mgrwt>
</event>
<event>
12    6  0.1529770E-007  0.1496271E+04  0.7818608E-02  0.8886937E-01
         -1   -1    0    0    0  501 -0.00000000000E+00  0.00000000000E+00  0.36481746042E+03  0.36481746042E+03  0.00000000000E+00 0.  1.
          2   -1    0    0  501    0  0.00000000000E+00 -0.00000000000E+00 -0.15342099966E+04  0.15342099966E+04  0.00000000000E+00 0. -1.
         24    2    1    2    0    0 -0.10271353182E+03  0.44565765492E+03 -0.49214669488E+03  0.67643506157E+03  0.78709645122E+02 0.  0.
        254    2    1    2    0    0  0.10271353182E+03 -0.44565765492E+03 -0.67724584133E+03  0.12225923955E+04  0.90934560035E+03 0.  0.
         23    2    4    4    0    0 -0.17995629776E+03 -0.41821267112E+03  0.19240111373E+02  0.46472220177E+03  0.91161590288E+02 0.  0.
         23    2    4    4    0    0  0.28266982958E+03 -0.27444983803E+02 -0.69648595271E+03  0.75787019371E+03  0.92839046253E+02 0.  0.
          2    1    3    3  502    0 -0.45231283959E+02  0.13949521644E+03 -0.10947856519E+03  0.18300366306E+03  0.00000000000E+00 0. -1.
         -1    1    3    3    0  502 -0.57482247858E+02  0.30616243848E+03 -0.38266812969E+03  0.49343139851E+03  0.00000000000E+00 0.  1.
         11    1    5    5    0    0  0.10739008959E+02 -0.17950580182E+02 -0.37988100733E+00  0.20921136486E+02  0.00000000000E+00 0.  1.
        -11    1    5    5    0    0 -0.19069530672E+03 -0.40026209094E+03  0.19619992381E+02  0.44380106528E+03  0.00000000000E+00 0. -1.
          4    1    6    6  503    0  0.26742225492E+03 -0.49467767465E+02 -0.63764570108E+03  0.69321985152E+03  0.00000000000E+00 0. -1.
         -4    1    6    6    0  503  0.15247574657E+02  0.22022783662E+02 -0.58840251628E+02  0.64650342187E+02  0.00000000000E+00 0.  1.
<mgrwt>
<rscale>  0 0.14962708E+04</rscale>
<asrwt>0</asrwt>
<pdfrwt beam="1">  1        2 0.23603231E+00 0.14962708E+04</pdfrwt>
<pdfrwt beam="2">  1       -1 0.56125762E-01 0.14962708E+04</pdfrwt>
<totfact> 0.42942488E+01</totfact>
</mgrwt>
</event>
<event>
12    6  0.1529770E-007  0.1243107E+04  0.7818608E-02  0.9075939E-01
         -1   -1    0    0    0  501 -0.00000000000E+00  0.00000000000E+00  0.20740686735E+03  0.20740686735E+03  0.00000000000E+00 0.  1.
          2   -1    0    0  501    0  0.00000000000E+00 -0.00000000000E+00 -0.18626627680E+04  0.18626627680E+04  0.00000000000E+00 0. -1.
         24    2    1    2    0    0  0.27396410647E+03  0.34231891638E+02 -0.35893426067E+03  0.45988553910E+03  0.80204436007E+02 0.  0.
        254    2    1    2    0    0 -0.27396410647E+03 -0.34231891638E+02 -0.12963216400E+04  0.16101840963E+04  0.91433849067E+03 0.  0.
         23    2    4    4    0    0  0.28348025710E+03  0.84574638557E+02 -0.19004143457E+03  0.36302140044E+03  0.90304289327E+02 0.  0.
         23    2    4    4    0    0 -0.55744436357E+03 -0.11880653020E+03 -0.11062802054E+04  0.12471626958E+04  0.81851614882E+02 0.  0.
          2    1    3    3  502    0  0.92351327282E+02  0.25245817501E+02 -0.70411550389E+02  0.11884403805E+03  0.00000000000E+00 0. -1.
         -1    1    3    3    0  502  0.18161277918E+03  0.89860741372E+01 -0.28852271028E+03  0.34104150105E+03  0.00000000000E+00 0.  1.
         11    1    5    5    0    0  0.12877860146E+03  0.84621435529E+02 -0.10524146579E+03  0.18660246961E+03  0.00000000000E+00 0. -1.
        -11    1    5    5    0    0  0.15470165565E+03 -0.46796972394E-01 -0.84799968784E+02  0.17641893083E+03  0.00000000000E+00 0.  1.
          4    1    6    6  503    0 -0.71523480538E+02 -0.33618407456E+02 -0.11020347117E+03  0.13561198563E+03  0.00000000000E+00 0. -1.
         -4    1    6    6    0  503 -0.48592088303E+03 -0.85188122739E+02 -0.99607673428E+03  0.11115507102E+04  0.00000000000E+00 0.  1.
<mgrwt>
<rscale>  0 0.12431075E+04</rscale>
<asrwt>0</asrwt>
<pdfrwt beam="1">  1        2 0.28656351E+00 0.12431075E+04</pdfrwt>
<pdfrwt beam="2">  1       -1 0.31908748E-01 0.12431075E+04</pdfrwt>
<totfact> 0.81733796E+01</totfact>
</mgrwt>
</event>
<event>
12    6  0.1529770E-007  0.1670290E+04  0.7818608E-02  0.8778493E-01
          2   -1    0    0  501    0  0.00000000000E+00  0.00000000000E+00  0.44506514867E+03  0.44506514867E+03  0.00000000000E+00 0. -1.
         -1   -1    0    0    0  501 -0.00000000000E+00 -0.00000000000E+00 -0.15671134047E+04  0.15671134047E+04  0.00000000000E+00 0.  1.
         24    2    1    2    0    0 -0.38492520095E+03  0.10854541592E+03  0.12890514217E+03  0.42756073261E+03  0.79007131002E+02 0.  0.
        254    2    1    2    0    0  0.38492520095E+03 -0.10854541592E+03 -0.12509533982E+04  0.15846178207E+04  0.88666775951E+03 0.  0.
         23    2    4    4    0    0  0.49097880440E+03 -0.40376909607E+03 -0.88998415714E+03  0.10975222447E+04  0.91616637521E+02 0.  0.
         23    2    4    4    0    0 -0.10605360345E+03  0.29522368015E+03 -0.36096924105E+03  0.48709557608E+03  0.92514426570E+02 0.  0.
          2    1    3    3  502    0 -0.34660938101E+03  0.11879088432E+03  0.10457890324E+03  0.38103291748E+03  0.00000000000E+00 0. -1.
         -1    1    3    3    0  502 -0.38315819937E+02 -0.10245468396E+02  0.24326238929E+02  0.46527815127E+02  0.00000000000E+00 0.  1.
         11    1    5    5    0    0  0.27556628496E+03 -0.26124319469E+03 -0.46676999419E+03  0.60171339661E+03  0.00000000000E+00 0. -1.
        -11    1    5    5    0    0  0.21541251944E+03 -0.14252590138E+03 -0.42321416295E+03  0.49580884807E+03  0.00000000000E+00 0.  1.
          4    1    6    6  503    0 -0.48320569449E+02  0.24375327401E+03 -0.29242489109E+03  0.38374842403E+03  0.00000000000E+00 0. -1.
         -4    1    6    6    0  503 -0.57733034003E+02  0.51470406145E+02 -0.68544349960E+02  0.10334715204E+03  0.00000000000E+00 0.  1.
<mgrwt>
<rscale>  0 0.16702905E+04</rscale>
<asrwt>0</asrwt>
<pdfrwt beam="1">  1        2 0.68471563E-01 0.16702905E+04</pdfrwt>
<pdfrwt beam="2">  1       -1 0.24109437E+00 0.16702905E+04</pdfrwt>
<totfact> 0.61253490E+00</totfact>
</mgrwt>
</event>
<event>
12    6  0.1529770E-007  0.2953334E+04  0.7818608E-02  0.8257183E-01
         -1   -1    0    0    0  501 -0.00000000000E+00  0.00000000000E+00  0.13491468906E+04  0.13491468906E+04  0.00000000000E+00 0.  1.
          2   -1    0    0  501    0  0.00000000000E+00 -0.00000000000E+00 -0.16162405822E+04  0.16162405822E+04  0.00000000000E+00 0. -1.
         24    2    1    2    0    0 -0.99912117464E+03 -0.58783106674E+03 -0.79192845733E+03  0.14061031575E+04  0.78656999053E+02 0.  0.
        254    2    1    2    0    0  0.99912117464E+03  0.58783106674E+03  0.52483476578E+03  0.15592843152E+04  0.90118120251E+03 0.  0.
         23    2    4    4    0    0 -0.46715137562E+02  0.38287109305E+03  0.99118755852E+02  0.40786107909E+03  0.88054267930E+02 0.  0.
         23    2    4    4    0    0  0.10458363122E+04  0.20495997368E+03  0.42571600993E+03  0.11514232362E+04  0.93590410418E+02 0.  0.
          4    1    3    3  502    0 -0.29926588951E+02 -0.34766537016E+01 -0.18986035741E+02  0.35611197682E+02  0.00000000000E+00 0. -1.
         -3    1    3    3    0  502 -0.96919458569E+03 -0.58435441303E+03 -0.77294242159E+03  0.13704919599E+04  0.00000000000E+00 0.  1.
         11    1    5    5    0    0 -0.27436057986E+02  0.59665413922E+02 -0.94840125076E+01  0.66352433185E+02  0.00000000000E+00 0. -1.
        -11    1    5    5    0    0 -0.19279079576E+02  0.32320567913E+03  0.10860276836E+03  0.34150864590E+03  0.00000000000E+00 0.  1.
          2    1    6    6  503    0  0.92799851594E+02  0.31191801047E+02  0.14333162309E+02  0.98945340720E+02  0.00000000000E+00 0. -1.
         -2    1    6    6    0  503  0.95303646060E+03  0.17376817264E+03  0.41138284762E+03  0.10524778954E+04  0.00000000000E+00 0.  1.
<mgrwt>
<rscale>  0 0.29533344E+04</rscale>
<asrwt>0</asrwt>
<pdfrwt beam="1">  1        2 0.24865240E+00 0.29533344E+04</pdfrwt>
<pdfrwt beam="2">  1       -1 0.20756106E+00 0.29533344E+04</pdfrwt>
<totfact> 0.14269652E+00</totfact>
</mgrwt>
</event>
<event>
12    6  0.1529770E-007  0.2598051E+04  0.7818608E-02  0.8368863E-01
          2   -1    0    0  501    0  0.00000000000E+00  0.00000000000E+00  0.30164006345E+04  0.30164006345E+04  0.00000000000E+00 0. -1.
         -1   -1    0    0    0  501 -0.00000000000E+00 -0.00000000000E+00 -0.55943095126E+03  0.55943095126E+03  0.00000000000E+00 0.  1.
         24    2    1    2    0    0  0.31109791579E+03 -0.12768254596E+03 -0.41821578013E+03  0.54285652788E+03  0.81878112812E+02 0.  0.
        254    2    1    2    0    0 -0.31109791579E+03  0.12768254596E+03  0.28751854633E+04  0.30329750579E+04  0.90507541518E+03 0.  0.
         23    2    4    4    0    0  0.50767602985E+02  0.11124899308E+03  0.19315049003E+02  0.15282272004E+03  0.89599244797E+02 0.  0.
         23    2    4    4    0    0 -0.36186551878E+03  0.16433552880E+02  0.28558704143E+04  0.28801523378E+04  0.89805067484E+02 0.  0.
          4    1    3    3  502    0  0.21926202699E+02 -0.28256599280E+02 -0.20665343495E+02  0.41306781398E+02  0.00000000000E+00 0. -1.
         -3    1    3    3    0  502  0.28917171310E+03 -0.99425946680E+02 -0.39755043664E+03  0.50154974648E+03  0.00000000000E+00 0.  1.
         11    1    5    5    0    0 -0.13860878921E+02  0.26902973249E+02  0.34039793863E+02  0.45547793584E+02  0.00000000000E+00 0.  1.
        -11    1    5    5    0    0  0.64628481907E+02  0.84346019830E+02 -0.14724744860E+02  0.10727492646E+03  0.00000000000E+00 0. -1.
          3    1    6    6  503    0 -0.12230972545E+03  0.37587930496E+02  0.12214895980E+04  0.12281731798E+04  0.00000000000E+00 0. -1.
         -3    1    6    6    0  503 -0.23955579333E+03 -0.21154377617E+02  0.16343808163E+04  0.16519791580E+04  0.00000000000E+00 0.  1.
<mgrwt>
<rscale>  0 0.25980515E+04</rscale>
<asrwt>0</asrwt>
<pdfrwt beam="1">  1        2 0.46406163E+00 0.25980515E+04</pdfrwt>
<pdfrwt beam="2">  1       -1 0.86066302E-01 0.25980515E+04</pdfrwt>
<totfact> 0.22788441E+00</totfact>
</mgrwt>
</event>
<event>
12    6  0.1529770E-007  0.1417638E+04  0.7818608E-02  0.8941149E-01
         -1   -1    0    0    0  501 -0.00000000000E+00  0.00000000000E+00  0.48538423152E+03  0.48538423152E+03  0.00000000000E+00 0.  1.
          2   -1    0    0  501    0  0.00000000000E+00 -0.00000000000E+00 -0.10351067757E+04  0.10351067757E+04  0.00000000000E+00 0. -1.
         24    2    1    2    0    0  0.24484123373E+03  0.27952819709E+03 -0.36633178144E+03  0.52856138448E+03  0.84231350226E+02 0.  0.
        254    2    1    2    0    0 -0.24484123373E+03 -0.27952819709E+03 -0.18339076268E+03  0.99192962270E+03  0.90122636548E+03 0.  0.
         23    2    4    4    0    0 -0.56503540195E+03 -0.29170551636E+03 -0.11124699965E+03  0.65106662762E+03  0.84585725358E+02 0.  0.
         23    2    4    4    0    0  0.32019416822E+03  0.12177319272E+02 -0.72143763037E+02  0.34086299508E+03  0.91160662564E+02 0.  0.
          4    1    3    3  502    0  0.24495741125E+03  0.26694992850E+03 -0.32983101991E+03  0.48995397676E+03  0.00000000000E+00 0. -1.
         -3    1    3    3    0  502 -0.11617751492E+00  0.12578268595E+02 -0.36500761535E+02  0.38607407718E+02  0.00000000000E+00 0.  1.
         11    1    5    5    0    0 -0.22613779340E+03 -0.71540595940E+02 -0.33835035489E+02  0.23958540878E+03  0.00000000000E+00 0. -1.
        -11    1    5    5    0    0 -0.33889760855E+03 -0.22016492042E+03 -0.77411964157E+02  0.41148121884E+03  0.00000000000E+00 0.  1.
          4    1    6    6  503    0  0.64604653110E+02 -0.20835739384E+02  0.13658917308E+02  0.69242005034E+02  0.00000000000E+00 0. -1.
         -4    1    6    6    0  503  0.25558951511E+03  0.33013058656E+02 -0.85802680345E+02  0.27162099004E+03  0.00000000000E+00 0.  1.
<mgrwt>
<rscale>  0 0.14176382E+04</rscale>
<asrwt>0</asrwt>
<pdfrwt beam="1">  1        2 0.15924719E+00 0.14176382E+04</pdfrwt>
<pdfrwt beam="2">  1       -1 0.74674498E-01 0.14176382E+04</pdfrwt>
<totfact> 0.47869381E+01</totfact>
</mgrwt>
</event>
<event>
12    6  0.1529770E-007  0.1308794E+04  0.7818608E-02  0.9022620E-01
         -1   -1    0    0    0  501 -0.00000000000E+00  0.00000000000E+00  0.73825664915E+03  0.73825664915E+03  0.00000000000E+00 0.  1.
          2   -1    0    0  501    0  0.00000000000E+00 -0.00000000000E+00 -0.58006344031E+03  0.58006344031E+03  0.00000000000E+00 0. -1.
         24    2    1    2    0    0  0.12279478268E+03 -0.30442971406E+03  0.87201635186E+02  0.34877687811E+03  0.79279102321E+02 0.  0.
        254    2    1    2    0    0 -0.12279478268E+03  0.30442971406E+03  0.70991573650E+02  0.96954321136E+03  0.90951537958E+03 0.  0.
         23    2    4    4    0    0 -0.34170432719E+03  0.48810781784E+02  0.36708585033E+03  0.51211320577E+03  0.91452579921E+02 0.  0.
         23    2    4    4    0    0  0.21890954451E+03  0.25561893228E+03 -0.29609427668E+03  0.45743000558E+03  0.91148023068E+02 0.  0.
          4    1    3    3  502    0  0.71503309428E+02 -0.14332684745E+03  0.37130744240E+01  0.16021577757E+03  0.00000000000E+00 0. -1.
         -1    1    3    3    0  502  0.51291473252E+02 -0.16110286661E+03  0.83488560762E+02  0.18856110054E+03  0.00000000000E+00 0.  1.
         11    1    5    5    0    0 -0.75681028579E+02 -0.21374982632E+02  0.54421562329E+02  0.95635842734E+02  0.00000000000E+00 0. -1.
        -11    1    5    5    0    0 -0.26602329861E+03  0.70185764416E+02  0.31266428800E+03  0.41647736304E+03  0.00000000000E+00 0.  1.
          2    1    6    6  503    0  0.13887554953E+03  0.98712475679E+02 -0.17095427303E+03  0.24136266194E+03  0.00000000000E+00 0.  1.
         -2    1    6    6    0  503  0.80033994974E+02  0.15690645660E+03 -0.12514000365E+03  0.21606734364E+03  0.00000000000E+00 0. -1.
<mgrwt>
<rscale>  0 0.13087944E+04</rscale>
<asrwt>0</asrwt>
<pdfrwt beam="1">  1        2 0.89240529E-01 0.13087944E+04</pdfrwt>
<pdfrwt beam="2">  1       -1 0.11357795E+00 0.13087944E+04</pdfrwt>
<totfact> 0.40922472E+01</totfact>
</mgrwt>
</event>
<event>
12    6  0.1529770E-007  0.2798501E+04  0.7818608E-02  0.8303734E-01
          2   -1    0    0  501    0  0.00000000000E+00  0.00000000000E+00  0.18203942446E+04  0.18203942446E+04  0.00000000000E+00 0. -1.
         -1   -1    0    0    0  501 -0.00000000000E+00 -0.00000000000E+00 -0.10755374915E+04  0.10755374915E+04  0.00000000000E+00 0.  1.
         24    2    1    2    0    0  0.59463964921E+02 -0.14103579824E+02  0.16340498398E+04  0.16369145422E+04  0.75069736574E+02 0.  0.
        254    2    1    2    0    0 -0.59463964921E+02  0.14103579824E+02 -0.88919308675E+03  0.12590171939E+04  0.88922723477E+03 0.  0.
         23    2    4    4    0    0  0.22399654005E+02 -0.54040842552E+02  0.16436523573E+03  0.19630825827E+03  0.89993579688E+02 0.  0.
         23    2    4    4    0    0 -0.81863618925E+02  0.68144422376E+02 -0.10535583225E+04  0.10627089357E+04  0.89553496293E+02 0.  0.
          2    1    3    3  502    0  0.68457898515E+02  0.69269559550E+01  0.14154203174E+04  0.14170917901E+04  0.00000000000E+00 0. -1.
         -3    1    3    3    0  502 -0.89939335948E+01 -0.21030535779E+02  0.21862952239E+03  0.21982275209E+03  0.00000000000E+00 0.  1.
         11    1    5    5    0    0 -0.17563158913E+02 -0.37149582145E+02  0.14133755532E+03  0.14718987923E+03  0.00000000000E+00 0. -1.
        -11    1    5    5    0    0  0.39962812918E+02 -0.16891260407E+02  0.23027680416E+02  0.49118379043E+02  0.00000000000E+00 0.  1.
          1    1    6    6  503    0 -0.23792801211E+02  0.13099615000E+02 -0.59161978394E+02  0.65098671185E+02  0.00000000000E+00 0.  1.
         -1    1    6    6    0  503 -0.58070817714E+02  0.55044807376E+02 -0.99439634409E+03  0.99761026449E+03  0.00000000000E+00 0. -1.
<mgrwt>
<rscale>  0 0.27985012E+04</rscale>
<asrwt>0</asrwt>
<pdfrwt beam="1">  1        2 0.28006065E+00 0.27985012E+04</pdfrwt>
<pdfrwt beam="2">  1       -1 0.16546731E+00 0.27985012E+04</pdfrwt>
<totfact> 0.22134515E+00</totfact>
</mgrwt>
</event>
<event>
12    6  0.1529770E-007  0.2913622E+04  0.7818608E-02  0.8268836E-01
         -1   -1    0    0    0  501 -0.00000000000E+00  0.00000000000E+00  0.94425943467E+03  0.94425943467E+03  0.00000000000E+00 0.  1.
          2   -1    0    0  501    0  0.00000000000E+00 -0.00000000000E+00 -0.22475795275E+04  0.22475795275E+04  0.00000000000E+00 0. -1.
         24    2    1    2    0    0 -0.77920803530E+03  0.73312205225E+03 -0.14288542002E+04  0.17868046796E+04  0.80084528752E+02 0.  0.
        254    2    1    2    0    0  0.77920803530E+03 -0.73312205225E+03  0.12553410731E+03  0.14050342826E+04  0.90206951923E+03 0.  0.
         23    2    4    4    0    0  0.53967472318E+03 -0.79916559444E+03 -0.19711734148E+03  0.98841460463E+03  0.90519225334E+02 0.  0.
         23    2    4    4    0    0  0.23953331212E+03  0.66043542197E+02  0.32265144879E+03  0.41661967801E+03  0.87920655242E+02 0.  0.
          4    1    3    3  502    0 -0.43904167994E+03  0.42836229578E+03 -0.88180310024E+03  0.10741641219E+04  0.00000000000E+00 0. -1.
         -3    1    3    3    0  502 -0.34016635536E+03  0.30475975646E+03 -0.54705109994E+03  0.71264055766E+03  0.00000000000E+00 0.  1.
         11    1    5    5    0    0  0.46999342156E+02 -0.11926746188E+03 -0.39225723261E+02  0.13406089285E+03  0.00000000000E+00 0. -1.
        -11    1    5    5    0    0  0.49267538103E+03 -0.67989813256E+03 -0.15789161822E+03  0.85435371178E+03  0.00000000000E+00 0.  1.
          1    1    6    6  503    0  0.48739909511E+01 -0.74265808544E+01 -0.22460120627E+01  0.91626667060E+01  0.00000000000E+00 0. -1.
         -1    1    6    6    0  503  0.23465932117E+03  0.73470123051E+02  0.32489746085E+03  0.40745701130E+03  0.00000000000E+00 0.  1.
<mgrwt>
<rscale>  0 0.29136219E+04</rscale>
<asrwt>0</asrwt>
<pdfrwt beam="1">  1        2 0.34578146E+00 0.29136219E+04</pdfrwt>
<pdfrwt beam="2">  1       -1 0.14527068E+00 0.29136219E+04</pdfrwt>
<totfact> 0.18090046E+00</totfact>
</mgrwt>
</event>
<event>
12    6  0.1529770E-007  0.1457459E+04  0.7818608E-02  0.8913246E-01
         -1   -1    0    0    0  501 -0.00000000000E+00  0.00000000000E+00  0.37919807407E+03  0.37919807407E+03  0.00000000000E+00 0.  1.
          2   -1    0    0  501    0  0.00000000000E+00 -0.00000000000E+00 -0.14004463898E+04  0.14004463898E+04  0.00000000000E+00 0. -1.
         24    2    1    2    0    0  0.41238630621E+03  0.15347630317E+03 -0.18093042609E+03  0.48243661042E+03  0.79948876181E+02 0.  0.
        254    2    1    2    0    0 -0.41238630621E+03 -0.15347630317E+03 -0.84031788960E+03  0.12972078534E+04  0.88487096133E+03 0.  0.
         23    2    4    4    0    0  0.30506463204E+02 -0.95993179283E+02 -0.83035022586E+03  0.84112419029E+03  0.88673959803E+02 0.  0.
         23    2    4    4    0    0 -0.44289276941E+03 -0.57483123891E+02 -0.99676637473E+01  0.45608366313E+03  0.91949109420E+02 0.  0.
          4    1    3    3  502    0  0.16720623380E+03  0.26353512349E+02 -0.48065969773E+02  0.17596240986E+03  0.00000000000E+00 0. -1.
         -1    1    3    3    0  502  0.24518007241E+03  0.12712279083E+03 -0.13286445632E+03  0.30647420056E+03  0.00000000000E+00 0.  1.
         11    1    5    5    0    0  0.43473426433E+02 -0.10761651393E+03 -0.74816498029E+03  0.75711431806E+03  0.00000000000E+00 0. -1.
        -11    1    5    5    0    0 -0.12966963229E+02  0.11623334649E+02 -0.82185245568E+02  0.84009872234E+02  0.00000000000E+00 0.  1.
          4    1    6    6  503    0 -0.23397992271E+03 -0.39950565866E+02  0.39624597442E+02  0.24065070261E+03  0.00000000000E+00 0. -1.
         -4    1    6    6    0  503 -0.20891284670E+03 -0.17532558025E+02 -0.49592261189E+02  0.21543296052E+03  0.00000000000E+00 0.  1.
<mgrwt>
<rscale>  0 0.14574588E+04</rscale>
<asrwt>0</asrwt>
<pdfrwt beam="1">  1        2 0.21545329E+00 0.14574588E+04</pdfrwt>
<pdfrwt beam="2">  1       -1 0.58338164E-01 0.14574588E+04</pdfrwt>
<totfact> 0.47561117E+01</totfact>
</mgrwt>
</event>
<event>
12    6  0.1529770E-007  0.2043048E+04  0.7818608E-02  0.8586755E-01
          4   -1    0    0  501    0  0.00000000000E+00  0.00000000000E+00  0.23896119014E+04  0.23896119014E+04  0.00000000000E+00 0. -1.
         -3   -1    0    0    0  501 -0.00000000000E+00 -0.00000000000E+00 -0.43668654526E+03  0.43668654526E+03  0.00000000000E+00 0.  1.
         24    2    1    2    0    0  0.45639236393E+03  0.31921929790E+02  0.17128337666E+04  0.17745837132E+04  0.77684255973E+02 0.  0.
        254    2    1    2    0    0 -0.45639236393E+03 -0.31921929790E+02  0.24009158960E+03  0.10517147335E+04  0.91604962196E+03 0.  0.
         23    2    4    4    0    0  0.74772972817E+02 -0.36853539314E+03  0.63012972796E+02  0.39215200061E+03  0.91669097202E+02 0.  0.
         23    2    4    4    0    0 -0.53116533675E+03  0.33661346335E+03  0.17707861680E+03  0.65956273293E+03  0.90669308328E+02 0.  0.
          4    1    3    3  502    0  0.36234266642E+03  0.43296643618E+02  0.14494274740E+04  0.14946594293E+04  0.00000000000E+00 0. -1.
         -3    1    3    3    0  502  0.94049697510E+02 -0.11374713828E+02  0.26340629262E+03  0.27992428389E+03  0.00000000000E+00 0.  1.
         11    1    5    5    0    0  0.26852638713E+02 -0.99106400144E+02  0.59086085094E+02  0.11846648559E+03  0.00000000000E+00 0. -1.
        -11    1    5    5    0    0  0.47920334104E+02 -0.26942899300E+03  0.39268877021E+01  0.27368551502E+03  0.00000000000E+00 0.  1.
          3    1    6    6  503    0 -0.26019538737E+03  0.18768954526E+03  0.47548661169E+02  0.32432989407E+03  0.00000000000E+00 0. -1.
         -3    1    6    6    0  503 -0.27096994937E+03  0.14892391809E+03  0.12952995563E+03  0.33523283886E+03  0.00000000000E+00 0.  1.
<mgrwt>
<rscale>  0 0.20430481E+04</rscale>
<asrwt>0</asrwt>
<pdfrwt beam="1">  1        4 0.36763259E+00 0.20430481E+04</pdfrwt>
<pdfrwt beam="2">  1       -3 0.67182547E-01 0.20430481E+04</pdfrwt>
<totfact> 0.51218623E-02</totfact>
</mgrwt>
</event>
<event>
12    6  0.1529770E-007  0.1797662E+04  0.7818608E-02  0.8707544E-01
         -1   -1    0    0    0  501 -0.00000000000E+00  0.00000000000E+00  0.70501632729E+03  0.70501632729E+03  0.00000000000E+00 0.  1.
          2   -1    0    0  501    0  0.00000000000E+00 -0.00000000000E+00 -0.11459267074E+04  0.11459267074E+04  0.00000000000E+00 0. -1.
         24    2    1    2    0    0  0.49037655749E+03 -0.18515258321E+03  0.21945968531E+03  0.57384562238E+03  0.79909934595E+02 0.  0.
        254    2    1    2    0    0 -0.49037655749E+03  0.18515258321E+03 -0.66037006539E+03  0.12770974123E+04  0.95923851570E+03 0.  0.
         23    2    4    4    0    0 -0.71847689641E+03  0.99933845419E+02 -0.21724406429E+03  0.76271196887E+03  0.91316700816E+02 0.  0.
         23    2    4    4    0    0  0.22810033893E+03  0.85218737788E+02 -0.44312600110E+03  0.51438544342E+03  0.94550164773E+02 0.  0.
          4    1    3    3  502    0  0.35969066804E+03 -0.16319987712E+03  0.13853503704E+03  0.41857321110E+03  0.00000000000E+00 0. -1.
         -3    1    3    3    0  502  0.13068588945E+03 -0.21952706086E+02  0.80924648276E+02  0.15527241128E+03  0.00000000000E+00 0.  1.
         11    1    5    5    0    0 -0.66924532169E+03  0.71600789654E+02 -0.18802112448E+03  0.69883325403E+03  0.00000000000E+00 0.  1.
        -11    1    5    5    0    0 -0.49231574720E+02  0.28333055765E+02 -0.29222939811E+02  0.63878714840E+02  0.00000000000E+00 0. -1.
          3    1    6    6  503    0  0.13012501381E+03 -0.41516771376E+00 -0.24361792251E+03  0.27619265695E+03  0.00000000000E+00 0. -1.
         -3    1    6    6    0  503  0.97975325120E+02  0.85633905502E+02 -0.19950807859E+03  0.23819278647E+03  0.00000000000E+00 0.  1.
<mgrwt>
<rscale>  0 0.17976619E+04</rscale>
<asrwt>0</asrwt>
<pdfrwt beam="1">  1        2 0.17629641E+00 0.17976619E+04</pdfrwt>
<pdfrwt beam="2">  1       -1 0.10846405E+00 0.17976619E+04</pdfrwt>
<totfact> 0.17349265E+01</totfact>
</mgrwt>
</event>
<event>
12    6  0.1529770E-007  0.1803706E+04  0.7818608E-02  0.8704331E-01
         -1   -1    0    0    0  501 -0.00000000000E+00  0.00000000000E+00  0.94612528672E+03  0.94612528672E+03  0.00000000000E+00 0.  1.
          2   -1    0    0  501    0  0.00000000000E+00 -0.00000000000E+00 -0.85965193637E+03  0.85965193637E+03  0.00000000000E+00 0. -1.
         24    2    1    2    0    0 -0.56733420759E+02  0.59343601193E+03 -0.40186074751E+03  0.72332227543E+03  0.79486303612E+02 0.  0.
        254    2    1    2    0    0  0.56733420759E+02 -0.59343601193E+03  0.48833409785E+03  0.10824549477E+04  0.76016678519E+03 0.  0.
         23    2    4    4    0    0  0.27532842806E+03 -0.25784241748E+03 -0.65660469765E+02  0.39297880247E+03  0.88501900279E+02 0.  0.
         23    2    4    4    0    0 -0.21859500730E+03 -0.33559359445E+03  0.55399456762E+03  0.68947614519E+03  0.89780487790E+02 0.  0.
          4    1    3    3  502    0 -0.52664501144E+02  0.51693211993E+03 -0.31556469674E+03  0.60792552515E+03  0.00000000000E+00 0. -1.
         -3    1    3    3    0  502 -0.40689196149E+01  0.76503891992E+02 -0.86296050768E+02  0.11539675028E+03  0.00000000000E+00 0.  1.
         11    1    5    5    0    0  0.23976401909E+03 -0.23829536150E+03 -0.30731042113E+02  0.33943461979E+03  0.00000000000E+00 0.  1.
        -11    1    5    5    0    0  0.35564408969E+02 -0.19547055976E+02 -0.34929427652E+02  0.53544182679E+02  0.00000000000E+00 0. -1.
          4    1    6    6  503    0 -0.26207163987E+02 -0.76444459133E+02  0.65680419785E+02  0.10413687301E+03  0.00000000000E+00 0. -1.
         -4    1    6    6    0  503 -0.19238784331E+03 -0.25914913531E+03  0.48831414783E+03  0.58533927218E+03  0.00000000000E+00 0.  1.
<mgrwt>
<rscale>  0 0.18037056E+04</rscale>
<asrwt>0</asrwt>
<pdfrwt beam="1">  1        2 0.13225414E+00 0.18037056E+04</pdfrwt>
<pdfrwt beam="2">  1       -1 0.14555774E+00 0.18037056E+04</pdfrwt>
<totfact> 0.12731816E+01</totfact>
</mgrwt>
</event>
<event>
12    6  0.1529770E-007  0.2365046E+04  0.7818608E-02  0.8452707E-01
          2   -1    0    0  501    0  0.00000000000E+00  0.00000000000E+00  0.26145084336E+04  0.26145084336E+04  0.00000000000E+00 0. -1.
         -1   -1    0    0    0  501 -0.00000000000E+00 -0.00000000000E+00 -0.53484659120E+03  0.53484659120E+03  0.00000000000E+00 0.  1.
         24    2    1    2    0    0 -0.85015019742E+03 -0.20104200608E+03  0.15661453948E+04  0.17951172950E+04  0.80383199604E+02 0.  0.
        254    2    1    2    0    0  0.85015019742E+03  0.20104200608E+03  0.51351644757E+03  0.13542377298E+04  0.89838045418E+03 0.  0.
         23    2    4    4    0    0  0.57865430269E+03  0.42705441950E+03  0.80534888505E+00  0.72535506565E+03  0.94461862400E+02 0.  0.
         23    2    4    4    0    0  0.27149589473E+03 -0.22601241342E+03  0.51271109868E+03  0.62888266412E+03  0.88482216582E+02 0.  0.
          2    1    3    3  502    0 -0.83475276961E+03 -0.18795601838E+03  0.15119501131E+04  0.17372774090E+04  0.00000000000E+00 0. -1.
         -1    1    3    3    0  502 -0.15397427811E+02 -0.13085987701E+02  0.54195281741E+02  0.57839886067E+02  0.00000000000E+00 0.  1.
         11    1    5    5    0    0  0.21965048200E+03  0.21585106143E+03 -0.17263407652E+02  0.30844130756E+03  0.00000000000E+00 0.  1.
        -11    1    5    5    0    0  0.35900382069E+03  0.21120335808E+03  0.18068756537E+02  0.41691375810E+03  0.00000000000E+00 0. -1.
          1    1    6    6  503    0  0.52614102553E+02 -0.92308362837E+02  0.17640200346E+03  0.20592897917E+03  0.00000000000E+00 0. -1.
         -1    1    6    6    0  503  0.21888179218E+03 -0.13370405058E+03  0.33630909522E+03  0.42295368495E+03  0.00000000000E+00 0.  1.
<mgrwt>
<rscale>  0 0.23650462E+04</rscale>
<asrwt>0</asrwt>
<pdfrwt beam="1">  1        2 0.40223206E+00 0.23650462E+04</pdfrwt>
<pdfrwt beam="2">  1       -1 0.82284093E-01 0.23650462E+04</pdfrwt>
<totfact> 0.44958844E+00</totfact>
</mgrwt>
</event>
<event>
12    6  0.1529770E-007  0.1053962E+04  0.7818608E-02  0.9251263E-01
          2   -1    0    0  501    0  0.00000000000E+00  0.00000000000E+00  0.21147468135E+04  0.21147468135E+04  0.00000000000E+00 0. -1.
         -1   -1    0    0    0  501 -0.00000000000E+00 -0.00000000000E+00 -0.13132022972E+03  0.13132022972E+03  0.00000000000E+00 0.  1.
         24    2    1    2    0    0 -0.26019059682E+02 -0.13981018606E+02  0.17908716544E+02  0.86794114006E+02  0.79624341441E+02 0.  0.
        254    2    1    2    0    0  0.26019059682E+02  0.13981018606E+02  0.19655178673E+04  0.21592729292E+04  0.89349126243E+03 0.  0.
         23    2    4    4    0    0  0.10690845954E+03  0.31290741494E+03  0.27891064119E+03  0.44205467636E+03  0.90998472905E+02 0.  0.
         23    2    4    4    0    0 -0.80889399863E+02 -0.29892639633E+03  0.16866072261E+04  0.17172182529E+04  0.91074187003E+02 0.  0.
          4    1    3    3  502    0  0.52951868254E+01  0.29943217737E+02  0.11333218280E+02  0.32451149880E+02  0.00000000000E+00 0. -1.
         -3    1    3    3    0  502 -0.31314246507E+02 -0.43924236343E+02  0.65754982640E+01  0.54342964126E+02  0.00000000000E+00 0.  1.
         11    1    5    5    0    0  0.11916172213E+03  0.30536637058E+03  0.26055800851E+03  0.41873453655E+03  0.00000000000E+00 0. -1.
        -11    1    5    5    0    0 -0.12253262586E+02  0.75410443566E+01  0.18352632684E+02  0.23320139803E+02  0.00000000000E+00 0.  1.
          2    1    6    6  503    0  0.11811845472E+02 -0.77424224571E+02  0.30469038608E+03  0.31459539350E+03  0.00000000000E+00 0.  1.
         -2    1    6    6    0  503 -0.92701245335E+02 -0.22150217176E+03  0.13819168400E+04  0.14026228594E+04  0.00000000000E+00 0. -1.
<mgrwt>
<rscale>  0 0.10539621E+04</rscale>
<asrwt>0</asrwt>
<pdfrwt beam="1">  1        2 0.32534564E+00 0.10539621E+04</pdfrwt>
<pdfrwt beam="2">  1       -1 0.20203114E-01 0.10539621E+04</pdfrwt>
<totfact> 0.13202791E+02</totfact>
</mgrwt>
</event>
<event>
12    6  0.1529770E-007  0.1496786E+04  0.7818608E-02  0.8886593E-01
          2   -1    0    0  501    0  0.00000000000E+00  0.00000000000E+00  0.85449807386E+03  0.85449807386E+03  0.00000000000E+00 0. -1.
         -1   -1    0    0    0  501 -0.00000000000E+00 -0.00000000000E+00 -0.65546330030E+03  0.65546330030E+03  0.00000000000E+00 0.  1.
         24    2    1    2    0    0  0.22017857952E+03 -0.17116075404E+03 -0.32000207921E+03  0.43180184124E+03  0.79226818670E+02 0.  0.
        254    2    1    2    0    0 -0.22017857952E+03  0.17116075404E+03  0.51903685278E+03  0.10781595329E+04  0.90291423363E+03 0.  0.
         23    2    4    4    0    0  0.27364765268E+01  0.38021855685E+03 -0.80106301100E+02  0.39930605943E+03  0.91949281364E+02 0.  0.
         23    2    4    4    0    0 -0.22291505604E+03 -0.20905780281E+03  0.59914315388E+03  0.67885347349E+03  0.92050163011E+02 0.  0.
          2    1    3    3  502    0  0.61791764995E+01  0.84774927253E+01 -0.12633463193E+02  0.16421160050E+02  0.00000000000E+00 0. -1.
         -1    1    3    3    0  502  0.21399940302E+03 -0.17963824677E+03 -0.30736861602E+03  0.41538068119E+03  0.00000000000E+00 0.  1.
         11    1    5    5    0    0 -0.33524342283E+02  0.29118937652E+03 -0.42941252788E+02  0.29624160025E+03  0.00000000000E+00 0.  1.
        -11    1    5    5    0    0  0.36260818810E+02  0.89029180326E+02 -0.37165048312E+02  0.10306445918E+03  0.00000000000E+00 0. -1.
          3    1    6    6  503    0 -0.16931776674E+03 -0.18142073684E+03  0.54046207396E+03  0.59471105865E+03  0.00000000000E+00 0. -1.
         -3    1    6    6    0  503 -0.53597289302E+02 -0.27637065966E+02  0.58681079922E+02  0.84142414848E+02  0.00000000000E+00 0.  1.
<mgrwt>
<rscale>  0 0.14967861E+04</rscale>
<asrwt>0</asrwt>
<pdfrwt beam="1">  1        2 0.13146124E+00 0.14967861E+04</pdfrwt>
<pdfrwt beam="2">  1       -1 0.10084051E+00 0.14967861E+04</pdfrwt>
<totfact> 0.32510852E+01</totfact>
</mgrwt>
</event>
<event>
12    6  0.1529770E-007  0.1630684E+04  0.7818608E-02  0.8801916E-01
         -1   -1    0    0    0  501 -0.00000000000E+00  0.00000000000E+00  0.19185426228E+03  0.19185426228E+03  0.00000000000E+00 0.  1.
          2   -1    0    0  501    0  0.00000000000E+00 -0.00000000000E+00 -0.34650391473E+04  0.34650391473E+04  0.00000000000E+00 0. -1.
         24    2    1    2    0    0  0.16372803701E+03 -0.26189254583E+03 -0.21687921391E+04  0.21921219076E+04  0.79652619582E+02 0.  0.
        254    2    1    2    0    0 -0.16372803701E+03  0.26189254583E+03 -0.11043927459E+04  0.14647715019E+04  0.91130545916E+03 0.  0.
         23    2    4    4    0    0  0.35893921893E+03  0.18820237234E+03 -0.37454120668E+03  0.55933229122E+03  0.91181142029E+02 0.  0.
         23    2    4    4    0    0 -0.52266725594E+03  0.73690173494E+02 -0.72985153923E+03  0.90543921068E+03  0.92334136780E+02 0.  0.
          2    1    3    3  502    0  0.14444541425E+03 -0.25493957996E+03 -0.20999012966E+04  0.21202462411E+04  0.00000000000E+00 0. -1.
         -1    1    3    3    0  502  0.19282622759E+02 -0.69529658760E+01 -0.68890842427E+02  0.71875666573E+02  0.00000000000E+00 0.  1.
         11    1    5    5    0    0  0.23113156691E+02 -0.49578383622E+01 -0.54800500043E+01  0.24265801480E+02  0.00000000000E+00 0.  1.
        -11    1    5    5    0    0  0.33582606224E+03  0.19316021070E+03 -0.36906115667E+03  0.53506648974E+03  0.00000000000E+00 0. -1.
          2    1    6    6  503    0 -0.48638476074E+03  0.89761683791E+02 -0.69212949144E+03  0.85068826739E+03  0.00000000000E+00 0. -1.
         -2    1    6    6    0  503 -0.36282495203E+02 -0.16071510297E+02 -0.37722047788E+02  0.54750943286E+02  0.00000000000E+00 0.  1.
<mgrwt>
<rscale>  0 0.16306839E+04</rscale>
<asrwt>0</asrwt>
<pdfrwt beam="1">  1        2 0.53308288E+00 0.16306839E+04</pdfrwt>
<pdfrwt beam="2">  1       -1 0.29516044E-01 0.16306839E+04</pdfrwt>
<totfact> 0.99417866E+00</totfact>
</mgrwt>
</event>
<event>
12    6  0.1529770E-007  0.1818161E+04  0.7818608E-02  0.8696701E-01
         -1   -1    0    0    0  501 -0.00000000000E+00  0.00000000000E+00  0.36592617625E+03  0.36592617625E+03  0.00000000000E+00 0.  1.
          2   -1    0    0  501    0  0.00000000000E+00 -0.00000000000E+00 -0.22584546154E+04  0.22584546154E+04  0.00000000000E+00 0. -1.
         24    2    1    2    0    0  0.86372751282E+02 -0.68360136991E+03 -0.87507916428E+03  0.11166148263E+04  0.79334995569E+02 0.  0.
        254    2    1    2    0    0 -0.86372751282E+02  0.68360136991E+03 -0.10174492748E+04  0.15077659653E+04  0.87371854398E+03 0.  0.
         23    2    4    4    0    0  0.37960370743E+03  0.34399099550E+03 -0.58038553605E+03  0.77870437346E+03  0.84287312870E+02 0.  0.
         23    2    4    4    0    0 -0.46597645871E+03  0.33961037441E+03 -0.43706373878E+03  0.72906159182E+03  0.89648348739E+02 0.  0.
          2    1    3    3  502    0 -0.57317794927E+01 -0.50120467061E+02 -0.94455617611E+02  0.10708304354E+03  0.00000000000E+00 0. -1.
         -1    1    3    3    0  502  0.92104530775E+02 -0.63348090285E+03 -0.78062354667E+03  0.10095317828E+04  0.00000000000E+00 0.  1.
         11    1    5    5    0    0  0.13763206157E+03  0.16934107520E+03 -0.20764649503E+03  0.30122425370E+03  0.00000000000E+00 0. -1.
        -11    1    5    5    0    0  0.24197164586E+03  0.17464992030E+03 -0.37273904102E+03  0.47748011975E+03  0.00000000000E+00 0.  1.
          3    1    6    6  503    0 -0.10110824537E+03  0.42467503068E+02 -0.11460472091E+03  0.15862095748E+03  0.00000000000E+00 0. -1.
         -3    1    6    6    0  503 -0.36486821334E+03  0.29714287134E+03 -0.32245901787E+03  0.57044063433E+03  0.00000000000E+00 0.  1.
<mgrwt>
<rscale>  0 0.18181613E+04</rscale>
<asrwt>0</asrwt>
<pdfrwt beam="1">  1        2 0.34745456E+00 0.18181613E+04</pdfrwt>
<pdfrwt beam="2">  1       -1 0.56296333E-01 0.18181613E+04</pdfrwt>
<totfact> 0.16409718E+01</totfact>
</mgrwt>
</event>
<event>
12    6  0.1529770E-007  0.1148992E+04  0.7818608E-02  0.9158714E-01
         -1   -1    0    0    0  501 -0.00000000000E+00  0.00000000000E+00  0.26815539642E+03  0.26815539642E+03  0.00000000000E+00 0.  1.
          2   -1    0    0  501    0  0.00000000000E+00 -0.00000000000E+00 -0.12308009554E+04  0.12308009554E+04  0.00000000000E+00 0. -1.
         24    2    1    2    0    0 -0.10135816878E+03 -0.17112795017E+03 -0.15071483129E+03  0.26197795861E+03  0.79744822519E+02 0.  0.
        254    2    1    2    0    0  0.10135816878E+03  0.17112795017E+03 -0.81193072771E+03  0.12369783932E+04  0.91177068664E+03 0.  0.
         23    2    4    4    0    0 -0.39149562426E+03  0.53411547623E+01 -0.40122006635E+03  0.56806276159E+03  0.91762779539E+02 0.  0.
         23    2    4    4    0    0  0.49285379305E+03  0.16578679540E+03 -0.41071066135E+03  0.66891563164E+03  0.91513671405E+02 0.  0.
          4    1    3    3  502    0  0.99896506647E+01 -0.40920533289E+02 -0.20874474773E+02  0.47010922795E+02  0.00000000000E+00 0. -1.
         -3    1    3    3    0  502 -0.11134781945E+03 -0.13020741688E+03 -0.12984035652E+03  0.21496703581E+03  0.00000000000E+00 0.  1.
         11    1    5    5    0    0 -0.22879033852E+03 -0.21983013111E+02 -0.17915988473E+03  0.29142157807E+03  0.00000000000E+00 0.  1.
        -11    1    5    5    0    0 -0.16270528574E+03  0.27324167874E+02 -0.22206018163E+03  0.27664118352E+03  0.00000000000E+00 0. -1.
          3    1    6    6  503    0  0.80833280442E+02  0.31617818774E+01 -0.35236644739E+02  0.88236257990E+02  0.00000000000E+00 0. -1.
         -3    1    6    6    0  503  0.41202051260E+03  0.16262501353E+03 -0.37547401661E+03  0.58067937365E+03  0.00000000000E+00 0.  1.
<mgrwt>
<rscale>  0 0.11489925E+04</rscale>
<asrwt>0</asrwt>
<pdfrwt beam="1">  1        2 0.18935399E+00 0.11489925E+04</pdfrwt>
<pdfrwt beam="2">  1       -1 0.41254676E-01 0.11489925E+04</pdfrwt>
<totfact> 0.11782484E+02</totfact>
</mgrwt>
</event>
<event>
12    6  0.1529770E-007  0.1143939E+04  0.7818608E-02  0.9163393E-01
         -3   -1    0    0    0  501 -0.00000000000E+00  0.00000000000E+00  0.41153389891E+03  0.41153389891E+03  0.00000000000E+00 0.  1.
          2   -1    0    0  501    0  0.00000000000E+00 -0.00000000000E+00 -0.79495073816E+03  0.79495073816E+03  0.00000000000E+00 0. -1.
         24    2    1    2    0    0 -0.14323831257E+02 -0.18164909043E+03 -0.18378294763E+03  0.27128316118E+03  0.81343822779E+02 0.  0.
        254    2    1    2    0    0  0.14323831257E+02  0.18164909043E+03 -0.19963389161E+03  0.93520147589E+03  0.89529131887E+03 0.  0.
         23    2    4    4    0    0 -0.13970722900E+03  0.30764934475E+03  0.25404393856E+03  0.43117948013E+03  0.84918738806E+02 0.  0.
         23    2    4    4    0    0  0.15403106025E+03 -0.12600025433E+03 -0.45367783018E+03  0.50402199576E+03  0.92806072036E+02 0.  0.
          2    1    3    3  502    0  0.12139391537E+02 -0.58576193695E+02 -0.16744136843E+02  0.62120056449E+02  0.00000000000E+00 0. -1.
         -1    1    3    3    0  502 -0.26463222794E+02 -0.12307289673E+03 -0.16703881079E+03  0.20916310473E+03  0.00000000000E+00 0.  1.
         11    1    5    5    0    0 -0.59482917658E+02  0.93451700302E+02  0.39585813269E+02  0.11763704516E+03  0.00000000000E+00 0. -1.
        -11    1    5    5    0    0 -0.80224311339E+02  0.21419764445E+03  0.21445812530E+03  0.31354243497E+03  0.00000000000E+00 0.  1.
          3    1    6    6  503    0 -0.36156880126E+01 -0.24743325086E+02 -0.21503165407E+02  0.32980167656E+02  0.00000000000E+00 0. -1.
         -3    1    6    6    0  503  0.15764674827E+03 -0.10125692924E+03 -0.43217466477E+03  0.47104182811E+03  0.00000000000E+00 0.  1.
<mgrwt>
<rscale>  0 0.11439391E+04</rscale>
<asrwt>0</asrwt>
<pdfrwt beam="1">  1        2 0.12230011E+00 0.11439391E+04</pdfrwt>
<pdfrwt beam="2">  1       -3 0.63312908E-01 0.11439391E+04</pdfrwt>
<totfact> 0.52892812E+01</totfact>
</mgrwt>
</event>
<event>
12    6  0.1529770E-007  0.1224208E+04  0.7818608E-02  0.9091927E-01
          2   -1    0    0  501    0  0.00000000000E+00  0.00000000000E+00  0.13468814492E+04  0.13468814492E+04  0.00000000000E+00 0. -1.
         -1   -1    0    0    0  501 -0.00000000000E+00 -0.00000000000E+00 -0.27817704492E+03  0.27817704492E+03  0.00000000000E+00 0.  1.
         24    2    1    2    0    0 -0.60068626788E+02 -0.16985567312E+03  0.59230515706E+03  0.62432371329E+03  0.80594728645E+02 0.  0.
        254    2    1    2    0    0  0.60068626788E+02  0.16985567312E+03  0.47639924724E+03  0.10007347809E+04  0.86142595110E+03 0.  0.
         23    2    4    4    0    0 -0.30262763742E+03  0.89946890404E+02 -0.69359088313E+02  0.33409081648E+03  0.84451527523E+02 0.  0.
         23    2    4    4    0    0  0.36269626421E+03  0.79908782714E+02  0.54575833555E+03  0.66664396438E+03  0.92887140079E+02 0.  0.
          2    1    3    3  502    0 -0.64119387652E+02 -0.14150588383E+03  0.56001265940E+03  0.58116210279E+03  0.00000000000E+00 0. -1.
         -1    1    3    3    0  502  0.40507608632E+01 -0.28349789285E+02  0.32292497665E+02  0.43161610507E+02  0.00000000000E+00 0.  1.
         11    1    5    5    0    0 -0.11430151763E+03  0.23276938262E+02  0.14264128452E+02  0.11751645905E+03  0.00000000000E+00 0. -1.
        -11    1    5    5    0    0 -0.18832611979E+03  0.66669952142E+02 -0.83623216765E+02  0.21657435743E+03  0.00000000000E+00 0.  1.
          3    1    6    6  503    0  0.20678225436E+03  0.24170232204E+02  0.37419700477E+03  0.42821314695E+03  0.00000000000E+00 0. -1.
         -3    1    6    6    0  503  0.15591400984E+03  0.55738550510E+02  0.17156133079E+03  0.23843081743E+03  0.00000000000E+00 0.  1.
<mgrwt>
<rscale>  0 0.12242083E+04</rscale>
<asrwt>0</asrwt>
<pdfrwt beam="1">  1        2 0.20721253E+00 0.12242083E+04</pdfrwt>
<pdfrwt beam="2">  1       -1 0.42796469E-01 0.12242083E+04</pdfrwt>
<totfact> 0.93699689E+01</totfact>
</mgrwt>
</event>
<event>
12    6  0.1529770E-007  0.1545985E+04  0.7818608E-02  0.8854436E-01
          2   -1    0    0  501    0  0.00000000000E+00  0.00000000000E+00  0.12250699632E+04  0.12250699632E+04  0.00000000000E+00 0. -1.
         -1   -1    0    0    0  501 -0.00000000000E+00 -0.00000000000E+00 -0.48774157518E+03  0.48774157518E+03  0.00000000000E+00 0.  1.
         24    2    1    2    0    0 -0.76524960210E+02 -0.35064639688E+02  0.80137999853E+03  0.80966895493E+03  0.79172697577E+02 0.  0.
        254    2    1    2    0    0  0.76524960210E+02  0.35064639688E+02 -0.64051610494E+02  0.90314258346E+03  0.89692715354E+03 0.  0.
         23    2    4    4    0    0 -0.14152500884E+03  0.17917164245E+03 -0.40004871699E+03  0.46819521958E+03  0.83880761079E+02 0.  0.
         23    2    4    4    0    0  0.21804996905E+03 -0.14410700276E+03  0.33599710650E+03  0.43494736388E+03  0.89289061606E+02 0.  0.
          2    1    3    3  502    0 -0.25309530098E+02  0.10848709868E+02  0.49042672830E+03  0.49119918836E+03  0.00000000000E+00 0. -1.
         -1    1    3    3    0  502 -0.51215430111E+02 -0.45913349556E+02  0.31095327023E+03  0.31846976656E+03  0.00000000000E+00 0.  1.
         11    1    5    5    0    0 -0.23266501656E+02  0.14476121737E+02 -0.11608477797E+03  0.11927516035E+03  0.00000000000E+00 0.  1.
        -11    1    5    5    0    0 -0.11825850719E+03  0.16469552071E+03 -0.28396393902E+03  0.34892005922E+03  0.00000000000E+00 0. -1.
          2    1    6    6  503    0  0.72072141157E+02 -0.70381247133E+02  0.69899242572E+02  0.12261246915E+03  0.00000000000E+00 0. -1.
         -2    1    6    6    0  503  0.14597782789E+03 -0.73725755631E+02  0.26609786393E+03  0.31233489473E+03  0.00000000000E+00 0.  1.
<mgrwt>
<rscale>  0 0.15459852E+04</rscale>
<asrwt>0</asrwt>
<pdfrwt beam="1">  1        2 0.18847230E+00 0.15459852E+04</pdfrwt>
<pdfrwt beam="2">  1       -1 0.75037166E-01 0.15459852E+04</pdfrwt>
<totfact> 0.35885375E+01</totfact>
</mgrwt>
</event>
<event>
12    6  0.1529770E-007  0.2130557E+04  0.7818608E-02  0.8547901E-01
         -1   -1    0    0    0  501 -0.00000000000E+00  0.00000000000E+00  0.79240092886E+03  0.79240092886E+03  0.00000000000E+00 0.  1.
          2   -1    0    0  501    0  0.00000000000E+00 -0.00000000000E+00 -0.14321263417E+04  0.14321263417E+04  0.00000000000E+00 0. -1.
         24    2    1    2    0    0 -0.71854106105E+03 -0.40253911740E+03 -0.55064509614E+03  0.99389534733E+03  0.79239775880E+02 0.  0.
        254    2    1    2    0    0  0.71854106105E+03  0.40253911740E+03 -0.89080316741E+02  0.12306319233E+04  0.91004430128E+03 0.  0.
         23    2    4    4    0    0  0.33510029218E+03  0.26776118424E+03  0.39639413756E+03  0.59095905408E+03  0.90089032064E+02 0.  0.
         23    2    4    4    0    0  0.38344076886E+03  0.13477793317E+03 -0.48547445430E+03  0.63967286919E+03  0.91126391898E+02 0.  0.
          4    1    3    3  502    0 -0.55078514900E+03 -0.32064668971E+03 -0.46249677835E+03  0.78745276047E+03  0.00000000000E+00 0. -1.
         -3    1    3    3    0  502 -0.16775591204E+03 -0.81892427697E+02 -0.88148317790E+02  0.20644258686E+03  0.00000000000E+00 0.  1.
         11    1    5    5    0    0  0.29892360692E+03  0.20930375641E+03  0.36230201916E+03  0.51422382122E+03  0.00000000000E+00 0. -1.
        -11    1    5    5    0    0  0.36176685260E+02  0.58457427830E+02  0.34092118406E+02  0.76735232861E+02  0.00000000000E+00 0.  1.
          1    1    6    6  503    0  0.22178649766E+03  0.90920008104E+02 -0.35017124909E+03  0.42435315729E+03  0.00000000000E+00 0. -1.
         -1    1    6    6    0  503  0.16165427120E+03  0.43857925065E+02 -0.13530320522E+03  0.21531971190E+03  0.00000000000E+00 0.  1.
<mgrwt>
<rscale>  0 0.21305570E+04</rscale>
<asrwt>0</asrwt>
<pdfrwt beam="1">  1        2 0.22032713E+00 0.21305570E+04</pdfrwt>
<pdfrwt beam="2">  1       -1 0.12190784E+00 0.21305570E+04</pdfrwt>
<totfact> 0.86528441E+00</totfact>
</mgrwt>
</event>
<event>
12    6  0.1529770E-007  0.2902261E+04  0.7818608E-02  0.8272205E-01
         -3   -1    0    0    0  501 -0.00000000000E+00  0.00000000000E+00  0.35282802291E+04  0.35282802291E+04  0.00000000000E+00 0.  1.
          4   -1    0    0  501    0  0.00000000000E+00 -0.00000000000E+00 -0.59682905470E+03  0.59682905470E+03  0.00000000000E+00 0. -1.
         24    2    1    2    0    0 -0.67179781718E+03  0.33277479637E+03  0.28390496973E+04  0.29376411514E+04  0.86492651547E+02 0.  0.
        254    2    1    2    0    0  0.67179781718E+03 -0.33277479637E+03  0.92401477124E+02  0.11874681324E+04  0.91623750202E+03 0.  0.
         23    2    4    4    0    0  0.10057485395E+03  0.27470814255E+03 -0.10754004846E+03  0.32507639375E+03  0.92357646767E+02 0.  0.
         23    2    4    4    0    0  0.57122296323E+03 -0.60748293892E+03  0.19994152559E+03  0.86239173861E+03  0.91715333336E+02 0.  0.
          2    1    3    3  502    0 -0.13805352852E+03  0.31300135020E+02  0.55295898263E+03  0.57079077749E+03  0.00000000000E+00 0. -1.
         -1    1    3    3    0  502 -0.53374428866E+03  0.30147466135E+03  0.22860907146E+04  0.23668503739E+04  0.00000000000E+00 0.  1.
         11    1    5    5    0    0  0.71702934276E+01  0.14855530049E+03 -0.65933550518E+02  0.16268780992E+03  0.00000000000E+00 0.  1.
        -11    1    5    5    0    0  0.93404560524E+02  0.12615284206E+03 -0.41606497945E+02  0.16238858383E+03  0.00000000000E+00 0. -1.
          1    1    6    6  503    0  0.12499067125E+03 -0.14191571003E+03  0.69082512174E+01  0.18923652023E+03  0.00000000000E+00 0. -1.
         -1    1    6    6    0  503  0.44623229198E+03 -0.46556722888E+03  0.19303327437E+03  0.67315521838E+03  0.00000000000E+00 0.  1.
<mgrwt>
<rscale>  0 0.29022613E+04</rscale>
<asrwt>0</asrwt>
<pdfrwt beam="1">  1        4 0.91819857E-01 0.29022613E+04</pdfrwt>
<pdfrwt beam="2">  1       -3 0.54281233E+00 0.29022613E+04</pdfrwt>
<totfact> 0.35991869E-03</totfact>
</mgrwt>
</event>
<event>
12    6  0.1529770E-007  0.1228476E+04  0.7818608E-02  0.9088290E-01
         -1   -1    0    0    0  501 -0.00000000000E+00  0.00000000000E+00  0.87830326153E+03  0.87830326153E+03  0.00000000000E+00 0.  1.
          2   -1    0    0  501    0  0.00000000000E+00 -0.00000000000E+00 -0.42956500201E+03  0.42956500201E+03  0.00000000000E+00 0. -1.
         24    2    1    2    0    0 -0.12726203427E+01  0.84409587427E+02  0.39001196504E+03  0.40696309357E+03  0.79893858583E+02 0.  0.
        254    2    1    2    0    0  0.12726203427E+01 -0.84409587427E+02  0.58726294474E+02  0.90090516998E+03  0.89501661974E+03 0.  0.
         23    2    4    4    0    0 -0.39175561808E+03  0.10750344091E+03 -0.97904234371E+02  0.42767587101E+03  0.91060185785E+02 0.  0.
         23    2    4    4    0    0  0.39302823842E+03 -0.19191302834E+03  0.15663052884E+03  0.47322929896E+03  0.90061313485E+02 0.  0.
          2    1    3    3  502    0  0.27546938829E+02  0.28792684113E+02  0.67170292825E+02  0.78100580891E+02  0.00000000000E+00 0. -1.
         -1    1    3    3    0  502 -0.28819559172E+02  0.55616903314E+02  0.32284167222E+03  0.32886251268E+03  0.00000000000E+00 0.  1.
         11    1    5    5    0    0 -0.53017917799E+01  0.10094966661E+02 -0.17839201805E+02  0.21172020900E+02  0.00000000000E+00 0. -1.
        -11    1    5    5    0    0 -0.38645382630E+03  0.97408474252E+02 -0.80065032566E+02  0.40650385011E+03  0.00000000000E+00 0.  1.
          2    1    6    6  503    0  0.42417398168E+02 -0.13950291234E+02 -0.10696102905E+02  0.45915715286E+02  0.00000000000E+00 0. -1.
         -2    1    6    6    0  503  0.35061084025E+03 -0.17796273711E+03  0.16732663175E+03  0.42731358368E+03  0.00000000000E+00 0.  1.
<mgrwt>
<rscale>  0 0.12284760E+04</rscale>
<asrwt>0</asrwt>
<pdfrwt beam="1">  1        2 0.66086924E-01 0.12284760E+04</pdfrwt>
<pdfrwt beam="2">  1       -1 0.13512358E+00 0.12284760E+04</pdfrwt>
<totfact> 0.37991127E+01</totfact>
</mgrwt>
</event>
<event>
12    6  0.1529770E-007  0.1931513E+04  0.7818608E-02  0.8639327E-01
          2   -1    0    0  501    0  0.00000000000E+00  0.00000000000E+00  0.50512082911E+03  0.50512082911E+03  0.00000000000E+00 0. -1.
         -1   -1    0    0    0  501 -0.00000000000E+00 -0.00000000000E+00 -0.18464609658E+04  0.18464609658E+04  0.00000000000E+00 0.  1.
         24    2    1    2    0    0  0.52078152864E+03 -0.12109543884E-01  0.12678067486E+03  0.54039869541E+03  0.68876772313E+02 0.  0.
        254    2    1    2    0    0 -0.52078152864E+03  0.12109543884E-01 -0.14681208115E+04  0.18111830995E+04  0.92400871310E+03 0.  0.
         23    2    4    4    0    0 -0.64290226195E+03 -0.24821666028E+03 -0.68564981438E+03  0.97613645691E+03  0.88271658442E+02 0.  0.
         23    2    4    4    0    0  0.12212073331E+03  0.24822876982E+03 -0.78247099716E+03  0.83504664258E+03  0.92255288280E+02 0.  0.
          2    1    3    3  502    0  0.49273986781E+03 -0.18007934861E+01  0.13539991907E+03  0.51100778690E+03  0.00000000000E+00 0. -1.
         -1    1    3    3    0  502  0.28041660829E+02  0.17886839422E+01 -0.86192442122E+01  0.29390908510E+02  0.00000000000E+00 0.  1.
         11    1    5    5    0    0 -0.20998257712E+03 -0.10458043131E+03 -0.18412198522E+03  0.29821243225E+03  0.00000000000E+00 0.  1.
        -11    1    5    5    0    0 -0.43291968483E+03 -0.14363622897E+03 -0.50152782916E+03  0.67792402466E+03  0.00000000000E+00 0. -1.
          1    1    6    6  503    0  0.10618103044E+03  0.11247481829E+03 -0.39789048556E+03  0.42689792044E+03  0.00000000000E+00 0. -1.
         -1    1    6    6    0  503  0.15939702874E+02  0.13575395153E+03 -0.38458051160E+03  0.40814872214E+03  0.00000000000E+00 0.  1.
<mgrwt>
<rscale>  0 0.19315133E+04</rscale>
<asrwt>0</asrwt>
<pdfrwt beam="1">  1        2 0.77710897E-01 0.19315133E+04</pdfrwt>
<pdfrwt beam="2">  1       -1 0.28407092E+00 0.19315133E+04</pdfrwt>
<totfact> 0.27218740E+00</totfact>
</mgrwt>
</event>
<event>
12    6  0.1529770E-007  0.2207147E+04  0.7818608E-02  0.8515459E-01
          2   -1    0    0  501    0  0.00000000000E+00  0.00000000000E+00  0.90393138882E+03  0.90393138882E+03  0.00000000000E+00 0. -1.
         -1   -1    0    0    0  501 -0.00000000000E+00 -0.00000000000E+00 -0.13473087096E+04  0.13473087096E+04  0.00000000000E+00 0.  1.
         24    2    1    2    0    0  0.33167805151E+03  0.97678689464E+02 -0.10547530427E+04  0.11128854698E+04  0.80365611900E+02 0.  0.
        254    2    1    2    0    0 -0.33167805151E+03 -0.97678689464E+02  0.61137572193E+03  0.11383546286E+04  0.89583454438E+03 0.  0.
         23    2    4    4    0    0 -0.33258303560E+03 -0.35057723763E+03  0.22569646477E+02  0.49209745874E+03  0.90192266003E+02 0.  0.
         23    2    4    4    0    0  0.90498408293E+00  0.25289854816E+03  0.58880607545E+03  0.64625716988E+03  0.83649509713E+02 0.  0.
          4    1    3    3  502    0  0.80293734631E+00  0.13445190038E+02 -0.35702553403E+02  0.38158749496E+02  0.00000000000E+00 0. -1.
         -3    1    3    3    0  502  0.33087511417E+03  0.84233499426E+02 -0.10190504893E+04  0.10747267203E+04  0.00000000000E+00 0.  1.
         11    1    5    5    0    0 -0.26586312603E+03 -0.25052666168E+03  0.50118236802E+02  0.36872570788E+03  0.00000000000E+00 0.  1.
        -11    1    5    5    0    0 -0.66719909568E+02 -0.10005057595E+03 -0.27548590324E+02  0.12337175086E+03  0.00000000000E+00 0. -1.
          3    1    6    6  503    0 -0.40742449269E+02  0.13525182419E+03  0.29678297632E+03  0.32868394873E+03  0.00000000000E+00 0. -1.
         -3    1    6    6    0  503  0.41647433352E+02  0.11764672398E+03  0.29202309912E+03  0.31757322115E+03  0.00000000000E+00 0.  1.
<mgrwt>
<rscale>  0 0.22071471E+04</rscale>
<asrwt>0</asrwt>
<pdfrwt beam="1">  1        2 0.13906637E+00 0.22071471E+04</pdfrwt>
<pdfrwt beam="2">  1       -1 0.20727826E+00 0.22071471E+04</pdfrwt>
<totfact> 0.40737308E+00</totfact>
</mgrwt>
</event>
<event>
12    6  0.1536399E-007  0.2092288E+04  0.7818608E-02  0.8564648E-01
         -1   -1    0    0    0  501 -0.00000000000E+00  0.00000000000E+00  0.69846012738E+03  0.69846012738E+03  0.00000000000E+00 0.  1.
          2   -1    0    0  501    0  0.00000000000E+00 -0.00000000000E+00 -0.15668993938E+04  0.15668993938E+04  0.00000000000E+00 0. -1.
         24    2    1    2    0    0  0.30514364564E+03  0.63840873270E+03 -0.86348187622E+03  0.11190260468E+04  0.77071319720E+02 0.  0.
        254    2    1    2    0    0 -0.30514364564E+03 -0.63840873270E+03 -0.49573901685E+01  0.11463334744E+04  0.90187443931E+03 0.  0.
         23    2    4    4    0    0  0.28027916375E+03 -0.28254300465E+03 -0.15895881137E+03  0.43820470892E+03  0.91479528313E+02 0.  0.
         23    2    4    4    0    0 -0.58542280938E+03 -0.35586572806E+03  0.15400142120E+03  0.70812876545E+03  0.91485674155E+02 0.  0.
          2    1    3    3  502    0  0.28485826054E+03  0.62655574406E+03 -0.83581120890E+03  0.10827265148E+04  0.00000000000E+00 0. -1.
         -1    1    3    3    0  502  0.20285385099E+02  0.11852988639E+02 -0.27670667320E+02  0.36299531928E+02  0.00000000000E+00 0.  1.
         11    1    5    5    0    0  0.15658507958E+03 -0.20447280619E+03 -0.13225639036E+03  0.28951643892E+03  0.00000000000E+00 0.  1.
        -11    1    5    5    0    0  0.12369408417E+03 -0.78070198459E+02 -0.26702421009E+02  0.14868826999E+03  0.00000000000E+00 0. -1.
          2    1    6    6  503    0 -0.81141726186E+02 -0.59443046331E+02  0.55696874245E+02  0.11497650754E+03  0.00000000000E+00 0. -1.
         -2    1    6    6    0  503 -0.50428108320E+03 -0.29642268173E+03  0.98304546957E+02  0.59315225791E+03  0.00000000000E+00 0.  1.
<mgrwt>
<rscale>  0 0.20922875E+04</rscale>
<asrwt>0</asrwt>
<pdfrwt beam="1">  1        2 0.24106144E+00 0.20922875E+04</pdfrwt>
<pdfrwt beam="2">  1       -1 0.10745541E+00 0.20922875E+04</pdfrwt>
<totfact> 0.98603092E+00</totfact>
</mgrwt>
</event>
<event>
12    6  0.1529770E-007  0.2471409E+04  0.7818608E-02  0.8413243E-01
         -1   -1    0    0    0  501 -0.00000000000E+00  0.00000000000E+00  0.91125566577E+03  0.91125566577E+03  0.00000000000E+00 0.  1.
          2   -1    0    0  501    0  0.00000000000E+00 -0.00000000000E+00 -0.16756720364E+04  0.16756720364E+04  0.00000000000E+00 0. -1.
         24    2    1    2    0    0  0.17963355102E+03 -0.10500935896E+04 -0.34894001205E+03  0.11238232783E+04  0.79087731506E+02 0.  0.
        254    2    1    2    0    0 -0.17963355102E+03  0.10500935896E+04 -0.41547635858E+03  0.14631044238E+04  0.91273719706E+03 0.  0.
         23    2    4    4    0    0  0.33297931008E+03  0.60993119222E+03 -0.87156496696E+02  0.70609938628E+03  0.89937801889E+02 0.  0.
         23    2    4    4    0    0 -0.51261286110E+03  0.44016239741E+03 -0.32831986189E+03  0.75700503757E+03  0.93529747826E+02 0.  0.
          2    1    3    3  502    0  0.16546135347E+03 -0.75864705809E+03 -0.25542348829E+03  0.81741297801E+03  0.00000000000E+00 0. -1.
         -1    1    3    3    0  502  0.14172197555E+02 -0.29144653154E+03 -0.93516523763E+02  0.30641030033E+03  0.00000000000E+00 0.  1.
         11    1    5    5    0    0  0.27189333456E+03  0.50650192988E+03 -0.37399440915E+02  0.57608064412E+03  0.00000000000E+00 0.  1.
        -11    1    5    5    0    0  0.61085975518E+02  0.10342926234E+03 -0.49757055781E+02  0.13001874216E+03  0.00000000000E+00 0. -1.
          4    1    6    6  503    0 -0.11710308101E+03  0.11840719787E+03 -0.12445891801E+03  0.20790242510E+03  0.00000000000E+00 0. -1.
         -4    1    6    6    0  503 -0.39550978009E+03  0.32175519954E+03 -0.20386094387E+03  0.54910261246E+03  0.00000000000E+00 0.  1.
<mgrwt>
<rscale>  0 0.24714090E+04</rscale>
<asrwt>0</asrwt>
<pdfrwt beam="1">  1        2 0.25779570E+00 0.24714090E+04</pdfrwt>
<pdfrwt beam="2">  1       -1 0.14019318E+00 0.24714090E+04</pdfrwt>
<totfact> 0.43012973E+00</totfact>
</mgrwt>
</event>
<event>
12    6  0.1529770E-007  0.2099524E+04  0.7818608E-02  0.8561453E-01
          2   -1    0    0  501    0  0.00000000000E+00  0.00000000000E+00  0.24321820210E+04  0.24321820210E+04  0.00000000000E+00 0. -1.
         -1   -1    0    0    0  501 -0.00000000000E+00 -0.00000000000E+00 -0.45309129295E+03  0.45309129295E+03  0.00000000000E+00 0.  1.
         24    2    1    2    0    0 -0.13392306962E+03 -0.50281179539E+03  0.17424587161E+04  0.18202482668E+04  0.79914237544E+02 0.  0.
        254    2    1    2    0    0  0.13392306962E+03  0.50281179539E+03  0.23663201190E+03  0.10650250471E+04  0.89862592424E+03 0.  0.
         23    2    4    4    0    0 -0.35331420120E+03  0.52790467084E+02  0.10658691352E+03  0.38328185612E+03  0.89030629087E+02 0.  0.
         23    2    4    4    0    0  0.48723727081E+03  0.45002132831E+03  0.13004509837E+03  0.68174319097E+03  0.89121808884E+02 0.  0.
          4    1    3    3  502    0 -0.10104435377E+03 -0.23013421688E+03  0.87025467104E+03  0.90582278160E+03  0.00000000000E+00 0. -1.
         -3    1    3    3    0  502 -0.32878715845E+02 -0.27267757851E+03  0.87220404509E+03  0.91442548523E+03  0.00000000000E+00 0.  1.
         11    1    5    5    0    0 -0.22922021526E+03  0.23567180516E+02  0.24673035857E+02  0.23174571793E+03  0.00000000000E+00 0.  1.
        -11    1    5    5    0    0 -0.12409398594E+03  0.29223286568E+02  0.81913877665E+02  0.15153613819E+03  0.00000000000E+00 0. -1.
          2    1    6    6  503    0  0.34058410314E+03  0.31978348077E+03  0.49805107661E+02  0.46982928243E+03  0.00000000000E+00 0. -1.
         -2    1    6    6    0  503  0.14665316768E+03  0.13023784754E+03  0.80239990714E+02  0.21191390854E+03  0.00000000000E+00 0.  1.
<mgrwt>
<rscale>  0 0.20995242E+04</rscale>
<asrwt>0</asrwt>
<pdfrwt beam="1">  1        2 0.37418184E+00 0.20995242E+04</pdfrwt>
<pdfrwt beam="2">  1       -1 0.69706354E-01 0.20995242E+04</pdfrwt>
<totfact> 0.83183248E+00</totfact>
</mgrwt>
</event>
<event>
12    6  0.1529770E-007  0.1463518E+04  0.7818608E-02  0.8909082E-01
         -1   -1    0    0    0  501 -0.00000000000E+00  0.00000000000E+00  0.62380963151E+03  0.62380963151E+03  0.00000000000E+00 0.  1.
          2   -1    0    0  501    0  0.00000000000E+00 -0.00000000000E+00 -0.85838828672E+03  0.85838828672E+03  0.00000000000E+00 0. -1.
         24    2    1    2    0    0 -0.28483680701E+03 -0.31016323013E+03  0.86964786058E+02  0.43732390284E+03  0.79725065279E+02 0.  0.
        254    2    1    2    0    0  0.28483680701E+03  0.31016323013E+03 -0.32154344127E+03  0.10448740154E+04  0.90057664164E+03 0.  0.
         23    2    4    4    0    0  0.25204751273E+03  0.61148412162E+03 -0.28945398747E+03  0.72759053618E+03  0.90352630336E+02 0.  0.
         23    2    4    4    0    0  0.32789294280E+02 -0.30132089150E+03 -0.32089453796E+02  0.31728347921E+03  0.88145650263E+02 0.  0.
          2    1    3    3  502    0 -0.99557243217E+02 -0.15708961430E+03  0.15673739109E+02  0.18663991453E+03  0.00000000000E+00 0. -1.
         -1    1    3    3    0  502 -0.18527956380E+03 -0.15307361582E+03  0.71291046949E+02  0.25068398831E+03  0.00000000000E+00 0.  1.
         11    1    5    5    0    0  0.22446644787E+03  0.51868594957E+03 -0.21206079669E+03  0.60364731590E+03  0.00000000000E+00 0.  1.
        -11    1    5    5    0    0  0.27581064868E+02  0.92798172053E+02 -0.77393190776E+02  0.12394322028E+03  0.00000000000E+00 0. -1.
          4    1    6    6  503    0  0.25027454678E+02 -0.21299925137E+02  0.92016377940E+01  0.34128147277E+02  0.00000000000E+00 0. -1.
         -4    1    6    6    0  503  0.77618396025E+01 -0.28002096636E+03 -0.41291091590E+02  0.28315533193E+03  0.00000000000E+00 0.  1.
<mgrwt>
<rscale>  0 0.14635175E+04</rscale>
<asrwt>0</asrwt>
<pdfrwt beam="1">  1        2 0.13205974E+00 0.14635175E+04</pdfrwt>
<pdfrwt beam="2">  1       -1 0.95970713E-01 0.14635175E+04</pdfrwt>
<totfact> 0.36252979E+01</totfact>
</mgrwt>
</event>
<event>
12    6  0.1529770E-007  0.2171473E+04  0.7818608E-02  0.8530396E-01
         -1   -1    0    0    0  501 -0.00000000000E+00  0.00000000000E+00  0.68979855772E+03  0.68979855772E+03  0.00000000000E+00 0.  1.
          2   -1    0    0  501    0  0.00000000000E+00 -0.00000000000E+00 -0.17089385532E+04  0.17089385532E+04  0.00000000000E+00 0. -1.
         24    2    1    2    0    0 -0.82671023038E+03 -0.26515652414E+02 -0.38926199269E+02  0.83172920859E+03  0.78136691743E+02 0.  0.
        254    2    1    2    0    0  0.82671023038E+03  0.26515652414E+02 -0.98021379621E+03  0.15670079023E+04  0.90030094681E+03 0.  0.
         23    2    4    4    0    0  0.45505590726E+03  0.36620614839E+03 -0.18148562126E+03  0.61823751200E+03  0.89987602811E+02 0.  0.
         23    2    4    4    0    0  0.37165432312E+03 -0.33969049598E+03 -0.79872817495E+03  0.94877039033E+03  0.93177181555E+02 0.  0.
          4    1    3    3  502    0 -0.27909692537E+03 -0.37152199670E+02  0.10753937458E+02  0.28176413338E+03  0.00000000000E+00 0. -1.
         -3    1    3    3    0  502 -0.54761330501E+03  0.10636547256E+02 -0.49680136728E+02  0.54996507521E+03  0.00000000000E+00 0.  1.
         11    1    5    5    0    0  0.26872367070E+03  0.18460144961E+03 -0.13978370312E+03  0.35472466795E+03  0.00000000000E+00 0. -1.
        -11    1    5    5    0    0  0.18633223656E+03  0.18160469878E+03 -0.41701918144E+02  0.26351284404E+03  0.00000000000E+00 0.  1.
          1    1    6    6  503    0  0.18152653464E+03 -0.10573586806E+03 -0.34895329821E+03  0.40730868013E+03  0.00000000000E+00 0. -1.
         -1    1    6    6    0  503  0.19012778848E+03 -0.23395462791E+03 -0.44977487674E+03  0.54146171020E+03  0.00000000000E+00 0.  1.
<mgrwt>
<rscale>  0 0.21714726E+04</rscale>
<asrwt>0</asrwt>
<pdfrwt beam="1">  1        2 0.26291362E+00 0.21714726E+04</pdfrwt>
<pdfrwt beam="2">  1       -1 0.10612286E+00 0.21714726E+04</pdfrwt>
<totfact> 0.84000590E+00</totfact>
</mgrwt>
</event>
<event>
12    6  0.1529770E-007  0.2115790E+04  0.7818608E-02  0.8554320E-01
          2   -1    0    0  501    0  0.00000000000E+00  0.00000000000E+00  0.22298245400E+04  0.22298245400E+04  0.00000000000E+00 0. -1.
         -1   -1    0    0    0  501 -0.00000000000E+00 -0.00000000000E+00 -0.50189672954E+03  0.50189672954E+03  0.00000000000E+00 0.  1.
         24    2    1    2    0    0 -0.57148202352E+03 -0.63928145292E+03  0.84293499633E+03  0.12051117704E+04  0.80513922728E+02 0.  0.
        254    2    1    2    0    0  0.57148202352E+03  0.63928145292E+03  0.88499281416E+03  0.15266094992E+04  0.90113916947E+03 0.  0.
         23    2    4    4    0    0  0.45203752929E+03  0.59169123605E+02  0.81862487263E+01  0.46479434555E+03  0.90154622254E+02 0.  0.
         23    2    4    4    0    0  0.11944449423E+03  0.58011232931E+03  0.87680656544E+03  0.10618151537E+04  0.88681258206E+02 0.  0.
          2    1    3    3  502    0 -0.12907415536E+03 -0.16959344977E+03  0.25337830981E+03  0.33109310423E+03  0.00000000000E+00 0. -1.
         -1    1    3    3    0  502 -0.44240786816E+03 -0.46968800314E+03  0.58955668653E+03  0.87401866612E+03  0.00000000000E+00 0.  1.
         11    1    5    5    0    0  0.28906415218E+03  0.79472604407E+02  0.17473904977E+02  0.30029871175E+03  0.00000000000E+00 0.  1.
        -11    1    5    5    0    0  0.16297337711E+03 -0.20303480803E+02 -0.92876562512E+01  0.16449563380E+03  0.00000000000E+00 0. -1.
          3    1    6    6  503    0 -0.70110145819E+01  0.30433815972E+01  0.16719499306E+02  0.18383638216E+02  0.00000000000E+00 0.  1.
         -3    1    6    6    0  503  0.12645550881E+03  0.57706894772E+03  0.86008706613E+03  0.10434315155E+04  0.00000000000E+00 0. -1.
<mgrwt>
<rscale>  0 0.21157898E+04</rscale>
<asrwt>0</asrwt>
<pdfrwt beam="1">  1        2 0.34304993E+00 0.21157898E+04</pdfrwt>
<pdfrwt beam="2">  1       -1 0.77214882E-01 0.21157898E+04</pdfrwt>
<totfact> 0.87517195E+00</totfact>
</mgrwt>
</event>
<event>
12    6  0.1529770E-007  0.1378889E+04  0.7818608E-02  0.8969243E-01
         -1   -1    0    0    0  501 -0.00000000000E+00  0.00000000000E+00  0.21784268364E+04  0.21784268364E+04  0.00000000000E+00 0.  1.
          2   -1    0    0  501    0  0.00000000000E+00 -0.00000000000E+00 -0.21820052318E+03  0.21820052318E+03  0.00000000000E+00 0. -1.
         24    2    1    2    0    0 -0.18793681838E+03 -0.19752002708E+03  0.70931204893E+02  0.29320566581E+03  0.81264493082E+02 0.  0.
        254    2    1    2    0    0  0.18793681838E+03  0.19752002708E+03  0.18892951084E+04  0.21034216938E+04  0.88352272563E+03 0.  0.
         23    2    4    4    0    0 -0.18432048326E+03 -0.25441680769E+03  0.57147013497E+03  0.65842257830E+03  0.90775678799E+02 0.  0.
         23    2    4    4    0    0  0.37225730164E+03  0.45193683477E+03  0.13178249734E+04  0.14449991155E+04  0.92397955003E+02 0.  0.
          2    1    3    3  502    0 -0.18826748152E+03 -0.16611186868E+03  0.73719520557E+02  0.26167224772E+03  0.00000000000E+00 0. -1.
         -1    1    3    3    0  502  0.33066314703E+00 -0.31408158399E+02 -0.27883156639E+01  0.31533418089E+02  0.00000000000E+00 0.  1.
         11    1    5    5    0    0 -0.19362382540E+03 -0.24469864105E+03  0.55837304391E+03  0.63964682979E+03  0.00000000000E+00 0. -1.
        -11    1    5    5    0    0  0.93033421361E+01 -0.97181666426E+01  0.13097091061E+02  0.18775748509E+02  0.00000000000E+00 0.  1.
          2    1    6    6  503    0  0.14256316592E+03  0.19158586900E+03  0.64674587853E+03  0.68942703230E+03  0.00000000000E+00 0. -1.
         -2    1    6    6    0  503  0.22969413571E+03  0.26035096577E+03  0.67107909485E+03  0.75557208320E+03  0.00000000000E+00 0.  1.
<mgrwt>
<rscale>  0 0.13788892E+04</rscale>
<asrwt>0</asrwt>
<pdfrwt beam="1">  1        2 0.33569313E-01 0.13788892E+04</pdfrwt>
<pdfrwt beam="2">  1       -1 0.33514257E+00 0.13788892E+04</pdfrwt>
<totfact> 0.34341809E+00</totfact>
</mgrwt>
</event>
<event>
12    6  0.1529770E-007  0.1499482E+04  0.7818608E-02  0.8884798E-01
         -1   -1    0    0    0  501 -0.00000000000E+00  0.00000000000E+00  0.21477869140E+03  0.21477869140E+03  0.00000000000E+00 0.  1.
          2   -1    0    0  501    0  0.00000000000E+00 -0.00000000000E+00 -0.26171648881E+04  0.26171648881E+04  0.00000000000E+00 0. -1.
         24    2    1    2    0    0  0.19039684064E+03 -0.20506838294E+03 -0.15202018145E+04  0.15478522050E+04  0.80801565889E+02 0.  0.
        254    2    1    2    0    0 -0.19039684064E+03  0.20506838294E+03 -0.88218438214E+03  0.12840913745E+04  0.89013334689E+03 0.  0.
         23    2    4    4    0    0  0.70006450838E+02  0.21125232788E+02  0.15662739837E+03  0.19354629298E+03  0.87068059520E+02 0.  0.
         23    2    4    4    0    0 -0.26040329148E+03  0.18394315016E+03 -0.10388117805E+04  0.10905450815E+04  0.92269727986E+02 0.  0.
          2    1    3    3  502    0  0.95165401085E+02 -0.90813528561E+02 -0.92703773659E+03  0.93632393732E+03  0.00000000000E+00 0. -1.
         -1    1    3    3    0  502  0.95231439555E+02 -0.11425485438E+03 -0.59316407795E+03  0.61152826771E+03  0.00000000000E+00 0.  1.
         11    1    5    5    0    0  0.77830581363E+02 -0.89049915195E+01  0.85600495201E+02  0.11603595584E+03  0.00000000000E+00 0.  1.
        -11    1    5    5    0    0 -0.78241305248E+01  0.30030224307E+02  0.71026903165E+02  0.77510337140E+02  0.00000000000E+00 0. -1.
          1    1    6    6  503    0 -0.14792089643E+03  0.92531172044E+02 -0.41635417321E+03  0.45143483135E+03  0.00000000000E+00 0. -1.
         -1    1    6    6    0  503 -0.11248239504E+03  0.91411978113E+02 -0.62245760729E+03  0.63911025013E+03  0.00000000000E+00 0.  1.
<mgrwt>
<rscale>  0 0.14994816E+04</rscale>
<asrwt>0</asrwt>
<pdfrwt beam="1">  1        2 0.40264076E+00 0.14994816E+04</pdfrwt>
<pdfrwt beam="2">  1       -1 0.33042875E-01 0.14994816E+04</pdfrwt>
<totfact> 0.28242395E+01</totfact>
</mgrwt>
</event>
<event>
12    6  0.1529770E-007  0.1548111E+04  0.7818608E-02  0.8853075E-01
          2   -1    0    0  501    0  0.00000000000E+00  0.00000000000E+00  0.11765893014E+04  0.11765893014E+04  0.00000000000E+00 0. -1.
         -1   -1    0    0    0  501 -0.00000000000E+00 -0.00000000000E+00 -0.50923631993E+03  0.50923631993E+03  0.00000000000E+00 0.  1.
         24    2    1    2    0    0 -0.11689548871E+03  0.10763919323E+03 -0.30688483155E+03  0.35399808147E+03  0.76717603251E+02 0.  0.
        254    2    1    2    0    0  0.11689548871E+03 -0.10763919323E+03  0.97423781299E+03  0.13318275398E+04  0.89407747336E+03 0.  0.
         23    2    4    4    0    0  0.43155006386E+03 -0.17090022730E+03  0.25120541281E+03  0.53549006539E+03  0.90570996468E+02 0.  0.
         23    2    4    4    0    0 -0.31465457515E+03  0.63261034070E+02  0.72303240018E+03  0.79633747443E+03  0.91477108451E+02 0.  0.
          2    1    3    3  502    0 -0.45475766045E+02  0.40589573243E+02 -0.49242348207E+02  0.78360497767E+02  0.00000000000E+00 0. -1.
         -1    1    3    3    0  502 -0.71419722664E+02  0.67049619989E+02 -0.25764248334E+03  0.27563758370E+03  0.00000000000E+00 0.  1.
         11    1    5    5    0    0  0.21658325434E+03 -0.47322787784E+02  0.87326381705E+02  0.23827221669E+03  0.00000000000E+00 0. -1.
        -11    1    5    5    0    0  0.21496680952E+03 -0.12357743952E+03  0.16387903110E+03  0.29721784870E+03  0.00000000000E+00 0.  1.
          1    1    6    6  503    0  0.55966985400E+01 -0.24477150925E+01  0.21833166391E+02  0.22671601143E+02  0.00000000000E+00 0. -1.
         -1    1    6    6    0  503 -0.32025127369E+03  0.65708749163E+02  0.70119923379E+03  0.77366587329E+03  0.00000000000E+00 0.  1.
<mgrwt>
<rscale>  0 0.15481111E+04</rscale>
<asrwt>0</asrwt>
<pdfrwt beam="1">  1        2 0.18101374E+00 0.15481111E+04</pdfrwt>
<pdfrwt beam="2">  1       -1 0.78344049E-01 0.15481111E+04</pdfrwt>
<totfact> 0.35031236E+01</totfact>
</mgrwt>
</event>
<event>
12    6  0.1529770E-007  0.1193784E+04  0.7818608E-02  0.9118315E-01
          4   -1    0    0  501    0  0.00000000000E+00  0.00000000000E+00  0.17994946670E+03  0.17994946670E+03  0.00000000000E+00 0. -1.
         -3   -1    0    0    0  501 -0.00000000000E+00 -0.00000000000E+00 -0.19798898619E+04  0.19798898619E+04  0.00000000000E+00 0.  1.
         24    2    1    2    0    0  0.35282282304E+02 -0.20064614893E+03 -0.96936913768E+03  0.99380984115E+03  0.80484524999E+02 0.  0.
        254    2    1    2    0    0 -0.35282282304E+02  0.20064614893E+03 -0.83057125749E+03  0.11660294874E+04  0.79263638274E+03 0.  0.
         23    2    4    4    0    0  0.97584419159E+02 -0.11202497826E+03  0.79211757659E+02  0.19071194187E+03  0.89578053143E+02 0.  0.
         23    2    4    4    0    0 -0.13286670146E+03  0.31267112719E+03 -0.90978301515E+03  0.97531754554E+03  0.90124280066E+02 0.  0.
          4    1    3    3  502    0  0.14166667779E+02 -0.28528025289E+02 -0.58771494248E+02  0.66847821498E+02  0.00000000000E+00 0. -1.
         -3    1    3    3    0  502  0.21115614525E+02 -0.17211812364E+03 -0.91059764343E+03  0.92696201965E+03  0.00000000000E+00 0.  1.
         11    1    5    5    0    0  0.99298491567E+02 -0.12523935653E+03  0.69839198534E+02  0.17442075709E+03  0.00000000000E+00 0.  1.
        -11    1    5    5    0    0 -0.17140724079E+01  0.13214378267E+02  0.93725591252E+01  0.16291184787E+02  0.00000000000E+00 0. -1.
          1    1    6    6  503    0 -0.15961986244E+02  0.29616134267E+02 -0.19212421952E+03  0.19504772785E+03  0.00000000000E+00 0. -1.
         -1    1    6    6    0  503 -0.11690471522E+03  0.28305499292E+03 -0.71765879563E+03  0.78026981769E+03  0.00000000000E+00 0.  1.
<mgrwt>
<rscale>  0 0.11937841E+04</rscale>
<asrwt>0</asrwt>
<pdfrwt beam="1">  1        4 0.27684535E-01 0.11937841E+04</pdfrwt>
<pdfrwt beam="2">  1       -3 0.30459842E+00 0.11937841E+04</pdfrwt>
<totfact> 0.10276720E+00</totfact>
</mgrwt>
</event>
<event>
12    6  0.1529770E-007  0.1566020E+04  0.7818608E-02  0.8841700E-01
         -1   -1    0    0    0  501 -0.00000000000E+00  0.00000000000E+00  0.21241096888E+03  0.21241096888E+03  0.00000000000E+00 0.  1.
          2   -1    0    0  501    0  0.00000000000E+00 -0.00000000000E+00 -0.28864076463E+04  0.28864076463E+04  0.00000000000E+00 0. -1.
         24    2    1    2    0    0  0.28418017143E+03 -0.44554163893E+03 -0.69693699104E+03  0.87837438241E+03  0.80960881597E+02 0.  0.
        254    2    1    2    0    0 -0.28418017143E+03  0.44554163893E+03 -0.19770596864E+04  0.22204442328E+04  0.86159263312E+03 0.  0.
         23    2    4    4    0    0  0.19826849059E+03  0.46092704591E+03 -0.85810961058E+03  0.99831976045E+03  0.92336906599E+02 0.  0.
         23    2    4    4    0    0 -0.48244866202E+03 -0.15385406978E+02 -0.11189500758E+04  0.12221244723E+04  0.92442043766E+02 0.  0.
          4    1    3    3  502    0  0.19263312572E+02 -0.25970955603E+02 -0.16717600505E+02  0.36401152630E+02  0.00000000000E+00 0. -1.
         -1    1    3    3    0  502  0.26491685886E+03 -0.41957068333E+03 -0.68021939053E+03  0.84197322978E+03  0.00000000000E+00 0.  1.
         11    1    5    5    0    0  0.79145481573E+02  0.29427349934E+03 -0.53678755677E+03  0.61725341698E+03  0.00000000000E+00 0. -1.
        -11    1    5    5    0    0  0.11912300902E+03  0.16665354657E+03 -0.32132205381E+03  0.38106634347E+03  0.00000000000E+00 0.  1.
          2    1    6    6  503    0 -0.24262791164E+03  0.38461768847E+02 -0.55423712495E+03  0.60623955813E+03  0.00000000000E+00 0. -1.
         -2    1    6    6    0  503 -0.23982075039E+03 -0.53847175825E+02 -0.56471295088E+03  0.61588491421E+03  0.00000000000E+00 0.  1.
<mgrwt>
<rscale>  0 0.15660200E+04</rscale>
<asrwt>0</asrwt>
<pdfrwt beam="1">  1        2 0.44406273E+00 0.15660200E+04</pdfrwt>
<pdfrwt beam="2">  1       -1 0.32678609E-01 0.15660200E+04</pdfrwt>
<totfact> 0.19773537E+01</totfact>
</mgrwt>
</event>
<event>
12    6  0.1529770E-007  0.1662821E+04  0.7818608E-02  0.8782858E-01
          2   -1    0    0  501    0  0.00000000000E+00  0.00000000000E+00  0.10971124748E+04  0.10971124748E+04  0.00000000000E+00 0. -1.
         -1   -1    0    0    0  501 -0.00000000000E+00 -0.00000000000E+00 -0.63005689851E+03  0.63005689851E+03  0.00000000000E+00 0.  1.
         24    2    1    2    0    0  0.49829485042E+03  0.17903486125E+02  0.30871777377E+03  0.59175933942E+03  0.79083242037E+02 0.  0.
        254    2    1    2    0    0 -0.49829485042E+03 -0.17903486125E+02  0.15833780256E+03  0.11354100339E+04  0.10077037227E+04 0.  0.
         23    2    4    4    0    0 -0.40728167245E+03  0.45684990891E+03 -0.19062569628E+01  0.61872873492E+03  0.90727138291E+02 0.  0.
         23    2    4    4    0    0 -0.91013177975E+02 -0.47475339504E+03  0.16024405952E+03  0.51668129902E+03  0.87219387057E+02 0.  0.
          2    1    3    3  502    0  0.41490253009E+03 -0.14994475745E+02  0.25629589507E+03  0.48791037046E+03  0.00000000000E+00 0. -1.
         -1    1    3    3    0  502  0.83392320331E+02  0.32897961869E+02  0.52421878704E+02  0.10384896895E+03  0.00000000000E+00 0.  1.
         11    1    5    5    0    0 -0.19729752038E+03  0.15841465625E+03  0.14631448271E+02  0.25344741889E+03  0.00000000000E+00 0. -1.
        -11    1    5    5    0    0 -0.20998415207E+03  0.29843525266E+03 -0.16537705234E+02  0.36528131603E+03  0.00000000000E+00 0.  1.
          3    1    6    6  503    0  0.12635640642E+02 -0.17831277657E+02  0.11803621398E+01  0.21886231564E+02  0.00000000000E+00 0. -1.
         -3    1    6    6    0  503 -0.10364881862E+03 -0.45692211738E+03  0.15906369738E+03  0.49479506745E+03  0.00000000000E+00 0.  1.
<mgrwt>
<rscale>  0 0.16628208E+04</rscale>
<asrwt>0</asrwt>
<pdfrwt beam="1">  1        2 0.16878653E+00 0.16628208E+04</pdfrwt>
<pdfrwt beam="2">  1       -1 0.96931831E-01 0.16628208E+04</pdfrwt>
<totfact> 0.24368052E+01</totfact>
</mgrwt>
</event>
<event>
12    6  0.1529770E-007  0.1774178E+04  0.7818608E-02  0.8720153E-01
          2   -1    0    0  501    0  0.00000000000E+00  0.00000000000E+00  0.16942941504E+04  0.16942941504E+04  0.00000000000E+00 0. -1.
         -1   -1    0    0    0  501 -0.00000000000E+00 -0.00000000000E+00 -0.46445731279E+03  0.46445731279E+03  0.00000000000E+00 0.  1.
         24    2    1    2    0    0  0.54690565954E+03  0.27396432954E+03  0.73679757695E+03  0.96111092886E+03  0.81861430979E+02 0.  0.
        254    2    1    2    0    0 -0.54690565954E+03 -0.27396432954E+03  0.49303926064E+03  0.11976405343E+04  0.90393190152E+03 0.  0.
         23    2    4    4    0    0 -0.72719445576E+03 -0.36673158338E+03  0.22477753576E+03  0.84983021633E+03  0.91556677924E+02 0.  0.
         23    2    4    4    0    0  0.18028879622E+03  0.92767253839E+02  0.26826172488E+03  0.34781031797E+03  0.88869853301E+02 0.  0.
          4    1    3    3  502    0  0.47376046501E+03  0.24956651427E+03  0.60094975692E+03  0.80490560539E+03  0.00000000000E+00 0. -1.
         -3    1    3    3    0  502  0.73145194526E+02  0.24397815266E+02  0.13584782003E+03  0.15620532347E+03  0.00000000000E+00 0.  1.
         11    1    5    5    0    0 -0.49496972026E+03 -0.23413377204E+03  0.10834998739E+03  0.55816965786E+03  0.00000000000E+00 0. -1.
        -11    1    5    5    0    0 -0.23222473550E+03 -0.13259781134E+03  0.11642754838E+03  0.29166055848E+03  0.00000000000E+00 0.  1.
          1    1    6    6  503    0  0.16379611959E+03  0.10902073923E+03  0.22624777800E+03  0.29983786857E+03  0.00000000000E+00 0. -1.
         -1    1    6    6    0  503  0.16492676626E+02 -0.16253485392E+02  0.42013946878E+02  0.47972449406E+02  0.00000000000E+00 0.  1.
<mgrwt>
<rscale>  0 0.17741785E+04</rscale>
<asrwt>0</asrwt>
<pdfrwt beam="1">  1        2 0.26066064E+00 0.17741785E+04</pdfrwt>
<pdfrwt beam="2">  1       -1 0.71454972E-01 0.17741785E+04</pdfrwt>
<totfact> 0.21051095E+01</totfact>
</mgrwt>
</event>
<event>
12    6  0.1529770E-007  0.1971939E+04  0.7818608E-02  0.8619854E-01
          2   -1    0    0  501    0  0.00000000000E+00  0.00000000000E+00  0.62372921656E+03  0.62372921656E+03  0.00000000000E+00 0. -1.
         -1   -1    0    0    0  501 -0.00000000000E+00 -0.00000000000E+00 -0.15585866951E+04  0.15585866951E+04  0.00000000000E+00 0.  1.
         24    2    1    2    0    0 -0.56730269276E+03 -0.50840255620E+03 -0.52359821663E+03  0.92806377029E+03  0.82714961787E+02 0.  0.
        254    2    1    2    0    0  0.56730269276E+03  0.50840255620E+03 -0.41125926196E+03  0.12542521414E+04  0.90758401778E+03 0.  0.
         23    2    4    4    0    0  0.17992333618E+03  0.19077307355E+03 -0.63879882733E+03  0.69653675484E+03  0.91283824207E+02 0.  0.
         23    2    4    4    0    0  0.38737935658E+03  0.31762948266E+03  0.22753956536E+03  0.55771538658E+03  0.91219211015E+02 0.  0.
          4    1    3    3  502    0 -0.99092343322E+02 -0.12888031322E+03 -0.13076973067E+03  0.20863880296E+03  0.00000000000E+00 0. -1.
         -3    1    3    3    0  502 -0.46821034944E+03 -0.37952224298E+03 -0.39282848596E+03  0.71942496733E+03  0.00000000000E+00 0.  1.
         11    1    5    5    0    0  0.18134784427E+03  0.19861582232E+03 -0.62750221418E+03  0.68271100350E+03  0.00000000000E+00 0. -1.
        -11    1    5    5    0    0 -0.14245080927E+01 -0.78427487748E+01 -0.11296613149E+02  0.13825751346E+02  0.00000000000E+00 0.  1.
          3    1    6    6  503    0  0.17626130458E+03  0.16319083967E+03  0.15640658995E+03  0.28663970245E+03  0.00000000000E+00 0. -1.
         -3    1    6    6    0  503  0.21111805201E+03  0.15443864299E+03  0.71132975412E+02  0.27107568412E+03  0.00000000000E+00 0.  1.
<mgrwt>
<rscale>  0 0.19719392E+04</rscale>
<asrwt>0</asrwt>
<pdfrwt beam="1">  1        2 0.95958341E-01 0.19719392E+04</pdfrwt>
<pdfrwt beam="2">  1       -1 0.23978257E+00 0.19719392E+04</pdfrwt>
<totfact> 0.40913326E+00</totfact>
</mgrwt>
</event>
<event>
12    6  0.1529770E-007  0.1808919E+04  0.7818608E-02  0.8701571E-01
         -1   -1    0    0    0  501 -0.00000000000E+00  0.00000000000E+00  0.72281523587E+03  0.72281523587E+03  0.00000000000E+00 0.  1.
          2   -1    0    0  501    0  0.00000000000E+00 -0.00000000000E+00 -0.11317514457E+04  0.11317514457E+04  0.00000000000E+00 0. -1.
         24    2    1    2    0    0  0.19441221589E+03  0.11870676638E+03 -0.81024882999E+03  0.84567833550E+03  0.82348494517E+02 0.  0.
        254    2    1    2    0    0 -0.19441221589E+03 -0.11870676638E+03  0.40131262012E+03  0.10088883461E+04  0.89717137147E+03 0.  0.
         23    2    4    4    0    0  0.26933053040E+03 -0.29772775735E+03  0.24862782763E+03  0.48129349456E+03  0.92988596756E+02 0.  0.
         23    2    4    4    0    0 -0.46374274629E+03  0.17902099097E+03  0.15268479248E+03  0.52759485155E+03  0.89094509251E+02 0.  0.
          4    1    3    3  502    0  0.13042124472E+03  0.12131935708E+03 -0.60332660920E+03  0.62907160550E+03  0.00000000000E+00 0. -1.
         -3    1    3    3    0  502  0.63990971175E+02 -0.26125906996E+01 -0.20692222080E+03  0.21660673000E+03  0.00000000000E+00 0.  1.
         11    1    5    5    0    0  0.12811176551E+03 -0.17119362750E+03  0.82458846201E+02  0.22917099266E+03  0.00000000000E+00 0. -1.
        -11    1    5    5    0    0  0.14121876489E+03 -0.12653412985E+03  0.16616898143E+03  0.25212250190E+03  0.00000000000E+00 0.  1.
          2    1    6    6  503    0 -0.70251008826E+02  0.53193342628E+02  0.29207975143E+01  0.88166132949E+02  0.00000000000E+00 0. -1.
         -2    1    6    6    0  503 -0.39349173747E+03  0.12582764834E+03  0.14976399497E+03  0.43942871860E+03  0.00000000000E+00 0.  1.
<mgrwt>
<rscale>  0 0.18089192E+04</rscale>
<asrwt>0</asrwt>
<pdfrwt beam="1">  1        2 0.17411560E+00 0.18089192E+04</pdfrwt>
<pdfrwt beam="2">  1       -1 0.11120235E+00 0.18089192E+04</pdfrwt>
<totfact> 0.16669454E+01</totfact>
</mgrwt>
</event>
<event>
12    6  0.1529770E-007  0.1529300E+04  0.7818608E-02  0.8865199E-01
         -1   -1    0    0    0  501 -0.00000000000E+00  0.00000000000E+00  0.30987027144E+03  0.30987027144E+03  0.00000000000E+00 0.  1.
          2   -1    0    0  501    0  0.00000000000E+00 -0.00000000000E+00 -0.18868852408E+04  0.18868852408E+04  0.00000000000E+00 0. -1.
         24    2    1    2    0    0  0.17216744505E+03  0.32734156514E+03  0.30323208950E+01  0.37855423668E+03  0.80622489014E+02 0.  0.
        254    2    1    2    0    0 -0.17216744505E+03 -0.32734156514E+03 -0.15800472903E+04  0.18182012756E+04  0.82006847859E+03 0.  0.
         23    2    4    4    0    0 -0.41983728582E+03 -0.15401223759E+02 -0.48623989495E+03  0.65072788254E+03  0.10255241305E+03 0.  0.
         23    2    4    4    0    0  0.24766984077E+03 -0.31194034138E+03 -0.10938073953E+04  0.11674733930E+04  0.89063902621E+02 0.  0.
          2    1    3    3  502    0  0.46247520703E+02  0.15892622910E+03  0.23907352716E+02  0.16723618323E+03  0.00000000000E+00 0. -1.
         -1    1    3    3    0  502  0.12591992435E+03  0.16841533604E+03 -0.20875031821E+02  0.21131805345E+03  0.00000000000E+00 0.  1.
         11    1    5    5    0    0 -0.14013608841E+03 -0.42204033302E+02 -0.12089438655E+03  0.18982822867E+03  0.00000000000E+00 0.  1.
        -11    1    5    5    0    0 -0.27970119741E+03  0.26802809543E+02 -0.36534550840E+03  0.46089965387E+03  0.00000000000E+00 0. -1.
          2    1    6    6  503    0  0.21573824848E+03 -0.26156233235E+03 -0.10036405003E+04  0.10593640071E+04  0.00000000000E+00 0. -1.
         -2    1    6    6    0  503  0.31931592285E+02 -0.50378009033E+02 -0.90166894998E+02  0.10810938596E+03  0.00000000000E+00 0.  1.
<mgrwt>
<rscale>  0 0.15293000E+04</rscale>
<asrwt>0</asrwt>
<pdfrwt beam="1">  1        2 0.29029003E+00 0.15293000E+04</pdfrwt>
<pdfrwt beam="2">  1       -1 0.47672351E-01 0.15293000E+04</pdfrwt>
<totfact> 0.37266042E+01</totfact>
</mgrwt>
</event>
<event>
12    6  0.1529770E-007  0.1031933E+04  0.7818608E-02  0.9274198E-01
          2   -1    0    0  501    0  0.00000000000E+00  0.00000000000E+00  0.49987049187E+03  0.49987049187E+03  0.00000000000E+00 0. -1.
         -1   -1    0    0    0  501 -0.00000000000E+00 -0.00000000000E+00 -0.53258122513E+03  0.53258122513E+03  0.00000000000E+00 0.  1.
         24    2    1    2    0    0 -0.70448836486E+02  0.95452058644E+02  0.63298408851E+02  0.15112555140E+03  0.68979052326E+02 0.  0.
        254    2    1    2    0    0  0.70448836486E+02 -0.95452058644E+02 -0.96009142112E+02  0.88132616560E+03  0.86801147500E+03 0.  0.
         23    2    4    4    0    0  0.41433031622E+03 -0.16584441401E+03 -0.20961137103E+03  0.50129026471E+03  0.90449002366E+02 0.  0.
         23    2    4    4    0    0 -0.34388147974E+03  0.70392355367E+02  0.11360222892E+03  0.38003590088E+03  0.91171616991E+02 0.  0.
          4    1    3    3  502    0 -0.25104981169E+02  0.80967724282E+01  0.43284126259E+02  0.50688592299E+02  0.00000000000E+00 0. -1.
         -3    1    3    3    0  502 -0.45343855317E+02  0.87355286216E+02  0.20014282593E+02  0.10043695910E+03  0.00000000000E+00 0.  1.
         11    1    5    5    0    0  0.68337030182E+02 -0.64232716086E+02 -0.30267681861E+02  0.98549094745E+02  0.00000000000E+00 0.  1.
        -11    1    5    5    0    0  0.34599328604E+03 -0.10161169793E+03 -0.17934368917E+03  0.40274116997E+03  0.00000000000E+00 0. -1.
          4    1    6    6  503    0 -0.29641591474E+03  0.86198398674E+02  0.11644460401E+03  0.32992711960E+03  0.00000000000E+00 0. -1.
         -4    1    6    6    0  503 -0.47465564998E+02 -0.15806043307E+02 -0.28423750904E+01  0.50108781283E+02  0.00000000000E+00 0.  1.
<mgrwt>
<rscale>  0 0.10319334E+04</rscale>
<asrwt>0</asrwt>
<pdfrwt beam="1">  1        2 0.76903152E-01 0.10319334E+04</pdfrwt>
<pdfrwt beam="2">  1       -1 0.81935573E-01 0.10319334E+04</pdfrwt>
<totfact> 0.10411993E+02</totfact>
</mgrwt>
</event>
<event>
12    6  0.1529770E-007  0.1303998E+04  0.7818608E-02  0.9026401E-01
          2   -1    0    0  501    0  0.00000000000E+00  0.00000000000E+00  0.40851292541E+03  0.40851292541E+03  0.00000000000E+00 0. -1.
         -1   -1    0    0    0  501 -0.00000000000E+00 -0.00000000000E+00 -0.10406103527E+04  0.10406103527E+04  0.00000000000E+00 0.  1.
         24    2    1    2    0    0 -0.36747470570E+02  0.22329662165E+03  0.11206438978E+03  0.26447695643E+03  0.78599460505E+02 0.  0.
        254    2    1    2    0    0  0.36747470570E+02 -0.22329662165E+03 -0.74416181703E+03  0.11846463216E+04  0.89353138703E+03 0.  0.
         23    2    4    4    0    0  0.26053874456E+03  0.21781120580E+03 -0.53434796731E+03  0.63963363385E+03  0.91001519730E+02 0.  0.
         23    2    4    4    0    0 -0.22379127399E+03 -0.44110782745E+03 -0.20981384972E+03  0.54501268779E+03  0.91423894918E+02 0.  0.
          2    1    3    3  502    0 -0.54528110274E+02  0.19582890764E+03  0.11128575246E+03  0.23174726445E+03  0.00000000000E+00 0. -1.
         -1    1    3    3    0  502  0.17780639704E+02  0.27467714011E+02  0.77863731797E+00  0.32729691983E+02  0.00000000000E+00 0.  1.
         11    1    5    5    0    0  0.36109633845E+02  0.47844843512E+02 -0.44521325523E+02  0.74667148958E+02  0.00000000000E+00 0. -1.
        -11    1    5    5    0    0  0.22442911072E+03  0.16996636228E+03 -0.48982664179E+03  0.56496648489E+03  0.00000000000E+00 0.  1.
          3    1    6    6  503    0 -0.21986892068E+02 -0.11851975192E+03 -0.30346905989E+02  0.12430321686E+03  0.00000000000E+00 0. -1.
         -3    1    6    6    0  503 -0.20180438193E+03 -0.32258807553E+03 -0.17946694373E+03  0.42070947093E+03  0.00000000000E+00 0.  1.
<mgrwt>
<rscale>  0 0.13039981E+04</rscale>
<asrwt>0</asrwt>
<pdfrwt beam="1">  1        2 0.62848144E-01 0.13039981E+04</pdfrwt>
<pdfrwt beam="2">  1       -1 0.16009390E+00 0.13039981E+04</pdfrwt>
<totfact> 0.25402722E+01</totfact>
</mgrwt>
</event>
<event>
12    6  0.1529770E-007  0.1330148E+04  0.7818608E-02  0.9005993E-01
         -1   -1    0    0    0  501 -0.00000000000E+00  0.00000000000E+00  0.55499768191E+03  0.55499768191E+03  0.00000000000E+00 0.  1.
          2   -1    0    0  501    0  0.00000000000E+00 -0.00000000000E+00 -0.79698241432E+03  0.79698241432E+03  0.00000000000E+00 0. -1.
         24    2    1    2    0    0 -0.31666619458E+03 -0.12879165198E+03 -0.11762677440E+03  0.37049341910E+03  0.81021892922E+02 0.  0.
        254    2    1    2    0    0  0.31666619458E+03  0.12879165198E+03 -0.12435795800E+03  0.98148667713E+03  0.91158456945E+03 0.  0.
         23    2    4    4    0    0  0.24895635528E+03  0.49081393945E+03 -0.20006963828E+03  0.59215788588E+03  0.88008588514E+02 0.  0.
         23    2    4    4    0    0  0.67709839292E+02 -0.36202228747E+03  0.75711680278E+02  0.38932879125E+03  0.10099450581E+03 0.  0.
          2    1    3    3  502    0 -0.10854663836E+03 -0.48144373194E+02 -0.82395191357E+02  0.14453103794E+03  0.00000000000E+00 0. -1.
         -1    1    3    3    0  502 -0.20811955622E+03 -0.80647278782E+02 -0.35231583047E+02  0.22596238116E+03  0.00000000000E+00 0.  1.
         11    1    5    5    0    0  0.21684743782E+03  0.46884693041E+03 -0.19795419283E+03  0.55319627430E+03  0.00000000000E+00 0. -1.
        -11    1    5    5    0    0  0.32108917468E+02  0.21967009037E+02 -0.21154454488E+01  0.38961611574E+02  0.00000000000E+00 0.  1.
          4    1    6    6  503    0  0.43037598309E+02 -0.30375693420E+03  0.24209843590E+02  0.30774441745E+03  0.00000000000E+00 0. -1.
         -4    1    6    6    0  503  0.24672240983E+02 -0.58265353275E+02  0.51501836688E+02  0.81584373807E+02  0.00000000000E+00 0.  1.
<mgrwt>
<rscale>  0 0.13301480E+04</rscale>
<asrwt>0</asrwt>
<pdfrwt beam="1">  1        2 0.12261268E+00 0.13301480E+04</pdfrwt>
<pdfrwt beam="2">  1       -1 0.85384258E-01 0.13301480E+04</pdfrwt>
<totfact> 0.52438165E+01</totfact>
</mgrwt>
</event>
<event>
12    6  0.1529770E-007  0.1714214E+04  0.7818608E-02  0.8753299E-01
          2   -1    0    0  501    0  0.00000000000E+00  0.00000000000E+00  0.37019085721E+04  0.37019085721E+04  0.00000000000E+00 0. -1.
         -3   -1    0    0    0  501 -0.00000000000E+00 -0.00000000000E+00 -0.19844700068E+03  0.19844700068E+03  0.00000000000E+00 0.  1.
         24    2    1    2    0    0  0.40901717732E+03 -0.10564111333E+03  0.22835937707E+04  0.23236753015E+04  0.78811807027E+02 0.  0.
        254    2    1    2    0    0 -0.40901717732E+03  0.10564111333E+03  0.12198678007E+04  0.15766802713E+04  0.90520060237E+03 0.  0.
         23    2    4    4    0    0 -0.49750716675E+03  0.41681237122E+03  0.88924728807E+03  0.11045511983E+04  0.89591721067E+02 0.  0.
         23    2    4    4    0    0  0.88489989425E+02 -0.31117125788E+03  0.33062051263E+03  0.47212907303E+03  0.94540511234E+02 0.  0.
          4    1    3    3  502    0  0.23389166110E+03 -0.35425398981E+02  0.14341890736E+04  0.14535675308E+04  0.00000000000E+00 0. -1.
         -3    1    3    3    0  502  0.17512551623E+03 -0.70215714353E+02  0.84940469714E+03  0.87010777063E+03  0.00000000000E+00 0.  1.
         11    1    5    5    0    0 -0.47504373820E+03  0.41650069137E+03  0.84659233365E+03  0.10563417811E+04  0.00000000000E+00 0. -1.
        -11    1    5    5    0    0 -0.22463428553E+02  0.31167985369E+00  0.42654954426E+02  0.48209417169E+02  0.00000000000E+00 0.  1.
          4    1    6    6  503    0  0.83489929237E+02 -0.31454117323E+03  0.33303099026E+03  0.46563543509E+03  0.00000000000E+00 0. -1.
         -4    1    6    6    0  503  0.50000601872E+01  0.33699153420E+01 -0.24104776271E+01  0.64936379386E+01  0.00000000000E+00 0.  1.
<mgrwt>
<rscale>  0 0.17142143E+04</rscale>
<asrwt>0</asrwt>
<pdfrwt beam="1">  1        2 0.56952434E+00 0.17142143E+04</pdfrwt>
<pdfrwt beam="2">  1       -3 0.30530311E-01 0.17142143E+04</pdfrwt>
<totfact> 0.38247222E+00</totfact>
</mgrwt>
</event>
<event>
12    6  0.1529770E-007  0.2890691E+04  0.7818608E-02  0.8275653E-01
          2   -1    0    0  501    0  0.00000000000E+00  0.00000000000E+00  0.11158645306E+04  0.11158645306E+04  0.00000000000E+00 0. -1.
         -1   -1    0    0    0  501 -0.00000000000E+00 -0.00000000000E+00 -0.18721122350E+04  0.18721122350E+04  0.00000000000E+00 0.  1.
         24    2    1    2    0    0 -0.12633434035E+04  0.11193216554E+03 -0.66474149988E+03  0.14341459366E+04  0.79548356102E+02 0.  0.
        254    2    1    2    0    0  0.12633434035E+04 -0.11193216554E+03 -0.91506204521E+02  0.15538308290E+04  0.89300139688E+03 0.  0.
         23    2    4    4    0    0  0.16091056149E+03  0.45079381605E+02  0.31149826673E+03  0.36615880923E+03  0.95481641990E+02 0.  0.
         23    2    4    4    0    0  0.11024328420E+04 -0.15701154715E+03 -0.40300447125E+03  0.11876720198E+04  0.90229848807E+02 0.  0.
          4    1    3    3  502    0 -0.21214217538E+03  0.27166874139E+01 -0.13997754286E+03  0.25417591442E+03  0.00000000000E+00 0. -1.
         -3    1    3    3    0  502 -0.10512012281E+04  0.10921547813E+03 -0.52476395702E+03  0.11799700222E+04  0.00000000000E+00 0.  1.
         11    1    5    5    0    0  0.92204834998E+02  0.45521038550E+02  0.98658277421E+02  0.14250386750E+03  0.00000000000E+00 0.  1.
        -11    1    5    5    0    0  0.68705726493E+02 -0.44165694455E+00  0.21283998931E+03  0.22365494174E+03  0.00000000000E+00 0. -1.
          1    1    6    6  503    0  0.10435693801E+04 -0.12789435104E+03 -0.38397457809E+03  0.11192991078E+04  0.00000000000E+00 0. -1.
         -1    1    6    6    0  503  0.58863461928E+02 -0.29117196107E+02 -0.19029893157E+02  0.68372911982E+02  0.00000000000E+00 0.  1.
<mgrwt>
<rscale>  0 0.28906910E+04</rscale>
<asrwt>0</asrwt>
<pdfrwt beam="1">  1        2 0.17167147E+00 0.28906910E+04</pdfrwt>
<pdfrwt beam="2">  1       -1 0.28801726E+00 0.28906910E+04</pdfrwt>
<totfact> 0.82787776E-01</totfact>
</mgrwt>
</event>
<event>
12    6  0.1529770E-007  0.1246407E+04  0.7818608E-02  0.9073179E-01
          2   -1    0    0  501    0  0.00000000000E+00  0.00000000000E+00  0.10220253332E+04  0.10220253332E+04  0.00000000000E+00 0. -1.
         -1   -1    0    0    0  501 -0.00000000000E+00 -0.00000000000E+00 -0.38001257185E+03  0.38001257185E+03  0.00000000000E+00 0.  1.
         24    2    1    2    0    0  0.14675880178E+03  0.23665950071E+03  0.56545650318E+02  0.29644029386E+03  0.84460476417E+02 0.  0.
        254    2    1    2    0    0 -0.14675880178E+03 -0.23665950071E+03  0.58546711102E+03  0.11055976112E+04  0.89556042487E+03 0.  0.
         23    2    4    4    0    0 -0.14431797369E+03  0.32573337169E+03  0.21859516412E+03  0.42783801939E+03  0.91277697707E+02 0.  0.
         23    2    4    4    0    0 -0.24408280889E+01 -0.56239287240E+03  0.36687194690E+03  0.67775959179E+03  0.92039873318E+02 0.  0.
          4    1    3    3  502    0  0.28758260321E+02  0.34191712458E+01 -0.19709133288E+00  0.28961476373E+02  0.00000000000E+00 0. -1.
         -3    1    3    3    0  502  0.11800054146E+03  0.23324032947E+03  0.56742741650E+02  0.26747881749E+03  0.00000000000E+00 0.  1.
         11    1    5    5    0    0 -0.10633103285E+03  0.24104725099E+03  0.11139460138E+03  0.28603989752E+03  0.00000000000E+00 0. -1.
        -11    1    5    5    0    0 -0.37986940847E+02  0.84686120690E+02  0.10720056275E+03  0.14179812187E+03  0.00000000000E+00 0.  1.
          3    1    6    6  503    0  0.28800600465E+02 -0.28591242221E+03  0.22780146584E+03  0.36670000764E+03  0.00000000000E+00 0. -1.
         -3    1    6    6    0  503 -0.31241428554E+02 -0.27648045018E+03  0.13907048105E+03  0.31105958415E+03  0.00000000000E+00 0.  1.
<mgrwt>
<rscale>  0 0.12464068E+04</rscale>
<asrwt>0</asrwt>
<pdfrwt beam="1">  1        2 0.15723466E+00 0.12464068E+04</pdfrwt>
<pdfrwt beam="2">  1       -1 0.58463473E-01 0.12464068E+04</pdfrwt>
<totfact> 0.81115627E+01</totfact>
</mgrwt>
</event>
<event>
12    6  0.1529770E-007  0.3618418E+04  0.7818608E-02  0.8086286E-01
         -1   -1    0    0    0  501 -0.00000000000E+00  0.00000000000E+00  0.20927799858E+04  0.20927799858E+04  0.00000000000E+00 0.  1.
          2   -1    0    0  501    0  0.00000000000E+00 -0.00000000000E+00 -0.15640621331E+04  0.15640621331E+04  0.00000000000E+00 0. -1.
         24    2    1    2    0    0  0.10447010796E+04 -0.54278034125E+03 -0.98561300661E+03  0.15375041872E+04  0.80469139519E+02 0.  0.
        254    2    1    2    0    0 -0.10447010796E+04  0.54278034125E+03  0.15143308593E+04  0.21193379316E+04  0.90132373350E+03 0.  0.
         23    2    4    4    0    0 -0.18969498395E+03  0.17468704777E+03  0.10311320751E+04  0.10665610434E+04  0.88427097450E+02 0.  0.
         23    2    4    4    0    0 -0.85500609562E+03  0.36809329347E+03  0.48319878423E+03  0.10527768882E+04  0.91268915867E+02 0.  0.
          4    1    3    3  502    0  0.10027757059E+04 -0.53400668073E+03 -0.96145821503E+03  0.14883293153E+04  0.00000000000E+00 0. -1.
         -3    1    3    3    0  502  0.41925373663E+02 -0.87736605206E+01 -0.24154791583E+02  0.49174871958E+02  0.00000000000E+00 0.  1.
         11    1    5    5    0    0 -0.90801872376E+02  0.14182905749E+03  0.63575336439E+03  0.65767986278E+03  0.00000000000E+00 0.  1.
        -11    1    5    5    0    0 -0.98893111579E+02  0.32857990283E+02  0.39537871066E+03  0.40888118065E+03  0.00000000000E+00 0. -1.
          1    1    6    6  503    0 -0.58321027227E+03  0.20742291383E+03  0.33781233645E+03  0.70517775173E+03  0.00000000000E+00 0. -1.
         -1    1    6    6    0  503 -0.27179582334E+03  0.16067037964E+03  0.14538644778E+03  0.34759913647E+03  0.00000000000E+00 0.  1.
<mgrwt>
<rscale>  0 0.36184184E+04</rscale>
<asrwt>0</asrwt>
<pdfrwt beam="1">  1        2 0.24062494E+00 0.36184184E+04</pdfrwt>
<pdfrwt beam="2">  1       -1 0.32196615E+00 0.36184184E+04</pdfrwt>
<totfact> 0.25711600E-01</totfact>
</mgrwt>
</event>
<event>
12    6  0.1529770E-007  0.2559479E+04  0.7818608E-02  0.8382097E-01
          2   -1    0    0  501    0  0.00000000000E+00  0.00000000000E+00  0.49133367808E+04  0.49133367808E+04  0.00000000000E+00 0. -1.
         -1   -1    0    0    0  501 -0.00000000000E+00 -0.00000000000E+00 -0.33332408276E+03  0.33332408276E+03  0.00000000000E+00 0.  1.
         24    2    1    2    0    0  0.33560879380E+03 -0.28895613702E+02  0.39917902598E+04  0.40067695593E+04  0.79653019929E+02 0.  0.
        254    2    1    2    0    0 -0.33560879380E+03  0.28895613702E+02  0.58822243821E+03  0.12398913043E+04  0.10381987241E+04 0.  0.
         23    2    4    4    0    0 -0.23553121240E+03  0.51707160876E+03  0.39347771365E+03  0.69693427375E+03  0.89747814399E+02 0.  0.
         23    2    4    4    0    0 -0.10007758140E+03 -0.48817599505E+03  0.19474472456E+03  0.54295703055E+03  0.92441899741E+02 0.  0.
          2    1    3    3  502    0  0.27047478533E+03 -0.50358428259E+02  0.33689381627E+04  0.33801533878E+04  0.00000000000E+00 0. -1.
         -1    1    3    3    0  502  0.65134008471E+02  0.21462814556E+02  0.62285209712E+03  0.62661617148E+03  0.00000000000E+00 0.  1.
         11    1    5    5    0    0 -0.11391550852E+03  0.21302357788E+03  0.21810773438E+03  0.32546393289E+03  0.00000000000E+00 0.  1.
        -11    1    5    5    0    0 -0.12161570388E+03  0.30404803088E+03  0.17536997927E+03  0.37147034086E+03  0.00000000000E+00 0. -1.
          2    1    6    6  503    0 -0.87744207959E+01  0.16779963704E+00 -0.12955933802E+01  0.88711430621E+01  0.00000000000E+00 0. -1.
         -2    1    6    6    0  503 -0.91303160606E+02 -0.48834379469E+03  0.19604031794E+03  0.53408588748E+03  0.00000000000E+00 0.  1.
<mgrwt>
<rscale>  0 0.25594792E+04</rscale>
<asrwt>0</asrwt>
<pdfrwt beam="1">  1        2 0.75589791E+00 0.25594792E+04</pdfrwt>
<pdfrwt beam="2">  1       -1 0.51280632E-01 0.25594792E+04</pdfrwt>
<totfact> 0.17078780E-01</totfact>
</mgrwt>
</event>
<event>
12    6  0.1529770E-007  0.1282092E+04  0.7818608E-02  0.9043888E-01
         -1   -1    0    0    0  501 -0.00000000000E+00  0.00000000000E+00  0.24893489352E+03  0.24893489352E+03  0.00000000000E+00 0.  1.
          2   -1    0    0  501    0  0.00000000000E+00 -0.00000000000E+00 -0.16507934190E+04  0.16507934190E+04  0.00000000000E+00 0. -1.
         24    2    1    2    0    0 -0.10039081284E+03  0.24660559151E+03 -0.95797873703E+02  0.29365409582E+03  0.78503900046E+02 0.  0.
        254    2    1    2    0    0  0.10039081284E+03 -0.24660559151E+03 -0.13060606518E+04  0.16060742167E+04  0.89598400118E+03 0.  0.
         23    2    4    4    0    0  0.46057883986E+03 -0.29776743286E+03 -0.71111325316E+03  0.90281675961E+03  0.92723949587E+02 0.  0.
         23    2    4    4    0    0 -0.36018802702E+03  0.51161841348E+02 -0.59494739865E+03  0.70325745712E+03  0.90860855201E+02 0.  0.
          2    1    3    3  502    0 -0.27013646201E+01  0.38502891030E+02  0.11046725633E+02  0.40147230735E+02  0.00000000000E+00 0. -1.
         -1    1    3    3    0  502 -0.97689448217E+02  0.20810270048E+03 -0.10684459934E+03  0.25350686509E+03  0.00000000000E+00 0.  1.
         11    1    5    5    0    0  0.38327192655E+00 -0.17203314331E+02 -0.19978603790E+02  0.26367508998E+02  0.00000000000E+00 0. -1.
        -11    1    5    5    0    0  0.46019556793E+03 -0.28056411852E+03 -0.69113464937E+03  0.87644925062E+03  0.00000000000E+00 0.  1.
          1    1    6    6  503    0 -0.17033345955E+02  0.25264312536E+02 -0.40248208177E+02  0.50481071936E+02  0.00000000000E+00 0. -1.
         -1    1    6    6    0  503 -0.34315468107E+03  0.25897528812E+02 -0.55469919047E+03  0.65277638518E+03  0.00000000000E+00 0.  1.
<mgrwt>
<rscale>  0 0.12820922E+04</rscale>
<asrwt>0</asrwt>
<pdfrwt beam="1">  1        2 0.25396823E+00 0.12820922E+04</pdfrwt>
<pdfrwt beam="2">  1       -1 0.38297675E-01 0.12820922E+04</pdfrwt>
<totfact> 0.77006443E+01</totfact>
</mgrwt>
</event>
<event>
12    6  0.1529770E-007  0.1063226E+04  0.7818608E-02  0.9241794E-01
          2   -1    0    0  501    0  0.00000000000E+00  0.00000000000E+00  0.69458650807E+03  0.69458650807E+03  0.00000000000E+00 0. -1.
         -1   -1    0    0    0  501 -0.00000000000E+00 -0.00000000000E+00 -0.40687886409E+03  0.40687886409E+03  0.00000000000E+00 0.  1.
         24    2    1    2    0    0 -0.40469718815E+02 -0.20155251204E+02  0.16688980944E+03  0.19224615590E+03  0.84037751450E+02 0.  0.
        254    2    1    2    0    0  0.40469718815E+02  0.20155251204E+02  0.12081783454E+03  0.90921921627E+03  0.90002144519E+03 0.  0.
         23    2    4    4    0    0  0.36229935607E+03 -0.10996085930E+03 -0.19097023586E+03  0.43385508756E+03  0.91697284754E+02 0.  0.
         23    2    4    4    0    0 -0.32182963725E+03  0.13011611051E+03  0.31178807040E+03  0.47536412871E+03  0.90855579851E+02 0.  0.
          4    1    3    3  502    0 -0.50184668850E+02 -0.32981787523E+02  0.16554383908E+03  0.17609957965E+03  0.00000000000E+00 0. -1.
         -3    1    3    3    0  502  0.97149500353E+01  0.12826536319E+02  0.13459703590E+01  0.16146576242E+02  0.00000000000E+00 0.  1.
         11    1    5    5    0    0  0.73564454143E+02  0.60546794504E+01 -0.11691169383E+02  0.74733335923E+02  0.00000000000E+00 0.  1.
        -11    1    5    5    0    0  0.28873490192E+03 -0.11601553875E+03 -0.17927906648E+03  0.35912175164E+03  0.00000000000E+00 0. -1.
          3    1    6    6  503    0 -0.28767698170E+03  0.14244091704E+03  0.29232809848E+03  0.43416952658E+03  0.00000000000E+00 0. -1.
         -3    1    6    6    0  503 -0.34152655551E+02 -0.12324806537E+02  0.19459971923E+02  0.41194602130E+02  0.00000000000E+00 0.  1.
<mgrwt>
<rscale>  0 0.10632264E+04</rscale>
<asrwt>0</asrwt>
<pdfrwt beam="1">  1        2 0.10685946E+00 0.10632264E+04</pdfrwt>
<pdfrwt beam="2">  1       -1 0.62596748E-01 0.10632264E+04</pdfrwt>
<totfact> 0.12173618E+02</totfact>
</mgrwt>
</event>
<event>
12    6  0.1529770E-007  0.1607769E+04  0.7818608E-02  0.8815789E-01
         -1   -1    0    0    0  501 -0.00000000000E+00  0.00000000000E+00  0.18684118626E+03  0.18684118626E+03  0.00000000000E+00 0.  1.
          2   -1    0    0  501    0  0.00000000000E+00 -0.00000000000E+00 -0.34587163639E+04  0.34587163639E+04  0.00000000000E+00 0. -1.
         24    2    1    2    0    0  0.20590216829E+03  0.37704056428E+03 -0.19078730771E+04  0.19574582853E+04  0.84308779360E+02 0.  0.
        254    2    1    2    0    0 -0.20590216829E+03 -0.37704056428E+03 -0.13640021005E+04  0.16880992649E+04  0.89700730642E+03 0.  0.
         23    2    4    4    0    0 -0.11724094167E+03 -0.24756235361E+02  0.97579753413E+02  0.17932218627E+03  0.90974329462E+02 0.  0.
         23    2    4    4    0    0 -0.88661226622E+02 -0.35228432892E+03 -0.14615818540E+04  0.15087770786E+04  0.90673566154E+02 0.  0.
          2    1    3    3  502    0  0.16478144938E+03  0.22506498810E+03 -0.12933300509E+04  0.13230683261E+04  0.00000000000E+00 0. -1.
         -1    1    3    3    0  502  0.41120718912E+02  0.15197557618E+03 -0.61454302620E+03  0.63438995920E+03  0.00000000000E+00 0.  1.
         11    1    5    5    0    0 -0.40876795025E+02 -0.36626580713E+02  0.49790087660E-01  0.54885528742E+02  0.00000000000E+00 0.  1.
        -11    1    5    5    0    0 -0.76364146646E+02  0.11870345352E+02  0.97529963325E+02  0.12443665753E+03  0.00000000000E+00 0. -1.
          1    1    6    6  503    0 -0.52596491120E+01 -0.20204350729E+03 -0.82730112599E+03  0.85163160804E+03  0.00000000000E+00 0. -1.
         -1    1    6    6    0  503 -0.83401577510E+02 -0.15024082163E+03 -0.63428072797E+03  0.65714547057E+03  0.00000000000E+00 0.  1.
<mgrwt>
<rscale>  0 0.16077695E+04</rscale>
<asrwt>0</asrwt>
<pdfrwt beam="1">  1        2 0.53211019E+00 0.16077695E+04</pdfrwt>
<pdfrwt beam="2">  1       -1 0.28744799E-01 0.16077695E+04</pdfrwt>
<totfact> 0.10541886E+01</totfact>
</mgrwt>
</event>
<event>
12    6  0.1529770E-007  0.1696440E+04  0.7818608E-02  0.8763397E-01
          2   -1    0    0  501    0  0.00000000000E+00  0.00000000000E+00  0.23766222680E+04  0.23766222680E+04  0.00000000000E+00 0. -1.
         -1   -1    0    0    0  501 -0.00000000000E+00 -0.00000000000E+00 -0.30273093545E+03  0.30273093545E+03  0.00000000000E+00 0.  1.
         24    2    1    2    0    0  0.98668131091E+02 -0.15936500302E+03 -0.16117064708E+03  0.26416296736E+03  0.93131582010E+02 0.  0.
        254    2    1    2    0    0 -0.98668131091E+02  0.15936500302E+03  0.22350619796E+04  0.24151902361E+04  0.89582878915E+03 0.  0.
         23    2    4    4    0    0  0.20011141016E+03  0.44160551259E+03  0.11859771442E+04  0.12846691312E+04  0.93664213989E+02 0.  0.
         23    2    4    4    0    0 -0.29877954125E+03 -0.28224050958E+03  0.10490848355E+04  0.11305211049E+04  0.92574602728E+02 0.  0.
          4    1    3    3  502    0  0.47273602291E+02 -0.94851531161E+01 -0.20912942874E+02  0.52555806367E+02  0.00000000000E+00 0. -1.
         -3    1    3    3    0  502  0.51394528799E+02 -0.14987984990E+03 -0.14025770420E+03  0.21160716100E+03  0.00000000000E+00 0.  1.
         11    1    5    5    0    0 -0.91483687210E+01  0.35724041551E+02  0.78031860083E+02  0.86306842040E+02  0.00000000000E+00 0. -1.
        -11    1    5    5    0    0  0.20925977888E+03  0.40588147104E+03  0.11079452841E+04  0.11983622892E+04  0.00000000000E+00 0.  1.
          2    1    6    6  503    0 -0.22425414725E+03 -0.21906442147E+03  0.89249144701E+03  0.94594932544E+03  0.00000000000E+00 0.  1.
         -2    1    6    6    0  503 -0.74525393998E+02 -0.63176088111E+02  0.15659338844E+03  0.18457177944E+03  0.00000000000E+00 0. -1.
<mgrwt>
<rscale>  0 0.16964399E+04</rscale>
<asrwt>0</asrwt>
<pdfrwt beam="1">  1        2 0.36563418E+00 0.16964399E+04</pdfrwt>
<pdfrwt beam="2">  1       -1 0.46573992E-01 0.16964399E+04</pdfrwt>
<totfact> 0.20427041E+01</totfact>
</mgrwt>
</event>
<event>
12    6  0.1529770E-007  0.1882349E+04  0.7818608E-02  0.8663693E-01
          2   -1    0    0  501    0  0.00000000000E+00  0.00000000000E+00  0.10803534360E+04  0.10803534360E+04  0.00000000000E+00 0. -1.
         -1   -1    0    0    0  501 -0.00000000000E+00 -0.00000000000E+00 -0.81992538603E+03  0.81992538603E+03  0.00000000000E+00 0.  1.
         24    2    1    2    0    0  0.61151041247E+03  0.65253623815E+02 -0.29723258178E+03  0.68788692434E+03  0.81475106807E+02 0.  0.
        254    2    1    2    0    0 -0.61151041247E+03 -0.65253623815E+02  0.55766063175E+03  0.12123918977E+04  0.88357552784E+03 0.  0.
         23    2    4    4    0    0 -0.43624014018E+03 -0.18595902739E+03 -0.11903239528E+03  0.49711600067E+03  0.89829768039E+02 0.  0.
         23    2    4    4    0    0 -0.17527027229E+03  0.12070540358E+03  0.67669302703E+03  0.71527589702E+03  0.91742537648E+02 0.  0.
          2    1    3    3  502    0  0.57807904023E+03  0.46683757263E+02 -0.26399497275E+03  0.63721903266E+03  0.00000000000E+00 0. -1.
         -1    1    3    3    0  502  0.33431372240E+02  0.18569866552E+02 -0.33237609029E+02  0.50667891683E+02  0.00000000000E+00 0.  1.
         11    1    5    5    0    0 -0.30843382049E+03 -0.17318452861E+03 -0.97094684015E+02  0.36681286815E+03  0.00000000000E+00 0.  1.
        -11    1    5    5    0    0 -0.12780631969E+03 -0.12774498786E+02 -0.21937711267E+02  0.13030313253E+03  0.00000000000E+00 0. -1.
          2    1    6    6  503    0 -0.11095883195E+02  0.23763192763E+02  0.20246155297E+03  0.20415310036E+03  0.00000000000E+00 0. -1.
         -2    1    6    6    0  503 -0.16417438909E+03  0.96942210816E+02  0.47423147407E+03  0.51112279666E+03  0.00000000000E+00 0.  1.
<mgrwt>
<rscale>  0 0.18823488E+04</rscale>
<asrwt>0</asrwt>
<pdfrwt beam="1">  1        2 0.16620822E+00 0.18823488E+04</pdfrwt>
<pdfrwt beam="2">  1       -1 0.12614237E+00 0.18823488E+04</pdfrwt>
<totfact> 0.13113566E+01</totfact>
</mgrwt>
</event>
<event>
12    6  0.1529770E-007  0.1520841E+04  0.7818608E-02  0.8870711E-01
         -1   -1    0    0    0  501 -0.00000000000E+00  0.00000000000E+00  0.16891103091E+03  0.16891103091E+03  0.00000000000E+00 0.  1.
          2   -1    0    0  501    0  0.00000000000E+00 -0.00000000000E+00 -0.34233388600E+04  0.34233388600E+04  0.00000000000E+00 0. -1.
         24    2    1    2    0    0 -0.47211280248E+03  0.74416865042E+02 -0.87505952534E+03  0.10002043104E+04  0.79064034286E+02 0.  0.
        254    2    1    2    0    0  0.47211280248E+03 -0.74416865042E+02 -0.23793683037E+04  0.25920455805E+04  0.91042759109E+03 0.  0.
         23    2    4    4    0    0  0.60301757973E+03  0.58954616738E+02 -0.22806385719E+04  0.23615668691E+04  0.92627928064E+02 0.  0.
         23    2    4    4    0    0 -0.13090477724E+03 -0.13337148178E+03 -0.98729731828E+02  0.23047871147E+03  0.91917700336E+02 0.  0.
          2    1    3    3  502    0 -0.18168996177E+03  0.22302504300E+02 -0.41603641005E+03  0.45452715914E+03  0.00000000000E+00 0. -1.
         -1    1    3    3    0  502 -0.29042284072E+03  0.52114360741E+02 -0.45902311529E+03  0.54567715123E+03  0.00000000000E+00 0.  1.
         11    1    5    5    0    0  0.38561108270E+03  0.12593947054E+02 -0.15845945440E+04  0.16308876060E+04  0.00000000000E+00 0. -1.
        -11    1    5    5    0    0  0.21740649702E+03  0.46360669683E+02 -0.69604402794E+03  0.73067926307E+03  0.00000000000E+00 0.  1.
          2    1    6    6  503    0 -0.68349922040E+02 -0.79361774480E+02 -0.40684124690E+01  0.10481676904E+03  0.00000000000E+00 0. -1.
         -2    1    6    6    0  503 -0.62554855204E+02 -0.54009707299E+02 -0.94661319359E+02  0.12566194243E+03  0.00000000000E+00 0.  1.
<mgrwt>
<rscale>  0 0.15208415E+04</rscale>
<asrwt>0</asrwt>
<pdfrwt beam="1">  1        2 0.52666751E+00 0.15208415E+04</pdfrwt>
<pdfrwt beam="2">  1       -1 0.25986313E-01 0.15208415E+04</pdfrwt>
<totfact> 0.13393910E+01</totfact>
</mgrwt>
</event>
<event>
12    6  0.1529770E-007  0.1806211E+04  0.7818608E-02  0.8703003E-01
         -1   -1    0    0    0  501 -0.00000000000E+00  0.00000000000E+00  0.32991069273E+03  0.32991069273E+03  0.00000000000E+00 0.  1.
          2   -1    0    0  501    0  0.00000000000E+00 -0.00000000000E+00 -0.24721835709E+04  0.24721835709E+04  0.00000000000E+00 0. -1.
         24    2    1    2    0    0 -0.35412519646E+03 -0.38116130901E+01  0.91741696263E+02  0.37427575084E+03  0.79035534247E+02 0.  0.
        254    2    1    2    0    0  0.35412519646E+03  0.38116130901E+01 -0.22340145744E+04  0.24278185128E+04  0.88207847106E+03 0.  0.
         23    2    4    4    0    0  0.26264976721E+03  0.26011151285E+03 -0.33519158615E+03  0.50736870155E+03  0.91797061758E+02 0.  0.
         23    2    4    4    0    0  0.91475429244E+02 -0.25629989976E+03 -0.18988229883E+04  0.19204498112E+04  0.92419391437E+02 0.  0.
          2    1    3    3  502    0 -0.97479569508E+02 -0.32375147221E+02  0.43651008946E+02  0.11160567732E+03  0.00000000000E+00 0. -1.
         -3    1    3    3    0  502 -0.25664562695E+03  0.28563534131E+02  0.48090687317E+02  0.26267007351E+03  0.00000000000E+00 0.  1.
         11    1    5    5    0    0  0.15917289190E+03  0.11162544125E+03 -0.21628024461E+03  0.29081504922E+03  0.00000000000E+00 0. -1.
        -11    1    5    5    0    0  0.10347687532E+03  0.14848607161E+03 -0.11891134154E+03  0.21655365232E+03  0.00000000000E+00 0.  1.
          4    1    6    6  503    0  0.37286438665E+02 -0.21764606080E+03 -0.14492459182E+04  0.14659719703E+04  0.00000000000E+00 0. -1.
         -4    1    6    6    0  503  0.54188990579E+02 -0.38653838966E+02 -0.44957707004E+03  0.45447784090E+03  0.00000000000E+00 0.  1.
<mgrwt>
<rscale>  0 0.18062113E+04</rscale>
<asrwt>0</asrwt>
<pdfrwt beam="1">  1        2 0.38033595E+00 0.18062113E+04</pdfrwt>
<pdfrwt beam="2">  1       -1 0.50755489E-01 0.18062113E+04</pdfrwt>
<totfact> 0.15155570E+01</totfact>
</mgrwt>
</event>
<event>
12    6  0.1529770E-007  0.2404567E+04  0.7818608E-02  0.8437796E-01
         -1   -1    0    0    0  501 -0.00000000000E+00  0.00000000000E+00  0.64780337487E+03  0.64780337487E+03  0.00000000000E+00 0.  1.
          2   -1    0    0  501    0  0.00000000000E+00 -0.00000000000E+00 -0.22313641385E+04  0.22313641385E+04  0.00000000000E+00 0. -1.
         24    2    1    2    0    0  0.96433492419E+03 -0.35473939964E+03 -0.81482144849E+03  0.13138222109E+04  0.80080717148E+02 0.  0.
        254    2    1    2    0    0 -0.96433492419E+03  0.35473939964E+03 -0.76873931512E+03  0.15653453025E+04  0.89641725421E+03 0.  0.
         23    2    4    4    0    0  0.34701430161E+01 -0.18690911571E+03 -0.28461012909E+03  0.35186892050E+03  0.88666522480E+02 0.  0.
         23    2    4    4    0    0 -0.96780506720E+03  0.54164851535E+03 -0.48412918603E+03  0.12134763820E+04  0.90078291006E+02 0.  0.
          4    1    3    3  502    0  0.14606099081E+03 -0.31121340095E+02 -0.14264041979E+03  0.20651547207E+03  0.00000000000E+00 0. -1.
         -3    1    3    3    0  502  0.81827393337E+03 -0.32361805955E+03 -0.67218102870E+03  0.11073067388E+04  0.00000000000E+00 0.  1.
         11    1    5    5    0    0 -0.19536475473E+02 -0.17773779971E+03 -0.26752853558E+03  0.32178240578E+03  0.00000000000E+00 0. -1.
        -11    1    5    5    0    0  0.23006618489E+02 -0.91713159985E+01 -0.17081593511E+02  0.30086514726E+02  0.00000000000E+00 0.  1.
          3    1    6    6  503    0 -0.88625130534E+03  0.51890856716E+03 -0.46097775799E+03  0.11257033227E+04  0.00000000000E+00 0. -1.
         -3    1    6    6    0  503 -0.81553761859E+02  0.22739948191E+02 -0.23151428046E+02  0.87773059293E+02  0.00000000000E+00 0.  1.
<mgrwt>
<rscale>  0 0.24045667E+04</rscale>
<asrwt>0</asrwt>
<pdfrwt beam="1">  1        2 0.34328678E+00 0.24045667E+04</pdfrwt>
<pdfrwt beam="2">  1       -1 0.99662060E-01 0.24045667E+04</pdfrwt>
<totfact> 0.48695871E+00</totfact>
</mgrwt>
</event>
<event>
12    6  0.1529770E-007  0.1636100E+04  0.7818608E-02  0.8798672E-01
         -3   -1    0    0    0  501 -0.00000000000E+00  0.00000000000E+00  0.25684329626E+03  0.25684329626E+03  0.00000000000E+00 0.  1.
          2   -1    0    0  501    0  0.00000000000E+00 -0.00000000000E+00 -0.26055026892E+04  0.26055026892E+04  0.00000000000E+00 0. -1.
         24    2    1    2    0    0  0.96278661438E+02  0.62781891949E+02  0.14808963260E+03  0.20369350463E+03  0.79682858508E+02 0.  0.
        254    2    1    2    0    0 -0.96278661438E+02 -0.62781891949E+02 -0.24967490255E+04  0.26586524808E+04  0.90634770963E+03 0.  0.
         23    2    4    4    0    0 -0.20033704932E+02 -0.39498969913E+03 -0.20501779158E+04  0.20897576206E+04  0.86250883418E+02 0.  0.
         23    2    4    4    0    0 -0.76244956506E+02  0.33220780718E+03 -0.44657110976E+03  0.56889486021E+03  0.89667638309E+02 0.  0.
          4    1    3    3  502    0 -0.18081659811E+01  0.91738206000E+01 -0.75879633709E+01  0.12041828629E+02  0.00000000000E+00 0. -1.
         -3    1    3    3    0  502  0.98086827419E+02  0.53608071349E+02  0.15567759597E+03  0.19165167600E+03  0.00000000000E+00 0.  1.
         11    1    5    5    0    0 -0.32853269616E+02 -0.20797347950E+03 -0.12728049186E+04  0.12901025798E+04  0.00000000000E+00 0.  1.
        -11    1    5    5    0    0  0.12819564684E+02 -0.18701621963E+03 -0.77737299715E+03  0.79965504084E+03  0.00000000000E+00 0. -1.
          3    1    6    6  503    0 -0.96947250755E+02  0.27170855702E+03 -0.36366705639E+03  0.46419611942E+03  0.00000000000E+00 0. -1.
         -3    1    6    6    0  503  0.20702294249E+02  0.60499250161E+02 -0.82904053368E+02  0.10469874079E+03  0.00000000000E+00 0.  1.
<mgrwt>
<rscale>  0 0.16361001E+04</rscale>
<asrwt>0</asrwt>
<pdfrwt beam="1">  1        2 0.40084658E+00 0.16361001E+04</pdfrwt>
<pdfrwt beam="2">  1       -3 0.39514352E-01 0.16361001E+04</pdfrwt>
<totfact> 0.11917390E+01</totfact>
</mgrwt>
</event>
<event>
12    6  0.1529770E-007  0.1472291E+04  0.7818608E-02  0.8903091E-01
         -1   -1    0    0    0  501 -0.00000000000E+00  0.00000000000E+00  0.37032366686E+03  0.37032366686E+03  0.00000000000E+00 0.  1.
          2   -1    0    0  501    0  0.00000000000E+00 -0.00000000000E+00 -0.14633421313E+04  0.14633421313E+04  0.00000000000E+00 0. -1.
         24    2    1    2    0    0 -0.19392346226E+03  0.28541124661E+03 -0.71072333949E+03  0.79411036802E+03  0.80110688354E+02 0.  0.
        254    2    1    2    0    0  0.19392346226E+03 -0.28541124661E+03 -0.38229512490E+03  0.10395554301E+04  0.90302826136E+03 0.  0.
         23    2    4    4    0    0 -0.23980671167E+03  0.99401989955E+02 -0.36091294718E+03  0.45241613893E+03  0.83870094529E+02 0.  0.
         23    2    4    4    0    0  0.43373017393E+03 -0.38481323656E+03 -0.21382177717E+02  0.58713929116E+03  0.89845750528E+02 0.  0.
          4    1    3    3  502    0 -0.55088521282E+02  0.12284360202E+03 -0.34714611202E+03  0.37233817804E+03  0.00000000000E+00 0. -1.
         -3    1    3    3    0  502 -0.13883494098E+03  0.16256764459E+03 -0.36357722747E+03  0.42177218998E+03  0.00000000000E+00 0.  1.
         11    1    5    5    0    0 -0.12947544832E+02  0.26733394982E+02 -0.17514939972E+02  0.34483132785E+02  0.00000000000E+00 0. -1.
        -11    1    5    5    0    0 -0.22685916684E+03  0.72668594973E+02 -0.34339800721E+03  0.41793300615E+03  0.00000000000E+00 0.  1.
          2    1    6    6  503    0  0.16600811832E+03 -0.18569593584E+03 -0.43097542654E+02  0.25278266182E+03  0.00000000000E+00 0. -1.
         -2    1    6    6    0  503  0.26772205561E+03 -0.19911730073E+03  0.21715364937E+02  0.33435662934E+03  0.00000000000E+00 0.  1.
<mgrwt>
<rscale>  0 0.14722910E+04</rscale>
<asrwt>0</asrwt>
<pdfrwt beam="1">  1        2 0.22512956E+00 0.14722910E+04</pdfrwt>
<pdfrwt beam="2">  1       -1 0.56972870E-01 0.14722910E+04</pdfrwt>
<totfact> 0.45820342E+01</totfact>
</mgrwt>
</event>
<event>
12    6  0.1529770E-007  0.2249921E+04  0.7818608E-02  0.8497932E-01
          2   -1    0    0  501    0  0.00000000000E+00  0.00000000000E+00  0.23226144582E+04  0.23226144582E+04  0.00000000000E+00 0. -1.
         -1   -1    0    0    0  501 -0.00000000000E+00 -0.00000000000E+00 -0.54487577665E+03  0.54487577665E+03  0.00000000000E+00 0.  1.
         24    2    1    2    0    0  0.55990336099E+03 -0.47298716655E+03  0.15311016908E+04  0.16993401799E+04  0.79221374769E+02 0.  0.
        254    2    1    2    0    0 -0.55990336099E+03  0.47298716655E+03  0.24663699075E+03  0.11681500549E+04  0.87552048076E+03 0.  0.
         23    2    4    4    0    0 -0.18643568756E+03 -0.12134462820E+03 -0.21590744256E+03  0.32249766322E+03  0.88915322870E+02 0.  0.
         23    2    4    4    0    0 -0.37346767343E+03  0.59433179475E+03  0.46254443332E+03  0.84565239170E+03  0.92044714379E+02 0.  0.
          4    1    3    3  502    0  0.54826417438E+03 -0.44258090467E+03  0.14674125128E+04  0.16278117043E+04  0.00000000000E+00 0. -1.
         -3    1    3    3    0  502  0.11639186609E+02 -0.30406261880E+02  0.63689178055E+02  0.71528475642E+02  0.00000000000E+00 0.  1.
         11    1    5    5    0    0 -0.72152112127E+02 -0.90820205651E+02 -0.14059882559E+03  0.18226976380E+03  0.00000000000E+00 0. -1.
        -11    1    5    5    0    0 -0.11428357543E+03 -0.30524422546E+02 -0.75308616970E+02  0.14022789942E+03  0.00000000000E+00 0.  1.
          3    1    6    6  503    0 -0.28297810017E+03  0.51435961991E+03  0.37785242746E+03  0.69815104433E+03  0.00000000000E+00 0. -1.
         -3    1    6    6    0  503 -0.90489573264E+02  0.79972174837E+02  0.84692005857E+02  0.14750134736E+03  0.00000000000E+00 0.  1.
<mgrwt>
<rscale>  0 0.22499212E+04</rscale>
<asrwt>0</asrwt>
<pdfrwt beam="1">  1        2 0.35732530E+00 0.22499212E+04</pdfrwt>
<pdfrwt beam="2">  1       -1 0.83827044E-01 0.22499212E+04</pdfrwt>
<totfact> 0.64324079E+00</totfact>
</mgrwt>
</event>
<event>
12    6  0.1529770E-007  0.1335561E+04  0.7818608E-02  0.9001830E-01
          2   -1    0    0  501    0  0.00000000000E+00  0.00000000000E+00  0.11692718411E+04  0.11692718411E+04  0.00000000000E+00 0. -1.
         -1   -1    0    0    0  501 -0.00000000000E+00 -0.00000000000E+00 -0.38137499376E+03  0.38137499376E+03  0.00000000000E+00 0.  1.
         24    2    1    2    0    0 -0.96658174580E+02 -0.78614068343E+02  0.58926898292E+03  0.60751920086E+03  0.79490066845E+02 0.  0.
        254    2    1    2    0    0  0.96658174580E+02  0.78614068343E+02  0.19862786444E+03  0.94312763402E+03  0.91351723085E+03 0.  0.
         23    2    4    4    0    0 -0.38376140692E+03  0.16127942396E+03  0.69583960861E+02  0.43205016516E+03  0.92420493262E+02 0.  0.
         23    2    4    4    0    0  0.48041958150E+03 -0.82665355612E+02  0.12904390358E+03  0.51107746886E+03  0.83134317917E+02 0.  0.
          2    1    3    3  502    0 -0.39809244908E+02  0.56461574907E+01  0.25459278999E+03  0.25774821782E+03  0.00000000000E+00 0. -1.
         -1    1    3    3    0  502 -0.56848929672E+02 -0.84260225834E+02  0.33467619293E+03  0.34977098304E+03  0.00000000000E+00 0.  1.
         11    1    5    5    0    0 -0.28268762609E+03  0.16082183046E+03  0.49039363116E+02  0.32890851955E+03  0.00000000000E+00 0.  1.
        -11    1    5    5    0    0 -0.10107378083E+03  0.45759349334E+00  0.20544597745E+02  0.10314164561E+03  0.00000000000E+00 0. -1.
          3    1    6    6  503    0  0.54491195741E+02  0.47218596965E+01  0.38668177590E+02  0.66983687047E+02  0.00000000000E+00 0. -1.
         -3    1    6    6    0  503  0.42592838576E+03 -0.87387215308E+02  0.90375725994E+02  0.44409378181E+03  0.00000000000E+00 0.  1.
<mgrwt>
<rscale>  0 0.13355614E+04</rscale>
<asrwt>0</asrwt>
<pdfrwt beam="1">  1        2 0.17988797E+00 0.13355614E+04</pdfrwt>
<pdfrwt beam="2">  1       -1 0.58673076E-01 0.13355614E+04</pdfrwt>
<totfact> 0.64864646E+01</totfact>
</mgrwt>
</event>
<event>
12    6  0.1529770E-007  0.1695132E+04  0.7818608E-02  0.8764145E-01
          2   -1    0    0  501    0  0.00000000000E+00  0.00000000000E+00  0.91078226871E+03  0.91078226871E+03  0.00000000000E+00 0. -1.
         -1   -1    0    0    0  501 -0.00000000000E+00 -0.00000000000E+00 -0.78873792365E+03  0.78873792365E+03  0.00000000000E+00 0.  1.
         24    2    1    2    0    0 -0.50432010655E+03 -0.25320086931E+03 -0.17011524912E+03  0.59593632710E+03  0.88042364108E+02 0.  0.
        254    2    1    2    0    0  0.50432010655E+03  0.25320086931E+03  0.29215959418E+03  0.11035838653E+04  0.90226973190E+03 0.  0.
         23    2    4    4    0    0  0.86639851571E+02  0.25175650179E+03  0.54053491352E+03  0.60932158666E+03  0.90592511657E+02 0.  0.
         23    2    4    4    0    0  0.41768025498E+03  0.14443675243E+01 -0.24837531934E+03  0.49426227860E+03  0.90255300071E+02 0.  0.
          2    1    3    3  502    0 -0.34459872448E+02 -0.40897363316E+02 -0.16182778567E+01  0.53504167675E+02  0.00000000000E+00 0. -1.
         -1    1    3    3    0  502 -0.46986023410E+03 -0.21230350600E+03 -0.16849697127E+03  0.54243215942E+03  0.00000000000E+00 0.  1.
         11    1    5    5    0    0  0.34997277883E+02  0.16433593557E+02  0.99946851656E+02  0.10716457256E+03  0.00000000000E+00 0. -1.
        -11    1    5    5    0    0  0.51642573689E+02  0.23532290823E+03  0.44058806186E+03  0.50215701410E+03  0.00000000000E+00 0.  1.
          1    1    6    6  503    0  0.56355719777E+02 -0.27162393645E+02 -0.19231995648E+02  0.65449464755E+02  0.00000000000E+00 0. -1.
         -1    1    6    6    0  503  0.36132453520E+03  0.28606761169E+02 -0.22914332369E+03  0.42881281384E+03  0.00000000000E+00 0.  1.
<mgrwt>
<rscale>  0 0.16951325E+04</rscale>
<asrwt>0</asrwt>
<pdfrwt beam="1">  1        2 0.14012035E+00 0.16951325E+04</pdfrwt>
<pdfrwt beam="2">  1       -1 0.12134430E+00 0.16951325E+04</pdfrwt>
<totfact> 0.18870938E+01</totfact>
</mgrwt>
</event>
<event>
12    6  0.1529770E-007  0.1964092E+04  0.7818608E-02  0.8623595E-01
         -1   -1    0    0    0  501 -0.00000000000E+00  0.00000000000E+00  0.17342024216E+04  0.17342024216E+04  0.00000000000E+00 0.  1.
          2   -1    0    0  501    0  0.00000000000E+00 -0.00000000000E+00 -0.55611422406E+03  0.55611422406E+03  0.00000000000E+00 0. -1.
         24    2    1    2    0    0  0.75953747905E+03  0.88926604131E+02  0.64830033163E+03  0.10057157062E+04  0.79784953205E+02 0.  0.
        254    2    1    2    0    0 -0.75953747905E+03 -0.88926604131E+02  0.52978786592E+03  0.12846009394E+04  0.88584381678E+03 0.  0.
         23    2    4    4    0    0 -0.54873527277E+03 -0.27188583413E+03 -0.64979200728E+02  0.62219378946E+03  0.88715887697E+02 0.  0.
         23    2    4    4    0    0 -0.21080220628E+03  0.18295923000E+03  0.59476706665E+03  0.66240714998E+03  0.84402125329E+02 0.  0.
          4    1    3    3  502    0  0.71978867043E+03  0.66858446024E+02  0.60075927851E+03  0.93993483423E+03  0.00000000000E+00 0. -1.
         -3    1    3    3    0  502  0.39748808617E+02  0.22068158107E+02  0.47541053116E+02  0.65780871993E+02  0.00000000000E+00 0.  1.
         11    1    5    5    0    0 -0.50050708588E+03 -0.24366031384E+03 -0.84412903481E+02  0.56303039867E+03  0.00000000000E+00 0. -1.
        -11    1    5    5    0    0 -0.48228186886E+02 -0.28225520294E+02  0.19433702752E+02  0.59163390782E+02  0.00000000000E+00 0.  1.
          3    1    6    6  503    0 -0.19092261903E+03  0.18044998921E+03  0.58227683430E+03  0.63879570820E+03  0.00000000000E+00 0. -1.
         -3    1    6    6    0  503 -0.19879587248E+02  0.25092407880E+01  0.12490232356E+02  0.23611441777E+02  0.00000000000E+00 0.  1.
<mgrwt>
<rscale>  0 0.19640923E+04</rscale>
<asrwt>0</asrwt>
<pdfrwt beam="1">  1        2 0.85556035E-01 0.19640923E+04</pdfrwt>
<pdfrwt beam="2">  1       -1 0.26680037E+00 0.19640923E+04</pdfrwt>
<totfact> 0.31346607E+00</totfact>
</mgrwt>
</event>
<event>
12    6  0.1669157E-007  0.1998971E+04  0.7818608E-02  0.8607102E-01
         -1   -1    0    0    0  501 -0.00000000000E+00  0.00000000000E+00  0.36862752188E+03  0.36862752188E+03  0.00000000000E+00 0.  1.
          2   -1    0    0  501    0  0.00000000000E+00 -0.00000000000E+00 -0.27099737397E+04  0.27099737397E+04  0.00000000000E+00 0. -1.
         24    2    1    2    0    0  0.25323496286E+03 -0.33441605948E+03 -0.19711181125E+04  0.20169057696E+04  0.81487561650E+02 0.  0.
        254    2    1    2    0    0 -0.25323496286E+03  0.33441605948E+03 -0.37022810529E+03  0.10616954920E+04  0.90231170916E+03 0.  0.
         23    2    4    4    0    0  0.13222083712E+03 -0.11486576890E+03  0.16452676935E+03  0.25869536036E+03  0.95800506295E+02 0.  0.
         23    2    4    4    0    0 -0.38545579999E+03  0.44928182838E+03 -0.53475487464E+03  0.80300013162E+03  0.91739306562E+02 0.  0.
          2    1    3    3  502    0  0.21061964948E+03 -0.31846789812E+03 -0.17637186761E+04  0.18045736359E+04  0.00000000000E+00 0. -1.
         -1    1    3    3    0  502  0.42615313385E+02 -0.15948161359E+02 -0.20739943642E+03  0.21233213373E+03  0.00000000000E+00 0.  1.
         11    1    5    5    0    0  0.13138811060E+02 -0.36121657904E+02 -0.30429763430E+01  0.38557259120E+02  0.00000000000E+00 0. -1.
        -11    1    5    5    0    0  0.11908202606E+03 -0.78744110997E+02  0.16756974569E+03  0.22013810124E+03  0.00000000000E+00 0.  1.
          3    1    6    6  503    0 -0.84436195137E+02  0.93033259721E+02 -0.66710877565E+02  0.14224977908E+03  0.00000000000E+00 0. -1.
         -3    1    6    6    0  503 -0.30101960485E+03  0.35624856866E+03 -0.46804399707E+03  0.66075035253E+03  0.00000000000E+00 0.  1.
<mgrwt>
<rscale>  0 0.19989706E+04</rscale>
<asrwt>0</asrwt>
<pdfrwt beam="1">  1        2 0.41691903E+00 0.19989706E+04</pdfrwt>
<pdfrwt beam="2">  1       -1 0.56711928E-01 0.19989706E+04</pdfrwt>
<totfact> 0.87289992E+00</totfact>
</mgrwt>
</event>
<event>
12    6  0.1529770E-007  0.2120990E+04  0.7818608E-02  0.8552053E-01
          2   -1    0    0  501    0  0.00000000000E+00  0.00000000000E+00  0.13489404881E+04  0.13489404881E+04  0.00000000000E+00 0. -1.
         -1   -1    0    0    0  501 -0.00000000000E+00 -0.00000000000E+00 -0.83372789946E+03  0.83372789946E+03  0.00000000000E+00 0.  1.
         24    2    1    2    0    0  0.80136354490E+03  0.96699629492E+02  0.54212546724E+03  0.97556201889E+03  0.79289854576E+02 0.  0.
        254    2    1    2    0    0 -0.80136354490E+03 -0.96699629492E+02 -0.26912878622E+02  0.12071063686E+04  0.89713272861E+03 0.  0.
         23    2    4    4    0    0 -0.76958984039E+03 -0.32869053491E+03  0.20385922096E+03  0.86598630615E+03  0.89820433566E+02 0.  0.
         23    2    4    4    0    0 -0.31773704505E+02  0.23199090542E+03 -0.23077209958E+03  0.34112006250E+03  0.90982342215E+02 0.  0.
          2    1    3    3  502    0  0.78667941787E+03  0.87654576359E+02  0.53996565952E+03  0.95818095615E+03  0.00000000000E+00 0. -1.
         -1    1    3    3    0  502  0.14684127026E+02  0.90450531322E+01  0.21598077133E+01  0.17381062742E+02  0.00000000000E+00 0.  1.
         11    1    5    5    0    0 -0.60032881861E+03 -0.27688788544E+03  0.12789394345E+03  0.67336353653E+03  0.00000000000E+00 0.  1.
        -11    1    5    5    0    0 -0.16926102179E+03 -0.51802649472E+02  0.75965277513E+02  0.19262276962E+03  0.00000000000E+00 0. -1.
          2    1    6    6  503    0 -0.19934233416E+02  0.33011396302E+01 -0.82793943013E+01  0.21836198267E+02  0.00000000000E+00 0. -1.
         -2    1    6    6    0  503 -0.11839471089E+02  0.22868976579E+03 -0.22249270528E+03  0.31928386423E+03  0.00000000000E+00 0.  1.
<mgrwt>
<rscale>  0 0.21209897E+04</rscale>
<asrwt>0</asrwt>
<pdfrwt beam="1">  1        2 0.20752931E+00 0.21209897E+04</pdfrwt>
<pdfrwt beam="2">  1       -1 0.12826583E+00 0.21209897E+04</pdfrwt>
<totfact> 0.85173401E+00</totfact>
</mgrwt>
</event>
<event>
12    6  0.1529770E-007  0.1535764E+04  0.7818608E-02  0.8861012E-01
          2   -1    0    0  501    0  0.00000000000E+00  0.00000000000E+00  0.75958142788E+03  0.75958142788E+03  0.00000000000E+00 0. -1.
         -1   -1    0    0    0  501 -0.00000000000E+00 -0.00000000000E+00 -0.77627343483E+03  0.77627343483E+03  0.00000000000E+00 0.  1.
         24    2    1    2    0    0  0.13081157386E+03  0.40508029908E+03 -0.26738085856E+03  0.50879676785E+03  0.78612409313E+02 0.  0.
        254    2    1    2    0    0 -0.13081157386E+03 -0.40508029908E+03  0.25068885161E+03  0.10270580949E+04  0.90044528614E+03 0.  0.
         23    2    4    4    0    0 -0.27738474813E+03  0.52276760016E+02  0.41553362160E+03  0.51139303093E+03  0.95809619939E+02 0.  0.
         23    2    4    4    0    0  0.14657317427E+03 -0.45735705909E+03 -0.16484476999E+03  0.51566506392E+03  0.89874829830E+02 0.  0.
          2    1    3    3  502    0  0.11792869933E+03  0.34763954387E+03 -0.19557477968E+03  0.41594461775E+03  0.00000000000E+00 0. -1.
         -1    1    3    3    0  502  0.12882874529E+02  0.57440755211E+02 -0.71806078881E+02  0.92852150107E+02  0.00000000000E+00 0.  1.
         11    1    5    5    0    0 -0.19704183163E+03  0.41867486563E+02  0.36204875211E+03  0.41431590453E+03  0.00000000000E+00 0.  1.
        -11    1    5    5    0    0 -0.80342916505E+02  0.10409273453E+02  0.53484869489E+02  0.97077126403E+02  0.00000000000E+00 0. -1.
          4    1    6    6  503    0  0.10780275618E+03 -0.19209454761E+03 -0.66163878035E+02  0.22999871352E+03  0.00000000000E+00 0. -1.
         -4    1    6    6    0  503  0.38770418091E+02 -0.26526251148E+03 -0.98680891952E+02  0.28566635040E+03  0.00000000000E+00 0.  1.
<mgrwt>
<rscale>  0 0.15357642E+04</rscale>
<asrwt>0</asrwt>
<pdfrwt beam="1">  1        2 0.11685868E+00 0.15357642E+04</pdfrwt>
<pdfrwt beam="2">  1       -1 0.11942668E+00 0.15357642E+04</pdfrwt>
<totfact> 0.25429334E+01</totfact>
</mgrwt>
</event>
<event>
12    6  0.1529770E-007  0.1985493E+04  0.7818608E-02  0.8613433E-01
         -1   -1    0    0    0  501 -0.00000000000E+00  0.00000000000E+00  0.71473741376E+03  0.71473741376E+03  0.00000000000E+00 0.  1.
          2   -1    0    0  501    0  0.00000000000E+00 -0.00000000000E+00 -0.13788916921E+04  0.13788916921E+04  0.00000000000E+00 0. -1.
         24    2    1    2    0    0  0.74318047652E+03 -0.16431191884E+03 -0.70283369588E+02  0.76851671592E+03  0.79765677111E+02 0.  0.
        254    2    1    2    0    0 -0.74318047652E+03  0.16431191884E+03 -0.59387090878E+03  0.13251123900E+04  0.90770290425E+03 0.  0.
         23    2    4    4    0    0 -0.84655058001E+03 -0.12755412193E+03 -0.43379063561E+03  0.96430453583E+03  0.93760246129E+02 0.  0.
         23    2    4    4    0    0  0.10337010349E+03  0.29186604077E+03 -0.16008027317E+03  0.36080785413E+03  0.93195760061E+02 0.  0.
          4    1    3    3  502    0  0.36507499485E+02 -0.10241903771E+02 -0.21527599460E+02  0.43601968419E+02  0.00000000000E+00 0. -1.
         -3    1    3    3    0  502  0.70667297704E+03 -0.15407001507E+03 -0.48755770128E+02  0.72491474750E+03  0.00000000000E+00 0.  1.
         11    1    5    5    0    0 -0.51145057728E+03 -0.69194898055E+02 -0.21031615294E+03  0.55731724458E+03  0.00000000000E+00 0.  1.
        -11    1    5    5    0    0 -0.33510000273E+03 -0.58359223871E+02 -0.22347448267E+03  0.40698729126E+03  0.00000000000E+00 0. -1.
          3    1    6    6  503    0  0.33853467466E+02  0.15757161325E+03 -0.35859921507E+02  0.16510846294E+03  0.00000000000E+00 0. -1.
         -3    1    6    6    0  503  0.69516636021E+02  0.13429442752E+03 -0.12422035166E+03  0.19569939119E+03  0.00000000000E+00 0.  1.
<mgrwt>
<rscale>  0 0.19854929E+04</rscale>
<asrwt>0</asrwt>
<pdfrwt beam="1">  1        2 0.21213718E+00 0.19854929E+04</pdfrwt>
<pdfrwt beam="2">  1       -1 0.10995960E+00 0.19854929E+04</pdfrwt>
<totfact> 0.12049524E+01</totfact>
</mgrwt>
</event>
<event>
12    6  0.1529770E-007  0.1973472E+04  0.7818608E-02  0.8619125E-01
          2   -1    0    0  501    0  0.00000000000E+00  0.00000000000E+00  0.31838852376E+04  0.31838852376E+04  0.00000000000E+00 0. -1.
         -1   -1    0    0    0  501 -0.00000000000E+00 -0.00000000000E+00 -0.30580499108E+03  0.30580499108E+03  0.00000000000E+00 0.  1.
         24    2    1    2    0    0  0.32279458775E+03  0.47424554161E+03  0.20713556614E+04  0.21509931303E+04  0.84569444111E+02 0.  0.
        254    2    1    2    0    0 -0.32279458775E+03 -0.47424554161E+03  0.80672458513E+03  0.13386970984E+04  0.90122149631E+03 0.  0.
         23    2    4    4    0    0 -0.19724558206E+03 -0.56456983551E+03  0.10425277929E+03  0.61425837756E+03  0.93807215085E+02 0.  0.
         23    2    4    4    0    0 -0.12554900569E+03  0.90324293895E+02  0.70247180584E+03  0.72443872085E+03  0.86161426204E+02 0.  0.
          2    1    3    3  502    0  0.26112979985E+03  0.37916273148E+03  0.15236362686E+04  0.15916722742E+04  0.00000000000E+00 0. -1.
         -1    1    3    3    0  502  0.61664787893E+02  0.95082810131E+02  0.54771939279E+03  0.55932085611E+03  0.00000000000E+00 0.  1.
         11    1    5    5    0    0  0.78959120775E+01 -0.53025264909E+01  0.60626516170E-01  0.95113558600E+01  0.00000000000E+00 0. -1.
        -11    1    5    5    0    0 -0.20514149413E+03 -0.55926730902E+03  0.10419215277E+03  0.60474702170E+03  0.00000000000E+00 0.  1.
          4    1    6    6  503    0 -0.25224352915E+02  0.43262339266E+02  0.38371396844E+03  0.38696809630E+03  0.00000000000E+00 0.  1.
         -4    1    6    6    0  503 -0.10032465278E+03  0.47061954629E+02  0.31875783741E+03  0.33747062455E+03  0.00000000000E+00 0. -1.
<mgrwt>
<rscale>  0 0.19734721E+04</rscale>
<asrwt>0</asrwt>
<pdfrwt beam="1">  1        2 0.48982848E+00 0.19734721E+04</pdfrwt>
<pdfrwt beam="2">  1       -1 0.47046924E-01 0.19734721E+04</pdfrwt>
<totfact> 0.63656920E+00</totfact>
</mgrwt>
</event>
<event>
12    6  0.1529770E-007  0.1435260E+04  0.7818608E-02  0.8928683E-01
         -1   -1    0    0    0  501 -0.00000000000E+00  0.00000000000E+00  0.82566397132E+03  0.82566397132E+03  0.00000000000E+00 0.  1.
          2   -1    0    0  501    0  0.00000000000E+00 -0.00000000000E+00 -0.62373204202E+03  0.62373204202E+03  0.00000000000E+00 0. -1.
         24    2    1    2    0    0  0.40612965702E+03 -0.13254619151E+03  0.58787356072E+02  0.43942323948E+03  0.84421792018E+02 0.  0.
        254    2    1    2    0    0 -0.40612965702E+03  0.13254619151E+03  0.14314457323E+03  0.10099727739E+04  0.90390532906E+03 0.  0.
         23    2    4    4    0    0 -0.29637486083E+03  0.24141165976E+03 -0.32525584769E+03  0.50897544546E+03  0.84539872401E+02 0.  0.
         23    2    4    4    0    0 -0.10975479619E+03 -0.10886546825E+03  0.46840042092E+03  0.50099732840E+03  0.87758551071E+02 0.  0.
          4    1    3    3  502    0  0.13785088658E+03 -0.26970964132E+02 -0.16554189407E+02  0.14143670324E+03  0.00000000000E+00 0. -1.
         -3    1    3    3    0  502  0.26827877044E+03 -0.10557522738E+03  0.75341545479E+02  0.29798653624E+03  0.00000000000E+00 0.  1.
         11    1    5    5    0    0 -0.23675198020E+03  0.14637814830E+03 -0.24755234624E+03  0.37250533763E+03  0.00000000000E+00 0. -1.
        -11    1    5    5    0    0 -0.59622880630E+02  0.95033511468E+02 -0.77703501444E+02  0.13647010784E+03  0.00000000000E+00 0.  1.
          3    1    6    6  503    0 -0.46300841469E+02 -0.24254070074E+02  0.28093591974E+03  0.28575692264E+03  0.00000000000E+00 0. -1.
         -3    1    6    6    0  503 -0.63453954719E+02 -0.84611398180E+02  0.18746450118E+03  0.21524040576E+03  0.00000000000E+00 0.  1.
<mgrwt>
<rscale>  0 0.14352604E+04</rscale>
<asrwt>0</asrwt>
<pdfrwt beam="1">  1        2 0.95958775E-01 0.14352604E+04</pdfrwt>
<pdfrwt beam="2">  1       -1 0.12702523E+00 0.14352604E+04</pdfrwt>
<totfact> 0.28218636E+01</totfact>
</mgrwt>
</event>
<event>
12    6  0.1529770E-007  0.1350274E+04  0.7818608E-02  0.8990621E-01
         -1   -1    0    0    0  501 -0.00000000000E+00  0.00000000000E+00  0.28756753787E+03  0.28756753787E+03  0.00000000000E+00 0.  1.
          2   -1    0    0  501    0  0.00000000000E+00 -0.00000000000E+00 -0.15850530598E+04  0.15850530598E+04  0.00000000000E+00 0. -1.
         24    2    1    2    0    0  0.43609264665E+02  0.22820814265E+03  0.11071371440E+03  0.26927727652E+03  0.79195964281E+02 0.  0.
        254    2    1    2    0    0 -0.43609264665E+02 -0.22820814265E+03 -0.14081992363E+04  0.16033433212E+04  0.73055047187E+03 0.  0.
         23    2    4    4    0    0 -0.36023069267E+03 -0.20044383386E+03 -0.94062966058E+03  0.10311313793E+04  0.92216486828E+02 0.  0.
         23    2    4    4    0    0  0.31662142801E+03 -0.27764308794E+02 -0.46756957576E+03  0.57221194191E+03  0.88233852733E+02 0.  0.
          4    1    3    3  502    0 -0.11118835079E+02  0.47205016063E+02 -0.30587352462E+01  0.48593187756E+02  0.00000000000E+00 0. -1.
         -3    1    3    3    0  502  0.54728099744E+02  0.18100312659E+03  0.11377244964E+03  0.22068408877E+03  0.00000000000E+00 0.  1.
         11    1    5    5    0    0 -0.79257385884E+02 -0.34519570841E+02 -0.11907611756E+03  0.14714773448E+03  0.00000000000E+00 0. -1.
        -11    1    5    5    0    0 -0.28097330679E+03 -0.16592426302E+03 -0.82155354302E+03  0.88398364478E+03  0.00000000000E+00 0.  1.
          3    1    6    6  503    0  0.85040141519E+01  0.11496382957E+02 -0.48618938378E+02  0.50678262073E+02  0.00000000000E+00 0. -1.
         -3    1    6    6    0  503  0.30811741386E+03 -0.39260691751E+02 -0.41895063739E+03  0.52153367984E+03  0.00000000000E+00 0.  1.
<mgrwt>
<rscale>  0 0.13502738E+04</rscale>
<asrwt>0</asrwt>
<pdfrwt beam="1">  1        2 0.24385432E+00 0.13502738E+04</pdfrwt>
<pdfrwt beam="2">  1       -1 0.44241159E-01 0.13502738E+04</pdfrwt>
<totfact> 0.63953258E+01</totfact>
</mgrwt>
</event>
<event>
12    6  0.1529770E-007  0.2581810E+04  0.7818608E-02  0.8374406E-01
          2   -1    0    0  501    0  0.00000000000E+00  0.00000000000E+00  0.18229453068E+04  0.18229453068E+04  0.00000000000E+00 0. -1.
         -1   -1    0    0    0  501 -0.00000000000E+00 -0.00000000000E+00 -0.91414472385E+03  0.91414472385E+03  0.00000000000E+00 0.  1.
         24    2    1    2    0    0  0.10244486434E+04 -0.56181707826E+02  0.88138005774E+03  0.13547583977E+04  0.76733972636E+02 0.  0.
        254    2    1    2    0    0 -0.10244486434E+04  0.56181707826E+02  0.27420525251E+02  0.13823316330E+04  0.92597918505E+03 0.  0.
         23    2    4    4    0    0 -0.34872019205E+02 -0.20317721508E+03  0.24528378462E+03  0.33242495809E+03  0.88573016827E+02 0.  0.
         23    2    4    4    0    0 -0.98957662422E+03  0.25935892291E+03 -0.21786325937E+03  0.10499066749E+04  0.91162932134E+02 0.  0.
          4    1    3    3  502    0  0.57349535613E+03 -0.47214825103E+02  0.44818247437E+03  0.72937897800E+03  0.00000000000E+00 0. -1.
         -3    1    3    3    0  502  0.45095328729E+03 -0.89668827229E+01  0.43319758337E+03  0.62537941967E+03  0.00000000000E+00 0.  1.
         11    1    5    5    0    0 -0.57046975639E+02 -0.74737222630E+02  0.10427734851E+03  0.14040575233E+03  0.00000000000E+00 0. -1.
        -11    1    5    5    0    0  0.22174956434E+02 -0.12843999245E+03  0.14100643612E+03  0.19201920576E+03  0.00000000000E+00 0.  1.
          3    1    6    6  503    0 -0.30149733325E+02  0.21553685349E+02 -0.18975815842E+02  0.41637115156E+02  0.00000000000E+00 0. -1.
         -3    1    6    6    0  503 -0.95942689090E+03  0.23780523756E+03 -0.19888744353E+03  0.10082695598E+04  0.00000000000E+00 0.  1.
<mgrwt>
<rscale>  0 0.25818101E+04</rscale>
<asrwt>0</asrwt>
<pdfrwt beam="1">  1        2 0.28045312E+00 0.25818101E+04</pdfrwt>
<pdfrwt beam="2">  1       -1 0.14063765E+00 0.25818101E+04</pdfrwt>
<totfact> 0.34995033E+00</totfact>
</mgrwt>
</event>
<event>
12    6  0.1529770E-007  0.2098517E+04  0.7818608E-02  0.8561897E-01
         -1   -1    0    0    0  501 -0.00000000000E+00  0.00000000000E+00  0.51096279542E+03  0.51096279542E+03  0.00000000000E+00 0.  1.
          2   -1    0    0  501    0  0.00000000000E+00 -0.00000000000E+00 -0.21546440954E+04  0.21546440954E+04  0.00000000000E+00 0. -1.
         24    2    1    2    0    0  0.80636775031E+02 -0.15647180300E+03 -0.17216683682E+04  0.17323738107E+04  0.77403717751E+02 0.  0.
        254    2    1    2    0    0 -0.80636775031E+02  0.15647180300E+03  0.77987068186E+02  0.93323308010E+03  0.91315731633E+03 0.  0.
         23    2    4    4    0    0  0.18145734381E+03 -0.20839691411E+03  0.30501382732E+03  0.42183409898E+03  0.92490706406E+02 0.  0.
         23    2    4    4    0    0 -0.26209411884E+03  0.36486871712E+03 -0.22702675914E+03  0.51139898112E+03  0.90361831887E+02 0.  0.
          4    1    3    3  502    0  0.94070578777E+02 -0.15041653691E+03 -0.16066560215E+04  0.16164213497E+04  0.00000000000E+00 0. -1.
         -3    1    3    3    0  502 -0.13433803746E+02 -0.60552660943E+01 -0.11501234664E+03  0.11595246099E+03  0.00000000000E+00 0.  1.
         11    1    5    5    0    0 -0.17122942036E+01 -0.27218220721E+02  0.61722202668E+02  0.67478839593E+02  0.00000000000E+00 0. -1.
        -11    1    5    5    0    0  0.18316963802E+03 -0.18117869339E+03  0.24329162466E+03  0.35435525939E+03  0.00000000000E+00 0.  1.
          3    1    6    6  503    0 -0.14468689307E+03  0.22158810431E+03 -0.84933835172E+02  0.27793765732E+03  0.00000000000E+00 0. -1.
         -3    1    6    6    0  503 -0.11740722577E+03  0.14328061281E+03 -0.14209292396E+03  0.23346132380E+03  0.00000000000E+00 0.  1.
<mgrwt>
<rscale>  0 0.20985166E+04</rscale>
<asrwt>0</asrwt>
<pdfrwt beam="1">  1        2 0.33148371E+00 0.20985166E+04</pdfrwt>
<pdfrwt beam="2">  1       -1 0.78609660E-01 0.20985166E+04</pdfrwt>
<totfact> 0.93017396E+00</totfact>
</mgrwt>
</event>
<event>
12    6  0.1529770E-007  0.1561496E+04  0.7818608E-02  0.8844558E-01
          2   -1    0    0  501    0  0.00000000000E+00  0.00000000000E+00  0.22487545193E+04  0.22487545193E+04  0.00000000000E+00 0. -1.
         -1   -1    0    0    0  501 -0.00000000000E+00 -0.00000000000E+00 -0.27106892737E+03  0.27106892737E+03  0.00000000000E+00 0.  1.
         24    2    1    2    0    0 -0.12733360088E+03 -0.39614308379E+03  0.16645663771E+03  0.45529780350E+03  0.80281310925E+02 0.  0.
        254    2    1    2    0    0  0.12733360088E+03  0.39614308379E+03  0.18112289542E+04  0.20645256431E+04  0.89920666031E+03 0.  0.
         23    2    4    4    0    0 -0.19615331565E+03 -0.20677968586E+03  0.58431700770E+03  0.65691030436E+03  0.94185034706E+02 0.  0.
         23    2    4    4    0    0  0.32348691654E+03  0.60292276965E+03  0.12269119465E+04  0.14076153388E+04  0.88928995286E+02 0.  0.
          4    1    3    3  502    0 -0.10809790718E+03 -0.20708061734E+03  0.97664756111E+02  0.25319151684E+03  0.00000000000E+00 0. -1.
         -3    1    3    3    0  502 -0.19235693709E+02 -0.18906246645E+03  0.68791881597E+02  0.20210628666E+03  0.00000000000E+00 0.  1.
         11    1    5    5    0    0 -0.19191915117E+03 -0.17042443538E+03  0.45377218458E+03  0.52133160681E+03  0.00000000000E+00 0. -1.
        -11    1    5    5    0    0 -0.42341644830E+01 -0.36355250484E+02  0.13054482312E+03  0.13557869756E+03  0.00000000000E+00 0.  1.
          3    1    6    6  503    0  0.32911465342E+03  0.59724473354E+03  0.12145850623E+04  0.13929230418E+04  0.00000000000E+00 0. -1.
         -3    1    6    6    0  503 -0.56277368839E+01  0.56780361058E+01  0.12326884145E+02  0.14692296934E+02  0.00000000000E+00 0.  1.
<mgrwt>
<rscale>  0 0.15614960E+04</rscale>
<asrwt>0</asrwt>
<pdfrwt beam="1">  1        2 0.34596222E+00 0.15614960E+04</pdfrwt>
<pdfrwt beam="2">  1       -1 0.41702913E-01 0.15614960E+04</pdfrwt>
<totfact> 0.29981786E+01</totfact>
</mgrwt>
</event>
<event>
12    6  0.1529770E-007  0.2022795E+04  0.7818608E-02  0.8596037E-01
         -1   -1    0    0    0  501 -0.00000000000E+00  0.00000000000E+00  0.10994057519E+04  0.10994057519E+04  0.00000000000E+00 0.  1.
          2   -1    0    0  501    0  0.00000000000E+00 -0.00000000000E+00 -0.93043453088E+03  0.93043453088E+03  0.00000000000E+00 0. -1.
         24    2    1    2    0    0 -0.23960630249E+03 -0.50319417685E+03  0.61183342064E+03  0.83093080137E+03  0.74096573806E+02 0.  0.
        254    2    1    2    0    0  0.23960630249E+03  0.50319417685E+03 -0.44286219965E+03  0.11989094814E+04  0.96469759865E+03 0.  0.
         23    2    4    4    0    0  0.42637812873E+03  0.37943119119E+03 -0.65768986730E+03  0.87572071642E+03  0.92544443998E+02 0.  0.
         23    2    4    4    0    0 -0.18677182623E+03  0.12376298566E+03  0.21482766765E+03  0.32318876496E+03  0.89994773811E+02 0.  0.
          2    1    3    3  502    0 -0.23737517840E+02 -0.11429697003E+03  0.14452747713E+03  0.18578336512E+03  0.00000000000E+00 0. -1.
         -1    1    3    3    0  502 -0.21586878466E+03 -0.38889720682E+03  0.46730594351E+03  0.64514743625E+03  0.00000000000E+00 0.  1.
         11    1    5    5    0    0  0.20391069359E+02  0.53920941502E+02 -0.58901323718E+02  0.82417410647E+02  0.00000000000E+00 0. -1.
        -11    1    5    5    0    0  0.40598705937E+03  0.32551024969E+03 -0.59878854358E+03  0.79330330577E+03  0.00000000000E+00 0.  1.
          1    1    6    6  503    0  0.59135069780E+01 -0.24345353877E+01 -0.21543569325E+01  0.67481687238E+01  0.00000000000E+00 0. -1.
         -1    1    6    6    0  503 -0.19268533321E+03  0.12619752105E+03  0.21698202458E+03  0.31644059623E+03  0.00000000000E+00 0.  1.
<mgrwt>
<rscale>  0 0.20227952E+04</rscale>
<asrwt>0</asrwt>
<pdfrwt beam="1">  1        2 0.14314377E+00 0.20227952E+04</pdfrwt>
<pdfrwt beam="2">  1       -1 0.16913935E+00 0.20227952E+04</pdfrwt>
<totfact> 0.73893047E+00</totfact>
</mgrwt>
</event>
<event>
12    6  0.1529770E-007  0.1580719E+04  0.7818608E-02  0.8832481E-01
          2   -1    0    0  501    0  0.00000000000E+00  0.00000000000E+00  0.76397032254E+03  0.76397032254E+03  0.00000000000E+00 0. -1.
         -1   -1    0    0    0  501 -0.00000000000E+00 -0.00000000000E+00 -0.81766031187E+03  0.81766031187E+03  0.00000000000E+00 0.  1.
         24    2    1    2    0    0 -0.49639412759E+03 -0.81717112468E+02  0.65653801235E+02  0.51363896330E+03  0.80185700899E+02 0.  0.
        254    2    1    2    0    0  0.49639412759E+03  0.81717112468E+02 -0.11934379057E+03  0.10679916711E+04  0.93449368796E+03 0.  0.
         23    2    4    4    0    0  0.98069034338E+02 -0.34741201188E+02 -0.48567749910E+03  0.50658775144E+03  0.99619426920E+02 0.  0.
         23    2    4    4    0    0  0.39832509325E+03  0.11645831366E+03  0.36633370853E+03  0.56140391967E+03  0.93533717345E+02 0.  0.
          4    1    3    3  502    0 -0.19542998995E+03 -0.23697865318E+02  0.64410725783E+02  0.20713090399E+03  0.00000000000E+00 0. -1.
         -3    1    3    3    0  502 -0.30096413764E+03 -0.58019247150E+02  0.12430754523E+01  0.30650805931E+03  0.00000000000E+00 0.  1.
         11    1    5    5    0    0  0.29735270653E+02 -0.38144070565E+02 -0.68596768605E+02  0.83932550915E+02  0.00000000000E+00 0. -1.
        -11    1    5    5    0    0  0.68333763685E+02  0.34028693767E+01 -0.41708073050E+03  0.42265520052E+03  0.00000000000E+00 0.  1.
          1    1    6    6  503    0  0.75156951827E+02  0.65258918090E+01  0.27117616521E+02  0.80165577386E+02  0.00000000000E+00 0. -1.
         -1    1    6    6    0  503  0.32316814142E+03  0.10993242185E+03  0.33921609201E+03  0.48123834228E+03  0.00000000000E+00 0.  1.
<mgrwt>
<rscale>  0 0.15807191E+04</rscale>
<asrwt>0</asrwt>
<pdfrwt beam="1">  1        2 0.11753390E+00 0.15807191E+04</pdfrwt>
<pdfrwt beam="2">  1       -1 0.12579389E+00 0.15807191E+04</pdfrwt>
<totfact> 0.22117890E+01</totfact>
</mgrwt>
</event>
<event>
12    6  0.1529770E-007  0.1433277E+04  0.7818608E-02  0.8930077E-01
         -1   -1    0    0    0  501 -0.00000000000E+00  0.00000000000E+00  0.71469189856E+03  0.71469189856E+03  0.00000000000E+00 0.  1.
          2   -1    0    0  501    0  0.00000000000E+00 -0.00000000000E+00 -0.71859075761E+03  0.71859075761E+03  0.00000000000E+00 0. -1.
         24    2    1    2    0    0 -0.30938616736E+03 -0.15463615299E+03  0.25707793310E+03  0.43859106781E+03  0.81491844428E+02 0.  0.
        254    2    1    2    0    0  0.30938616736E+03  0.15463615299E+03 -0.26097679215E+03  0.99469158837E+03  0.89536044673E+03 0.  0.
         23    2    4    4    0    0 -0.21362513277E+03 -0.13004143610E+03 -0.28635638909E+03  0.39178145578E+03  0.94584645014E+02 0.  0.
         23    2    4    4    0    0  0.52301130013E+03  0.28467758909E+03  0.25379596939E+02  0.60291013259E+03  0.90963477521E+02 0.  0.
          4    1    3    3  502    0 -0.15557135172E+03 -0.80753704490E+02  0.18035133894E+03  0.25149594773E+03  0.00000000000E+00 0. -1.
         -3    1    3    3    0  502 -0.15381481564E+03 -0.73882448497E+02  0.76726594152E+02  0.18709512007E+03  0.00000000000E+00 0.  1.
         11    1    5    5    0    0 -0.65776880153E+01 -0.35999571272E+01 -0.58417413356E+02  0.58896687973E+02  0.00000000000E+00 0. -1.
        -11    1    5    5    0    0 -0.20704744475E+03 -0.12644147897E+03 -0.22793897573E+03  0.33288476781E+03  0.00000000000E+00 0.  1.
          1    1    6    6  503    0  0.22403645567E+03  0.81263380393E+02 -0.16452424783E+02  0.23888648506E+03  0.00000000000E+00 0. -1.
         -1    1    6    6    0  503  0.29897484446E+03  0.20341420869E+03  0.41832021722E+02  0.36402364753E+03  0.00000000000E+00 0.  1.
<mgrwt>
<rscale>  0 0.14332774E+04</rscale>
<asrwt>0</asrwt>
<pdfrwt beam="1">  1        2 0.11055242E+00 0.14332774E+04</pdfrwt>
<pdfrwt beam="2">  1       -1 0.10995260E+00 0.14332774E+04</pdfrwt>
<totfact> 0.33584984E+01</totfact>
</mgrwt>
</event>
<event>
12    6  0.1529770E-007  0.1832899E+04  0.7818608E-02  0.8688997E-01
         -1   -1    0    0    0  501 -0.00000000000E+00  0.00000000000E+00  0.52874154592E+03  0.52874154592E+03  0.00000000000E+00 0.  1.
          2   -1    0    0  501    0  0.00000000000E+00 -0.00000000000E+00 -0.15884500864E+04  0.15884500864E+04  0.00000000000E+00 0. -1.
         24    2    1    2    0    0  0.45140332672E+02 -0.45061488146E+03 -0.10089776853E+04  0.11085851334E+04  0.76378056258E+02 0.  0.
        254    2    1    2    0    0 -0.45140332672E+02  0.45061488146E+03 -0.50730855179E+02  0.10086064989E+04  0.89978999161E+03 0.  0.
         23    2    4    4    0    0  0.27164769464E+03 -0.70105255632E+02 -0.22166049364E+03  0.36908266873E+03  0.91550123120E+02 0.  0.
         23    2    4    4    0    0 -0.31678802731E+03  0.52072013710E+03  0.17092963846E+03  0.63952383021E+03  0.90937740664E+02 0.  0.
          4    1    3    3  502    0  0.38606955297E+02 -0.39073126794E+03 -0.80093447859E+03  0.89199633392E+03  0.00000000000E+00 0. -1.
         -3    1    3    3    0  502  0.65333773747E+01 -0.59883613525E+02 -0.20804320672E+03  0.21658879946E+03  0.00000000000E+00 0.  1.
         11    1    5    5    0    0  0.22406478573E+03 -0.34548365649E+02 -0.20899585891E+03  0.30834702336E+03  0.00000000000E+00 0. -1.
        -11    1    5    5    0    0  0.47582908908E+02 -0.35556889983E+02 -0.12664634735E+02  0.60735645369E+02  0.00000000000E+00 0.  1.
          1    1    6    6  503    0 -0.27086963645E+03  0.47450585214E+03  0.17640263421E+03  0.57414636899E+03  0.00000000000E+00 0. -1.
         -1    1    6    6    0  503 -0.45918390861E+02  0.46214284959E+02 -0.54729957525E+01  0.65377461223E+02  0.00000000000E+00 0.  1.
<mgrwt>
<rscale>  0 0.18328989E+04</rscale>
<asrwt>0</asrwt>
<pdfrwt beam="1">  1        2 0.24437693E+00 0.18328989E+04</pdfrwt>
<pdfrwt beam="2">  1       -1 0.81344855E-01 0.18328989E+04</pdfrwt>
<totfact> 0.18277307E+01</totfact>
</mgrwt>
</event>
<event>
12    6  0.1529770E-007  0.1242316E+04  0.7818608E-02  0.9076603E-01
         -1   -1    0    0    0  501 -0.00000000000E+00  0.00000000000E+00  0.11756291444E+04  0.11756291444E+04  0.00000000000E+00 0.  1.
          2   -1    0    0  501    0  0.00000000000E+00 -0.00000000000E+00 -0.32819622810E+03  0.32819622810E+03  0.00000000000E+00 0. -1.
         24    2    1    2    0    0 -0.98971188971E+02  0.53461224832E+02 -0.11470858420E+03  0.17948244447E+03  0.80015559590E+02 0.  0.
        254    2    1    2    0    0  0.98971188971E+02 -0.53461224832E+02  0.96214150050E+03  0.13243429280E+04  0.90305842848E+03 0.  0.
         23    2    4    4    0    0 -0.34831477203E+02 -0.83593583714E+02 -0.15272317422E+03  0.19725482463E+03  0.85930081192E+02 0.  0.
         23    2    4    4    0    0  0.13380266617E+03  0.30132358882E+02  0.11148646747E+04  0.11270881034E+04  0.92699716241E+02 0.  0.
          4    1    3    3  502    0 -0.99155750684E+02  0.22676252902E+02 -0.64046026471E+02  0.12019970402E+03  0.00000000000E+00 0. -1.
         -3    1    3    3    0  502  0.18456171294E+00  0.30784971930E+02 -0.50662557727E+02  0.59282740449E+02  0.00000000000E+00 0.  1.
         11    1    5    5    0    0 -0.37439895253E+02 -0.40720289095E+02 -0.21784728811E+02  0.59451342372E+02  0.00000000000E+00 0. -1.
        -11    1    5    5    0    0  0.26084180503E+01 -0.42873294619E+02 -0.13093844541E+03  0.13780348225E+03  0.00000000000E+00 0.  1.
          2    1    6    6  503    0  0.32646905892E+02 -0.95795204083E+01  0.59574835416E+03  0.59671910407E+03  0.00000000000E+00 0. -1.
         -2    1    6    6    0  503  0.10115576028E+03  0.39711879290E+02  0.51911632056E+03  0.53036899934E+03  0.00000000000E+00 0.  1.
<mgrwt>
<rscale>  0 0.12423157E+04</rscale>
<asrwt>0</asrwt>
<pdfrwt beam="1">  1        2 0.50491728E-01 0.12423157E+04</pdfrwt>
<pdfrwt beam="2">  1       -1 0.18086602E+00 0.12423157E+04</pdfrwt>
<totfact> 0.22960574E+01</totfact>
</mgrwt>
</event>
<event>
12    6  0.1529770E-007  0.2669242E+04  0.7818608E-02  0.8345054E-01
          2   -1    0    0  501    0  0.00000000000E+00  0.00000000000E+00  0.19664936919E+04  0.19664936919E+04  0.00000000000E+00 0. -1.
         -1   -1    0    0    0  501 -0.00000000000E+00 -0.00000000000E+00 -0.90578153471E+03  0.90578153471E+03  0.00000000000E+00 0.  1.
         24    2    1    2    0    0  0.12879737005E+02  0.58324881692E+03  0.15747786134E+04  0.16811536439E+04  0.77490794234E+02 0.  0.
        254    2    1    2    0    0 -0.12879737005E+02 -0.58324881692E+03 -0.51406645618E+03  0.11911215827E+04  0.90230883479E+03 0.  0.
         23    2    4    4    0    0 -0.26411553192E+03 -0.17396388049E+03 -0.60987265006E+03  0.69314892718E+03  0.92143041209E+02 0.  0.
         23    2    4    4    0    0  0.25123579492E+03 -0.40928493644E+03  0.95806193873E+02  0.49797265553E+03  0.90356820567E+02 0.  0.
          2    1    3    3  502    0 -0.61162634176E+01  0.54006517246E+03  0.14752687730E+04  0.15710269736E+04  0.00000000000E+00 0. -1.
         -3    1    3    3    0  502  0.18996000423E+02  0.43183644461E+02  0.99509840441E+02  0.11012667036E+03  0.00000000000E+00 0.  1.
         11    1    5    5    0    0 -0.23772422502E+03 -0.13987621615E+03 -0.57487971225E+03  0.63762437733E+03  0.00000000000E+00 0.  1.
        -11    1    5    5    0    0 -0.26391306899E+02 -0.34087664332E+02 -0.34992937808E+02  0.55524549849E+02  0.00000000000E+00 0. -1.
          2    1    6    6  503    0  0.16391679070E+03 -0.26661269011E+03  0.10588333684E+03  0.33039721824E+03  0.00000000000E+00 0. -1.
         -2    1    6    6    0  503  0.87319004220E+02 -0.14267224632E+03 -0.10077142972E+02  0.16757543728E+03  0.00000000000E+00 0.  1.
<mgrwt>
<rscale>  0 0.26692423E+04</rscale>
<asrwt>0</asrwt>
<pdfrwt beam="1">  1        2 0.30253749E+00 0.26692423E+04</pdfrwt>
<pdfrwt beam="2">  1       -1 0.13935101E+00 0.26692423E+04</pdfrwt>
<totfact> 0.29610950E+00</totfact>
</mgrwt>
</event>
<event>
12    6  0.1529770E-007  0.1181782E+04  0.7818608E-02  0.9128954E-01
          2   -1    0    0  501    0  0.00000000000E+00  0.00000000000E+00  0.15076260349E+04  0.15076260349E+04  0.00000000000E+00 0. -1.
         -1   -1    0    0    0  501 -0.00000000000E+00 -0.00000000000E+00 -0.23159055962E+03  0.23159055962E+03  0.00000000000E+00 0.  1.
         24    2    1    2    0    0 -0.22259370063E+03  0.93905394302E+01  0.10730424093E+03  0.25966986552E+03  0.79234469441E+02 0.  0.
        254    2    1    2    0    0  0.22259370063E+03 -0.93905394302E+01  0.11687312344E+04  0.14795467290E+04  0.87948262483E+03 0.  0.
         23    2    4    4    0    0  0.23645601913E+03  0.37878492647E+03  0.86740047581E+03  0.97965931702E+03  0.89215035121E+02 0.  0.
         23    2    4    4    0    0 -0.13862318504E+02 -0.38817546590E+03  0.30133075855E+03  0.49988741199E+03  0.90635767885E+02 0.  0.
          2    1    3    3  502    0 -0.59555221292E+02 -0.28000877329E+02  0.11198312321E+02  0.66755342207E+02  0.00000000000E+00 0. -1.
         -1    1    3    3    0  502 -0.16303847934E+03  0.37391416759E+02  0.96105928607E+02  0.19291452331E+03  0.00000000000E+00 0.  1.
         11    1    5    5    0    0  0.46534456468E+02  0.32451094137E+02  0.15544166841E+03  0.16547096853E+03  0.00000000000E+00 0. -1.
        -11    1    5    5    0    0  0.18992156266E+03  0.34633383233E+03  0.71195880741E+03  0.81418834849E+03  0.00000000000E+00 0.  1.
          4    1    6    6  503    0 -0.19160769340E+01 -0.51735251334E+02  0.85620552811E+02  0.10005541787E+03  0.00000000000E+00 0. -1.
         -4    1    6    6    0  503 -0.11946241570E+02 -0.33644021456E+03  0.21571020573E+03  0.39983199412E+03  0.00000000000E+00 0.  1.
<mgrwt>
<rscale>  0 0.11817816E+04</rscale>
<asrwt>0</asrwt>
<pdfrwt beam="1">  1        2 0.23194246E+00 0.11817816E+04</pdfrwt>
<pdfrwt beam="2">  1       -1 0.35629318E-01 0.11817816E+04</pdfrwt>
<totfact> 0.10626387E+02</totfact>
</mgrwt>
</event>
<event>
12    6  0.1529770E-007  0.1744296E+04  0.7818608E-02  0.8736497E-01
          2   -1    0    0  501    0  0.00000000000E+00  0.00000000000E+00  0.20682587760E+04  0.20682587760E+04  0.00000000000E+00 0. -1.
         -1   -1    0    0    0  501 -0.00000000000E+00 -0.00000000000E+00 -0.36776914823E+03  0.36776914823E+03  0.00000000000E+00 0.  1.
         24    2    1    2    0    0  0.34661227786E+02  0.24275193062E+03 -0.19501946578E+03  0.32120702354E+03  0.70791661993E+02 0.  0.
        254    2    1    2    0    0 -0.34661227786E+02 -0.24275193062E+03  0.18955090936E+04  0.21148209007E+04  0.90519766778E+03 0.  0.
         23    2    4    4    0    0 -0.40057830840E+03 -0.29911540595E+03  0.74814154000E+03  0.90553190502E+03  0.10168215136E+03 0.  0.
         23    2    4    4    0    0  0.36591708061E+03  0.56363475329E+02  0.11473675536E+04  0.12092889957E+04  0.94103245818E+02 0.  0.
          2    1    3    3  502    0  0.96704631614E+01  0.77278485886E+01  0.31487225008E+01  0.12773094964E+02  0.00000000000E+00 0. -1.
         -1    1    3    3    0  502  0.24990764624E+02  0.23502408203E+03 -0.19816818828E+03  0.30843392858E+03  0.00000000000E+00 0.  1.
         11    1    5    5    0    0 -0.31885692779E+03 -0.18368574453E+03  0.51783497442E+03  0.63526628580E+03  0.00000000000E+00 0. -1.
        -11    1    5    5    0    0 -0.81721380611E+02 -0.11542966142E+03  0.23030656558E+03  0.27026561922E+03  0.00000000000E+00 0.  1.
          3    1    6    6  503    0  0.22210391139E+03  0.50547223384E+02  0.83221799492E+03  0.86282788568E+03  0.00000000000E+00 0. -1.
         -3    1    6    6    0  503  0.14381316922E+03  0.58162519447E+01  0.31514955867E+03  0.34646111003E+03  0.00000000000E+00 0.  1.
<mgrwt>
<rscale>  0 0.17442956E+04</rscale>
<asrwt>0</asrwt>
<pdfrwt beam="1">  1        2 0.31819365E+00 0.17442956E+04</pdfrwt>
<pdfrwt beam="2">  1       -1 0.56579870E-01 0.17442956E+04</pdfrwt>
<totfact> 0.20901596E+01</totfact>
</mgrwt>
</event>
<event>
12    6  0.1529770E-007  0.1621370E+04  0.7818608E-02  0.8807526E-01
         -1   -1    0    0    0  501 -0.00000000000E+00  0.00000000000E+00  0.51377348003E+03  0.51377348003E+03  0.00000000000E+00 0.  1.
          2   -1    0    0  501    0  0.00000000000E+00 -0.00000000000E+00 -0.12791821889E+04  0.12791821889E+04  0.00000000000E+00 0. -1.
         24    2    1    2    0    0  0.23670876888E+03  0.50417039383E+03 -0.29736493930E+03  0.63619418520E+03  0.78091656911E+02 0.  0.
        254    2    1    2    0    0 -0.23670876888E+03 -0.50417039383E+03 -0.46804376952E+03  0.11567614837E+04  0.89934049875E+03 0.  0.
         23    2    4    4    0    0  0.15788418841E+03 -0.11169718415E+02  0.17103621808E+03  0.25385535088E+03  0.10068252935E+03 0.  0.
         23    2    4    4    0    0 -0.39459295729E+03 -0.49300067541E+03 -0.63907998760E+03  0.90290613281E+03  0.89794132351E+02 0.  0.
          4    1    3    3  502    0  0.59970523297E+02  0.65233858808E+02 -0.58088811525E+02  0.10595390518E+03  0.00000000000E+00 0. -1.
         -3    1    3    3    0  502  0.17673824559E+03  0.43893653502E+03 -0.23927612778E+03  0.53024028002E+03  0.00000000000E+00 0.  1.
         11    1    5    5    0    0  0.13012828217E+03 -0.10594426373E+02  0.68122031525E+02  0.14726242857E+03  0.00000000000E+00 0. -1.
        -11    1    5    5    0    0  0.27755906243E+02 -0.57529204183E+00  0.10291418656E+03  0.10659292231E+03  0.00000000000E+00 0.  1.
          1    1    6    6  503    0 -0.26356538795E+03 -0.26422180409E+03 -0.34975406378E+03  0.51147608020E+03  0.00000000000E+00 0. -1.
         -1    1    6    6    0  503 -0.13102756934E+03 -0.22877887132E+03 -0.28932592382E+03  0.39143005261E+03  0.00000000000E+00 0.  1.
<mgrwt>
<rscale>  0 0.16213696E+04</rscale>
<asrwt>0</asrwt>
<pdfrwt beam="1">  1        2 0.19679726E+00 0.16213696E+04</pdfrwt>
<pdfrwt beam="2">  1       -1 0.79042075E-01 0.16213696E+04</pdfrwt>
<totfact> 0.29700412E+01</totfact>
</mgrwt>
</event>
<event>
12    6  0.1529770E-007  0.1473300E+04  0.7818608E-02  0.8902405E-01
         -1   -1    0    0    0  501 -0.00000000000E+00  0.00000000000E+00  0.99031175638E+03  0.99031175638E+03  0.00000000000E+00 0.  1.
          2   -1    0    0  501    0  0.00000000000E+00 -0.00000000000E+00 -0.54796204115E+03  0.54796204115E+03  0.00000000000E+00 0. -1.
         24    2    1    2    0    0  0.23335415272E+03  0.21609198042E+03 -0.20184782140E+03  0.38528828300E+03  0.80960567073E+02 0.  0.
        254    2    1    2    0    0 -0.23335415272E+03 -0.21609198042E+03  0.64419753662E+03  0.11529855145E+04  0.90179555661E+03 0.  0.
         23    2    4    4    0    0  0.21841267035E+02 -0.46653666807E+03  0.84443437529E+02  0.48239803048E+03  0.86276660077E+02 0.  0.
         23    2    4    4    0    0 -0.25519541976E+03  0.25044468765E+03  0.55975409909E+03  0.67058748404E+03  0.92280433832E+02 0.  0.
          4    1    3    3  502    0  0.21099106195E+03  0.15330949799E+03 -0.15015559457E+03  0.30094473409E+03  0.00000000000E+00 0. -1.
         -3    1    3    3    0  502  0.22363090777E+02  0.62782482425E+02 -0.51692226823E+02  0.84343548909E+02  0.00000000000E+00 0.  1.
         11    1    5    5    0    0 -0.21335514228E+02 -0.81085778304E+02 -0.62360299223E+01  0.84077319651E+02  0.00000000000E+00 0. -1.
        -11    1    5    5    0    0  0.43176781263E+02 -0.38545088976E+03  0.90679467451E+02  0.39832071083E+03  0.00000000000E+00 0.  1.
          4    1    6    6  503    0 -0.17823812046E+03  0.11903615596E+03  0.28699233636E+03  0.35819413052E+03  0.00000000000E+00 0. -1.
         -4    1    6    6    0  503 -0.76957299298E+02  0.13140853168E+03  0.27276176274E+03  0.31239335352E+03  0.00000000000E+00 0.  1.
<mgrwt>
<rscale>  0 0.14733000E+04</rscale>
<asrwt>0</asrwt>
<pdfrwt beam="1">  1        2 0.84301852E-01 0.14733000E+04</pdfrwt>
<pdfrwt beam="2">  1       -1 0.15235565E+00 0.14733000E+04</pdfrwt>
<totfact> 0.20466737E+01</totfact>
</mgrwt>
</event>
<event>
12    6  0.1529770E-007  0.1516190E+04  0.7818608E-02  0.8873758E-01
          2   -1    0    0  501    0  0.00000000000E+00  0.00000000000E+00  0.59777582689E+03  0.59777582689E+03  0.00000000000E+00 0. -1.
         -1   -1    0    0    0  501 -0.00000000000E+00 -0.00000000000E+00 -0.96141072143E+03  0.96141072143E+03  0.00000000000E+00 0.  1.
         24    2    1    2    0    0 -0.44152702235E+03  0.20957681289E+03 -0.11008271895E+03  0.50753379227E+03  0.81263726961E+02 0.  0.
        254    2    1    2    0    0  0.44152702235E+03 -0.20957681289E+03 -0.25355217559E+03  0.10516527561E+04  0.89600014599E+03 0.  0.
         23    2    4    4    0    0 -0.14803783065E+03 -0.26537253881E+03 -0.31789248802E+03  0.44911135587E+03  0.91145994813E+02 0.  0.
         23    2    4    4    0    0  0.58956485300E+03  0.55795725923E+02  0.64340312422E+02  0.60254140019E+03  0.90645376189E+02 0.  0.
          2    1    3    3  502    0 -0.12278093249E+03  0.53049702271E+02  0.61418532192E+01  0.13389230992E+03  0.00000000000E+00 0. -1.
         -3    1    3    3    0  502 -0.31874608986E+03  0.15652711062E+03 -0.11622457217E+03  0.37364148235E+03  0.00000000000E+00 0.  1.
         11    1    5    5    0    0 -0.62274396283E+02 -0.13537342131E+03 -0.93318714735E+02  0.17581935658E+03  0.00000000000E+00 0. -1.
        -11    1    5    5    0    0 -0.85763434369E+02 -0.12999911750E+03 -0.22457377328E+03  0.27329199928E+03  0.00000000000E+00 0.  1.
          1    1    6    6  503    0  0.90411969615E+02  0.57903198757E+01 -0.22693087368E+02  0.93396082724E+02  0.00000000000E+00 0. -1.
         -1    1    6    6    0  503  0.49915288338E+03  0.50005406047E+02  0.87033399790E+02  0.50914531747E+03  0.00000000000E+00 0.  1.
<mgrwt>
<rscale>  0 0.15161901E+04</rscale>
<asrwt>0</asrwt>
<pdfrwt beam="1">  1        2 0.91965512E-01 0.15161901E+04</pdfrwt>
<pdfrwt beam="2">  1       -1 0.14790934E+00 0.15161901E+04</pdfrwt>
<totfact> 0.19907060E+01</totfact>
</mgrwt>
</event>
<event>
12    6  0.2437651E-007  0.2551336E+04  0.7818608E-02  0.8384922E-01
          2   -1    0    0  501    0  0.00000000000E+00  0.00000000000E+00  0.34799099018E+04  0.34799099018E+04  0.00000000000E+00 0. -1.
         -1   -1    0    0    0  501 -0.00000000000E+00 -0.00000000000E+00 -0.46763526235E+03  0.46763526235E+03  0.00000000000E+00 0.  1.
         24    2    1    2    0    0 -0.94016308757E+03  0.70636089218E+02  0.40020783446E+03  0.10273212563E+04  0.79539704867E+02 0.  0.
        254    2    1    2    0    0  0.94016308757E+03 -0.70636089218E+02  0.26120668050E+04  0.29202239078E+04  0.90328212071E+03 0.  0.
         23    2    4    4    0    0 -0.40463665444E+02 -0.10373695407E+03  0.11380385086E+04  0.11470658440E+04  0.90717912045E+02 0.  0.
         23    2    4    4    0    0  0.98062675301E+03  0.33100864852E+02  0.14740282964E+04  0.17731580638E+04  0.92766398270E+02 0.  0.
          2    1    3    3  502    0 -0.19086677307E+03  0.11107633965E+02  0.47373090928E+02  0.19697135411E+03  0.00000000000E+00 0. -1.
         -1    1    3    3    0  502 -0.74929631450E+03  0.59528455253E+02  0.35283474353E+03  0.83034990224E+03  0.00000000000E+00 0.  1.
         11    1    5    5    0    0 -0.38824951251E+02 -0.72204924496E+02  0.10557398440E+04  0.10589181017E+04  0.00000000000E+00 0. -1.
        -11    1    5    5    0    0 -0.16387141929E+01 -0.31532029575E+02  0.82298664597E+02  0.88147742273E+02  0.00000000000E+00 0.  1.
          3    1    6    6  503    0  0.87755847459E+03  0.39585955347E+01  0.12892388697E+04  0.15595709057E+04  0.00000000000E+00 0. -1.
         -3    1    6    6    0  503  0.10306827842E+03  0.29142269317E+02  0.18478942675E+03  0.21358715812E+03  0.00000000000E+00 0.  1.
<mgrwt>
<rscale>  0 0.25513358E+04</rscale>
<asrwt>0</asrwt>
<pdfrwt beam="1">  1        2 0.53537074E+00 0.25513358E+04</pdfrwt>
<pdfrwt beam="2">  1       -1 0.71943889E-01 0.25513358E+04</pdfrwt>
<totfact> 0.16549571E+00</totfact>
</mgrwt>
</event>
<event>
12    6  0.1529770E-007  0.1674135E+04  0.7818608E-02  0.8776255E-01
         -1   -1    0    0    0  501 -0.00000000000E+00  0.00000000000E+00  0.52742151012E+03  0.52742151012E+03  0.00000000000E+00 0.  1.
          2   -1    0    0  501    0  0.00000000000E+00 -0.00000000000E+00 -0.13285048104E+04  0.13285048104E+04  0.00000000000E+00 0. -1.
         24    2    1    2    0    0 -0.23731029967E+03  0.27342902941E+03 -0.80744386337E+03  0.88853998693E+03  0.80362325858E+02 0.  0.
        254    2    1    2    0    0  0.23731029967E+03 -0.27342902941E+03  0.63605630403E+01  0.96738633364E+03  0.89705978023E+03 0.  0.
         23    2    4    4    0    0 -0.88320406473E+02  0.25472392952E+03 -0.14768676695E+03  0.32165745625E+03  0.94696164459E+02 0.  0.
         23    2    4    4    0    0  0.32563070615E+03 -0.52815295892E+03  0.15404732999E+03  0.64572887739E+03  0.90853169559E+02 0.  0.
          2    1    3    3  502    0 -0.21347359978E+03  0.20305150044E+03 -0.67877742841E+03  0.73995924682E+03  0.00000000000E+00 0. -1.
         -1    1    3    3    0  502 -0.23836699894E+02  0.70377528963E+02 -0.12866643496E+03  0.14858074010E+03  0.00000000000E+00 0.  1.
         11    1    5    5    0    0  0.12749362939E+02  0.36372248650E+02 -0.47125891813E+02  0.60879687962E+02  0.00000000000E+00 0. -1.
        -11    1    5    5    0    0 -0.10106976941E+03  0.21835168087E+03 -0.10056087513E+03  0.26077776829E+03  0.00000000000E+00 0.  1.
          1    1    6    6  503    0  0.49889614382E+02 -0.31695223378E+02  0.11440849215E+02  0.60203437102E+02  0.00000000000E+00 0. -1.
         -1    1    6    6    0  503  0.27574109176E+03 -0.49645773554E+03  0.14260648077E+03  0.58552544029E+03  0.00000000000E+00 0.  1.
<mgrwt>
<rscale>  0 0.16741350E+04</rscale>
<asrwt>0</asrwt>
<pdfrwt beam="1">  1        2 0.20438535E+00 0.16741350E+04</pdfrwt>
<pdfrwt beam="2">  1       -1 0.81141772E-01 0.16741350E+04</pdfrwt>
<totfact> 0.26173417E+01</totfact>
</mgrwt>
</event>
<event>
12    6  0.1529770E-007  0.1256239E+04  0.7818608E-02  0.9065007E-01
          2   -1    0    0  501    0  0.00000000000E+00  0.00000000000E+00  0.10682598926E+04  0.10682598926E+04  0.00000000000E+00 0. -1.
         -1   -1    0    0    0  501 -0.00000000000E+00 -0.00000000000E+00 -0.36932389638E+03  0.36932389638E+03  0.00000000000E+00 0.  1.
         24    2    1    2    0    0  0.18773884944E+03 -0.93315141033E+02  0.44303595921E+03  0.49692249422E+03  0.81838334348E+02 0.  0.
        254    2    1    2    0    0 -0.18773884944E+03  0.93315141033E+02  0.25590003703E+03  0.94066129479E+03  0.88057098035E+03 0.  0.
         23    2    4    4    0    0  0.22821053064E+03 -0.44220257587E+02  0.39975387868E+03  0.47106701252E+03  0.89808069173E+02 0.  0.
         23    2    4    4    0    0 -0.41594938008E+03  0.13753539862E+03 -0.14385384166E+03  0.46959428226E+03  0.88853753492E+02 0.  0.
          4    1    3    3  502    0  0.16884276428E+03 -0.95269001890E+02  0.43509728261E+03  0.47633360904E+03  0.00000000000E+00 0. -1.
         -3    1    3    3    0  502  0.18896085155E+02  0.19538608569E+01  0.79386766049E+01  0.20588885173E+02  0.00000000000E+00 0.  1.
         11    1    5    5    0    0  0.14595064669E+03 -0.48421550092E+02  0.18205439159E+03  0.23830660771E+03  0.00000000000E+00 0.  1.
        -11    1    5    5    0    0  0.82259883953E+02  0.42012925048E+01  0.21769948710E+03  0.23276040481E+03  0.00000000000E+00 0. -1.
          1    1    6    6  503    0 -0.64971667348E+02 -0.64495343534E+01 -0.38814293916E+02  0.75956984297E+02  0.00000000000E+00 0. -1.
         -1    1    6    6    0  503 -0.35097771274E+03  0.14398493297E+03 -0.10503954774E+03  0.39363729797E+03  0.00000000000E+00 0.  1.
<mgrwt>
<rscale>  0 0.12562387E+04</rscale>
<asrwt>0</asrwt>
<pdfrwt beam="1">  1        2 0.16434767E+00 0.12562387E+04</pdfrwt>
<pdfrwt beam="2">  1       -1 0.56819061E-01 0.12562387E+04</pdfrwt>
<totfact> 0.80147795E+01</totfact>
</mgrwt>
</event>
<event>
12    6  0.1529770E-007  0.2703486E+04  0.7818608E-02  0.8333875E-01
         -1   -1    0    0    0  501 -0.00000000000E+00  0.00000000000E+00  0.57467114734E+03  0.57467114734E+03  0.00000000000E+00 0.  1.
          2   -1    0    0  501    0  0.00000000000E+00 -0.00000000000E+00 -0.31795739988E+04  0.31795739988E+04  0.00000000000E+00 0. -1.
         24    2    1    2    0    0 -0.31178754082E+03 -0.84951772960E+03 -0.63897577663E+02  0.91060719882E+03  0.78934951752E+02 0.  0.
        254    2    1    2    0    0  0.31178754082E+03  0.84951772960E+03 -0.25410052738E+04  0.28436379473E+04  0.90037610499E+03 0.  0.
         23    2    4    4    0    0  0.48868477137E+02 -0.20416656967E+02 -0.12918848630E+04  0.12962227807E+04  0.91771617417E+02 0.  0.
         23    2    4    4    0    0  0.26291906368E+03  0.86993438656E+03 -0.12491204108E+04  0.15474151667E+04  0.90992453006E+02 0.  0.
          2    1    3    3  502    0 -0.15217917546E+02 -0.41591407034E+02  0.14006432704E+02  0.46450084076E+02  0.00000000000E+00 0. -1.
         -1    1    3    3    0  502 -0.29656962327E+03 -0.80792632256E+03 -0.77904010367E+02  0.86415711475E+03  0.00000000000E+00 0.  1.
         11    1    5    5    0    0 -0.21484397410E+02 -0.27344905697E+02 -0.36947643159E+03  0.37110935948E+03  0.00000000000E+00 0. -1.
        -11    1    5    5    0    0  0.70352874547E+02  0.69282487296E+01 -0.92240843146E+03  0.92511342117E+03  0.00000000000E+00 0.  1.
          1    1    6    6  503    0  0.25100146610E+03  0.84321069386E+03 -0.12307634071E+04  0.15128729538E+04  0.00000000000E+00 0. -1.
         -1    1    6    6    0  503  0.11917597578E+02  0.26723692706E+02 -0.18357003667E+02  0.34542212834E+02  0.00000000000E+00 0.  1.
<mgrwt>
<rscale>  0 0.27034862E+04</rscale>
<asrwt>0</asrwt>
<pdfrwt beam="1">  1        2 0.48916523E+00 0.27034862E+04</pdfrwt>
<pdfrwt beam="2">  1       -1 0.88410945E-01 0.27034862E+04</pdfrwt>
<totfact> 0.16744555E+00</totfact>
</mgrwt>
</event>
<event>
12    6  0.1529770E-007  0.1401705E+04  0.7818608E-02  0.8952586E-01
          2   -1    0    0  501    0  0.00000000000E+00  0.00000000000E+00  0.68766211074E+03  0.68766211074E+03  0.00000000000E+00 0. -1.
         -1   -1    0    0    0  501 -0.00000000000E+00 -0.00000000000E+00 -0.71429553642E+03  0.71429553642E+03  0.00000000000E+00 0.  1.
         24    2    1    2    0    0  0.22460885786E+03  0.32140792225E+03  0.86879739970E+02  0.40951895866E+03  0.80034347471E+02 0.  0.
        254    2    1    2    0    0 -0.22460885786E+03 -0.32140792225E+03 -0.11351316565E+03  0.99243868849E+03  0.90459776703E+03 0.  0.
         23    2    4    4    0    0 -0.68562519585E+02  0.20734990780E+03  0.23262346711E+03  0.33507956132E+03  0.10232219510E+03 0.  0.
         23    2    4    4    0    0 -0.15604633827E+03 -0.52875783005E+03 -0.34613663276E+03  0.65735912717E+03  0.91515851186E+02 0.  0.
          4    1    3    3  502    0  0.11573708464E+03  0.14399226933E+03  0.79808600317E+02  0.20124179256E+03  0.00000000000E+00 0. -1.
         -3    1    3    3    0  502  0.10887177321E+03  0.17741565293E+03  0.70711396530E+01  0.20827716611E+03  0.00000000000E+00 0.  1.
         11    1    5    5    0    0 -0.83139090856E+02  0.11098977333E+03  0.16935179428E+03  0.21888551446E+03  0.00000000000E+00 0. -1.
        -11    1    5    5    0    0  0.14576571271E+02  0.96360134462E+02  0.63271672821E+02  0.11619404686E+03  0.00000000000E+00 0.  1.
          1    1    6    6  503    0  0.47715639703E+01 -0.50629809577E+02 -0.11897831296E+02  0.52227424119E+02  0.00000000000E+00 0.  1.
         -1    1    6    6    0  503 -0.16081790224E+03 -0.47812802047E+03 -0.33423880146E+03  0.60513170305E+03  0.00000000000E+00 0. -1.
<mgrwt>
<rscale>  0 0.14017046E+04</rscale>
<asrwt>0</asrwt>
<pdfrwt beam="1">  1        2 0.10579417E+00 0.14017046E+04</pdfrwt>
<pdfrwt beam="2">  1       -1 0.10989162E+00 0.14017046E+04</pdfrwt>
<totfact> 0.35649890E+01</totfact>
</mgrwt>
</event>
<event>
12    6  0.1529770E-007  0.1977274E+04  0.7818608E-02  0.8617320E-01
         -1   -1    0    0    0  501 -0.00000000000E+00  0.00000000000E+00  0.79972227885E+03  0.79972227885E+03  0.00000000000E+00 0.  1.
          2   -1    0    0  501    0  0.00000000000E+00 -0.00000000000E+00 -0.12221781676E+04  0.12221781676E+04  0.00000000000E+00 0. -1.
         24    2    1    2    0    0 -0.32607021563E+03  0.41015646677E+02  0.51302788942E+03  0.61457518410E+03  0.80628610311E+02 0.  0.
        254    2    1    2    0    0  0.32607021563E+03 -0.41015646677E+02 -0.93548377821E+03  0.14073252624E+04  0.99871438664E+03 0.  0.
         23    2    4    4    0    0  0.15563060948E+03 -0.45012017090E+03 -0.79778309365E+03  0.93360509908E+03  0.91277388465E+02 0.  0.
         23    2    4    4    0    0  0.17043960615E+03  0.40910452423E+03 -0.13770068456E+03  0.47372016332E+03  0.95042850960E+02 0.  0.
          2    1    3    3  502    0 -0.11333319511E+03 -0.71719118979E+01  0.23668342151E+03  0.26251645939E+03  0.00000000000E+00 0. -1.
         -1    1    3    3    0  502 -0.21273702052E+03  0.48187558575E+02  0.27634446790E+03  0.35205872470E+03  0.00000000000E+00 0.  1.
         11    1    5    5    0    0 -0.54712210672E+00 -0.10761216816E+03 -0.15470718669E+03  0.18845421644E+03  0.00000000000E+00 0. -1.
        -11    1    5    5    0    0  0.15617773158E+03 -0.34250800274E+03 -0.64307590696E+03  0.74515088264E+03  0.00000000000E+00 0.  1.
          1    1    6    6  503    0 -0.82706220723E+01  0.51659033820E+02 -0.27843513877E+02  0.59264831306E+02  0.00000000000E+00 0. -1.
         -1    1    6    6    0  503  0.17871022822E+03  0.35744549041E+03 -0.10985717069E+03  0.41445533201E+03  0.00000000000E+00 0.  1.
<mgrwt>
<rscale>  0 0.19772740E+04</rscale>
<asrwt>0</asrwt>
<pdfrwt beam="1">  1        2 0.18802741E+00 0.19772740E+04</pdfrwt>
<pdfrwt beam="2">  1       -1 0.12303420E+00 0.19772740E+04</pdfrwt>
<totfact> 0.11350053E+01</totfact>
</mgrwt>
</event>
<event>
12    6  0.1529770E-007  0.2142966E+04  0.7818608E-02  0.8542549E-01
          2   -1    0    0  501    0  0.00000000000E+00  0.00000000000E+00  0.77871578245E+03  0.77871578245E+03  0.00000000000E+00 0. -1.
         -1   -1    0    0    0  501 -0.00000000000E+00 -0.00000000000E+00 -0.14743200041E+04  0.14743200041E+04  0.00000000000E+00 0.  1.
         24    2    1    2    0    0  0.44630407913E+03 -0.30483945296E+03  0.44347381033E+03  0.70389019800E+03  0.81718830515E+02 0.  0.
        254    2    1    2    0    0 -0.44630407913E+03  0.30483945296E+03 -0.11390780320E+04  0.15491455886E+04  0.90013269491E+03 0.  0.
         23    2    4    4    0    0 -0.46739811211E+03  0.18530044004E+03 -0.12796117094E+03  0.52671344409E+03  0.90861117281E+02 0.  0.
         23    2    4    4    0    0  0.21094032981E+02  0.11953901292E+03 -0.10111168611E+04  0.10224321445E+04  0.90970596867E+02 0.  0.
          2    1    3    3  502    0  0.43244551616E+03 -0.27511161195E+03  0.42743086407E+03  0.66737745470E+03  0.00000000000E+00 0. -1.
         -1    1    3    3    0  502  0.13858562965E+02 -0.29727841011E+02  0.16042946262E+02  0.36512743301E+02  0.00000000000E+00 0.  1.
         11    1    5    5    0    0 -0.83011020306E+02  0.43767422190E+02  0.10268921389E+02  0.94402687906E+02  0.00000000000E+00 0. -1.
        -11    1    5    5    0    0 -0.38438709180E+03  0.14153301785E+03 -0.13823009232E+03  0.43231075618E+03  0.00000000000E+00 0.  1.
          1    1    6    6  503    0 -0.34671676799E+02  0.50163208323E+02 -0.48822596610E+03  0.49201937626E+03  0.00000000000E+00 0. -1.
         -1    1    6    6    0  503  0.55765709781E+02  0.69375804598E+02 -0.52289089495E+03  0.53041276820E+03  0.00000000000E+00 0.  1.
<mgrwt>
<rscale>  0 0.21429664E+04</rscale>
<asrwt>0</asrwt>
<pdfrwt beam="1">  1        2 0.11980243E+00 0.21429664E+04</pdfrwt>
<pdfrwt beam="2">  1       -1 0.22681846E+00 0.21429664E+04</pdfrwt>
<totfact> 0.37069928E+00</totfact>
</mgrwt>
</event>
<event>
12    6  0.1529770E-007  0.1577892E+04  0.7818608E-02  0.8834246E-01
         -1   -1    0    0    0  501 -0.00000000000E+00  0.00000000000E+00  0.87765650998E+03  0.87765650998E+03  0.00000000000E+00 0.  1.
          2   -1    0    0  501    0  0.00000000000E+00 -0.00000000000E+00 -0.70920227221E+03  0.70920227221E+03  0.00000000000E+00 0. -1.
         24    2    1    2    0    0 -0.21483184290E+03 -0.27171931758E+03  0.46677597955E+03  0.58658285160E+03  0.78838559299E+02 0.  0.
        254    2    1    2    0    0  0.21483184290E+03  0.27171931758E+03 -0.29832174179E+03  0.10002759306E+04  0.88970330303E+03 0.  0.
         23    2    4    4    0    0  0.23062036038E+03  0.47701398265E+01 -0.56091468368E+03  0.61433806908E+03  0.97864579369E+02 0.  0.
         23    2    4    4    0    0 -0.15788517474E+02  0.26694917776E+03  0.26259294190E+03  0.38593786151E+03  0.92096900195E+02 0.  0.
          2    1    3    3  502    0 -0.11983164123E+03 -0.21048102491E+03  0.31562126668E+03  0.39784251666E+03  0.00000000000E+00 0. -1.
         -1    1    3    3    0  502 -0.95000201677E+02 -0.61238292676E+02  0.15115471287E+03  0.18874033494E+03  0.00000000000E+00 0.  1.
         11    1    5    5    0    0  0.24556940137E+02 -0.30915079111E+02 -0.12027332488E+03  0.12658774863E+03  0.00000000000E+00 0.  1.
        -11    1    5    5    0    0  0.20606342024E+03  0.35685218938E+02 -0.44064135880E+03  0.48775032045E+03  0.00000000000E+00 0. -1.
          4    1    6    6  503    0 -0.29237648483E+02  0.26463797041E+03  0.25981710311E+03  0.37201212687E+03  0.00000000000E+00 0. -1.
         -4    1    6    6    0  503  0.13449131009E+02  0.23112073500E+01  0.27758387835E+01  0.13925734640E+02  0.00000000000E+00 0.  1.
<mgrwt>
<rscale>  0 0.15778923E+04</rscale>
<asrwt>0</asrwt>
<pdfrwt beam="1">  1        2 0.10910804E+00 0.15778923E+04</pdfrwt>
<pdfrwt beam="2">  1       -1 0.13502408E+00 0.15778923E+04</pdfrwt>
<totfact> 0.20358078E+01</totfact>
</mgrwt>
</event>
<event>
12    6  0.1529770E-007  0.2222872E+04  0.7818608E-02  0.8508968E-01
         -1   -1    0    0    0  501 -0.00000000000E+00  0.00000000000E+00  0.23965031434E+04  0.23965031434E+04  0.00000000000E+00 0.  1.
          2   -1    0    0  501    0  0.00000000000E+00 -0.00000000000E+00 -0.51545536688E+03  0.51545536688E+03  0.00000000000E+00 0. -1.
         24    2    1    2    0    0  0.33589437482E+03 -0.77501177170E+03  0.28180784946E+03  0.89398106679E+03  0.79487146526E+02 0.  0.
        254    2    1    2    0    0 -0.33589437482E+03  0.77501177170E+03  0.15992399270E+04  0.20179774435E+04  0.89509571599E+03 0.  0.
         23    2    4    4    0    0 -0.65519717345E+02 -0.44812226680E+02  0.88583648905E+03  0.89417939194E+03  0.92463671808E+02 0.  0.
         23    2    4    4    0    0 -0.27037465747E+03  0.81982399838E+03  0.71340343798E+03  0.11237980515E+04  0.93614911024E+02 0.  0.
          4    1    3    3  502    0  0.20852596214E+03 -0.42435208688E+03  0.12331179357E+03  0.48863439191E+03  0.00000000000E+00 0. -1.
         -3    1    3    3    0  502  0.12736841268E+03 -0.35065968482E+03  0.15849605589E+03  0.40534667488E+03  0.00000000000E+00 0.  1.
         11    1    5    5    0    0 -0.79334049646E+02 -0.32868768257E+02  0.84611121214E+03  0.85045777712E+03  0.00000000000E+00 0.  1.
        -11    1    5    5    0    0  0.13814332301E+02 -0.11943458423E+02  0.39725276914E+02  0.43721614814E+02  0.00000000000E+00 0. -1.
          3    1    6    6  503    0 -0.30777290210E+02  0.72942748593E+02  0.10294500310E+03  0.12986747025E+03  0.00000000000E+00 0. -1.
         -3    1    6    6    0  503 -0.23959736726E+03  0.74688124978E+03  0.61045843488E+03  0.99393058127E+03  0.00000000000E+00 0.  1.
<mgrwt>
<rscale>  0 0.22228724E+04</rscale>
<asrwt>0</asrwt>
<pdfrwt beam="1">  1        2 0.79300827E-01 0.22228724E+04</pdfrwt>
<pdfrwt beam="2">  1       -1 0.36869279E+00 0.22228724E+04</pdfrwt>
<totfact> 0.72246549E-01</totfact>
</mgrwt>
</event>
<event>
12    6  0.1529770E-007  0.1508498E+04  0.7818608E-02  0.8878821E-01
          2   -1    0    0  501    0  0.00000000000E+00  0.00000000000E+00  0.84218973925E+03  0.84218973925E+03  0.00000000000E+00 0. -1.
         -1   -1    0    0    0  501 -0.00000000000E+00 -0.00000000000E+00 -0.67549103432E+03  0.67549103432E+03  0.00000000000E+00 0.  1.
         24    2    1    2    0    0  0.40008730329E+02  0.78728498229E+02 -0.41394373613E+03  0.43078190876E+03  0.80154608745E+02 0.  0.
        254    2    1    2    0    0 -0.40008730329E+02 -0.78728498229E+02  0.58064244105E+03  0.10868988648E+04  0.91455159670E+03 0.  0.
         23    2    4    4    0    0 -0.37567674072E+03  0.67239244318E+02  0.59124406093E+03  0.70972942492E+03  0.92153065687E+02 0.  0.
         23    2    4    4    0    0  0.33566801039E+03 -0.14596774255E+03 -0.10601619874E+02  0.37716943989E+03  0.90359266140E+02 0.  0.
          2    1    3    3  502    0 -0.14102404074E+02  0.44092539120E+01 -0.13814541136E+02  0.20227725219E+02  0.00000000000E+00 0. -1.
         -3    1    3    3    0  502  0.54111134402E+02  0.74319244317E+02 -0.40012919499E+03  0.41055418354E+03  0.00000000000E+00 0.  1.
         11    1    5    5    0    0 -0.28228623344E+03  0.82259087742E+02  0.48776505435E+03  0.56953210915E+03  0.00000000000E+00 0.  1.
        -11    1    5    5    0    0 -0.93390507278E+02 -0.15019843424E+02  0.10347900658E+03  0.14019731577E+03  0.00000000000E+00 0. -1.
          3    1    6    6  503    0  0.75180278877E+02  0.58374394860E+01 -0.59269649929E+01  0.75639136337E+02  0.00000000000E+00 0. -1.
         -3    1    6    6    0  503  0.26048773152E+03 -0.15180518203E+03 -0.46746548810E+01  0.30153030355E+03  0.00000000000E+00 0.  1.
<mgrwt>
<rscale>  0 0.15084981E+04</rscale>
<asrwt>0</asrwt>
<pdfrwt beam="1">  1        2 0.12956765E+00 0.15084981E+04</pdfrwt>
<pdfrwt beam="2">  1       -1 0.10392170E+00 0.15084981E+04</pdfrwt>
<totfact> 0.30905511E+01</totfact>
</mgrwt>
</event>
<event>
12    6  0.1529770E-007  0.1648635E+04  0.7818608E-02  0.8791214E-01
         -1   -1    0    0    0  501 -0.00000000000E+00  0.00000000000E+00  0.64215618082E+03  0.64215618082E+03  0.00000000000E+00 0.  1.
          2   -1    0    0  501    0  0.00000000000E+00 -0.00000000000E+00 -0.10581534084E+04  0.10581534084E+04  0.00000000000E+00 0. -1.
         24    2    1    2    0    0  0.24917521239E+03  0.51872394144E+03 -0.10371357998E+03  0.59020517419E+03  0.80142542278E+02 0.  0.
        254    2    1    2    0    0 -0.24917521239E+03 -0.51872394144E+03 -0.31228364764E+03  0.11101044151E+04  0.89646412192E+03 0.  0.
         23    2    4    4    0    0 -0.43514819873E+03 -0.39697181312E+03  0.12744115417E+03  0.60965879638E+03  0.92206425788E+02 0.  0.
         23    2    4    4    0    0  0.18597298634E+03 -0.12175212832E+03 -0.43972480181E+03  0.50044561869E+03  0.87626386131E+02 0.  0.
          4    1    3    3  502    0  0.70922326160E+02  0.18430534267E+03 -0.70924984875E+02  0.20983038189E+03  0.00000000000E+00 0. -1.
         -3    1    3    3    0  502  0.17825288623E+03  0.33441859876E+03 -0.32788595103E+02  0.38037479230E+03  0.00000000000E+00 0.  1.
         11    1    5    5    0    0 -0.18897171998E+03 -0.13530171585E+03  0.13714766560E+02  0.23281958699E+03  0.00000000000E+00 0. -1.
        -11    1    5    5    0    0 -0.24617647875E+03 -0.26167009726E+03  0.11372638761E+03  0.37683920938E+03  0.00000000000E+00 0.  1.
          4    1    6    6  503    0  0.11174815304E+03 -0.75287568035E+02 -0.17036987009E+03  0.21721362813E+03  0.00000000000E+00 0. -1.
         -4    1    6    6    0  503  0.74224833296E+02 -0.46464560285E+02 -0.26935493172E+03  0.28323199057E+03  0.00000000000E+00 0.  1.
<mgrwt>
<rscale>  0 0.16486355E+04</rscale>
<asrwt>0</asrwt>
<pdfrwt beam="1">  1        2 0.16279283E+00 0.16486355E+04</pdfrwt>
<pdfrwt beam="2">  1       -1 0.98793260E-01 0.16486355E+04</pdfrwt>
<totfact> 0.24709582E+01</totfact>
</mgrwt>
</event>
<event>
12    6  0.1529770E-007  0.2229770E+04  0.7818608E-02  0.8506138E-01
         -1   -1    0    0    0  501 -0.00000000000E+00  0.00000000000E+00  0.10374346175E+04  0.10374346175E+04  0.00000000000E+00 0.  1.
          2   -1    0    0  501    0  0.00000000000E+00 -0.00000000000E+00 -0.11981173633E+04  0.11981173633E+04  0.00000000000E+00 0. -1.
         24    2    1    2    0    0 -0.69316590508E+03 -0.61109633441E+03  0.19494382803E+02  0.92695605077E+03  0.70354724000E+02 0.  0.
        254    2    1    2    0    0  0.69316590508E+03  0.61109633441E+03 -0.18017712857E+03  0.13085959300E+04  0.90886842203E+03 0.  0.
         23    2    4    4    0    0 -0.18264389191E+03 -0.14388932651E+02 -0.90801555903E+02  0.22472564123E+03  0.93224774793E+02 0.  0.
         23    2    4    4    0    0  0.87580979699E+03  0.62548526707E+03 -0.89375572667E+02  0.10838702888E+04  0.92261531295E+02 0.  0.
          4    1    3    3  502    0 -0.17628714654E+03 -0.16663868951E+03  0.34957699327E+02  0.24508702867E+03  0.00000000000E+00 0. -1.
         -3    1    3    3    0  502 -0.51687875854E+03 -0.44445764490E+03 -0.15463316524E+02  0.68186902210E+03  0.00000000000E+00 0.  1.
         11    1    5    5    0    0 -0.16979038204E+03  0.48174441050E+01 -0.10294454185E+03  0.19861913377E+03  0.00000000000E+00 0. -1.
        -11    1    5    5    0    0 -0.12853509872E+02 -0.19206376756E+02  0.12142985948E+02  0.26106507462E+02  0.00000000000E+00 0.  1.
          4    1    6    6  503    0  0.54271357249E+03  0.34552013911E+03 -0.82992912992E+02  0.64869870657E+03  0.00000000000E+00 0. -1.
         -4    1    6    6    0  503  0.33309622450E+03  0.27996512796E+03 -0.63826596754E+01  0.43517158224E+03  0.00000000000E+00 0.  1.
<mgrwt>
<rscale>  0 0.22297699E+04</rscale>
<asrwt>0</asrwt>
<pdfrwt beam="1">  1        2 0.18432575E+00 0.22297699E+04</pdfrwt>
<pdfrwt beam="2">  1       -1 0.15960533E+00 0.22297699E+04</pdfrwt>
<totfact> 0.58087076E+00</totfact>
</mgrwt>
</event>
<event>
12    6  0.1529770E-007  0.1638867E+04  0.7818608E-02  0.8797020E-01
          2   -1    0    0  501    0  0.00000000000E+00  0.00000000000E+00  0.83664622940E+03  0.83664622940E+03  0.00000000000E+00 0. -1.
         -1   -1    0    0    0  501 -0.00000000000E+00 -0.00000000000E+00 -0.80257442880E+03  0.80257442880E+03  0.00000000000E+00 0.  1.
         24    2    1    2    0    0  0.33278951026E+03  0.39120141828E+03  0.26942413995E+03  0.58639610876E+03  0.86507926652E+02 0.  0.
        254    2    1    2    0    0 -0.33278951026E+03 -0.39120141828E+03 -0.23535233935E+03  0.10528245494E+04  0.88840384987E+03 0.  0.
         23    2    4    4    0    0 -0.36544566244E+03 -0.40886845007E+02  0.24351131400E+03  0.45085862165E+03  0.93559982829E+02 0.  0.
         23    2    4    4    0    0  0.32656152171E+02 -0.35031457328E+03 -0.47886365334E+03  0.60196592779E+03  0.96259312268E+02 0.  0.
          4    1    3    3  502    0  0.93532216045E+02  0.88285940784E+02  0.10818011315E+03  0.16806433191E+03  0.00000000000E+00 0. -1.
         -3    1    3    3    0  502  0.23925729422E+03  0.30291547750E+03  0.16124402680E+03  0.41833177685E+03  0.00000000000E+00 0.  1.
         11    1    5    5    0    0 -0.17292924254E+03 -0.66127829090E+02  0.11283496351E+03  0.21681591661E+03  0.00000000000E+00 0. -1.
        -11    1    5    5    0    0 -0.19251641990E+03  0.25240984083E+02  0.13067635049E+03  0.23404270505E+03  0.00000000000E+00 0.  1.
          1    1    6    6  503    0 -0.72741183613E+01 -0.21725562147E+03 -0.35269303217E+03  0.41430096886E+03  0.00000000000E+00 0. -1.
         -1    1    6    6    0  503  0.39930270532E+02 -0.13305895181E+03 -0.12617062117E+03  0.18766495892E+03  0.00000000000E+00 0.  1.
<mgrwt>
<rscale>  0 0.16388665E+04</rscale>
<asrwt>0</asrwt>
<pdfrwt beam="1">  1        2 0.12871480E+00 0.16388665E+04</pdfrwt>
<pdfrwt beam="2">  1       -1 0.12347299E+00 0.16388665E+04</pdfrwt>
<totfact> 0.20426827E+01</totfact>
</mgrwt>
</event>
<event>
12    6  0.1529770E-007  0.1658429E+04  0.7818608E-02  0.8785436E-01
         -1   -1    0    0    0  501 -0.00000000000E+00  0.00000000000E+00  0.19047558683E+04  0.19047558683E+04  0.00000000000E+00 0.  1.
          4   -1    0    0  501    0  0.00000000000E+00 -0.00000000000E+00 -0.36098925109E+03  0.36098925109E+03  0.00000000000E+00 0. -1.
         24    2    1    2    0    0 -0.36332291458E+03 -0.40773224480E+03  0.77387115853E+03  0.95054891773E+03  0.80109620498E+02 0.  0.
        254    2    1    2    0    0  0.36332291458E+03  0.40773224480E+03  0.76989545872E+03  0.13151962017E+04  0.91583454176E+03 0.  0.
         23    2    4    4    0    0  0.37199360433E+03  0.19956036750E+03  0.93779159058E+03  0.10324871936E+04  0.91504948257E+02 0.  0.
         23    2    4    4    0    0 -0.86706897451E+01  0.20817187730E+03 -0.16789613186E+03  0.28270900814E+03  0.91239031287E+02 0.  0.
          2    1    3    3  502    0 -0.58355381589E+02 -0.30280531225E+02  0.11161759235E+03  0.12954052669E+03  0.00000000000E+00 0. -1.
         -1    1    3    3    0  502 -0.30496753299E+03 -0.37745171358E+03  0.66225356617E+03  0.82100839105E+03  0.00000000000E+00 0.  1.
         11    1    5    5    0    0  0.91117099061E+02  0.81491722689E+01  0.17793866385E+03  0.20007724220E+03  0.00000000000E+00 0. -1.
        -11    1    5    5    0    0  0.28087650527E+03  0.19141119523E+03  0.75985292672E+03  0.83240995136E+03  0.00000000000E+00 0.  1.
          1    1    6    6  503    0 -0.30139198984E+02  0.13029884206E+03 -0.56682688443E+02  0.14525524681E+03  0.00000000000E+00 0. -1.
         -1    1    6    6    0  503  0.21468509239E+02  0.77873035243E+02 -0.11121344341E+03  0.13745376133E+03  0.00000000000E+00 0.  1.
<mgrwt>
<rscale>  0 0.16584286E+04</rscale>
<asrwt>0</asrwt>
<pdfrwt beam="1">  1        4 0.55536809E-01 0.16584286E+04</pdfrwt>
<pdfrwt beam="2">  1       -1 0.29303936E+00 0.16584286E+04</pdfrwt>
<totfact> 0.45717177E-01</totfact>
</mgrwt>
</event>
<event>
12    6  0.1529770E-007  0.1427088E+04  0.7818608E-02  0.8934441E-01
          2   -1    0    0  501    0  0.00000000000E+00  0.00000000000E+00  0.93319111696E+03  0.93319111696E+03  0.00000000000E+00 0. -1.
         -1   -1    0    0    0  501 -0.00000000000E+00 -0.00000000000E+00 -0.54559565987E+03  0.54559565987E+03  0.00000000000E+00 0.  1.
         24    2    1    2    0    0 -0.17753601799E+03 -0.11416123273E+02  0.51550078537E+03  0.55108751004E+03  0.79416739103E+02 0.  0.
        254    2    1    2    0    0  0.17753601799E+03  0.11416123273E+02 -0.12790532828E+03  0.92769926679E+03  0.90145260055E+03 0.  0.
         23    2    4    4    0    0 -0.24614865557E+03  0.93722805921E+02  0.22863289754E+03  0.36048109512E+03  0.91107042059E+02 0.  0.
         23    2    4    4    0    0  0.42368467356E+03 -0.82306682648E+02 -0.35653822582E+03  0.56721817167E+03  0.91289951184E+02 0.  0.
          2    1    3    3  502    0 -0.99399720314E+02 -0.25683015726E+02  0.18920697209E+03  0.21526541752E+03  0.00000000000E+00 0. -1.
         -1    1    3    3    0  502 -0.78136297675E+02  0.14266892452E+02  0.32629381328E+03  0.33582209252E+03  0.00000000000E+00 0.  1.
         11    1    5    5    0    0 -0.44353166344E+02  0.57096493123E+02  0.75437897622E+02  0.10448966116E+03  0.00000000000E+00 0. -1.
        -11    1    5    5    0    0 -0.20179548923E+03  0.36626312799E+02  0.15319499992E+03  0.25599143396E+03  0.00000000000E+00 0.  1.
          3    1    6    6  503    0  0.18138805446E+03 -0.64134548833E+02 -0.20357086843E+03  0.28009991990E+03  0.00000000000E+00 0. -1.
         -3    1    6    6    0  503  0.24229661909E+03 -0.18172133815E+02 -0.15296735739E+03  0.28711825177E+03  0.00000000000E+00 0.  1.
<mgrwt>
<rscale>  0 0.14270880E+04</rscale>
<asrwt>0</asrwt>
<pdfrwt beam="1">  1        2 0.14356786E+00 0.14270880E+04</pdfrwt>
<pdfrwt beam="2">  1       -1 0.83937794E-01 0.14270880E+04</pdfrwt>
<totfact> 0.43455909E+01</totfact>
</mgrwt>
</event>
<event>
12    6  0.1529770E-007  0.2170290E+04  0.7818608E-02  0.8530897E-01
          2   -1    0    0  501    0  0.00000000000E+00  0.00000000000E+00  0.28522453967E+04  0.28522453967E+04  0.00000000000E+00 0. -1.
         -1   -1    0    0    0  501 -0.00000000000E+00 -0.00000000000E+00 -0.41284639550E+03  0.41284639550E+03  0.00000000000E+00 0.  1.
         24    2    1    2    0    0 -0.49228611586E+03  0.55451109102E+03  0.25495761361E+03  0.78791318562E+03  0.77302221192E+02 0.  0.
        254    2    1    2    0    0  0.49228611586E+03 -0.55451109102E+03  0.21844413876E+04  0.24771786066E+04  0.90266356035E+03 0.  0.
         23    2    4    4    0    0 -0.17626137145E+03 -0.35942020495E+03  0.11963774842E+04  0.12648004080E+04  0.90277530903E+02 0.  0.
         23    2    4    4    0    0  0.66854748731E+03 -0.19509088606E+03  0.98806390333E+03  0.12123781985E+04  0.92598178188E+02 0.  0.
          4    1    3    3  502    0 -0.12610829261E+03  0.10107955932E+03  0.73036165400E+02  0.17735461718E+03  0.00000000000E+00 0. -1.
         -3    1    3    3    0  502 -0.36617782325E+03  0.45343153170E+03  0.18192144821E+03  0.61055856844E+03  0.00000000000E+00 0.  1.
         11    1    5    5    0    0 -0.15194624496E+03 -0.23526244009E+03  0.74046831497E+03  0.79166242967E+03  0.00000000000E+00 0. -1.
        -11    1    5    5    0    0 -0.24315126486E+02 -0.12415776487E+03  0.45590916926E+03  0.47313797837E+03  0.00000000000E+00 0.  1.
          3    1    6    6  503    0  0.38180905151E+03 -0.67696216875E+02  0.57864102039E+03  0.69655319975E+03  0.00000000000E+00 0. -1.
         -3    1    6    6    0  503  0.28673843579E+03 -0.12739466919E+03  0.40942288293E+03  0.51582499878E+03  0.00000000000E+00 0.  1.
<mgrwt>
<rscale>  0 0.21702896E+04</rscale>
<asrwt>0</asrwt>
<pdfrwt beam="1">  1        2 0.43880697E+00 0.21702896E+04</pdfrwt>
<pdfrwt beam="2">  1       -1 0.63514832E-01 0.21702896E+04</pdfrwt>
<totfact> 0.56390320E+00</totfact>
</mgrwt>
</event>
<event>
12    6  0.1529770E-007  0.1410614E+04  0.7818608E-02  0.8946171E-01
         -1   -1    0    0    0  501 -0.00000000000E+00  0.00000000000E+00  0.17059044076E+03  0.17059044076E+03  0.00000000000E+00 0.  1.
          2   -1    0    0  501    0  0.00000000000E+00 -0.00000000000E+00 -0.29160942937E+04  0.29160942937E+04  0.00000000000E+00 0. -1.
         24    2    1    2    0    0 -0.14638721347E+03 -0.33791340875E+03 -0.12128299379E+04  0.12700146887E+04  0.79788239141E+02 0.  0.
        254    2    1    2    0    0  0.14638721347E+03  0.33791340875E+03 -0.15326739150E+04  0.18166700457E+04  0.90309802197E+03 0.  0.
         23    2    4    4    0    0  0.87597146595E+02  0.35654176314E+03 -0.16275696315E+04  0.16709699658E+04  0.91446335849E+02 0.  0.
         23    2    4    4    0    0  0.58790066872E+02 -0.18628354390E+02  0.94895716515E+02  0.14570007990E+03  0.91760714471E+02 0.  0.
          4    1    3    3  502    0 -0.48476976074E+02 -0.12102298018E+03 -0.56542697952E+03  0.58026222358E+03  0.00000000000E+00 0. -1.
         -3    1    3    3    0  502 -0.97910237393E+02 -0.21689042857E+03 -0.64740295840E+03  0.68975246512E+03  0.00000000000E+00 0.  1.
         11    1    5    5    0    0 -0.60180763631E+01  0.12946100884E+03 -0.46407188047E+03  0.48182889109E+03  0.00000000000E+00 0. -1.
        -11    1    5    5    0    0  0.93615222958E+02  0.22708075430E+03 -0.11634977510E+04  0.11891410747E+04  0.00000000000E+00 0.  1.
          3    1    6    6  503    0  0.80358272019E+02 -0.24947111633E+02  0.88972696130E+02  0.12245795571E+03  0.00000000000E+00 0. -1.
         -3    1    6    6    0  503 -0.21568205147E+02  0.63187572432E+01  0.59230203858E+01  0.23242124189E+02  0.00000000000E+00 0.  1.
<mgrwt>
<rscale>  0 0.14106138E+04</rscale>
<asrwt>0</asrwt>
<pdfrwt beam="1">  1        2 0.44862990E+00 0.14106138E+04</pdfrwt>
<pdfrwt beam="2">  1       -1 0.26244683E-01 0.14106138E+04</pdfrwt>
<totfact> 0.28239453E+01</totfact>
</mgrwt>
</event>
<event>
12    6  0.1529770E-007  0.2162791E+04  0.7818608E-02  0.8534077E-01
          2   -1    0    0  501    0  0.00000000000E+00  0.00000000000E+00  0.27580504645E+04  0.27580504645E+04  0.00000000000E+00 0. -1.
         -1   -1    0    0    0  501 -0.00000000000E+00 -0.00000000000E+00 -0.42400118253E+03  0.42400118253E+03  0.00000000000E+00 0.  1.
         24    2    1    2    0    0 -0.23122486488E+03  0.85168617719E+03  0.11865099367E+04  0.14808736317E+04  0.79665556291E+02 0.  0.
        254    2    1    2    0    0  0.23122486488E+03 -0.85168617719E+03  0.11475393454E+04  0.17011780153E+04  0.89349079912E+03 0.  0.
         23    2    4    4    0    0 -0.19707302751E+03 -0.31581003410E+03  0.87806494805E+03  0.95795054842E+03  0.89985801142E+02 0.  0.
         23    2    4    4    0    0  0.42829789239E+03 -0.53587614310E+03  0.26947439731E+03  0.74322746691E+03  0.95751195247E+02 0.  0.
          4    1    3    3  502    0 -0.20603049616E+03  0.81848730389E+03  0.11397166713E+04  0.14182115931E+04  0.00000000000E+00 0. -1.
         -3    1    3    3    0  502 -0.25194368718E+02  0.33198873301E+02  0.46793265301E+02  0.62662038596E+02  0.00000000000E+00 0.  1.
         11    1    5    5    0    0 -0.38461557710E+00  0.49364075699E+01  0.40724170602E+01  0.64109772695E+01  0.00000000000E+00 0. -1.
        -11    1    5    5    0    0 -0.19668841194E+03 -0.32074644167E+03  0.87399253099E+03  0.95153957115E+03  0.00000000000E+00 0.  1.
          3    1    6    6  503    0  0.11002061444E+03 -0.85930819000E+02  0.77127668983E+02  0.15949081033E+03  0.00000000000E+00 0. -1.
         -3    1    6    6    0  503  0.31827727795E+03 -0.44994532410E+03  0.19234672833E+03  0.58373665658E+03  0.00000000000E+00 0.  1.
<mgrwt>
<rscale>  0 0.21627914E+04</rscale>
<asrwt>0</asrwt>
<pdfrwt beam="1">  1        2 0.42431544E+00 0.21627914E+04</pdfrwt>
<pdfrwt beam="2">  1       -1 0.65230953E-01 0.21627914E+04</pdfrwt>
<totfact> 0.60974515E+00</totfact>
</mgrwt>
</event>
<event>
12    6  0.1529770E-007  0.2643875E+04  0.7818608E-02  0.8353449E-01
          2   -1    0    0  501    0  0.00000000000E+00  0.00000000000E+00  0.24500427543E+04  0.24500427543E+04  0.00000000000E+00 0. -1.
         -1   -1    0    0    0  501 -0.00000000000E+00 -0.00000000000E+00 -0.71326076851E+03  0.71326076851E+03  0.00000000000E+00 0.  1.
         24    2    1    2    0    0 -0.28099734416E+03 -0.11342089936E+04  0.98184177503E+03  0.15281462490E+04  0.76342246222E+02 0.  0.
        254    2    1    2    0    0  0.28099734416E+03  0.11342089936E+04  0.75494021078E+03  0.16351572738E+04  0.85931079350E+03 0.  0.
         23    2    4    4    0    0 -0.11006032979E+03  0.63265754745E+03  0.75107519598E+03  0.99238674187E+03  0.91370930248E+02 0.  0.
         23    2    4    4    0    0  0.39105767394E+03  0.50155144613E+03  0.38650147987E+01  0.64277053197E+03  0.93054075492E+02 0.  0.
          2    1    3    3  502    0 -0.16707970125E+03 -0.61314423881E+03  0.48791020281E+03  0.80119775971E+03  0.00000000000E+00 0. -1.
         -1    1    3    3    0  502 -0.11391764291E+03 -0.52106475477E+03  0.49393157222E+03  0.72694848927E+03  0.00000000000E+00 0.  1.
         11    1    5    5    0    0 -0.77133269560E+01  0.30318295502E+03  0.33533006930E+03  0.45213455410E+03  0.00000000000E+00 0. -1.
        -11    1    5    5    0    0 -0.10234700283E+03  0.32947459242E+03  0.41574512668E+03  0.54025218778E+03  0.00000000000E+00 0.  1.
          2    1    6    6  503    0  0.35395162502E+03  0.40508308172E+03  0.19216310424E+02  0.53827810891E+03  0.00000000000E+00 0.  1.
         -2    1    6    6    0  503  0.37106048922E+02  0.96468364414E+02 -0.15351295625E+02  0.10449242306E+03  0.00000000000E+00 0. -1.
<mgrwt>
<rscale>  0 0.26438755E+04</rscale>
<asrwt>0</asrwt>
<pdfrwt beam="1">  1        2 0.37692965E+00 0.26438755E+04</pdfrwt>
<pdfrwt beam="2">  1       -1 0.10973243E+00 0.26438755E+04</pdfrwt>
<totfact> 0.28616179E+00</totfact>
</mgrwt>
</event>
<event>
12    6  0.1529770E-007  0.1635390E+04  0.7818608E-02  0.8799097E-01
          2   -1    0    0  501    0  0.00000000000E+00  0.00000000000E+00  0.29649251462E+03  0.29649251462E+03  0.00000000000E+00 0. -1.
         -1   -1    0    0    0  501 -0.00000000000E+00 -0.00000000000E+00 -0.22551175546E+04  0.22551175546E+04  0.00000000000E+00 0.  1.
         24    2    1    2    0    0  0.47992187705E+03  0.29354298381E+03 -0.60906887645E+03  0.83246204759E+03  0.74402103492E+02 0.  0.
        254    2    1    2    0    0 -0.47992187705E+03 -0.29354298381E+03 -0.13495561635E+04  0.17191480216E+04  0.90425416246E+03 0.  0.
         23    2    4    4    0    0 -0.27702545910E+03 -0.41084368142E+03 -0.13769929790E+04  0.14660131602E+04  0.86886628053E+02 0.  0.
         23    2    4    4    0    0 -0.20289641795E+03  0.11730069761E+03  0.27436815546E+02  0.25313486135E+03  0.91640979411E+02 0.  0.
          4    1    3    3  502    0  0.43940454735E+03  0.28617963957E+03 -0.54505933428E+03  0.75634966796E+03  0.00000000000E+00 0. -1.
         -3    1    3    3    0  502  0.40517329701E+02  0.73633442398E+01 -0.64009542170E+02  0.76112379632E+02  0.00000000000E+00 0.  1.
         11    1    5    5    0    0 -0.19263203030E+03 -0.32928541893E+03 -0.11275881661E+04  0.11903743355E+04  0.00000000000E+00 0.  1.
        -11    1    5    5    0    0 -0.84393428802E+02 -0.81558262489E+02 -0.24940481291E+03  0.27563882475E+03  0.00000000000E+00 0. -1.
          1    1    6    6  503    0 -0.33402039079E+02  0.59848885946E+02  0.28337341277E+02  0.74165964393E+02  0.00000000000E+00 0. -1.
         -1    1    6    6    0  503 -0.16949437887E+03  0.57451811668E+02 -0.90052573135E+00  0.17896889696E+03  0.00000000000E+00 0.  1.
<mgrwt>
<rscale>  0 0.16353904E+04</rscale>
<asrwt>0</asrwt>
<pdfrwt beam="1">  1        2 0.45614235E-01 0.16353904E+04</pdfrwt>
<pdfrwt beam="2">  1       -1 0.34694115E+00 0.16353904E+04</pdfrwt>
<totfact> 0.19897087E+00</totfact>
</mgrwt>
</event>
<event>
12    6  0.1529770E-007  0.1193991E+04  0.7818608E-02  0.9118133E-01
          2   -1    0    0  501    0  0.00000000000E+00  0.00000000000E+00  0.22678089547E+04  0.22678089547E+04  0.00000000000E+00 0. -1.
         -1   -1    0    0    0  501 -0.00000000000E+00 -0.00000000000E+00 -0.15715763066E+03  0.15715763066E+03  0.00000000000E+00 0.  1.
         24    2    1    2    0    0 -0.11345033710E+03  0.47857899501E+02  0.92192060232E+03  0.93419960057E+03  0.87349523086E+02 0.  0.
        254    2    1    2    0    0  0.11345033710E+03 -0.47857899501E+02  0.11887307217E+04  0.14907669848E+04  0.89114764020E+03 0.  0.
         23    2    4    4    0    0  0.17782622639E+03 -0.28938474337E+03  0.92963523890E+02  0.36318918148E+03  0.88873327194E+02 0.  0.
         23    2    4    4    0    0 -0.64375889283E+02  0.24152684387E+03  0.10957671978E+04  0.11275778033E+04  0.90810127310E+02 0.  0.
          2    1    3    3  502    0 -0.55125689073E+02 -0.12840351263E+02  0.54828361615E+03  0.55119746004E+03  0.00000000000E+00 0. -1.
         -1    1    3    3    0  502 -0.58324648029E+02  0.60698250764E+02  0.37363698617E+03  0.38300214053E+03  0.00000000000E+00 0.  1.
         11    1    5    5    0    0  0.10744950962E+03 -0.93036061530E+02  0.29408568320E+02  0.14514120626E+03  0.00000000000E+00 0. -1.
        -11    1    5    5    0    0  0.70376716764E+02 -0.19634868184E+03  0.63554955570E+02  0.21804797523E+03  0.00000000000E+00 0.  1.
          1    1    6    6  503    0  0.84935695793E+01 -0.43118735007E+01  0.40802809460E+02  0.41899907364E+02  0.00000000000E+00 0. -1.
         -1    1    6    6    0  503 -0.72869458862E+02  0.24583871737E+03  0.10549643884E+04  0.10856778959E+04  0.00000000000E+00 0.  1.
<mgrwt>
<rscale>  0 0.11939908E+04</rscale>
<asrwt>0</asrwt>
<pdfrwt beam="1">  1        2 0.34889366E+00 0.11939908E+04</pdfrwt>
<pdfrwt beam="2">  1       -1 0.24178099E-01 0.11939908E+04</pdfrwt>
<totfact> 0.79156248E+01</totfact>
</mgrwt>
</event>
<event>
12    6  0.1529770E-007  0.2804144E+04  0.7818608E-02  0.8301983E-01
          2   -1    0    0  501    0  0.00000000000E+00  0.00000000000E+00  0.24313112446E+04  0.24313112446E+04  0.00000000000E+00 0. -1.
         -1   -1    0    0    0  501 -0.00000000000E+00 -0.00000000000E+00 -0.80853707063E+03  0.80853707063E+03  0.00000000000E+00 0.  1.
         24    2    1    2    0    0  0.86727524229E+03 -0.67087905113E+03  0.16246715117E+02  0.10992615264E+04  0.76595696051E+02 0.  0.
        254    2    1    2    0    0 -0.86727524229E+03  0.67087905113E+03  0.16065274588E+04  0.21405867888E+04  0.89383235403E+03 0.  0.
         23    2    4    4    0    0 -0.72088038013E+03  0.76766492481E+03  0.84389669136E+03  0.13525923816E+04  0.91468932985E+02 0.  0.
         23    2    4    4    0    0 -0.14639486215E+03 -0.96785873677E+02  0.76263076747E+03  0.78799440721E+03  0.92360907815E+02 0.  0.
          4    1    3    3  502    0  0.28164287292E+03 -0.24924174514E+03 -0.20990781940E+02  0.37667594602E+03  0.00000000000E+00 0. -1.
         -3    1    3    3    0  502  0.58563236937E+03 -0.42163730599E+03  0.37237497056E+02  0.72258558043E+03  0.00000000000E+00 0.  1.
         11    1    5    5    0    0 -0.25512215206E+03  0.26593849403E+03  0.24063534844E+03  0.44013175981E+03  0.00000000000E+00 0.  1.
        -11    1    5    5    0    0 -0.46575822807E+03  0.50172643078E+03  0.60326134292E+03  0.91246062174E+03  0.00000000000E+00 0. -1.
          3    1    6    6  503    0 -0.68789776675E+02 -0.98835953051E+02  0.48339754387E+03  0.49817041704E+03  0.00000000000E+00 0. -1.
         -3    1    6    6    0  503 -0.77605085480E+02  0.20500793743E+01  0.27923322360E+03  0.28982399018E+03  0.00000000000E+00 0.  1.
<mgrwt>
<rscale>  0 0.28041436E+04</rscale>
<asrwt>0</asrwt>
<pdfrwt beam="1">  1        2 0.37404788E+00 0.28041436E+04</pdfrwt>
<pdfrwt beam="2">  1       -1 0.12439032E+00 0.28041436E+04</pdfrwt>
<totfact> 0.21363988E+00</totfact>
</mgrwt>
</event>
<event>
12    6  0.1529770E-007  0.1750436E+04  0.7818608E-02  0.8733110E-01
          2   -1    0    0  501    0  0.00000000000E+00  0.00000000000E+00  0.12298884540E+04  0.12298884540E+04  0.00000000000E+00 0. -1.
         -1   -1    0    0    0  501 -0.00000000000E+00 -0.00000000000E+00 -0.62282594497E+03  0.62282594497E+03  0.00000000000E+00 0.  1.
         24    2    1    2    0    0 -0.51474223932E+03 -0.28098379600E+03  0.55926139030E+03  0.81351103500E+03  0.71522268049E+02 0.  0.
        254    2    1    2    0    0  0.51474223932E+03  0.28098379600E+03  0.47801118772E+02  0.10392033640E+04  0.85659046123E+03 0.  0.
         23    2    4    4    0    0  0.55221521169E+03  0.52236826556E+03 -0.33354493385E+02  0.76644890006E+03  0.92310071420E+02 0.  0.
         23    2    4    4    0    0 -0.37472972367E+02 -0.24138446956E+03  0.81155612157E+02  0.27275446396E+03  0.90211298753E+02 0.  0.
          4    1    3    3  502    0 -0.13142620526E+03 -0.66594777671E+02  0.18483885124E+03  0.23637494108E+03  0.00000000000E+00 0. -1.
         -3    1    3    3    0  502 -0.38331603406E+03 -0.21438901833E+03  0.37442253906E+03  0.57713609391E+03  0.00000000000E+00 0.  1.
         11    1    5    5    0    0  0.26392851007E+03  0.27929209679E+03  0.24032460014E+02  0.38501934093E+03  0.00000000000E+00 0.  1.
        -11    1    5    5    0    0  0.28828670162E+03  0.24307616877E+03 -0.57386953398E+02  0.38142955912E+03  0.00000000000E+00 0. -1.
          2    1    6    6  503    0 -0.62553720715E+02 -0.20481748239E+03  0.54371433308E+02  0.22095117521E+03  0.00000000000E+00 0. -1.
         -2    1    6    6    0  503  0.25080748348E+02 -0.36566987167E+02  0.26784178849E+02  0.51803288745E+02  0.00000000000E+00 0.  1.
<mgrwt>
<rscale>  0 0.17504359E+04</rscale>
<asrwt>0</asrwt>
<pdfrwt beam="1">  1        2 0.18921361E+00 0.17504359E+04</pdfrwt>
<pdfrwt beam="2">  1       -1 0.95819376E-01 0.17504359E+04</pdfrwt>
<totfact> 0.20634879E+01</totfact>
</mgrwt>
</event>
<event>
12    6  0.1529770E-007  0.1923951E+04  0.7818608E-02  0.8643025E-01
          2   -1    0    0  501    0  0.00000000000E+00  0.00000000000E+00  0.29828124038E+04  0.29828124038E+04  0.00000000000E+00 0. -1.
         -1   -1    0    0    0  501 -0.00000000000E+00 -0.00000000000E+00 -0.31024314773E+03  0.31024314773E+03  0.00000000000E+00 0.  1.
         24    2    1    2    0    0 -0.38670274381E+02  0.46399626147E+03  0.13370135103E+02  0.47256388467E+03  0.79686534641E+02 0.  0.
        254    2    1    2    0    0  0.38670274381E+02 -0.46399626147E+03  0.26591991210E+04  0.28204916669E+04  0.81672844755E+03 0.  0.
         23    2    4    4    0    0  0.25579290892E+03 -0.28605600911E+03  0.47750192017E+03  0.61894348657E+03  0.88458482952E+02 0.  0.
         23    2    4    4    0    0 -0.21712263453E+03 -0.17794025236E+03  0.21816972008E+04  0.22015481803E+04  0.90591071623E+02 0.  0.
          2    1    3    3  502    0  0.18593610923E+02  0.10034134625E+03 -0.15837344371E+02  0.10327114607E+03  0.00000000000E+00 0. -1.
         -1    1    3    3    0  502 -0.57263885304E+02  0.36365491523E+03  0.29207479474E+02  0.36929273860E+03  0.00000000000E+00 0.  1.
         11    1    5    5    0    0  0.12632647047E+03 -0.85385226604E+02  0.15264573009E+03  0.21575387130E+03  0.00000000000E+00 0.  1.
        -11    1    5    5    0    0  0.12946643844E+03 -0.20067078251E+03  0.32485619008E+03  0.40318961528E+03  0.00000000000E+00 0. -1.
          4    1    6    6  503    0 -0.61027400300E+02 -0.44376729588E+01  0.40820261885E+03  0.41276314584E+03  0.00000000000E+00 0.  1.
         -4    1    6    6    0  503 -0.15609523423E+03 -0.17350257940E+03  0.17734945820E+04  0.17887850345E+04  0.00000000000E+00 0. -1.
<mgrwt>
<rscale>  0 0.19239513E+04</rscale>
<asrwt>0</asrwt>
<pdfrwt beam="1">  1        2 0.45889420E+00 0.19239513E+04</pdfrwt>
<pdfrwt beam="2">  1       -1 0.47729717E-01 0.19239513E+04</pdfrwt>
<totfact> 0.83496880E+00</totfact>
</mgrwt>
</event>
<event>
12    6  0.1529770E-007  0.1572272E+04  0.7818608E-02  0.8837765E-01
         -1   -1    0    0    0  501 -0.00000000000E+00  0.00000000000E+00  0.44087440284E+03  0.44087440284E+03  0.00000000000E+00 0.  1.
          2   -1    0    0  501    0  0.00000000000E+00 -0.00000000000E+00 -0.14017828529E+04  0.14017828529E+04  0.00000000000E+00 0. -1.
         24    2    1    2    0    0  0.41645495281E+03  0.15966859046E+03 -0.64559375924E+03  0.78855090709E+03  0.78054113261E+02 0.  0.
        254    2    1    2    0    0 -0.41645495281E+03 -0.15966859046E+03 -0.31531469082E+03  0.10541063487E+04  0.90154758805E+03 0.  0.
         23    2    4    4    0    0 -0.50407939759E+03  0.17284610258E+03 -0.41885393163E+03  0.68366134931E+03  0.89344335283E+02 0.  0.
         23    2    4    4    0    0  0.87624444781E+02 -0.33251469305E+03  0.10353924082E+03  0.37044499934E+03  0.90912368421E+02 0.  0.
          2    1    3    3  502    0  0.41583933658E+03  0.15021277256E+03 -0.62205737412E+03  0.76317862102E+03  0.00000000000E+00 0. -1.
         -1    1    3    3    0  502  0.61561622746E+00  0.94558179016E+01 -0.23536385125E+02  0.25372286067E+02  0.00000000000E+00 0.  1.
         11    1    5    5    0    0 -0.31312041343E+03  0.69760864706E+02 -0.21708182668E+03  0.38734415063E+03  0.00000000000E+00 0. -1.
        -11    1    5    5    0    0 -0.19095898416E+03  0.10308523788E+03 -0.20177210495E+03  0.29631719868E+03  0.00000000000E+00 0.  1.
          2    1    6    6  503    0  0.92709925348E+01 -0.19776497518E+03  0.76473966284E+02  0.21223855501E+03  0.00000000000E+00 0. -1.
         -2    1    6    6    0  503  0.78353452246E+02 -0.13474971786E+03  0.27065274532E+02  0.15820644433E+03  0.00000000000E+00 0.  1.
<mgrwt>
<rscale>  0 0.15722725E+04</rscale>
<asrwt>0</asrwt>
<pdfrwt beam="1">  1        2 0.21565890E+00 0.15722725E+04</pdfrwt>
<pdfrwt beam="2">  1       -1 0.67826830E-01 0.15722725E+04</pdfrwt>
<totfact> 0.34800243E+01</totfact>
</mgrwt>
</event>
<event>
12    6  0.1529770E-007  0.2625384E+04  0.7818608E-02  0.8359630E-01
         -1   -1    0    0    0  501 -0.00000000000E+00  0.00000000000E+00  0.60496077025E+03  0.60496077025E+03  0.00000000000E+00 0.  1.
          2   -1    0    0  501    0  0.00000000000E+00 -0.00000000000E+00 -0.28483836568E+04  0.28483836568E+04  0.00000000000E+00 0. -1.
         24    2    1    2    0    0  0.25351674623E+03 -0.23266203523E+03 -0.24447308731E+04  0.24703364531E+04  0.86317936573E+02 0.  0.
        254    2    1    2    0    0 -0.25351674623E+03  0.23266203523E+03  0.20130798657E+03  0.98300797396E+03  0.89854182326E+03 0.  0.
         23    2    4    4    0    0 -0.56036746072E+03  0.70628641635E+02  0.24437028358E+03  0.62251469399E+03  0.93848882172E+02 0.  0.
         23    2    4    4    0    0  0.30685071448E+03  0.16203339360E+03 -0.43062297011E+02  0.36049327997E+03  0.87686155483E+02 0.  0.
          2    1    3    3  502    0  0.22359233558E+03 -0.16672487087E+03 -0.17875027813E+04  0.18091315343E+04  0.00000000000E+00 0. -1.
         -3    1    3    3    0  502  0.29924410658E+02 -0.65937164364E+02 -0.65722809175E+03  0.66120491875E+03  0.00000000000E+00 0.  1.
         11    1    5    5    0    0 -0.12420457192E+03  0.39709197343E+02  0.91527924307E+02  0.15931402000E+03  0.00000000000E+00 0. -1.
        -11    1    5    5    0    0 -0.43616288879E+03  0.30919444292E+02  0.15284235928E+03  0.46320067399E+03  0.00000000000E+00 0.  1.
          1    1    6    6  503    0  0.55871645582E+02  0.72140250857E+02 -0.77903374728E+01  0.91578086525E+02  0.00000000000E+00 0. -1.
         -1    1    6    6    0  503  0.25097906890E+03  0.89893142742E+02 -0.35271959538E+02  0.26891519345E+03  0.00000000000E+00 0.  1.
<mgrwt>
<rscale>  0 0.26253841E+04</rscale>
<asrwt>0</asrwt>
<pdfrwt beam="1">  1        2 0.43821287E+00 0.26253841E+04</pdfrwt>
<pdfrwt beam="2">  1       -1 0.93070888E-01 0.26253841E+04</pdfrwt>
<totfact> 0.24309946E+00</totfact>
</mgrwt>
</event>
<event>
12    6  0.1529770E-007  0.1290834E+04  0.7818608E-02  0.9036866E-01
         -1   -1    0    0    0  501 -0.00000000000E+00  0.00000000000E+00  0.94913117755E+03  0.94913117755E+03  0.00000000000E+00 0.  1.
          2   -1    0    0  501    0  0.00000000000E+00 -0.00000000000E+00 -0.43888866579E+03  0.43888866579E+03  0.00000000000E+00 0. -1.
         24    2    1    2    0    0  0.37861167475E+02  0.32568995353E+03  0.14769380184E+03  0.36844307020E+03  0.80183683190E+02 0.  0.
        254    2    1    2    0    0 -0.37861167475E+02 -0.32568995353E+03  0.36254870992E+03  0.10195767731E+04  0.89475572948E+03 0.  0.
         23    2    4    4    0    0  0.52420973597E+02 -0.59240678916E+03  0.39558172252E+03  0.72154679897E+03  0.10223072730E+03 0.  0.
         23    2    4    4    0    0 -0.90282141072E+02  0.26671683563E+03 -0.33033012593E+02  0.29802997417E+03  0.91880085844E+02 0.  0.
          2    1    3    3  502    0  0.37036114688E+02  0.28892441780E+03  0.99484289633E+02  0.30780857180E+03  0.00000000000E+00 0. -1.
         -1    1    3    3    0  502  0.82505278686E+00  0.36765535725E+02  0.48209512202E+02  0.60634498399E+02  0.00000000000E+00 0.  1.
         11    1    5    5    0    0 -0.54403433425E+01 -0.34256728483E+02  0.55341089037E+02  0.65312762289E+02  0.00000000000E+00 0. -1.
        -11    1    5    5    0    0  0.57861316940E+02 -0.55815006068E+03  0.34024063348E+03  0.65623403668E+03  0.00000000000E+00 0.  1.
          1    1    6    6  503    0  0.19088313910E+02  0.44930514025E+02 -0.27399294980E+01  0.48893987689E+02  0.00000000000E+00 0. -1.
         -1    1    6    6    0  503 -0.10937045498E+03  0.22178632161E+03 -0.30293083095E+02  0.24913598648E+03  0.00000000000E+00 0.  1.
<mgrwt>
<rscale>  0 0.12908337E+04</rscale>
<asrwt>0</asrwt>
<pdfrwt beam="1">  1        2 0.67521333E-01 0.12908337E+04</pdfrwt>
<pdfrwt beam="2">  1       -1 0.14602018E+00 0.12908337E+04</pdfrwt>
<totfact> 0.30117674E+01</totfact>
</mgrwt>
</event>
<event>
12    6  0.1529770E-007  0.1231964E+04  0.7818608E-02  0.9085330E-01
         -1   -1    0    0    0  501 -0.00000000000E+00  0.00000000000E+00  0.30482798794E+03  0.30482798794E+03  0.00000000000E+00 0.  1.
          2   -1    0    0  501    0  0.00000000000E+00 -0.00000000000E+00 -0.12447471426E+04  0.12447471426E+04  0.00000000000E+00 0. -1.
         24    2    1    2    0    0 -0.16019210957E+03  0.49716917253E+02  0.47854595175E+02  0.19183593986E+03  0.79860388896E+02 0.  0.
        254    2    1    2    0    0  0.16019210957E+03 -0.49716917253E+02 -0.98777374978E+03  0.13577391906E+04  0.91631077981E+03 0.  0.
         23    2    4    4    0    0 -0.17435004983E+03  0.22818198148E+01  0.96046012934E+02  0.21815946431E+03  0.89250034680E+02 0.  0.
         23    2    4    4    0    0  0.33454215940E+03 -0.51998737068E+02 -0.10838197627E+04  0.11395797263E+04  0.96717886239E+02 0.  0.
          2    1    3    3  502    0 -0.15414634307E+02  0.32800859125E+02 -0.54151303410E+01  0.36644657820E+02  0.00000000000E+00 0. -1.
         -1    1    3    3    0  502 -0.14477747526E+03  0.16916058129E+02  0.53269725516E+02  0.15519128204E+03  0.00000000000E+00 0.  1.
         11    1    5    5    0    0 -0.17652556776E+03  0.10252707427E+02  0.10526149085E+03  0.20578234992E+03  0.00000000000E+00 0. -1.
        -11    1    5    5    0    0  0.21755179295E+01 -0.79708876121E+01 -0.92154779110E+01  0.12377114394E+02  0.00000000000E+00 0.  1.
          1    1    6    6  503    0  0.82924049919E+02 -0.55757172875E+02 -0.33697658892E+03  0.35148041462E+03  0.00000000000E+00 0.  1.
         -1    1    6    6    0  503  0.25161810948E+03  0.37584358071E+01 -0.74684317380E+03  0.78809931170E+03  0.00000000000E+00 0. -1.
<mgrwt>
<rscale>  0 0.12319639E+04</rscale>
<asrwt>0</asrwt>
<pdfrwt beam="1">  1        2 0.19149956E+00 0.12319639E+04</pdfrwt>
<pdfrwt beam="2">  1       -1 0.46896613E-01 0.12319639E+04</pdfrwt>
<totfact> 0.90593467E+01</totfact>
</mgrwt>
</event>
<event>
12    6  0.1529770E-007  0.1457494E+04  0.7818608E-02  0.8913222E-01
         -1   -1    0    0    0  501 -0.00000000000E+00  0.00000000000E+00  0.87459585304E+03  0.87459585304E+03  0.00000000000E+00 0.  1.
          2   -1    0    0  501    0  0.00000000000E+00 -0.00000000000E+00 -0.60721979684E+03  0.60721979684E+03  0.00000000000E+00 0. -1.
         24    2    1    2    0    0 -0.46675596980E+02 -0.42923520436E+03 -0.32964316916E+02  0.44008359194E+03  0.78520377568E+02 0.  0.
        254    2    1    2    0    0  0.46675596980E+02  0.42923520436E+03  0.30034037312E+03  0.10417320579E+04  0.89921069210E+03 0.  0.
         23    2    4    4    0    0  0.26056936484E+03 -0.14384076044E+03  0.28699923511E+03  0.42324856043E+03  0.90466704888E+02 0.  0.
         23    2    4    4    0    0 -0.21389376787E+03  0.57307596480E+03  0.13341138019E+02  0.61848349751E+03  0.90428122663E+02 0.  0.
          2    1    3    3  502    0 -0.34596499839E+01 -0.84548220116E+02  0.24233487198E+02  0.88020637379E+02  0.00000000000E+00 0. -1.
         -1    1    3    3    0  502 -0.43215946996E+02 -0.34468698424E+03 -0.57197804114E+02  0.35206295457E+03  0.00000000000E+00 0.  1.
         11    1    5    5    0    0  0.60178509128E+02 -0.71835632215E+02  0.12217056479E+03  0.15397226347E+03  0.00000000000E+00 0.  1.
        -11    1    5    5    0    0  0.20039085572E+03 -0.72005128223E+02  0.16482867031E+03  0.26927629696E+03  0.00000000000E+00 0. -1.
          1    1    6    6  503    0 -0.19843765565E+03  0.49417566613E+03 -0.16340648040E+02  0.53277960636E+03  0.00000000000E+00 0. -1.
         -1    1    6    6    0  503 -0.15456112217E+02  0.78900298665E+02  0.29681786059E+02  0.85703891148E+02  0.00000000000E+00 0.  1.
<mgrwt>
<rscale>  0 0.14574936E+04</rscale>
<asrwt>0</asrwt>
<pdfrwt beam="1">  1        2 0.93418431E-01 0.14574936E+04</pdfrwt>
<pdfrwt beam="2">  1       -1 0.13455321E+00 0.14574936E+04</pdfrwt>
<totfact> 0.25156491E+01</totfact>
</mgrwt>
</event>
<event>
12    6  0.1529770E-007  0.2248560E+04  0.7818608E-02  0.8498484E-01
          2   -1    0    0  501    0  0.00000000000E+00  0.00000000000E+00  0.16358928123E+04  0.16358928123E+04  0.00000000000E+00 0. -1.
         -1   -1    0    0    0  501 -0.00000000000E+00 -0.00000000000E+00 -0.77267044864E+03  0.77267044864E+03  0.00000000000E+00 0.  1.
         24    2    1    2    0    0  0.78885119262E+03  0.48605110756E+03  0.48374499957E+03  0.10482635466E+04  0.79469209519E+02 0.  0.
        254    2    1    2    0    0 -0.78885119262E+03 -0.48605110756E+03  0.37947736406E+03  0.13602997143E+04  0.92080419180E+03 0.  0.
         23    2    4    4    0    0 -0.73330764985E+03 -0.68822049735E+03  0.12481044395E+03  0.10174809112E+04  0.91116383941E+02 0.  0.
         23    2    4    4    0    0 -0.55543542770E+02  0.20216938979E+03  0.25466692011E+03  0.34281880311E+03  0.93337796494E+02 0.  0.
          2    1    3    3  502    0  0.29840976392E+02  0.30615248036E+02  0.85103920423E+01  0.43591330067E+02  0.00000000000E+00 0. -1.
         -1    1    3    3    0  502  0.75901021623E+03  0.45543585952E+03  0.47523460752E+03  0.10046722165E+04  0.00000000000E+00 0.  1.
         11    1    5    5    0    0 -0.38847691763E+03 -0.35205630478E+03  0.20103783964E+02  0.52465428560E+03  0.00000000000E+00 0. -1.
        -11    1    5    5    0    0 -0.34483073222E+03 -0.33616419258E+03  0.10470665999E+03  0.49282662560E+03  0.00000000000E+00 0.  1.
          1    1    6    6  503    0 -0.20348699670E+02  0.12121000445E+03  0.78683759773E+02  0.14593515275E+03  0.00000000000E+00 0.  1.
         -1    1    6    6    0  503 -0.35194843099E+02  0.80959385345E+02  0.17598316034E+03  0.19688365036E+03  0.00000000000E+00 0. -1.
<mgrwt>
<rscale>  0 0.22485605E+04</rscale>
<asrwt>0</asrwt>
<pdfrwt beam="1">  1        2 0.25167582E+00 0.22485605E+04</pdfrwt>
<pdfrwt beam="2">  1       -1 0.11887238E+00 0.22485605E+04</pdfrwt>
<totfact> 0.69949772E+00</totfact>
</mgrwt>
</event>
<event>
12    6  0.1529770E-007  0.1466894E+04  0.7818608E-02  0.8906771E-01
          2   -1    0    0  501    0  0.00000000000E+00  0.00000000000E+00  0.73198769103E+03  0.73198769103E+03  0.00000000000E+00 0. -1.
         -1   -1    0    0    0  501 -0.00000000000E+00 -0.00000000000E+00 -0.73490956321E+03  0.73490956321E+03  0.00000000000E+00 0.  1.
         24    2    1    2    0    0 -0.17044441245E+03  0.36701159080E+03 -0.24199159103E+03  0.47836695166E+03  0.80784929238E+02 0.  0.
        254    2    1    2    0    0  0.17044441245E+03 -0.36701159080E+03  0.23906971885E+03  0.98853030258E+03  0.86964879298E+03 0.  0.
         23    2    4    4    0    0  0.49080339139E+03 -0.33712224301E+03  0.50391543365E+02  0.60443110808E+03  0.90875084841E+02 0.  0.
         23    2    4    4    0    0 -0.32035897893E+03 -0.29889347796E+02  0.18867817549E+03  0.38409919450E+03  0.91703265034E+02 0.  0.
          4    1    3    3  502    0 -0.39670915216E+02  0.32819156813E+02 -0.48150516409E+02  0.70493622396E+02  0.00000000000E+00 0. -1.
         -3    1    3    3    0  502 -0.13077349724E+03  0.33419243399E+03 -0.19384107462E+03  0.40787332927E+03  0.00000000000E+00 0.  1.
         11    1    5    5    0    0  0.79248209834E+02 -0.96840489141E+02 -0.71036240304E+00  0.12513538154E+03  0.00000000000E+00 0. -1.
        -11    1    5    5    0    0  0.41155518155E+03 -0.24028175387E+03  0.51101905768E+02  0.47929572654E+03  0.00000000000E+00 0.  1.
          3    1    6    6  503    0 -0.72107583270E+02  0.26748893275E+02  0.66506375550E+02  0.10167647144E+03  0.00000000000E+00 0. -1.
         -3    1    6    6    0  503 -0.24825139566E+03 -0.56638241071E+02  0.12217179994E+03  0.28242272306E+03  0.00000000000E+00 0.  1.
<mgrwt>
<rscale>  0 0.14668943E+04</rscale>
<asrwt>0</asrwt>
<pdfrwt beam="1">  1        2 0.11261349E+00 0.14668943E+04</pdfrwt>
<pdfrwt beam="2">  1       -1 0.11306301E+00 0.14668943E+04</pdfrwt>
<totfact> 0.30613437E+01</totfact>
</mgrwt>
</event>
<event>
12    6  0.1529770E-007  0.2654640E+04  0.7818608E-02  0.8349874E-01
          2   -1    0    0  501    0  0.00000000000E+00  0.00000000000E+00  0.17975807467E+04  0.17975807467E+04  0.00000000000E+00 0. -1.
         -1   -1    0    0    0  501 -0.00000000000E+00 -0.00000000000E+00 -0.98008338121E+03  0.98008338121E+03  0.00000000000E+00 0.  1.
         24    2    1    2    0    0  0.96672206209E+03 -0.45712783524E+03  0.87221789791E+03  0.13827105425E+04  0.87218001813E+02 0.  0.
        254    2    1    2    0    0 -0.96672206209E+03  0.45712783524E+03 -0.54720532432E+02  0.13949535854E+04  0.89408263918E+03 0.  0.
         23    2    4    4    0    0 -0.89083055502E+03  0.67200509765E+03 -0.15459715195E+03  0.11302086563E+04  0.91112010532E+02 0.  0.
         23    2    4    4    0    0 -0.75891507069E+02 -0.21487726241E+03  0.99876619517E+02  0.26474492906E+03  0.90458717598E+02 0.  0.
          2    1    3    3  502    0  0.75352314412E+03 -0.34004238790E+03  0.62943883300E+03  0.10390472553E+04  0.00000000000E+00 0. -1.
         -1    1    3    3    0  502  0.21319891796E+03 -0.11708544734E+03  0.24277906491E+03  0.34366328719E+03  0.00000000000E+00 0.  1.
         11    1    5    5    0    0 -0.38588455721E+03  0.25269847803E+03 -0.30793172811E+02  0.46228955405E+03  0.00000000000E+00 0. -1.
        -11    1    5    5    0    0 -0.50494599781E+03  0.41930661962E+03 -0.12380397914E+03  0.66791910230E+03  0.00000000000E+00 0.  1.
          1    1    6    6  503    0  0.27178779818E+01  0.78546963165E+01  0.31500400314E-01  0.83116849810E+01  0.00000000000E+00 0. -1.
         -1    1    6    6    0  503 -0.78609385051E+02 -0.22273195873E+03  0.99845119117E+02  0.25643324408E+03  0.00000000000E+00 0.  1.
<mgrwt>
<rscale>  0 0.26546405E+04</rscale>
<asrwt>0</asrwt>
<pdfrwt beam="1">  1        2 0.27655088E+00 0.26546405E+04</pdfrwt>
<pdfrwt beam="2">  1       -1 0.15078206E+00 0.26546405E+04</pdfrwt>
<totfact> 0.29845197E+00</totfact>
</mgrwt>
</event>
<event>
12    6  0.1529770E-007  0.2189786E+04  0.7818608E-02  0.8522692E-01
         -1   -1    0    0    0  501 -0.00000000000E+00  0.00000000000E+00  0.39352150868E+03  0.39352150868E+03  0.00000000000E+00 0.  1.
          2   -1    0    0  501    0  0.00000000000E+00 -0.00000000000E+00 -0.30463144326E+04  0.30463144326E+04  0.00000000000E+00 0. -1.
         24    2    1    2    0    0 -0.30604983782E+03 -0.53176331302E+03 -0.21238248234E+04  0.22122218723E+04  0.82794972856E+02 0.  0.
        254    2    1    2    0    0  0.30604983782E+03  0.53176331302E+03 -0.52896810055E+03  0.12276140690E+04  0.92238296098E+03 0.  0.
         23    2    4    4    0    0  0.87244781459E+02  0.64421523448E+03 -0.22995004538E+02  0.65789180761E+03  0.98325683588E+02 0.  0.
         23    2    4    4    0    0  0.21880505636E+03 -0.11245192146E+03 -0.50597309601E+03  0.56972226139E+03  0.89741818074E+02 0.  0.
          2    1    3    3  502    0 -0.25840972816E+03 -0.39138132265E+03 -0.16838549609E+04  0.17479480703E+04  0.00000000000E+00 0. -1.
         -1    1    3    3    0  502 -0.47640109664E+02 -0.14038199037E+03 -0.43996986252E+03  0.46427380197E+03  0.00000000000E+00 0.  1.
         11    1    5    5    0    0  0.42972719972E+02  0.56544977468E+03 -0.16914995448E+02  0.56733254747E+03  0.00000000000E+00 0.  1.
        -11    1    5    5    0    0  0.44272061487E+02  0.78765459800E+02 -0.60800090902E+01  0.90559260136E+02  0.00000000000E+00 0. -1.
          4    1    6    6  503    0  0.15915484424E+03 -0.33323088493E+02 -0.32421033200E+03  0.36270240149E+03  0.00000000000E+00 0. -1.
         -4    1    6    6    0  503  0.59650212117E+02 -0.79128832970E+02 -0.18176276401E+03  0.20701985990E+03  0.00000000000E+00 0.  1.
<mgrwt>
<rscale>  0 0.21897856E+04</rscale>
<asrwt>0</asrwt>
<pdfrwt beam="1">  1        2 0.46866374E+00 0.21897856E+04</pdfrwt>
<pdfrwt beam="2">  1       -1 0.60541773E-01 0.21897856E+04</pdfrwt>
<totfact> 0.46954466E+00</totfact>
</mgrwt>
</event>
<event>
12    6  0.1529770E-007  0.1220730E+04  0.7818608E-02  0.9094903E-01
          2   -1    0    0  501    0  0.00000000000E+00  0.00000000000E+00  0.64530150792E+03  0.64530150792E+03  0.00000000000E+00 0. -1.
         -1   -1    0    0    0  501 -0.00000000000E+00 -0.00000000000E+00 -0.57731956332E+03  0.57731956332E+03  0.00000000000E+00 0.  1.
         24    2    1    2    0    0 -0.92673236548E+02  0.24342710090E+03 -0.48594038831E+02  0.27817172735E+03  0.84693843115E+02 0.  0.
        254    2    1    2    0    0  0.92673236548E+02 -0.24342710090E+03  0.11657598344E+03  0.94444934389E+03  0.90030523771E+03 0.  0.
         23    2    4    4    0    0  0.39974803570E+03  0.10962970952E+03 -0.74028809740E+02  0.43075601385E+03  0.90847749261E+02 0.  0.
         23    2    4    4    0    0 -0.30707479915E+03 -0.35305681042E+03  0.19060479318E+03  0.51369333004E+03  0.92771797936E+02 0.  0.
          2    1    3    3  502    0 -0.83088819970E+02  0.18575138159E+03 -0.21436654147E+01  0.20349919673E+03  0.00000000000E+00 0. -1.
         -1    1    3    3    0  502 -0.95844165782E+01  0.57675719305E+02 -0.46450373416E+02  0.74672530619E+02  0.00000000000E+00 0.  1.
         11    1    5    5    0    0  0.11344893069E+03  0.34918588183E+02  0.19815778496E+02  0.12034381061E+03  0.00000000000E+00 0. -1.
        -11    1    5    5    0    0  0.28629910501E+03  0.74711121340E+02 -0.93844588236E+02  0.31041220324E+03  0.00000000000E+00 0.  1.
          4    1    6    6  503    0 -0.26284111166E+03 -0.25351802538E+03  0.12226245911E+03  0.38510381468E+03  0.00000000000E+00 0. -1.
         -4    1    6    6    0  503 -0.44233687487E+02 -0.99538785038E+02  0.68342334068E+02  0.12858951536E+03  0.00000000000E+00 0.  1.
<mgrwt>
<rscale>  0 0.12207296E+04</rscale>
<asrwt>0</asrwt>
<pdfrwt beam="1">  1        2 0.99277155E-01 0.12207296E+04</pdfrwt>
<pdfrwt beam="2">  1       -1 0.88818394E-01 0.12207296E+04</pdfrwt>
<totfact> 0.63559810E+01</totfact>
</mgrwt>
</event>
<event>
12    6  0.1529770E-007  0.1610818E+04  0.7818608E-02  0.8813930E-01
         -1   -1    0    0    0  501 -0.00000000000E+00  0.00000000000E+00  0.11690021238E+04  0.11690021238E+04  0.00000000000E+00 0.  1.
          2   -1    0    0  501    0  0.00000000000E+00 -0.00000000000E+00 -0.55490347077E+03  0.55490347077E+03  0.00000000000E+00 0. -1.
         24    2    1    2    0    0 -0.89062706917E+02  0.45359726793E+03 -0.10430973095E+03  0.47928407146E+03  0.71763876388E+02 0.  0.
        254    2    1    2    0    0  0.89062706917E+02 -0.45359726793E+03  0.71840838393E+03  0.12446215231E+04  0.90514611103E+03 0.  0.
         23    2    4    4    0    0 -0.25434596168E+03  0.92624411730E+02  0.14564698509E+02  0.28592082115E+03  0.90925440082E+02 0.  0.
         23    2    4    4    0    0  0.34340866860E+03 -0.54622167966E+03  0.70384368542E+03  0.95870070190E+03  0.86159534095E+02 0.  0.
          2    1    3    3  502    0 -0.36791612354E+02  0.31864592943E+03 -0.93730751458E+02  0.33417705614E+03  0.00000000000E+00 0. -1.
         -1    1    3    3    0  502 -0.52271094563E+02  0.13495133850E+03 -0.10578979490E+02  0.14510701532E+03  0.00000000000E+00 0.  1.
         11    1    5    5    0    0 -0.20305498244E+03  0.10729573835E+03 -0.32317394394E+01  0.22968270614E+03  0.00000000000E+00 0.  1.
        -11    1    5    5    0    0 -0.51290979244E+02 -0.14671326617E+02  0.17796437948E+02  0.56238115013E+02  0.00000000000E+00 0. -1.
          2    1    6    6  503    0  0.11062543244E+03 -0.25219727016E+03  0.27917562608E+03  0.39214854274E+03  0.00000000000E+00 0. -1.
         -2    1    6    6    0  503  0.23278323616E+03 -0.29402440950E+03  0.42466805934E+03  0.56655215916E+03  0.00000000000E+00 0.  1.
<mgrwt>
<rscale>  0 0.16108176E+04</rscale>
<asrwt>0</asrwt>
<pdfrwt beam="1">  1        2 0.85369765E-01 0.16108176E+04</pdfrwt>
<pdfrwt beam="2">  1       -1 0.17984648E+00 0.16108176E+04</pdfrwt>
<totfact> 0.12442898E+01</totfact>
</mgrwt>
</event>
<event>
12    6  0.1529770E-007  0.1339953E+04  0.7818608E-02  0.8998468E-01
         -1   -1    0    0    0  501 -0.00000000000E+00  0.00000000000E+00  0.13361214167E+03  0.13361214167E+03  0.00000000000E+00 0.  1.
          2   -1    0    0  501    0  0.00000000000E+00 -0.00000000000E+00 -0.33594912413E+04  0.33594912413E+04  0.00000000000E+00 0. -1.
         24    2    1    2    0    0  0.80106991333E+02 -0.26254463504E+03 -0.15184878829E+04  0.15451594870E+04  0.79784550199E+02 0.  0.
        254    2    1    2    0    0 -0.80106991333E+02  0.26254463504E+03 -0.17073912168E+04  0.19479438960E+04  0.89663473013E+03 0.  0.
         23    2    4    4    0    0  0.13028494873E+03  0.22560673273E+03 -0.59338636045E+02  0.28350437599E+03  0.94768622220E+02 0.  0.
         23    2    4    4    0    0 -0.21039194006E+03  0.36937902312E+02 -0.16480525808E+04  0.16644395200E+04  0.93018437723E+02 0.  0.
          2    1    3    3  502    0  0.77369254540E+02 -0.26303397463E+03 -0.13976027744E+04  0.14242423911E+04  0.00000000000E+00 0. -1.
         -1    1    3    3    0  502  0.27377367932E+01  0.48933958690E+00 -0.12088510843E+03  0.12091709596E+03  0.00000000000E+00 0.  1.
         11    1    5    5    0    0  0.95377779820E+02  0.17273256755E+03 -0.85390149653E+02  0.21499985683E+03  0.00000000000E+00 0.  1.
        -11    1    5    5    0    0  0.34907168908E+02  0.52874165176E+02  0.26051513608E+02  0.68504519161E+02  0.00000000000E+00 0. -1.
          4    1    6    6  503    0 -0.18893411392E+03  0.58625411499E+02 -0.12887706896E+04  0.13038646129E+04  0.00000000000E+00 0. -1.
         -4    1    6    6    0  503 -0.21457826141E+02 -0.21687509186E+02 -0.35928189116E+03  0.36057490716E+03  0.00000000000E+00 0.  1.
<mgrwt>
<rscale>  0 0.13399535E+04</rscale>
<asrwt>0</asrwt>
<pdfrwt beam="1">  1        2 0.51684479E+00 0.13399535E+04</pdfrwt>
<pdfrwt beam="2">  1       -1 0.20555715E-01 0.13399535E+04</pdfrwt>
<totfact> 0.22459595E+01</totfact>
</mgrwt>
</event>
<event>
12    6  0.1529770E-007  0.1520223E+04  0.7818608E-02  0.8871115E-01
         -1   -1    0    0    0  501 -0.00000000000E+00  0.00000000000E+00  0.87881075601E+03  0.87881075601E+03  0.00000000000E+00 0.  1.
          2   -1    0    0  501    0  0.00000000000E+00 -0.00000000000E+00 -0.65744471854E+03  0.65744471854E+03  0.00000000000E+00 0. -1.
         24    2    1    2    0    0  0.13178175703E+03  0.46850658843E+03  0.87546212526E+02  0.50019805375E+03  0.75292089618E+02 0.  0.
        254    2    1    2    0    0 -0.13178175703E+03 -0.46850658843E+03  0.13381982495E+03  0.10360574208E+04  0.90478858236E+03 0.  0.
         23    2    4    4    0    0 -0.41937597041E+03 -0.56115675246E+03  0.14136536275E+03  0.72035103028E+03  0.90268131980E+02 0.  0.
         23    2    4    4    0    0  0.28759421338E+03  0.92650164028E+02 -0.75455378074E+01  0.31570639052E+03  0.91209130084E+02 0.  0.
          2    1    3    3  502    0  0.36489988987E+02  0.21959653757E+03  0.68868515082E+02  0.23301723322E+03  0.00000000000E+00 0. -1.
         -1    1    3    3    0  502  0.95291768042E+02  0.24891005086E+03  0.18677697443E+02  0.26718082053E+03  0.00000000000E+00 0.  1.
         11    1    5    5    0    0 -0.38419933278E+03 -0.50688341277E+03  0.15409298238E+03  0.65443454116E+03  0.00000000000E+00 0.  1.
        -11    1    5    5    0    0 -0.35176637629E+02 -0.54273339693E+02 -0.12727619627E+02  0.65916489118E+02  0.00000000000E+00 0. -1.
          3    1    6    6  503    0  0.25888640705E+03  0.74446454851E+02  0.22530249152E+02  0.27031843911E+03  0.00000000000E+00 0.  1.
         -3    1    6    6    0  503  0.28707806328E+02  0.18203709177E+02 -0.30075786960E+02  0.45387951410E+02  0.00000000000E+00 0. -1.
<mgrwt>
<rscale>  0 0.15202230E+04</rscale>
<asrwt>0</asrwt>
<pdfrwt beam="1">  1        2 0.10114534E+00 0.15202230E+04</pdfrwt>
<pdfrwt beam="2">  1       -1 0.13520166E+00 0.15202230E+04</pdfrwt>
<totfact> 0.22423140E+01</totfact>
</mgrwt>
</event>
<event>
12    6  0.1529770E-007  0.1206774E+04  0.7818608E-02  0.9106948E-01
          2   -1    0    0  501    0  0.00000000000E+00  0.00000000000E+00  0.13937107709E+04  0.13937107709E+04  0.00000000000E+00 0. -1.
         -1   -1    0    0    0  501 -0.00000000000E+00 -0.00000000000E+00 -0.26122776695E+03  0.26122776695E+03  0.00000000000E+00 0.  1.
         24    2    1    2    0    0 -0.59000899639E+02  0.13310535677E+03  0.53988024188E+03  0.56419055454E+03  0.75114340146E+02 0.  0.
        254    2    1    2    0    0  0.59000899639E+02 -0.13310535677E+03  0.59260276207E+03  0.10907479833E+04  0.90407687025E+03 0.  0.
         23    2    4    4    0    0  0.35612906503E+03  0.11982534329E+03  0.15631329016E+02  0.38788232198E+03  0.94985964263E+02 0.  0.
         23    2    4    4    0    0 -0.29712816539E+03 -0.25293070006E+03  0.57697143305E+03  0.70286566133E+03  0.94154222518E+02 0.  0.
          4    1    3    3  502    0 -0.49948234732E+02  0.14236895965E+03  0.49775265932E+03  0.52011677217E+03  0.00000000000E+00 0. -1.
         -3    1    3    3    0  502 -0.90526649071E+01 -0.92636028816E+01  0.42127582557E+02  0.44073782370E+02  0.00000000000E+00 0.  1.
         11    1    5    5    0    0  0.34080620999E+03  0.94065480917E+02  0.29655483860E+02  0.35479097395E+03  0.00000000000E+00 0. -1.
        -11    1    5    5    0    0  0.15322855034E+02  0.25759862368E+02 -0.14024154844E+02  0.33091348034E+02  0.00000000000E+00 0.  1.
          1    1    6    6  503    0 -0.69705499873E+02 -0.11741565956E+03  0.18829502696E+03  0.23259473554E+03  0.00000000000E+00 0. -1.
         -1    1    6    6    0  503 -0.22742266551E+03 -0.13551504050E+03  0.38867640609E+03  0.47027092579E+03  0.00000000000E+00 0.  1.
<mgrwt>
<rscale>  0 0.12067741E+04</rscale>
<asrwt>0</asrwt>
<pdfrwt beam="1">  1        2 0.21441704E+00 0.12067741E+04</pdfrwt>
<pdfrwt beam="2">  1       -1 0.40188888E-01 0.12067741E+04</pdfrwt>
<totfact> 0.98981535E+01</totfact>
</mgrwt>
</event>
<event>
12    6  0.1529770E-007  0.1661244E+04  0.7818608E-02  0.8783782E-01
         -1   -1    0    0    0  501 -0.00000000000E+00  0.00000000000E+00  0.26327863211E+03  0.26327863211E+03  0.00000000000E+00 0.  1.
          2   -1    0    0  501    0  0.00000000000E+00 -0.00000000000E+00 -0.26205418600E+04  0.26205418600E+04  0.00000000000E+00 0. -1.
         24    2    1    2    0    0 -0.24694243127E+03  0.52636912185E+03 -0.67735967311E+03  0.89616372402E+03  0.79046041655E+02 0.  0.
        254    2    1    2    0    0  0.24694243127E+03 -0.52636912185E+03 -0.16799035548E+04  0.19876567681E+04  0.88918977592E+03 0.  0.
         23    2    4    4    0    0  0.56267237653E+03 -0.38705885762E+03 -0.93493978288E+03  0.11615498582E+04  0.93117737348E+02 0.  0.
         23    2    4    4    0    0 -0.31572994526E+03 -0.13931026423E+03 -0.74496377195E+03  0.82610690990E+03  0.91590703706E+02 0.  0.
          2    1    3    3  502    0 -0.22557702256E+03  0.49462145013E+03 -0.65721880517E+03  0.85291965032E+03  0.00000000000E+00 0. -1.
         -1    1    3    3    0  502 -0.21365408706E+02  0.31747671718E+02 -0.20140867937E+02  0.43244073697E+02  0.00000000000E+00 0.  1.
         11    1    5    5    0    0  0.53224488121E+03 -0.38058311670E+03 -0.86162811031E+03  0.10819108664E+04  0.00000000000E+00 0. -1.
        -11    1    5    5    0    0  0.30427495313E+02 -0.64757409159E+01 -0.73311672571E+02  0.79638991873E+02  0.00000000000E+00 0.  1.
          3    1    6    6  503    0 -0.30579662829E+03 -0.12238059907E+03 -0.64498742627E+03  0.72422190587E+03  0.00000000000E+00 0. -1.
         -3    1    6    6    0  503 -0.99333169660E+01 -0.16929665167E+02 -0.99976345686E+02  0.10188500403E+03  0.00000000000E+00 0.  1.
<mgrwt>
<rscale>  0 0.16612437E+04</rscale>
<asrwt>0</asrwt>
<pdfrwt beam="1">  1        2 0.40316028E+00 0.16612437E+04</pdfrwt>
<pdfrwt beam="2">  1       -1 0.40504406E-01 0.16612437E+04</pdfrwt>
<totfact> 0.19194464E+01</totfact>
</mgrwt>
</event>
<event>
12    6  0.1529770E-007  0.1857595E+04  0.7818608E-02  0.8676257E-01
          2   -1    0    0  501    0  0.00000000000E+00  0.00000000000E+00  0.16033213825E+04  0.16033213825E+04  0.00000000000E+00 0. -1.
         -1   -1    0    0    0  501 -0.00000000000E+00 -0.00000000000E+00 -0.53804830156E+03  0.53804830156E+03  0.00000000000E+00 0.  1.
         24    2    1    2    0    0 -0.69377080133E+03 -0.10007430203E+03  0.42837038111E+03  0.82531088500E+03  0.79398254302E+02 0.  0.
        254    2    1    2    0    0  0.69377080133E+03  0.10007430203E+03  0.63690269979E+03  0.13160587990E+04  0.91380135849E+03 0.  0.
         23    2    4    4    0    0  0.90806231408E+03  0.90093710594E+02  0.49959472865E+03  0.10453595775E+04  0.10240952308E+03 0.  0.
         23    2    4    4    0    0 -0.21429151275E+03  0.99805914338E+01  0.13730797114E+03  0.27069922153E+03  0.91674014614E+02 0.  0.
          2    1    3    3  502    0 -0.61907184200E+02 -0.28633125539E+02  0.57221384665E+02  0.89031692092E+02  0.00000000000E+00 0. -1.
         -1    1    3    3    0  502 -0.63186361713E+03 -0.71441176488E+02  0.37114899644E+03  0.73627919291E+03  0.00000000000E+00 0.  1.
         11    1    5    5    0    0  0.68505018283E+03  0.96729890193E+02  0.33882464904E+03  0.77035872647E+03  0.00000000000E+00 0.  1.
        -11    1    5    5    0    0  0.22301213125E+03 -0.66361795985E+01  0.16077007961E+03  0.27500085102E+03  0.00000000000E+00 0. -1.
          3    1    6    6  503    0 -0.12491447509E+03  0.45105948742E+02  0.10525311862E+03  0.16945911506E+03  0.00000000000E+00 0. -1.
         -3    1    6    6    0  503 -0.89377037665E+02 -0.35125357308E+02  0.32054852522E+02  0.10124010647E+03  0.00000000000E+00 0.  1.
<mgrwt>
<rscale>  0 0.18575945E+04</rscale>
<asrwt>0</asrwt>
<pdfrwt beam="1">  1        2 0.24666483E+00 0.18575945E+04</pdfrwt>
<pdfrwt beam="2">  1       -1 0.82776662E-01 0.18575945E+04</pdfrwt>
<totfact> 0.17235632E+01</totfact>
</mgrwt>
</event>
<event>
12    6  0.1529770E-007  0.1534159E+04  0.7818608E-02  0.8862050E-01
          2   -1    0    0  501    0  0.00000000000E+00  0.00000000000E+00  0.22930115425E+04  0.22930115425E+04  0.00000000000E+00 0. -1.
         -1   -1    0    0    0  501 -0.00000000000E+00 -0.00000000000E+00 -0.25661051468E+03  0.25661051468E+03  0.00000000000E+00 0.  1.
         24    2    1    2    0    0 -0.21508848821E+03  0.43239922170E+03  0.48307205007E+03  0.68779304911E+03  0.80427160507E+02 0.  0.
        254    2    1    2    0    0  0.21508848821E+03 -0.43239922170E+03  0.15533289777E+04  0.18618290080E+04  0.90572854516E+03 0.  0.
         23    2    4    4    0    0 -0.20488034489E+03 -0.23145682194E+03  0.10640724560E+03  0.33915311425E+03  0.90300148637E+02 0.  0.
         23    2    4    4    0    0  0.41996883310E+03 -0.20094239976E+03  0.14469217321E+04  0.15226758938E+04  0.90596412159E+02 0.  0.
          4    1    3    3  502    0 -0.10987352441E+03  0.24091849580E+03  0.31891080554E+03  0.41450936645E+03  0.00000000000E+00 0. -1.
         -3    1    3    3    0  502 -0.10521496381E+03  0.19148072590E+03  0.16416124454E+03  0.27328368266E+03  0.00000000000E+00 0.  1.
         11    1    5    5    0    0 -0.13163518180E+03 -0.94905250865E+02  0.25255011464E+02  0.16423350247E+03  0.00000000000E+00 0. -1.
        -11    1    5    5    0    0 -0.73245163085E+02 -0.13655157108E+03  0.81152234138E+02  0.17491961178E+03  0.00000000000E+00 0.  1.
          3    1    6    6  503    0  0.22566459458E+03 -0.87736811677E+02  0.88234461446E+03  0.91496135221E+03  0.00000000000E+00 0. -1.
         -3    1    6    6    0  503  0.19430423853E+03 -0.11320558808E+03  0.56457711764E+03  0.60771454158E+03  0.00000000000E+00 0.  1.
<mgrwt>
<rscale>  0 0.15341589E+04</rscale>
<asrwt>0</asrwt>
<pdfrwt beam="1">  1        2 0.35277099E+00 0.15341589E+04</pdfrwt>
<pdfrwt beam="2">  1       -1 0.39478542E-01 0.15341589E+04</pdfrwt>
<totfact> 0.31373850E+01</totfact>
</mgrwt>
</event>
<event>
12    6  0.1529770E-007  0.1624340E+04  0.7818608E-02  0.8805733E-01
          2   -1    0    0  501    0  0.00000000000E+00  0.00000000000E+00  0.16316298499E+04  0.16316298499E+04  0.00000000000E+00 0. -1.
         -1   -1    0    0    0  501 -0.00000000000E+00 -0.00000000000E+00 -0.40427059389E+03  0.40427059389E+03  0.00000000000E+00 0.  1.
         24    2    1    2    0    0 -0.15439944561E+03  0.14512358000E+03 -0.22090747266E+03  0.31687720649E+03  0.81920755842E+02 0.  0.
        254    2    1    2    0    0  0.15439944561E+03 -0.14512358000E+03  0.14482667287E+04  0.17190232373E+04  0.90147896853E+03 0.  0.
         23    2    4    4    0    0  0.58144825066E+02  0.85745091851E+02 -0.85642776868E+02  0.16227697251E+03  0.90918035167E+02 0.  0.
         23    2    4    4    0    0  0.96254620540E+02 -0.23086867185E+03  0.15339095055E+04  0.15567462648E+04  0.89528018690E+02 0.  0.
          2    1    3    3  502    0 -0.40151591263E+02  0.11955956898E+02 -0.11037277151E+02  0.43323396372E+02  0.00000000000E+00 0. -1.
         -1    1    3    3    0  502 -0.11424785434E+03  0.13316762310E+03 -0.20987019551E+03  0.27355381012E+03  0.00000000000E+00 0.  1.
         11    1    5    5    0    0 -0.22297838521E+02  0.16774036075E+02 -0.35208317865E+02  0.44924242184E+02  0.00000000000E+00 0.  1.
        -11    1    5    5    0    0  0.80442663587E+02  0.68971055776E+02 -0.50434459003E+02  0.11735273032E+03  0.00000000000E+00 0. -1.
          2    1    6    6  503    0  0.74626645696E+02 -0.69976602436E+02  0.52766957984E+03  0.53749515963E+03  0.00000000000E+00 0. -1.
         -2    1    6    6    0  503  0.21627974844E+02 -0.16089206941E+03  0.10062399257E+04  0.10192511051E+04  0.00000000000E+00 0.  1.
<mgrwt>
<rscale>  0 0.16243398E+04</rscale>
<asrwt>0</asrwt>
<pdfrwt beam="1">  1        2 0.25101997E+00 0.16243398E+04</pdfrwt>
<pdfrwt beam="2">  1       -1 0.62195477E-01 0.16243398E+04</pdfrwt>
<totfact> 0.30612300E+01</totfact>
</mgrwt>
</event>
<event>
12    6  0.1529770E-007  0.1179319E+04  0.7818608E-02  0.9131154E-01
          2   -1    0    0  501    0  0.00000000000E+00  0.00000000000E+00  0.11110757215E+04  0.11110757215E+04  0.00000000000E+00 0. -1.
         -1   -1    0    0    0  501 -0.00000000000E+00 -0.00000000000E+00 -0.31293826735E+03  0.31293826735E+03  0.00000000000E+00 0.  1.
         24    2    1    2    0    0 -0.65286552478E+02  0.12269232916E+03  0.36344539258E+03  0.39728977450E+03  0.80192705166E+02 0.  0.
        254    2    1    2    0    0  0.65286552478E+02 -0.12269232916E+03  0.43469206158E+03  0.10267242144E+04  0.91972261164E+03 0.  0.
         23    2    4    4    0    0  0.98910188490E+02  0.27067848579E+03  0.52975966594E+03  0.61011311523E+03  0.92426412103E+02 0.  0.
         23    2    4    4    0    0 -0.33623636012E+02 -0.39337081495E+03 -0.95067604366E+02  0.41661109913E+03  0.93036614080E+02 0.  0.
          2    1    3    3  502    0 -0.53733662624E+02  0.12437319173E+03  0.25995174160E+03  0.29313973678E+03  0.00000000000E+00 0. -1.
         -1    1    3    3    0  502 -0.11552889854E+02 -0.16808625626E+01  0.10349365098E+03  0.10415003772E+03  0.00000000000E+00 0.  1.
         11    1    5    5    0    0  0.74414006738E+02  0.17904382334E+03  0.43393277978E+03  0.47528075118E+03  0.00000000000E+00 0.  1.
        -11    1    5    5    0    0  0.24496181753E+02  0.91634662447E+02  0.95826886164E+02  0.13483236405E+03  0.00000000000E+00 0. -1.
          1    1    6    6  503    0 -0.56577121989E+02 -0.36352382276E+03 -0.84036647039E+02  0.37737607038E+03  0.00000000000E+00 0.  1.
         -1    1    6    6    0  503  0.22953485976E+02 -0.29846992190E+02 -0.11030957327E+02  0.39235028747E+02  0.00000000000E+00 0. -1.
<mgrwt>
<rscale>  0 0.11793186E+04</rscale>
<asrwt>0</asrwt>
<pdfrwt beam="1">  1        2 0.17093473E+00 0.11793186E+04</pdfrwt>
<pdfrwt beam="2">  1       -1 0.48144349E-01 0.11793186E+04</pdfrwt>
<totfact> 0.10416781E+02</totfact>
</mgrwt>
</event>
<event>
12    6  0.1529770E-007  0.1354188E+04  0.7818608E-02  0.8987664E-01
          2   -1    0    0  501    0  0.00000000000E+00  0.00000000000E+00  0.44321534131E+04  0.44321534131E+04  0.00000000000E+00 0. -1.
         -1   -1    0    0    0  501 -0.00000000000E+00 -0.00000000000E+00 -0.10343865078E+03  0.10343865078E+03  0.00000000000E+00 0.  1.
         24    2    1    2    0    0  0.20765625792E+03  0.11725380405E+03  0.28572270033E+03  0.38122673678E+03  0.82624374941E+02 0.  0.
        254    2    1    2    0    0 -0.20765625792E+03 -0.11725380405E+03  0.40429920620E+04  0.41543653271E+04  0.92525503601E+03 0.  0.
         23    2    4    4    0    0 -0.35528263810E+03  0.22514822521E+03  0.31931621416E+04  0.32219465566E+04  0.87964054684E+02 0.  0.
         23    2    4    4    0    0  0.14762638018E+03 -0.34240202926E+03  0.84982992044E+03  0.93241877053E+03  0.90339206234E+02 0.  0.
          2    1    3    3  502    0  0.18798910325E+03  0.12147662204E+03  0.28317671143E+03  0.36095085889E+03  0.00000000000E+00 0. -1.
         -1    1    3    3    0  502  0.19667154674E+02 -0.42228179885E+01  0.25459889090E+01  0.20275877891E+02  0.00000000000E+00 0.  1.
         11    1    5    5    0    0 -0.82462523881E+02  0.99812960795E+02  0.95130067111E+03  0.96007065461E+03  0.00000000000E+00 0. -1.
        -11    1    5    5    0    0 -0.27282011422E+03  0.12533526442E+03  0.22418614705E+04  0.22618759020E+04  0.00000000000E+00 0.  1.
          2    1    6    6  503    0 -0.87422735456E+01 -0.18733165064E+01  0.20394769671E+02  0.22268437112E+02  0.00000000000E+00 0. -1.
         -2    1    6    6    0  503  0.15636865373E+03 -0.34052871276E+03  0.82943515077E+03  0.91015033342E+03  0.00000000000E+00 0.  1.
<mgrwt>
<rscale>  0 0.13541875E+04</rscale>
<asrwt>0</asrwt>
<pdfrwt beam="1">  1        2 0.68186961E+00 0.13541875E+04</pdfrwt>
<pdfrwt beam="2">  1       -1 0.15913642E-01 0.13541875E+04</pdfrwt>
<totfact> 0.49620729E+00</totfact>
</mgrwt>
</event>
<event>
12    6  0.1529770E-007  0.2043805E+04  0.7818608E-02  0.8586410E-01
         -1   -1    0    0    0  501 -0.00000000000E+00  0.00000000000E+00  0.59352112640E+03  0.59352112640E+03  0.00000000000E+00 0.  1.
          2   -1    0    0  501    0  0.00000000000E+00 -0.00000000000E+00 -0.17594741404E+04  0.17594741404E+04  0.00000000000E+00 0. -1.
         24    2    1    2    0    0 -0.12093488961E+03  0.12229284003E+03  0.45164641857E+03  0.49132511576E+03  0.88516076066E+02 0.  0.
        254    2    1    2    0    0  0.12093488961E+03 -0.12229284003E+03 -0.16175994326E+04  0.18616701511E+04  0.90532151239E+03 0.  0.
         23    2    4    4    0    0  0.37234113791E+03  0.11995724323E+01 -0.14960446382E+04  0.15443113043E+04  0.90047116573E+02 0.  0.
         23    2    4    4    0    0 -0.25140624830E+03 -0.12349241247E+03 -0.12155479441E+03  0.31735884677E+03  0.86519315519E+02 0.  0.
          2    1    3    3  502    0 -0.87423871876E+02  0.44009679131E+02  0.16057709453E+03  0.18805528048E+03  0.00000000000E+00 0. -1.
         -1    1    3    3    0  502 -0.33511017734E+02  0.78283160904E+02  0.29106932404E+03  0.30326983528E+03  0.00000000000E+00 0.  1.
         11    1    5    5    0    0  0.99273348992E+02  0.33476762100E+02 -0.32739446779E+03  0.34374849667E+03  0.00000000000E+00 0.  1.
        -11    1    5    5    0    0  0.27306778891E+03 -0.32277189668E+02 -0.11686501704E+04  0.12005628076E+04  0.00000000000E+00 0. -1.
          2    1    6    6  503    0 -0.25476035032E+03 -0.11988439981E+03 -0.12796566956E+03  0.30927385599E+03  0.00000000000E+00 0. -1.
         -2    1    6    6    0  503  0.33541020251E+01 -0.36080126598E+01  0.64108751462E+01  0.80849907785E+01  0.00000000000E+00 0.  1.
<mgrwt>
<rscale>  0 0.20438053E+04</rscale>
<asrwt>0</asrwt>
<pdfrwt beam="1">  1        2 0.27068833E+00 0.20438053E+04</pdfrwt>
<pdfrwt beam="2">  1       -1 0.91310942E-01 0.20438053E+04</pdfrwt>
<totfact> 0.11207935E+01</totfact>
</mgrwt>
</event>
<event>
12    6  0.1529770E-007  0.1463615E+04  0.7818608E-02  0.8909016E-01
          2   -1    0    0  501    0  0.00000000000E+00  0.00000000000E+00  0.10921983375E+04  0.10921983375E+04  0.00000000000E+00 0. -1.
         -1   -1    0    0    0  501 -0.00000000000E+00 -0.00000000000E+00 -0.49033405388E+03  0.49033405388E+03  0.00000000000E+00 0.  1.
         24    2    1    2    0    0  0.35356709782E+03  0.14926947515E+03 -0.62661164651E+02  0.39697098747E+03  0.79802722145E+02 0.  0.
        254    2    1    2    0    0 -0.35356709782E+03 -0.14926947515E+03  0.66452544828E+03  0.11855614039E+04  0.90369834689E+03 0.  0.
         23    2    4    4    0    0 -0.18061573953E+03 -0.25887553449E+03  0.83965208142E+03  0.90151091032E+03  0.89820464638E+02 0.  0.
         23    2    4    4    0    0 -0.17295135830E+03  0.10960605934E+03 -0.17512663314E+03  0.28405049359E+03  0.89942674499E+02 0.  0.
          2    1    3    3  502    0  0.61349958062E+02  0.27648354771E+02  0.19318557142E+02  0.70010395841E+02  0.00000000000E+00 0. -1.
         -1    1    3    3    0  502  0.29221713976E+03  0.12162112038E+03 -0.81979721793E+02  0.32696059163E+03  0.00000000000E+00 0.  1.
         11    1    5    5    0    0  0.88206154567E+01 -0.13316997670E+02  0.23459536224E+02  0.28381253035E+02  0.00000000000E+00 0. -1.
        -11    1    5    5    0    0 -0.18943635498E+03 -0.24555853682E+03  0.81619254520E+03  0.87312965728E+03  0.00000000000E+00 0.  1.
          2    1    6    6  503    0 -0.10221147985E+03  0.13067077059E+02 -0.68274925933E+02  0.12360987269E+03  0.00000000000E+00 0. -1.
         -2    1    6    6    0  503 -0.70739878446E+02  0.96538982276E+02 -0.10685170721E+03  0.16044062090E+03  0.00000000000E+00 0.  1.
<mgrwt>
<rscale>  0 0.14636148E+04</rscale>
<asrwt>0</asrwt>
<pdfrwt beam="1">  1        2 0.16803051E+00 0.14636148E+04</pdfrwt>
<pdfrwt beam="2">  1       -1 0.75436009E-01 0.14636148E+04</pdfrwt>
<totfact> 0.43004004E+01</totfact>
</mgrwt>
</event>
<event>
12    6  0.1529770E-007  0.1279371E+04  0.7818608E-02  0.9046086E-01
          2   -1    0    0  501    0  0.00000000000E+00  0.00000000000E+00  0.17229113548E+04  0.17229113548E+04  0.00000000000E+00 0. -1.
         -1   -1    0    0    0  501 -0.00000000000E+00 -0.00000000000E+00 -0.23750359293E+03  0.23750359293E+03  0.00000000000E+00 0.  1.
         24    2    1    2    0    0  0.11226457680E+03  0.29116944523E+03  0.30015103514E+03  0.44004088126E+03  0.78500651280E+02 0.  0.
        254    2    1    2    0    0 -0.11226457680E+03 -0.29116944523E+03  0.11852567268E+04  0.15203740665E+04  0.89962259459E+03 0.  0.
         23    2    4    4    0    0 -0.34057844788E+03  0.17624610617E+03  0.32270539260E+03  0.50922956807E+03  0.90108897885E+02 0.  0.
         23    2    4    4    0    0  0.22831387108E+03 -0.46741555140E+03  0.86255133416E+03  0.10111444984E+04  0.88396104111E+02 0.  0.
          2    1    3    3  502    0  0.11625476897E+03  0.28721517420E+03  0.27505027755E+03  0.41431917984E+03  0.00000000000E+00 0. -1.
         -1    1    3    3    0  502 -0.39901921732E+01  0.39542710281E+01  0.25100757586E+02  0.25721701427E+02  0.00000000000E+00 0.  1.
         11    1    5    5    0    0 -0.89797650946E+02  0.83742392697E+02  0.69743772172E+02  0.14121119009E+03  0.00000000000E+00 0. -1.
        -11    1    5    5    0    0 -0.25078079694E+03  0.92503713474E+02  0.25296162043E+03  0.36801837798E+03  0.00000000000E+00 0.  1.
          3    1    6    6  503    0  0.23432489612E+03 -0.46198659022E+03  0.83691804309E+03  0.98426194549E+03  0.00000000000E+00 0. -1.
         -3    1    6    6    0  503 -0.60110250388E+01 -0.54289611765E+01  0.25633291068E+02  0.26882552937E+02  0.00000000000E+00 0.  1.
<mgrwt>
<rscale>  0 0.12793712E+04</rscale>
<asrwt>0</asrwt>
<pdfrwt beam="1">  1        2 0.26506328E+00 0.12793712E+04</pdfrwt>
<pdfrwt beam="2">  1       -1 0.36539015E-01 0.12793712E+04</pdfrwt>
<totfact> 0.76469125E+01</totfact>
</mgrwt>
</event>
<event>
12    6  0.1529770E-007  0.1711933E+04  0.7818608E-02  0.8754588E-01
         -1   -1    0    0    0  501 -0.00000000000E+00  0.00000000000E+00  0.94418284441E+03  0.94418284441E+03  0.00000000000E+00 0.  1.
          2   -1    0    0  501    0  0.00000000000E+00 -0.00000000000E+00 -0.77599193139E+03  0.77599193139E+03  0.00000000000E+00 0. -1.
         24    2    1    2    0    0  0.10224038373E+03  0.52160841219E+03  0.37750502543E+03  0.65670595577E+03  0.78893829795E+02 0.  0.
        254    2    1    2    0    0 -0.10224038373E+03 -0.52160841219E+03 -0.20931411241E+03  0.10634688200E+04  0.89700897531E+03 0.  0.
         23    2    4    4    0    0 -0.26933265104E+02  0.18569245744E+03  0.15612861335E+03  0.25863926934E+03  0.85504609367E+02 0.  0.
         23    2    4    4    0    0 -0.75307118627E+02 -0.70730086963E+03 -0.36544272576E+03  0.80482955069E+03  0.90865491560E+02 0.  0.
          2    1    3    3  502    0 -0.10969904584E+02  0.17204546361E+02  0.14483202940E+02  0.25021958146E+02  0.00000000000E+00 0. -1.
         -1    1    3    3    0  502  0.11321028831E+03  0.50440386583E+03  0.36302182249E+03  0.63168399762E+03  0.00000000000E+00 0.  1.
         11    1    5    5    0    0 -0.52242252721E+02  0.73713509201E+02  0.55930587219E+02  0.10625989363E+03  0.00000000000E+00 0.  1.
        -11    1    5    5    0    0  0.25308987618E+02  0.11197894824E+03  0.10019802613E+03  0.15237937571E+03  0.00000000000E+00 0. -1.
          3    1    6    6  503    0 -0.52514275475E+02 -0.61103914959E+03 -0.34550216402E+03  0.70391642742E+03  0.00000000000E+00 0.  1.
         -3    1    6    6    0  503 -0.22792843152E+02 -0.96261720040E+02 -0.19940561742E+02  0.10091312326E+03  0.00000000000E+00 0. -1.
<mgrwt>
<rscale>  0 0.17119326E+04</rscale>
<asrwt>0</asrwt>
<pdfrwt beam="1">  1        2 0.11938338E+00 0.17119326E+04</pdfrwt>
<pdfrwt beam="2">  1       -1 0.14525890E+00 0.17119326E+04</pdfrwt>
<totfact> 0.14803939E+01</totfact>
</mgrwt>
</event>
<event>
12    6  0.1529770E-007  0.2129817E+04  0.7818608E-02  0.8548221E-01
          2   -1    0    0  501    0  0.00000000000E+00  0.00000000000E+00  0.15533416965E+04  0.15533416965E+04  0.00000000000E+00 0. -1.
         -1   -1    0    0    0  501 -0.00000000000E+00 -0.00000000000E+00 -0.73005818657E+03  0.73005818657E+03  0.00000000000E+00 0.  1.
         24    2    1    2    0    0 -0.64882359743E+03  0.53990624028E+03  0.57799797902E+03  0.10261813063E+04  0.80595289742E+02 0.  0.
        254    2    1    2    0    0  0.64882359743E+03 -0.53990624028E+03  0.24528553088E+03  0.12572185767E+04  0.89886748144E+03 0.  0.
         23    2    4    4    0    0  0.72731563451E+03 -0.42088532363E+03  0.47684464283E+03  0.97054156829E+03  0.91856597705E+02 0.  0.
         23    2    4    4    0    0 -0.78492037075E+02 -0.11902091665E+03 -0.23155911196E+03  0.28667700845E+03  0.90758505727E+02 0.  0.
          4    1    3    3  502    0 -0.44126363216E+03  0.35302644320E+03  0.42998992292E+03  0.71009337166E+03  0.00000000000E+00 0. -1.
         -3    1    3    3    0  502 -0.20755996527E+03  0.18687979708E+03  0.14800805610E+03  0.31608793462E+03  0.00000000000E+00 0.  1.
         11    1    5    5    0    0  0.74023706879E+02 -0.18681600600E+02  0.25737114046E+02  0.80566186583E+02  0.00000000000E+00 0.  1.
        -11    1    5    5    0    0  0.65329192763E+03 -0.40220372303E+03  0.45110752879E+03  0.88997538171E+03  0.00000000000E+00 0. -1.
          1    1    6    6  503    0 -0.82348217941E+02 -0.52314907494E+02 -0.10349412312E+03  0.14222908304E+03  0.00000000000E+00 0. -1.
         -1    1    6    6    0  503  0.38561808658E+01 -0.66706009157E+02 -0.12806498884E+03  0.14444792541E+03  0.00000000000E+00 0.  1.
<mgrwt>
<rscale>  0 0.21298167E+04</rscale>
<asrwt>0</asrwt>
<pdfrwt beam="1">  1        2 0.23897565E+00 0.21298167E+04</pdfrwt>
<pdfrwt beam="2">  1       -1 0.11231664E+00 0.21298167E+04</pdfrwt>
<totfact> 0.90093983E+00</totfact>
</mgrwt>
</event>
<event>
12    6  0.1529770E-007  0.2888065E+04  0.7818608E-02  0.8276437E-01
         -1   -1    0    0    0  501 -0.00000000000E+00  0.00000000000E+00  0.73058046178E+03  0.73058046178E+03  0.00000000000E+00 0.  1.
          2   -1    0    0  501    0  0.00000000000E+00 -0.00000000000E+00 -0.28542091724E+04  0.28542091724E+04  0.00000000000E+00 0. -1.
         24    2    1    2    0    0 -0.72791138003E+03 -0.61870155917E+03  0.14241931758E+03  0.96943824289E+03  0.82949673014E+02 0.  0.
        254    2    1    2    0    0  0.72791138003E+03  0.61870155917E+03 -0.22660480282E+04  0.26153513913E+04  0.89019247212E+03 0.  0.
         23    2    4    4    0    0  0.74719268051E+02  0.93122523063E+02  0.40812900019E+02  0.15913463564E+03  0.96970955091E+02 0.  0.
         23    2    4    4    0    0  0.65319211198E+03  0.52557903610E+03 -0.23068609283E+04  0.24562167557E+04  0.92196259901E+02 0.  0.
          4    1    3    3  502    0 -0.65048416191E+02 -0.29402509350E+02  0.16964446395E+01  0.71405055350E+02  0.00000000000E+00 0. -1.
         -3    1    3    3    0  502 -0.66286296384E+03 -0.58929904982E+03  0.14072287294E+03  0.89803318754E+03  0.00000000000E+00 0.  1.
         11    1    5    5    0    0  0.37048391073E+02  0.98359572183E+01 -0.25645205122E+02  0.46119473992E+02  0.00000000000E+00 0. -1.
        -11    1    5    5    0    0  0.37670876977E+02  0.83286565845E+02  0.66458105141E+02  0.11301516164E+03  0.00000000000E+00 0.  1.
          1    1    6    6  503    0  0.46300326150E+03  0.42357348621E+03 -0.17329226238E+04  0.18430429562E+04  0.00000000000E+00 0. -1.
         -1    1    6    6    0  503  0.19018885048E+03  0.10200554989E+03 -0.57393830449E+03  0.61317379952E+03  0.00000000000E+00 0.  1.
<mgrwt>
<rscale>  0 0.28880647E+04</rscale>
<asrwt>0</asrwt>
<pdfrwt beam="1">  1        2 0.43910911E+00 0.28880647E+04</pdfrwt>
<pdfrwt beam="2">  1       -1 0.11239699E+00 0.28880647E+04</pdfrwt>
<totfact> 0.15250739E+00</totfact>
</mgrwt>
</event>
<event>
12    6  0.1529770E-007  0.2061288E+04  0.7818608E-02  0.8578491E-01
          2   -1    0    0  501    0  0.00000000000E+00  0.00000000000E+00  0.16743087007E+04  0.16743087007E+04  0.00000000000E+00 0. -1.
         -1   -1    0    0    0  501 -0.00000000000E+00 -0.00000000000E+00 -0.63442744541E+03  0.63442744541E+03  0.00000000000E+00 0.  1.
         24    2    1    2    0    0 -0.50888871853E+03  0.62614244343E+03  0.64669218425E+03  0.10372401568E+04  0.81451055818E+02 0.  0.
        254    2    1    2    0    0  0.50888871853E+03 -0.62614244343E+03  0.39318907106E+03  0.12714959893E+04  0.90060108697E+03 0.  0.
         23    2    4    4    0    0  0.51811024231E+03 -0.77014558745E+03  0.51044129257E+03  0.10633160618E+04  0.92348714576E+02 0.  0.
         23    2    4    4    0    0 -0.92215237822E+01  0.14400314402E+03 -0.11725222151E+03  0.20817992748E+03  0.93642174089E+02 0.  0.
          4    1    3    3  502    0 -0.19927615296E+03  0.20952070176E+03  0.19116132216E+03  0.34663029396E+03  0.00000000000E+00 0. -1.
         -3    1    3    3    0  502 -0.30961256556E+03  0.41662174168E+03  0.45553086210E+03  0.69060986288E+03  0.00000000000E+00 0.  1.
         11    1    5    5    0    0  0.46697343682E+03 -0.71519217578E+03  0.44199303473E+03  0.96172859048E+03  0.00000000000E+00 0.  1.
        -11    1    5    5    0    0  0.51136805483E+02 -0.54953411664E+02  0.68448257838E+02  0.10158747132E+03  0.00000000000E+00 0. -1.
          3    1    6    6  503    0 -0.24420197633E+02  0.11209005628E+03 -0.12736638653E+03  0.17141389438E+03  0.00000000000E+00 0. -1.
         -3    1    6    6    0  503  0.15198673850E+02  0.31913087734E+02  0.10114165018E+02  0.36766033095E+02  0.00000000000E+00 0.  1.
<mgrwt>
<rscale>  0 0.20612883E+04</rscale>
<asrwt>0</asrwt>
<pdfrwt beam="1">  1        2 0.25758595E+00 0.20612883E+04</pdfrwt>
<pdfrwt beam="2">  1       -1 0.97604223E-01 0.20612883E+04</pdfrwt>
<totfact> 0.10749250E+01</totfact>
</mgrwt>
</event>
<event>
12    6  0.1529770E-007  0.1574063E+04  0.7818608E-02  0.8836642E-01
          2   -1    0    0  501    0  0.00000000000E+00  0.00000000000E+00  0.27996805288E+04  0.27996805288E+04  0.00000000000E+00 0. -1.
         -1   -1    0    0    0  501 -0.00000000000E+00 -0.00000000000E+00 -0.22124616967E+03  0.22124616967E+03  0.00000000000E+00 0.  1.
         24    2    1    2    0    0 -0.29649408197E+01 -0.19448448962E+02 -0.14088428848E+03  0.16407495033E+03  0.81762910550E+02 0.  0.
        254    2    1    2    0    0  0.29649408197E+01  0.19448448962E+02  0.27193186476E+04  0.28568517481E+04  0.87551183349E+03 0.  0.
         23    2    4    4    0    0  0.11914378259E+03 -0.48207902405E+02  0.26870049944E+04  0.26914039704E+04  0.84499995305E+02 0.  0.
         23    2    4    4    0    0 -0.11617884177E+03  0.67656351367E+02  0.32313653197E+02  0.16544777772E+03  0.90850920833E+02 0.  0.
          4    1    3    3  502    0  0.31366397040E+01  0.30837114702E+02 -0.35357639335E+02  0.47020514790E+02  0.00000000000E+00 0. -1.
         -3    1    3    3    0  502 -0.61015805237E+01 -0.50285563665E+02 -0.10552664915E+03  0.11705443554E+03  0.00000000000E+00 0.  1.
         11    1    5    5    0    0  0.66525631419E+01 -0.33966046683E+02  0.99625930208E+03  0.99686034423E+03  0.00000000000E+00 0. -1.
        -11    1    5    5    0    0  0.11249121945E+03 -0.14241855722E+02  0.16907456923E+04  0.16945436262E+04  0.00000000000E+00 0.  1.
          3    1    6    6  503    0 -0.13340530732E+02  0.89517957833E+01  0.43630105392E+02  0.46493983530E+02  0.00000000000E+00 0. -1.
         -3    1    6    6    0  503 -0.10283831104E+03  0.58704555584E+02 -0.11316452195E+02  0.11895379419E+03  0.00000000000E+00 0.  1.
<mgrwt>
<rscale>  0 0.15740630E+04</rscale>
<asrwt>0</asrwt>
<pdfrwt beam="1">  1        2 0.43072006E+00 0.15740630E+04</pdfrwt>
<pdfrwt beam="2">  1       -1 0.34037874E-01 0.15740630E+04</pdfrwt>
<totfact> 0.20739575E+01</totfact>
</mgrwt>
</event>
<event>
12    6  0.1529770E-007  0.3185486E+04  0.7818608E-02  0.8192661E-01
         -1   -1    0    0    0  501 -0.00000000000E+00  0.00000000000E+00  0.10532461812E+04  0.10532461812E+04  0.00000000000E+00 0.  1.
          2   -1    0    0  501    0  0.00000000000E+00 -0.00000000000E+00 -0.24085828415E+04  0.24085828415E+04  0.00000000000E+00 0. -1.
         24    2    1    2    0    0  0.21164122646E+03 -0.13539723189E+04 -0.11830976769E+04  0.18123082002E+04  0.81901467358E+02 0.  0.
        254    2    1    2    0    0 -0.21164122646E+03  0.13539723189E+04 -0.17223898333E+03  0.16495208225E+04  0.90178690794E+03 0.  0.
         23    2    4    4    0    0 -0.52123663829E+03  0.51453439755E+03 -0.12900836032E+03  0.74932080044E+03  0.91680017333E+02 0.  0.
         23    2    4    4    0    0  0.30959541183E+03  0.83943792137E+03 -0.43230623003E+02  0.90020002206E+03  0.89363583686E+02 0.  0.
          2    1    3    3  502    0  0.21325611425E+03 -0.12217293553E+04 -0.10558317809E+04  0.16287668763E+04  0.00000000000E+00 0. -1.
         -1    1    3    3    0  502 -0.16148877902E+01 -0.13224296361E+03 -0.12726589606E+03  0.18354132392E+03  0.00000000000E+00 0.  1.
         11    1    5    5    0    0 -0.64555396665E+02  0.10340736219E+03 -0.23569071445E+01  0.12192635813E+03  0.00000000000E+00 0.  1.
        -11    1    5    5    0    0 -0.45668124163E+03  0.41112703536E+03 -0.12665145318E+03  0.62739444231E+03  0.00000000000E+00 0. -1.
          1    1    6    6  503    0  0.22988738751E+03  0.62060615757E+03 -0.71179820153E+02  0.66563261680E+03  0.00000000000E+00 0. -1.
         -1    1    6    6    0  503  0.79708024318E+02  0.21883176380E+03  0.27949197150E+02  0.23456740526E+03  0.00000000000E+00 0.  1.
<mgrwt>
<rscale>  0 0.31854863E+04</rscale>
<asrwt>0</asrwt>
<pdfrwt beam="1">  1        2 0.37055120E+00 0.31854863E+04</pdfrwt>
<pdfrwt beam="2">  1       -1 0.16203788E+00 0.31854863E+04</pdfrwt>
<totfact> 0.10622280E+00</totfact>
</mgrwt>
</event>
<event>
12    6  0.1529770E-007  0.1201109E+04  0.7818608E-02  0.9111886E-01
         -1   -1    0    0    0  501 -0.00000000000E+00  0.00000000000E+00  0.28058074069E+03  0.28058074069E+03  0.00000000000E+00 0.  1.
          2   -1    0    0  501    0  0.00000000000E+00 -0.00000000000E+00 -0.12854257118E+04  0.12854257118E+04  0.00000000000E+00 0. -1.
         24    2    1    2    0    0  0.72133245840E+02  0.10866051640E+03 -0.48709154902E+03  0.51025524306E+03  0.78050771646E+02 0.  0.
        254    2    1    2    0    0 -0.72133245840E+02 -0.10866051640E+03 -0.51775342213E+03  0.10557512095E+04  0.91078630711E+03 0.  0.
         23    2    4    4    0    0 -0.17697421884E+03 -0.12767592339E+03  0.20894535644E+03  0.31572630904E+03  0.91672922355E+02 0.  0.
         23    2    4    4    0    0  0.10484097300E+03  0.19015406988E+02 -0.72669877857E+03  0.74002490044E+03  0.90512558141E+02 0.  0.
          2    1    3    3  502    0  0.62890601909E+02  0.61083444737E+02 -0.40942713884E+03  0.41870872578E+03  0.00000000000E+00 0. -1.
         -1    1    3    3    0  502  0.92426439312E+01  0.47577071667E+02 -0.77664410185E+02  0.91546517272E+02  0.00000000000E+00 0.  1.
         11    1    5    5    0    0 -0.10372614726E+02 -0.38011519068E+02  0.89218026305E+01  0.40398827710E+02  0.00000000000E+00 0.  1.
        -11    1    5    5    0    0 -0.16660160412E+03 -0.89664404324E+02  0.20002355381E+03  0.27532748133E+03  0.00000000000E+00 0. -1.
          2    1    6    6  503    0  0.94950457435E+02 -0.22026387549E+02 -0.49289831827E+03  0.50244353241E+03  0.00000000000E+00 0. -1.
         -2    1    6    6    0  503  0.98905155653E+01  0.41041794537E+02 -0.23380046030E+03  0.23758136803E+03  0.00000000000E+00 0.  1.
<mgrwt>
<rscale>  0 0.12011090E+04</rscale>
<asrwt>0</asrwt>
<pdfrwt beam="1">  1        2 0.19775780E+00 0.12011090E+04</pdfrwt>
<pdfrwt beam="2">  1       -1 0.43166268E-01 0.12011090E+04</pdfrwt>
<totfact> 0.10028848E+02</totfact>
</mgrwt>
</event>
<event>
12    6  0.1529770E-007  0.1351188E+04  0.7818608E-02  0.8989929E-01
         -1   -1    0    0    0  501 -0.00000000000E+00  0.00000000000E+00  0.15349482119E+03  0.15349482119E+03  0.00000000000E+00 0.  1.
          2   -1    0    0  501    0  0.00000000000E+00 -0.00000000000E+00 -0.29735678021E+04  0.29735678021E+04  0.00000000000E+00 0. -1.
         24    2    1    2    0    0  0.18235601817E+03 -0.26962511480E+03 -0.11773028574E+04  0.12241372149E+04  0.80737122137E+02 0.  0.
        254    2    1    2    0    0 -0.18235601817E+03  0.26962511480E+03 -0.16427701235E+04  0.19029254084E+04  0.90359283497E+03 0.  0.
         23    2    4    4    0    0  0.22567464644E+03 -0.15698785655E+03 -0.23340631867E+03  0.37221098386E+03  0.92131828185E+02 0.  0.
         23    2    4    4    0    0 -0.40803066461E+03  0.42661297135E+03 -0.14093638048E+04  0.15307144246E+04  0.91064068422E+02 0.  0.
          4    1    3    3  502    0  0.94918950549E+02 -0.13170080434E+03 -0.44072255919E+03  0.46967125015E+03  0.00000000000E+00 0. -1.
         -3    1    3    3    0  502  0.87437067622E+02 -0.13792431046E+03 -0.73658029823E+03  0.75446596474E+03  0.00000000000E+00 0.  1.
         11    1    5    5    0    0  0.11461613779E+03 -0.55133398561E+02 -0.16056757160E+03  0.20483773023E+03  0.00000000000E+00 0.  1.
        -11    1    5    5    0    0  0.11105850865E+03 -0.10185445799E+03 -0.72838747074E+02  0.16737325363E+03  0.00000000000E+00 0. -1.
          4    1    6    6  503    0 -0.23856949372E+03  0.21507292815E+03 -0.66428790036E+03  0.73786867553E+03  0.00000000000E+00 0.  1.
         -4    1    6    6    0  503 -0.16946117089E+03  0.21154004320E+03 -0.74507590448E+03  0.79284574903E+03  0.00000000000E+00 0. -1.
<mgrwt>
<rscale>  0 0.13511880E+04</rscale>
<asrwt>0</asrwt>
<pdfrwt beam="1">  1        2 0.45747199E+00 0.13511880E+04</pdfrwt>
<pdfrwt beam="2">  1       -1 0.23614587E-01 0.13511880E+04</pdfrwt>
<totfact> 0.31377751E+01</totfact>
</mgrwt>
</event>
<event>
12    6  0.1529770E-007  0.1649276E+04  0.7818608E-02  0.8790835E-01
          2   -1    0    0  501    0  0.00000000000E+00  0.00000000000E+00  0.13443998142E+04  0.13443998142E+04  0.00000000000E+00 0. -1.
         -1   -1    0    0    0  501 -0.00000000000E+00 -0.00000000000E+00 -0.50582248414E+03  0.50582248414E+03  0.00000000000E+00 0.  1.
         24    2    1    2    0    0 -0.42309145512E+03 -0.32958459146E+03  0.67030322097E+02  0.54568821991E+03  0.75167725404E+02 0.  0.
        254    2    1    2    0    0  0.42309145512E+03  0.32958459146E+03  0.77154700794E+03  0.13045340784E+04  0.90492651301E+03 0.  0.
         23    2    4    4    0    0  0.67473742095E+03  0.10857881000E+03  0.61452892600E+03  0.92353328102E+03  0.90597875471E+02 0.  0.
         23    2    4    4    0    0 -0.25164596583E+03  0.22100578146E+03  0.15701808193E+03  0.38100079739E+03  0.91310908447E+02 0.  0.
          4    1    3    3  502    0 -0.13123569061E+03 -0.14636925395E+03  0.34062767718E+02  0.19951700964E+03  0.00000000000E+00 0. -1.
         -3    1    3    3    0  502 -0.29185576450E+03 -0.18321533752E+03  0.32967554379E+02  0.34617121027E+03  0.00000000000E+00 0.  1.
         11    1    5    5    0    0  0.26813083011E+03  0.23324734850E+02  0.18932540867E+03  0.32906275341E+03  0.00000000000E+00 0.  1.
        -11    1    5    5    0    0  0.40660659084E+03  0.85254075153E+02  0.42520351733E+03  0.59447052761E+03  0.00000000000E+00 0. -1.
          1    1    6    6  503    0 -0.19623745254E+02 -0.72776828075E+01  0.15635641839E+02  0.26125262498E+02  0.00000000000E+00 0. -1.
         -1    1    6    6    0  503 -0.23202222058E+03  0.22828346427E+03  0.14138244009E+03  0.35487553489E+03  0.00000000000E+00 0.  1.
<mgrwt>
<rscale>  0 0.16492758E+04</rscale>
<asrwt>0</asrwt>
<pdfrwt beam="1">  1        2 0.20683074E+00 0.16492758E+04</pdfrwt>
<pdfrwt beam="2">  1       -1 0.77818844E-01 0.16492758E+04</pdfrwt>
<totfact> 0.28062448E+01</totfact>
</mgrwt>
</event>
<event>
12    6  0.1529770E-007  0.1420213E+04  0.7818608E-02  0.8939316E-01
          2   -1    0    0  501    0  0.00000000000E+00  0.00000000000E+00  0.19712953824E+04  0.19712953824E+04  0.00000000000E+00 0. -1.
         -1   -1    0    0    0  501 -0.00000000000E+00 -0.00000000000E+00 -0.25579696164E+03  0.25579696164E+03  0.00000000000E+00 0.  1.
         24    2    1    2    0    0  0.24935433502E+03 -0.18992687431E+03  0.57014532086E+03  0.65544302058E+03  0.79309925950E+02 0.  0.
        254    2    1    2    0    0 -0.24935433502E+03  0.18992687431E+03  0.11453530999E+04  0.15716493235E+04  0.10295620771E+04 0.  0.
         23    2    4    4    0    0  0.90645550832E+01 -0.39489667973E+03  0.28502004046E+03  0.49586901583E+03  0.92866051749E+02 0.  0.
         23    2    4    4    0    0 -0.25841889011E+03  0.58482355404E+03  0.86033305947E+03  0.10757803077E+04  0.91276420947E+02 0.  0.
          4    1    3    3  502    0  0.10866700982E+03 -0.79579745452E+02  0.16789480757E+03  0.21524432936E+03  0.00000000000E+00 0. -1.
         -3    1    3    3    0  502  0.14068732520E+03 -0.11034712885E+03  0.40225051329E+03  0.44019869123E+03  0.00000000000E+00 0.  1.
         11    1    5    5    0    0  0.32202056427E+01 -0.20188354984E+02 -0.60905076692E+01  0.21331518582E+02  0.00000000000E+00 0. -1.
        -11    1    5    5    0    0  0.58443494405E+01 -0.37470832475E+03  0.29111054813E+03  0.47453749724E+03  0.00000000000E+00 0.  1.
          4    1    6    6  503    0 -0.66978013090E+02  0.23811598405E+03  0.37705110157E+03  0.45094657033E+03  0.00000000000E+00 0. -1.
         -4    1    6    6    0  503 -0.19144087702E+03  0.34670756998E+03  0.48328195790E+03  0.62483373733E+03  0.00000000000E+00 0.  1.
<mgrwt>
<rscale>  0 0.14202132E+04</rscale>
<asrwt>0</asrwt>
<pdfrwt beam="1">  1        2 0.30327620E+00 0.14202132E+04</pdfrwt>
<pdfrwt beam="2">  1       -1 0.39353380E-01 0.14202132E+04</pdfrwt>
<totfact> 0.48179184E+01</totfact>
</mgrwt>
</event>
<event>
12    6  0.1529770E-007  0.1549320E+04  0.7818608E-02  0.8852302E-01
          2   -1    0    0  501    0  0.00000000000E+00  0.00000000000E+00  0.17068306346E+04  0.17068306346E+04  0.00000000000E+00 0. -1.
         -1   -1    0    0    0  501 -0.00000000000E+00 -0.00000000000E+00 -0.35158618102E+03  0.35158618102E+03  0.00000000000E+00 0.  1.
         24    2    1    2    0    0  0.32218814197E+03  0.38800051783E+03  0.47723948366E+03  0.69857052379E+03  0.76770119721E+02 0.  0.
        254    2    1    2    0    0 -0.32218814197E+03 -0.38800051783E+03  0.87800496994E+03  0.13598462918E+04  0.90771119279E+03 0.  0.
         23    2    4    4    0    0 -0.40461242893E+02  0.26435172303E+03  0.99261313311E+02  0.30160352566E+03  0.97943518055E+02 0.  0.
         23    2    4    4    0    0 -0.28172689908E+03 -0.65235224086E+03  0.77874365663E+03  0.10582427662E+04  0.92209422489E+02 0.  0.
          2    1    3    3  502    0  0.22682408830E+03  0.27272891263E+03  0.38159826381E+03  0.52100620127E+03  0.00000000000E+00 0. -1.
         -1    1    3    3    0  502  0.95364053674E+02  0.11527160521E+03  0.95641219849E+02  0.17756432253E+03  0.00000000000E+00 0.  1.
         11    1    5    5    0    0 -0.31311635010E+02  0.42263743433E+02 -0.10604765981E+02  0.53657278701E+02  0.00000000000E+00 0.  1.
        -11    1    5    5    0    0 -0.91496078824E+01  0.22208797959E+03  0.10986607929E+03  0.24794624696E+03  0.00000000000E+00 0. -1.
          2    1    6    6  503    0 -0.11784852391E+03 -0.27067445905E+03  0.25750777960E+03  0.39174378607E+03  0.00000000000E+00 0. -1.
         -2    1    6    6    0  503 -0.16387837517E+03 -0.38167778181E+03  0.52123587703E+03  0.66649898010E+03  0.00000000000E+00 0.  1.
<mgrwt>
<rscale>  0 0.15493199E+04</rscale>
<asrwt>0</asrwt>
<pdfrwt beam="1">  1        2 0.26258932E+00 0.15493199E+04</pdfrwt>
<pdfrwt beam="2">  1       -1 0.54090183E-01 0.15493199E+04</pdfrwt>
<totfact> 0.36789266E+01</totfact>
</mgrwt>
</event>
<event>
12    6  0.1529770E-007  0.2147802E+04  0.7818608E-02  0.8540474E-01
          2   -1    0    0  501    0  0.00000000000E+00  0.00000000000E+00  0.18372073128E+04  0.18372073128E+04  0.00000000000E+00 0. -1.
         -1   -1    0    0    0  501 -0.00000000000E+00 -0.00000000000E+00 -0.62772631598E+03  0.62772631598E+03  0.00000000000E+00 0.  1.
         24    2    1    2    0    0 -0.85829683379E+02 -0.24046437181E+02 -0.50801035443E+03  0.52229396804E+03  0.82289143586E+02 0.  0.
        254    2    1    2    0    0  0.85829683379E+02  0.24046437181E+02  0.17174913512E+04  0.19426396607E+04  0.90339766664E+03 0.  0.
         23    2    4    4    0    0 -0.22789364054E+03 -0.13295614656E+03  0.11826155214E+03  0.30313921737E+03  0.91075474662E+02 0.  0.
         23    2    4    4    0    0  0.31372332391E+03  0.15700258374E+03  0.15992297991E+04  0.16395004433E+04  0.85753239881E+02 0.  0.
          4    1    3    3  502    0 -0.29574526634E+02 -0.46552316172E+02 -0.16500379884E+03  0.17397708009E+03  0.00000000000E+00 0. -1.
         -3    1    3    3    0  502 -0.56255156745E+02  0.22505878991E+02 -0.34300655560E+03  0.34831688795E+03  0.00000000000E+00 0.  1.
         11    1    5    5    0    0 -0.13399590267E+03 -0.11208987232E+03  0.11034029323E+03  0.20662531723E+03  0.00000000000E+00 0. -1.
        -11    1    5    5    0    0 -0.93897737870E+02 -0.20866274241E+02  0.79212589143E+01  0.96513900141E+02  0.00000000000E+00 0.  1.
          1    1    6    6  503    0  0.17383027096E+03  0.79009225325E+02  0.67465565150E+03  0.70115595190E+03  0.00000000000E+00 0. -1.
         -1    1    6    6    0  503  0.13989305296E+03  0.77993358419E+02  0.92457414757E+03  0.93834449142E+03  0.00000000000E+00 0.  1.
<mgrwt>
<rscale>  0 0.21478020E+04</rscale>
<asrwt>0</asrwt>
<pdfrwt beam="1">  1        2 0.28264728E+00 0.21478020E+04</pdfrwt>
<pdfrwt beam="2">  1       -1 0.96573280E-01 0.21478020E+04</pdfrwt>
<totfact> 0.88726905E+00</totfact>
</mgrwt>
</event>
<event>
12    6  0.1529770E-007  0.2173482E+04  0.7818608E-02  0.8529547E-01
         -1   -1    0    0    0  501 -0.00000000000E+00  0.00000000000E+00  0.10464811648E+04  0.10464811648E+04  0.00000000000E+00 0.  1.
          2   -1    0    0  501    0  0.00000000000E+00 -0.00000000000E+00 -0.11285497785E+04  0.11285497785E+04  0.00000000000E+00 0. -1.
         24    2    1    2    0    0  0.27273656146E+03  0.34664705440E+03 -0.81166803139E+03  0.92729186127E+03  0.80720446626E+02 0.  0.
        254    2    1    2    0    0 -0.27273656146E+03 -0.34664705440E+03  0.72959941773E+03  0.12477390820E+04  0.91103682372E+03 0.  0.
         23    2    4    4    0    0 -0.37070180370E+03  0.16742675329E+03  0.10923335816E+03  0.43099050700E+03  0.91484127609E+02 0.  0.
         23    2    4    4    0    0  0.97965242233E+02 -0.51407380769E+03  0.62036605957E+03  0.81674857502E+03  0.91406337321E+02 0.  0.
          4    1    3    3  502    0  0.14635392788E+03  0.18099177300E+03 -0.51065162198E+03  0.56119744576E+03  0.00000000000E+00 0. -1.
         -3    1    3    3    0  502  0.12638263359E+03  0.16565528140E+03 -0.30101640941E+03  0.36609441551E+03  0.00000000000E+00 0.  1.
         11    1    5    5    0    0 -0.30170076446E+03  0.13424764242E+03  0.49560563958E+02  0.33391919722E+03  0.00000000000E+00 0. -1.
        -11    1    5    5    0    0 -0.69001039240E+02  0.33179110871E+02  0.59672794206E+02  0.97071309782E+02  0.00000000000E+00 0.  1.
          3    1    6    6  503    0  0.11189137003E+03 -0.37198119594E+03  0.44982526147E+03  0.59433362237E+03  0.00000000000E+00 0. -1.
         -3    1    6    6    0  503 -0.13926127799E+02 -0.14209261175E+03  0.17054079810E+03  0.22241495265E+03  0.00000000000E+00 0.  1.
<mgrwt>
<rscale>  0 0.21734821E+04</rscale>
<asrwt>0</asrwt>
<pdfrwt beam="1">  1        2 0.17362304E+00 0.21734821E+04</pdfrwt>
<pdfrwt beam="2">  1       -1 0.16099710E+00 0.21734821E+04</pdfrwt>
<totfact> 0.62765658E+00</totfact>
</mgrwt>
</event>
<event>
12    6  0.1529770E-007  0.2048189E+04  0.7818608E-02  0.8584416E-01
         -1   -1    0    0    0  501 -0.00000000000E+00  0.00000000000E+00  0.64747790205E+03  0.64747790205E+03  0.00000000000E+00 0.  1.
          2   -1    0    0  501    0  0.00000000000E+00 -0.00000000000E+00 -0.16197764396E+04  0.16197764396E+04  0.00000000000E+00 0. -1.
         24    2    1    2    0    0 -0.59341769034E+03 -0.30849926342E+03  0.13578817716E+03  0.68693916831E+03  0.78298410976E+02 0.  0.
        254    2    1    2    0    0  0.59341769034E+03  0.30849926342E+03 -0.11080867147E+04  0.15803151733E+04  0.90676542115E+03 0.  0.
         23    2    4    4    0    0  0.19171491089E+03 -0.16560930610E+03  0.39853953793E+02  0.27188812819E+03  0.90298213126E+02 0.  0.
         23    2    4    4    0    0  0.40170277945E+03  0.47410856953E+03 -0.11479406685E+04  0.13084270451E+04  0.89830369672E+02 0.  0.
          4    1    3    3  502    0 -0.75447168232E+02 -0.66604111826E+02  0.34340501686E+02  0.10633744854E+03  0.00000000000E+00 0. -1.
         -1    1    3    3    0  502 -0.51797052211E+03 -0.24189515160E+03  0.10144767548E+03  0.58060171977E+03  0.00000000000E+00 0.  1.
         11    1    5    5    0    0  0.94143832319E+02 -0.13474126286E+03  0.74424122135E+01  0.16454075051E+03  0.00000000000E+00 0. -1.
        -11    1    5    5    0    0  0.97571078571E+02 -0.30868043249E+02  0.32411541579E+02  0.10734737768E+03  0.00000000000E+00 0.  1.
          1    1    6    6  503    0  0.19207035749E+03  0.20553842750E+03 -0.43147222635E+03  0.51507800334E+03  0.00000000000E+00 0. -1.
         -1    1    6    6    0  503  0.20963242196E+03  0.26857014203E+03 -0.71646844215E+03  0.79334904180E+03  0.00000000000E+00 0.  1.
<mgrwt>
<rscale>  0 0.20481889E+04</rscale>
<asrwt>0</asrwt>
<pdfrwt beam="1">  1        2 0.24919637E+00 0.20481889E+04</pdfrwt>
<pdfrwt beam="2">  1       -1 0.99611985E-01 0.20481889E+04</pdfrwt>
<totfact> 0.11020259E+01</totfact>
</mgrwt>
</event>
<event>
12    6  0.1529770E-007  0.2400072E+04  0.7818608E-02  0.8439477E-01
         -1   -1    0    0    0  501 -0.00000000000E+00  0.00000000000E+00  0.14133431713E+04  0.14133431713E+04  0.00000000000E+00 0.  1.
          2   -1    0    0  501    0  0.00000000000E+00 -0.00000000000E+00 -0.10189219748E+04  0.10189219748E+04  0.00000000000E+00 0. -1.
         24    2    1    2    0    0  0.16946291375E+03 -0.44351282759E+03  0.10640637588E+04  0.11680004557E+04  0.81068331544E+02 0.  0.
        254    2    1    2    0    0 -0.16946291375E+03  0.44351282759E+03 -0.66964256224E+03  0.12642646904E+04  0.96152105484E+03 0.  0.
         23    2    4    4    0    0 -0.19957681380E+03  0.44179160813E+03 -0.89361185221E+03  0.10205615811E+04  0.89403964064E+02 0.  0.
         23    2    4    4    0    0  0.30113900044E+02  0.17212194579E+01  0.22396928996E+03  0.24370310932E+03  0.91209391379E+02 0.  0.
          2    1    3    3  502    0 -0.81703895396E+01 -0.17934672901E+02  0.31858199051E+02  0.37461348134E+02  0.00000000000E+00 0. -1.
         -1    1    3    3    0  502  0.17763330329E+03 -0.42557815469E+03  0.10322055597E+04  0.11305391075E+04  0.00000000000E+00 0.  1.
         11    1    5    5    0    0 -0.96231032820E+02  0.14283419533E+03 -0.38251326162E+03  0.41949781209E+03  0.00000000000E+00 0. -1.
        -11    1    5    5    0    0 -0.10334578098E+03  0.29895741281E+03 -0.51109859059E+03  0.60106376901E+03  0.00000000000E+00 0.  1.
          1    1    6    6  503    0 -0.17976335807E+02  0.30445075710E+02  0.12583014967E+03  0.13070301392E+03  0.00000000000E+00 0. -1.
         -1    1    6    6    0  503  0.48090235851E+02 -0.28723856252E+02  0.98139140297E+02  0.11300009540E+03  0.00000000000E+00 0.  1.
<mgrwt>
<rscale>  0 0.24000720E+04</rscale>
<asrwt>0</asrwt>
<pdfrwt beam="1">  1        2 0.15675723E+00 0.24000720E+04</pdfrwt>
<pdfrwt beam="2">  1       -1 0.21743741E+00 0.24000720E+04</pdfrwt>
<totfact> 0.28754328E+00</totfact>
</mgrwt>
</event>
<event>
12    6  0.1529770E-007  0.1160531E+04  0.7818608E-02  0.9148123E-01
         -1   -1    0    0    0  501 -0.00000000000E+00  0.00000000000E+00  0.12888712402E+03  0.12888712402E+03  0.00000000000E+00 0.  1.
          2   -1    0    0  501    0  0.00000000000E+00 -0.00000000000E+00 -0.26124265312E+04  0.26124265312E+04  0.00000000000E+00 0. -1.
         24    2    1    2    0    0  0.16759271586E+02 -0.73721401881E+02 -0.15545200452E+02  0.11123566004E+03  0.80099940875E+02 0.  0.
        254    2    1    2    0    0 -0.16759271586E+02  0.73721401881E+02 -0.24679942067E+04  0.26300779952E+04  0.90586927201E+03 0.  0.
         23    2    4    4    0    0  0.31224659735E+03  0.12344666875E+03 -0.38509506177E+03  0.51887120206E+03  0.90510221216E+02 0.  0.
         23    2    4    4    0    0 -0.32900586893E+03 -0.49725266869E+02 -0.20828991449E+04  0.21112067931E+04  0.89486374784E+02 0.  0.
          4    1    3    3  502    0 -0.23358734894E+02 -0.26025321676E+02 -0.31319963941E+02  0.46945585580E+02  0.00000000000E+00 0. -1.
         -3    1    3    3    0  502  0.40118006480E+02 -0.47696080205E+02  0.15774763490E+02  0.64290074460E+02  0.00000000000E+00 0.  1.
         11    1    5    5    0    0  0.13846065253E+03  0.10329461320E+03 -0.19582795644E+03  0.26113161038E+03  0.00000000000E+00 0. -1.
        -11    1    5    5    0    0  0.17378594481E+03  0.20152055546E+02 -0.18926710533E+03  0.25773959168E+03  0.00000000000E+00 0.  1.
          4    1    6    6  503    0 -0.19396880959E+03 -0.73521136704E+02 -0.12628635461E+04  0.12797865418E+04  0.00000000000E+00 0. -1.
         -4    1    6    6    0  503 -0.13503705934E+03  0.23795869835E+02 -0.82003559888E+03  0.83142025128E+03  0.00000000000E+00 0.  1.
<mgrwt>
<rscale>  0 0.11605312E+04</rscale>
<asrwt>0</asrwt>
<pdfrwt beam="1">  1        2 0.40191178E+00 0.11605312E+04</pdfrwt>
<pdfrwt beam="2">  1       -1 0.19828788E-01 0.11605312E+04</pdfrwt>
<totfact> 0.70598637E+01</totfact>
</mgrwt>
</event>
<event>
12    6  0.1529770E-007  0.2213023E+04  0.7818608E-02  0.8513027E-01
          2   -1    0    0  501    0  0.00000000000E+00  0.00000000000E+00  0.11559043442E+04  0.11559043442E+04  0.00000000000E+00 0. -1.
         -3   -1    0    0    0  501 -0.00000000000E+00 -0.00000000000E+00 -0.10592290730E+04  0.10592290730E+04  0.00000000000E+00 0.  1.
         24    2    1    2    0    0 -0.26061023676E+03 -0.14704580047E+03  0.91094917882E+03  0.96201067061E+03  0.78076635751E+02 0.  0.
        254    2    1    2    0    0  0.26061023676E+03  0.14704580047E+03 -0.81427390761E+03  0.12531227465E+04  0.90428671247E+03 0.  0.
         23    2    4    4    0    0  0.58500509037E+03  0.33902574441E+02 -0.56404528486E+03  0.81830009258E+03  0.89931183871E+02 0.  0.
         23    2    4    4    0    0 -0.32439485361E+03  0.11314322602E+03 -0.25022862275E+03  0.43482265396E+03  0.91776718813E+02 0.  0.
          2    1    3    3  502    0 -0.14759545986E+03 -0.67261779115E+02  0.60265651387E+03  0.62410210736E+03  0.00000000000E+00 0. -1.
         -1    1    3    3    0  502 -0.11301477690E+03 -0.79784021350E+02  0.30829266494E+03  0.33790856325E+03  0.00000000000E+00 0.  1.
         11    1    5    5    0    0  0.47257757084E+03 -0.14590178032E+01 -0.42055146423E+03  0.63260985075E+03  0.00000000000E+00 0. -1.
        -11    1    5    5    0    0  0.11242751952E+03  0.35361592244E+02 -0.14349382063E+03  0.18569024183E+03  0.00000000000E+00 0.  1.
          1    1    6    6  503    0 -0.13732870065E+03  0.19515549643E+02 -0.14498832295E+03  0.20065304008E+03  0.00000000000E+00 0.  1.
         -1    1    6    6    0  503 -0.18706615295E+03  0.93627676382E+02 -0.10524029980E+03  0.23416961389E+03  0.00000000000E+00 0. -1.
<mgrwt>
<rscale>  0 0.22130228E+04</rscale>
<asrwt>0</asrwt>
<pdfrwt beam="1">  1        2 0.17783144E+00 0.22130228E+04</pdfrwt>
<pdfrwt beam="2">  1       -3 0.16295832E+00 0.22130228E+04</pdfrwt>
<totfact> 0.30108361E+00</totfact>
</mgrwt>
</event>
<event>
12    6  0.1529770E-007  0.1518638E+04  0.7818608E-02  0.8872153E-01
         -1   -1    0    0    0  501 -0.00000000000E+00  0.00000000000E+00  0.96844049489E+03  0.96844049489E+03  0.00000000000E+00 0.  1.
          2   -1    0    0  501    0  0.00000000000E+00 -0.00000000000E+00 -0.59535446957E+03  0.59535446957E+03  0.00000000000E+00 0. -1.
         24    2    1    2    0    0  0.34146300076E+03 -0.27236818912E+03 -0.10061988780E+03  0.45499827979E+03  0.78215480931E+02 0.  0.
        254    2    1    2    0    0 -0.34146300076E+03  0.27236818912E+03  0.47370591312E+03  0.11087966847E+04  0.90235878922E+03 0.  0.
         23    2    4    4    0    0 -0.28240958333E+03  0.51613238379E+03  0.36163816201E+02  0.59645187279E+03  0.91099970362E+02 0.  0.
         23    2    4    4    0    0 -0.59053417430E+02 -0.24376419466E+03  0.43754209692E+03  0.51234481188E+03  0.90254257387E+02 0.  0.
          2    1    3    3  502    0  0.30151828864E+03 -0.23951011085E+03 -0.61057864486E+02  0.38988002564E+03  0.00000000000E+00 0. -1.
         -1    1    3    3    0  502  0.39944712118E+02 -0.32858078278E+02 -0.39562023309E+02  0.65118254143E+02  0.00000000000E+00 0.  1.
         11    1    5    5    0    0 -0.38356319297E+01  0.42879390552E+02  0.18922570974E+02  0.47025715291E+02  0.00000000000E+00 0. -1.
        -11    1    5    5    0    0 -0.27857395140E+03  0.47325299324E+03  0.17241245227E+02  0.54942615750E+03  0.00000000000E+00 0.  1.
          3    1    6    6  503    0 -0.58390998539E+02 -0.13112947660E+03  0.17283249237E+03  0.22466757391E+03  0.00000000000E+00 0. -1.
         -3    1    6    6    0  503 -0.66241889078E+00 -0.11263471806E+03  0.26470960455E+03  0.28767723798E+03  0.00000000000E+00 0.  1.
<mgrwt>
<rscale>  0 0.15186380E+04</rscale>
<asrwt>0</asrwt>
<pdfrwt beam="1">  1        2 0.91592995E-01 0.15186380E+04</pdfrwt>
<pdfrwt beam="2">  1       -1 0.14899085E+00 0.15186380E+04</pdfrwt>
<totfact> 0.19613614E+01</totfact>
</mgrwt>
</event>
<event>
12    6  0.1529770E-007  0.2461836E+04  0.7818608E-02  0.8416709E-01
          2   -1    0    0  501    0  0.00000000000E+00  0.00000000000E+00  0.11022132936E+04  0.11022132936E+04  0.00000000000E+00 0. -1.
         -1   -1    0    0    0  501 -0.00000000000E+00 -0.00000000000E+00 -0.13746511037E+04  0.13746511037E+04  0.00000000000E+00 0.  1.
         24    2    1    2    0    0 -0.93902829410E+02  0.88251428547E+02  0.93598890828E+03  0.94715808894E+03  0.66536854622E+02 0.  0.
        254    2    1    2    0    0  0.93902829410E+02 -0.88251428547E+02 -0.12084267184E+04  0.15297063083E+04  0.92903186170E+03 0.  0.
         23    2    4    4    0    0 -0.26250446067E+03 -0.37101050643E+03 -0.72083779049E+03  0.85666243877E+03  0.87783973741E+02 0.  0.
         23    2    4    4    0    0  0.35640729008E+03  0.28275907789E+03 -0.48758892787E+03  0.67304386955E+03  0.90918838573E+02 0.  0.
          2    1    3    3  502    0 -0.51438222512E+02  0.69265513156E+02  0.40237709564E+03  0.41152269578E+03  0.00000000000E+00 0. -1.
         -1    1    3    3    0  502 -0.42464606898E+02  0.18985915391E+02  0.53361181263E+03  0.53563539316E+03  0.00000000000E+00 0.  1.
         11    1    5    5    0    0 -0.70964855027E+01  0.40191711704E+01 -0.21795628032E+02  0.23271511440E+02  0.00000000000E+00 0. -1.
        -11    1    5    5    0    0 -0.25540797516E+03 -0.37502967760E+03 -0.69904216246E+03  0.83339092733E+03  0.00000000000E+00 0.  1.
          3    1    6    6  503    0  0.15363745383E+03  0.86957959345E+02 -0.13864950692E+03  0.22447681324E+03  0.00000000000E+00 0. -1.
         -3    1    6    6    0  503  0.20276983625E+03  0.19580111854E+03 -0.34893942094E+03  0.44856705631E+03  0.00000000000E+00 0.  1.
<mgrwt>
<rscale>  0 0.24618357E+04</rscale>
<asrwt>0</asrwt>
<pdfrwt beam="1">  1        2 0.16957128E+00 0.24618357E+04</pdfrwt>
<pdfrwt beam="2">  1       -1 0.21148479E+00 0.24618357E+04</pdfrwt>
<totfact> 0.27821176E+00</totfact>
</mgrwt>
</event>
<event>
12    6  0.1529770E-007  0.2972429E+04  0.7818608E-02  0.8251648E-01
          2   -1    0    0  501    0  0.00000000000E+00  0.00000000000E+00  0.29207292348E+04  0.29207292348E+04  0.00000000000E+00 0. -1.
         -1   -1    0    0    0  501 -0.00000000000E+00 -0.00000000000E+00 -0.75626101922E+03  0.75626101922E+03  0.00000000000E+00 0.  1.
         24    2    1    2    0    0 -0.12874040317E+03 -0.61280707876E+03 -0.48935045927E+03  0.79880211295E+03  0.80711439548E+02 0.  0.
        254    2    1    2    0    0  0.12874040317E+03  0.61280707876E+03  0.26538186749E+04  0.28781881411E+04  0.92146991768E+03 0.  0.
         23    2    4    4    0    0 -0.15176769297E+03  0.12217964567E+03  0.66586144458E+02  0.22839094277E+03  0.98830206203E+02 0.  0.
         23    2    4    4    0    0  0.28050809614E+03  0.49062743309E+03  0.25872325304E+04  0.26497971983E+04  0.90845779616E+02 0.  0.
          4    1    3    3  502    0 -0.54050836495E+02 -0.17621096595E+03 -0.10358970851E+03  0.21142995330E+03  0.00000000000E+00 0. -1.
         -1    1    3    3    0  502 -0.74689566673E+02 -0.43659611281E+03 -0.38576075077E+03  0.58737215964E+03  0.00000000000E+00 0.  1.
         11    1    5    5    0    0 -0.63212632884E+02  0.99199335880E+01 -0.12198705586E+02  0.65138701679E+02  0.00000000000E+00 0. -1.
        -11    1    5    5    0    0 -0.88555060089E+02  0.11225971208E+03  0.78784850043E+02  0.16325224109E+03  0.00000000000E+00 0.  1.
          3    1    6    6  503    0  0.39946049617E+02  0.14777695381E+03  0.64445816864E+03  0.66238964823E+03  0.00000000000E+00 0. -1.
         -3    1    6    6    0  503  0.24056204652E+03  0.34285047928E+03  0.19427743618E+04  0.19874075501E+04  0.00000000000E+00 0.  1.
<mgrwt>
<rscale>  0 0.29724291E+04</rscale>
<asrwt>0</asrwt>
<pdfrwt beam="1">  1        2 0.44934295E+00 0.29724291E+04</pdfrwt>
<pdfrwt beam="2">  1       -1 0.11634785E+00 0.29724291E+04</pdfrwt>
<totfact> 0.12685685E+00</totfact>
</mgrwt>
</event>
<event>
12    6  0.1529770E-007  0.2972043E+04  0.7818608E-02  0.8251759E-01
          2   -1    0    0  501    0  0.00000000000E+00  0.00000000000E+00  0.12158070005E+04  0.12158070005E+04  0.00000000000E+00 0. -1.
         -1   -1    0    0    0  501 -0.00000000000E+00 -0.00000000000E+00 -0.18162915839E+04  0.18162915839E+04  0.00000000000E+00 0.  1.
         24    2    1    2    0    0  0.22505096707E+03  0.11915295544E+04 -0.87289401530E+03  0.14962636575E+04  0.80438510283E+02 0.  0.
        254    2    1    2    0    0 -0.22505096707E+03 -0.11915295544E+04  0.27240943187E+03  0.15358349270E+04  0.90232555522E+03 0.  0.
         23    2    4    4    0    0 -0.12737011515E+03  0.58555394235E+02  0.22305657714E+03  0.27760897466E+03  0.87525000878E+02 0.  0.
         23    2    4    4    0    0 -0.97680851914E+02 -0.12500849486E+04  0.49352854727E+02  0.12582259523E+04  0.91885337304E+02 0.  0.
          4    1    3    3  502    0  0.19685925499E+03  0.85288029781E+03 -0.61868070612E+03  0.10718788107E+04  0.00000000000E+00 0. -1.
         -3    1    3    3    0  502  0.28191712078E+02  0.33864925658E+03 -0.25421330918E+03  0.42438484678E+03  0.00000000000E+00 0.  1.
         11    1    5    5    0    0 -0.36859278214E+02  0.30175987307E+02  0.16671135756E+02  0.50469033751E+02  0.00000000000E+00 0. -1.
        -11    1    5    5    0    0 -0.90510836938E+02  0.28379406929E+02  0.20638544139E+03  0.22713994091E+03  0.00000000000E+00 0.  1.
          4    1    6    6  503    0 -0.11050789005E+02 -0.15503914974E+02 -0.40197824721E+01  0.19458930296E+02  0.00000000000E+00 0. -1.
         -4    1    6    6    0  503 -0.86630062908E+02 -0.12345810336E+04  0.53372637199E+02  0.12387670220E+04  0.00000000000E+00 0.  1.
<mgrwt>
<rscale>  0 0.29720431E+04</rscale>
<asrwt>0</asrwt>
<pdfrwt beam="1">  1        2 0.18704723E+00 0.29720431E+04</pdfrwt>
<pdfrwt beam="2">  1       -1 0.27942947E+00 0.29720431E+04</pdfrwt>
<totfact> 0.81310600E-01</totfact>
</mgrwt>
</event>
<event>
12    6  0.1529770E-007  0.2011711E+04  0.7818608E-02  0.8601165E-01
          2   -1    0    0  501    0  0.00000000000E+00  0.00000000000E+00  0.33936605042E+04  0.33936605042E+04  0.00000000000E+00 0. -1.
         -1   -1    0    0    0  501 -0.00000000000E+00 -0.00000000000E+00 -0.29812788205E+03  0.29812788205E+03  0.00000000000E+00 0.  1.
         24    2    1    2    0    0  0.62619610738E+03 -0.80069467726E+02  0.21684004299E+04  0.22598842795E+04  0.81140912618E+02 0.  0.
        254    2    1    2    0    0 -0.62619610738E+03  0.80069467726E+02  0.92713219221E+03  0.14319041067E+04  0.89008010004E+03 0.  0.
         23    2    4    4    0    0 -0.84496262567E+03  0.81168466823E+02  0.70579529958E+03  0.11075876402E+04  0.89739718549E+02 0.  0.
         23    2    4    4    0    0  0.21876651829E+03 -0.10989990971E+01  0.22133689263E+03  0.32431646651E+03  0.91275150427E+02 0.  0.
          4    1    3    3  502    0  0.54352448397E+03 -0.95529105726E+02  0.19114986632E+04  0.19895657350E+04  0.00000000000E+00 0. -1.
         -3    1    3    3    0  502  0.82671623413E+02  0.15459638000E+02  0.25690176675E+03  0.27031854447E+03  0.00000000000E+00 0.  1.
         11    1    5    5    0    0 -0.51255939530E+03  0.21435592763E+02  0.38088698179E+03  0.63894562464E+03  0.00000000000E+00 0. -1.
        -11    1    5    5    0    0 -0.33240323036E+03  0.59732874060E+02  0.32490831779E+03  0.46864201558E+03  0.00000000000E+00 0.  1.
          1    1    6    6  503    0  0.22033035436E+03  0.14549378084E+02  0.21154106843E+03  0.30578877201E+03  0.00000000000E+00 0. -1.
         -1    1    6    6    0  503 -0.15638360703E+01 -0.15648377181E+02  0.97958241996E+01  0.18527694498E+02  0.00000000000E+00 0.  1.
<mgrwt>
<rscale>  0 0.20117105E+04</rscale>
<asrwt>0</asrwt>
<pdfrwt beam="1">  1        2 0.52210159E+00 0.20117105E+04</pdfrwt>
<pdfrwt beam="2">  1       -1 0.45865830E-01 0.20117105E+04</pdfrwt>
<totfact> 0.48300353E+00</totfact>
</mgrwt>
</event>
<event>
12    6  0.1529770E-007  0.2854932E+04  0.7818608E-02  0.8286414E-01
          2   -1    0    0  501    0  0.00000000000E+00  0.00000000000E+00  0.15903945831E+04  0.15903945831E+04  0.00000000000E+00 0. -1.
         -3   -1    0    0    0  501 -0.00000000000E+00 -0.00000000000E+00 -0.12812289573E+04  0.12812289573E+04  0.00000000000E+00 0.  1.
         24    2    1    2    0    0  0.35877844525E+03  0.12406657446E+04  0.71266492884E+02  0.12959493836E+04  0.80202426253E+02 0.  0.
        254    2    1    2    0    0 -0.35877844525E+03 -0.12406657446E+04  0.23789913289E+03  0.15756741568E+04  0.87073508506E+03 0.  0.
         23    2    4    4    0    0 -0.16208865589E+03 -0.10054643470E+04  0.52199251841E+03  0.11479246802E+04  0.89574531119E+02 0.  0.
         23    2    4    4    0    0 -0.19668978937E+03 -0.23520139765E+03 -0.28409338552E+03  0.42774947666E+03  0.90851485342E+02 0.  0.
          2    1    3    3  502    0  0.24117032011E+03  0.81043607706E+03  0.89813630988E+01  0.84560654159E+03  0.00000000000E+00 0. -1.
         -1    1    3    3    0  502  0.11760812514E+03  0.43022966758E+03  0.62285129785E+02  0.45034284202E+03  0.00000000000E+00 0.  1.
         11    1    5    5    0    0 -0.15146717932E+02 -0.14587587016E+03  0.11066752216E+03  0.18372940163E+03  0.00000000000E+00 0. -1.
        -11    1    5    5    0    0 -0.14694193795E+03 -0.85958847683E+03  0.41132499625E+03  0.96419527855E+03  0.00000000000E+00 0.  1.
          3    1    6    6  503    0 -0.19125514476E+02 -0.63318360591E+02 -0.98684348367E+02  0.11880067636E+03  0.00000000000E+00 0. -1.
         -3    1    6    6    0  503 -0.17756427489E+03 -0.17188303706E+03 -0.18540903715E+03  0.30894880029E+03  0.00000000000E+00 0.  1.
<mgrwt>
<rscale>  0 0.28549323E+04</rscale>
<asrwt>0</asrwt>
<pdfrwt beam="1">  1        2 0.24467609E+00 0.28549323E+04</pdfrwt>
<pdfrwt beam="2">  1       -3 0.19711215E+00 0.28549323E+04</pdfrwt>
<totfact> 0.94389197E-01</totfact>
</mgrwt>
</event>
<event>
12    6  0.1529770E-007  0.1778194E+04  0.7818608E-02  0.8717982E-01
         -1   -1    0    0    0  501 -0.00000000000E+00  0.00000000000E+00  0.96212939214E+03  0.96212939214E+03  0.00000000000E+00 0.  1.
          2   -1    0    0  501    0  0.00000000000E+00 -0.00000000000E+00 -0.82160839520E+03  0.82160839520E+03  0.00000000000E+00 0. -1.
         24    2    1    2    0    0  0.27720917078E+03  0.18880467376E+03  0.60864227732E+03  0.69917519374E+03  0.76866121265E+02 0.  0.
        254    2    1    2    0    0 -0.27720917078E+03 -0.18880467376E+03 -0.46812128038E+03  0.10845625936E+04  0.91904643904E+03 0.  0.
         23    2    4    4    0    0 -0.20376774353E+02 -0.42712301205E+03  0.63031029024E+02  0.44160470207E+03  0.90512551153E+02 0.  0.
         23    2    4    4    0    0 -0.25683239643E+03  0.23831833828E+03 -0.53115230940E+03  0.64295789154E+03  0.92268977943E+02 0.  0.
          4    1    3    3  502    0  0.46316502754E+02  0.67779223249E+02  0.17304236085E+03  0.19152780524E+03  0.00000000000E+00 0. -1.
         -3    1    3    3    0  502  0.23089266803E+03  0.12102545052E+03  0.43559991647E+03  0.50764738850E+03  0.00000000000E+00 0.  1.
         11    1    5    5    0    0  0.32572659766E+02 -0.14217097199E+03  0.37833943684E+02  0.15068168679E+03  0.00000000000E+00 0.  1.
        -11    1    5    5    0    0 -0.52949434119E+02 -0.28495204006E+03  0.25197085340E+02  0.29092301527E+03  0.00000000000E+00 0. -1.
          3    1    6    6  503    0 -0.85524057555E+02  0.78460420841E+02 -0.25913548532E+03  0.28393943335E+03  0.00000000000E+00 0. -1.
         -3    1    6    6    0  503 -0.17130833887E+03  0.15985791744E+03 -0.27201682409E+03  0.35901845819E+03  0.00000000000E+00 0.  1.
<mgrwt>
<rscale>  0 0.17781941E+04</rscale>
<asrwt>0</asrwt>
<pdfrwt beam="1">  1        2 0.12640129E+00 0.17781941E+04</pdfrwt>
<pdfrwt beam="2">  1       -1 0.14801991E+00 0.17781941E+04</pdfrwt>
<totfact> 0.12974925E+01</totfact>
</mgrwt>
</event>
<event>
12    6  0.1529770E-007  0.1705578E+04  0.7818608E-02  0.8758189E-01
          2   -1    0    0  501    0  0.00000000000E+00  0.00000000000E+00  0.66879611527E+03  0.66879611527E+03  0.00000000000E+00 0. -1.
         -1   -1    0    0    0  501 -0.00000000000E+00 -0.00000000000E+00 -0.10874004575E+04  0.10874004575E+04  0.00000000000E+00 0.  1.
         24    2    1    2    0    0 -0.39043849270E+03  0.44544731160E+03 -0.30968286565E+03  0.67309989950E+03  0.79337717627E+02 0.  0.
        254    2    1    2    0    0  0.39043849270E+03 -0.44544731160E+03 -0.10892147661E+03  0.10830966733E+04  0.90020497201E+03 0.  0.
         23    2    4    4    0    0 -0.64897526006E+02 -0.38295915994E+03  0.26924828794E+03  0.48114316515E+03  0.90192559236E+02 0.  0.
         23    2    4    4    0    0  0.45533601871E+03 -0.62488151653E+02 -0.37816976455E+03  0.60195350814E+03  0.89999978427E+02 0.  0.
          4    1    3    3  502    0 -0.38085344828E+02  0.42671895649E+02 -0.58919432991E+02  0.82115064105E+02  0.00000000000E+00 0. -1.
         -3    1    3    3    0  502 -0.35235314788E+03  0.40277541595E+03 -0.25076343266E+03  0.59098483539E+03  0.00000000000E+00 0.  1.
         11    1    5    5    0    0  0.94665186600E+01 -0.94429596526E+02  0.31623217193E+02  0.10003295228E+03  0.00000000000E+00 0. -1.
        -11    1    5    5    0    0 -0.74364044666E+02 -0.28852956342E+03  0.23762507075E+03  0.38111021287E+03  0.00000000000E+00 0.  1.
          3    1    6    6  503    0  0.15589198246E+03  0.21227859094E+02 -0.12196005652E+03  0.19906578707E+03  0.00000000000E+00 0. -1.
         -3    1    6    6    0  503  0.29944403625E+03 -0.83716010747E+02 -0.25620970803E+03  0.40288772107E+03  0.00000000000E+00 0.  1.
<mgrwt>
<rscale>  0 0.17055781E+04</rscale>
<asrwt>0</asrwt>
<pdfrwt beam="1">  1        2 0.10289171E+00 0.17055781E+04</pdfrwt>
<pdfrwt beam="2">  1       -1 0.16729238E+00 0.17055781E+04</pdfrwt>
<totfact> 0.12145540E+01</totfact>
</mgrwt>
</event>
<event>
12    6  0.1529770E-007  0.1346312E+04  0.7818608E-02  0.8993625E-01
         -1   -1    0    0    0  501 -0.00000000000E+00  0.00000000000E+00  0.28998498616E+03  0.28998498616E+03  0.00000000000E+00 0.  1.
          2   -1    0    0  501    0  0.00000000000E+00 -0.00000000000E+00 -0.15626288763E+04  0.15626288763E+04  0.00000000000E+00 0. -1.
         24    2    1    2    0    0  0.11581099623E+03  0.34505534096E+03 -0.30054077943E+03  0.47824698995E+03  0.76941848930E+02 0.  0.
        254    2    1    2    0    0 -0.11581099623E+03 -0.34505534096E+03 -0.97210311070E+03  0.13743668725E+04  0.90079102305E+03 0.  0.
         23    2    4    4    0    0 -0.28268639275E+03 -0.59047632927E+03 -0.64916872070E+03  0.92654319368E+03  0.92132349035E+02 0.  0.
         23    2    4    4    0    0  0.16687539652E+03  0.24542098831E+03 -0.32293439000E+03  0.44782367882E+03  0.90446490261E+02 0.  0.
          4    1    3    3  502    0  0.11754644625E+03  0.28903021955E+03 -0.27777065128E+03  0.41774653745E+03  0.00000000000E+00 0. -1.
         -3    1    3    3    0  502 -0.17354500206E+01  0.56025121413E+02 -0.22770128150E+02  0.60500452495E+02  0.00000000000E+00 0.  1.
         11    1    5    5    0    0 -0.78112527703E+02 -0.21537973405E+03 -0.17514626665E+03  0.28838552589E+03  0.00000000000E+00 0. -1.
        -11    1    5    5    0    0 -0.20457386505E+03 -0.37509659522E+03 -0.47402245405E+03  0.63815766778E+03  0.00000000000E+00 0.  1.
          4    1    6    6  503    0 -0.65881914769E+01 -0.29254727604E+01 -0.57400565206E+01  0.92147114262E+01  0.00000000000E+00 0. -1.
         -4    1    6    6    0  503  0.17346358800E+03  0.24834646107E+03 -0.31719433348E+03  0.43860896739E+03  0.00000000000E+00 0.  1.
<mgrwt>
<rscale>  0 0.13463119E+04</rscale>
<asrwt>0</asrwt>
<pdfrwt beam="1">  1        2 0.24040444E+00 0.13463119E+04</pdfrwt>
<pdfrwt beam="2">  1       -1 0.44613075E-01 0.13463119E+04</pdfrwt>
<totfact> 0.64831327E+01</totfact>
</mgrwt>
</event>
<event>
12    6  0.1529770E-007  0.2694536E+04  0.7818608E-02  0.8336780E-01
          2   -1    0    0  501    0  0.00000000000E+00  0.00000000000E+00  0.14571903404E+04  0.14571903404E+04  0.00000000000E+00 0. -1.
         -1   -1    0    0    0  501 -0.00000000000E+00 -0.00000000000E+00 -0.12456377003E+04  0.12456377003E+04  0.00000000000E+00 0.  1.
         24    2    1    2    0    0 -0.94960177128E+03 -0.52159378245E+02  0.81770344752E+03  0.12583530807E+04  0.10173211307E+03 0.  0.
        254    2    1    2    0    0  0.94960177128E+03  0.52159378245E+02 -0.60615080744E+03  0.14444749600E+04  0.90256577825E+03 0.  0.
         23    2    4    4    0    0  0.46662880144E+03 -0.27675350554E+03  0.59359276801E+02  0.55423068300E+03  0.96504844842E+02 0.  0.
         23    2    4    4    0    0  0.48297296984E+03  0.32891288378E+03 -0.66551008424E+03  0.89024427704E+03  0.90468922104E+02 0.  0.
          4    1    3    3  502    0 -0.37941678107E+03 -0.28179623286E+02  0.39285922908E+03  0.54689081068E+03  0.00000000000E+00 0. -1.
         -3    1    3    3    0  502 -0.57018499021E+03 -0.23979754959E+02  0.42484421844E+03  0.71146227001E+03  0.00000000000E+00 0.  1.
         11    1    5    5    0    0  0.29028385090E+02 -0.43732845073E+02  0.22432037275E+02  0.57082441919E+02  0.00000000000E+00 0. -1.
        -11    1    5    5    0    0  0.43760041635E+03 -0.23302066046E+03  0.36927239526E+02  0.49714824108E+03  0.00000000000E+00 0.  1.
          3    1    6    6  503    0 -0.20489138036E+00  0.17656928250E+01 -0.20041799512E+02  0.20120471647E+02  0.00000000000E+00 0. -1.
         -3    1    6    6    0  503  0.48317786122E+03  0.32714719096E+03 -0.64546828472E+03  0.87012380539E+03  0.00000000000E+00 0.  1.
<mgrwt>
<rscale>  0 0.26945361E+04</rscale>
<asrwt>0</asrwt>
<pdfrwt beam="1">  1        2 0.22418313E+00 0.26945361E+04</pdfrwt>
<pdfrwt beam="2">  1       -1 0.19163657E+00 0.26945361E+04</pdfrwt>
<totfact> 0.23092353E+00</totfact>
</mgrwt>
</event>
<event>
12    6  0.1529770E-007  0.1674332E+04  0.7818608E-02  0.8776141E-01
         -1   -1    0    0    0  501 -0.00000000000E+00  0.00000000000E+00  0.28400714114E+04  0.28400714114E+04  0.00000000000E+00 0.  1.
          2   -1    0    0  501    0  0.00000000000E+00 -0.00000000000E+00 -0.24677090867E+03  0.24677090867E+03  0.00000000000E+00 0. -1.
         24    2    1    2    0    0 -0.10211114010E+03 -0.35426719773E+03  0.17673271545E+04  0.18071348087E+04  0.79743423816E+02 0.  0.
        254    2    1    2    0    0  0.10211114010E+03  0.35426719773E+03  0.82597334824E+03  0.12797075113E+04  0.90525543922E+03 0.  0.
         23    2    4    4    0    0  0.34128992854E+03 -0.14604609836E+03  0.50130800722E+03  0.63063099212E+03  0.92614534225E+02 0.  0.
         23    2    4    4    0    0 -0.23917878844E+03  0.50031329609E+03  0.32466534102E+03  0.64907651921E+03  0.91503317159E+02 0.  0.
          2    1    3    3  502    0 -0.39507853057E+02 -0.46019998454E+02  0.22299073678E+03  0.23109214482E+03  0.00000000000E+00 0. -1.
         -1    1    3    3    0  502 -0.62603287047E+02 -0.30824719928E+03  0.15443364177E+04  0.15760426639E+04  0.00000000000E+00 0.  1.
         11    1    5    5    0    0  0.27173971405E+03 -0.14717658175E+03  0.37039592954E+03  0.48238632135E+03  0.00000000000E+00 0. -1.
        -11    1    5    5    0    0  0.69550214490E+02  0.11304833908E+01  0.13091207768E+03  0.14824467077E+03  0.00000000000E+00 0.  1.
          1    1    6    6  503    0 -0.18474159118E+03  0.38726547388E+03  0.29331351066E+03  0.51974687907E+03  0.00000000000E+00 0. -1.
         -1    1    6    6    0  503 -0.54437197264E+02  0.11304782221E+03  0.31351830363E+02  0.12932964014E+03  0.00000000000E+00 0.  1.
<mgrwt>
<rscale>  0 0.16743321E+04</rscale>
<asrwt>0</asrwt>
<pdfrwt beam="1">  1        2 0.37964757E-01 0.16743321E+04</pdfrwt>
<pdfrwt beam="2">  1       -1 0.43693404E+00 0.16743321E+04</pdfrwt>
<totfact> 0.59628770E-01</totfact>
</mgrwt>
</event>
<event>
12    6  0.1529770E-007  0.1545444E+04  0.7818608E-02  0.8854783E-01
          2   -1    0    0  501    0  0.00000000000E+00  0.00000000000E+00  0.16109872366E+04  0.16109872366E+04  0.00000000000E+00 0. -1.
         -1   -1    0    0    0  501 -0.00000000000E+00 -0.00000000000E+00 -0.37064182283E+03  0.37064182283E+03  0.00000000000E+00 0.  1.
         24    2    1    2    0    0 -0.20665485535E+03 -0.43472547335E+03  0.24031739544E+03  0.54447114813E+03  0.83689391027E+02 0.  0.
        254    2    1    2    0    0  0.20665485535E+03  0.43472547335E+03  0.10000280183E+04  0.14371579113E+04  0.91305769704E+03 0.  0.
         23    2    4    4    0    0  0.32616674034E+03  0.36069866634E+03  0.79104023720E+02  0.50116624875E+03  0.91770866386E+02 0.  0.
         23    2    4    4    0    0 -0.11951188499E+03  0.74026807010E+02  0.92092399458E+03  0.93599166252E+03  0.90643972198E+02 0.  0.
          2    1    3    3  502    0 -0.10820255433E+03 -0.20864775269E+03  0.71630904412E+02  0.24570849382E+03  0.00000000000E+00 0. -1.
         -1    1    3    3    0  502 -0.98452301022E+02 -0.22607772066E+03  0.16868649103E+03  0.29876265431E+03  0.00000000000E+00 0.  1.
         11    1    5    5    0    0  0.37902334529E+02  0.21573846621E+02 -0.15225886624E+02  0.46193564966E+02  0.00000000000E+00 0. -1.
        -11    1    5    5    0    0  0.28826440581E+03  0.33912481972E+03  0.94329910344E+02  0.45497268379E+03  0.00000000000E+00 0.  1.
          3    1    6    6  503    0 -0.98478574877E+01  0.23238297554E+02  0.43562971111E+02  0.50346114272E+02  0.00000000000E+00 0. -1.
         -3    1    6    6    0  503 -0.10966402750E+03  0.50788509456E+02  0.87736102347E+03  0.88564554825E+03  0.00000000000E+00 0.  1.
<mgrwt>
<rscale>  0 0.15454439E+04</rscale>
<asrwt>0</asrwt>
<pdfrwt beam="1">  1        2 0.24784419E+00 0.15454439E+04</pdfrwt>
<pdfrwt beam="2">  1       -1 0.57021820E-01 0.15454439E+04</pdfrwt>
<totfact> 0.37558319E+01</totfact>
</mgrwt>
</event>
<event>
12    6  0.1529770E-007  0.1341366E+04  0.7818608E-02  0.8997390E-01
          2   -1    0    0  501    0  0.00000000000E+00  0.00000000000E+00  0.13525520318E+04  0.13525520318E+04  0.00000000000E+00 0. -1.
         -1   -1    0    0    0  501 -0.00000000000E+00 -0.00000000000E+00 -0.33256794216E+03  0.33256794216E+03  0.00000000000E+00 0.  1.
         24    2    1    2    0    0  0.22544570750E+03  0.73551584858E+00 -0.73303025754E+02  0.24978432324E+03  0.78692862053E+02 0.  0.
        254    2    1    2    0    0 -0.22544570750E+03 -0.73551584858E+00  0.10932871154E+04  0.14353356507E+04  0.90226681503E+03 0.  0.
         23    2    4    4    0    0  0.20168137063E+03  0.11220009577E+03 -0.50283372310E+01  0.24764605287E+03  0.89660730404E+02 0.  0.
         23    2    4    4    0    0 -0.42712707813E+03 -0.11293561162E+03  0.10983154526E+04  0.11876895978E+04  0.95486931633E+02 0.  0.
          2    1    3    3  502    0  0.11119091538E+03 -0.63276179730E+00 -0.77348641040E+02  0.13544974094E+03  0.00000000000E+00 0. -1.
         -3    1    3    3    0  502  0.11425479213E+03  0.13682776459E+01  0.40456152853E+01  0.11433458230E+03  0.00000000000E+00 0.  1.
         11    1    5    5    0    0  0.15017383069E+02  0.47727031288E+02 -0.34876473408E+01  0.50155308730E+02  0.00000000000E+00 0.  1.
        -11    1    5    5    0    0  0.18666398756E+03  0.64473064486E+02 -0.15406898902E+01  0.19749074414E+03  0.00000000000E+00 0. -1.
          2    1    6    6  503    0 -0.27199534326E+03 -0.37322316888E+02  0.75651980452E+03  0.80479602181E+03  0.00000000000E+00 0. -1.
         -2    1    6    6    0  503 -0.15513173487E+03 -0.75613294735E+02  0.34179564808E+03  0.38289357601E+03  0.00000000000E+00 0.  1.
<mgrwt>
<rscale>  0 0.13413656E+04</rscale>
<asrwt>0</asrwt>
<pdfrwt beam="1">  1        2 0.20808492E+00 0.13413656E+04</pdfrwt>
<pdfrwt beam="2">  1       -1 0.51164300E-01 0.13413656E+04</pdfrwt>
<totfact> 0.65922953E+01</totfact>
</mgrwt>
</event>
<event>
12    6  0.1529770E-007  0.2163761E+04  0.7818608E-02  0.8533665E-01
         -1   -1    0    0    0  501 -0.00000000000E+00  0.00000000000E+00  0.75173982880E+03  0.75173982880E+03  0.00000000000E+00 0.  1.
          2   -1    0    0  501    0  0.00000000000E+00 -0.00000000000E+00 -0.15570079409E+04  0.15570079409E+04  0.00000000000E+00 0. -1.
         24    2    1    2    0    0 -0.61287710974E+02 -0.62372177802E+03 -0.10073239290E+04  0.11891122743E+04  0.80631650667E+02 0.  0.
        254    2    1    2    0    0  0.61287710974E+02  0.62372177802E+03  0.20205581691E+03  0.11196354954E+04  0.90552308059E+03 0.  0.
         23    2    4    4    0    0  0.38114469502E+03  0.13232934501E+03  0.30992169176E+03  0.51688269570E+03  0.91290371854E+02 0.  0.
         23    2    4    4    0    0 -0.31985698405E+03  0.49139243301E+03 -0.10786587485E+03  0.60275279968E+03  0.88886878131E+02 0.  0.
          2    1    3    3  502    0  0.45239432097E+01 -0.72961713507E+02 -0.16614837469E+03  0.18151903513E+03  0.00000000000E+00 0. -1.
         -1    1    3    3    0  502 -0.65811654184E+02 -0.55076006452E+03 -0.84117555435E+03  0.10075932392E+04  0.00000000000E+00 0.  1.
         11    1    5    5    0    0  0.21740711111E+03  0.71019408898E+02  0.11834577734E+03  0.25751763321E+03  0.00000000000E+00 0. -1.
        -11    1    5    5    0    0  0.16373758392E+03  0.61309936114E+02  0.19157591442E+03  0.25936506249E+03  0.00000000000E+00 0.  1.
          4    1    6    6  503    0 -0.18885376456E+03  0.21008153879E+03 -0.59510290882E+02  0.28868923092E+03  0.00000000000E+00 0. -1.
         -4    1    6    6    0  503 -0.13100321949E+03  0.28131089422E+03 -0.48355583969E+02  0.31406356876E+03  0.00000000000E+00 0.  1.
<mgrwt>
<rscale>  0 0.21637605E+04</rscale>
<asrwt>0</asrwt>
<pdfrwt beam="1">  1        2 0.23953968E+00 0.21637605E+04</pdfrwt>
<pdfrwt beam="2">  1       -1 0.11565228E+00 0.21637605E+04</pdfrwt>
<totfact> 0.83361949E+00</totfact>
</mgrwt>
</event>
<event>
12    6  0.1529770E-007  0.1493587E+04  0.7818608E-02  0.8888729E-01
         -3   -1    0    0    0  501 -0.00000000000E+00  0.00000000000E+00  0.31276186210E+03  0.31276186210E+03  0.00000000000E+00 0.  1.
          2   -1    0    0  501    0  0.00000000000E+00 -0.00000000000E+00 -0.17831475459E+04  0.17831475459E+04  0.00000000000E+00 0. -1.
         24    2    1    2    0    0  0.22467473648E+03  0.32498591673E+03 -0.13208406325E+03  0.42431450825E+03  0.80635096931E+02 0.  0.
        254    2    1    2    0    0 -0.22467473648E+03 -0.32498591673E+03 -0.13383016206E+04  0.16715948998E+04  0.92037150002E+03 0.  0.
         23    2    4    4    0    0  0.23130311144E+03 -0.40646813342E+03 -0.40402312801E+03  0.62478316278E+03  0.91661549601E+02 0.  0.
         23    2    4    4    0    0 -0.45597784792E+03  0.81482216693E+02 -0.93427849256E+03  0.10468117370E+04  0.91560699139E+02 0.  0.
          2    1    3    3  502    0  0.82144538805E+02  0.88525837818E+02 -0.63370025267E+01  0.12093265406E+03  0.00000000000E+00 0. -1.
         -1    1    3    3    0  502  0.14253019768E+03  0.23646007891E+03 -0.12574706072E+03  0.30338185419E+03  0.00000000000E+00 0.  1.
         11    1    5    5    0    0  0.50905894453E+01 -0.75150843309E+02 -0.60000544614E+02  0.96299681749E+02  0.00000000000E+00 0.  1.
        -11    1    5    5    0    0  0.22621252199E+03 -0.33131729011E+03 -0.34402258339E+03  0.52848348103E+03  0.00000000000E+00 0. -1.
          1    1    6    6  503    0 -0.31987543638E+03  0.33554323739E+02 -0.56167611193E+03  0.64724511752E+03  0.00000000000E+00 0. -1.
         -1    1    6    6    0  503 -0.13610241154E+03  0.47927892954E+02 -0.37260238063E+03  0.39956661948E+03  0.00000000000E+00 0.  1.
<mgrwt>
<rscale>  0 0.14935870E+04</rscale>
<asrwt>0</asrwt>
<pdfrwt beam="1">  1        2 0.27433039E+00 0.14935870E+04</pdfrwt>
<pdfrwt beam="2">  1       -3 0.48117209E-01 0.14935870E+04</pdfrwt>
<totfact> 0.23478053E+01</totfact>
</mgrwt>
</event>
<event>
12    6  0.1529770E-007  0.1282833E+04  0.7818608E-02  0.9043290E-01
          2   -1    0    0  501    0  0.00000000000E+00  0.00000000000E+00  0.63407906828E+03  0.63407906828E+03  0.00000000000E+00 0. -1.
         -1   -1    0    0    0  501 -0.00000000000E+00 -0.00000000000E+00 -0.64883905211E+03  0.64883905211E+03  0.00000000000E+00 0.  1.
         24    2    1    2    0    0 -0.27829078280E+03  0.14619378559E+03  0.27018967653E+02  0.32540046827E+03  0.79605636744E+02 0.  0.
        254    2    1    2    0    0  0.27829078280E+03 -0.14619378559E+03 -0.41778951482E+02  0.95751765212E+03  0.90348004438E+03 0.  0.
         23    2    4    4    0    0 -0.20767704628E+03 -0.12578853620E+03  0.26885287433E+03  0.37343737410E+03  0.90670242880E+02 0.  0.
         23    2    4    4    0    0  0.48596782908E+03 -0.20405249390E+02 -0.31063182581E+03  0.58408027802E+03  0.89869543554E+02 0.  0.
          2    1    3    3  502    0 -0.20410473007E+03  0.12067253784E+03  0.52616865933E+02  0.24287679347E+03  0.00000000000E+00 0. -1.
         -1    1    3    3    0  502 -0.74186052727E+02  0.25521247752E+02 -0.25597898280E+02  0.82523674799E+02  0.00000000000E+00 0.  1.
         11    1    5    5    0    0 -0.73428644138E+02 -0.95751177301E+02  0.14159594287E+03  0.18603619210E+03  0.00000000000E+00 0.  1.
        -11    1    5    5    0    0 -0.13424840215E+03 -0.30037358900E+02  0.12725693146E+03  0.18740118199E+03  0.00000000000E+00 0. -1.
          1    1    6    6  503    0  0.36512774161E+03 -0.34643304209E+02 -0.27130399760E+03  0.45620640650E+03  0.00000000000E+00 0. -1.
         -1    1    6    6    0  503  0.12084008747E+03  0.14238054819E+02 -0.39327828216E+02  0.12787387152E+03  0.00000000000E+00 0.  1.
<mgrwt>
<rscale>  0 0.12828332E+04</rscale>
<asrwt>0</asrwt>
<pdfrwt beam="1">  1        2 0.97550626E-01 0.12828332E+04</pdfrwt>
<pdfrwt beam="2">  1       -1 0.99821393E-01 0.12828332E+04</pdfrwt>
<totfact> 0.49775354E+01</totfact>
</mgrwt>
</event>
<event>
12    6  0.1529770E-007  0.1314092E+04  0.7818608E-02  0.9018464E-01
         -1   -1    0    0    0  501 -0.00000000000E+00  0.00000000000E+00  0.21527545176E+03  0.21527545176E+03  0.00000000000E+00 0.  1.
          2   -1    0    0  501    0  0.00000000000E+00 -0.00000000000E+00 -0.20053819146E+04  0.20053819146E+04  0.00000000000E+00 0. -1.
         24    2    1    2    0    0  0.33570737817E+02 -0.32297179777E+03 -0.28103011964E+03  0.43667237154E+03  0.79164735344E+02 0.  0.
        254    2    1    2    0    0 -0.33570737817E+02  0.32297179777E+03 -0.15090763432E+04  0.17839849948E+04  0.89434516577E+03 0.  0.
         23    2    4    4    0    0 -0.22764703739E+03  0.28262863770E+03 -0.15197227017E+04  0.15651167337E+04  0.91275296112E+02 0.  0.
         23    2    4    4    0    0  0.19407629957E+03  0.40343160072E+02  0.10646358544E+02  0.21886826104E+03  0.92178034908E+02 0.  0.
          2    1    3    3  502    0  0.57651537855E+00  0.87372031892E+00  0.39161876850E+01  0.40536752659E+01  0.00000000000E+00 0. -1.
         -1    1    3    3    0  502  0.32994222439E+02 -0.32384551809E+03 -0.28494630733E+03  0.43261869627E+03  0.00000000000E+00 0.  1.
         11    1    5    5    0    0 -0.44731288368E+02  0.35475100352E+02 -0.13337009619E+03  0.14507568184E+03  0.00000000000E+00 0.  1.
        -11    1    5    5    0    0 -0.18291574902E+03  0.24715353735E+03 -0.13863526055E+04  0.14200410519E+04  0.00000000000E+00 0. -1.
          1    1    6    6  503    0  0.20073192201E+03  0.46689428281E+02  0.17859728207E+01  0.20609802747E+03  0.00000000000E+00 0. -1.
         -1    1    6    6    0  503 -0.66556224396E+01 -0.63462682092E+01  0.88603857234E+01  0.12770233569E+02  0.00000000000E+00 0.  1.
<mgrwt>
<rscale>  0 0.13140921E+04</rscale>
<asrwt>0</asrwt>
<pdfrwt beam="1">  1        2 0.30852029E+00 0.13140921E+04</pdfrwt>
<pdfrwt beam="2">  1       -1 0.33119301E-01 0.13140921E+04</pdfrwt>
<totfact> 0.63451286E+01</totfact>
</mgrwt>
</event>
<event>
12    6  0.1529770E-007  0.1514166E+04  0.7818608E-02  0.8875087E-01
         -1   -1    0    0    0  501 -0.00000000000E+00  0.00000000000E+00  0.82428700027E+03  0.82428700027E+03  0.00000000000E+00 0.  1.
          2   -1    0    0  501    0  0.00000000000E+00 -0.00000000000E+00 -0.69535801867E+03  0.69535801867E+03  0.00000000000E+00 0. -1.
         24    2    1    2    0    0 -0.20409992605E+03 -0.35264901981E+03 -0.22016701602E+03  0.47051648026E+03  0.83030911519E+02 0.  0.
        254    2    1    2    0    0  0.20409992605E+03  0.35264901981E+03  0.34909599762E+03  0.10491285387E+04  0.90154565282E+03 0.  0.
         23    2    4    4    0    0  0.47169599354E+03  0.34165501276E+03  0.45692329462E+03  0.74618303141E+03  0.93728123451E+02 0.  0.
         23    2    4    4    0    0 -0.26759606748E+03  0.10994007051E+02 -0.10782729700E+03  0.30294550727E+03  0.91764540396E+02 0.  0.
          4    1    3    3  502    0 -0.11854131571E+03 -0.20481740286E+03 -0.17354614671E+03  0.29346290580E+03  0.00000000000E+00 0. -1.
         -3    1    3    3    0  502 -0.85558610342E+02 -0.14783161695E+03 -0.46620869312E+02  0.17705357446E+03  0.00000000000E+00 0.  1.
         11    1    5    5    0    0  0.18140284731E+03  0.15074299879E+03  0.24045785925E+03  0.33682402938E+03  0.00000000000E+00 0. -1.
        -11    1    5    5    0    0  0.29029314623E+03  0.19091201397E+03  0.21646543538E+03  0.40935900202E+03  0.00000000000E+00 0.  1.
          2    1    6    6  503    0 -0.50166443249E+02 -0.12285383086E+02 -0.59881916415E+02  0.79078736581E+02  0.00000000000E+00 0. -1.
         -2    1    6    6    0  503 -0.21742962423E+03  0.23279390136E+02 -0.47945380588E+02  0.22386677069E+03  0.00000000000E+00 0.  1.
<mgrwt>
<rscale>  0 0.15141659E+04</rscale>
<asrwt>0</asrwt>
<pdfrwt beam="1">  1        2 0.10697816E+00 0.15141659E+04</pdfrwt>
<pdfrwt beam="2">  1       -1 0.12681338E+00 0.15141659E+04</pdfrwt>
<totfact> 0.24596628E+01</totfact>
</mgrwt>
</event>
<event>
12    6  0.1529770E-007  0.1352009E+04  0.7818608E-02  0.8989309E-01
          4   -1    0    0  501    0  0.00000000000E+00  0.00000000000E+00  0.20044587402E+03  0.20044587402E+03  0.00000000000E+00 0. -1.
         -3   -1    0    0    0  501 -0.00000000000E+00 -0.00000000000E+00 -0.22798266988E+04  0.22798266988E+04  0.00000000000E+00 0.  1.
         24    2    1    2    0    0  0.48044006556E+02 -0.29615637007E+03 -0.18217737677E+03  0.36009028965E+03  0.80371624312E+02 0.  0.
        254    2    1    2    0    0 -0.48044006556E+02  0.29615637007E+03 -0.18972034480E+04  0.21201822831E+04  0.89764980288E+03 0.  0.
         23    2    4    4    0    0  0.17020232676E+03 -0.23919018752E+03 -0.10198000466E+04  0.10651384170E+04  0.91361558420E+02 0.  0.
         23    2    4    4    0    0 -0.21824633332E+03  0.53534655758E+03 -0.87740340137E+03  0.10550438662E+04  0.95149525067E+02 0.  0.
          4    1    3    3  502    0 -0.49225709685E+01 -0.16966782027E+03 -0.12822611957E+03  0.21272832129E+03  0.00000000000E+00 0. -1.
         -3    1    3    3    0  502  0.52966577524E+02 -0.12648854980E+03 -0.53951257208E+02  0.14736196836E+03  0.00000000000E+00 0.  1.
         11    1    5    5    0    0  0.17084265192E+02 -0.38771458536E+02 -0.65010438208E+02  0.77598035994E+02  0.00000000000E+00 0.  1.
        -11    1    5    5    0    0  0.15311806157E+03 -0.20041872898E+03 -0.95478960841E+03  0.98754038096E+03  0.00000000000E+00 0. -1.
          1    1    6    6  503    0 -0.14270971372E+03  0.42632431978E+03 -0.62478896045E+03  0.76972705106E+03  0.00000000000E+00 0. -1.
         -1    1    6    6    0  503 -0.75536619594E+02  0.10902223780E+03 -0.25261444091E+03  0.28531681512E+03  0.00000000000E+00 0.  1.
<mgrwt>
<rscale>  0 0.13520087E+04</rscale>
<asrwt>0</asrwt>
<pdfrwt beam="1">  1        4 0.30837826E-01 0.13520087E+04</pdfrwt>
<pdfrwt beam="2">  1       -3 0.35074257E+00 0.13520087E+04</pdfrwt>
<totfact> 0.45774527E-01</totfact>
</mgrwt>
</event>
<event>
12    6  0.1529770E-007  0.2780414E+04  0.7818608E-02  0.8309375E-01
         -3   -1    0    0    0  501 -0.00000000000E+00  0.00000000000E+00  0.13132864464E+04  0.13132864464E+04  0.00000000000E+00 0.  1.
          4   -1    0    0  501    0  0.00000000000E+00 -0.00000000000E+00 -0.14716329035E+04  0.14716329035E+04  0.00000000000E+00 0. -1.
         24    2    1    2    0    0  0.43208132699E+02  0.48512451166E+03 -0.12135453630E+04  0.13098581758E+04  0.76310930637E+02 0.  0.
        254    2    1    2    0    0 -0.43208132699E+02 -0.48512451166E+03  0.10551989059E+04  0.14750611741E+04  0.90837657498E+03 0.  0.
         23    2    4    4    0    0 -0.46681212987E+03 -0.27780853069E+03  0.54245352551E+03  0.77265883747E+03  0.87491185091E+02 0.  0.
         23    2    4    4    0    0  0.42360399717E+03 -0.20731598097E+03  0.51274538035E+03  0.70240233667E+03  0.89671372766E+02 0.  0.
          2    1    3    3  502    0  0.15003039274E+02  0.38109010587E+03 -0.87329540833E+03  0.95294261642E+03  0.00000000000E+00 0. -1.
         -1    1    3    3    0  502  0.28205093425E+02  0.10403440579E+03 -0.34024995463E+03  0.35691555936E+03  0.00000000000E+00 0.  1.
         11    1    5    5    0    0 -0.35785132322E+03 -0.21554666598E+03  0.36151244848E+03  0.55245740573E+03  0.00000000000E+00 0. -1.
        -11    1    5    5    0    0 -0.10896080665E+03 -0.62261864713E+02  0.18094107703E+03  0.22020143174E+03  0.00000000000E+00 0.  1.
          1    1    6    6  503    0  0.41371650029E+03 -0.18099351631E+03  0.48883954420E+03  0.66549537604E+03  0.00000000000E+00 0. -1.
         -1    1    6    6    0  503  0.98874968849E+01 -0.26322464662E+02  0.23905836155E+02  0.36906960628E+02  0.00000000000E+00 0.  1.
<mgrwt>
<rscale>  0 0.27804140E+04</rscale>
<asrwt>0</asrwt>
<pdfrwt beam="1">  1        4 0.22640506E+00 0.27804140E+04</pdfrwt>
<pdfrwt beam="2">  1       -3 0.20204407E+00 0.27804140E+04</pdfrwt>
<totfact> 0.24988960E-02</totfact>
</mgrwt>
</event>
<event>
12    6  0.1529770E-007  0.1592969E+04  0.7818608E-02  0.8824879E-01
          2   -1    0    0  501    0  0.00000000000E+00  0.00000000000E+00  0.85053648131E+03  0.85053648131E+03  0.00000000000E+00 0. -1.
         -1   -1    0    0    0  501 -0.00000000000E+00 -0.00000000000E+00 -0.74586762787E+03  0.74586762787E+03  0.00000000000E+00 0.  1.
         24    2    1    2    0    0 -0.35225893483E+03  0.21810999813E+03 -0.39266407778E+03  0.57629658554E+03  0.79210782587E+02 0.  0.
        254    2    1    2    0    0  0.35225893483E+03 -0.21810999813E+03  0.49733293122E+03  0.10201075236E+04  0.78842944317E+03 0.  0.
         23    2    4    4    0    0 -0.14750228326E+03 -0.24076617092E+03 -0.17245848452E+02  0.29650529348E+03  0.88840852897E+02 0.  0.
         23    2    4    4    0    0  0.49976121809E+03  0.22656172794E+02  0.51457877967E+03  0.72360223016E+03  0.92381219556E+02 0.  0.
          2    1    3    3  502    0 -0.75144656668E+02  0.24132070705E+02 -0.43352353695E+02  0.90047225571E+02  0.00000000000E+00 0. -1.
         -1    1    3    3    0  502 -0.27711427816E+03  0.19397792742E+03 -0.34931172409E+03  0.48624935997E+03  0.00000000000E+00 0.  1.
         11    1    5    5    0    0 -0.13224378414E+03 -0.13853030772E+03 -0.23466181091E+02  0.19295006156E+03  0.00000000000E+00 0.  1.
        -11    1    5    5    0    0 -0.15258499126E+02 -0.10223586320E+03  0.62203326386E+01  0.10355523192E+03  0.00000000000E+00 0. -1.
          3    1    6    6  503    0  0.66959323462E+01  0.93038348768E+01  0.97163858372E+00  0.11503953014E+02  0.00000000000E+00 0. -1.
         -3    1    6    6    0  503  0.49306528574E+03  0.13352337917E+02  0.51360714109E+03  0.71209827714E+03  0.00000000000E+00 0.  1.
<mgrwt>
<rscale>  0 0.15929691E+04</rscale>
<asrwt>0</asrwt>
<pdfrwt beam="1">  1        2 0.13085177E+00 0.15929691E+04</pdfrwt>
<pdfrwt beam="2">  1       -1 0.11474887E+00 0.15929691E+04</pdfrwt>
<totfact> 0.23970324E+01</totfact>
</mgrwt>
</event>
<event>
12    6  0.1593218E-007  0.2020337E+04  0.7818608E-02  0.8597171E-01
         -1   -1    0    0    0  501 -0.00000000000E+00  0.00000000000E+00  0.11934733417E+04  0.11934733417E+04  0.00000000000E+00 0.  1.
          2   -1    0    0  501    0  0.00000000000E+00 -0.00000000000E+00 -0.85501773205E+03  0.85501773205E+03  0.00000000000E+00 0. -1.
         24    2    1    2    0    0  0.26416572471E+03 -0.20794129759E+03  0.77295315686E+03  0.84694746786E+03  0.82706210553E+02 0.  0.
        254    2    1    2    0    0 -0.26416572471E+03  0.20794129759E+03 -0.43449754725E+03  0.12015436058E+04  0.10685952484E+04 0.  0.
         23    2    4    4    0    0 -0.49530891776E+03  0.49260192494E+03 -0.42389731533E+03  0.82221870081E+03  0.91471730880E+02 0.  0.
         23    2    4    4    0    0  0.23114319305E+03 -0.28466062734E+03 -0.10600231921E+02  0.37932490504E+03  0.96520309858E+02 0.  0.
          4    1    3    3  502    0  0.13485220923E+02 -0.39342621200E+02  0.13137669973E+03  0.13780250454E+03  0.00000000000E+00 0. -1.
         -3    1    3    3    0  502  0.25068050379E+03 -0.16859867639E+03  0.64157645713E+03  0.70914496333E+03  0.00000000000E+00 0.  1.
         11    1    5    5    0    0 -0.16597844883E+02  0.25224434606E+02 -0.42418118329E+02  0.52067814612E+02  0.00000000000E+00 0. -1.
        -11    1    5    5    0    0 -0.47871107287E+03  0.46737749033E+03 -0.38147919700E+03  0.77015088619E+03  0.00000000000E+00 0.  1.
          1    1    6    6  503    0  0.88271568650E+02 -0.16780113370E+03  0.25320519095E+02  0.19128569991E+03  0.00000000000E+00 0. -1.
         -1    1    6    6    0  503  0.14287162440E+03 -0.11685949365E+03 -0.35920751016E+02  0.18803920513E+03  0.00000000000E+00 0.  1.
<mgrwt>
<rscale>  0 0.20203375E+04</rscale>
<asrwt>0</asrwt>
<pdfrwt beam="1">  1        2 0.13154119E+00 0.20203375E+04</pdfrwt>
<pdfrwt beam="2">  1       -1 0.18361128E+00 0.20203375E+04</pdfrwt>
<totfact> 0.65335571E+00</totfact>
</mgrwt>
</event>
<event>
12    6  0.1529770E-007  0.1752064E+04  0.7818608E-02  0.8732215E-01
         -3   -1    0    0    0  501 -0.00000000000E+00  0.00000000000E+00  0.67470939501E+03  0.67470939501E+03  0.00000000000E+00 0.  1.
          2   -1    0    0  501    0  0.00000000000E+00 -0.00000000000E+00 -0.11374257195E+04  0.11374257195E+04  0.00000000000E+00 0. -1.
         24    2    1    2    0    0  0.38032456638E+03 -0.28382026839E+03 -0.61109910991E+03  0.77726987219E+03  0.74199808165E+02 0.  0.
        254    2    1    2    0    0 -0.38032456638E+03  0.28382026839E+03  0.14838278539E+03  0.10348652424E+04  0.90759456714E+03 0.  0.
         23    2    4    4    0    0 -0.75348547123E+02 -0.25438896609E+03  0.27608651979E+03  0.39476780174E+03  0.96055719549E+02 0.  0.
         23    2    4    4    0    0 -0.30497601925E+03  0.53820923448E+03 -0.12770373439E+03  0.64009744062E+03  0.10361919371E+03 0.  0.
          4    1    3    3  502    0  0.32025428988E+03 -0.20296047626E+03 -0.46900354635E+03  0.60309210872E+03  0.00000000000E+00 0. -1.
         -3    1    3    3    0  502  0.60070276498E+02 -0.80859792133E+02 -0.14209556357E+03  0.17417776347E+03  0.00000000000E+00 0.  1.
         11    1    5    5    0    0 -0.32949146486E+02 -0.41544425427E+02  0.10781470625E+03  0.12014822688E+03  0.00000000000E+00 0. -1.
        -11    1    5    5    0    0 -0.42399400637E+02 -0.21284454066E+03  0.16827181354E+03  0.27461957486E+03  0.00000000000E+00 0.  1.
          1    1    6    6  503    0 -0.24462579777E+02  0.37490392507E+02 -0.38944270784E+02  0.59334674234E+02  0.00000000000E+00 0. -1.
         -1    1    6    6    0  503 -0.28051343948E+03  0.50071884198E+03 -0.88759463609E+02  0.58076276639E+03  0.00000000000E+00 0.  1.
<mgrwt>
<rscale>  0 0.17520637E+04</rscale>
<asrwt>0</asrwt>
<pdfrwt beam="1">  1        2 0.17498857E+00 0.17520637E+04</pdfrwt>
<pdfrwt beam="2">  1       -3 0.10380145E+00 0.17520637E+04</pdfrwt>
<totfact> 0.99437753E+00</totfact>
</mgrwt>
</event>
<event>
12    6  0.1529770E-007  0.1441026E+04  0.7818608E-02  0.8924646E-01
          2   -1    0    0  501    0  0.00000000000E+00  0.00000000000E+00  0.18546518774E+04  0.18546518774E+04  0.00000000000E+00 0. -1.
         -1   -1    0    0    0  501 -0.00000000000E+00 -0.00000000000E+00 -0.27991183357E+03  0.27991183357E+03  0.00000000000E+00 0.  1.
         24    2    1    2    0    0 -0.22334098755E+03 -0.37035147215E+03  0.49863341032E+03  0.66542093735E+03  0.84310950287E+02 0.  0.
        254    2    1    2    0    0  0.22334098755E+03  0.37035147215E+03  0.10761066335E+04  0.14691427736E+04  0.90185009448E+03 0.  0.
         23    2    4    4    0    0  0.29436968672E+03 -0.22765016316E+03  0.50835214804E+03  0.63648227435E+03  0.90607228703E+02 0.  0.
         23    2    4    4    0    0 -0.71028699171E+02  0.59800163531E+03  0.56775448544E+03  0.83266049924E+03  0.91254146855E+02 0.  0.
          2    1    3    3  502    0 -0.97988670525E+02 -0.12663688448E+03  0.24054223731E+03  0.28896236432E+03  0.00000000000E+00 0. -1.
         -1    1    3    3    0  502 -0.12535231702E+03 -0.24371458767E+03  0.25809117301E+03  0.37645857304E+03  0.00000000000E+00 0.  1.
         11    1    5    5    0    0  0.28764025889E+03 -0.19201950316E+03  0.47194122321E+03  0.58509565568E+03  0.00000000000E+00 0.  1.
        -11    1    5    5    0    0  0.67294278234E+01 -0.35630659999E+02  0.36410924828E+02  0.51386618663E+02  0.00000000000E+00 0. -1.
          3    1    6    6  503    0  0.17699916162E+02  0.15136183120E+03  0.16672872012E+03  0.22588084711E+03  0.00000000000E+00 0. -1.
         -3    1    6    6    0  503 -0.88728615333E+02  0.44663980410E+03  0.40102576532E+03  0.60677965213E+03  0.00000000000E+00 0.  1.
<mgrwt>
<rscale>  0 0.14410260E+04</rscale>
<asrwt>0</asrwt>
<pdfrwt beam="1">  1        2 0.28533105E+00 0.14410260E+04</pdfrwt>
<pdfrwt beam="2">  1       -1 0.43063360E-01 0.14410260E+04</pdfrwt>
<totfact> 0.47292149E+01</totfact>
</mgrwt>
</event>
<event>
12    6  0.1529770E-007  0.1669499E+04  0.7818608E-02  0.8778954E-01
         -1   -1    0    0    0  501 -0.00000000000E+00  0.00000000000E+00  0.47598546853E+03  0.47598546853E+03  0.00000000000E+00 0.  1.
          2   -1    0    0  501    0  0.00000000000E+00 -0.00000000000E+00 -0.14639234978E+04  0.14639234978E+04  0.00000000000E+00 0. -1.
         24    2    1    2    0    0 -0.21767843397E+02 -0.42269987951E+03 -0.81581156158E+03  0.92276220332E+03  0.82416944413E+02 0.  0.
        254    2    1    2    0    0  0.21767843397E+02  0.42269987951E+03 -0.17212646772E+03  0.10171467630E+04  0.90874143161E+03 0.  0.
         23    2    4    4    0    0  0.36240519932E+03  0.76716336581E+02  0.16841719923E+03  0.41698239184E+03  0.91033166001E+02 0.  0.
         23    2    4    4    0    0 -0.34063735592E+03  0.34598354293E+03 -0.34054366695E+03  0.60016437120E+03  0.92135026601E+02 0.  0.
          4    1    3    3  502    0 -0.30408300706E+02 -0.29774677307E+03 -0.64391817198E+03  0.71007634648E+03  0.00000000000E+00 0. -1.
         -3    1    3    3    0  502  0.86404573088E+01 -0.12495310644E+03 -0.17189338960E+03  0.21268585684E+03  0.00000000000E+00 0.  1.
         11    1    5    5    0    0  0.18998716007E+03  0.39357900784E+02  0.13767610169E+03  0.23790517926E+03  0.00000000000E+00 0. -1.
        -11    1    5    5    0    0  0.17241803926E+03  0.37358435796E+02  0.30741097547E+02  0.17907721258E+03  0.00000000000E+00 0.  1.
          1    1    6    6  503    0 -0.35485016481E+02  0.71919743870E+02 -0.85259994816E+02  0.11705085505E+03  0.00000000000E+00 0. -1.
         -1    1    6    6    0  503 -0.30515233944E+03  0.27406379906E+03 -0.25528367214E+03  0.48311351615E+03  0.00000000000E+00 0.  1.
<mgrwt>
<rscale>  0 0.16694985E+04</rscale>
<asrwt>0</asrwt>
<pdfrwt beam="1">  1        2 0.22521900E+00 0.16694985E+04</pdfrwt>
<pdfrwt beam="2">  1       -1 0.73228533E-01 0.16694985E+04</pdfrwt>
<totfact> 0.27180786E+01</totfact>
</mgrwt>
</event>
<event>
12    6  0.1529770E-007  0.2504823E+04  0.7818608E-02  0.8401269E-01
          2   -1    0    0  501    0  0.00000000000E+00  0.00000000000E+00  0.27553465794E+04  0.27553465794E+04  0.00000000000E+00 0. -1.
         -1   -1    0    0    0  501 -0.00000000000E+00 -0.00000000000E+00 -0.56926962909E+03  0.56926962909E+03  0.00000000000E+00 0.  1.
         24    2    1    2    0    0  0.30138865057E+02 -0.15340012543E+03 -0.47057198372E+03  0.50236494438E+03  0.80576645526E+02 0.  0.
        254    2    1    2    0    0 -0.30138865057E+02  0.15340012543E+03  0.26566489341E+04  0.28222512641E+04  0.93961624584E+03 0.  0.
         23    2    4    4    0    0 -0.78476072612E+02  0.35503729761E+03  0.25389900790E+04  0.25666157517E+04  0.93999037973E+02 0.  0.
         23    2    4    4    0    0  0.48337207555E+02 -0.20163717218E+03  0.11765885508E+03  0.25563551242E+03  0.92259818969E+02 0.  0.
          4    1    3    3  502    0 -0.12943057920E+02 -0.66580412131E+02 -0.11210778171E+03  0.13102911412E+03  0.00000000000E+00 0. -1.
         -3    1    3    3    0  502  0.43081922977E+02 -0.86819713301E+02 -0.35846420202E+03  0.37133583026E+03  0.00000000000E+00 0.  1.
         11    1    5    5    0    0 -0.89563643606E+02  0.21328018905E+03  0.14391259867E+04  0.14575986042E+04  0.00000000000E+00 0. -1.
        -11    1    5    5    0    0  0.11087570994E+02  0.14175710856E+03  0.10998640922E+04  0.11090171475E+04  0.00000000000E+00 0.  1.
          2    1    6    6  503    0  0.78798172093E+01 -0.79872790866E+02 -0.18628374629E+01  0.80282154949E+02  0.00000000000E+00 0. -1.
         -2    1    6    6    0  503  0.40457390345E+02 -0.12176438131E+03  0.11952169254E+03  0.17535335747E+03  0.00000000000E+00 0.  1.
<mgrwt>
<rscale>  0 0.25048234E+04</rscale>
<asrwt>0</asrwt>
<pdfrwt beam="1">  1        2 0.42389947E+00 0.25048234E+04</pdfrwt>
<pdfrwt beam="2">  1       -1 0.87579945E-01 0.25048234E+04</pdfrwt>
<totfact> 0.31994032E+00</totfact>
</mgrwt>
</event>
<event>
12    6  0.1529770E-007  0.1362337E+04  0.7818608E-02  0.8981541E-01
         -1   -1    0    0    0  501 -0.00000000000E+00  0.00000000000E+00  0.21789766296E+03  0.21789766296E+03  0.00000000000E+00 0.  1.
          2   -1    0    0  501    0  0.00000000000E+00 -0.00000000000E+00 -0.21293966410E+04  0.21293966410E+04  0.00000000000E+00 0. -1.
         24    2    1    2    0    0  0.13440485071E+03 -0.20528092264E+03 -0.40378085407E+02  0.26121131811E+03  0.79975257658E+02 0.  0.
        254    2    1    2    0    0 -0.13440485071E+03  0.20528092264E+03 -0.18711208926E+04  0.20860829858E+04  0.88906912435E+03 0.  0.
         23    2    4    4    0    0 -0.20076846277E+03 -0.11974060909E+03 -0.16728508970E+04  0.16915607208E+04  0.91113991800E+02 0.  0.
         23    2    4    4    0    0  0.66363612057E+02  0.32502153172E+03 -0.19826999562E+03  0.39452226501E+03  0.79332851572E+02 0.  0.
          4    1    3    3  502    0  0.66145248697E+01 -0.65038760958E+02 -0.27871203524E+02  0.71067547813E+02  0.00000000000E+00 0. -1.
         -3    1    3    3    0  502  0.12779032584E+03 -0.14024216168E+03 -0.12506881883E+02  0.19014377030E+03  0.00000000000E+00 0.  1.
         11    1    5    5    0    0 -0.12153818877E+03 -0.46705711957E+02 -0.11743720047E+04  0.11815678399E+04  0.00000000000E+00 0. -1.
        -11    1    5    5    0    0 -0.79230273993E+02 -0.73034897130E+02 -0.49847889230E+03  0.50999288091E+03  0.00000000000E+00 0.  1.
          4    1    6    6  503    0  0.53730916533E+02  0.96884209729E+02 -0.46064126531E+02  0.11998110368E+03  0.00000000000E+00 0. -1.
         -4    1    6    6    0  503  0.12632695524E+02  0.22813732200E+03 -0.15220586909E+03  0.27454116134E+03  0.00000000000E+00 0.  1.
<mgrwt>
<rscale>  0 0.13623370E+04</rscale>
<asrwt>0</asrwt>
<pdfrwt beam="1">  1        2 0.32759947E+00 0.13623370E+04</pdfrwt>
<pdfrwt beam="2">  1       -1 0.33522718E-01 0.13623370E+04</pdfrwt>
<totfact> 0.52787472E+01</totfact>
</mgrwt>
</event>
<event>
12    6  0.1529770E-007  0.1379603E+04  0.7818608E-02  0.8968716E-01
          2   -1    0    0  501    0  0.00000000000E+00  0.00000000000E+00  0.61706837535E+03  0.61706837535E+03  0.00000000000E+00 0. -1.
         -1   -1    0    0    0  501 -0.00000000000E+00 -0.00000000000E+00 -0.77110801378E+03  0.77110801378E+03  0.00000000000E+00 0.  1.
         24    2    1    2    0    0  0.35498868606E+03 -0.81524434737E+02  0.71150736281E+02  0.37874195976E+03  0.75629651038E+02 0.  0.
        254    2    1    2    0    0 -0.35498868606E+03  0.81524434737E+02 -0.22519037471E+03  0.10094344294E+04  0.91410281787E+03 0.  0.
         23    2    4    4    0    0  0.10239741396E+03  0.77751385888E+02 -0.46007019861E+03  0.48656887306E+03  0.92488767894E+02 0.  0.
         23    2    4    4    0    0 -0.45738610003E+03  0.37730488495E+01  0.23487982390E+03  0.52286555631E+03  0.94887185132E+02 0.  0.
          4    1    3    3  502    0  0.61921885694E+02 -0.37049487637E+02  0.34756927963E+02  0.80093873071E+02  0.00000000000E+00 0. -1.
         -3    1    3    3    0  502  0.29306680037E+03 -0.44474947100E+02  0.36393808318E+02  0.29864808669E+03  0.00000000000E+00 0.  1.
         11    1    5    5    0    0  0.11223601419E+03  0.73548534110E+02 -0.33257777887E+03  0.35862834348E+03  0.00000000000E+00 0. -1.
        -11    1    5    5    0    0 -0.98386002224E+01  0.42028517779E+01 -0.12749241973E+03  0.12794052957E+03  0.00000000000E+00 0.  1.
          3    1    6    6  503    0 -0.43928142307E+03  0.74995788946E+01  0.19859860132E+03  0.48214709041E+03  0.00000000000E+00 0. -1.
         -3    1    6    6    0  503 -0.18104676957E+02 -0.37265300450E+01  0.36281222576E+02  0.40718465903E+02  0.00000000000E+00 0.  1.
<mgrwt>
<rscale>  0 0.13796034E+04</rscale>
<asrwt>0</asrwt>
<pdfrwt beam="1">  1        2 0.94933596E-01 0.13796034E+04</pdfrwt>
<pdfrwt beam="2">  1       -1 0.11863200E+00 0.13796034E+04</pdfrwt>
<totfact> 0.34004854E+01</totfact>
</mgrwt>
</event>
<event>
12    6  0.1529770E-007  0.2053089E+04  0.7818608E-02  0.8582194E-01
          2   -1    0    0  501    0  0.00000000000E+00  0.00000000000E+00  0.18008395390E+04  0.18008395390E+04  0.00000000000E+00 0. -1.
         -1   -1    0    0    0  501 -0.00000000000E+00 -0.00000000000E+00 -0.58516776841E+03  0.58516776841E+03  0.00000000000E+00 0.  1.
         24    2    1    2    0    0  0.52954358849E+03 -0.49080702879E+03  0.69833786081E+03  0.10076803022E+04  0.80223886495E+02 0.  0.
        254    2    1    2    0    0 -0.52954358849E+03  0.49080702879E+03  0.51733390978E+03  0.13783270052E+04  0.10539653730E+04 0.  0.
         23    2    4    4    0    0  0.28985862754E+03  0.42867380947E+02  0.26789798576E+03  0.40748238334E+03  0.91743804399E+02 0.  0.
         23    2    4    4    0    0 -0.81940221603E+03  0.44793964784E+03  0.24943592402E+03  0.97084462187E+03  0.90835454998E+02 0.  0.
          4    1    3    3  502    0  0.38693830911E+03 -0.32783892692E+03  0.44810470753E+03  0.67675508566E+03  0.00000000000E+00 0. -1.
         -3    1    3    3    0  502  0.14260527939E+03 -0.16296810187E+03  0.25023315329E+03  0.33092521654E+03  0.00000000000E+00 0.  1.
         11    1    5    5    0    0  0.25012479334E+02 -0.16902089718E+02  0.53903123649E+02  0.61780672531E+02  0.00000000000E+00 0.  1.
        -11    1    5    5    0    0  0.26484614821E+03  0.59769470665E+02  0.21399486212E+03  0.34570171081E+03  0.00000000000E+00 0. -1.
          2    1    6    6  503    0 -0.23633553619E+03  0.83494795870E+02  0.64819448318E+02  0.25889655750E+03  0.00000000000E+00 0. -1.
         -2    1    6    6    0  503 -0.58306667984E+03  0.36444485197E+03  0.18461647570E+03  0.71194806438E+03  0.00000000000E+00 0.  1.
<mgrwt>
<rscale>  0 0.20530887E+04</rscale>
<asrwt>0</asrwt>
<pdfrwt beam="1">  1        2 0.27705223E+00 0.20530887E+04</pdfrwt>
<pdfrwt beam="2">  1       -1 0.90025812E-01 0.20530887E+04</pdfrwt>
<totfact> 0.10960506E+01</totfact>
</mgrwt>
</event>
<event>
12    6  0.1529770E-007  0.1961421E+04  0.7818608E-02  0.8624873E-01
          2   -1    0    0  501    0  0.00000000000E+00  0.00000000000E+00  0.22215348367E+04  0.22215348367E+04  0.00000000000E+00 0. -1.
         -1   -1    0    0    0  501 -0.00000000000E+00 -0.00000000000E+00 -0.43294098036E+03  0.43294098036E+03  0.00000000000E+00 0.  1.
         24    2    1    2    0    0  0.40753240499E+03 -0.64046326610E+03  0.52963576916E+03  0.92939567212E+03  0.83584753650E+02 0.  0.
        254    2    1    2    0    0 -0.40753240499E+03  0.64046326610E+03  0.12589580872E+04  0.17250801450E+04  0.90257973880E+03 0.  0.
         23    2    4    4    0    0 -0.13315822883E+03  0.54850359690E+03  0.17245580693E+03  0.59705913414E+03  0.90284520320E+02 0.  0.
         23    2    4    4    0    0 -0.27437417617E+03  0.91959669199E+02  0.10865022803E+04  0.11280210108E+04  0.90589328935E+02 0.  0.
          2    1    3    3  502    0  0.22509011506E+03 -0.30933994162E+03  0.22460154388E+03  0.44362440521E+03  0.00000000000E+00 0. -1.
         -1    1    3    3    0  502  0.18244228993E+03 -0.33112332447E+03  0.30503422529E+03  0.48577126692E+03  0.00000000000E+00 0.  1.
         11    1    5    5    0    0 -0.45671167184E+02  0.36883872957E+03  0.11800983720E+03  0.38994125919E+03  0.00000000000E+00 0. -1.
        -11    1    5    5    0    0 -0.87487061641E+02  0.17966486733E+03  0.54445969730E+02  0.20711787496E+03  0.00000000000E+00 0.  1.
          1    1    6    6  503    0 -0.14755356088E+03  0.69932011147E+02  0.45189521733E+03  0.48049123505E+03  0.00000000000E+00 0. -1.
         -1    1    6    6    0  503 -0.12682061529E+03  0.22027658052E+02  0.63460706294E+03  0.64752977577E+03  0.00000000000E+00 0.  1.
<mgrwt>
<rscale>  0 0.19614214E+04</rscale>
<asrwt>0</asrwt>
<pdfrwt beam="1">  1        2 0.34177458E+00 0.19614214E+04</pdfrwt>
<pdfrwt beam="2">  1       -1 0.66606306E-01 0.19614214E+04</pdfrwt>
<totfact> 0.12169854E+01</totfact>
</mgrwt>
</event>
<event>
12    6  0.1529770E-007  0.1614645E+04  0.7818608E-02  0.8811601E-01
          2   -1    0    0  501    0  0.00000000000E+00  0.00000000000E+00  0.26788379865E+04  0.26788379865E+04  0.00000000000E+00 0. -1.
         -1   -1    0    0    0  501 -0.00000000000E+00 -0.00000000000E+00 -0.24330321626E+03  0.24330321626E+03  0.00000000000E+00 0.  1.
         24    2    1    2    0    0  0.33542848140E+03  0.28791796243E+03  0.14433152725E+04  0.15112755715E+04  0.73388403824E+02 0.  0.
        254    2    1    2    0    0 -0.33542848140E+03 -0.28791796243E+03  0.99221949767E+03  0.14108656312E+04  0.90035175272E+03 0.  0.
         23    2    4    4    0    0 -0.32569413496E+03  0.24499698056E+03  0.64371167030E+03  0.76731156582E+03  0.91116049837E+02 0.  0.
         23    2    4    4    0    0 -0.97343464425E+01 -0.53291494300E+03  0.34850782737E+03  0.64355406541E+03  0.92795664782E+02 0.  0.
          2    1    3    3  502    0  0.19742967242E+03  0.12115677035E+03  0.74247474116E+03  0.77777000444E+03  0.00000000000E+00 0. -1.
         -1    1    3    3    0  502  0.13799880898E+03  0.16676119208E+03  0.70084053138E+03  0.73350556705E+03  0.00000000000E+00 0.  1.
         11    1    5    5    0    0 -0.16143505762E+03  0.16991850993E+03  0.40568570388E+03  0.46852371143E+03  0.00000000000E+00 0.  1.
        -11    1    5    5    0    0 -0.16425907733E+03  0.75078470633E+02  0.23802596642E+03  0.29878785439E+03  0.00000000000E+00 0. -1.
          2    1    6    6  503    0  0.26915100655E+01 -0.43395708050E+02  0.63546743917E+02  0.76997534805E+02  0.00000000000E+00 0. -1.
         -2    1    6    6    0  503 -0.12425856508E+02 -0.48951923495E+03  0.28496108345E+03  0.56655653061E+03  0.00000000000E+00 0.  1.
<mgrwt>
<rscale>  0 0.16146453E+04</rscale>
<asrwt>0</asrwt>
<pdfrwt beam="1">  1        2 0.41212890E+00 0.16146453E+04</pdfrwt>
<pdfrwt beam="2">  1       -1 0.37431266E-01 0.16146453E+04</pdfrwt>
<totfact> 0.20562650E+01</totfact>
</mgrwt>
</event>
<event>
12    6  0.1529770E-007  0.1734698E+04  0.7818608E-02  0.8741818E-01
          2   -1    0    0  501    0  0.00000000000E+00  0.00000000000E+00  0.18774917977E+04  0.18774917977E+04  0.00000000000E+00 0. -1.
         -3   -1    0    0    0  501 -0.00000000000E+00 -0.00000000000E+00 -0.40069125051E+03  0.40069125051E+03  0.00000000000E+00 0.  1.
         24    2    1    2    0    0 -0.27289219916E+03 -0.25545083165E+03 -0.12927221537E+03  0.40439478989E+03  0.84252956461E+02 0.  0.
        254    2    1    2    0    0  0.27289219916E+03  0.25545083165E+03  0.16060727626E+04  0.18737882584E+04  0.88988057551E+03 0.  0.
         23    2    4    4    0    0 -0.81977228794E+02  0.69087139724E+02 -0.63418001064E+02  0.15440396256E+03  0.91243859399E+02 0.  0.
         23    2    4    4    0    0  0.35486942795E+03  0.18636369192E+03  0.16694907637E+04  0.17193842958E+04  0.91756254029E+02 0.  0.
          4    1    3    3  502    0 -0.21236649860E+03 -0.15048207634E+03 -0.10587851045E+03  0.28098869017E+03  0.00000000000E+00 0. -1.
         -3    1    3    3    0  502 -0.60525700557E+02 -0.10496875531E+03 -0.23393704922E+02  0.12340609972E+03  0.00000000000E+00 0.  1.
         11    1    5    5    0    0 -0.96897300124E+01  0.27453452070E+02  0.20865499468E+02  0.35818318865E+02  0.00000000000E+00 0. -1.
        -11    1    5    5    0    0 -0.72287498781E+02  0.41633687655E+02 -0.84283500531E+02  0.11858564369E+03  0.00000000000E+00 0.  1.
          1    1    6    6  503    0  0.37385899242E+02  0.37556536093E+02  0.12831969775E+03  0.13883134983E+03  0.00000000000E+00 0. -1.
         -1    1    6    6    0  503  0.31748352871E+03  0.14880715583E+03  0.15411710659E+04  0.15805529460E+04  0.00000000000E+00 0.  1.
<mgrwt>
<rscale>  0 0.17346983E+04</rscale>
<asrwt>0</asrwt>
<pdfrwt beam="1">  1        2 0.28884489E+00 0.17346983E+04</pdfrwt>
<pdfrwt beam="2">  1       -3 0.61644809E-01 0.17346983E+04</pdfrwt>
<totfact> 0.12182104E+01</totfact>
</mgrwt>
</event>
<event>
12    6  0.1529770E-007  0.2098410E+04  0.7818608E-02  0.8561944E-01
         -1   -1    0    0    0  501 -0.00000000000E+00  0.00000000000E+00  0.39495967074E+03  0.39495967074E+03  0.00000000000E+00 0.  1.
          2   -1    0    0  501    0  0.00000000000E+00 -0.00000000000E+00 -0.27871992208E+04  0.27871992208E+04  0.00000000000E+00 0. -1.
         24    2    1    2    0    0 -0.24531935116E+03  0.71754401765E+03 -0.37815307034E+03  0.85132440876E+03  0.81868815978E+02 0.  0.
        254    2    1    2    0    0  0.24531935116E+03 -0.71754401765E+03 -0.20140864797E+04  0.23308344828E+04  0.89509442909E+03 0.  0.
         23    2    4    4    0    0 -0.51018337920E+02 -0.17500648789E+03 -0.15202629454E+04  0.15340611781E+04  0.94414687729E+02 0.  0.
         23    2    4    4    0    0  0.29633768908E+03 -0.54253752976E+03 -0.49382353428E+03  0.79677330468E+03  0.93930926109E+02 0.  0.
          2    1    3    3  502    0 -0.44409192208E+02  0.13673648952E+03 -0.10889718517E+03  0.18035420943E+03  0.00000000000E+00 0. -1.
         -1    1    3    3    0  502 -0.20091015895E+03  0.58080752813E+03 -0.26925588516E+03  0.67097019934E+03  0.00000000000E+00 0.  1.
         11    1    5    5    0    0 -0.67538867658E+02 -0.15100336936E+03 -0.14214075422E+04  0.14310006699E+04  0.00000000000E+00 0. -1.
        -11    1    5    5    0    0  0.16520529738E+02 -0.24003118530E+02 -0.98855403211E+02  0.10306050818E+03  0.00000000000E+00 0.  1.
          4    1    6    6  503    0  0.82492997476E+02 -0.24502331413E+03 -0.19107125331E+03  0.32148054831E+03  0.00000000000E+00 0.  1.
         -4    1    6    6    0  503  0.21384469161E+03 -0.29751421563E+03 -0.30275228097E+03  0.47529275638E+03  0.00000000000E+00 0. -1.
<mgrwt>
<rscale>  0 0.20984101E+04</rscale>
<asrwt>0</asrwt>
<pdfrwt beam="1">  1        2 0.42879986E+00 0.20984101E+04</pdfrwt>
<pdfrwt beam="2">  1       -1 0.60763029E-01 0.20984101E+04</pdfrwt>
<totfact> 0.67892411E+00</totfact>
</mgrwt>
</event>
<event>
12    6  0.1529770E-007  0.1158056E+04  0.7818608E-02  0.9150384E-01
         -1   -1    0    0    0  501 -0.00000000000E+00  0.00000000000E+00  0.21034416762E+03  0.21034416762E+03  0.00000000000E+00 0.  1.
          2   -1    0    0  501    0  0.00000000000E+00 -0.00000000000E+00 -0.15939276892E+04  0.15939276892E+04  0.00000000000E+00 0. -1.
         24    2    1    2    0    0 -0.59375517361E+02  0.17393573695E+03 -0.84592625148E+02  0.21628124422E+03  0.76436717121E+02 0.  0.
        254    2    1    2    0    0  0.59375517361E+02 -0.17393573695E+03 -0.12989908965E+04  0.15879906126E+04  0.89473892508E+03 0.  0.
         23    2    4    4    0    0  0.41155389303E+03 -0.20755726592E+03 -0.39530587112E+03  0.61340314716E+03  0.86833540183E+02 0.  0.
         23    2    4    4    0    0 -0.35217837567E+03  0.33621528972E+02 -0.90368502535E+03  0.97458746548E+03  0.89521434994E+02 0.  0.
          4    1    3    3  502    0  0.75640295034E+01  0.29470229557E+02  0.88242131480E+01  0.31679263093E+02  0.00000000000E+00 0. -1.
         -3    1    3    3    0  502 -0.66939546865E+02  0.14446550739E+03 -0.93416838296E+02  0.18460198113E+03  0.00000000000E+00 0.  1.
         11    1    5    5    0    0  0.10561657707E+03 -0.81204049426E+02 -0.75437830205E+02  0.15310070288E+03  0.00000000000E+00 0. -1.
        -11    1    5    5    0    0  0.30593731595E+03 -0.12635321649E+03 -0.31986804092E+03  0.46030244428E+03  0.00000000000E+00 0.  1.
          1    1    6    6  503    0 -0.51277987216E+02 -0.21616306120E+02 -0.96834234595E+02  0.11168511831E+03  0.00000000000E+00 0. -1.
         -1    1    6    6    0  503 -0.30090038845E+03  0.55237835093E+02 -0.80685079076E+03  0.86290234716E+03  0.00000000000E+00 0.  1.
<mgrwt>
<rscale>  0 0.11580559E+04</rscale>
<asrwt>0</asrwt>
<pdfrwt beam="1">  1        2 0.24521966E+00 0.11580559E+04</pdfrwt>
<pdfrwt beam="2">  1       -1 0.32360639E-01 0.11580559E+04</pdfrwt>
<totfact> 0.11303903E+02</totfact>
</mgrwt>
</event>
<event>
12    6  0.1529770E-007  0.1228227E+04  0.7818608E-02  0.9088502E-01
         -1   -1    0    0    0  501 -0.00000000000E+00  0.00000000000E+00  0.54333548847E+03  0.54333548847E+03  0.00000000000E+00 0.  1.
          2   -1    0    0  501    0  0.00000000000E+00 -0.00000000000E+00 -0.69411101758E+03  0.69411101758E+03  0.00000000000E+00 0. -1.
         24    2    1    2    0    0  0.24959226214E+03 -0.76242381022E+01  0.84672126302E+02  0.27555896864E+03  0.80055917312E+02 0.  0.
        254    2    1    2    0    0 -0.24959226214E+03  0.76242381022E+01 -0.23544765541E+03  0.96188753741E+03  0.89857532231E+03 0.  0.
         23    2    4    4    0    0 -0.48997691347E+03 -0.27318713766E+02  0.12776059139E+03  0.51511392637E+03  0.90531213239E+02 0.  0.
         23    2    4    4    0    0  0.24038465133E+03  0.34942951868E+02 -0.36320824680E+03  0.44677361104E+03  0.93169944190E+02 0.  0.
          2    1    3    3  502    0  0.21184640632E+02 -0.23775276841E+02  0.12853493610E+01  0.31870125675E+02  0.00000000000E+00 0. -1.
         -1    1    3    3    0  502  0.22840762151E+03  0.16151038739E+02  0.83386776941E+02  0.24368884296E+03  0.00000000000E+00 0.  1.
         11    1    5    5    0    0 -0.37753495555E+03 -0.56167611353E+02  0.82406339585E+02  0.39048463226E+03  0.00000000000E+00 0. -1.
        -11    1    5    5    0    0 -0.11244195792E+03  0.28848897587E+02  0.45354251810E+02  0.12462929411E+03  0.00000000000E+00 0.  1.
          2    1    6    6  503    0  0.24333226987E+03  0.31543161495E+02 -0.36660183668E+03  0.44113770101E+03  0.00000000000E+00 0. -1.
         -2    1    6    6    0  503 -0.29476185399E+01  0.33997903725E+01  0.33935898778E+01  0.56359100323E+01  0.00000000000E+00 0.  1.
<mgrwt>
<rscale>  0 0.12282266E+04</rscale>
<asrwt>0</asrwt>
<pdfrwt beam="1">  1        2 0.10678631E+00 0.12282266E+04</pdfrwt>
<pdfrwt beam="2">  1       -1 0.83590075E-01 0.12282266E+04</pdfrwt>
<totfact> 0.66175175E+01</totfact>
</mgrwt>
</event>
<event>
12    6  0.1529770E-007  0.1835537E+04  0.7818608E-02  0.8687626E-01
          2   -1    0    0  501    0  0.00000000000E+00  0.00000000000E+00  0.15036124308E+04  0.15036124308E+04  0.00000000000E+00 0. -1.
         -1   -1    0    0    0  501 -0.00000000000E+00 -0.00000000000E+00 -0.56018353455E+03  0.56018353455E+03  0.00000000000E+00 0.  1.
         24    2    1    2    0    0 -0.63103400456E+03 -0.25213131013E+03  0.18950703937E+03  0.70988399331E+03  0.79045895104E+02 0.  0.
        254    2    1    2    0    0  0.63103400456E+03  0.25213131013E+03  0.75392185691E+03  0.13539119721E+04  0.89604985871E+03 0.  0.
         23    2    4    4    0    0  0.18935779571E+03 -0.21480996050E+03  0.62074133288E+03  0.69118135799E+03  0.10204005762E+03 0.  0.
         23    2    4    4    0    0  0.44167620885E+03  0.46694127063E+03  0.13318052403E+03  0.66273061407E+03  0.91448297732E+02 0.  0.
          2    1    3    3  502    0 -0.16194265530E+03 -0.34086170898E+02  0.27085310887E+02  0.16769288810E+03  0.00000000000E+00 0. -1.
         -1    1    3    3    0  502 -0.46909134926E+03 -0.21804513923E+03  0.16242172848E+03  0.54219110521E+03  0.00000000000E+00 0.  1.
         11    1    5    5    0    0  0.29076136070E+00 -0.12297053181E+02  0.10515485218E+03  0.10587183288E+03  0.00000000000E+00 0. -1.
        -11    1    5    5    0    0  0.18906703435E+03 -0.20251290732E+03  0.51558648070E+03  0.58530952511E+03  0.00000000000E+00 0.  1.
          4    1    6    6  503    0  0.91249643430E+02  0.99504321572E+02  0.66894613882E+02  0.15067347744E+03  0.00000000000E+00 0. -1.
         -4    1    6    6    0  503  0.35042656542E+03  0.36743694906E+03  0.66285910145E+02  0.51205713663E+03  0.00000000000E+00 0.  1.
<mgrwt>
<rscale>  0 0.18355369E+04</rscale>
<asrwt>0</asrwt>
<pdfrwt beam="1">  1        2 0.23132499E+00 0.18355369E+04</pdfrwt>
<pdfrwt beam="2">  1       -1 0.86182083E-01 0.18355369E+04</pdfrwt>
<totfact> 0.18004950E+01</totfact>
</mgrwt>
</event>
<event>
12    6  0.1529770E-007  0.1478398E+04  0.7818608E-02  0.8898947E-01
          2   -1    0    0  501    0  0.00000000000E+00  0.00000000000E+00  0.46229343508E+03  0.46229343508E+03  0.00000000000E+00 0. -1.
         -1   -1    0    0    0  501 -0.00000000000E+00 -0.00000000000E+00 -0.11819653885E+04  0.11819653885E+04  0.00000000000E+00 0.  1.
         24    2    1    2    0    0  0.38513034922E+02 -0.18360890233E+02  0.27787042440E+03  0.29289500577E+03  0.82189631319E+02 0.  0.
        254    2    1    2    0    0 -0.38513034922E+02  0.18360890233E+02 -0.99754237788E+03  0.13513638179E+04  0.91064427544E+03 0.  0.
         23    2    4    4    0    0 -0.10770827202E+03 -0.13340727256E+03  0.11260464068E+03  0.22487700339E+03  0.92148192158E+02 0.  0.
         23    2    4    4    0    0  0.69195237100E+02  0.15176816280E+03 -0.11101470186E+04  0.11264868145E+04  0.93405483116E+02 0.  0.
          2    1    3    3  502    0  0.22980275156E+02 -0.11043456988E+02  0.27414165448E+03  0.27532471321E+03  0.00000000000E+00 0. -1.
         -3    1    3    3    0  502  0.15532759766E+02 -0.73174332456E+01  0.37287699297E+01  0.17570292554E+02  0.00000000000E+00 0.  1.
         11    1    5    5    0    0  0.11619870853E+02  0.28731219004E+01  0.76795130344E+00  0.11994414421E+02  0.00000000000E+00 0.  1.
        -11    1    5    5    0    0 -0.11932814287E+03 -0.13628039446E+03  0.11183668937E+03  0.21288258897E+03  0.00000000000E+00 0. -1.
          3    1    6    6  503    0  0.83428977539E+02  0.15137601946E+03 -0.10704199393E+04  0.10842849903E+04  0.00000000000E+00 0. -1.
         -3    1    6    6    0  503 -0.14233740439E+02  0.39214333338E+00 -0.39727079213E+02  0.42201824203E+02  0.00000000000E+00 0.  1.
<mgrwt>
<rscale>  0 0.14783976E+04</rscale>
<asrwt>0</asrwt>
<pdfrwt beam="1">  1        2 0.71122068E-01 0.14783976E+04</pdfrwt>
<pdfrwt beam="2">  1       -1 0.18184083E+00 0.14783976E+04</pdfrwt>
<totfact> 0.15062786E+01</totfact>
</mgrwt>
</event>
<event>
12    6  0.1529770E-007  0.1543556E+04  0.7818608E-02  0.8855994E-01
          2   -1    0    0  501    0  0.00000000000E+00  0.00000000000E+00  0.17598180939E+04  0.17598180939E+04  0.00000000000E+00 0. -1.
         -1   -1    0    0    0  501 -0.00000000000E+00 -0.00000000000E+00 -0.33846768563E+03  0.33846768563E+03  0.00000000000E+00 0.  1.
         24    2    1    2    0    0  0.48067229597E+03  0.52082198470E+02  0.68543411235E+03  0.84226699944E+03  0.76389557189E+02 0.  0.
        254    2    1    2    0    0 -0.48067229597E+03 -0.52082198470E+02  0.73591629593E+03  0.12560187801E+04  0.89568519572E+03 0.  0.
         23    2    4    4    0    0 -0.57513444344E+03  0.12984484306E+03  0.82322063472E+03  0.10166721181E+04  0.91053122093E+02 0.  0.
         23    2    4    4    0    0  0.94462147466E+02 -0.18192704153E+03 -0.87304338792E+02  0.23934666197E+03  0.87431294627E+02 0.  0.
          2    1    3    3  502    0  0.32044178903E+03  0.40635201552E+02  0.39387826095E+03  0.50938614450E+03  0.00000000000E+00 0. -1.
         -1    1    3    3    0  502  0.16023050694E+03  0.11446996918E+02  0.29155585140E+03  0.33288085493E+03  0.00000000000E+00 0.  1.
         11    1    5    5    0    0 -0.29929977874E+03  0.11409048811E+03  0.43956029262E+03  0.54388440672E+03  0.00000000000E+00 0.  1.
        -11    1    5    5    0    0 -0.27583466470E+03  0.15754354953E+02  0.38366034210E+03  0.47278771140E+03  0.00000000000E+00 0. -1.
          3    1    6    6  503    0  0.40061036376E+02 -0.45528344238E+02 -0.68198223107E+02  0.91261790468E+02  0.00000000000E+00 0. -1.
         -3    1    6    6    0  503  0.54401111090E+02 -0.13639869729E+03 -0.19106115685E+02  0.14808487150E+03  0.00000000000E+00 0.  1.
<mgrwt>
<rscale>  0 0.15435564E+04</rscale>
<asrwt>0</asrwt>
<pdfrwt beam="1">  1        2 0.27074124E+00 0.15435564E+04</pdfrwt>
<pdfrwt beam="2">  1       -1 0.52071952E-01 0.15435564E+04</pdfrwt>
<totfact> 0.37008766E+01</totfact>
</mgrwt>
</event>
<event>
12    6  0.1529770E-007  0.1096447E+04  0.7818608E-02  0.9208662E-01
         -1   -1    0    0    0  501 -0.00000000000E+00  0.00000000000E+00  0.14274245142E+03  0.14274245142E+03  0.00000000000E+00 0.  1.
          2   -1    0    0  501    0  0.00000000000E+00 -0.00000000000E+00 -0.21055325024E+04  0.21055325024E+04  0.00000000000E+00 0. -1.
         24    2    1    2    0    0  0.43190413733E+02 -0.14784208075E+03 -0.25962293153E+03  0.31225120163E+03  0.79837670705E+02 0.  0.
        254    2    1    2    0    0 -0.43190413733E+02  0.14784208075E+03 -0.17031671195E+04  0.19360237522E+04  0.90757205751E+03 0.  0.
         23    2    4    4    0    0 -0.20669708969E+03  0.32865456233E+02 -0.10042948203E+02  0.22867704659E+03  0.91588786053E+02 0.  0.
         23    2    4    4    0    0  0.16350667595E+03  0.11497662451E+03 -0.16931241713E+04  0.17073467056E+04  0.91701998780E+02 0.  0.
          2    1    3    3  502    0  0.34337865648E+01 -0.64521587400E+02 -0.17675628004E+03  0.18819566590E+03  0.00000000000E+00 0. -1.
         -3    1    3    3    0  502  0.39756627168E+02 -0.83320493347E+02 -0.82866651498E+02  0.12405553573E+03  0.00000000000E+00 0.  1.
         11    1    5    5    0    0 -0.58336783512E+02 -0.25502048236E+02 -0.25321147381E+02  0.68517846431E+02  0.00000000000E+00 0.  1.
        -11    1    5    5    0    0 -0.14836030617E+03  0.58367504468E+02  0.15278199178E+02  0.16015920016E+03  0.00000000000E+00 0. -1.
          1    1    6    6  503    0  0.70222364739E+02  0.60488707823E+01 -0.76067558151E+03  0.76393396944E+03  0.00000000000E+00 0. -1.
         -1    1    6    6    0  503  0.93284311212E+02  0.10892775373E+03 -0.93244858975E+03  0.94341273618E+03  0.00000000000E+00 0.  1.
<mgrwt>
<rscale>  0 0.10964468E+04</rscale>
<asrwt>0</asrwt>
<pdfrwt beam="1">  1        2 0.32392804E+00 0.10964468E+04</pdfrwt>
<pdfrwt beam="2">  1       -1 0.21960380E-01 0.10964468E+04</pdfrwt>
<totfact> 0.11570497E+02</totfact>
</mgrwt>
</event>
<event>
12    6  0.1529770E-007  0.2841210E+04  0.7818608E-02  0.8290587E-01
         -1   -1    0    0    0  501 -0.00000000000E+00  0.00000000000E+00  0.86221515628E+03  0.86221515628E+03  0.00000000000E+00 0.  1.
          2   -1    0    0  501    0  0.00000000000E+00 -0.00000000000E+00 -0.23406198064E+04  0.23406198064E+04  0.00000000000E+00 0. -1.
         24    2    1    2    0    0  0.26953925468E+03  0.76676243970E+03  0.44057831132E+03  0.92840488626E+03  0.85148902936E+02 0.  0.
        254    2    1    2    0    0 -0.26953925468E+03 -0.76676243970E+03 -0.19189829615E+04  0.22744300765E+04  0.91102168883E+03 0.  0.
         23    2    4    4    0    0  0.28051085318E+03 -0.44646663855E+03 -0.11719841767E+04  0.12883867799E+04  0.91513856698E+02 0.  0.
         23    2    4    4    0    0 -0.55005010786E+03 -0.32029580115E+03 -0.74699878474E+03  0.98604329657E+03  0.95549342912E+02 0.  0.
          4    1    3    3  502    0  0.20524788775E+03  0.61942762049E+03  0.31600944104E+03  0.72503740544E+03  0.00000000000E+00 0. -1.
         -3    1    3    3    0  502  0.64291366924E+02  0.14733481921E+03  0.12456887028E+03  0.20336748082E+03  0.00000000000E+00 0.  1.
         11    1    5    5    0    0  0.28238464549E+03 -0.42278615233E+03 -0.11425435026E+04  0.12505578251E+04  0.00000000000E+00 0.  1.
        -11    1    5    5    0    0 -0.18737923125E+01 -0.23680486219E+02 -0.29440674102E+02  0.37828954741E+02  0.00000000000E+00 0. -1.
          2    1    6    6  503    0 -0.90976459776E+02 -0.58375929610E+02 -0.18712384800E+03  0.21610136483E+03  0.00000000000E+00 0. -1.
         -2    1    6    6    0  503 -0.45907364808E+03 -0.26191987154E+03 -0.55987493674E+03  0.76994193174E+03  0.00000000000E+00 0.  1.
<mgrwt>
<rscale>  0 0.28412095E+04</rscale>
<asrwt>0</asrwt>
<pdfrwt beam="1">  1        2 0.36009535E+00 0.28412095E+04</pdfrwt>
<pdfrwt beam="2">  1       -1 0.13264849E+00 0.28412095E+04</pdfrwt>
<totfact> 0.20419711E+00</totfact>
</mgrwt>
</event>
<event>
12    6  0.1529770E-007  0.1344736E+04  0.7818608E-02  0.8994822E-01
         -1   -1    0    0    0  501 -0.00000000000E+00  0.00000000000E+00  0.49251784457E+03  0.49251784457E+03  0.00000000000E+00 0.  1.
          2   -1    0    0  501    0  0.00000000000E+00 -0.00000000000E+00 -0.91789375677E+03  0.91789375677E+03  0.00000000000E+00 0. -1.
         24    2    1    2    0    0  0.21561411655E+02  0.44489537363E+02  0.26623755062E+03  0.28264207999E+03  0.80993201053E+02 0.  0.
        254    2    1    2    0    0 -0.21561411655E+02 -0.44489537363E+02 -0.69161346282E+03  0.11277695214E+04  0.88943279562E+03 0.  0.
         23    2    4    4    0    0 -0.28026068014E+02  0.12227953508E+03 -0.86086099137E+03  0.87473694964E+03  0.91352829270E+02 0.  0.
         23    2    4    4    0    0  0.64646563594E+01 -0.16676907244E+03  0.16924752855E+03  0.25303257171E+03  0.86758521884E+02 0.  0.
          2    1    3    3  502    0 -0.26475244465E+02 -0.24896824278E+01  0.57371093006E+02  0.63234321383E+02  0.00000000000E+00 0. -1.
         -1    1    3    3    0  502  0.48036656119E+02  0.46979219791E+02  0.20886645761E+03  0.21940775861E+03  0.00000000000E+00 0.  1.
         11    1    5    5    0    0 -0.12982797178E+02 -0.42138272304E+01 -0.19589643741E+02  0.23876002688E+02  0.00000000000E+00 0.  1.
        -11    1    5    5    0    0 -0.15043270837E+02  0.12649336231E+03 -0.84127134763E+03  0.85086094696E+03  0.00000000000E+00 0. -1.
          3    1    6    6  503    0  0.13822858150E+02 -0.10377983368E+03  0.45856401780E+02  0.11429844649E+03  0.00000000000E+00 0. -1.
         -3    1    6    6    0  503 -0.73582017908E+01 -0.62989238758E+02  0.12339112677E+03  0.13873412522E+03  0.00000000000E+00 0.  1.
<mgrwt>
<rscale>  0 0.13447365E+04</rscale>
<asrwt>0</asrwt>
<pdfrwt beam="1">  1        2 0.14121442E+00 0.13447365E+04</pdfrwt>
<pdfrwt beam="2">  1       -1 0.75771977E-01 0.13447365E+04</pdfrwt>
<totfact> 0.55663532E+01</totfact>
</mgrwt>
</event>
<event>
12    6  0.1529770E-007  0.2320272E+04  0.7818608E-02  0.8469971E-01
         -1   -1    0    0    0  501 -0.00000000000E+00  0.00000000000E+00  0.46776709890E+03  0.46776709890E+03  0.00000000000E+00 0.  1.
          2   -1    0    0  501    0  0.00000000000E+00 -0.00000000000E+00 -0.28773201762E+04  0.28773201762E+04  0.00000000000E+00 0. -1.
         24    2    1    2    0    0 -0.55162580068E+03 -0.66394917291E+03 -0.16921835884E+04  0.19011902089E+04  0.76937540334E+02 0.  0.
        254    2    1    2    0    0  0.55162580068E+03  0.66394917291E+03 -0.71736948886E+03  0.14438970662E+04  0.90835027725E+03 0.  0.
         23    2    4    4    0    0  0.57636328927E+00 -0.91427449306E+02 -0.44844805163E+03  0.46634229700E+03  0.89499565784E+02 0.  0.
         23    2    4    4    0    0  0.55104943739E+03  0.75537662221E+03 -0.26892143723E+03  0.97755476925E+03  0.95106590964E+02 0.  0.
          4    1    3    3  502    0 -0.39858918053E+03 -0.50342949014E+03 -0.13210710394E+04  0.14688578139E+04  0.00000000000E+00 0. -1.
         -3    1    3    3    0  502 -0.15303662015E+03 -0.16051968277E+03 -0.37111254909E+03  0.43233239499E+03  0.00000000000E+00 0.  1.
         11    1    5    5    0    0  0.16884835973E+01 -0.37893644275E+02 -0.42856850243E+02  0.57231886794E+02  0.00000000000E+00 0. -1.
        -11    1    5    5    0    0 -0.11121203081E+01 -0.53533805031E+02 -0.40559120139E+03  0.40911041020E+03  0.00000000000E+00 0.  1.
          1    1    6    6  503    0  0.36476127193E+03  0.51199584363E+03 -0.22619956292E+03  0.66809937259E+03  0.00000000000E+00 0. -1.
         -1    1    6    6    0  503  0.18628816546E+03  0.24338077859E+03 -0.42721874308E+02  0.30945539666E+03  0.00000000000E+00 0.  1.
<mgrwt>
<rscale>  0 0.23202721E+04</rscale>
<asrwt>0</asrwt>
<pdfrwt beam="1">  1        2 0.44266465E+00 0.23202721E+04</pdfrwt>
<pdfrwt beam="2">  1       -1 0.71964169E-01 0.23202721E+04</pdfrwt>
<totfact> 0.41646544E+00</totfact>
</mgrwt>
</event>
<event>
12    6  0.1529770E-007  0.2825248E+04  0.7818608E-02  0.8295472E-01
         -1   -1    0    0    0  501 -0.00000000000E+00  0.00000000000E+00  0.10215195072E+04  0.10215195072E+04  0.00000000000E+00 0.  1.
          2   -1    0    0  501    0  0.00000000000E+00 -0.00000000000E+00 -0.19534688904E+04  0.19534688904E+04  0.00000000000E+00 0. -1.
         24    2    1    2    0    0 -0.10211657981E+04 -0.70840874923E+03 -0.15459739868E+03  0.12552541463E+04  0.84498952851E+02 0.  0.
        254    2    1    2    0    0  0.10211657981E+04  0.70840874923E+03 -0.77735198452E+03  0.17197342513E+04  0.89921479319E+03 0.  0.
         23    2    4    4    0    0  0.54764156566E+03  0.81694285873E+03 -0.71903047071E+03  0.12217809245E+04  0.91852548574E+02 0.  0.
         23    2    4    4    0    0  0.47352423241E+03 -0.10853410950E+03 -0.58321513806E+02  0.49795332690E+03  0.92473051165E+02 0.  0.
          2    1    3    3  502    0 -0.78015574538E+03 -0.49842555409E+03 -0.12615144123E+03  0.93433677341E+03  0.00000000000E+00 0. -1.
         -1    1    3    3    0  502 -0.24101005269E+03 -0.20998319514E+03 -0.28445957450E+02  0.32091737291E+03  0.00000000000E+00 0.  1.
         11    1    5    5    0    0  0.75916425701E+02  0.10586016095E+03 -0.59111396769E+02  0.14305185981E+03  0.00000000000E+00 0. -1.
        -11    1    5    5    0    0  0.47172513996E+03  0.71108269778E+03 -0.65991907394E+03  0.10787290646E+04  0.00000000000E+00 0.  1.
          3    1    6    6  503    0  0.69121440970E+02 -0.45754803251E+02 -0.28364110591E+02  0.87611633885E+02  0.00000000000E+00 0. -1.
         -3    1    6    6    0  503  0.40440279144E+03 -0.62779306245E+02 -0.29957403215E+02  0.41034169301E+03  0.00000000000E+00 0.  1.
<mgrwt>
<rscale>  0 0.28252480E+04</rscale>
<asrwt>0</asrwt>
<pdfrwt beam="1">  1        2 0.30053367E+00 0.28252480E+04</pdfrwt>
<pdfrwt beam="2">  1       -1 0.15715685E+00 0.28252480E+04</pdfrwt>
<totfact> 0.21521530E+00</totfact>
</mgrwt>
</event>
<event>
12    6  0.1529770E-007  0.1889113E+04  0.7818608E-02  0.8660294E-01
         -1   -1    0    0    0  501 -0.00000000000E+00  0.00000000000E+00  0.46691183365E+03  0.46691183365E+03  0.00000000000E+00 0.  1.
          2   -1    0    0  501    0  0.00000000000E+00 -0.00000000000E+00 -0.19108262840E+04  0.19108262840E+04  0.00000000000E+00 0. -1.
         24    2    1    2    0    0  0.10533681145E+03  0.28011643281E+03 -0.13891820794E+04  0.14232618976E+04  0.79287574284E+02 0.  0.
        254    2    1    2    0    0 -0.10533681145E+03 -0.28011643281E+03 -0.54732370950E+02  0.95447622013E+03  0.90469230271E+03 0.  0.
         23    2    4    4    0    0 -0.39482602003E+03 -0.12115921059E+03 -0.31218562253E+03  0.52549269634E+03  0.90086461710E+02 0.  0.
         23    2    4    4    0    0  0.28948920858E+03 -0.15895722223E+03  0.25745325158E+03  0.42898352379E+03  0.93130481321E+02 0.  0.
          2    1    3    3  502    0  0.49779699293E+02  0.15790806954E+03 -0.93919212733E+03  0.95367438307E+03  0.00000000000E+00 0. -1.
         -1    1    3    3    0  502  0.55557112157E+02  0.12220836328E+03 -0.44998995210E+03  0.46958751449E+03  0.00000000000E+00 0.  1.
         11    1    5    5    0    0 -0.80516253069E+02 -0.54906633594E+02 -0.43521240781E+02  0.10673192503E+03  0.00000000000E+00 0. -1.
        -11    1    5    5    0    0 -0.31430976696E+03 -0.66252576994E+02 -0.26866438175E+03  0.41876077131E+03  0.00000000000E+00 0.  1.
          4    1    6    6  503    0  0.24918664498E+02  0.10545345256E+02  0.93475750799E+01  0.28627282561E+02  0.00000000000E+00 0. -1.
         -4    1    6    6    0  503  0.26457054409E+03 -0.16950256748E+03  0.24810567650E+03  0.40035624123E+03  0.00000000000E+00 0.  1.
<mgrwt>
<rscale>  0 0.18891134E+04</rscale>
<asrwt>0</asrwt>
<pdfrwt beam="1">  1        2 0.29397328E+00 0.18891134E+04</pdfrwt>
<pdfrwt beam="2">  1       -1 0.71832589E-01 0.18891134E+04</pdfrwt>
<totfact> 0.15636538E+01</totfact>
</mgrwt>
</event>
<event>
12    6  0.1529770E-007  0.2637243E+04  0.7818608E-02  0.8355659E-01
         -1   -1    0    0    0  501 -0.00000000000E+00  0.00000000000E+00  0.10027556990E+04  0.10027556990E+04  0.00000000000E+00 0.  1.
          2   -1    0    0  501    0  0.00000000000E+00 -0.00000000000E+00 -0.17339847584E+04  0.17339847584E+04  0.00000000000E+00 0. -1.
         24    2    1    2    0    0  0.21218859235E+03  0.93229784026E+03  0.36576088201E+03  0.10267991212E+04  0.79574812704E+02 0.  0.
        254    2    1    2    0    0 -0.21218859235E+03 -0.93229784026E+03 -0.10969899414E+04  0.17099413362E+04  0.89794720341E+03 0.  0.
         23    2    4    4    0    0  0.82292674691E+02  0.12141202932E+03 -0.22088371813E+02  0.17349704611E+03  0.90002020354E+02 0.  0.
         23    2    4    4    0    0 -0.29448126704E+03 -0.10537098696E+04 -0.10749015696E+04  0.15364442901E+04  0.90686087365E+02 0.  0.
          4    1    3    3  502    0  0.11693489328E+03  0.51892538376E+03  0.16105106093E+03  0.55578302187E+03  0.00000000000E+00 0. -1.
         -3    1    3    3    0  502  0.95253699064E+02  0.41337245650E+03  0.20470982108E+03  0.47101609933E+03  0.00000000000E+00 0.  1.
         11    1    5    5    0    0  0.48858318976E+00  0.62220954053E+02 -0.35499970930E+02  0.71637516518E+02  0.00000000000E+00 0. -1.
        -11    1    5    5    0    0  0.81804091501E+02  0.59191075266E+02  0.13411599117E+02  0.10185952959E+03  0.00000000000E+00 0.  1.
          1    1    6    6  503    0 -0.25810796083E+03 -0.95691318278E+03 -0.93558679298E+03  0.13629472499E+04  0.00000000000E+00 0. -1.
         -1    1    6    6    0  503 -0.36373306209E+02 -0.96796686793E+02 -0.13931477663E+03  0.17349704022E+03  0.00000000000E+00 0.  1.
<mgrwt>
<rscale>  0 0.26372433E+04</rscale>
<asrwt>0</asrwt>
<pdfrwt beam="1">  1        2 0.26676688E+00 0.26372433E+04</pdfrwt>
<pdfrwt beam="2">  1       -1 0.15427011E+00 0.26372433E+04</pdfrwt>
<totfact> 0.30470157E+00</totfact>
</mgrwt>
</event>
<event>
12    6  0.1529770E-007  0.1918592E+04  0.7818608E-02  0.8645657E-01
          2   -1    0    0  501    0  0.00000000000E+00  0.00000000000E+00  0.10101882271E+04  0.10101882271E+04  0.00000000000E+00 0. -1.
         -1   -1    0    0    0  501 -0.00000000000E+00 -0.00000000000E+00 -0.91096805236E+03  0.91096805236E+03  0.00000000000E+00 0.  1.
         24    2    1    2    0    0 -0.13321190937E+03 -0.22935764208E+03 -0.65916398909E+03  0.71501199036E+03  0.79966499684E+02 0.  0.
        254    2    1    2    0    0  0.13321190937E+03  0.22935764208E+03  0.75838416386E+03  0.12061442891E+04  0.89960389362E+03 0.  0.
         23    2    4    4    0    0  0.17938029550E+03  0.55817859303E+03  0.49861852989E+03  0.77498631130E+03  0.90789383841E+02 0.  0.
         23    2    4    4    0    0 -0.46168386135E+02 -0.32882095095E+03  0.25976563397E+03  0.43115797783E+03  0.90356403160E+02 0.  0.
          4    1    3    3  502    0 -0.39810644746E+02 -0.43514694990E+02 -0.78265811926E+02  0.97999762406E+02  0.00000000000E+00 0. -1.
         -3    1    3    3    0  502 -0.93401264622E+02 -0.18584294709E+03 -0.58089817716E+03  0.61701222796E+03  0.00000000000E+00 0.  1.
         11    1    5    5    0    0  0.14600675278E+03  0.50836426350E+03  0.41603996734E+03  0.67293495279E+03  0.00000000000E+00 0.  1.
        -11    1    5    5    0    0  0.33373542725E+02  0.49814329525E+02  0.82578562549E+02  0.10205135851E+03  0.00000000000E+00 0. -1.
          1    1    6    6  503    0  0.23339009521E+02 -0.39252216019E+02  0.43985440410E+02  0.63404769504E+02  0.00000000000E+00 0. -1.
         -1    1    6    6    0  503 -0.69507395656E+02 -0.28956873493E+03  0.21578019356E+03  0.36775320832E+03  0.00000000000E+00 0.  1.
<mgrwt>
<rscale>  0 0.19185924E+04</rscale>
<asrwt>0</asrwt>
<pdfrwt beam="1">  1        2 0.15541357E+00 0.19185924E+04</pdfrwt>
<pdfrwt beam="2">  1       -1 0.14014893E+00 0.19185924E+04</pdfrwt>
<totfact> 0.11064850E+01</totfact>
</mgrwt>
</event>
<event>
12    6  0.1529770E-007  0.2542522E+04  0.7818608E-02  0.8387992E-01
         -1   -1    0    0    0  501 -0.00000000000E+00  0.00000000000E+00  0.10822049558E+04  0.10822049558E+04  0.00000000000E+00 0.  1.
          2   -1    0    0  501    0  0.00000000000E+00 -0.00000000000E+00 -0.14933436633E+04  0.14933436633E+04  0.00000000000E+00 0. -1.
         24    2    1    2    0    0  0.58158248511E+03  0.60771606888E+03 -0.91735862377E+03  0.12472149075E+04  0.80256922105E+02 0.  0.
        254    2    1    2    0    0 -0.58158248511E+03 -0.60771606888E+03  0.50621991623E+03  0.13283337116E+04  0.89479318194E+03 0.  0.
         23    2    4    4    0    0  0.10905490563E+03 -0.30256954810E+03  0.45559033909E+03  0.56529407960E+03  0.92485325704E+02 0.  0.
         23    2    4    4    0    0 -0.69063739074E+03 -0.30514652077E+03  0.50629577132E+02  0.76303963201E+03  0.97835174167E+02 0.  0.
          2    1    3    3  502    0  0.30356618203E+03  0.29571200896E+03 -0.40684753458E+03  0.58747164655E+03  0.00000000000E+00 0. -1.
         -1    1    3    3    0  502  0.27801630308E+03  0.31200405992E+03 -0.51051108919E+03  0.65974326096E+03  0.00000000000E+00 0.  1.
         11    1    5    5    0    0  0.77523382534E+02 -0.17197546836E+03  0.19045814636E+03  0.26806667467E+03  0.00000000000E+00 0. -1.
        -11    1    5    5    0    0  0.31531523096E+02 -0.13059407975E+03  0.26513219273E+03  0.29722740492E+03  0.00000000000E+00 0.  1.
          1    1    6    6  503    0 -0.26724399193E+03 -0.80923556336E+02  0.51503765253E+02  0.28393768863E+03  0.00000000000E+00 0. -1.
         -1    1    6    6    0  503 -0.42339339881E+03 -0.22422296444E+03 -0.87418812026E+00  0.47910194337E+03  0.00000000000E+00 0.  1.
<mgrwt>
<rscale>  0 0.25425215E+04</rscale>
<asrwt>0</asrwt>
<pdfrwt beam="1">  1        2 0.22974518E+00 0.25425215E+04</pdfrwt>
<pdfrwt beam="2">  1       -1 0.16649307E+00 0.25425215E+04</pdfrwt>
<totfact> 0.33858162E+00</totfact>
</mgrwt>
</event>
<event>
12    6  0.1529770E-007  0.1681045E+04  0.7818608E-02  0.8772250E-01
          2   -1    0    0  501    0  0.00000000000E+00  0.00000000000E+00  0.13350547652E+04  0.13350547652E+04  0.00000000000E+00 0. -1.
         -1   -1    0    0    0  501 -0.00000000000E+00 -0.00000000000E+00 -0.52917536545E+03  0.52917536545E+03  0.00000000000E+00 0.  1.
         24    2    1    2    0    0 -0.31351412750E+03  0.13172002981E+03 -0.25225422614E+03  0.43038014177E+03  0.77159558236E+02 0.  0.
        254    2    1    2    0    0  0.31351412750E+03 -0.13172002981E+03  0.10581336259E+04  0.14338499888E+04  0.90589058165E+03 0.  0.
         23    2    4    4    0    0  0.20886347659E+03 -0.51015836283E+03  0.53654149228E+03  0.77467450697E+03  0.91423803160E+02 0.  0.
         23    2    4    4    0    0  0.10465065092E+03  0.37843833302E+03  0.52159213357E+03  0.65917548187E+03  0.91030936804E+02 0.  0.
          4    1    3    3  502    0 -0.28884490452E+02  0.39174956643E+02 -0.45378861881E+02  0.66544963162E+02  0.00000000000E+00 0. -1.
         -3    1    3    3    0  502 -0.28462963705E+03  0.92545073169E+02 -0.20687536426E+03  0.36383517861E+03  0.00000000000E+00 0.  1.
         11    1    5    5    0    0  0.20130571711E+03 -0.46355052403E+03  0.45285727631E+03  0.67858882453E+03  0.00000000000E+00 0. -1.
        -11    1    5    5    0    0  0.75577594739E+01 -0.46607838799E+02  0.83684215976E+02  0.96085682437E+02  0.00000000000E+00 0.  1.
          1    1    6    6  503    0  0.23467730342E+02  0.67035104880E+02  0.16037414412E+03  0.17539756485E+03  0.00000000000E+00 0. -1.
         -1    1    6    6    0  503  0.81182920576E+02  0.31140322814E+03  0.36121798945E+03  0.48377791702E+03  0.00000000000E+00 0.  1.
<mgrwt>
<rscale>  0 0.16810450E+04</rscale>
<asrwt>0</asrwt>
<pdfrwt beam="1">  1        2 0.20539304E+00 0.16810450E+04</pdfrwt>
<pdfrwt beam="2">  1       -1 0.81411595E-01 0.16810450E+04</pdfrwt>
<totfact> 0.25747201E+01</totfact>
</mgrwt>
</event>
<event>
12    6  0.1529770E-007  0.2964015E+04  0.7818608E-02  0.8254082E-01
          2   -1    0    0  501    0  0.00000000000E+00  0.00000000000E+00  0.14724069194E+04  0.14724069194E+04  0.00000000000E+00 0. -1.
         -1   -1    0    0    0  501 -0.00000000000E+00 -0.00000000000E+00 -0.14916708770E+04  0.14916708770E+04  0.00000000000E+00 0.  1.
         24    2    1    2    0    0 -0.25633792090E+03  0.98768652522E+03 -0.88597268439E+03  0.13536797856E+04  0.79167939012E+02 0.  0.
        254    2    1    2    0    0  0.25633792090E+03 -0.98768652522E+03  0.86670872682E+03  0.16103980109E+04  0.89496588451E+03 0.  0.
         23    2    4    4    0    0 -0.31901297521E+03 -0.31135180729E+03  0.38275160585E+03  0.59504406169E+03  0.94177583885E+02 0.  0.
         23    2    4    4    0    0  0.57535089611E+03 -0.67633471793E+03  0.48395712097E+03  0.10153539492E+04  0.90949671990E+02 0.  0.
          4    1    3    3  502    0 -0.84026186237E+01  0.70242492419E+02 -0.39584929218E+02  0.81065272233E+02  0.00000000000E+00 0. -1.
         -3    1    3    3    0  502 -0.24793530228E+03  0.91744403280E+03 -0.84638775517E+03  0.12726145133E+04  0.00000000000E+00 0.  1.
         11    1    5    5    0    0 -0.19394384628E+02 -0.47485610202E+02  0.75418721122E+02  0.91208600620E+02  0.00000000000E+00 0. -1.
        -11    1    5    5    0    0 -0.29961859058E+03 -0.26386619709E+03  0.30733288473E+03  0.50383546107E+03  0.00000000000E+00 0.  1.
          4    1    6    6  503    0  0.44321173980E+03 -0.53987573084E+03  0.33904360709E+03  0.77643610075E+03  0.00000000000E+00 0. -1.
         -4    1    6    6    0  503  0.13213915631E+03 -0.13645898708E+03  0.14491351388E+03  0.23891784842E+03  0.00000000000E+00 0.  1.
<mgrwt>
<rscale>  0 0.29640152E+04</rscale>
<asrwt>0</asrwt>
<pdfrwt beam="1">  1        2 0.22652414E+00 0.29640152E+04</pdfrwt>
<pdfrwt beam="2">  1       -1 0.22948783E+00 0.29640152E+04</pdfrwt>
<totfact> 0.12238835E+00</totfact>
</mgrwt>
</event>
<event>
12    6  0.1529770E-007  0.1636574E+04  0.7818608E-02  0.8798389E-01
          2   -1    0    0  501    0  0.00000000000E+00  0.00000000000E+00  0.13751145181E+04  0.13751145181E+04  0.00000000000E+00 0. -1.
         -1   -1    0    0    0  501 -0.00000000000E+00 -0.00000000000E+00 -0.48693661363E+03  0.48693661363E+03  0.00000000000E+00 0.  1.
         24    2    1    2    0    0  0.46691301703E+03  0.16213470147E+03  0.70479464265E+03  0.86449940781E+03  0.79550681369E+02 0.  0.
        254    2    1    2    0    0 -0.46691301703E+03 -0.16213470147E+03  0.18338326184E+03  0.99755172395E+03  0.84686751877E+03 0.  0.
         23    2    4    4    0    0 -0.49146957760E+03  0.23192079706E+02 -0.21805487294E+03  0.54591680293E+03  0.91635199850E+02 0.  0.
         23    2    4    4    0    0  0.24556560570E+02 -0.18532678117E+03  0.40143813478E+03  0.45163492102E+03  0.88727027128E+02 0.  0.
          2    1    3    3  502    0  0.25488916608E+03  0.64367661026E+02  0.42905261435E+03  0.50318766743E+03  0.00000000000E+00 0. -1.
         -1    1    3    3    0  502  0.21202385094E+03  0.97767040439E+02  0.27574202830E+03  0.36131174038E+03  0.00000000000E+00 0.  1.
         11    1    5    5    0    0 -0.14206077430E+03 -0.17164002877E+02 -0.26908911598E+02  0.14560204707E+03  0.00000000000E+00 0. -1.
        -11    1    5    5    0    0 -0.34940880330E+03  0.40356082583E+02 -0.19114596134E+03  0.40031475586E+03  0.00000000000E+00 0.  1.
          1    1    6    6  503    0  0.58492446937E+01 -0.24538554245E+02  0.15332822957E+03  0.15538951152E+03  0.00000000000E+00 0. -1.
         -1    1    6    6    0  503  0.18707315876E+02 -0.16078822693E+03  0.24810990521E+03  0.29624540949E+03  0.00000000000E+00 0.  1.
<mgrwt>
<rscale>  0 0.16365740E+04</rscale>
<asrwt>0</asrwt>
<pdfrwt beam="1">  1        2 0.21155608E+00 0.16365740E+04</pdfrwt>
<pdfrwt beam="2">  1       -1 0.74913326E-01 0.16365740E+04</pdfrwt>
<totfact> 0.29213376E+01</totfact>
</mgrwt>
</event>
<event>
12    6  0.1529770E-007  0.2677728E+04  0.7818608E-02  0.8342268E-01
         -1   -1    0    0    0  501 -0.00000000000E+00  0.00000000000E+00  0.55679162225E+03  0.55679162225E+03  0.00000000000E+00 0.  1.
          2   -1    0    0  501    0  0.00000000000E+00 -0.00000000000E+00 -0.32194383364E+04  0.32194383364E+04  0.00000000000E+00 0. -1.
         24    2    1    2    0    0  0.49469329655E+03  0.71369977970E+03 -0.41209281564E+02  0.87292080580E+03  0.78763539245E+02 0.  0.
        254    2    1    2    0    0 -0.49469329655E+03 -0.71369977970E+03 -0.26214374326E+04  0.29033091529E+04  0.89620365480E+03 0.  0.
         23    2    4    4    0    0 -0.96544489118E+02 -0.26066660454E+03 -0.20397329655E+04  0.20606670736E+04  0.92575918269E+02 0.  0.
         23    2    4    4    0    0 -0.39814880743E+03 -0.45303317517E+03 -0.58170446716E+03  0.84264207931E+03  0.88904758270E+02 0.  0.
          4    1    3    3  502    0  0.15780685253E+03  0.21331113178E+03 -0.48060496172E+02  0.26965617541E+03  0.00000000000E+00 0. -1.
         -3    1    3    3    0  502  0.33688644402E+03  0.50038864792E+03  0.68512146079E+01  0.60326463039E+03  0.00000000000E+00 0.  1.
         11    1    5    5    0    0 -0.11132870057E+03 -0.24825513654E+03 -0.19493761924E+04  0.19682713817E+04  0.00000000000E+00 0. -1.
        -11    1    5    5    0    0  0.14784211450E+02 -0.12411467999E+02 -0.90356773041E+02  0.92395691894E+02  0.00000000000E+00 0.  1.
          4    1    6    6  503    0 -0.35914400434E+03 -0.40531567252E+03 -0.55514291381E+03  0.77553134366E+03  0.00000000000E+00 0. -1.
         -4    1    6    6    0  503 -0.39004803090E+02 -0.47717502642E+02 -0.26561553353E+02  0.67110735647E+02  0.00000000000E+00 0.  1.
<mgrwt>
<rscale>  0 0.26777276E+04</rscale>
<asrwt>0</asrwt>
<pdfrwt beam="1">  1        2 0.49529821E+00 0.26777276E+04</pdfrwt>
<pdfrwt beam="2">  1       -1 0.85660248E-01 0.26777276E+04</pdfrwt>
<totfact> 0.16937381E+00</totfact>
</mgrwt>
</event>
<event>
12    6  0.1529770E-007  0.2746075E+04  0.7818608E-02  0.8320208E-01
          2   -1    0    0  501    0  0.00000000000E+00  0.00000000000E+00  0.12492818993E+04  0.12492818993E+04  0.00000000000E+00 0. -1.
         -1   -1    0    0    0  501 -0.00000000000E+00 -0.00000000000E+00 -0.15090524074E+04  0.15090524074E+04  0.00000000000E+00 0.  1.
         24    2    1    2    0    0  0.54024224344E+03 -0.32692352491E+03 -0.11782772595E+04  0.13392934005E+04  0.81417687250E+02 0.  0.
        254    2    1    2    0    0 -0.54024224344E+03  0.32692352491E+03  0.91850675139E+03  0.14190409062E+04  0.87822649045E+03 0.  0.
         23    2    4    4    0    0  0.10826168616E+03  0.31122874536E+03  0.60093115689E+03  0.69127161326E+03  0.90300959860E+02 0.  0.
         23    2    4    4    0    0 -0.64850392960E+03  0.15694779549E+02  0.31757559450E+03  0.72776929299E+03  0.89387990149E+02 0.  0.
          4    1    3    3  502    0  0.13433789647E+03 -0.76326991683E+02 -0.36640282616E+03  0.39764747089E+03  0.00000000000E+00 0. -1.
         -3    1    3    3    0  502  0.40590434697E+03 -0.25059653323E+03 -0.81187443330E+03  0.94164592964E+03  0.00000000000E+00 0.  1.
         11    1    5    5    0    0  0.96680288143E+02  0.14704452245E+03  0.28278992840E+03  0.33307553693E+03  0.00000000000E+00 0. -1.
        -11    1    5    5    0    0  0.11581398015E+02  0.16418422291E+03  0.31814122849E+03  0.35819607633E+03  0.00000000000E+00 0.  1.
          2    1    6    6  503    0 -0.41834894698E+02 -0.86467301193E+01  0.31817410507E+00  0.42720318244E+02  0.00000000000E+00 0. -1.
         -2    1    6    6    0  503 -0.60666903490E+03  0.24341509668E+02  0.31725742039E+03  0.68504897474E+03  0.00000000000E+00 0.  1.
<mgrwt>
<rscale>  0 0.27460749E+04</rscale>
<asrwt>0</asrwt>
<pdfrwt beam="1">  1        2 0.19219722E+00 0.27460749E+04</pdfrwt>
<pdfrwt beam="2">  1       -1 0.23216191E+00 0.27460749E+04</pdfrwt>
<totfact> 0.16101365E+00</totfact>
</mgrwt>
</event>
<event>
12    6  0.1529770E-007  0.1501337E+04  0.7818608E-02  0.8883564E-01
          2   -1    0    0  501    0  0.00000000000E+00  0.00000000000E+00  0.81319094906E+03  0.81319094906E+03  0.00000000000E+00 0. -1.
         -1   -1    0    0    0  501 -0.00000000000E+00 -0.00000000000E+00 -0.69295301213E+03  0.69295301213E+03  0.00000000000E+00 0.  1.
         24    2    1    2    0    0 -0.12717027152E+02  0.10079455077E+03  0.49591468199E+03  0.51215795283E+03  0.77801880379E+02 0.  0.
        254    2    1    2    0    0  0.12717027152E+02 -0.10079455077E+03 -0.37567674505E+03  0.99398600836E+03  0.91463320725E+03 0.  0.
         23    2    4    4    0    0 -0.17294118667E+03 -0.31577903702E+03 -0.53806824111E+03  0.65403940232E+03  0.92871165699E+02 0.  0.
         23    2    4    4    0    0  0.18565821382E+03  0.21498448625E+03  0.16239149607E+03  0.33994660605E+03  0.92224699960E+02 0.  0.
          4    1    3    3  502    0  0.28482509710E+02  0.34941597696E+02  0.25725847827E+03  0.26117827867E+03  0.00000000000E+00 0. -1.
         -3    1    3    3    0  502 -0.41199536862E+02  0.65852953077E+02  0.23865620371E+03  0.25097967415E+03  0.00000000000E+00 0.  1.
         11    1    5    5    0    0 -0.10878087646E+03 -0.13570394550E+03 -0.19489382170E+03  0.26121340250E+03  0.00000000000E+00 0. -1.
        -11    1    5    5    0    0 -0.64160310204E+02 -0.18007509152E+03 -0.34317441941E+03  0.39282599981E+03  0.00000000000E+00 0.  1.
          1    1    6    6  503    0  0.16769400416E+03  0.13311699873E+03  0.10584383567E+03  0.23883955269E+03  0.00000000000E+00 0. -1.
         -1    1    6    6    0  503  0.17964209659E+02  0.81867487520E+02  0.56547660399E+02  0.10110705335E+03  0.00000000000E+00 0.  1.
<mgrwt>
<rscale>  0 0.15013369E+04</rscale>
<asrwt>0</asrwt>
<pdfrwt beam="1">  1        2 0.12510630E+00 0.15013369E+04</pdfrwt>
<pdfrwt beam="2">  1       -1 0.10660816E+00 0.15013369E+04</pdfrwt>
<totfact> 0.30550553E+01</totfact>
</mgrwt>
</event>
<event>
12    6  0.1529770E-007  0.1347276E+04  0.7818608E-02  0.8992893E-01
          2   -1    0    0  501    0  0.00000000000E+00  0.00000000000E+00  0.61260837621E+03  0.61260837621E+03  0.00000000000E+00 0. -1.
         -1   -1    0    0    0  501 -0.00000000000E+00 -0.00000000000E+00 -0.74074733165E+03  0.74074733165E+03  0.00000000000E+00 0.  1.
         24    2    1    2    0    0 -0.33897583861E+02  0.27414146082E+03 -0.19826388351E+03  0.34936249901E+03  0.80268309321E+02 0.  0.
        254    2    1    2    0    0  0.33897583861E+02 -0.27414146082E+03  0.70124928070E+02  0.10039932088E+04  0.96269531584E+03 0.  0.
         23    2    4    4    0    0  0.45374654173E+02  0.33177912303E+03 -0.11404927401E+03  0.36384629243E+03  0.85091961400E+02 0.  0.
         23    2    4    4    0    0 -0.11477070311E+02 -0.60592058384E+03  0.18417420208E+03  0.64014691642E+03  0.92717100993E+02 0.  0.
          2    1    3    3  502    0 -0.10157367151E+01  0.13175593677E+03 -0.13941244045E+03  0.19182410471E+03  0.00000000000E+00 0. -1.
         -1    1    3    3    0  502 -0.32881847146E+02  0.14238552405E+03 -0.58851443064E+02  0.15753839430E+03  0.00000000000E+00 0.  1.
         11    1    5    5    0    0 -0.24186123465E+02  0.10232965201E+03 -0.24987172450E+02  0.10807721793E+03  0.00000000000E+00 0.  1.
        -11    1    5    5    0    0  0.69560777638E+02  0.22944947102E+03 -0.89062101560E+02  0.25576907450E+03  0.00000000000E+00 0. -1.
          1    1    6    6  503    0 -0.30417173564E+02 -0.55050521548E+03  0.14637330174E+03  0.57044398513E+03  0.00000000000E+00 0. -1.
         -1    1    6    6    0  503  0.18940103253E+02 -0.55415368368E+02  0.37800900344E+02  0.69702931283E+02  0.00000000000E+00 0.  1.
<mgrwt>
<rscale>  0 0.13472758E+04</rscale>
<asrwt>0</asrwt>
<pdfrwt beam="1">  1        2 0.94247442E-01 0.13472758E+04</pdfrwt>
<pdfrwt beam="2">  1       -1 0.11396113E+00 0.13472758E+04</pdfrwt>
<totfact> 0.37888841E+01</totfact>
</mgrwt>
</event>
<event>
12    6  0.1529770E-007  0.1299829E+04  0.7818608E-02  0.9029701E-01
         -1   -1    0    0    0  501 -0.00000000000E+00  0.00000000000E+00  0.25638215082E+03  0.25638215082E+03  0.00000000000E+00 0.  1.
          2   -1    0    0  501    0  0.00000000000E+00 -0.00000000000E+00 -0.16474969203E+04  0.16474969203E+04  0.00000000000E+00 0. -1.
         24    2    1    2    0    0  0.18425242647E+03 -0.25356643365E+03 -0.23082835990E+03  0.39768112811E+03  0.81385840197E+02 0.  0.
        254    2    1    2    0    0 -0.18425242647E+03  0.25356643365E+03 -0.11602864096E+04  0.15061979430E+04  0.90781209415E+03 0.  0.
         23    2    4    4    0    0 -0.63613348560E+01 -0.12084688737E+02 -0.11704245843E+04  0.11742740449E+04  0.94017650541E+02 0.  0.
         23    2    4    4    0    0 -0.17789109162E+03  0.26565112239E+03  0.10138174744E+02  0.33192389812E+03  0.88628055666E+02 0.  0.
          4    1    3    3  502    0 -0.46396224166E+01 -0.18455659241E+01 -0.15681024755E+02  0.16456814610E+02  0.00000000000E+00 0. -1.
         -3    1    3    3    0  502  0.18889204889E+03 -0.25172086773E+03 -0.21514733514E+03  0.38122431350E+03  0.00000000000E+00 0.  1.
         11    1    5    5    0    0 -0.43132528552E+02 -0.12021190644E+02 -0.92769943110E+03  0.92877939173E+03  0.00000000000E+00 0. -1.
        -11    1    5    5    0    0  0.36771193696E+02 -0.63498093778E-01 -0.24272515320E+03  0.24549465313E+03  0.00000000000E+00 0.  1.
          2    1    6    6  503    0 -0.24003440545E+01  0.64527750669E+02  0.73256660651E+01  0.64986595858E+02  0.00000000000E+00 0.  1.
         -2    1    6    6    0  503 -0.17549074756E+03  0.20112337172E+03  0.28125086788E+01  0.26693730226E+03  0.00000000000E+00 0. -1.
<mgrwt>
<rscale>  0 0.12998289E+04</rscale>
<asrwt>0</asrwt>
<pdfrwt beam="1">  1        2 0.25346106E+00 0.12998289E+04</pdfrwt>
<pdfrwt beam="2">  1       -1 0.39443409E-01 0.12998289E+04</pdfrwt>
<totfact> 0.73198246E+01</totfact>
</mgrwt>
</event>
<event>
12    6  0.1529770E-007  0.1517077E+04  0.7818608E-02  0.8873175E-01
          2   -1    0    0  501    0  0.00000000000E+00  0.00000000000E+00  0.12399591167E+04  0.12399591167E+04  0.00000000000E+00 0. -1.
         -1   -1    0    0    0  501 -0.00000000000E+00 -0.00000000000E+00 -0.46403213931E+03  0.46403213931E+03  0.00000000000E+00 0.  1.
         24    2    1    2    0    0  0.46355842454E+03 -0.43809267601E+02  0.12215841089E+03  0.48741354266E+03  0.76443569583E+02 0.  0.
        254    2    1    2    0    0 -0.46355842454E+03  0.43809267601E+02  0.65376856650E+03  0.12165777133E+04  0.91424412996E+03 0.  0.
         23    2    4    4    0    0 -0.68736730609E+03 -0.22240727689E+02  0.67199405399E+03  0.96586491595E+03  0.91381419436E+02 0.  0.
         23    2    4    4    0    0  0.22380888155E+03  0.66049995290E+02 -0.18225487492E+02  0.25071279739E+03  0.89842757294E+02 0.  0.
          4    1    3    3  502    0  0.29988419152E+03 -0.55101881386E+02  0.10490001491E+03  0.32244497016E+03  0.00000000000E+00 0. -1.
         -3    1    3    3    0  502  0.16367423302E+03  0.11292613784E+02  0.17258395979E+02  0.16496857250E+03  0.00000000000E+00 0.  1.
         11    1    5    5    0    0 -0.45186405013E+03  0.69416138641E+01  0.38674446344E+03  0.59481138674E+03  0.00000000000E+00 0.  1.
        -11    1    5    5    0    0 -0.23550325597E+03 -0.29182341553E+02  0.28524959055E+03  0.37105352921E+03  0.00000000000E+00 0. -1.
          2    1    6    6  503    0  0.19797913459E+03  0.39245908820E+02 -0.42520494502E+02  0.20626190037E+03  0.00000000000E+00 0. -1.
         -2    1    6    6    0  503  0.25829746964E+02  0.26804086470E+02  0.24295007010E+02  0.44450897013E+02  0.00000000000E+00 0.  1.
<mgrwt>
<rscale>  0 0.15170773E+04</rscale>
<asrwt>0</asrwt>
<pdfrwt beam="1">  1        2 0.19076294E+00 0.15170773E+04</pdfrwt>
<pdfrwt beam="2">  1       -1 0.71389561E-01 0.15170773E+04</pdfrwt>
<totfact> 0.39087931E+01</totfact>
</mgrwt>
</event>
<event>
12    6  0.1529770E-007  0.2252448E+04  0.7818608E-02  0.8496910E-01
         -1   -1    0    0    0  501 -0.00000000000E+00  0.00000000000E+00  0.35909798456E+03  0.35909798456E+03  0.00000000000E+00 0.  1.
          2   -1    0    0  501    0  0.00000000000E+00 -0.00000000000E+00 -0.35321300125E+04  0.35321300125E+04  0.00000000000E+00 0. -1.
         24    2    1    2    0    0 -0.22480392361E+02 -0.29738258580E+02  0.29297921905E+03  0.30578185904E+03  0.79221149052E+02 0.  0.
        254    2    1    2    0    0  0.22480392361E+02  0.29738258580E+02 -0.34660112470E+04  0.35854461380E+04  0.91695164118E+03 0.  0.
         23    2    4    4    0    0 -0.58958485595E+02  0.30719240644E+03 -0.30695193633E+04  0.30867261786E+04  0.89922760239E+02 0.  0.
         23    2    4    4    0    0  0.81438877956E+02 -0.27745414786E+03 -0.39649188371E+03  0.49871995936E+03  0.88897069753E+02 0.  0.
          4    1    3    3  502    0 -0.74839019300E+01 -0.18268706971E+02  0.99211914880E+01  0.22094897217E+02  0.00000000000E+00 0. -1.
         -3    1    3    3    0  502 -0.14996490431E+02 -0.11469551609E+02  0.28305802756E+03  0.28368696182E+03  0.00000000000E+00 0.  1.
         11    1    5    5    0    0 -0.71533970701E+02  0.23965206395E+03 -0.26306622840E+04  0.26425242238E+04  0.00000000000E+00 0. -1.
        -11    1    5    5    0    0  0.12575485106E+02  0.67540342495E+02 -0.43885707928E+03  0.44420195489E+03  0.00000000000E+00 0.  1.
          3    1    6    6  503    0  0.32843655292E+02 -0.64789098024E+02 -0.46298771125E+02  0.86138894371E+02  0.00000000000E+00 0. -1.
         -3    1    6    6    0  503  0.48595222664E+02 -0.21266504984E+03 -0.35019311258E+03  0.41258106499E+03  0.00000000000E+00 0.  1.
<mgrwt>
<rscale>  0 0.22524482E+04</rscale>
<asrwt>0</asrwt>
<pdfrwt beam="1">  1        2 0.54340463E+00 0.22524482E+04</pdfrwt>
<pdfrwt beam="2">  1       -1 0.55245843E-01 0.22524482E+04</pdfrwt>
<totfact> 0.26555327E+00</totfact>
</mgrwt>
</event>
<event>
12    6  0.1529770E-007  0.1619637E+04  0.7818608E-02  0.8808574E-01
         -1   -1    0    0    0  501 -0.00000000000E+00  0.00000000000E+00  0.10282992434E+04  0.10282992434E+04  0.00000000000E+00 0.  1.
          2   -1    0    0  501    0  0.00000000000E+00 -0.00000000000E+00 -0.63775784691E+03  0.63775784691E+03  0.00000000000E+00 0. -1.
         24    2    1    2    0    0  0.26818519812E+03 -0.16655225930E+03 -0.33137329579E+03  0.46549150696E+03  0.84918350927E+02 0.  0.
        254    2    1    2    0    0 -0.26818519812E+03  0.16655225930E+03  0.72191469227E+03  0.12005655833E+04  0.90583328567E+03 0.  0.
         23    2    4    4    0    0 -0.12591810255E+03 -0.35825074000E+03  0.19236008271E+03  0.43599273223E+03  0.94277780407E+02 0.  0.
         23    2    4    4    0    0 -0.14226709557E+03  0.52480299930E+03  0.52955460956E+03  0.76457285111E+03  0.92116478396E+02 0.  0.
          4    1    3    3  502    0  0.26082253787E+03 -0.13483021715E+03 -0.30710833630E+03  0.42488011714E+03  0.00000000000E+00 0. -1.
         -3    1    3    3    0  502  0.73626602506E+01 -0.31722042152E+02 -0.24264959485E+02  0.40611389819E+02  0.00000000000E+00 0.  1.
         11    1    5    5    0    0 -0.75306688293E+02 -0.28454619391E+03  0.18180487660E+03  0.34596336067E+03  0.00000000000E+00 0.  1.
        -11    1    5    5    0    0 -0.50611414257E+02 -0.73704546097E+02  0.10555206104E+02  0.90029371564E+02  0.00000000000E+00 0. -1.
          4    1    6    6  503    0 -0.24391466263E+01 -0.39009493022E+01  0.40171185174E+01  0.61077068451E+01  0.00000000000E+00 0. -1.
         -4    1    6    6    0  503 -0.13982794894E+03  0.52870394860E+03  0.52553749105E+03  0.75846514427E+03  0.00000000000E+00 0.  1.
<mgrwt>
<rscale>  0 0.16196369E+04</rscale>
<asrwt>0</asrwt>
<pdfrwt beam="1">  1        2 0.98116592E-01 0.16196369E+04</pdfrwt>
<pdfrwt beam="2">  1       -1 0.15819988E+00 0.16196369E+04</pdfrwt>
<totfact> 0.15185291E+01</totfact>
</mgrwt>
</event>
<event>
12    6  0.1529770E-007  0.2500011E+04  0.7818608E-02  0.8402982E-01
          2   -1    0    0  501    0  0.00000000000E+00  0.00000000000E+00  0.25905209023E+04  0.25905209023E+04  0.00000000000E+00 0. -1.
         -1   -1    0    0    0  501 -0.00000000000E+00 -0.00000000000E+00 -0.60316577697E+03  0.60316577697E+03  0.00000000000E+00 0.  1.
         24    2    1    2    0    0 -0.52480548553E+03 -0.57452313569E+03  0.18246298147E+04  0.19853005764E+04  0.81527829622E+02 0.  0.
        254    2    1    2    0    0  0.52480548553E+03  0.57452313569E+03  0.16272531070E+03  0.12083861029E+04  0.91006583049E+03 0.  0.
         23    2    4    4    0    0  0.29973243066E+03  0.77391427558E+03  0.27056638934E+03  0.87862456910E+03  0.99960624448E+02 0.  0.
         23    2    4    4    0    0  0.22507305487E+03 -0.19939113989E+03 -0.10784107864E+03  0.32976153380E+03  0.81842924138E+02 0.  0.
          2    1    3    3  502    0 -0.46219055469E+03 -0.54015898624E+03  0.16507001540E+04  0.17972765056E+04  0.00000000000E+00 0. -1.
         -1    1    3    3    0  502 -0.62614930839E+02 -0.34364149458E+02  0.17392966067E+03  0.18802407078E+03  0.00000000000E+00 0.  1.
         11    1    5    5    0    0  0.11053730252E+03  0.38068521419E+03  0.90821728832E+02  0.40667962081E+03  0.00000000000E+00 0. -1.
        -11    1    5    5    0    0  0.18919512814E+03  0.39322906139E+03  0.17974466051E+03  0.47194494829E+03  0.00000000000E+00 0.  1.
          2    1    6    6  503    0  0.11745865323E+03 -0.10631717030E+03 -0.13409741121E+02  0.15899590270E+03  0.00000000000E+00 0. -1.
         -2    1    6    6    0  503  0.10761440165E+03 -0.93073969587E+02 -0.94431337523E+02  0.17076563109E+03  0.00000000000E+00 0.  1.
<mgrwt>
<rscale>  0 0.25000108E+04</rscale>
<asrwt>0</asrwt>
<pdfrwt beam="1">  1        2 0.39854167E+00 0.25000108E+04</pdfrwt>
<pdfrwt beam="2">  1       -1 0.92794736E-01 0.25000108E+04</pdfrwt>
<totfact> 0.35283549E+00</totfact>
</mgrwt>
</event>
<event>
12    6  0.1529770E-007  0.1979801E+04  0.7818608E-02  0.8616123E-01
         -1   -1    0    0    0  501 -0.00000000000E+00  0.00000000000E+00  0.31467667323E+03  0.31467667323E+03  0.00000000000E+00 0.  1.
          2   -1    0    0  501    0  0.00000000000E+00 -0.00000000000E+00 -0.31139999093E+04  0.31139999093E+04  0.00000000000E+00 0. -1.
         24    2    1    2    0    0 -0.41522389301E+03  0.65385522446E+03 -0.13074743649E+04  0.15220002159E+04  0.84011346008E+02 0.  0.
        254    2    1    2    0    0  0.41522389301E+03 -0.65385522446E+03 -0.14918488712E+04  0.19066763667E+04  0.89992453962E+03 0.  0.
         23    2    4    4    0    0  0.61071847623E+03 -0.57136520936E+03 -0.74268188949E+03  0.11222748981E+04  0.92137387357E+02 0.  0.
         23    2    4    4    0    0 -0.19549458322E+03 -0.82490015095E+02 -0.74916698168E+03  0.78440146864E+03  0.94930305495E+02 0.  0.
          2    1    3    3  502    0 -0.19708827741E+02  0.35235019851E+02 -0.37809382469E+02  0.55312692192E+02  0.00000000000E+00 0. -1.
         -1    1    3    3    0  502 -0.39551506527E+03  0.61862020461E+03 -0.12696649825E+04  0.14666875237E+04  0.00000000000E+00 0.  1.
         11    1    5    5    0    0  0.10616534461E+03 -0.11558153425E+03 -0.96320366669E+02  0.18414066496E+03  0.00000000000E+00 0.  1.
        -11    1    5    5    0    0  0.50455313162E+03 -0.45578367512E+03 -0.64636152282E+03  0.93813423310E+03  0.00000000000E+00 0. -1.
          2    1    6    6  503    0 -0.16516595769E+03 -0.71264357759E+02 -0.46799534485E+03  0.50137615128E+03  0.00000000000E+00 0. -1.
         -2    1    6    6    0  503 -0.30328625522E+02 -0.11225657336E+02 -0.28117163683E+03  0.28302531736E+03  0.00000000000E+00 0.  1.
<mgrwt>
<rscale>  0 0.19798011E+04</rscale>
<asrwt>0</asrwt>
<pdfrwt beam="1">  1        2 0.47907692E+00 0.19798011E+04</pdfrwt>
<pdfrwt beam="2">  1       -1 0.48411795E-01 0.19798011E+04</pdfrwt>
<totfact> 0.66849160E+00</totfact>
</mgrwt>
</event>
<event>
12    6  0.1529770E-007  0.1658591E+04  0.7818608E-02  0.8785340E-01
          2   -1    0    0  501    0  0.00000000000E+00  0.00000000000E+00  0.57277151498E+03  0.57277151498E+03  0.00000000000E+00 0. -1.
         -1   -1    0    0    0  501 -0.00000000000E+00 -0.00000000000E+00 -0.12007081710E+04  0.12007081710E+04  0.00000000000E+00 0.  1.
         24    2    1    2    0    0 -0.31337814641E+03 -0.36112717799E+03  0.13306194707E+03  0.50303194615E+03  0.81957036082E+02 0.  0.
        254    2    1    2    0    0  0.31337814641E+03  0.36112717799E+03 -0.76099860313E+03  0.12704477399E+04  0.89794202731E+03 0.  0.
         23    2    4    4    0    0  0.23331425509E+03  0.79125808004E+02 -0.89706415344E+03  0.93479672600E+03  0.91784467295E+02 0.  0.
         23    2    4    4    0    0  0.80063891322E+02  0.28200136998E+03  0.13606555031E+03  0.33565101386E+03  0.90624333131E+02 0.  0.
          2    1    3    3  502    0 -0.22139425662E+03 -0.24363457996E+03  0.12954894203E+03  0.35377415648E+03  0.00000000000E+00 0. -1.
         -1    1    3    3    0  502 -0.91983889792E+02 -0.11749259803E+03  0.35130050463E+01  0.14925778967E+03  0.00000000000E+00 0.  1.
         11    1    5    5    0    0  0.21369115054E+03  0.77030975948E+02 -0.87955882708E+03  0.90841697990E+03  0.00000000000E+00 0.  1.
        -11    1    5    5    0    0  0.19623104548E+02  0.20948320556E+01 -0.17505326359E+02  0.26379746101E+02  0.00000000000E+00 0. -1.
          4    1    6    6  503    0  0.37299048649E+02  0.12692528873E+03  0.12645719652E+02  0.13289530532E+03  0.00000000000E+00 0. -1.
         -4    1    6    6    0  503  0.42764842673E+02  0.15507608125E+03  0.12341983066E+03  0.20275570854E+03  0.00000000000E+00 0.  1.
<mgrwt>
<rscale>  0 0.16585915E+04</rscale>
<asrwt>0</asrwt>
<pdfrwt beam="1">  1        2 0.88118696E-01 0.16585915E+04</pdfrwt>
<pdfrwt beam="2">  1       -1 0.18472433E+00 0.16585915E+04</pdfrwt>
<totfact> 0.11013903E+01</totfact>
</mgrwt>
</event>
<event>
12    6  0.1529770E-007  0.2267186E+04  0.7818608E-02  0.8490973E-01
         -1   -1    0    0    0  501 -0.00000000000E+00  0.00000000000E+00  0.98543575877E+03  0.98543575877E+03  0.00000000000E+00 0.  1.
          2   -1    0    0  501    0  0.00000000000E+00 -0.00000000000E+00 -0.13040248135E+04  0.13040248135E+04  0.00000000000E+00 0. -1.
         24    2    1    2    0    0 -0.41850426340E+02  0.61587499901E+03  0.59768761696E+03  0.86431766845E+03  0.93600598008E+02 0.  0.
        254    2    1    2    0    0  0.41850426340E+02 -0.61587499901E+03 -0.91627667172E+03  0.14251429038E+04  0.90023101739E+03 0.  0.
         23    2    4    4    0    0  0.29400955538E+03 -0.38304944724E+03 -0.55504552057E+02  0.49397309238E+03  0.88091787462E+02 0.  0.
         23    2    4    4    0    0 -0.25215912904E+03 -0.23282555177E+03 -0.86077211966E+03  0.93116981147E+03  0.91414505880E+02 0.  0.
          4    1    3    3  502    0 -0.10707744688E+02  0.33791926760E+03  0.38874291513E+03  0.51519427527E+03  0.00000000000E+00 0. -1.
         -1    1    3    3    0  502 -0.31142681652E+02  0.27795573141E+03  0.20894470183E+03  0.34912339318E+03  0.00000000000E+00 0.  1.
         11    1    5    5    0    0  0.29008538741E+02 -0.26556670908E+02  0.18818707090E+02  0.43599264056E+02  0.00000000000E+00 0. -1.
        -11    1    5    5    0    0  0.26500101664E+03 -0.35649277633E+03 -0.74323259147E+02  0.45037382833E+03  0.00000000000E+00 0.  1.
          2    1    6    6  503    0 -0.10519441389E+03 -0.41994280169E+02 -0.30950914252E+03  0.32958351535E+03  0.00000000000E+00 0. -1.
         -2    1    6    6    0  503 -0.14696471515E+03 -0.19083127160E+03 -0.55126297714E+03  0.60158629612E+03  0.00000000000E+00 0.  1.
<mgrwt>
<rscale>  0 0.22671856E+04</rscale>
<asrwt>0</asrwt>
<pdfrwt beam="1">  1        2 0.20061920E+00 0.22671856E+04</pdfrwt>
<pdfrwt beam="2">  1       -1 0.15160550E+00 0.22671856E+04</pdfrwt>
<totfact> 0.57747694E+00</totfact>
</mgrwt>
</event>
<event>
12    6  0.1529770E-007  0.1649505E+04  0.7818608E-02  0.8790699E-01
          2   -1    0    0  501    0  0.00000000000E+00  0.00000000000E+00  0.96899294865E+03  0.96899294865E+03  0.00000000000E+00 0. -1.
         -1   -1    0    0    0  501 -0.00000000000E+00 -0.00000000000E+00 -0.70198303047E+03  0.70198303047E+03  0.00000000000E+00 0.  1.
         24    2    1    2    0    0  0.81321369572E+02  0.32888020490E+03 -0.37534092229E+03  0.51192048812E+03  0.80040139226E+02 0.  0.
        254    2    1    2    0    0 -0.81321369572E+02 -0.32888020490E+03  0.64235084047E+03  0.11590554910E+04  0.90333807328E+03 0.  0.
         23    2    4    4    0    0  0.12561213600E+03 -0.58891501771E+03  0.32318688610E+03  0.68924582196E+03  0.89502698003E+02 0.  0.
         23    2    4    4    0    0 -0.20693350557E+03  0.26003481280E+03  0.31916395437E+03  0.46980966904E+03  0.91738300363E+02 0.  0.
          2    1    3    3  502    0  0.36776887611E+02  0.77015316050E+02 -0.53127965189E+02  0.10053098554E+03  0.00000000000E+00 0. -1.
         -1    1    3    3    0  502  0.44544481960E+02  0.25186488885E+03 -0.32221295710E+03  0.41138950258E+03  0.00000000000E+00 0.  1.
         11    1    5    5    0    0  0.13371548125E+03 -0.48057854123E+03  0.28225045599E+03  0.57314996652E+03  0.00000000000E+00 0. -1.
        -11    1    5    5    0    0 -0.81033452481E+01 -0.10833647648E+03  0.40936430108E+02  0.11609585544E+03  0.00000000000E+00 0.  1.
          2    1    6    6  503    0 -0.14333451661E+03  0.12694929576E+03  0.13709924218E+03  0.23549333229E+03  0.00000000000E+00 0. -1.
         -2    1    6    6    0  503 -0.63598988968E+02  0.13308551704E+03  0.18206471219E+03  0.23431633675E+03  0.00000000000E+00 0.  1.
<mgrwt>
<rscale>  0 0.16495049E+04</rscale>
<asrwt>0</asrwt>
<pdfrwt beam="1">  1        2 0.14907584E+00 0.16495049E+04</pdfrwt>
<pdfrwt beam="2">  1       -1 0.10799739E+00 0.16495049E+04</pdfrwt>
<totfact> 0.22924301E+01</totfact>
</mgrwt>
</event>
<event>
12    6  0.1529770E-007  0.1380288E+04  0.7818608E-02  0.8968212E-01
         -1   -1    0    0    0  501 -0.00000000000E+00  0.00000000000E+00  0.15694424624E+03  0.15694424624E+03  0.00000000000E+00 0.  1.
          2   -1    0    0  501    0  0.00000000000E+00 -0.00000000000E+00 -0.30348286721E+04  0.30348286721E+04  0.00000000000E+00 0. -1.
         24    2    1    2    0    0 -0.21591121930E+03  0.16214329905E+03 -0.17521547970E+03  0.33151960918E+03  0.79351640783E+02 0.  0.
        254    2    1    2    0    0  0.21591121930E+03 -0.16214329905E+03 -0.27026689461E+04  0.28602533091E+04  0.89650513437E+03 0.  0.
         23    2    4    4    0    0  0.38719388958E+03 -0.44252913596E+03 -0.16655752969E+04  0.17686292941E+04  0.90318137382E+02 0.  0.
         23    2    4    4    0    0 -0.17128267028E+03  0.28038583690E+03 -0.10370936492E+04  0.10916240151E+04  0.90143121074E+02 0.  0.
          4    1    3    3  502    0 -0.15697915550E+02  0.22562243067E+02  0.52468728203E+01  0.27982298677E+02  0.00000000000E+00 0. -1.
         -3    1    3    3    0  502 -0.20021330375E+03  0.13958105599E+03 -0.18046235252E+03  0.30353731050E+03  0.00000000000E+00 0.  1.
         11    1    5    5    0    0  0.30827240655E+02 -0.12963979553E+02 -0.14631555971E+03  0.15008872890E+03  0.00000000000E+00 0.  1.
        -11    1    5    5    0    0  0.35636664893E+03 -0.42956515641E+03 -0.15192597372E+04  0.16185405652E+04  0.00000000000E+00 0. -1.
          1    1    6    6  503    0 -0.12695109358E+03  0.13983812133E+03 -0.66827260624E+03  0.69444910295E+03  0.00000000000E+00 0. -1.
         -1    1    6    6    0  503 -0.44331576706E+02  0.14054771558E+03 -0.36882104300E+03  0.39717491210E+03  0.00000000000E+00 0.  1.
<mgrwt>
<rscale>  0 0.13802882E+04</rscale>
<asrwt>0</asrwt>
<pdfrwt beam="1">  1        2 0.46689669E+00 0.13802882E+04</pdfrwt>
<pdfrwt beam="2">  1       -1 0.24145270E-01 0.13802882E+04</pdfrwt>
<totfact> 0.27597124E+01</totfact>
</mgrwt>
</event>
<event>
12    6  0.1529770E-007  0.3179105E+04  0.7818608E-02  0.8194357E-01
          2   -1    0    0  501    0  0.00000000000E+00  0.00000000000E+00  0.34499593954E+04  0.34499593954E+04  0.00000000000E+00 0. -1.
         -1   -1    0    0    0  501 -0.00000000000E+00 -0.00000000000E+00 -0.73237872186E+03  0.73237872186E+03  0.00000000000E+00 0.  1.
         24    2    1    2    0    0 -0.59502253833E+03 -0.91649265188E+03 -0.22422968386E+02  0.10958873616E+04  0.80347481717E+02 0.  0.
        254    2    1    2    0    0  0.59502253833E+03  0.91649265188E+03  0.27400036420E+04  0.30864507557E+04  0.90804609306E+03 0.  0.
         23    2    4    4    0    0 -0.22694170586E+02 -0.11890091208E+03  0.96269944162E+02  0.17940895130E+03  0.90924239817E+02 0.  0.
         23    2    4    4    0    0  0.61771670891E+03  0.10353935640E+04  0.26437336978E+04  0.29070418044E+04  0.89165142802E+02 0.  0.
          4    1    3    3  502    0 -0.38452815326E+03 -0.52049935238E+03 -0.75024703390E+01  0.64717676375E+03  0.00000000000E+00 0. -1.
         -3    1    3    3    0  502 -0.21049438507E+03 -0.39599329950E+03 -0.14920498047E+02  0.44871059789E+03  0.00000000000E+00 0.  1.
         11    1    5    5    0    0  0.18025949948E+02 -0.36483010571E+02  0.74575109820E+02  0.84955234898E+02  0.00000000000E+00 0. -1.
        -11    1    5    5    0    0 -0.40720120534E+02 -0.82417901508E+02  0.21694834341E+02  0.94453716404E+02  0.00000000000E+00 0.  1.
          1    1    6    6  503    0  0.25163641565E+03  0.34776055121E+03  0.98667207203E+03  0.10760018887E+04  0.00000000000E+00 0. -1.
         -1    1    6    6    0  503  0.36608029326E+03  0.68763301275E+03  0.16570616258E+04  0.18310399157E+04  0.00000000000E+00 0.  1.
<mgrwt>
<rscale>  0 0.31791048E+04</rscale>
<asrwt>0</asrwt>
<pdfrwt beam="1">  1        2 0.53076297E+00 0.31791048E+04</pdfrwt>
<pdfrwt beam="2">  1       -1 0.11267365E+00 0.31791048E+04</pdfrwt>
<totfact> 0.60754386E-01</totfact>
</mgrwt>
</event>
<event>
12    6  0.1529770E-007  0.1814350E+04  0.7818608E-02  0.8698705E-01
          2   -1    0    0  501    0  0.00000000000E+00  0.00000000000E+00  0.10919835458E+04  0.10919835458E+04  0.00000000000E+00 0. -1.
         -1   -1    0    0    0  501 -0.00000000000E+00 -0.00000000000E+00 -0.75364349927E+03  0.75364349927E+03  0.00000000000E+00 0.  1.
         24    2    1    2    0    0 -0.51347464228E+03  0.45612300164E+03  0.13619332874E+03  0.70459330226E+03  0.78731810018E+02 0.  0.
        254    2    1    2    0    0  0.51347464228E+03 -0.45612300164E+03  0.20214671774E+03  0.11410337428E+04  0.88847639570E+03 0.  0.
         23    2    4    4    0    0  0.32695098055E+03 -0.47246766164E+03  0.50681810875E+03  0.77205029449E+03  0.95259786293E+02 0.  0.
         23    2    4    4    0    0  0.18652366173E+03  0.16344660003E+02 -0.30467139101E+03  0.36898344826E+03  0.90917018730E+02 0.  0.
          2    1    3    3  502    0 -0.40850836909E+03  0.39874050047E+03  0.12552851544E+03  0.58449164453E+03  0.00000000000E+00 0. -1.
         -1    1    3    3    0  502 -0.10496627319E+03  0.57382501167E+02  0.10664813296E+02  0.12010165773E+03  0.00000000000E+00 0.  1.
         11    1    5    5    0    0  0.28784250182E+03 -0.36975186888E+03  0.37321888144E+03  0.59905098602E+03  0.00000000000E+00 0. -1.
        -11    1    5    5    0    0  0.39108478732E+02 -0.10271579277E+03  0.13359922732E+03  0.17299930847E+03  0.00000000000E+00 0.  1.
          3    1    6    6  503    0  0.18936789024E+03  0.31616671853E+02 -0.27354117460E+03  0.33419243857E+03  0.00000000000E+00 0. -1.
         -3    1    6    6    0  503 -0.28442285133E+01 -0.15272011850E+02 -0.31130216404E+02  0.34791009689E+02  0.00000000000E+00 0.  1.
<mgrwt>
<rscale>  0 0.18143498E+04</rscale>
<asrwt>0</asrwt>
<pdfrwt beam="1">  1        2 0.16799747E+00 0.18143498E+04</pdfrwt>
<pdfrwt beam="2">  1       -1 0.11594515E+00 0.18143498E+04</pdfrwt>
<totfact> 0.15953362E+01</totfact>
</mgrwt>
</event>
<event>
12    6  0.1529770E-007  0.2031023E+04  0.7818608E-02  0.8592252E-01
          2   -1    0    0  501    0  0.00000000000E+00  0.00000000000E+00  0.24683499932E+04  0.24683499932E+04  0.00000000000E+00 0. -1.
         -1   -1    0    0    0  501 -0.00000000000E+00 -0.00000000000E+00 -0.41779470287E+03  0.41779470287E+03  0.00000000000E+00 0.  1.
         24    2    1    2    0    0 -0.46367814098E+03  0.40735734687E+00 -0.12261400696E+03  0.48608263843E+03  0.79022479820E+02 0.  0.
        254    2    1    2    0    0  0.46367814098E+03 -0.40735734687E+00  0.21731692973E+04  0.24000620577E+04  0.90699255870E+03 0.  0.
         23    2    4    4    0    0  0.11121211984E+03 -0.40313060828E+03  0.61016353545E+03  0.74544869190E+03  0.92259359074E+02 0.  0.
         23    2    4    4    0    0  0.35246602113E+03  0.40272325093E+03  0.15630057619E+04  0.16546133658E+04  0.91323960075E+02 0.  0.
          2    1    3    3  502    0 -0.88030353790E+01  0.11939112798E+02 -0.11789493797E-01  0.14833609988E+02  0.00000000000E+00 0. -1.
         -1    1    3    3    0  502 -0.45487510560E+03 -0.11531755451E+02 -0.12260221746E+03  0.47124902844E+03  0.00000000000E+00 0.  1.
         11    1    5    5    0    0  0.72798389827E+02 -0.36166389483E+03  0.55529255004E+03  0.66667097921E+03  0.00000000000E+00 0. -1.
        -11    1    5    5    0    0  0.38413730016E+02 -0.41466713441E+02  0.54870985405E+02  0.78777712690E+02  0.00000000000E+00 0.  1.
          4    1    6    6  503    0  0.11067470035E+03  0.11388466055E+03  0.34723924496E+03  0.38182941014E+03  0.00000000000E+00 0. -1.
         -4    1    6    6    0  503  0.24179132079E+03  0.28883859037E+03  0.12157665169E+04  0.12727839556E+04  0.00000000000E+00 0.  1.
<mgrwt>
<rscale>  0 0.20310229E+04</rscale>
<asrwt>0</asrwt>
<pdfrwt beam="1">  1        2 0.37974615E+00 0.20310229E+04</pdfrwt>
<pdfrwt beam="2">  1       -1 0.64276109E-01 0.20310229E+04</pdfrwt>
<totfact> 0.94056871E+00</totfact>
</mgrwt>
</event>
<event>
12    6  0.1529770E-007  0.1721268E+04  0.7818608E-02  0.8749326E-01
          2   -1    0    0  501    0  0.00000000000E+00  0.00000000000E+00  0.60874985369E+03  0.60874985369E+03  0.00000000000E+00 0. -1.
         -1   -1    0    0    0  501 -0.00000000000E+00 -0.00000000000E+00 -0.12167411599E+04  0.12167411599E+04  0.00000000000E+00 0.  1.
         24    2    1    2    0    0 -0.21560623351E+03  0.53673512967E+03  0.26641438916E+02  0.58435088761E+03  0.78648243669E+02 0.  0.
        254    2    1    2    0    0  0.21560623351E+03 -0.53673512967E+03 -0.63463274511E+03  0.12411401260E+04  0.89615815778E+03 0.  0.
         23    2    4    4    0    0  0.23535261243E+03 -0.62028694894E+03 -0.81822656068E+02  0.67450235508E+03  0.90065136172E+02 0.  0.
         23    2    4    4    0    0 -0.19746378920E+02  0.83551819274E+02 -0.55281008904E+03  0.56663777088E+03  0.90047447808E+02 0.  0.
          2    1    3    3  502    0 -0.14628598869E+03  0.44335712806E+03  0.10901497245E+02  0.46699462109E+03  0.00000000000E+00 0. -1.
         -1    1    3    3    0  502 -0.69320244821E+02  0.93378001611E+02  0.15739941671E+02  0.11735626652E+03  0.00000000000E+00 0.  1.
         11    1    5    5    0    0  0.19231573057E+03 -0.44070312810E+03 -0.25825883699E+02  0.48153043892E+03  0.00000000000E+00 0.  1.
        -11    1    5    5    0    0  0.43036881864E+02 -0.17958382085E+03 -0.55996772368E+02  0.19297191616E+03  0.00000000000E+00 0. -1.
          4    1    6    6  503    0  0.14066812742E+02  0.37165612504E+01 -0.11823917180E+02  0.18748148328E+02  0.00000000000E+00 0. -1.
         -4    1    6    6    0  503 -0.33813191663E+02  0.79835258023E+02 -0.54098617186E+03  0.54788962255E+03  0.00000000000E+00 0.  1.
<mgrwt>
<rscale>  0 0.17212681E+04</rscale>
<asrwt>0</asrwt>
<pdfrwt beam="1">  1        2 0.93653824E-01 0.17212681E+04</pdfrwt>
<pdfrwt beam="2">  1       -1 0.18719095E+00 0.17212681E+04</pdfrwt>
<totfact> 0.97787960E+00</totfact>
</mgrwt>
</event>
<event>
12    6  0.1529770E-007  0.1666242E+04  0.7818608E-02  0.8780855E-01
          2   -1    0    0  501    0  0.00000000000E+00  0.00000000000E+00  0.83467628902E+03  0.83467628902E+03  0.00000000000E+00 0. -1.
         -1   -1    0    0    0  501 -0.00000000000E+00 -0.00000000000E+00 -0.83156887542E+03  0.83156887542E+03  0.00000000000E+00 0.  1.
         24    2    1    2    0    0 -0.48257126119E+03 -0.30349715341E+03  0.14156903466E+03  0.59278955157E+03  0.79825538658E+02 0.  0.
        254    2    1    2    0    0  0.48257126119E+03  0.30349715341E+03 -0.13846162106E+03  0.10734556129E+04  0.89897151682E+03 0.  0.
         23    2    4    4    0    0  0.27788052230E+03 -0.18152997121E+03 -0.35769268320E+03  0.49619105550E+03  0.89948834447E+02 0.  0.
         23    2    4    4    0    0  0.20469073889E+03  0.48502712462E+03  0.21923106214E+03  0.57726455737E+03  0.89568411772E+02 0.  0.
          2    1    3    3  502    0 -0.83579838986E+02 -0.66093089955E+02  0.57098915108E+02  0.12088909021E+03  0.00000000000E+00 0. -1.
         -1    1    3    3    0  502 -0.39899142221E+03 -0.23740406345E+03  0.84470119551E+02  0.47190046136E+03  0.00000000000E+00 0.  1.
         11    1    5    5    0    0  0.69800322886E+02 -0.76745322011E+01 -0.99441616415E+02  0.12173585583E+03  0.00000000000E+00 0. -1.
        -11    1    5    5    0    0  0.20808019941E+03 -0.17385543901E+03 -0.25825106679E+03  0.37445519967E+03  0.00000000000E+00 0.  1.
          3    1    6    6  503    0  0.95303194855E+02  0.18063887955E+03  0.12862848194E+03  0.24136774872E+03  0.00000000000E+00 0. -1.
         -3    1    6    6    0  503  0.10938754404E+03  0.30438824507E+03  0.90602580207E+02  0.33589680866E+03  0.00000000000E+00 0.  1.
<mgrwt>
<rscale>  0 0.16662423E+04</rscale>
<asrwt>0</asrwt>
<pdfrwt beam="1">  1        2 0.12841174E+00 0.16662423E+04</pdfrwt>
<pdfrwt beam="2">  1       -1 0.12793367E+00 0.16662423E+04</pdfrwt>
<totfact> 0.18713829E+01</totfact>
</mgrwt>
</event>
<event>
12    6  0.1529770E-007  0.1453000E+04  0.7818608E-02  0.8916323E-01
         -1   -1    0    0    0  501 -0.00000000000E+00  0.00000000000E+00  0.46711909630E+03  0.46711909630E+03  0.00000000000E+00 0.  1.
          2   -1    0    0  501    0  0.00000000000E+00 -0.00000000000E+00 -0.11299093426E+04  0.11299093426E+04  0.00000000000E+00 0. -1.
         24    2    1    2    0    0 -0.23750002554E+02 -0.38690660886E+03 -0.44728318598E+03  0.59721094832E+03  0.79610814196E+02 0.  0.
        254    2    1    2    0    0  0.23750002554E+02  0.38690660886E+03 -0.21550706037E+03  0.99981749063E+03  0.89606413549E+03 0.  0.
         23    2    4    4    0    0  0.11186148461E+03 -0.15719466202E+03 -0.36376356073E+03  0.42166666022E+03  0.90860831617E+02 0.  0.
         23    2    4    4    0    0 -0.88111482053E+02  0.54410127087E+03  0.14825650037E+03  0.57815083041E+03  0.92024814953E+02 0.  0.
          2    1    3    3  502    0 -0.25862550008E+02 -0.25577703448E+03 -0.34830777851E+03  0.43290769389E+03  0.00000000000E+00 0. -1.
         -1    1    3    3    0  502  0.21125474549E+01 -0.13112957437E+03 -0.98975407473E+02  0.16430325443E+03  0.00000000000E+00 0.  1.
         11    1    5    5    0    0  0.12229974468E+02 -0.70999835268E+01 -0.10744243466E+03  0.10836908603E+03  0.00000000000E+00 0. -1.
        -11    1    5    5    0    0  0.99631510139E+02 -0.15009467849E+03 -0.25632112607E+03  0.31329757419E+03  0.00000000000E+00 0.  1.
          3    1    6    6  503    0 -0.24230624146E+02  0.17500936708E+03  0.92551519899E+02  0.19945221369E+03  0.00000000000E+00 0. -1.
         -3    1    6    6    0  503 -0.63880857906E+02  0.36909190379E+03  0.55704980469E+02  0.37869861672E+03  0.00000000000E+00 0.  1.
<mgrwt>
<rscale>  0 0.14530000E+04</rscale>
<asrwt>0</asrwt>
<pdfrwt beam="1">  1        2 0.17383221E+00 0.14530000E+04</pdfrwt>
<pdfrwt beam="2">  1       -1 0.71864476E-01 0.14530000E+04</pdfrwt>
<totfact> 0.45131617E+01</totfact>
</mgrwt>
</event>
<event>
12    6  0.1529770E-007  0.1179869E+04  0.7818608E-02  0.9130662E-01
          2   -1    0    0  501    0  0.00000000000E+00  0.00000000000E+00  0.16626760238E+04  0.16626760238E+04  0.00000000000E+00 0. -1.
         -1   -1    0    0    0  501 -0.00000000000E+00 -0.00000000000E+00 -0.20931487677E+03  0.20931487677E+03  0.00000000000E+00 0.  1.
         24    2    1    2    0    0  0.13909932767E+03 -0.11186815402E+02  0.59881794336E+03  0.62067011537E+03  0.84703571541E+02 0.  0.
        254    2    1    2    0    0 -0.13909932767E+03  0.11186815402E+02  0.85454320363E+03  0.12513207852E+04  0.90337470227E+03 0.  0.
         23    2    4    4    0    0  0.13122879044E+03  0.26062156247E+03 -0.10404173152E+02  0.30695590127E+03  0.94705249276E+02 0.  0.
         23    2    4    4    0    0 -0.27032811811E+03 -0.24943474707E+03  0.86494737679E+03  0.94436488389E+03  0.91630152412E+02 0.  0.
          4    1    3    3  502    0  0.12391645656E+03 -0.10484046325E+02  0.59027884686E+03  0.60323653776E+03  0.00000000000E+00 0. -1.
         -3    1    3    3    0  502  0.15182871105E+02 -0.70276907681E+00  0.85390964928E+01  0.17433577610E+02  0.00000000000E+00 0.  1.
         11    1    5    5    0    0  0.14052214859E+03  0.26202745499E+03 -0.91190816039E+01  0.29746935819E+03  0.00000000000E+00 0. -1.
        -11    1    5    5    0    0 -0.92933581485E+01 -0.14058925128E+01 -0.12850915486E+01  0.94865430860E+01  0.00000000000E+00 0.  1.
          2    1    6    6  503    0 -0.11546417545E+03 -0.15528572917E+03  0.37526673768E+03  0.42222121916E+03  0.00000000000E+00 0. -1.
         -2    1    6    6    0  503 -0.15486394266E+03 -0.94149017898E+02  0.48968063911E+03  0.52214366473E+03  0.00000000000E+00 0.  1.
<mgrwt>
<rscale>  0 0.11798692E+04</rscale>
<asrwt>0</asrwt>
<pdfrwt beam="1">  1        2 0.25579630E+00 0.11798692E+04</pdfrwt>
<pdfrwt beam="2">  1       -1 0.32202290E-01 0.11798692E+04</pdfrwt>
<totfact> 0.10424634E+02</totfact>
</mgrwt>
</event>
<event>
12    6  0.1529770E-007  0.2161946E+04  0.7818608E-02  0.8534436E-01
          2   -1    0    0  501    0  0.00000000000E+00  0.00000000000E+00  0.11821981879E+04  0.11821981879E+04  0.00000000000E+00 0. -1.
         -1   -1    0    0    0  501 -0.00000000000E+00 -0.00000000000E+00 -0.98841495435E+03  0.98841495435E+03  0.00000000000E+00 0.  1.
         24    2    1    2    0    0  0.56051230610E+02 -0.24781171301E+03  0.93871385863E+03  0.97570257472E+03  0.79116498720E+02 0.  0.
        254    2    1    2    0    0 -0.56051230610E+02  0.24781171301E+03 -0.74493062511E+03  0.11949105675E+04  0.89907577131E+03 0.  0.
         23    2    4    4    0    0 -0.40995127330E+03 -0.56412006759E+02 -0.51468757465E+03  0.66641102680E+03  0.89207601395E+02 0.  0.
         23    2    4    4    0    0  0.35390004269E+03  0.30422371977E+03 -0.23024305046E+03  0.52849954071E+03  0.92209491719E+02 0.  0.
          2    1    3    3  502    0  0.52574231183E+02 -0.19359410174E+03  0.83336570368E+03  0.85717041601E+03  0.00000000000E+00 0. -1.
         -3    1    3    3    0  502  0.34769994278E+01 -0.54217611265E+02  0.10534815495E+03  0.11853215871E+03  0.00000000000E+00 0.  1.
         11    1    5    5    0    0 -0.31216103328E+03 -0.15666708357E+02 -0.33772076912E+03  0.46015787980E+03  0.00000000000E+00 0.  1.
        -11    1    5    5    0    0 -0.97790240028E+02 -0.40745298402E+02 -0.17696680553E+03  0.20625314700E+03  0.00000000000E+00 0. -1.
          4    1    6    6  503    0  0.16737082659E+03  0.15659790613E+03 -0.62982304317E+02  0.23770289955E+03  0.00000000000E+00 0. -1.
         -4    1    6    6    0  503  0.18652921610E+03  0.14762581364E+03 -0.16726074614E+03  0.29079664116E+03  0.00000000000E+00 0.  1.
<mgrwt>
<rscale>  0 0.21619458E+04</rscale>
<asrwt>0</asrwt>
<pdfrwt beam="1">  1        2 0.18187664E+00 0.21619458E+04</pdfrwt>
<pdfrwt beam="2">  1       -1 0.15206384E+00 0.21619458E+04</pdfrwt>
<totfact> 0.68231976E+00</totfact>
</mgrwt>
</event>
<event>
12    6  0.1529770E-007  0.1273993E+04  0.7818608E-02  0.9050447E-01
         -1   -1    0    0    0  501 -0.00000000000E+00  0.00000000000E+00  0.40717623965E+03  0.40717623965E+03  0.00000000000E+00 0.  1.
          2   -1    0    0  501    0  0.00000000000E+00 -0.00000000000E+00 -0.99653348039E+03  0.99653348039E+03  0.00000000000E+00 0. -1.
         24    2    1    2    0    0 -0.20220686734E+03 -0.75756964125E+01  0.10916552353E+03  0.24952988904E+03  0.96969302468E+02 0.  0.
        254    2    1    2    0    0  0.20220686734E+03  0.75756964125E+01 -0.69852276427E+03  0.11541798310E+04  0.89624328266E+03 0.  0.
         23    2    4    4    0    0 -0.11974126322E+03 -0.35831205640E+03 -0.15559966543E+03  0.41888052867E+03  0.92326277583E+02 0.  0.
         23    2    4    4    0    0  0.32194813056E+03  0.36588775281E+03 -0.54292309884E+03  0.73529930233E+03  0.91515716327E+02 0.  0.
          2    1    3    3  502    0 -0.11346188477E+03 -0.30865620176E+02  0.15823552622E+02  0.11864514580E+03  0.00000000000E+00 0. -1.
         -1    1    3    3    0  502 -0.88744982570E+02  0.23289923763E+02  0.93341970905E+02  0.13088474324E+03  0.00000000000E+00 0.  1.
         11    1    5    5    0    0  0.65940745641E+01 -0.22204469548E+02 -0.31235289508E+02  0.38886547776E+02  0.00000000000E+00 0. -1.
        -11    1    5    5    0    0 -0.12633533779E+03 -0.33610758685E+03 -0.12436437593E+03  0.37999398089E+03  0.00000000000E+00 0.  1.
          1    1    6    6  503    0  0.21718781640E+03  0.21137772052E+03 -0.27834001696E+03  0.41149028344E+03  0.00000000000E+00 0. -1.
         -1    1    6    6    0  503  0.10476031416E+03  0.15451003230E+03 -0.26458308188E+03  0.32380901890E+03  0.00000000000E+00 0.  1.
<mgrwt>
<rscale>  0 0.12739933E+04</rscale>
<asrwt>0</asrwt>
<pdfrwt beam="1">  1        2 0.15331284E+00 0.12739933E+04</pdfrwt>
<pdfrwt beam="2">  1       -1 0.62642499E-01 0.12739933E+04</pdfrwt>
<totfact> 0.73310635E+01</totfact>
</mgrwt>
</event>
<event>
12    6  0.1529770E-007  0.1148533E+04  0.7818608E-02  0.9159138E-01
         -1   -1    0    0    0  501 -0.00000000000E+00  0.00000000000E+00  0.11536678759E+03  0.11536678759E+03  0.00000000000E+00 0.  1.
          2   -1    0    0  501    0  0.00000000000E+00 -0.00000000000E+00 -0.28585541827E+04  0.28585541827E+04  0.00000000000E+00 0. -1.
         24    2    1    2    0    0 -0.27950848190E+02  0.41436271350E+02  0.22152793232E+02  0.10178148893E+03  0.85851678739E+02 0.  0.
        254    2    1    2    0    0  0.27950848190E+02 -0.41436271350E+02 -0.27653401884E+04  0.28721394814E+04  0.77432591890E+03 0.  0.
         23    2    4    4    0    0 -0.21081161926E+03 -0.23176734084E+03 -0.21892851079E+04  0.22134705338E+04  0.91240786858E+02 0.  0.
         23    2    4    4    0    0  0.23876246745E+03  0.19033106949E+03 -0.57605508049E+03  0.65866894763E+03  0.93658394887E+02 0.  0.
          4    1    3    3  502    0  0.20826804110E+02 -0.14242074129E+02  0.37742132627E+01  0.25511509769E+02  0.00000000000E+00 0. -1.
         -3    1    3    3    0  502 -0.48777652300E+02  0.55678345479E+02  0.18378579969E+02  0.76269979158E+02  0.00000000000E+00 0.  1.
         11    1    5    5    0    0 -0.12818795834E+03 -0.19572600696E+03 -0.16891842552E+04  0.17053106082E+04  0.00000000000E+00 0.  1.
        -11    1    5    5    0    0 -0.82623660925E+02 -0.36041333879E+02 -0.50010085273E+03  0.50815992561E+03  0.00000000000E+00 0. -1.
          2    1    6    6  503    0  0.60558597379E+02  0.19911563469E+02 -0.63966164777E+02  0.90307720116E+02  0.00000000000E+00 0.  1.
         -2    1    6    6    0  503  0.17820387007E+03  0.17041950602E+03 -0.51208891572E+03  0.56836122751E+03  0.00000000000E+00 0. -1.
<mgrwt>
<rscale>  0 0.11485333E+04</rscale>
<asrwt>0</asrwt>
<pdfrwt beam="1">  1        2 0.43977753E+00 0.11485333E+04</pdfrwt>
<pdfrwt beam="2">  1       -1 0.17748738E-01 0.11485333E+04</pdfrwt>
<totfact> 0.60775175E+01</totfact>
</mgrwt>
</event>
<event>
12    6  0.1529770E-007  0.3184190E+04  0.7818608E-02  0.8193005E-01
         -1   -1    0    0    0  501 -0.00000000000E+00  0.00000000000E+00  0.11954136698E+04  0.11954136698E+04  0.00000000000E+00 0.  1.
          2   -1    0    0  501    0  0.00000000000E+00 -0.00000000000E+00 -0.21204088459E+04  0.21204088459E+04  0.00000000000E+00 0. -1.
         24    2    1    2    0    0  0.13106144360E+04  0.59073505967E+03 -0.14599457971E+03  0.14471840087E+04  0.79680783069E+02 0.  0.
        254    2    1    2    0    0 -0.13106144360E+04 -0.59073505967E+03 -0.77900059641E+03  0.18686385070E+04  0.90459373751E+03 0.  0.
         23    2    4    4    0    0 -0.30361665597E+03 -0.57942636026E+03 -0.47116861027E+03  0.81133746189E+03  0.91381819875E+02 0.  0.
         23    2    4    4    0    0 -0.10069977800E+04 -0.11308699410E+02 -0.30783198613E+03  0.10573010451E+04  0.94617929493E+02 0.  0.
          4    1    3    3  502    0  0.16396540355E+03  0.71610301194E+02 -0.44742796789E+02  0.18443049277E+03  0.00000000000E+00 0. -1.
         -3    1    3    3    0  502  0.11466490324E+04  0.51912475848E+03 -0.10125178292E+03  0.12627535159E+04  0.00000000000E+00 0.  1.
         11    1    5    5    0    0 -0.27576054379E+03 -0.50525399230E+03 -0.37612761049E+03  0.68760268588E+03  0.00000000000E+00 0. -1.
        -11    1    5    5    0    0 -0.27856112175E+02 -0.74172367958E+02 -0.95040999784E+02  0.12373477601E+03  0.00000000000E+00 0.  1.
          3    1    6    6  503    0 -0.53440509450E+03  0.14661847922E+02 -0.20759524508E+03  0.57349765526E+03  0.00000000000E+00 0. -1.
         -3    1    6    6    0  503 -0.47259268553E+03 -0.25970547332E+02 -0.10023674105E+03  0.48380338982E+03  0.00000000000E+00 0.  1.
<mgrwt>
<rscale>  0 0.31841895E+04</rscale>
<asrwt>0</asrwt>
<pdfrwt beam="1">  1        2 0.32621674E+00 0.31841895E+04</pdfrwt>
<pdfrwt beam="2">  1       -1 0.18390980E+00 0.31841895E+04</pdfrwt>
<totfact> 0.10707917E+00</totfact>
</mgrwt>
</event>
<event>
12    6  0.1529770E-007  0.1791012E+04  0.7818608E-02  0.8711094E-01
          2   -1    0    0  501    0  0.00000000000E+00  0.00000000000E+00  0.60618260290E+03  0.60618260290E+03  0.00000000000E+00 0. -1.
         -1   -1    0    0    0  501 -0.00000000000E+00 -0.00000000000E+00 -0.13229194999E+04  0.13229194999E+04  0.00000000000E+00 0.  1.
         24    2    1    2    0    0 -0.25381186595E+03  0.46603238900E+03  0.17114512280E+03  0.56358587013E+03  0.82047114860E+02 0.  0.
        254    2    1    2    0    0  0.25381186595E+03 -0.46603238900E+03 -0.88788201982E+03  0.13655162327E+04  0.89145580358E+03 0.  0.
         23    2    4    4    0    0  0.43447760802E+03 -0.63523597088E+03 -0.63568091213E+03  0.10024911843E+04  0.92751399197E+02 0.  0.
         23    2    4    4    0    0 -0.18066574207E+03  0.16920358188E+03 -0.25220110770E+03  0.36302504836E+03  0.83137383521E+02 0.  0.
          2    1    3    3  502    0 -0.18918058358E+03  0.29814002641E+03  0.80583188661E+02  0.36217456957E+03  0.00000000000E+00 0. -1.
         -1    1    3    3    0  502 -0.64631282374E+02  0.16789236259E+03  0.90561934134E+02  0.20141130056E+03  0.00000000000E+00 0.  1.
         11    1    5    5    0    0  0.35967387519E+03 -0.54373211663E+03 -0.49379252096E+03  0.81782697737E+03  0.00000000000E+00 0. -1.
        -11    1    5    5    0    0  0.74803732827E+02 -0.91503854253E+02 -0.14188839116E+03  0.18466420697E+03  0.00000000000E+00 0.  1.
          1    1    6    6  503    0 -0.16754615110E+03  0.14816224849E+03 -0.25366448697E+03  0.33818550616E+03  0.00000000000E+00 0. -1.
         -1    1    6    6    0  503 -0.13119590973E+02  0.21041333389E+02  0.14633792760E+01  0.24839542206E+02  0.00000000000E+00 0.  1.
<mgrwt>
<rscale>  0 0.17910118E+04</rscale>
<asrwt>0</asrwt>
<pdfrwt beam="1">  1        2 0.93258863E-01 0.17910118E+04</pdfrwt>
<pdfrwt beam="2">  1       -1 0.20352608E+00 0.17910118E+04</pdfrwt>
<totfact> 0.75218471E+00</totfact>
</mgrwt>
</event>
<event>
12    6  0.1529770E-007  0.1921349E+04  0.7818608E-02  0.8644302E-01
          2   -1    0    0  501    0  0.00000000000E+00  0.00000000000E+00  0.72166408312E+03  0.72166408312E+03  0.00000000000E+00 0. -1.
         -1   -1    0    0    0  501 -0.00000000000E+00 -0.00000000000E+00 -0.12788433430E+04  0.12788433430E+04  0.00000000000E+00 0.  1.
         24    2    1    2    0    0  0.51427793666E+03  0.41487666449E+03 -0.53783336934E+03  0.85573504017E+03  0.80082975332E+02 0.  0.
        254    2    1    2    0    0 -0.51427793666E+03 -0.41487666449E+03 -0.19345890568E+02  0.11447723860E+04  0.93462565198E+03 0.  0.
         23    2    4    4    0    0 -0.17844163307E+03  0.16731664512E+03 -0.31103345035E+03  0.40613022637E+03  0.91453143088E+02 0.  0.
         23    2    4    4    0    0 -0.33583630358E+03 -0.58219330961E+03  0.29168755979E+03  0.73864215961E+03  0.93677824753E+02 0.  0.
          2    1    3    3  502    0  0.60391754089E+02  0.82469309691E+02 -0.68096138075E+02  0.12282277893E+03  0.00000000000E+00 0. -1.
         -1    1    3    3    0  502  0.45388618257E+03  0.33240735480E+03 -0.46973723126E+03  0.73291226124E+03  0.00000000000E+00 0.  1.
         11    1    5    5    0    0 -0.14381022594E+03  0.10822879242E+03 -0.27520710353E+03  0.32883704540E+03  0.00000000000E+00 0.  1.
        -11    1    5    5    0    0 -0.34631407134E+02  0.59087852708E+02 -0.35826346825E+02  0.77293180971E+02  0.00000000000E+00 0. -1.
          3    1    6    6  503    0 -0.78179436531E+02 -0.21695708651E+03  0.80196150639E+02  0.24415942386E+03  0.00000000000E+00 0. -1.
         -3    1    6    6    0  503 -0.25765686705E+03 -0.36523622310E+03  0.21149140915E+03  0.49448273574E+03  0.00000000000E+00 0.  1.
<mgrwt>
<rscale>  0 0.19213488E+04</rscale>
<asrwt>0</asrwt>
<pdfrwt beam="1">  1        2 0.11102524E+00 0.19213488E+04</pdfrwt>
<pdfrwt beam="2">  1       -1 0.19674513E+00 0.19213488E+04</pdfrwt>
<totfact> 0.66675582E+00</totfact>
</mgrwt>
</event>
<event>
12    6  0.1529770E-007  0.1545942E+04  0.7818608E-02  0.8854464E-01
         -1   -1    0    0    0  501 -0.00000000000E+00  0.00000000000E+00  0.20136534312E+03  0.20136534312E+03  0.00000000000E+00 0.  1.
          2   -1    0    0  501    0  0.00000000000E+00 -0.00000000000E+00 -0.29671666488E+04  0.29671666488E+04  0.00000000000E+00 0. -1.
         24    2    1    2    0    0 -0.28966123627E+02  0.48964982272E+03 -0.13168370567E+04  0.14074779843E+04  0.79614429004E+02 0.  0.
        254    2    1    2    0    0  0.28966123627E+02 -0.48964982272E+03 -0.14489642490E+04  0.17610540076E+04  0.87247798687E+03 0.  0.
         23    2    4    4    0    0  0.15634401122E+02 -0.56761247045E+03 -0.15182966527E+04  0.16235443987E+04  0.90792829839E+02 0.  0.
         23    2    4    4    0    0  0.13331722505E+02  0.77962647730E+02  0.69332403705E+02  0.13750960886E+03  0.88577655530E+02 0.  0.
          2    1    3    3  502    0 -0.16771373159E+02  0.32322287548E+03 -0.75669981289E+03  0.82301209774E+03  0.00000000000E+00 0. -1.
         -1    1    3    3    0  502 -0.12194750468E+02  0.16642694724E+03 -0.56013724378E+03  0.58446588658E+03  0.00000000000E+00 0.  1.
         11    1    5    5    0    0  0.20138282926E+02 -0.23954004585E+02 -0.77092123237E+02  0.83201804307E+02  0.00000000000E+00 0. -1.
        -11    1    5    5    0    0 -0.45038818041E+01 -0.54365846586E+03 -0.14412045294E+04  0.15403425944E+04  0.00000000000E+00 0.  1.
          1    1    6    6  503    0 -0.51110692991E+01 -0.16601493660E+02  0.27382183498E+02  0.32427096605E+02  0.00000000000E+00 0. -1.
         -1    1    6    6    0  503  0.18442791804E+02  0.94564141390E+02  0.41950220207E+02  0.10508251225E+03  0.00000000000E+00 0.  1.
<mgrwt>
<rscale>  0 0.15459425E+04</rscale>
<asrwt>0</asrwt>
<pdfrwt beam="1">  1        2 0.45648715E+00 0.15459425E+04</pdfrwt>
<pdfrwt beam="2">  1       -1 0.30979285E-01 0.15459425E+04</pdfrwt>
<totfact> 0.19421823E+01</totfact>
</mgrwt>
</event>
<event>
12    6  0.1529770E-007  0.9941448E+03  0.7818608E-02  0.9314990E-01
         -3   -1    0    0    0  501 -0.00000000000E+00  0.00000000000E+00  0.38452207202E+03  0.38452207202E+03  0.00000000000E+00 0.  1.
          4   -1    0    0  501    0  0.00000000000E+00 -0.00000000000E+00 -0.64256638352E+03  0.64256638352E+03  0.00000000000E+00 0. -1.
         24    2    1    2    0    0  0.20609928461E+01  0.42922680446E+02 -0.34880941791E+02  0.98732721388E+02  0.81761029741E+02 0.  0.
        254    2    1    2    0    0 -0.20609928461E+01 -0.42922680446E+02 -0.22316336971E+03  0.92835573416E+03  0.90010881307E+03 0.  0.
         23    2    4    4    0    0 -0.17331432847E+02  0.12190068395E+03 -0.53916862324E+03  0.56072490581E+03  0.92463292110E+02 0.  0.
         23    2    4    4    0    0  0.15270440000E+02 -0.16482336440E+03  0.31600525353E+03  0.36763082835E+03  0.88843558605E+02 0.  0.
          4    1    3    3  502    0  0.20531502901E+02  0.33864392653E+02 -0.56430531960E+02  0.68940152585E+02  0.00000000000E+00 0. -1.
         -3    1    3    3    0  502 -0.18470510055E+02  0.90582877932E+01  0.21549590169E+02  0.29792568803E+02  0.00000000000E+00 0.  1.
         11    1    5    5    0    0  0.96064728409E+01 -0.51824515355E+01 -0.70860136888E+01  0.13013597287E+02  0.00000000000E+00 0.  1.
        -11    1    5    5    0    0 -0.26937905688E+02  0.12708313549E+03 -0.53208260955E+03  0.54771130852E+03  0.00000000000E+00 0. -1.
          1    1    6    6  503    0 -0.20094798321E+02 -0.14277484219E+02  0.93283847659E+02  0.96485873107E+02  0.00000000000E+00 0.  1.
         -1    1    6    6    0  503  0.35365238322E+02 -0.15054588018E+03  0.22272140587E+03  0.27114495524E+03  0.00000000000E+00 0. -1.
<mgrwt>
<rscale>  0 0.99414477E+03</rscale>
<asrwt>0</asrwt>
<pdfrwt beam="1">  1        4 0.98856367E-01 0.99414477E+03</pdfrwt>
<pdfrwt beam="2">  1       -3 0.59157242E-01 0.99414477E+03</pdfrwt>
<totfact> 0.54066738E+00</totfact>
</mgrwt>
</event>
<event>
12    6  0.1529770E-007  0.2685584E+04  0.7818608E-02  0.8339698E-01
         -1   -1    0    0    0  501 -0.00000000000E+00  0.00000000000E+00  0.24205225115E+04  0.24205225115E+04  0.00000000000E+00 0.  1.
          2   -1    0    0  501    0  0.00000000000E+00 -0.00000000000E+00 -0.74491756926E+03  0.74491756926E+03  0.00000000000E+00 0. -1.
         24    2    1    2    0    0  0.19617205709E+03  0.73534519014E+02 -0.63729340963E+03  0.67606728462E+03  0.83864664241E+02 0.  0.
        254    2    1    2    0    0 -0.19617205709E+03 -0.73534519014E+02  0.23128983518E+04  0.24893727961E+04  0.89643032668E+03 0.  0.
         23    2    4    4    0    0  0.15584149862E+03  0.24541943940E+03  0.15946001531E+04  0.16233317070E+04  0.89100554132E+02 0.  0.
         23    2    4    4    0    0 -0.35201355571E+03 -0.31895395841E+03  0.71829819870E+03  0.86604108907E+03  0.91813368910E+02 0.  0.
          4    1    3    3  502    0  0.45049120575E+02  0.33352825124E+02 -0.28748076868E+03  0.29289422420E+03  0.00000000000E+00 0. -1.
         -1    1    3    3    0  502  0.15112293652E+03  0.40181693890E+02 -0.34981264095E+03  0.38317306042E+03  0.00000000000E+00 0.  1.
         11    1    5    5    0    0  0.13515620201E+03  0.14856541406E+03  0.11869955124E+04  0.12038676122E+04  0.00000000000E+00 0.  1.
        -11    1    5    5    0    0  0.20685296608E+02  0.96854025344E+02  0.40760464071E+03  0.41946409483E+03  0.00000000000E+00 0. -1.
          1    1    6    6  503    0 -0.43554099791E+02 -0.66812220254E+02  0.75689166985E+02  0.10995309174E+03  0.00000000000E+00 0. -1.
         -1    1    6    6    0  503 -0.30845945592E+03 -0.25214173816E+03  0.64260903172E+03  0.75608799733E+03  0.00000000000E+00 0.  1.
<mgrwt>
<rscale>  0 0.26855835E+04</rscale>
<asrwt>0</asrwt>
<pdfrwt beam="1">  1        2 0.11460270E+00 0.26855835E+04</pdfrwt>
<pdfrwt beam="2">  1       -1 0.37238808E+00 0.26855835E+04</pdfrwt>
<totfact> 0.41724862E-01</totfact>
</mgrwt>
</event>
<event>
12    6  0.1529770E-007  0.1597355E+04  0.7818608E-02  0.8822174E-01
          2   -1    0    0  501    0  0.00000000000E+00  0.00000000000E+00  0.65092748724E+03  0.65092748724E+03  0.00000000000E+00 0. -1.
         -1   -1    0    0    0  501 -0.00000000000E+00 -0.00000000000E+00 -0.97996497411E+03  0.97996497411E+03  0.00000000000E+00 0.  1.
         24    2    1    2    0    0 -0.30194793837E+03 -0.26384416476E+03  0.26067310545E+03  0.48556543861E+03  0.83886986547E+02 0.  0.
        254    2    1    2    0    0  0.30194793837E+03  0.26384416476E+03 -0.58971059231E+03  0.11453270227E+04  0.89623049800E+03 0.  0.
         23    2    4    4    0    0  0.53948593858E+03  0.40172779717E+03 -0.32234238522E+03  0.75164326557E+03  0.92912240435E+02 0.  0.
         23    2    4    4    0    0 -0.23753800022E+03 -0.13788363242E+03 -0.26736820710E+03  0.39368375716E+03  0.89805037980E+02 0.  0.
          4    1    3    3  502    0 -0.17540113686E+03 -0.20354377122E+03  0.18546116205E+03  0.32648348846E+03  0.00000000000E+00 0. -1.
         -3    1    3    3    0  502 -0.12654680151E+03 -0.60300393542E+02  0.75211943400E+02  0.15908195015E+03  0.00000000000E+00 0.  1.
         11    1    5    5    0    0  0.92136141660E+02  0.35924731379E+02 -0.69545937461E+02  0.12089785913E+03  0.00000000000E+00 0. -1.
        -11    1    5    5    0    0  0.44734979692E+03  0.36580306580E+03 -0.25279644776E+03  0.63074540644E+03  0.00000000000E+00 0.  1.
          4    1    6    6  503    0  0.38519126603E+01  0.36643377567E+01  0.15966558709E+01  0.55510280406E+01  0.00000000000E+00 0. -1.
         -4    1    6    6    0  503 -0.24138991288E+03 -0.14154797017E+03 -0.26896486297E+03  0.38813272912E+03  0.00000000000E+00 0.  1.
<mgrwt>
<rscale>  0 0.15973555E+04</rscale>
<asrwt>0</asrwt>
<pdfrwt beam="1">  1        2 0.10014269E+00 0.15973555E+04</pdfrwt>
<pdfrwt beam="2">  1       -1 0.15076384E+00 0.15973555E+04</pdfrwt>
<totfact> 0.16924197E+01</totfact>
</mgrwt>
</event>
<event>
12    6  0.1529770E-007  0.2532142E+04  0.7818608E-02  0.8391624E-01
          2   -1    0    0  501    0  0.00000000000E+00  0.00000000000E+00  0.17863882542E+04  0.17863882542E+04  0.00000000000E+00 0. -1.
         -1   -1    0    0    0  501 -0.00000000000E+00 -0.00000000000E+00 -0.89730507902E+03  0.89730507902E+03  0.00000000000E+00 0.  1.
         24    2    1    2    0    0 -0.53297855306E+03 -0.96843370098E+03  0.38936919069E+03  0.11745302530E+04  0.77349708587E+02 0.  0.
        254    2    1    2    0    0  0.53297855306E+03  0.96843370098E+03  0.49971398452E+03  0.15091630802E+04  0.89773557640E+03 0.  0.
         23    2    4    4    0    0 -0.64301458214E+02 -0.11491483798E+03 -0.24302059996E+02  0.16274232978E+03  0.92489881969E+02 0.  0.
         23    2    4    4    0    0  0.59728001127E+03  0.10833485390E+04  0.52401604452E+03  0.13464207504E+04  0.88704867594E+02 0.  0.
          2    1    3    3  502    0 -0.95530372273E+02 -0.12852647051E+03  0.39233768588E+02  0.16487690635E+03  0.00000000000E+00 0. -1.
         -1    1    3    3    0  502 -0.43744818078E+03 -0.83990723047E+03  0.35013542210E+03  0.10096533467E+04  0.00000000000E+00 0.  1.
         11    1    5    5    0    0 -0.58896978917E+02 -0.36566393299E+02 -0.43568471121E+02  0.81878977279E+02  0.00000000000E+00 0. -1.
        -11    1    5    5    0    0 -0.54044792965E+01 -0.78348444682E+02  0.19266411125E+02  0.80863352504E+02  0.00000000000E+00 0.  1.
          3    1    6    6  503    0  0.51513708478E+03  0.86297794596E+03  0.42006829406E+03  0.10892908349E+04  0.00000000000E+00 0. -1.
         -3    1    6    6    0  503  0.82142926493E+02  0.22037059300E+03  0.10394775046E+03  0.25712991553E+03  0.00000000000E+00 0.  1.
<mgrwt>
<rscale>  0 0.25321416E+04</rscale>
<asrwt>0</asrwt>
<pdfrwt beam="1">  1        2 0.27482896E+00 0.25321416E+04</pdfrwt>
<pdfrwt beam="2">  1       -1 0.13804694E+00 0.25321416E+04</pdfrwt>
<totfact> 0.38657634E+00</totfact>
</mgrwt>
</event>
<event>
12    6  0.1529770E-007  0.2545851E+04  0.7818608E-02  0.8386830E-01
          2   -1    0    0  501    0  0.00000000000E+00  0.00000000000E+00  0.19317911417E+04  0.19317911417E+04  0.00000000000E+00 0. -1.
         -1   -1    0    0    0  501 -0.00000000000E+00 -0.00000000000E+00 -0.83877590402E+03  0.83877590402E+03  0.00000000000E+00 0.  1.
         24    2    1    2    0    0  0.88282801960E+03  0.63587671924E+03  0.22638859630E+03  0.11144377767E+04  0.83637595547E+02 0.  0.
        254    2    1    2    0    0 -0.88282801960E+03 -0.63587671924E+03  0.86662664137E+03  0.16561292690E+04  0.89888703728E+03 0.  0.
         23    2    4    4    0    0  0.93334062100E+02 -0.19104250855E+03  0.44233004987E+03  0.49879384176E+03  0.89055804628E+02 0.  0.
         23    2    4    4    0    0 -0.97616208170E+03 -0.44483421070E+03  0.42429659150E+03  0.11573354272E+04  0.92885998992E+02 0.  0.
          2    1    3    3  502    0  0.17241552443E+03  0.13037457701E+03  0.79115494946E+02  0.23018232976E+03  0.00000000000E+00 0. -1.
         -1    1    3    3    0  502  0.71041249517E+03  0.50550214223E+03  0.14727310135E+03  0.88425544696E+03  0.00000000000E+00 0.  1.
         11    1    5    5    0    0 -0.87199520126E+01 -0.63633446262E+02  0.16393681839E+03  0.17606968356E+03  0.00000000000E+00 0. -1.
        -11    1    5    5    0    0  0.10205401411E+03 -0.12740906228E+03  0.27839323148E+03  0.32272415820E+03  0.00000000000E+00 0.  1.
          3    1    6    6  503    0 -0.87696095254E+01 -0.95272401075E+01 -0.36413326426E+01  0.13451158266E+02  0.00000000000E+00 0. -1.
         -3    1    6    6    0  503 -0.96739247217E+03 -0.43530697059E+03  0.42793792414E+03  0.11438842690E+04  0.00000000000E+00 0.  1.
<mgrwt>
<rscale>  0 0.25458514E+04</rscale>
<asrwt>0</asrwt>
<pdfrwt beam="1">  1        2 0.29719864E+00 0.25458514E+04</pdfrwt>
<pdfrwt beam="2">  1       -1 0.12904245E+00 0.25458514E+04</pdfrwt>
<totfact> 0.38089807E+00</totfact>
</mgrwt>
</event>
<event>
12    6  0.1529770E-007  0.1341499E+04  0.7818608E-02  0.8997289E-01
          2   -1    0    0  501    0  0.00000000000E+00  0.00000000000E+00  0.11637550665E+04  0.11637550665E+04  0.00000000000E+00 0. -1.
         -1   -1    0    0    0  501 -0.00000000000E+00 -0.00000000000E+00 -0.38659738793E+03  0.38659738793E+03  0.00000000000E+00 0.  1.
         24    2    1    2    0    0  0.20164694209E+03  0.16365175363E+03  0.52175088905E+03  0.58820318400E+03  0.79470810517E+02 0.  0.
        254    2    1    2    0    0 -0.20164694209E+03 -0.16365175363E+03  0.25540678953E+03  0.96214927043E+03  0.89053647019E+03 0.  0.
         23    2    4    4    0    0  0.17970805511E+03 -0.23495426349E+02 -0.24070276038E+03  0.31423153739E+03  0.89199888457E+02 0.  0.
         23    2    4    4    0    0 -0.38135499720E+03 -0.14015632728E+03  0.49610954991E+03  0.64791773304E+03  0.92721482501E+02 0.  0.
          2    1    3    3  502    0  0.18464268602E+03  0.13146514741E+03  0.38573977596E+03  0.44740494101E+03  0.00000000000E+00 0. -1.
         -1    1    3    3    0  502  0.17004256065E+02  0.32186606219E+02  0.13601111309E+03  0.14079824299E+03  0.00000000000E+00 0.  1.
         11    1    5    5    0    0  0.79021516944E+02  0.33767784233E+02 -0.11003476768E+03  0.13961487560E+03  0.00000000000E+00 0.  1.
        -11    1    5    5    0    0  0.10068653817E+03 -0.57263210581E+02 -0.13066799271E+03  0.17461666179E+03  0.00000000000E+00 0. -1.
          1    1    6    6  503    0  0.44770009790E+01 -0.27892514193E+01  0.16037589362E+02  0.16882764400E+02  0.00000000000E+00 0. -1.
         -1    1    6    6    0  503 -0.38583199818E+03 -0.13736707586E+03  0.48007196055E+03  0.63103496864E+03  0.00000000000E+00 0.  1.
<mgrwt>
<rscale>  0 0.13414987E+04</rscale>
<asrwt>0</asrwt>
<pdfrwt beam="1">  1        2 0.17903924E+00 0.13414987E+04</pdfrwt>
<pdfrwt beam="2">  1       -1 0.59476522E-01 0.13414987E+04</pdfrwt>
<totfact> 0.63607468E+01</totfact>
</mgrwt>
</event>
<event>
12    6  0.1529770E-007  0.2788710E+04  0.7818608E-02  0.8306782E-01
          2   -1    0    0  501    0  0.00000000000E+00  0.00000000000E+00  0.27556543902E+04  0.27556543902E+04  0.00000000000E+00 0. -1.
         -1   -1    0    0    0  501 -0.00000000000E+00 -0.00000000000E+00 -0.70554076826E+03  0.70554076826E+03  0.00000000000E+00 0.  1.
         24    2    1    2    0    0 -0.36373132889E+03 -0.56266182431E+03  0.22268472815E+04  0.23267571747E+04  0.77854520889E+02 0.  0.
        254    2    1    2    0    0  0.36373132889E+03  0.56266182431E+03 -0.17673365963E+03  0.11344379838E+04  0.89823490491E+03 0.  0.
         23    2    4    4    0    0  0.46738748475E+03  0.16280445807E+03 -0.41194921938E+03  0.65033857773E+03  0.91004141972E+02 0.  0.
         23    2    4    4    0    0 -0.10365615587E+03  0.39985736624E+03  0.23521555975E+03  0.48409940603E+03  0.91626215602E+02 0.  0.
          2    1    3    3  502    0 -0.34096386173E+03 -0.50964267420E+03  0.19572074609E+04  0.20510126902E+04  0.00000000000E+00 0. -1.
         -1    1    3    3    0  502 -0.22767467157E+02 -0.53019150109E+02  0.26963982061E+03  0.27574448443E+03  0.00000000000E+00 0.  1.
         11    1    5    5    0    0  0.25256925804E+03  0.48370550966E+02 -0.24502689685E+03  0.35520292860E+03  0.00000000000E+00 0. -1.
        -11    1    5    5    0    0  0.21481822671E+03  0.11443390711E+03 -0.16692232254E+03  0.29513564913E+03  0.00000000000E+00 0.  1.
          3    1    6    6  503    0 -0.46451597330E+02  0.27967612978E+03  0.11924976119E+03  0.30756624328E+03  0.00000000000E+00 0. -1.
         -3    1    6    6    0  503 -0.57204558536E+02  0.12018123646E+03  0.11596579856E+03  0.17653316275E+03  0.00000000000E+00 0.  1.
<mgrwt>
<rscale>  0 0.27887105E+04</rscale>
<asrwt>0</asrwt>
<pdfrwt beam="1">  1        2 0.42394682E+00 0.27887105E+04</pdfrwt>
<pdfrwt beam="2">  1       -1 0.10854473E+00 0.27887105E+04</pdfrwt>
<totfact> 0.19169003E+00</totfact>
</mgrwt>
</event>
<event>
12    6  0.1529770E-007  0.1357617E+04  0.7818608E-02  0.8985082E-01
          4   -1    0    0  501    0  0.00000000000E+00  0.00000000000E+00  0.17473152740E+04  0.17473152740E+04  0.00000000000E+00 0. -1.
         -3   -1    0    0    0  501 -0.00000000000E+00 -0.00000000000E+00 -0.26370783302E+03  0.26370783302E+03  0.00000000000E+00 0.  1.
         24    2    1    2    0    0 -0.17759908354E+03 -0.33264032642E+03  0.35158512299E+03  0.52171802266E+03  0.79916051092E+02 0.  0.
        254    2    1    2    0    0  0.17759908354E+03  0.33264032642E+03  0.11320223180E+04  0.14893050843E+04  0.89127105002E+03 0.  0.
         23    2    4    4    0    0  0.21558438236E+03  0.14160396232E+03  0.12240434895E+04  0.12542049349E+04  0.90660060999E+02 0.  0.
         23    2    4    4    0    0 -0.37985298818E+02  0.19103636410E+03 -0.92021171518E+02  0.23510014938E+03  0.94161610510E+02 0.  0.
          4    1    3    3  502    0 -0.34495159125E+02 -0.99938556463E+02  0.14385080392E+03  0.17852362550E+03  0.00000000000E+00 0. -1.
         -1    1    3    3    0  502 -0.14310392442E+03 -0.23270176996E+03  0.20773431907E+03  0.34319439716E+03  0.00000000000E+00 0.  1.
         11    1    5    5    0    0  0.11692301998E+03  0.97251168483E+02  0.89521401179E+03  0.90804014739E+03  0.00000000000E+00 0. -1.
        -11    1    5    5    0    0  0.98661362386E+02  0.44352793837E+02  0.32882947768E+03  0.34616478755E+03  0.00000000000E+00 0.  1.
          2    1    6    6  503    0  0.18481419826E+02  0.26975579813E+02  0.95305567420E+01  0.34059892790E+02  0.00000000000E+00 0. -1.
         -2    1    6    6    0  503 -0.56466718644E+02  0.16406078429E+03 -0.10155172826E+03  0.20104025659E+03  0.00000000000E+00 0.  1.
<mgrwt>
<rscale>  0 0.13576166E+04</rscale>
<asrwt>0</asrwt>
<pdfrwt beam="1">  1        4 0.26881773E+00 0.13576166E+04</pdfrwt>
<pdfrwt beam="2">  1       -3 0.40570437E-01 0.13576166E+04</pdfrwt>
<totfact> 0.65418949E-01</totfact>
</mgrwt>
</event>
<event>
12    6  0.1529770E-007  0.2520745E+04  0.7818608E-02  0.8395632E-01
         -1   -1    0    0    0  501 -0.00000000000E+00  0.00000000000E+00  0.78627151420E+03  0.78627151420E+03  0.00000000000E+00 0.  1.
          2   -1    0    0  501    0  0.00000000000E+00 -0.00000000000E+00 -0.20203443267E+04  0.20203443267E+04  0.00000000000E+00 0. -1.
         24    2    1    2    0    0  0.44138456835E+03 -0.71211629527E+03  0.22354265490E+03  0.87082373137E+03  0.80204098426E+02 0.  0.
        254    2    1    2    0    0 -0.44138456835E+03  0.71211629527E+03 -0.14576154674E+04  0.19357921095E+04  0.95954066371E+03 0.  0.
         23    2    4    4    0    0  0.29053618715E+03  0.22364342436E+03 -0.32250726167E+03  0.49668479780E+03  0.90869121457E+02 0.  0.
         23    2    4    4    0    0 -0.73192075549E+03  0.48847287090E+03 -0.11351082057E+04  0.14391073117E+04  0.90804614439E+02 0.  0.
          2    1    3    3  502    0  0.36513681444E+03 -0.54865342091E+03  0.20118212969E+03  0.68907163550E+03  0.00000000000E+00 0. -1.
         -1    1    3    3    0  502  0.76247753901E+02 -0.16346287435E+03  0.22360525208E+02  0.18175209587E+03  0.00000000000E+00 0.  1.
         11    1    5    5    0    0  0.24064392599E+03  0.19996559172E+03 -0.30918223357E+03  0.43987428948E+03  0.00000000000E+00 0.  1.
        -11    1    5    5    0    0  0.49892261154E+02  0.23677832637E+02 -0.13325028095E+02  0.56810508317E+02  0.00000000000E+00 0. -1.
          1    1    6    6  503    0 -0.42172582604E+03  0.24776119993E+03 -0.57170735969E+03  0.75238792499E+03  0.00000000000E+00 0. -1.
         -1    1    6    6    0  503 -0.31019492945E+03  0.24071167097E+03 -0.56340084602E+03  0.68671938671E+03  0.00000000000E+00 0.  1.
<mgrwt>
<rscale>  0 0.25207453E+04</rscale>
<asrwt>0</asrwt>
<pdfrwt beam="1">  1        2 0.31082221E+00 0.25207453E+04</pdfrwt>
<pdfrwt beam="2">  1       -1 0.12096485E+00 0.25207453E+04</pdfrwt>
<totfact> 0.40026117E+00</totfact>
</mgrwt>
</event>
<event>
12    6  0.1529770E-007  0.2009288E+04  0.7818608E-02  0.8602291E-01
          2   -1    0    0  501    0  0.00000000000E+00  0.00000000000E+00  0.18681323695E+04  0.18681323695E+04  0.00000000000E+00 0. -1.
         -1   -1    0    0    0  501 -0.00000000000E+00 -0.00000000000E+00 -0.54027717142E+03  0.54027717142E+03  0.00000000000E+00 0.  1.
         24    2    1    2    0    0  0.27734523583E+03 -0.44637366025E+03 -0.19523154558E+03  0.56629536059E+03  0.80032834712E+02 0.  0.
        254    2    1    2    0    0 -0.27734523583E+03  0.44637366025E+03  0.15230867437E+04  0.18421141803E+04  0.89298465846E+03 0.  0.
         23    2    4    4    0    0 -0.53359316172E+03  0.36352185182E+02  0.79472991814E+03  0.96318937481E+03  0.10047380432E+03 0.  0.
         23    2    4    4    0    0  0.25624792589E+03  0.41002147507E+03  0.72835682552E+03  0.87892480552E+03  0.90689243732E+02 0.  0.
          4    1    3    3  502    0  0.17079636103E+03 -0.22473928269E+03 -0.13608965422E+03  0.31336805215E+03  0.00000000000E+00 0. -1.
         -3    1    3    3    0  502  0.10654887480E+03 -0.22163437757E+03 -0.59141891358E+02  0.25292730844E+03  0.00000000000E+00 0.  1.
         11    1    5    5    0    0 -0.17132391334E+03  0.57557077480E+02  0.28512357102E+03  0.33757984419E+03  0.00000000000E+00 0.  1.
        -11    1    5    5    0    0 -0.36226924838E+03 -0.21204892298E+02  0.50960634711E+03  0.62560953062E+03  0.00000000000E+00 0. -1.
          2    1    6    6  503    0  0.15413946127E+03  0.27888904050E+03  0.40472065406E+03  0.51510860821E+03  0.00000000000E+00 0. -1.
         -2    1    6    6    0  503  0.10210846463E+03  0.13113243457E+03  0.32363617147E+03  0.36381619731E+03  0.00000000000E+00 0.  1.
<mgrwt>
<rscale>  0 0.20092877E+04</rscale>
<asrwt>0</asrwt>
<pdfrwt beam="1">  1        2 0.28740498E+00 0.20092877E+04</pdfrwt>
<pdfrwt beam="2">  1       -1 0.83119566E-01 0.20092877E+04</pdfrwt>
<totfact> 0.12014046E+01</totfact>
</mgrwt>
</event>
<event>
12    6  0.1529770E-007  0.2983033E+04  0.7818608E-02  0.8248592E-01
          2   -1    0    0  501    0  0.00000000000E+00  0.00000000000E+00  0.88726333895E+03  0.88726333895E+03  0.00000000000E+00 0. -1.
         -1   -1    0    0    0  501 -0.00000000000E+00 -0.00000000000E+00 -0.25072847662E+04  0.25072847662E+04  0.00000000000E+00 0.  1.
         24    2    1    2    0    0 -0.12533764107E+04  0.45162997315E+03 -0.47244252273E+03  0.14157862077E+04  0.79539858336E+02 0.  0.
        254    2    1    2    0    0  0.12533764107E+04 -0.45162997315E+03 -0.11475789046E+04  0.19787618975E+04  0.90754572611E+03 0.  0.
         23    2    4    4    0    0  0.70929610485E+03 -0.37983185087E+03 -0.13232242786E+03  0.82066328140E+03  0.92767436256E+02 0.  0.
         23    2    4    4    0    0  0.54408030590E+03 -0.71798122277E+02 -0.10152564767E+04  0.11580986161E+04  0.96272225529E+02 0.  0.
          2    1    3    3  502    0 -0.11393094813E+04  0.38635236585E+03 -0.41904649465E+03  0.12739286516E+04  0.00000000000E+00 0. -1.
         -1    1    3    3    0  502 -0.11406692946E+03  0.65277607298E+02 -0.53396028075E+02  0.14185755611E+03  0.00000000000E+00 0.  1.
         11    1    5    5    0    0  0.62217117697E+03 -0.36562209249E+03 -0.11824784221E+03  0.73127220661E+03  0.00000000000E+00 0. -1.
        -11    1    5    5    0    0  0.87124927874E+02 -0.14209758383E+02 -0.14074585647E+02  0.89391074787E+02  0.00000000000E+00 0.  1.
          1    1    6    6  503    0  0.24602636184E+03  0.46291360682E+01 -0.38824518449E+03  0.45965717975E+03  0.00000000000E+00 0. -1.
         -1    1    6    6    0  503  0.29805394406E+03 -0.76427258345E+02 -0.62701129223E+03  0.69844143632E+03  0.00000000000E+00 0.  1.
<mgrwt>
<rscale>  0 0.29830333E+04</rscale>
<asrwt>0</asrwt>
<pdfrwt beam="1">  1        2 0.13650205E+00 0.29830333E+04</pdfrwt>
<pdfrwt beam="2">  1       -1 0.38573612E+00 0.29830333E+04</pdfrwt>
<totfact> 0.26135695E-01</totfact>
</mgrwt>
</event>
<event>
12    6  0.1529770E-007  0.1383586E+04  0.7818608E-02  0.8965786E-01
         -3   -1    0    0    0  501 -0.00000000000E+00  0.00000000000E+00  0.56419703309E+03  0.56419703309E+03  0.00000000000E+00 0.  1.
          2   -1    0    0  501    0  0.00000000000E+00 -0.00000000000E+00 -0.84824526530E+03  0.84824526530E+03  0.00000000000E+00 0. -1.
         24    2    1    2    0    0  0.35907365924E+03  0.12652021995E+03 -0.68839116368E+00  0.38881504681E+03  0.78964599217E+02 0.  0.
        254    2    1    2    0    0 -0.35907365924E+03 -0.12652021995E+03 -0.28335984105E+03  0.10236272516E+04  0.90696124054E+03 0.  0.
         23    2    4    4    0    0 -0.37421341449E+03  0.78954542225E+02 -0.54796675267E+03  0.67458365170E+03  0.92336567973E+02 0.  0.
         23    2    4    4    0    0  0.15139755252E+02 -0.20547476218E+03  0.26460691162E+03  0.34904359989E+03  0.96775652227E+02 0.  0.
          2    1    3    3  502    0  0.65829391233E+01 -0.39388406384E+01  0.10244031553E+02  0.12798036394E+02  0.00000000000E+00 0. -1.
         -1    1    3    3    0  502  0.35249072012E+03  0.13045906059E+03 -0.10932422717E+02  0.37601701042E+03  0.00000000000E+00 0.  1.
         11    1    5    5    0    0 -0.30826761795E+03  0.93267692731E+02 -0.41343927843E+03  0.52407997837E+03  0.00000000000E+00 0.  1.
        -11    1    5    5    0    0 -0.65945796539E+02 -0.14313150506E+02 -0.13452747424E+03  0.15050367332E+03  0.00000000000E+00 0. -1.
          3    1    6    6  503    0 -0.14360929524E+02 -0.41250283475E+02  0.12189169435E+03  0.12948130110E+03  0.00000000000E+00 0. -1.
         -3    1    6    6    0  503  0.29500684776E+02 -0.16422447870E+03  0.14271521727E+03  0.21956229878E+03  0.00000000000E+00 0.  1.
<mgrwt>
<rscale>  0 0.13835859E+04</rscale>
<asrwt>0</asrwt>
<pdfrwt beam="1">  1        2 0.13049927E+00 0.13835859E+04</pdfrwt>
<pdfrwt beam="2">  1       -3 0.86799544E-01 0.13835859E+04</pdfrwt>
<totfact> 0.23790476E+01</totfact>
</mgrwt>
</event>
<event>
12    6  0.1529770E-007  0.1617711E+04  0.7818608E-02  0.8809741E-01
         -1   -1    0    0    0  501 -0.00000000000E+00  0.00000000000E+00  0.41119089883E+03  0.41119089883E+03  0.00000000000E+00 0.  1.
          2   -1    0    0  501    0  0.00000000000E+00 -0.00000000000E+00 -0.15911027522E+04  0.15911027522E+04  0.00000000000E+00 0. -1.
         24    2    1    2    0    0 -0.52468663809E+03 -0.81479475544E+01 -0.62900195679E+03  0.82301546884E+03  0.79677745058E+02 0.  0.
        254    2    1    2    0    0  0.52468663809E+03  0.81479475544E+01 -0.55090989652E+03  0.11792781821E+04  0.90101767993E+03 0.  0.
         23    2    4    4    0    0  0.58340898722E+03 -0.30899159328E+03 -0.20711149002E+03  0.69775458673E+03  0.90135691707E+02 0.  0.
         23    2    4    4    0    0 -0.58722349129E+02  0.31713954083E+03 -0.34379840651E+03  0.48152359541E+03  0.98192800025E+02 0.  0.
          2    1    3    3  502    0 -0.35701694010E+03 -0.95330474655E+01 -0.48288343473E+03  0.60060668166E+03  0.00000000000E+00 0. -1.
         -1    1    3    3    0  502 -0.16766969799E+03  0.13850999111E+01 -0.14611852206E+03  0.22240878718E+03  0.00000000000E+00 0.  1.
         11    1    5    5    0    0  0.43011401791E+03 -0.27061446747E+03 -0.16356250210E+03  0.53383794405E+03  0.00000000000E+00 0. -1.
        -11    1    5    5    0    0  0.15329496931E+03 -0.38377125807E+02 -0.43548987914E+02  0.16391664268E+03  0.00000000000E+00 0.  1.
          1    1    6    6  503    0 -0.74465378044E+02  0.31054122975E+03 -0.33270640121E+03  0.46116645293E+03  0.00000000000E+00 0. -1.
         -1    1    6    6    0  503  0.15743028915E+02  0.65983110790E+01 -0.11092005300E+02  0.20357142483E+02  0.00000000000E+00 0.  1.
<mgrwt>
<rscale>  0 0.16177107E+04</rscale>
<asrwt>0</asrwt>
<pdfrwt beam="1">  1        2 0.24478504E+00 0.16177107E+04</pdfrwt>
<pdfrwt beam="2">  1       -1 0.63260139E-01 0.16177107E+04</pdfrwt>
<totfact> 0.31192576E+01</totfact>
</mgrwt>
</event>
<event>
12    6  0.1529770E-007  0.2981857E+04  0.7818608E-02  0.8248931E-01
          2   -1    0    0  501    0  0.00000000000E+00  0.00000000000E+00  0.25445410880E+04  0.25445410880E+04  0.00000000000E+00 0. -1.
         -1   -1    0    0    0  501 -0.00000000000E+00 -0.00000000000E+00 -0.87358288889E+03  0.87358288889E+03  0.00000000000E+00 0.  1.
         24    2    1    2    0    0  0.20948467230E+03 -0.74734161158E+03  0.20332767001E+04  0.21777913386E+04  0.78470776928E+02 0.  0.
        254    2    1    2    0    0 -0.20948467230E+03  0.74734161158E+03 -0.36231850098E+03  0.12403326383E+04  0.89707694500E+03 0.  0.
         23    2    4    4    0    0  0.21598603744E+03  0.14926161210E+03  0.17318185059E+03  0.32718426746E+03  0.90158717192E+02 0.  0.
         23    2    4    4    0    0 -0.42547070974E+03  0.59807999948E+03 -0.53550035158E+03  0.91314837088E+03  0.91401914999E+02 0.  0.
          4    1    3    3  502    0  0.11446684912E+03 -0.53911368685E+03  0.14515100790E+04  0.15526196367E+04  0.00000000000E+00 0. -1.
         -3    1    3    3    0  502  0.95017823179E+02 -0.20822792472E+03  0.58176662113E+03  0.62517170187E+03  0.00000000000E+00 0.  1.
         11    1    5    5    0    0  0.11043064779E+03  0.10156488336E+03  0.14349694849E+03  0.20760955596E+03  0.00000000000E+00 0.  1.
        -11    1    5    5    0    0  0.10555538966E+03  0.47696728738E+02  0.29684902107E+02  0.11957471150E+03  0.00000000000E+00 0. -1.
          1    1    6    6  503    0 -0.29433168667E+03  0.44642886776E+03 -0.43255688795E+03  0.68777564442E+03  0.00000000000E+00 0. -1.
         -1    1    6    6    0  503 -0.13113902308E+03  0.15165113173E+03 -0.10294346362E+03  0.22537272646E+03  0.00000000000E+00 0.  1.
<mgrwt>
<rscale>  0 0.29818568E+04</rscale>
<asrwt>0</asrwt>
<pdfrwt beam="1">  1        2 0.39146786E+00 0.29818568E+04</pdfrwt>
<pdfrwt beam="2">  1       -1 0.13439737E+00 0.29818568E+04</pdfrwt>
<totfact> 0.14885819E+00</totfact>
</mgrwt>
</event>
<event>
12    6  0.1529770E-007  0.3838482E+04  0.7818608E-02  0.8037947E-01
         -1   -1    0    0    0  501 -0.00000000000E+00  0.00000000000E+00  0.79810710703E+03  0.79810710703E+03  0.00000000000E+00 0.  1.
          2   -1    0    0  501    0  0.00000000000E+00 -0.00000000000E+00 -0.46152771866E+04  0.46152771866E+04  0.00000000000E+00 0. -1.
         24    2    1    2    0    0 -0.62874697536E+03 -0.37777902824E+03  0.53324700446E+03  0.91028862404E+03  0.78950985334E+02 0.  0.
        254    2    1    2    0    0  0.62874697536E+03  0.37777902824E+03 -0.43504170840E+04  0.45030956696E+04  0.90205435052E+03 0.  0.
         23    2    4    4    0    0  0.35503029192E+03 -0.15809622547E+03 -0.29394788094E+04  0.29665091074E+04  0.92734506697E+02 0.  0.
         23    2    4    4    0    0  0.27371668344E+03  0.53587525371E+03 -0.14109382746E+04  0.15365865622E+04  0.90930401619E+02 0.  0.
          4    1    3    3  502    0 -0.54164796306E+03 -0.29936088134E+03  0.42500695477E+03  0.75075319831E+03  0.00000000000E+00 0. -1.
         -3    1    3    3    0  502 -0.87099012300E+02 -0.78418146900E+02  0.10824004968E+03  0.15953542573E+03  0.00000000000E+00 0.  1.
         11    1    5    5    0    0  0.22702057139E+03 -0.14397886432E+03 -0.21190094244E+04  0.21359937251E+04  0.00000000000E+00 0. -1.
        -11    1    5    5    0    0  0.12800972053E+03 -0.14117361145E+02 -0.82046938500E+03  0.83051538225E+03  0.00000000000E+00 0.  1.
          1    1    6    6  503    0  0.27958729272E+03  0.52738919897E+03 -0.13704656900E+04  0.14948192630E+04  0.00000000000E+00 0. -1.
         -1    1    6    6    0  503 -0.58706092751E+01  0.84860547399E+01 -0.40472584604E+02  0.41767299204E+02  0.00000000000E+00 0.  1.
<mgrwt>
<rscale>  0 0.38384817E+04</rscale>
<asrwt>0</asrwt>
<pdfrwt beam="1">  1        2 0.71004265E+00 0.38384817E+04</pdfrwt>
<pdfrwt beam="2">  1       -1 0.12278571E+00 0.38384817E+04</pdfrwt>
<totfact> 0.49619805E-02</totfact>
</mgrwt>
</event>
<event>
12    6  0.1529770E-007  0.1458227E+04  0.7818608E-02  0.8912717E-01
         -1   -1    0    0    0  501 -0.00000000000E+00  0.00000000000E+00  0.44896519491E+03  0.44896519491E+03  0.00000000000E+00 0.  1.
          2   -1    0    0  501    0  0.00000000000E+00 -0.00000000000E+00 -0.11840702953E+04  0.11840702953E+04  0.00000000000E+00 0. -1.
         24    2    1    2    0    0 -0.15140761518E+02 -0.18456479541E+03 -0.68610723573E+03  0.71501371013E+03  0.78791245646E+02 0.  0.
        254    2    1    2    0    0  0.15140761518E+02  0.18456479541E+03 -0.48997864697E+02  0.91802178011E+03  0.89781389588E+03 0.  0.
         23    2    4    4    0    0  0.12559014741E+03 -0.31192946294E+03 -0.16868677062E+03  0.38767472377E+03  0.93614047512E+02 0.  0.
         23    2    4    4    0    0 -0.11044938589E+03  0.49649425835E+03  0.11968890593E+03  0.53034705634E+03  0.90757647346E+02 0.  0.
          4    1    3    3  502    0 -0.18067050278E+02 -0.18564115312E+03 -0.58836033319E+03  0.61721709124E+03  0.00000000000E+00 0. -1.
         -3    1    3    3    0  502  0.29262887605E+01  0.10763577121E+01 -0.97746902540E+02  0.97796618899E+02  0.00000000000E+00 0.  1.
         11    1    5    5    0    0  0.80535011508E+02 -0.25567465880E+03 -0.94463101566E+02  0.28421593338E+03  0.00000000000E+00 0.  1.
        -11    1    5    5    0    0  0.45055135904E+02 -0.56254804133E+02 -0.74223669057E+02  0.10345879038E+03  0.00000000000E+00 0. -1.
          2    1    6    6  503    0 -0.71156249345E+02  0.15614302789E+03  0.15736888000E+02  0.17231223585E+03  0.00000000000E+00 0. -1.
         -2    1    6    6    0  503 -0.39293136548E+02  0.34035123046E+03  0.10395201793E+03  0.35803482049E+03  0.00000000000E+00 0.  1.
<mgrwt>
<rscale>  0 0.14582268E+04</rscale>
<asrwt>0</asrwt>
<pdfrwt beam="1">  1        2 0.18216466E+00 0.14582268E+04</pdfrwt>
<pdfrwt beam="2">  1       -1 0.69071568E-01 0.14582268E+04</pdfrwt>
<totfact> 0.45380502E+01</totfact>
</mgrwt>
</event>
<event>
12    6  0.1529770E-007  0.1360412E+04  0.7818608E-02  0.8982983E-01
          2   -1    0    0  501    0  0.00000000000E+00  0.00000000000E+00  0.16048990262E+04  0.16048990262E+04  0.00000000000E+00 0. -1.
         -1   -1    0    0    0  501 -0.00000000000E+00 -0.00000000000E+00 -0.28829248528E+03  0.28829248528E+03  0.00000000000E+00 0.  1.
         24    2    1    2    0    0 -0.14034816461E+03  0.10925696238E+03  0.82427047551E+03  0.84709794370E+03  0.80736722045E+02 0.  0.
        254    2    1    2    0    0  0.14034816461E+03 -0.10925696238E+03  0.49233606537E+03  0.10460935677E+04  0.90569435245E+03 0.  0.
         23    2    4    4    0    0 -0.37006907709E+03 -0.12554617737E+03  0.25508891065E+03  0.47562151466E+03  0.91828690485E+02 0.  0.
         23    2    4    4    0    0  0.51041724171E+03  0.16289214986E+02  0.23724715472E+03  0.57047205308E+03  0.91438787009E+02 0.  0.
          4    1    3    3  502    0 -0.12845578273E+03  0.12246926884E+03  0.74242441697E+03  0.76334371343E+03  0.00000000000E+00 0. -1.
         -3    1    3    3    0  502 -0.11892381887E+02 -0.13212306463E+02  0.81846058545E+02  0.83754230271E+02  0.00000000000E+00 0.  1.
         11    1    5    5    0    0 -0.36299131229E+03 -0.10471462668E+03  0.25005719746E+03  0.45305236766E+03  0.00000000000E+00 0. -1.
        -11    1    5    5    0    0 -0.70777648001E+01 -0.20831550687E+02  0.50317131936E+01  0.22569146999E+02  0.00000000000E+00 0.  1.
          1    1    6    6  503    0  0.43837108593E+03  0.38820834919E+02  0.22406141763E+03  0.49384186241E+03  0.00000000000E+00 0. -1.
         -1    1    6    6    0  503  0.72046155782E+02 -0.22531619933E+02  0.13185737087E+02  0.76630190672E+02  0.00000000000E+00 0.  1.
<mgrwt>
<rscale>  0 0.13604122E+04</rscale>
<asrwt>0</asrwt>
<pdfrwt beam="1">  1        2 0.24690754E+00 0.13604122E+04</pdfrwt>
<pdfrwt beam="2">  1       -1 0.44352691E-01 0.13604122E+04</pdfrwt>
<totfact> 0.62000789E+01</totfact>
</mgrwt>
</event>
<event>
12    6  0.1529770E-007  0.1978545E+04  0.7818608E-02  0.8616718E-01
         -1   -1    0    0    0  501 -0.00000000000E+00  0.00000000000E+00  0.10653967197E+04  0.10653967197E+04  0.00000000000E+00 0.  1.
          2   -1    0    0  501    0  0.00000000000E+00 -0.00000000000E+00 -0.91858758711E+03  0.91858758711E+03  0.00000000000E+00 0. -1.
         24    2    1    2    0    0  0.31809440267E+03 -0.53064841391E+03 -0.42157272004E+03  0.75289035661E+03  0.79677742114E+02 0.  0.
        254    2    1    2    0    0 -0.31809440267E+03  0.53064841391E+03  0.56838185268E+03  0.12310939503E+04  0.89986809905E+03 0.  0.
         23    2    4    4    0    0 -0.42699220292E+03 -0.91896683232E+02  0.16608975750E+03  0.47629595198E+03  0.92220846777E+02 0.  0.
         23    2    4    4    0    0  0.10889780025E+03  0.62254509715E+03  0.40229209518E+03  0.75479799827E+03  0.91978037991E+02 0.  0.
          2    1    3    3  502    0  0.22823301330E+03 -0.40885016918E+03 -0.35468471565E+03  0.58740958173E+03  0.00000000000E+00 0. -1.
         -1    1    3    3    0  502  0.89861389376E+02 -0.12179824474E+03 -0.66888004384E+02  0.16548077487E+03  0.00000000000E+00 0.  1.
         11    1    5    5    0    0 -0.20218754634E+03 -0.64481008606E+02  0.36397494700E+02  0.21531925595E+03  0.00000000000E+00 0.  1.
        -11    1    5    5    0    0 -0.22480465659E+03 -0.27415674627E+02  0.12969226280E+03  0.26097669603E+03  0.00000000000E+00 0. -1.
          4    1    6    6  503    0  0.48887365716E+02  0.47975529330E+03  0.28159425679E+03  0.55843570931E+03  0.00000000000E+00 0. -1.
         -4    1    6    6    0  503  0.60010434531E+02  0.14278980385E+03  0.12069783838E+03  0.19636228896E+03  0.00000000000E+00 0.  1.
<mgrwt>
<rscale>  0 0.19785451E+04</rscale>
<asrwt>0</asrwt>
<pdfrwt beam="1">  1        2 0.14132117E+00 0.19785451E+04</pdfrwt>
<pdfrwt beam="2">  1       -1 0.16390719E+00 0.19785451E+04</pdfrwt>
<totfact> 0.82605889E+00</totfact>
</mgrwt>
</event>
<event>
12    6  0.1529770E-007  0.3162709E+04  0.7818608E-02  0.8198736E-01
          2   -1    0    0  501    0  0.00000000000E+00  0.00000000000E+00  0.24411281527E+04  0.24411281527E+04  0.00000000000E+00 0. -1.
         -1   -1    0    0    0  501 -0.00000000000E+00 -0.00000000000E+00 -0.10243961849E+04  0.10243961849E+04  0.00000000000E+00 0.  1.
         24    2    1    2    0    0  0.10881783885E+04  0.54684528606E+03  0.15185652482E+04  0.19482046400E+04  0.79302799144E+02 0.  0.
        254    2    1    2    0    0 -0.10881783885E+04 -0.54684528606E+03 -0.10183328040E+03  0.15173196977E+04  0.89928698193E+03 0.  0.
         23    2    4    4    0    0 -0.11715117338E+04 -0.29040045099E+03  0.16998627420E+02  0.12105000510E+04  0.90825413501E+02 0.  0.
         23    2    4    4    0    0  0.83333345311E+02 -0.25644483507E+03 -0.11883190782E+03  0.30681964667E+03  0.85491949293E+02 0.  0.
          4    1    3    3  502    0  0.94915923599E+03  0.48748091357E+03  0.13670764432E+04  0.17341969029E+04  0.00000000000E+00 0. -1.
         -3    1    3    3    0  502  0.13901915253E+03  0.59364372488E+02  0.15148880501E+03  0.21400773709E+03  0.00000000000E+00 0.  1.
         11    1    5    5    0    0 -0.58758044940E+02 -0.34634696250E+02 -0.62709785948E+01  0.68493760315E+02  0.00000000000E+00 0. -1.
        -11    1    5    5    0    0 -0.11127536889E+04 -0.25576575474E+03  0.23269606015E+02  0.11420062907E+04  0.00000000000E+00 0.  1.
          1    1    6    6  503    0  0.24705786802E+02 -0.19679291306E+03 -0.94585446469E+02  0.21973673616E+03  0.00000000000E+00 0. -1.
         -1    1    6    6    0  503  0.58627558509E+02 -0.59651922004E+02 -0.24246461352E+02  0.87082910514E+02  0.00000000000E+00 0.  1.
<mgrwt>
<rscale>  0 0.31627092E+04</rscale>
<asrwt>0</asrwt>
<pdfrwt beam="1">  1        2 0.37555818E+00 0.31627092E+04</pdfrwt>
<pdfrwt beam="2">  1       -1 0.15759941E+00 0.31627092E+04</pdfrwt>
<totfact> 0.11014702E+00</totfact>
</mgrwt>
</event>
<event>
12    6  0.1529770E-007  0.1290159E+04  0.7818608E-02  0.9037406E-01
         -1   -1    0    0    0  501 -0.00000000000E+00  0.00000000000E+00  0.30598003778E+03  0.30598003778E+03  0.00000000000E+00 0.  1.
          2   -1    0    0  501    0  0.00000000000E+00 -0.00000000000E+00 -0.13599821784E+04  0.13599821784E+04  0.00000000000E+00 0. -1.
         24    2    1    2    0    0 -0.20704912105E+03 -0.26403787391E+03 -0.24940560382E+03  0.42611260126E+03  0.82361740804E+02 0.  0.
        254    2    1    2    0    0  0.20704912105E+03  0.26403787391E+03 -0.80459653681E+03  0.12398496149E+04  0.88162698643E+03 0.  0.
         23    2    4    4    0    0  0.53924741655E+03  0.14421319889E+03 -0.38270200235E+03  0.68250288187E+03  0.88114347120E+02 0.  0.
         23    2    4    4    0    0 -0.33219829550E+03  0.11982467502E+03 -0.42189453446E+03  0.55734673305E+03  0.89032142284E+02 0.  0.
          4    1    3    3  502    0 -0.92922683283E+02 -0.17948846301E+03 -0.16482650693E+03  0.26080358664E+03  0.00000000000E+00 0. -1.
         -3    1    3    3    0  502 -0.11412643777E+03 -0.84549410904E+02 -0.84579096895E+02  0.16530901462E+03  0.00000000000E+00 0.  1.
         11    1    5    5    0    0  0.21554481675E+03  0.10062938138E+03 -0.14569464926E+03  0.27894940625E+03  0.00000000000E+00 0. -1.
        -11    1    5    5    0    0  0.32370259981E+03  0.43583817514E+02 -0.23700735309E+03  0.40355347563E+03  0.00000000000E+00 0.  1.
          3    1    6    6  503    0 -0.20254188064E+03  0.26556900931E+02 -0.24602698796E+03  0.31977767465E+03  0.00000000000E+00 0. -1.
         -3    1    6    6    0  503 -0.12965641486E+03  0.93267774087E+02 -0.17586754650E+03  0.23756905840E+03  0.00000000000E+00 0.  1.
<mgrwt>
<rscale>  0 0.12901587E+04</rscale>
<asrwt>0</asrwt>
<pdfrwt beam="1">  1        2 0.20922803E+00 0.12901587E+04</pdfrwt>
<pdfrwt beam="2">  1       -1 0.47073852E-01 0.12901587E+04</pdfrwt>
<totfact> 0.76732721E+01</totfact>
</mgrwt>
</event>
<event>
12    6  0.1529770E-007  0.2316601E+04  0.7818608E-02  0.8471404E-01
         -1   -1    0    0    0  501 -0.00000000000E+00  0.00000000000E+00  0.94651852017E+03  0.94651852017E+03  0.00000000000E+00 0.  1.
          2   -1    0    0  501    0  0.00000000000E+00 -0.00000000000E+00 -0.14174681516E+04  0.14174681516E+04  0.00000000000E+00 0. -1.
         24    2    1    2    0    0  0.54183511957E+03  0.66448022730E+03 -0.66983489057E+03  0.10913740373E+04  0.85435586081E+02 0.  0.
        254    2    1    2    0    0 -0.54183511957E+03 -0.66448022730E+03  0.19888525913E+03  0.12726126345E+04  0.91916717843E+03 0.  0.
         23    2    4    4    0    0 -0.17618100447E+03  0.21105374679E+03  0.12825583345E+03  0.31718350099E+03  0.92587170366E+02 0.  0.
         23    2    4    4    0    0 -0.36565411510E+03 -0.87553397409E+03  0.70629425671E+02  0.95542913350E+03  0.87141503816E+02 0.  0.
          2    1    3    3  502    0  0.24373335443E+03  0.25651404184E+03 -0.23517333942E+03  0.42486692186E+03  0.00000000000E+00 0. -1.
         -1    1    3    3    0  502  0.29810176514E+03  0.40796618546E+03 -0.43466155115E+03  0.66650711542E+03  0.00000000000E+00 0.  1.
         11    1    5    5    0    0 -0.16548794492E+01 -0.86724431477E+01  0.44029410919E+00  0.88398956466E+01  0.00000000000E+00 0. -1.
        -11    1    5    5    0    0 -0.17452612502E+03  0.21972618994E+03  0.12781553935E+03  0.30834360535E+03  0.00000000000E+00 0.  1.
          2    1    6    6  503    0 -0.37938359871E+02 -0.48577186500E+02 -0.92405503443E+01  0.62325355744E+02  0.00000000000E+00 0. -1.
         -2    1    6    6    0  503 -0.32771575523E+03 -0.82695678759E+03  0.79869976015E+02  0.89310377776E+03  0.00000000000E+00 0.  1.
<mgrwt>
<rscale>  0 0.23166008E+04</rscale>
<asrwt>0</asrwt>
<pdfrwt beam="1">  1        2 0.21807202E+00 0.23166008E+04</pdfrwt>
<pdfrwt beam="2">  1       -1 0.14561823E+00 0.23166008E+04</pdfrwt>
<totfact> 0.55110700E+00</totfact>
</mgrwt>
</event>
<event>
12    6  0.1529770E-007  0.1617696E+04  0.7818608E-02  0.8809750E-01
         -1   -1    0    0    0  501 -0.00000000000E+00  0.00000000000E+00  0.47124888391E+03  0.47124888391E+03  0.00000000000E+00 0.  1.
          2   -1    0    0  501    0  0.00000000000E+00 -0.00000000000E+00 -0.13883008952E+04  0.13883008952E+04  0.00000000000E+00 0. -1.
         24    2    1    2    0    0  0.68891973200E+02 -0.55762854840E+03 -0.34273653274E+03  0.66304074961E+03  0.80367921466E+02 0.  0.
        254    2    1    2    0    0 -0.68891973200E+02  0.55762854840E+03 -0.57431547857E+03  0.11965090295E+04  0.88662274212E+03 0.  0.
         23    2    4    4    0    0 -0.36723868911E+03  0.57890204840E+03 -0.54755048994E+03  0.88219827114E+03  0.92034852902E+02 0.  0.
         23    2    4    4    0    0  0.29834671591E+03 -0.21273499998E+02 -0.26764988635E+02  0.31431075839E+03  0.92798510368E+02 0.  0.
          4    1    3    3  502    0  0.41726205631E+02 -0.35623776033E+03 -0.26290260186E+03  0.44470686545E+03  0.00000000000E+00 0. -1.
         -3    1    3    3    0  502  0.27165767569E+02 -0.20139078808E+03 -0.79833930885E+02  0.21833388416E+03  0.00000000000E+00 0.  1.
         11    1    5    5    0    0 -0.36944957094E+03  0.56190762906E+03 -0.52141301943E+03  0.85094342109E+03  0.00000000000E+00 0. -1.
        -11    1    5    5    0    0  0.22108818279E+01  0.16994419341E+02 -0.26137470509E+02  0.31254850052E+02  0.00000000000E+00 0.  1.
          2    1    6    6  503    0  0.25917397464E+03 -0.28710898938E+02 -0.53649622522E+02  0.26622123666E+03  0.00000000000E+00 0. -1.
         -2    1    6    6    0  503  0.39172741267E+02  0.74373989398E+01  0.26884633886E+02  0.48089521734E+02  0.00000000000E+00 0.  1.
<mgrwt>
<rscale>  0 0.16176962E+04</rscale>
<asrwt>0</asrwt>
<pdfrwt beam="1">  1        2 0.21358475E+00 0.16176962E+04</pdfrwt>
<pdfrwt beam="2">  1       -1 0.72499828E-01 0.16176962E+04</pdfrwt>
<totfact> 0.30780228E+01</totfact>
</mgrwt>
</event>
<event>
12    6  0.1529770E-007  0.2226281E+04  0.7818608E-02  0.8507568E-01
         -3   -1    0    0    0  501 -0.00000000000E+00  0.00000000000E+00  0.23770714368E+04  0.23770714368E+04  0.00000000000E+00 0.  1.
          2   -1    0    0  501    0  0.00000000000E+00 -0.00000000000E+00 -0.52126423419E+03  0.52126423419E+03  0.00000000000E+00 0. -1.
         24    2    1    2    0    0 -0.73975095131E+03  0.47785108366E+03  0.11682768614E+04  0.14652090546E+04  0.79960120194E+02 0.  0.
        254    2    1    2    0    0  0.73975095131E+03 -0.47785108366E+03  0.68753034129E+03  0.14331266164E+04  0.89754153128E+03 0.  0.
         23    2    4    4    0    0  0.12228980176E+03 -0.35034611744E+03 -0.12385028814E+03  0.40150034349E+03  0.90368325950E+02 0.  0.
         23    2    4    4    0    0  0.61746114954E+03 -0.12750496622E+03  0.81138062943E+03  0.10316262729E+04  0.91643077028E+02 0.  0.
          2    1    3    3  502    0 -0.10864949670E+03  0.94998479980E+02  0.15791535133E+03  0.21393149025E+03  0.00000000000E+00 0. -1.
         -1    1    3    3    0  502 -0.63110145460E+03  0.38285260368E+03  0.10103615100E+04  0.12512775644E+04  0.00000000000E+00 0.  1.
         11    1    5    5    0    0  0.69160356363E+02 -0.15491245663E+03 -0.10162181056E+03  0.19775746887E+03  0.00000000000E+00 0. -1.
        -11    1    5    5    0    0  0.53129445399E+02 -0.19543366081E+03 -0.22228477577E+02  0.20374287463E+03  0.00000000000E+00 0.  1.
          3    1    6    6  503    0  0.57457967900E+03 -0.96084674254E+02  0.72307093750E+03  0.92855029632E+03  0.00000000000E+00 0. -1.
         -3    1    6    6    0  503  0.42881470543E+02 -0.31420291969E+02  0.88309691928E+02  0.10307597660E+03  0.00000000000E+00 0.  1.
<mgrwt>
<rscale>  0 0.22262815E+04</rscale>
<asrwt>0</asrwt>
<pdfrwt beam="1">  1        2 0.80194499E-01 0.22262815E+04</pdfrwt>
<pdfrwt beam="2">  1       -3 0.36570329E+00 0.22262815E+04</pdfrwt>
<totfact> 0.54525995E-01</totfact>
</mgrwt>
</event>
<event>
12    6  0.1529770E-007  0.1704512E+04  0.7818608E-02  0.8758795E-01
          2   -1    0    0  501    0  0.00000000000E+00  0.00000000000E+00  0.88189383030E+03  0.88189383030E+03  0.00000000000E+00 0. -1.
         -1   -1    0    0    0  501 -0.00000000000E+00 -0.00000000000E+00 -0.82361461331E+03  0.82361461331E+03  0.00000000000E+00 0.  1.
         24    2    1    2    0    0 -0.51811963413E+03 -0.19420884915E+03 -0.26550224484E+03  0.61812746456E+03  0.73655197170E+02 0.  0.
        254    2    1    2    0    0  0.51811963413E+03  0.19420884915E+03  0.32378146183E+03  0.10873809790E+04  0.87829261992E+03 0.  0.
         23    2    4    4    0    0  0.54543745717E+02  0.44483147696E+03 -0.10168627293E+02  0.45699964570E+03  0.88855006024E+02 0.  0.
         23    2    4    4    0    0  0.46357588842E+03 -0.25062262781E+03  0.33395008913E+03  0.63038133334E+03  0.90242215771E+02 0.  0.
          2    1    3    3  502    0 -0.11126493067E+03 -0.70677775692E+02 -0.80307053986E+02  0.15435172722E+03  0.00000000000E+00 0. -1.
         -1    1    3    3    0  502 -0.40685470346E+03 -0.12353107346E+03 -0.18519519085E+03  0.46377573735E+03  0.00000000000E+00 0.  1.
         11    1    5    5    0    0  0.34559457347E+02  0.50681261569E+02  0.83518682548E+01  0.61908804460E+02  0.00000000000E+00 0. -1.
        -11    1    5    5    0    0  0.19984288370E+02  0.39415021539E+03 -0.18520495548E+02  0.39509084124E+03  0.00000000000E+00 0.  1.
          1    1    6    6  503    0  0.55642835652E+02 -0.54737504276E+02  0.78646589762E+02  0.11080435738E+03  0.00000000000E+00 0. -1.
         -1    1    6    6    0  503  0.40793305276E+03 -0.19588512354E+03  0.25530349936E+03  0.51957697596E+03  0.00000000000E+00 0.  1.
<mgrwt>
<rscale>  0 0.17045124E+04</rscale>
<asrwt>0</asrwt>
<pdfrwt beam="1">  1        2 0.13567597E+00 0.17045124E+04</pdfrwt>
<pdfrwt beam="2">  1       -1 0.12670994E+00 0.17045124E+04</pdfrwt>
<totfact> 0.17718755E+01</totfact>
</mgrwt>
</event>
<event>
12    6  0.1529770E-007  0.1223910E+04  0.7818608E-02  0.9092182E-01
         -1   -1    0    0    0  501 -0.00000000000E+00  0.00000000000E+00  0.14415679433E+03  0.14415679433E+03  0.00000000000E+00 0.  1.
          2   -1    0    0  501    0  0.00000000000E+00 -0.00000000000E+00 -0.25977900746E+04  0.25977900746E+04  0.00000000000E+00 0. -1.
         24    2    1    2    0    0 -0.15956896512E+03 -0.19357057875E+03 -0.40971747585E+03  0.48753545574E+03  0.83009559693E+02 0.  0.
        254    2    1    2    0    0  0.15956896512E+03  0.19357057875E+03 -0.20439158044E+04  0.22544114132E+04  0.91752230532E+03 0.  0.
         23    2    4    4    0    0  0.53063996320E+03  0.14151784854E+03 -0.10513388486E+04  0.11895380297E+04  0.89895925797E+02 0.  0.
         23    2    4    4    0    0 -0.37107099808E+03  0.52052730209E+02 -0.99257695582E+03  0.10648733835E+04  0.91340775877E+02 0.  0.
          4    1    3    3  502    0 -0.58670902199E+02 -0.74418659257E+02 -0.23406999406E+03  0.25252559025E+03  0.00000000000E+00 0. -1.
         -3    1    3    3    0  502 -0.10089806292E+03 -0.11915191949E+03 -0.17564748178E+03  0.23500986549E+03  0.00000000000E+00 0.  1.
         11    1    5    5    0    0  0.27018936563E+03  0.29844276364E+02 -0.47446503453E+03  0.54681810789E+03  0.00000000000E+00 0. -1.
        -11    1    5    5    0    0  0.26045059757E+03  0.11167357217E+03 -0.57687381405E+03  0.64271992177E+03  0.00000000000E+00 0.  1.
          3    1    6    6  503    0 -0.28237066434E+03  0.64997768298E+02 -0.83141530045E+03  0.88045971162E+03  0.00000000000E+00 0. -1.
         -3    1    6    6    0  503 -0.88700333747E+02 -0.12945038089E+02 -0.16116165537E+03  0.18441367189E+03  0.00000000000E+00 0.  1.
<mgrwt>
<rscale>  0 0.12239103E+04</rscale>
<asrwt>0</asrwt>
<pdfrwt beam="1">  1        2 0.39966000E+00 0.12239103E+04</pdfrwt>
<pdfrwt beam="2">  1       -1 0.22177969E-01 0.12239103E+04</pdfrwt>
<totfact> 0.59284487E+01</totfact>
</mgrwt>
</event>
<event>
12    6  0.1529770E-007  0.1595266E+04  0.7818608E-02  0.8823462E-01
          2   -1    0    0  501    0  0.00000000000E+00  0.00000000000E+00  0.96469742491E+03  0.96469742491E+03  0.00000000000E+00 0. -1.
         -1   -1    0    0    0  501 -0.00000000000E+00 -0.00000000000E+00 -0.65950025619E+03  0.65950025619E+03  0.00000000000E+00 0.  1.
         24    2    1    2    0    0 -0.59590089045E+01 -0.50005528987E+03 -0.11994518962E+03  0.52048003767E+03  0.80136248907E+02 0.  0.
        254    2    1    2    0    0  0.59590089045E+01  0.50005528987E+03  0.42514235835E+03  0.11037176434E+04  0.88733072124E+03 0.  0.
         23    2    4    4    0    0 -0.21878102192E+02  0.73864655318E+03  0.22362002612E+03  0.77738483522E+03  0.90795837280E+02 0.  0.
         23    2    4    4    0    0  0.27837111096E+02 -0.23859126332E+03  0.20152233223E+03  0.32633280821E+03  0.90449740973E+02 0.  0.
          2    1    3    3  502    0  0.58366736154E+01 -0.46461585138E+03 -0.91609440099E+02  0.47359713431E+03  0.00000000000E+00 0. -1.
         -1    1    3    3    0  502 -0.11795682520E+02 -0.35439438487E+02 -0.28335749523E+02  0.46882903360E+02  0.00000000000E+00 0.  1.
         11    1    5    5    0    0 -0.16993501988E+02  0.16405676864E+03  0.13212985834E+02  0.16546294280E+03  0.00000000000E+00 0. -1.
        -11    1    5    5    0    0 -0.48846002042E+01  0.57458978454E+03  0.21040704029E+03  0.61192189242E+03  0.00000000000E+00 0.  1.
          2    1    6    6  503    0  0.50970311213E+02 -0.16709828122E+03  0.17327334785E+03  0.24605580929E+03  0.00000000000E+00 0. -1.
         -2    1    6    6    0  503 -0.23133200116E+02 -0.71492982101E+02  0.28248984381E+02  0.80276998922E+02  0.00000000000E+00 0.  1.
<mgrwt>
<rscale>  0 0.15952657E+04</rscale>
<asrwt>0</asrwt>
<pdfrwt beam="1">  1        2 0.14841499E+00 0.15952657E+04</pdfrwt>
<pdfrwt beam="2">  1       -1 0.10146158E+00 0.15952657E+04</pdfrwt>
<totfact> 0.26798948E+01</totfact>
</mgrwt>
</event>
<event>
12    6  0.1529770E-007  0.1430689E+04  0.7818608E-02  0.8931899E-01
          2   -1    0    0  501    0  0.00000000000E+00  0.00000000000E+00  0.10928226575E+04  0.10928226575E+04  0.00000000000E+00 0. -1.
         -1   -1    0    0    0  501 -0.00000000000E+00 -0.00000000000E+00 -0.46825304657E+03  0.46825304657E+03  0.00000000000E+00 0.  1.
         24    2    1    2    0    0  0.84537689992E+02 -0.30193637441E+03  0.51239966298E+03  0.60621059605E+03  0.81398261191E+02 0.  0.
        254    2    1    2    0    0 -0.84537689992E+02  0.30193637441E+03  0.11216994798E+03  0.95486510805E+03  0.89491512565E+03 0.  0.
         23    2    4    4    0    0  0.53034781238E+02 -0.21201563233E+03 -0.21771756469E+03  0.32202612526E+03  0.92393565788E+02 0.  0.
         23    2    4    4    0    0 -0.13757247123E+03  0.51395200674E+03  0.32988751267E+03  0.63283898279E+03  0.92663677081E+02 0.  0.
          4    1    3    3  502    0  0.70942233171E+02 -0.29883172010E+03  0.50311995416E+03  0.58945982531E+03  0.00000000000E+00 0. -1.
         -3    1    3    3    0  502  0.13595456821E+02 -0.31046543040E+01  0.92797088227E+01  0.16750770739E+02  0.00000000000E+00 0.  1.
         11    1    5    5    0    0  0.30987720770E+02 -0.14902710580E+03 -0.87164674164E+02  0.17540523802E+03  0.00000000000E+00 0.  1.
        -11    1    5    5    0    0  0.22047060469E+02 -0.62988526530E+02 -0.13055289053E+03  0.14662088724E+03  0.00000000000E+00 0. -1.
          2    1    6    6  503    0 -0.10446779755E+03  0.42149816939E+03  0.22472194636E+03  0.48895212516E+03  0.00000000000E+00 0. -1.
         -2    1    6    6    0  503 -0.33104673684E+02  0.92453837346E+02  0.10516556632E+03  0.14388685763E+03  0.00000000000E+00 0.  1.
<mgrwt>
<rscale>  0 0.14306887E+04</rscale>
<asrwt>0</asrwt>
<pdfrwt beam="1">  1        2 0.16812656E+00 0.14306887E+04</pdfrwt>
<pdfrwt beam="2">  1       -1 0.72038931E-01 0.14306887E+04</pdfrwt>
<totfact> 0.47412040E+01</totfact>
</mgrwt>
</event>
<event>
12    6  0.1529770E-007  0.1460563E+04  0.7818608E-02  0.8911110E-01
         -1   -1    0    0    0  501 -0.00000000000E+00  0.00000000000E+00  0.19795602378E+03  0.19795602378E+03  0.00000000000E+00 0.  1.
          2   -1    0    0  501    0  0.00000000000E+00 -0.00000000000E+00 -0.26940881207E+04  0.26940881207E+04  0.00000000000E+00 0. -1.
         24    2    1    2    0    0 -0.19392043392E+03  0.24610649686E+03 -0.13999687980E+04  0.14369774833E+04  0.82571845969E+02 0.  0.
        254    2    1    2    0    0  0.19392043392E+03 -0.24610649686E+03 -0.10961632990E+04  0.14550666612E+04  0.90414128766E+03 0.  0.
         23    2    4    4    0    0 -0.34976244483E+03 -0.87330635715E+02 -0.53729969784E+03  0.65407170622E+03  0.95699654311E+02 0.  0.
         23    2    4    4    0    0  0.54368287875E+03 -0.15877586114E+03 -0.55886360112E+03  0.80099495498E+03  0.91997535365E+02 0.  0.
          4    1    3    3  502    0 -0.10550775053E+03  0.14399109565E+03 -0.97010882917E+03  0.98639569214E+03  0.00000000000E+00 0. -1.
         -3    1    3    3    0  502 -0.88412683396E+02  0.10211540120E+03 -0.42985996882E+03  0.45058179118E+03  0.00000000000E+00 0.  1.
         11    1    5    5    0    0 -0.10835484413E+03  0.11490965511E+02 -0.19905608539E+03  0.22692760887E+03  0.00000000000E+00 0.  1.
        -11    1    5    5    0    0 -0.24140760069E+03 -0.98821601225E+02 -0.33824361245E+03  0.42714409736E+03  0.00000000000E+00 0. -1.
          3    1    6    6  503    0  0.49524430139E+03 -0.11479526626E+03 -0.49330701252E+03  0.70837608642E+03  0.00000000000E+00 0. -1.
         -3    1    6    6    0  503  0.48438577358E+02 -0.43980594886E+02 -0.65556588602E+02  0.92618868553E+02  0.00000000000E+00 0.  1.
<mgrwt>
<rscale>  0 0.14605629E+04</rscale>
<asrwt>0</asrwt>
<pdfrwt beam="1">  1        2 0.41447505E+00 0.14605629E+04</pdfrwt>
<pdfrwt beam="2">  1       -1 0.30454776E-01 0.14605629E+04</pdfrwt>
<totfact> 0.29498233E+01</totfact>
</mgrwt>
</event>
<event>
12    6  0.1529770E-007  0.2568257E+04  0.7818608E-02  0.8379064E-01
          2   -1    0    0  501    0  0.00000000000E+00  0.00000000000E+00  0.13322009933E+04  0.13322009933E+04  0.00000000000E+00 0. -1.
         -1   -1    0    0    0  501 -0.00000000000E+00 -0.00000000000E+00 -0.12377906034E+04  0.12377906034E+04  0.00000000000E+00 0.  1.
         24    2    1    2    0    0  0.10386317525E+04  0.43298249785E+03 -0.16287225837E+02  0.11281494509E+04  0.78905950755E+02 0.  0.
        254    2    1    2    0    0 -0.10386317525E+04 -0.43298249785E+03  0.11069761571E+03  0.14418421458E+04  0.89466476984E+03 0.  0.
         23    2    4    4    0    0 -0.11380639823E+04 -0.47664570628E+03  0.22677446207E+03  0.12582486217E+04  0.96861654600E+02 0.  0.
         23    2    4    4    0    0  0.99432229774E+02  0.43663208424E+02 -0.11607684636E+03  0.18359352411E+03  0.91866771726E+02 0.  0.
          2    1    3    3  502    0  0.40177534856E+02  0.31402006105E+02 -0.98912601940E+01  0.51943790031E+02  0.00000000000E+00 0. -1.
         -1    1    3    3    0  502  0.99845421767E+03  0.40158049175E+03 -0.63959656433E+01  0.10762056609E+04  0.00000000000E+00 0.  1.
         11    1    5    5    0    0 -0.73469637352E+03 -0.27730437577E+03  0.10619361505E+03  0.79243520994E+03  0.00000000000E+00 0.  1.
        -11    1    5    5    0    0 -0.40336760879E+03 -0.19934133051E+03  0.12058084702E+03  0.46581341172E+03  0.00000000000E+00 0. -1.
          1    1    6    6  503    0  0.38959287574E+01 -0.14879192347E+02  0.72196453790E+01  0.16990935972E+02  0.00000000000E+00 0. -1.
         -1    1    6    6    0  503  0.95536301017E+02  0.58542400772E+02 -0.12329649174E+03  0.16660258814E+03  0.00000000000E+00 0.  1.
<mgrwt>
<rscale>  0 0.25682569E+04</rscale>
<asrwt>0</asrwt>
<pdfrwt beam="1">  1        2 0.20495400E+00 0.25682569E+04</pdfrwt>
<pdfrwt beam="2">  1       -1 0.19042932E+00 0.25682569E+04</pdfrwt>
<totfact> 0.28074840E+00</totfact>
</mgrwt>
</event>
<event>
12    6  0.1529770E-007  0.1910922E+04  0.7818608E-02  0.8649439E-01
          2   -1    0    0  501    0  0.00000000000E+00  0.00000000000E+00  0.14017154107E+04  0.14017154107E+04  0.00000000000E+00 0. -1.
         -1   -1    0    0    0  501 -0.00000000000E+00 -0.00000000000E+00 -0.65127742346E+03  0.65127742346E+03  0.00000000000E+00 0.  1.
         24    2    1    2    0    0 -0.26929566457E+03 -0.35827564091E+03  0.97308584553E+03  0.10748236977E+04  0.86419491608E+02 0.  0.
        254    2    1    2    0    0  0.26929566457E+03  0.35827564091E+03 -0.22264785831E+03  0.97816913645E+03  0.84045297362E+03 0.  0.
         23    2    4    4    0    0 -0.33078589575E+02 -0.20977128251E+03  0.10095203404E+03  0.25216352113E+03  0.91087563147E+02 0.  0.
         23    2    4    4    0    0  0.30237425414E+03  0.56804692342E+03 -0.32359989234E+03  0.72600561532E+03  0.90883256820E+02 0.  0.
          4    1    3    3  502    0 -0.24776642846E+03 -0.35722162398E+03  0.92071031502E+03  0.10181861205E+04  0.00000000000E+00 0. -1.
         -3    1    3    3    0  502 -0.21529236113E+02 -0.10540169367E+01  0.52375530505E+02  0.56637577234E+02  0.00000000000E+00 0.  1.
         11    1    5    5    0    0 -0.28022607856E+02 -0.11161124435E+03  0.10213944846E+03  0.15386618650E+03  0.00000000000E+00 0.  1.
        -11    1    5    5    0    0 -0.50559817192E+01 -0.98160038159E+02 -0.11874144261E+01  0.98297334631E+02  0.00000000000E+00 0. -1.
          2    1    6    6  503    0  0.16857225252E+03  0.29583260569E+03 -0.12148291861E+03  0.36151297961E+03  0.00000000000E+00 0. -1.
         -2    1    6    6    0  503  0.13380200162E+03  0.27221431773E+03 -0.20211697374E+03  0.36449263571E+03  0.00000000000E+00 0.  1.
<mgrwt>
<rscale>  0 0.19109219E+04</rscale>
<asrwt>0</asrwt>
<pdfrwt beam="1">  1        2 0.21564852E+00 0.19109219E+04</pdfrwt>
<pdfrwt beam="2">  1       -1 0.10019653E+00 0.19109219E+04</pdfrwt>
<totfact> 0.14610006E+01</totfact>
</mgrwt>
</event>
<event>
12    6  0.1529770E-007  0.3084467E+04  0.7818608E-02  0.8220014E-01
         -1   -1    0    0    0  501 -0.00000000000E+00  0.00000000000E+00  0.17430758260E+04  0.17430758260E+04  0.00000000000E+00 0.  1.
          2   -1    0    0  501    0  0.00000000000E+00 -0.00000000000E+00 -0.13645326438E+04  0.13645326438E+04  0.00000000000E+00 0. -1.
         24    2    1    2    0    0 -0.12382701747E+04 -0.66939105181E+03  0.32211251640E+03  0.14461930385E+04  0.79501105671E+02 0.  0.
        254    2    1    2    0    0  0.12382701747E+04  0.66939105181E+03  0.56430665837E+02  0.16614154313E+04  0.88074934557E+03 0.  0.
         23    2    4    4    0    0 -0.41280440533E+02 -0.55705858762E+02 -0.13342395544E+03  0.17579477557E+03  0.91074879980E+02 0.  0.
         23    2    4    4    0    0  0.12795506152E+04  0.72509691058E+03  0.18985462127E+03  0.14856206558E+04  0.89491055610E+02 0.  0.
          4    1    3    3  502    0 -0.12316256323E+04 -0.66381443197E+03  0.32613168426E+03  0.14366325813E+04  0.00000000000E+00 0. -1.
         -3    1    3    3    0  502 -0.66445423817E+01 -0.55766198452E+01 -0.40191678611E+01  0.95604572409E+01  0.00000000000E+00 0.  1.
         11    1    5    5    0    0 -0.85880488883E+01  0.24767234416E+02 -0.43373173952E+02  0.50679411037E+02  0.00000000000E+00 0. -1.
        -11    1    5    5    0    0 -0.32692391645E+02 -0.80473093178E+02 -0.90050781483E+02  0.12511536454E+03  0.00000000000E+00 0.  1.
          4    1    6    6  503    0  0.61181083146E+03  0.30327311644E+03  0.64094707036E+02  0.68585363461E+03  0.00000000000E+00 0. -1.
         -4    1    6    6    0  503  0.66773978373E+03  0.42182379414E+03  0.12575991424E+03  0.79976702114E+03  0.00000000000E+00 0.  1.
<mgrwt>
<rscale>  0 0.30844668E+04</rscale>
<asrwt>0</asrwt>
<pdfrwt beam="1">  1        2 0.20992810E+00 0.30844668E+04</pdfrwt>
<pdfrwt beam="2">  1       -1 0.26816551E+00 0.30844668E+04</pdfrwt>
<totfact> 0.77971078E-01</totfact>
</mgrwt>
</event>
<event>
12    6  0.1529770E-007  0.1989370E+04  0.7818608E-02  0.8611607E-01
         -1   -1    0    0    0  501 -0.00000000000E+00  0.00000000000E+00  0.73186616657E+03  0.73186616657E+03  0.00000000000E+00 0.  1.
          2   -1    0    0  501    0  0.00000000000E+00 -0.00000000000E+00 -0.13518844955E+04  0.13518844955E+04  0.00000000000E+00 0. -1.
         24    2    1    2    0    0 -0.48595269660E+03  0.62797650637E+03 -0.17368558762E+03  0.81647441956E+03  0.77196363684E+02 0.  0.
        254    2    1    2    0    0  0.48595269660E+03 -0.62797650637E+03 -0.44633274135E+03  0.12672762425E+04  0.88106279176E+03 0.  0.
         23    2    4    4    0    0  0.16687682211E+03 -0.73481394756E+03 -0.83699073363E+02  0.76414247297E+03  0.95439891163E+02 0.  0.
         23    2    4    4    0    0  0.31907587449E+03  0.10683744119E+03 -0.36263366799E+03  0.50313376957E+03  0.91742903853E+02 0.  0.
          4    1    3    3  502    0 -0.46968635075E+03  0.61248374653E+03 -0.15499436667E+03  0.78725146017E+03  0.00000000000E+00 0. -1.
         -3    1    3    3    0  502 -0.16266345855E+02  0.15492759840E+02 -0.18691220954E+02  0.29222959393E+02  0.00000000000E+00 0.  1.
         11    1    5    5    0    0  0.12318533008E+03 -0.43030399429E+03 -0.94899268843E+01  0.44768986113E+03  0.00000000000E+00 0. -1.
        -11    1    5    5    0    0  0.43691492034E+02 -0.30450995327E+03 -0.74209146479E+02  0.31645261183E+03  0.00000000000E+00 0.  1.
          3    1    6    6  503    0  0.17498023799E+03  0.22201203774E+02 -0.22962922068E+03  0.28955233746E+03  0.00000000000E+00 0. -1.
         -3    1    6    6    0  503  0.14409563650E+03  0.84636237417E+02 -0.13300444730E+03  0.21358143211E+03  0.00000000000E+00 0.  1.
<mgrwt>
<rscale>  0 0.19893703E+04</rscale>
<asrwt>0</asrwt>
<pdfrwt beam="1">  1        2 0.20798223E+00 0.19893703E+04</pdfrwt>
<pdfrwt beam="2">  1       -1 0.11259480E+00 0.19893703E+04</pdfrwt>
<totfact> 0.11802833E+01</totfact>
</mgrwt>
</event>
<event>
12    6  0.1529770E-007  0.1427015E+04  0.7818608E-02  0.8934492E-01
          2   -1    0    0  501    0  0.00000000000E+00  0.00000000000E+00  0.92995960851E+03  0.92995960851E+03  0.00000000000E+00 0. -1.
         -1   -1    0    0    0  501 -0.00000000000E+00 -0.00000000000E+00 -0.54743564700E+03  0.54743564700E+03  0.00000000000E+00 0.  1.
         24    2    1    2    0    0 -0.24728488755E+03 -0.45558094703E+02  0.46553917428E+03  0.53524902572E+03  0.80866811112E+02 0.  0.
        254    2    1    2    0    0  0.24728488755E+03  0.45558094703E+02 -0.83015212761E+02  0.94214622979E+03  0.90416958429E+03 0.  0.
         23    2    4    4    0    0  0.44025809567E+03 -0.15343652167E+03 -0.31504314867E+03  0.56888743492E+03  0.83730347559E+02 0.  0.
         23    2    4    4    0    0 -0.19297320812E+03  0.19899461637E+03  0.23202793591E+03  0.37325879487E+03  0.92992733643E+02 0.  0.
          4    1    3    3  502    0 -0.20399025167E+03 -0.43302739592E+01  0.37059995563E+03  0.42305448959E+03  0.00000000000E+00 0. -1.
         -3    1    3    3    0  502 -0.43294635882E+02 -0.41227820744E+02  0.94939218650E+02  0.11219453613E+03  0.00000000000E+00 0.  1.
         11    1    5    5    0    0  0.75290482008E+01 -0.32378899716E+01  0.54511317095E+01  0.98430348568E+01  0.00000000000E+00 0.  1.
        -11    1    5    5    0    0  0.43272904747E+03 -0.15019863169E+03 -0.32049428038E+03  0.55904440006E+03  0.00000000000E+00 0. -1.
          4    1    6    6  503    0 -0.14481882607E+03  0.18006030348E+03  0.22223468883E+03  0.32059704022E+03  0.00000000000E+00 0. -1.
         -4    1    6    6    0  503 -0.48154382049E+02  0.18934312892E+02  0.97932470727E+01  0.52661754656E+02  0.00000000000E+00 0.  1.
<mgrwt>
<rscale>  0 0.14270151E+04</rscale>
<asrwt>0</asrwt>
<pdfrwt beam="1">  1        2 0.14307071E+00 0.14270151E+04</pdfrwt>
<pdfrwt beam="2">  1       -1 0.84220869E-01 0.14270151E+04</pdfrwt>
<totfact> 0.43355476E+01</totfact>
</mgrwt>
</event>
<event>
12    6  0.1529770E-007  0.1486965E+04  0.7818608E-02  0.8893168E-01
          2   -1    0    0  501    0  0.00000000000E+00  0.00000000000E+00  0.95903280463E+03  0.95903280463E+03  0.00000000000E+00 0. -1.
         -1   -1    0    0    0  501 -0.00000000000E+00 -0.00000000000E+00 -0.57637874895E+03  0.57637874895E+03  0.00000000000E+00 0.  1.
         24    2    1    2    0    0  0.31815222819E+03 -0.33111368420E+03  0.21020788701E+03  0.51118211190E+03  0.79137118943E+02 0.  0.
        254    2    1    2    0    0 -0.31815222819E+03  0.33111368420E+03  0.17244616867E+03  0.10242294417E+04  0.89913911936E+03 0.  0.
         23    2    4    4    0    0  0.16702865511E+03  0.75629488417E+02  0.37833358666E+03  0.43101036978E+03  0.94948643535E+02 0.  0.
         23    2    4    4    0    0 -0.48518088330E+03  0.25548419579E+03 -0.20588741799E+03  0.59321907191E+03  0.94056230902E+02 0.  0.
          4    1    3    3  502    0  0.21167060006E+03 -0.17849360096E+03  0.97129798880E+02  0.29342564023E+03  0.00000000000E+00 0. -1.
         -3    1    3    3    0  502  0.10648162813E+03 -0.15262008324E+03  0.11307808813E+03  0.21775647167E+03  0.00000000000E+00 0.  1.
         11    1    5    5    0    0  0.11612625698E+02 -0.25743903346E+01 -0.26449331000E+01  0.12185082368E+02  0.00000000000E+00 0. -1.
        -11    1    5    5    0    0  0.15541602941E+03  0.78203878751E+02  0.38097851977E+03  0.41882528741E+03  0.00000000000E+00 0.  1.
          3    1    6    6  503    0 -0.38711458047E+02  0.27280941447E+02 -0.48262414697E+02  0.67617212474E+02  0.00000000000E+00 0. -1.
         -3    1    6    6    0  503 -0.44646942525E+03  0.22820325434E+03 -0.15762500330E+03  0.52560185944E+03  0.00000000000E+00 0.  1.
<mgrwt>
<rscale>  0 0.14869649E+04</rscale>
<asrwt>0</asrwt>
<pdfrwt beam="1">  1        2 0.14754351E+00 0.14869649E+04</pdfrwt>
<pdfrwt beam="2">  1       -1 0.88673654E-01 0.14869649E+04</pdfrwt>
<totfact> 0.36898629E+01</totfact>
</mgrwt>
</event>
<event>
12    6  0.1529770E-007  0.1439892E+04  0.7818608E-02  0.8925438E-01
          2   -1    0    0  501    0  0.00000000000E+00  0.00000000000E+00  0.21623059174E+04  0.21623059174E+04  0.00000000000E+00 0. -1.
         -1   -1    0    0    0  501 -0.00000000000E+00 -0.00000000000E+00 -0.23970807131E+03  0.23970807131E+03  0.00000000000E+00 0.  1.
         24    2    1    2    0    0  0.61283245999E+02  0.38805490948E+03  0.27756620111E+03  0.48742400252E+03  0.78720475245E+02 0.  0.
        254    2    1    2    0    0 -0.61283245999E+02 -0.38805490948E+03  0.16450316450E+04  0.19145899862E+04  0.89732015093E+03 0.  0.
         23    2    4    4    0    0  0.13381932904E+03 -0.32019967249E+03  0.16503181197E+04  0.16888969888E+04  0.91584385871E+02 0.  0.
         23    2    4    4    0    0 -0.19510257504E+03 -0.67855236992E+02 -0.52864746454E+01  0.22569299740E+03  0.90774634601E+02 0.  0.
          2    1    3    3  502    0 -0.12180163028E+02  0.97024812927E+02  0.93667398536E+02  0.13540957220E+03  0.00000000000E+00 0. -1.
         -1    1    3    3    0  502  0.73463409027E+02  0.29103009655E+03  0.18389880257E+03  0.35201443032E+03  0.00000000000E+00 0.  1.
         11    1    5    5    0    0  0.20073157826E+02 -0.31837210120E+02  0.35563890109E+03  0.35762489787E+03  0.00000000000E+00 0. -1.
        -11    1    5    5    0    0  0.11374617121E+03 -0.28836246237E+03  0.12946792186E+04  0.13312720910E+04  0.00000000000E+00 0.  1.
          1    1    6    6  503    0 -0.63686979348E+01 -0.18531225714E+02  0.21155844357E+02  0.28836372697E+02  0.00000000000E+00 0. -1.
         -1    1    6    6    0  503 -0.18873387710E+03 -0.49324011278E+02 -0.26442319002E+02  0.19685662470E+03  0.00000000000E+00 0.  1.
<mgrwt>
<rscale>  0 0.14398919E+04</rscale>
<asrwt>0</asrwt>
<pdfrwt beam="1">  1        2 0.33266244E+00 0.14398919E+04</pdfrwt>
<pdfrwt beam="2">  1       -1 0.36878166E-01 0.14398919E+04</pdfrwt>
<totfact> 0.42377151E+01</totfact>
</mgrwt>
</event>
<event>
12    6  0.1529770E-007  0.1079013E+04  0.7818608E-02  0.9225892E-01
          2   -1    0    0  501    0  0.00000000000E+00  0.00000000000E+00  0.84335914819E+03  0.84335914819E+03  0.00000000000E+00 0. -1.
         -1   -1    0    0    0  501 -0.00000000000E+00 -0.00000000000E+00 -0.34512825413E+03  0.34512825413E+03  0.00000000000E+00 0.  1.
         24    2    1    2    0    0 -0.11766785734E+03  0.95552685047E+02  0.36992253975E+02  0.17502985342E+03  0.79315713840E+02 0.  0.
        254    2    1    2    0    0  0.11766785734E+03 -0.95552685047E+02  0.46123864009E+03  0.10134575489E+04  0.88959489660E+03 0.  0.
         23    2    4    4    0    0 -0.96684350013E+02  0.56565882264E+02  0.65763088220E+03  0.67291917310E+03  0.88285184076E+02 0.  0.
         23    2    4    4    0    0  0.21435220736E+03 -0.15211856731E+03 -0.19639224212E+03  0.34053837581E+03  0.91156707457E+02 0.  0.
          4    1    3    3  502    0 -0.33303449146E+02  0.42938282521E+02  0.51118240951E+02  0.74604895207E+02  0.00000000000E+00 0. -1.
         -3    1    3    3    0  502 -0.84364408199E+02  0.52614402526E+02 -0.14125986977E+02  0.10042495821E+03  0.00000000000E+00 0.  1.
         11    1    5    5    0    0 -0.53876515931E+02 -0.16625226440E+02  0.21707935909E+03  0.22428224465E+03  0.00000000000E+00 0.  1.
        -11    1    5    5    0    0 -0.42807834082E+02  0.73191108704E+02  0.44055152312E+03  0.44863692845E+03  0.00000000000E+00 0. -1.
          1    1    6    6  503    0  0.17825044743E+03 -0.16079936592E+03 -0.15964994564E+03  0.28830151444E+03  0.00000000000E+00 0. -1.
         -1    1    6    6    0  503  0.36101759932E+02  0.86807986100E+01 -0.36742296479E+02  0.52236861364E+02  0.00000000000E+00 0.  1.
<mgrwt>
<rscale>  0 0.10790126E+04</rscale>
<asrwt>0</asrwt>
<pdfrwt beam="1">  1        2 0.12974756E+00 0.10790126E+04</pdfrwt>
<pdfrwt beam="2">  1       -1 0.53096655E-01 0.10790126E+04</pdfrwt>
<totfact> 0.13015104E+02</totfact>
</mgrwt>
</event>
<event>
12    6  0.1529770E-007  0.2243015E+04  0.7818608E-02  0.8500735E-01
         -1   -1    0    0    0  501 -0.00000000000E+00  0.00000000000E+00  0.42141479479E+03  0.42141479479E+03  0.00000000000E+00 0.  1.
          2   -1    0    0  501    0  0.00000000000E+00 -0.00000000000E+00 -0.29846585350E+04  0.29846585350E+04  0.00000000000E+00 0. -1.
         24    2    1    2    0    0 -0.83183839125E+02 -0.35284083346E+03  0.23788312037E+03  0.44108617319E+03  0.80947071454E+02 0.  0.
        254    2    1    2    0    0  0.83183839125E+02  0.35284083346E+03 -0.28011268606E+04  0.29649871566E+04  0.90189852249E+03 0.  0.
         23    2    4    4    0    0  0.29770073101E+03  0.12684783883E+03 -0.32456967829E+03  0.46723965055E+03  0.90836752037E+02 0.  0.
         23    2    4    4    0    0 -0.21451689189E+03  0.22599299463E+03 -0.24765571823E+04  0.24977475061E+04  0.91196470650E+02 0.  0.
          2    1    3    3  502    0  0.28270158254E+01 -0.99713328256E+01  0.28288123402E+02  0.30127021465E+02  0.00000000000E+00 0. -1.
         -1    1    3    3    0  502 -0.86010854950E+02 -0.34286950063E+03  0.20959499697E+03  0.41095915173E+03  0.00000000000E+00 0.  1.
         11    1    5    5    0    0  0.33389990710E+02  0.25962910674E+02 -0.86704996302E+01  0.43175708148E+02  0.00000000000E+00 0.  1.
        -11    1    5    5    0    0  0.26431074030E+03  0.10088492816E+03 -0.31589917866E+03  0.42406394240E+03  0.00000000000E+00 0. -1.
          2    1    6    6  503    0 -0.15067684152E+03  0.20354789129E+03 -0.20931017264E+04  0.21083666881E+04  0.00000000000E+00 0. -1.
         -2    1    6    6    0  503 -0.63840050369E+02  0.22445103343E+02 -0.38345545595E+03  0.38938081796E+03  0.00000000000E+00 0.  1.
<mgrwt>
<rscale>  0 0.22430152E+04</rscale>
<asrwt>0</asrwt>
<pdfrwt beam="1">  1        2 0.45917825E+00 0.22430152E+04</pdfrwt>
<pdfrwt beam="2">  1       -1 0.64833044E-01 0.22430152E+04</pdfrwt>
<totfact> 0.44543463E+00</totfact>
</mgrwt>
</event>
<event>
12    6  0.1529770E-007  0.1772644E+04  0.7818608E-02  0.8720984E-01
         -1   -1    0    0    0  501 -0.00000000000E+00  0.00000000000E+00  0.57850070493E+03  0.57850070493E+03  0.00000000000E+00 0.  1.
          2   -1    0    0  501    0  0.00000000000E+00 -0.00000000000E+00 -0.13579358672E+04  0.13579358672E+04  0.00000000000E+00 0. -1.
         24    2    1    2    0    0  0.52027712873E+03  0.92790076372E+02 -0.74040912076E+03  0.91302196223E+03  0.78135449370E+02 0.  0.
        254    2    1    2    0    0 -0.52027712873E+03 -0.92790076372E+02 -0.39026041482E+02  0.10234146099E+04  0.87553191994E+03 0.  0.
         23    2    4    4    0    0 -0.52164718089E+03 -0.36313145368E+03 -0.22843913470E+03  0.68167821657E+03  0.92306655765E+02 0.  0.
         23    2    4    4    0    0  0.13700521635E+01  0.27034137731E+03  0.18941309321E+03  0.34173639330E+03  0.88431359234E+02 0.  0.
          2    1    3    3  502    0  0.32606855159E+03  0.60151256095E+02 -0.39797831873E+03  0.51800155996E+03  0.00000000000E+00 0. -1.
         -1    1    3    3    0  502  0.19420857714E+03  0.32638820277E+02 -0.34243080203E+03  0.39502040226E+03  0.00000000000E+00 0.  1.
         11    1    5    5    0    0 -0.51238781203E+03 -0.35579196224E+03 -0.23676582462E+03  0.66722353527E+03  0.00000000000E+00 0.  1.
        -11    1    5    5    0    0 -0.92593688663E+01 -0.73394914398E+01  0.83266899242E+01  0.14454681300E+02  0.00000000000E+00 0. -1.
          1    1    6    6  503    0  0.19959266935E+02  0.61946115110E+02  0.87396423018E+02  0.10896709719E+03  0.00000000000E+00 0. -1.
         -1    1    6    6    0  503 -0.18589214772E+02  0.20839526220E+03  0.10201667020E+03  0.23276929611E+03  0.00000000000E+00 0.  1.
<mgrwt>
<rscale>  0 0.17726442E+04</rscale>
<asrwt>0</asrwt>
<pdfrwt beam="1">  1        2 0.20891321E+00 0.17726442E+04</pdfrwt>
<pdfrwt beam="2">  1       -1 0.89000109E-01 0.17726442E+04</pdfrwt>
<totfact> 0.20428538E+01</totfact>
</mgrwt>
</event>
<event>
12    6  0.1529770E-007  0.1599759E+04  0.7818608E-02  0.8820696E-01
          2   -1    0    0  501    0  0.00000000000E+00  0.00000000000E+00  0.16551702016E+04  0.16551702016E+04  0.00000000000E+00 0. -1.
         -1   -1    0    0    0  501 -0.00000000000E+00 -0.00000000000E+00 -0.38655060543E+03  0.38655060543E+03  0.00000000000E+00 0.  1.
         24    2    1    2    0    0  0.78153912611E+02  0.53619111358E+03  0.39847733670E+03  0.67727527605E+03  0.79427119776E+02 0.  0.
        254    2    1    2    0    0 -0.78153912611E+02 -0.53619111358E+03  0.87014225950E+03  0.13644455310E+04  0.90053046087E+03 0.  0.
         23    2    4    4    0    0 -0.29732471565E+03 -0.52154297477E+03  0.17817572017E+03  0.63274462148E+03  0.90609644537E+02 0.  0.
         23    2    4    4    0    0  0.21917080304E+03 -0.14648138805E+02  0.69196653933E+03  0.73170090952E+03  0.91203731087E+02 0.  0.
          4    1    3    3  502    0  0.43909783629E+02  0.10123333688E+03  0.64451386218E+02  0.12778982268E+03  0.00000000000E+00 0. -1.
         -3    1    3    3    0  502  0.34244128982E+02  0.43495777670E+03  0.33402595048E+03  0.54948545338E+03  0.00000000000E+00 0.  1.
         11    1    5    5    0    0 -0.78386023909E+02 -0.69509951848E+02  0.26202773923E+02  0.10799346050E+03  0.00000000000E+00 0.  1.
        -11    1    5    5    0    0 -0.21893869174E+03 -0.45203302293E+03  0.15197294625E+03  0.52475116098E+03  0.00000000000E+00 0. -1.
          2    1    6    6  503    0  0.16799351800E+03  0.16193404226E+02  0.58847663162E+03  0.61219996276E+03  0.00000000000E+00 0. -1.
         -2    1    6    6    0  503  0.51177285038E+02 -0.30841543031E+02  0.10348990771E+03  0.11950094676E+03  0.00000000000E+00 0.  1.
<mgrwt>
<rscale>  0 0.15997588E+04</rscale>
<asrwt>0</asrwt>
<pdfrwt beam="1">  1        2 0.25464156E+00 0.15997588E+04</pdfrwt>
<pdfrwt beam="2">  1       -1 0.59469325E-01 0.15997588E+04</pdfrwt>
<totfact> 0.32529179E+01</totfact>
</mgrwt>
</event>
<event>
12    6  0.1529770E-007  0.1633325E+04  0.7818608E-02  0.8800333E-01
         -3   -1    0    0    0  501 -0.00000000000E+00  0.00000000000E+00  0.57605428237E+03  0.57605428237E+03  0.00000000000E+00 0.  1.
          2   -1    0    0  501    0  0.00000000000E+00 -0.00000000000E+00 -0.11577689472E+04  0.11577689472E+04  0.00000000000E+00 0. -1.
         24    2    1    2    0    0  0.91132110374E+02  0.18814502258E+03  0.35588115225E+03  0.42044954662E+03  0.80142471075E+02 0.  0.
        254    2    1    2    0    0 -0.91132110374E+02 -0.18814502258E+03 -0.93759581710E+03  0.13133736830E+04  0.89563435834E+03 0.  0.
         23    2    4    4    0    0 -0.86042460195E+02  0.27382156420E+03 -0.74671261655E+03  0.80509371590E+03  0.90634461891E+02 0.  0.
         23    2    4    4    0    0 -0.50896501795E+01 -0.46196658677E+03 -0.19088320055E+03  0.50827996708E+03  0.92049426130E+02 0.  0.
          2    1    3    3  502    0 -0.26283562413E+01  0.56546009637E+02  0.13825818275E+03  0.14939773948E+03  0.00000000000E+00 0. -1.
         -1    1    3    3    0  502  0.93760466616E+02  0.13159901294E+03  0.21762296949E+03  0.27105180715E+03  0.00000000000E+00 0.  1.
         11    1    5    5    0    0 -0.89581344023E+02  0.27908895868E+03 -0.71493167081E+03  0.77268541981E+03  0.00000000000E+00 0. -1.
        -11    1    5    5    0    0  0.35388838287E+01 -0.52673944776E+01 -0.31780945740E+02  0.32408296090E+02  0.00000000000E+00 0.  1.
          2    1    6    6  503    0 -0.44198427408E+02 -0.34213991605E+03 -0.14291330875E+03  0.37341322548E+03  0.00000000000E+00 0. -1.
         -2    1    6    6    0  503  0.39108777229E+02 -0.11982667072E+03 -0.47969891797E+02  0.13486674161E+03  0.00000000000E+00 0.  1.
<mgrwt>
<rscale>  0 0.16333251E+04</rscale>
<asrwt>0</asrwt>
<pdfrwt beam="1">  1        2 0.17811830E+00 0.16333251E+04</pdfrwt>
<pdfrwt beam="2">  1       -3 0.88623737E-01 0.16333251E+04</pdfrwt>
<totfact> 0.14093862E+01</totfact>
</mgrwt>
</event>
<event>
12    6  0.1529770E-007  0.2631070E+04  0.7818608E-02  0.8357723E-01
         -1   -1    0    0    0  501 -0.00000000000E+00  0.00000000000E+00  0.10650677887E+04  0.10650677887E+04  0.00000000000E+00 0.  1.
          2   -1    0    0  501    0  0.00000000000E+00 -0.00000000000E+00 -0.16249038248E+04  0.16249038248E+04  0.00000000000E+00 0. -1.
         24    2    1    2    0    0 -0.76729281525E+03 -0.87426564829E+03 -0.20923376187E+03  0.11845440304E+04  0.79291264434E+02 0.  0.
        254    2    1    2    0    0  0.76729281525E+03  0.87426564829E+03 -0.35060227424E+03  0.15054275832E+04  0.88899469370E+03 0.  0.
         23    2    4    4    0    0  0.94336855456E+03  0.65545544958E+03 -0.36693758066E+03  0.12094660596E+04  0.92730173482E+02 0.  0.
         23    2    4    4    0    0 -0.17607573931E+03  0.21881019871E+03  0.16335306421E+02  0.29596152361E+03  0.91901100034E+02 0.  0.
          2    1    3    3  502    0 -0.56203856708E+03 -0.64235803666E+03 -0.18890638084E+03  0.87418351556E+03  0.00000000000E+00 0. -1.
         -1    1    3    3    0  502 -0.20525424817E+03 -0.23190761163E+03 -0.20327381033E+02  0.31036051480E+03  0.00000000000E+00 0.  1.
         11    1    5    5    0    0  0.25192367293E+03  0.16385973890E+03 -0.13822739277E+03  0.33079051245E+03  0.00000000000E+00 0. -1.
        -11    1    5    5    0    0  0.69144488163E+03  0.49159571068E+03 -0.22871018789E+03  0.87867554714E+03  0.00000000000E+00 0.  1.
          4    1    6    6  503    0 -0.44829010367E+02  0.30782239720E+02 -0.29877762971E+02  0.62047297869E+02  0.00000000000E+00 0. -1.
         -4    1    6    6    0  503 -0.13124672894E+03  0.18802795900E+03  0.46213069392E+02  0.23391422574E+03  0.00000000000E+00 0.  1.
<mgrwt>
<rscale>  0 0.26310703E+04</rscale>
<asrwt>0</asrwt>
<pdfrwt beam="1">  1        2 0.24998520E+00 0.26310703E+04</pdfrwt>
<pdfrwt beam="2">  1       -1 0.16385658E+00 0.26310703E+04</pdfrwt>
<totfact> 0.29654026E+00</totfact>
</mgrwt>
</event>
<event>
12    6  0.1529770E-007  0.2177770E+04  0.7818608E-02  0.8527738E-01
          2   -1    0    0  501    0  0.00000000000E+00  0.00000000000E+00  0.13034137673E+04  0.13034137673E+04  0.00000000000E+00 0. -1.
         -1   -1    0    0    0  501 -0.00000000000E+00 -0.00000000000E+00 -0.90966539028E+03  0.90966539028E+03  0.00000000000E+00 0.  1.
         24    2    1    2    0    0 -0.22184293114E+03  0.73593650330E+02 -0.71915798957E+03  0.76065627405E+03  0.82337365834E+02 0.  0.
        254    2    1    2    0    0  0.22184293114E+03 -0.73593650330E+02  0.11129063666E+04  0.14524228835E+04  0.90351609855E+03 0.  0.
         23    2    4    4    0    0 -0.16587580889E+03 -0.33291069222E+03  0.79192772856E+03  0.87883816792E+03  0.82841325235E+02 0.  0.
         23    2    4    4    0    0  0.38771874002E+03  0.25931704189E+03  0.32097863806E+03  0.57358471563E+03  0.91656916430E+02 0.  0.
          2    1    3    3  502    0 -0.51157166062E+02  0.17376507732E+02 -0.78672243713E+02  0.95437521926E+02  0.00000000000E+00 0. -1.
         -1    1    3    3    0  502 -0.17068576507E+03  0.56217142598E+02 -0.64048574586E+03  0.66521875212E+03  0.00000000000E+00 0.  1.
         11    1    5    5    0    0 -0.14179867105E+03 -0.31208389897E+03  0.66712709666E+03  0.75004118967E+03  0.00000000000E+00 0. -1.
        -11    1    5    5    0    0 -0.24077137842E+02 -0.20826793250E+02  0.12480063190E+03  0.12879697825E+03  0.00000000000E+00 0.  1.
          2    1    6    6  503    0  0.32982827470E+03  0.18461637887E+03  0.28090652659E+03  0.47093351422E+03  0.00000000000E+00 0. -1.
         -2    1    6    6    0  503  0.57890465325E+02  0.74700663027E+02  0.40072111464E+02  0.10265120140E+03  0.00000000000E+00 0.  1.
<mgrwt>
<rscale>  0 0.21777699E+04</rscale>
<asrwt>0</asrwt>
<pdfrwt beam="1">  1        2 0.20052519E+00 0.21777699E+04</pdfrwt>
<pdfrwt beam="2">  1       -1 0.13994852E+00 0.21777699E+04</pdfrwt>
<totfact> 0.72062335E+00</totfact>
</mgrwt>
</event>
<event>
12    6  0.1529770E-007  0.2272395E+04  0.7818608E-02  0.8488885E-01
          2   -1    0    0  501    0  0.00000000000E+00  0.00000000000E+00  0.19964499166E+04  0.19964499166E+04  0.00000000000E+00 0. -1.
         -1   -1    0    0    0  501 -0.00000000000E+00 -0.00000000000E+00 -0.64662033349E+03  0.64662033349E+03  0.00000000000E+00 0.  1.
         24    2    1    2    0    0  0.67003415263E+03  0.60879454004E+03  0.91101993284E+03  0.12868101569E+04  0.79664949230E+02 0.  0.
        254    2    1    2    0    0 -0.67003415263E+03 -0.60879454004E+03  0.43880965028E+03  0.13562600932E+04  0.90956636571E+03 0.  0.
         23    2    4    4    0    0 -0.78876512365E+02  0.22343816633E+03  0.41863031408E+02  0.25733306319E+03  0.91223207774E+02 0.  0.
         23    2    4    4    0    0 -0.59115764026E+03 -0.83223270636E+03  0.39694661888E+03  0.10989270300E+04  0.89416810098E+02 0.  0.
          2    1    3    3  502    0  0.29994618298E+03  0.24392362557E+03  0.43603189623E+03  0.58274373641E+03  0.00000000000E+00 0. -1.
         -1    1    3    3    0  502  0.37008796965E+03  0.36487091447E+03  0.47498803662E+03  0.70406642047E+03  0.00000000000E+00 0.  1.
         11    1    5    5    0    0  0.14455189442E+01  0.14203144344E+02 -0.20237197351E+02  0.24766166254E+02  0.00000000000E+00 0. -1.
        -11    1    5    5    0    0 -0.80322031309E+02  0.20923502198E+03  0.62100228759E+02  0.23256689693E+03  0.00000000000E+00 0.  1.
          3    1    6    6  503    0 -0.86906912388E+02 -0.89181286635E+02  0.25313710276E+02  0.12707044202E+03  0.00000000000E+00 0. -1.
         -3    1    6    6    0  503 -0.50425072787E+03 -0.74305141973E+03  0.37163290860E+03  0.97185658802E+03  0.00000000000E+00 0.  1.
<mgrwt>
<rscale>  0 0.22723953E+04</rscale>
<asrwt>0</asrwt>
<pdfrwt beam="1">  1        2 0.30714614E+00 0.22723953E+04</pdfrwt>
<pdfrwt beam="2">  1       -1 0.99480052E-01 0.22723953E+04</pdfrwt>
<totfact> 0.66946903E+00</totfact>
</mgrwt>
</event>
<event>
12    6  0.1529770E-007  0.1801730E+04  0.7818608E-02  0.8705380E-01
          2   -1    0    0  501    0  0.00000000000E+00  0.00000000000E+00  0.94047053524E+03  0.94047053524E+03  0.00000000000E+00 0. -1.
         -1   -1    0    0    0  501 -0.00000000000E+00 -0.00000000000E+00 -0.86292697829E+03  0.86292697829E+03  0.00000000000E+00 0.  1.
         24    2    1    2    0    0  0.55232577884E+03  0.34760364791E+03  0.14742259952E+03  0.67570651536E+03  0.94624574221E+02 0.  0.
        254    2    1    2    0    0 -0.55232577884E+03 -0.34760364791E+03 -0.69879042581E+02  0.11276909982E+04  0.91701245615E+03 0.  0.
         23    2    4    4    0    0 -0.56965740867E+03 -0.15145101393E+03  0.32371366497E+03  0.67854115850E+03  0.90446636335E+02 0.  0.
         23    2    4    4    0    0  0.17331629829E+02 -0.19615263398E+03 -0.39359270755E+03  0.44914983966E+03  0.89689006128E+02 0.  0.
          2    1    3    3  502    0  0.23502680541E+03  0.16563094110E+03  0.19426967462E+02  0.28818156598E+03  0.00000000000E+00 0. -1.
         -1    1    3    3    0  502  0.31729897343E+03  0.18197270681E+03  0.12799563206E+03  0.38752494938E+03  0.00000000000E+00 0.  1.
         11    1    5    5    0    0 -0.34277737404E+03 -0.50550164865E+02  0.21258643510E+03  0.40650293936E+03  0.00000000000E+00 0.  1.
        -11    1    5    5    0    0 -0.22688003463E+03 -0.10090084907E+03  0.11112722987E+03  0.27203821914E+03  0.00000000000E+00 0. -1.
          4    1    6    6  503    0  0.32489707138E+02 -0.19627937394E+03 -0.34507106759E+03  0.39831547219E+03  0.00000000000E+00 0.  1.
         -4    1    6    6    0  503 -0.15158077310E+02  0.12673996317E+00 -0.48521639963E+02  0.50834367464E+02  0.00000000000E+00 0. -1.
<mgrwt>
<rscale>  0 0.18017296E+04</rscale>
<asrwt>0</asrwt>
<pdfrwt beam="1">  1        2 0.14468778E+00 0.18017296E+04</pdfrwt>
<pdfrwt beam="2">  1       -1 0.13275800E+00 0.18017296E+04</pdfrwt>
<totfact> 0.14267246E+01</totfact>
</mgrwt>
</event>
<event>
12    6  0.1529770E-007  0.1435652E+04  0.7818608E-02  0.8928409E-01
          2   -1    0    0  501    0  0.00000000000E+00  0.00000000000E+00  0.14087674435E+04  0.14087674435E+04  0.00000000000E+00 0. -1.
         -1   -1    0    0    0  501 -0.00000000000E+00 -0.00000000000E+00 -0.36576218339E+03  0.36576218339E+03  0.00000000000E+00 0.  1.
         24    2    1    2    0    0  0.17101902426E+03 -0.24222823425E+03  0.71156794848E+03  0.77508474945E+03  0.80656056144E+02 0.  0.
        254    2    1    2    0    0 -0.17101902426E+03  0.24222823425E+03  0.33143731166E+03  0.99944487747E+03  0.89505158924E+03 0.  0.
         23    2    4    4    0    0 -0.28309633061E+03  0.52800931291E+03  0.30666387918E+03  0.67859269766E+03  0.86648413746E+02 0.  0.
         23    2    4    4    0    0  0.11207730634E+03 -0.28578107865E+03  0.24773432477E+02  0.32085217980E+03  0.90001393400E+02 0.  0.
          2    1    3    3  502    0  0.17118815049E+03 -0.19308564819E+03  0.59024585900E+03  0.64418756932E+03  0.00000000000E+00 0. -1.
         -1    1    3    3    0  502 -0.16912622316E+00 -0.49142586065E+02  0.12132208948E+03  0.13089718013E+03  0.00000000000E+00 0.  1.
         11    1    5    5    0    0 -0.34968746429E+02  0.73458190474E+02  0.77243292284E+02  0.11218487054E+03  0.00000000000E+00 0. -1.
        -11    1    5    5    0    0 -0.24812758418E+03  0.45455112243E+03  0.22942058690E+03  0.56640782713E+03  0.00000000000E+00 0.  1.
          3    1    6    6  503    0  0.12572760090E+03 -0.22869524035E+03  0.15581644509E+02  0.26144163829E+03  0.00000000000E+00 0. -1.
         -3    1    6    6    0  503 -0.13650294560E+02 -0.57085838305E+02  0.91917879681E+01  0.59410541511E+02  0.00000000000E+00 0.  1.
<mgrwt>
<rscale>  0 0.14356516E+04</rscale>
<asrwt>0</asrwt>
<pdfrwt beam="1">  1        2 0.21673345E+00 0.14356516E+04</pdfrwt>
<pdfrwt beam="2">  1       -1 0.56271106E-01 0.14356516E+04</pdfrwt>
<totfact> 0.50570243E+01</totfact>
</mgrwt>
</event>
<event>
12    6  0.1529770E-007  0.2963736E+04  0.7818608E-02  0.8254163E-01
          2   -1    0    0  501    0  0.00000000000E+00  0.00000000000E+00  0.95084002354E+03  0.95084002354E+03  0.00000000000E+00 0. -1.
         -1   -1    0    0    0  501 -0.00000000000E+00 -0.00000000000E+00 -0.23094661067E+04  0.23094661067E+04  0.00000000000E+00 0.  1.
         24    2    1    2    0    0  0.94208508230E+03 -0.95951834339E+03 -0.60611104072E+03  0.14772390034E+04  0.81637772991E+02 0.  0.
        254    2    1    2    0    0 -0.94208508230E+03  0.95951834339E+03 -0.75251504242E+03  0.17830671268E+04  0.89713417946E+03 0.  0.
         23    2    4    4    0    0 -0.84371797992E+03  0.92578998630E+03 -0.92654296929E+03  0.15606242980E+04  0.90106587301E+02 0.  0.
         23    2    4    4    0    0 -0.98367102379E+02  0.33728357091E+02  0.17402792687E+03  0.22244282882E+03  0.91550007421E+02 0.  0.
          2    1    3    3  502    0  0.83089326028E+03 -0.83010041101E+03 -0.50141324316E+03  0.12770534612E+04  0.00000000000E+00 0. -1.
         -1    1    3    3    0  502  0.11119182202E+03 -0.12941793238E+03 -0.10469779755E+03  0.20018554223E+03  0.00000000000E+00 0.  1.
         11    1    5    5    0    0 -0.62462296187E+03  0.72084276521E+03 -0.74152800193E+03  0.12081522728E+04  0.00000000000E+00 0. -1.
        -11    1    5    5    0    0 -0.21909501805E+03  0.20494722109E+03 -0.18501496736E+03  0.35247202515E+03  0.00000000000E+00 0.  1.
          2    1    6    6  503    0 -0.77994228953E+02  0.55237687941E+02  0.16632965341E+03  0.19183288436E+03  0.00000000000E+00 0. -1.
         -2    1    6    6    0  503 -0.20372873425E+02 -0.21509330851E+02  0.76982734607E+01  0.30609944455E+02  0.00000000000E+00 0.  1.
<mgrwt>
<rscale>  0 0.29637360E+04</rscale>
<asrwt>0</asrwt>
<pdfrwt beam="1">  1        2 0.14628308E+00 0.29637360E+04</pdfrwt>
<pdfrwt beam="2">  1       -1 0.35530247E+00 0.29637360E+04</pdfrwt>
<totfact> 0.38005520E-01</totfact>
</mgrwt>
</event>
<event>
12    6  0.1529770E-007  0.1212578E+04  0.7818608E-02  0.9101918E-01
          2   -1    0    0  501    0  0.00000000000E+00  0.00000000000E+00  0.68109210908E+03  0.68109210908E+03  0.00000000000E+00 0. -1.
         -1   -1    0    0    0  501 -0.00000000000E+00 -0.00000000000E+00 -0.53970102601E+03  0.53970102601E+03  0.00000000000E+00 0.  1.
         24    2    1    2    0    0  0.10251302353E+03 -0.16308210941E+03  0.20891303543E+03  0.29559802074E+03  0.81417682911E+02 0.  0.
        254    2    1    2    0    0 -0.10251302353E+03  0.16308210941E+03 -0.67521952360E+02  0.92519511435E+03  0.90239796717E+03 0.  0.
         23    2    4    4    0    0 -0.40517062865E+03 -0.15219425543E+03 -0.15805745692E+03  0.46972537727E+03  0.91287680756E+02 0.  0.
         23    2    4    4    0    0  0.30265760512E+03  0.31527636484E+03  0.90535504563E+02  0.45546973707E+03  0.90858085127E+02 0.  0.
          4    1    3    3  502    0  0.86887385940E+02 -0.15669896281E+03  0.21289118710E+03  0.27825642908E+03  0.00000000000E+00 0. -1.
         -3    1    3    3    0  502  0.15625637589E+02 -0.63831466019E+01 -0.39781516685E+01  0.17341591660E+02  0.00000000000E+00 0.  1.
         11    1    5    5    0    0 -0.12917273401E+03 -0.44657875770E+01 -0.48970459608E+02  0.13821593390E+03  0.00000000000E+00 0.  1.
        -11    1    5    5    0    0 -0.27599789464E+03 -0.14772846785E+03 -0.10908699732E+03  0.33150944337E+03  0.00000000000E+00 0. -1.
          4    1    6    6  503    0  0.18691297690E+03  0.25345916078E+03  0.70657734067E+02  0.32275458556E+03  0.00000000000E+00 0. -1.
         -4    1    6    6    0  503  0.11574462822E+03  0.61817204067E+02  0.19877770496E+02  0.13271515151E+03  0.00000000000E+00 0.  1.
<mgrwt>
<rscale>  0 0.12125776E+04</rscale>
<asrwt>0</asrwt>
<pdfrwt beam="1">  1        2 0.10478340E+00 0.12125776E+04</pdfrwt>
<pdfrwt beam="2">  1       -1 0.83030927E-01 0.12125776E+04</pdfrwt>
<totfact> 0.68839157E+01</totfact>
</mgrwt>
</event>
<event>
12    6  0.1529770E-007  0.1705742E+04  0.7818608E-02  0.8758096E-01
         -1   -1    0    0    0  501 -0.00000000000E+00  0.00000000000E+00  0.20806594602E+03  0.20806594602E+03  0.00000000000E+00 0.  1.
          2   -1    0    0  501    0  0.00000000000E+00 -0.00000000000E+00 -0.34959538940E+04  0.34959538940E+04  0.00000000000E+00 0. -1.
         24    2    1    2    0    0 -0.59821081802E+02  0.47350432160E+03 -0.36459771596E+03  0.60583533626E+03  0.79498778475E+02 0.  0.
        254    2    1    2    0    0  0.59821081802E+02 -0.47350432160E+03 -0.29232902320E+04  0.30981845038E+04  0.90848034339E+03 0.  0.
         23    2    4    4    0    0  0.23950795530E+03 -0.68615786407E+03 -0.21369168214E+04  0.22590388557E+04  0.93093366274E+02 0.  0.
         23    2    4    4    0    0 -0.17968687350E+03  0.21265354247E+03 -0.78637341067E+03  0.83914564812E+03  0.90958100892E+02 0.  0.
          2    1    3    3  502    0 -0.55362606013E+02  0.14508269055E+03 -0.12296736834E+03  0.19807821414E+03  0.00000000000E+00 0. -1.
         -1    1    3    3    0  502 -0.44584757889E+01  0.32842163104E+03 -0.24163034762E+03  0.40775712211E+03  0.00000000000E+00 0.  1.
         11    1    5    5    0    0  0.11555592301E+03 -0.39462114319E+03 -0.10784222638E+04  0.11541549276E+04  0.00000000000E+00 0.  1.
        -11    1    5    5    0    0  0.12395203229E+03 -0.29153672088E+03 -0.10584945576E+04  0.11048839280E+04  0.00000000000E+00 0. -1.
          1    1    6    6  503    0 -0.17061025347E+03  0.18000194847E+03 -0.59217405249E+03  0.64201142395E+03  0.00000000000E+00 0. -1.
         -1    1    6    6    0  503 -0.90766200336E+01  0.32651594007E+02 -0.19419935817E+03  0.19713422417E+03  0.00000000000E+00 0.  1.
<mgrwt>
<rscale>  0 0.17057420E+04</rscale>
<asrwt>0</asrwt>
<pdfrwt beam="1">  1        2 0.53783902E+00 0.17057420E+04</pdfrwt>
<pdfrwt beam="2">  1       -1 0.32010148E-01 0.17057420E+04</pdfrwt>
<totfact> 0.81430947E+00</totfact>
</mgrwt>
</event>
<event>
12    6  0.1529770E-007  0.1370794E+04  0.7818608E-02  0.8975235E-01
         -1   -1    0    0    0  501 -0.00000000000E+00  0.00000000000E+00  0.10226320719E+04  0.10226320719E+04  0.00000000000E+00 0.  1.
          2   -1    0    0  501    0  0.00000000000E+00 -0.00000000000E+00 -0.45937277416E+03  0.45937277416E+03  0.00000000000E+00 0. -1.
         24    2    1    2    0    0 -0.28715932966E+03  0.25533977678E+03  0.11169189308E+03  0.40872560646E+03  0.83202525073E+02 0.  0.
        254    2    1    2    0    0  0.28715932966E+03 -0.25533977678E+03  0.45156740463E+03  0.10732792396E+04  0.89462635940E+03 0.  0.
         23    2    4    4    0    0  0.42959097178E+03 -0.20742160208E+02 -0.10013170072E+03  0.45070166834E+03  0.90149853662E+02 0.  0.
         23    2    4    4    0    0 -0.14243164212E+03 -0.23459761658E+03  0.55169910534E+03  0.62257757122E+03  0.88927582751E+02 0.  0.
          4    1    3    3  502    0 -0.26103397468E+03  0.24570547460E+03  0.81454858256E+02  0.36762047021E+03  0.00000000000E+00 0. -1.
         -3    1    3    3    0  502 -0.26125354986E+02  0.96343021876E+01  0.30237034820E+02  0.41105136255E+02  0.00000000000E+00 0.  1.
         11    1    5    5    0    0  0.25762832446E+03  0.21587799499E+02 -0.30163257578E+02  0.26028486080E+03  0.00000000000E+00 0.  1.
        -11    1    5    5    0    0  0.17196264732E+03 -0.42329959708E+02 -0.69968443138E+02  0.19041680755E+03  0.00000000000E+00 0. -1.
          1    1    6    6  503    0 -0.46892573842E+02 -0.10667766065E+03  0.32531514100E+03  0.34555604137E+03  0.00000000000E+00 0. -1.
         -1    1    6    6    0  503 -0.95539068274E+02 -0.12791995592E+03  0.22638396435E+03  0.27702152986E+03  0.00000000000E+00 0.  1.
<mgrwt>
<rscale>  0 0.13707944E+04</rscale>
<asrwt>0</asrwt>
<pdfrwt beam="1">  1        2 0.70672735E-01 0.13707944E+04</pdfrwt>
<pdfrwt beam="2">  1       -1 0.15732801E+00 0.13707944E+04</pdfrwt>
<totfact> 0.23206308E+01</totfact>
</mgrwt>
</event>
<event>
12    6  0.1529770E-007  0.1369342E+04  0.7818608E-02  0.8976314E-01
          2   -1    0    0  501    0  0.00000000000E+00  0.00000000000E+00  0.62741632216E+03  0.62741632216E+03  0.00000000000E+00 0. -1.
         -1   -1    0    0    0  501 -0.00000000000E+00 -0.00000000000E+00 -0.74715058278E+03  0.74715058278E+03  0.00000000000E+00 0.  1.
         24    2    1    2    0    0 -0.16055674147E+03  0.87261122070E+02 -0.36998930078E+03  0.42029508953E+03  0.79767844018E+02 0.  0.
        254    2    1    2    0    0  0.16055674147E+03 -0.87261122070E+02  0.25025504015E+03  0.95427181540E+03  0.90255977192E+03 0.  0.
         23    2    4    4    0    0 -0.14620324618E+03  0.84444801274E+02 -0.26287710343E+03  0.32579493464E+03  0.92366954431E+02 0.  0.
         23    2    4    4    0    0  0.30675998765E+03 -0.17170592334E+03  0.51313214359E+03  0.62847688076E+03  0.89966542330E+02 0.  0.
          4    1    3    3  502    0 -0.85331736551E+02  0.13829385974E+02 -0.11032470570E+03  0.14015811738E+03  0.00000000000E+00 0. -1.
         -3    1    3    3    0  502 -0.75225004917E+02  0.73431736095E+02 -0.25966459508E+03  0.28013697215E+03  0.00000000000E+00 0.  1.
         11    1    5    5    0    0 -0.12537181676E+03  0.96631999487E+02 -0.25549726984E+03  0.30055730012E+03  0.00000000000E+00 0. -1.
        -11    1    5    5    0    0 -0.20831429422E+02 -0.12187198213E+02 -0.73798335932E+01  0.25237634515E+02  0.00000000000E+00 0.  1.
          4    1    6    6  503    0  0.24816915974E+03 -0.11085553446E+03  0.33551232736E+03  0.43179324123E+03  0.00000000000E+00 0.  1.
         -4    1    6    6    0  503  0.58590827917E+02 -0.60850388881E+02  0.17761981622E+03  0.19668363953E+03  0.00000000000E+00 0. -1.
<mgrwt>
<rscale>  0 0.13693421E+04</rscale>
<asrwt>0</asrwt>
<pdfrwt beam="1">  1        2 0.96525589E-01 0.13693421E+04</pdfrwt>
<pdfrwt beam="2">  1       -1 0.11494624E+00 0.13693421E+04</pdfrwt>
<totfact> 0.35986296E+01</totfact>
</mgrwt>
</event>
<event>
12    6  0.1529770E-007  0.1509512E+04  0.7818608E-02  0.8878152E-01
          2   -1    0    0  501    0  0.00000000000E+00  0.00000000000E+00  0.15644984356E+04  0.15644984356E+04  0.00000000000E+00 0. -1.
         -1   -1    0    0    0  501 -0.00000000000E+00 -0.00000000000E+00 -0.36411451042E+03  0.36411451042E+03  0.00000000000E+00 0.  1.
         24    2    1    2    0    0 -0.16038243665E+03  0.29411102025E+03 -0.50685086755E+02  0.34755621116E+03  0.77475955508E+02 0.  0.
        254    2    1    2    0    0  0.16038243665E+03 -0.29411102025E+03  0.12510690119E+04  0.15810567349E+04  0.90683124562E+03 0.  0.
         23    2    4    4    0    0  0.28626826574E+03  0.23219552282E+03  0.73603060672E+03  0.82849948910E+03  0.93840655441E+02 0.  0.
         23    2    4    4    0    0 -0.12588582909E+03 -0.52630654307E+03  0.51503840522E+03  0.75255724578E+03  0.90730535481E+02 0.  0.
          2    1    3    3  502    0 -0.90559787331E+02  0.91513396835E+02 -0.75646319938E+01  0.12896899061E+03  0.00000000000E+00 0. -1.
         -1    1    3    3    0  502 -0.69822649319E+02  0.20259762341E+03 -0.43120454761E+02  0.21858722055E+03  0.00000000000E+00 0.  1.
         11    1    5    5    0    0  0.43257897121E+02  0.60186775113E+02  0.86015919200E+02  0.11354484540E+03  0.00000000000E+00 0.  1.
        -11    1    5    5    0    0  0.24301036862E+03  0.17200874771E+03  0.65001468752E+03  0.71495464370E+03  0.00000000000E+00 0. -1.
          1    1    6    6  503    0 -0.33885354676E+02 -0.90510398050E+02  0.50707985543E+02  0.10914050217E+03  0.00000000000E+00 0. -1.
         -1    1    6    6    0  503 -0.92000474413E+02 -0.43579614502E+03  0.46433041968E+03  0.64341674360E+03  0.00000000000E+00 0.  1.
<mgrwt>
<rscale>  0 0.15095120E+04</rscale>
<asrwt>0</asrwt>
<pdfrwt beam="1">  1        2 0.24069206E+00 0.15095120E+04</pdfrwt>
<pdfrwt beam="2">  1       -1 0.56017618E-01 0.15095120E+04</pdfrwt>
<totfact> 0.41403873E+01</totfact>
</mgrwt>
</event>
<event>
12    6  0.1529770E-007  0.1347440E+04  0.7818608E-02  0.8992768E-01
          2   -1    0    0  501    0  0.00000000000E+00  0.00000000000E+00  0.27905100550E+03  0.27905100550E+03  0.00000000000E+00 0. -1.
         -1   -1    0    0    0  501 -0.00000000000E+00 -0.00000000000E+00 -0.16265798204E+04  0.16265798204E+04  0.00000000000E+00 0.  1.
         24    2    1    2    0    0 -0.36027741159E+03 -0.62008223602E+01 -0.44585289081E+03  0.57868817803E+03  0.79100844758E+02 0.  0.
        254    2    1    2    0    0  0.36027741159E+03  0.62008223602E+01 -0.90167592406E+03  0.13269426479E+04  0.90438877435E+03 0.  0.
         23    2    4    4    0    0  0.84504412747E+02 -0.36557141486E+03 -0.72659787521E+03  0.82370553533E+03  0.98807294963E+02 0.  0.
         23    2    4    4    0    0  0.27577299884E+03  0.37177223722E+03 -0.17507804886E+03  0.50323711253E+03  0.91268422697E+02 0.  0.
          2    1    3    3  502    0 -0.16272275075E+02  0.17713262338E+02 -0.27517006096E+02  0.36547670559E+02  0.00000000000E+00 0. -1.
         -1    1    3    3    0  502 -0.34400513651E+03 -0.23914084698E+02 -0.41833588472E+03  0.54214050747E+03  0.00000000000E+00 0.  1.
         11    1    5    5    0    0  0.35916726624E+02 -0.45305967661E+02 -0.64535802864E+02  0.86645898970E+02  0.00000000000E+00 0. -1.
        -11    1    5    5    0    0  0.48587686123E+02 -0.32026544719E+03 -0.66206207234E+03  0.73705963636E+03  0.00000000000E+00 0.  1.
          1    1    6    6  503    0  0.34556910762E+02  0.65567195105E+02 -0.63977664048E+02  0.97910053888E+02  0.00000000000E+00 0. -1.
         -1    1    6    6    0  503  0.24121608808E+03  0.30620504211E+03 -0.11110038481E+03  0.40532705864E+03  0.00000000000E+00 0.  1.
<mgrwt>
<rscale>  0 0.13474401E+04</rscale>
<asrwt>0</asrwt>
<pdfrwt beam="1">  1        2 0.42930924E-01 0.13474401E+04</pdfrwt>
<pdfrwt beam="2">  1       -1 0.25024305E+00 0.13474401E+04</pdfrwt>
<totfact> 0.92670038E+00</totfact>
</mgrwt>
</event>
<event>
12    6  0.1529770E-007  0.2179125E+04  0.7818608E-02  0.8527167E-01
         -1   -1    0    0    0  501 -0.00000000000E+00  0.00000000000E+00  0.71655243628E+03  0.71655243628E+03  0.00000000000E+00 0.  1.
          2   -1    0    0  501    0  0.00000000000E+00 -0.00000000000E+00 -0.16567467699E+04  0.16567467699E+04  0.00000000000E+00 0. -1.
         24    2    1    2    0    0 -0.75376982357E+03 -0.50099912028E+03 -0.41808952549E+03  0.10002358476E+04  0.80646352290E+02 0.  0.
        254    2    1    2    0    0  0.75376982357E+03  0.50099912028E+03 -0.52210480812E+03  0.13730633585E+04  0.89080889670E+03 0.  0.
         23    2    4    4    0    0 -0.48437965176E+02  0.23595895953E+03  0.14255604416E+03  0.29413418029E+03  0.90387074482E+02 0.  0.
         23    2    4    4    0    0  0.80220778875E+03  0.26504016075E+03 -0.66466085229E+03  0.10789291782E+04  0.92360705833E+02 0.  0.
          4    1    3    3  502    0 -0.41639886799E+02 -0.52700476133E+02 -0.29529747872E+02  0.73370473398E+02  0.00000000000E+00 0. -1.
         -3    1    3    3    0  502 -0.71212993677E+03 -0.44829864414E+03 -0.38855977761E+03  0.92686537424E+03  0.00000000000E+00 0.  1.
         11    1    5    5    0    0 -0.51992951845E+02  0.23656962234E+03  0.11820913732E+03  0.26952152679E+03  0.00000000000E+00 0. -1.
        -11    1    5    5    0    0  0.35549866683E+01 -0.61066281297E+00  0.24346906848E+02  0.24612653501E+02  0.00000000000E+00 0.  1.
          4    1    6    6  503    0  0.34786591886E+03  0.94983575724E+02 -0.33664871602E+03  0.49332031699E+03  0.00000000000E+00 0. -1.
         -4    1    6    6    0  503  0.45434186989E+03  0.17005658503E+03 -0.32801213626E+03  0.58560886125E+03  0.00000000000E+00 0.  1.
<mgrwt>
<rscale>  0 0.21791245E+04</rscale>
<asrwt>0</asrwt>
<pdfrwt beam="1">  1        2 0.25488411E+00 0.21791245E+04</pdfrwt>
<pdfrwt beam="2">  1       -1 0.11023884E+00 0.21791245E+04</pdfrwt>
<totfact> 0.82075245E+00</totfact>
</mgrwt>
</event>
<event>
12    6  0.1529770E-007  0.1180867E+04  0.7818608E-02  0.9129771E-01
         -1   -1    0    0    0  501 -0.00000000000E+00  0.00000000000E+00  0.28216900244E+03  0.28216900244E+03  0.00000000000E+00 0.  1.
          2   -1    0    0  501    0  0.00000000000E+00 -0.00000000000E+00 -0.12354705386E+04  0.12354705386E+04  0.00000000000E+00 0. -1.
         24    2    1    2    0    0  0.14780569625E+03 -0.19269853634E+03 -0.19095173519E+03  0.31861231451E+03  0.77922987824E+02 0.  0.
        254    2    1    2    0    0 -0.14780569625E+03  0.19269853634E+03 -0.76234980102E+03  0.11990272266E+04  0.89303405378E+03 0.  0.
         23    2    4    4    0    0 -0.99391374934E+02  0.17487788222E+03 -0.95439086774E+03  0.97971627687E+03  0.92309997545E+02 0.  0.
         23    2    4    4    0    0 -0.48414321314E+02  0.17820654119E+02  0.19204106672E+03  0.21931094971E+03  0.92498643948E+02 0.  0.
          2    1    3    3  502    0  0.78920140884E+02 -0.13989658245E+03 -0.15931586200E+03  0.22623215135E+03  0.00000000000E+00 0. -1.
         -1    1    3    3    0  502  0.68885555364E+02 -0.52801953895E+02 -0.31635873187E+02  0.92380163159E+02  0.00000000000E+00 0.  1.
         11    1    5    5    0    0 -0.13455566613E+02  0.10155554051E+02 -0.16459525840E+02  0.23560635430E+02  0.00000000000E+00 0.  1.
        -11    1    5    5    0    0 -0.85935808321E+02  0.16472232817E+03 -0.93793134190E+03  0.95615564144E+03  0.00000000000E+00 0. -1.
          3    1    6    6  503    0 -0.56558012770E+02  0.45751810365E+02  0.16151168694E+03  0.17713853895E+03  0.00000000000E+00 0. -1.
         -3    1    6    6    0  503  0.81436914565E+01 -0.27931156246E+02  0.30529379776E+02  0.42172410760E+02  0.00000000000E+00 0.  1.
<mgrwt>
<rscale>  0 0.11808666E+04</rscale>
<asrwt>0</asrwt>
<pdfrwt beam="1">  1        2 0.19007239E+00 0.11808666E+04</pdfrwt>
<pdfrwt beam="2">  1       -1 0.43410615E-01 0.11808666E+04</pdfrwt>
<totfact> 0.10634568E+02</totfact>
</mgrwt>
</event>
<event>
12    6  0.1529770E-007  0.1223898E+04  0.7818608E-02  0.9092192E-01
          2   -1    0    0  501    0  0.00000000000E+00  0.00000000000E+00  0.97743635369E+03  0.97743635369E+03  0.00000000000E+00 0. -1.
         -1   -1    0    0    0  501 -0.00000000000E+00 -0.00000000000E+00 -0.38312642670E+03  0.38312642670E+03  0.00000000000E+00 0.  1.
         24    2    1    2    0    0  0.91422929863E+02  0.45885048006E+02 -0.14296584825E+03  0.19331359629E+03  0.80419668040E+02 0.  0.
        254    2    1    2    0    0 -0.91422929863E+02 -0.45885048006E+02  0.73727577524E+03  0.11672491841E+04  0.89912818846E+03 0.  0.
         23    2    4    4    0    0  0.95861929980E+02 -0.13428172044E+03 -0.15628958734E+03  0.24497922525E+03  0.91472922917E+02 0.  0.
         23    2    4    4    0    0 -0.18728485984E+03  0.88396672430E+02  0.89356536259E+03  0.92226995885E+03  0.96089694393E+02 0.  0.
          2    1    3    3  502    0  0.32793958154E+02  0.19760977888E+02 -0.19035295048E+01  0.38334884414E+02  0.00000000000E+00 0. -1.
         -1    1    3    3    0  502  0.58628971709E+02  0.26124070118E+02 -0.14106231875E+03  0.15497871187E+03  0.00000000000E+00 0.  1.
         11    1    5    5    0    0  0.12027184001E+02  0.50239718879E+01  0.67912573606E+01  0.14697436003E+02  0.00000000000E+00 0.  1.
        -11    1    5    5    0    0  0.83834745979E+02 -0.13930569232E+03 -0.16308084470E+03  0.23028178924E+03  0.00000000000E+00 0. -1.
          1    1    6    6  503    0 -0.12910132008E+03  0.65978987545E+02  0.77359152896E+03  0.78706050043E+03  0.00000000000E+00 0. -1.
         -1    1    6    6    0  503 -0.58183539761E+02  0.22417684886E+02  0.11997383362E+03  0.13520945843E+03  0.00000000000E+00 0.  1.
<mgrwt>
<rscale>  0 0.12238982E+04</rscale>
<asrwt>0</asrwt>
<pdfrwt beam="1">  1        2 0.15037482E+00 0.12238982E+04</pdfrwt>
<pdfrwt beam="2">  1       -1 0.58942528E-01 0.12238982E+04</pdfrwt>
<totfact> 0.85414830E+01</totfact>
</mgrwt>
</event>
<event>
12    6  0.1529770E-007  0.1462534E+04  0.7818608E-02  0.8909757E-01
         -1   -1    0    0    0  501 -0.00000000000E+00  0.00000000000E+00  0.93175562502E+03  0.93175562502E+03  0.00000000000E+00 0.  1.
          2   -1    0    0  501    0  0.00000000000E+00 -0.00000000000E+00 -0.57391840975E+03  0.57391840975E+03  0.00000000000E+00 0. -1.
         24    2    1    2    0    0  0.21232267790E+03  0.38928512096E+03  0.82460330730E+02  0.45806165138E+03  0.79980906247E+02 0.  0.
        254    2    1    2    0    0 -0.21232267790E+03 -0.38928512096E+03  0.27537688454E+03  0.10476123834E+04  0.90831462189E+03 0.  0.
         23    2    4    4    0    0 -0.30416866336E+03  0.19001844053E+03 -0.45744262946E+02  0.37301039527E+03  0.91753113690E+02 0.  0.
         23    2    4    4    0    0  0.91845985460E+02 -0.57930356150E+03  0.32112114749E+03  0.67460198812E+03  0.89110883789E+02 0.  0.
          2    1    3    3  502    0  0.23545537927E+02  0.47807677411E+02  0.37786735763E+02  0.65328430069E+02  0.00000000000E+00 0. -1.
         -1    1    3    3    0  502  0.18877713998E+03  0.34147744355E+03  0.44673594967E+02  0.39273322131E+03  0.00000000000E+00 0.  1.
         11    1    5    5    0    0 -0.16770606491E+03  0.13857991678E+03 -0.62144507141E+02  0.22625573431E+03  0.00000000000E+00 0. -1.
        -11    1    5    5    0    0 -0.13646259845E+03  0.51438523756E+02  0.16400244195E+02  0.14675466096E+03  0.00000000000E+00 0.  1.
          4    1    6    6  503    0  0.93025297833E+02 -0.46823586366E+03  0.22518189730E+03  0.52783086014E+03  0.00000000000E+00 0. -1.
         -4    1    6    6    0  503 -0.11793123729E+01 -0.11106769784E+03  0.95939250191E+02  0.14677112798E+03  0.00000000000E+00 0.  1.
<mgrwt>
<rscale>  0 0.14625344E+04</rscale>
<asrwt>0</asrwt>
<pdfrwt beam="1">  1        2 0.88295140E-01 0.14625344E+04</pdfrwt>
<pdfrwt beam="2">  1       -1 0.14334702E+00 0.14625344E+04</pdfrwt>
<totfact> 0.22824805E+01</totfact>
</mgrwt>
</event>
<event>
12    6  0.1529770E-007  0.2261689E+04  0.7818608E-02  0.8493181E-01
          2   -1    0    0  501    0  0.00000000000E+00  0.00000000000E+00  0.16923446114E+04  0.16923446114E+04  0.00000000000E+00 0. -1.
         -1   -1    0    0    0  501 -0.00000000000E+00 -0.00000000000E+00 -0.75564386566E+03  0.75564386566E+03  0.00000000000E+00 0.  1.
         24    2    1    2    0    0 -0.80083583525E+03 -0.49030015317E+03  0.28105837329E+03  0.98361618821E+03  0.82308695057E+02 0.  0.
        254    2    1    2    0    0  0.80083583525E+03  0.49030015317E+03  0.65564237243E+03  0.14643722888E+04  0.91257164352E+03 0.  0.
         23    2    4    4    0    0  0.71313966312E+03  0.24794829744E+03  0.71359182883E+01  0.76063055636E+03  0.91985784890E+02 0.  0.
         23    2    4    4    0    0  0.87696172132E+02  0.24235185574E+03  0.64850645414E+03  0.70374173248E+03  0.90921748659E+02 0.  0.
          2    1    3    3  502    0 -0.28397919995E+03 -0.17475908363E+03  0.59006354705E+02  0.33862467897E+03  0.00000000000E+00 0. -1.
         -1    1    3    3    0  502 -0.51685663530E+03 -0.31554106954E+03  0.22205201858E+03  0.64499150923E+03  0.00000000000E+00 0.  1.
         11    1    5    5    0    0  0.13481158450E+03  0.10221320646E+02 -0.38240964675E+01  0.13525258750E+03  0.00000000000E+00 0.  1.
        -11    1    5    5    0    0  0.57832807862E+03  0.23772697679E+03  0.10960014756E+02  0.62537796886E+03  0.00000000000E+00 0. -1.
          3    1    6    6  503    0  0.11652366184E+01  0.10088330282E+03  0.32356859477E+03  0.33893278698E+03  0.00000000000E+00 0. -1.
         -3    1    6    6    0  503  0.86530935514E+02  0.14146855292E+03  0.32493785937E+03  0.36480894550E+03  0.00000000000E+00 0.  1.
<mgrwt>
<rscale>  0 0.22616895E+04</rscale>
<asrwt>0</asrwt>
<pdfrwt beam="1">  1        2 0.26036071E+00 0.22616895E+04</pdfrwt>
<pdfrwt beam="2">  1       -1 0.11625290E+00 0.22616895E+04</pdfrwt>
<totfact> 0.68586557E+00</totfact>
</mgrwt>
</event>
<event>
12    6  0.1529770E-007  0.2997213E+04  0.7818608E-02  0.8244527E-01
          2   -1    0    0  501    0  0.00000000000E+00  0.00000000000E+00  0.12938529681E+04  0.12938529681E+04  0.00000000000E+00 0. -1.
         -1   -1    0    0    0  501 -0.00000000000E+00 -0.00000000000E+00 -0.17357629053E+04  0.17357629053E+04  0.00000000000E+00 0.  1.
         24    2    1    2    0    0 -0.53670550427E+03  0.10694328915E+04  0.45846420327E+03  0.12837482965E+04  0.77979197821E+02 0.  0.
        254    2    1    2    0    0  0.53670550427E+03 -0.10694328915E+04 -0.90037414047E+03  0.17458675770E+04  0.89757478561E+03 0.  0.
         23    2    4    4    0    0  0.22557222244E+03 -0.77717336471E+03 -0.82003769716E+02  0.81854847404E+03  0.91737232068E+02 0.  0.
         23    2    4    4    0    0  0.31113328183E+03 -0.29225952677E+03 -0.81837037075E+03  0.92731910292E+03  0.89281044290E+02 0.  0.
          4    1    3    3  502    0 -0.46644174599E+03  0.88532405371E+03  0.36011214656E+03  0.10635070947E+04  0.00000000000E+00 0. -1.
         -3    1    3    3    0  502 -0.70263758284E+02  0.18410883777E+03  0.98352056716E+02  0.22024120172E+03  0.00000000000E+00 0.  1.
         11    1    5    5    0    0  0.22382363201E+03 -0.70861995486E+03 -0.93599079806E+02  0.74899936342E+03  0.00000000000E+00 0. -1.
        -11    1    5    5    0    0  0.17485904321E+01 -0.68553409855E+02  0.11595310091E+02  0.69549110615E+02  0.00000000000E+00 0.  1.
          1    1    6    6  503    0  0.92647506512E+02 -0.12630722729E+03 -0.23194372187E+03  0.27988384419E+03  0.00000000000E+00 0.  1.
         -1    1    6    6    0  503  0.21848577532E+03 -0.16595229948E+03 -0.58642664889E+03  0.64743525873E+03  0.00000000000E+00 0. -1.
<mgrwt>
<rscale>  0 0.29972134E+04</rscale>
<asrwt>0</asrwt>
<pdfrwt beam="1">  1        2 0.19905430E+00 0.29972134E+04</pdfrwt>
<pdfrwt beam="2">  1       -1 0.26704045E+00 0.29972134E+04</pdfrwt>
<totfact> 0.87791399E-01</totfact>
</mgrwt>
</event>
<event>
12    6  0.1529770E-007  0.2655133E+04  0.7818608E-02  0.8349711E-01
          2   -1    0    0  501    0  0.00000000000E+00  0.00000000000E+00  0.14361250725E+04  0.14361250725E+04  0.00000000000E+00 0. -1.
         -1   -1    0    0    0  501 -0.00000000000E+00 -0.00000000000E+00 -0.12272138777E+04  0.12272138777E+04  0.00000000000E+00 0.  1.
         24    2    1    2    0    0 -0.36265842603E+03 -0.42637974866E+03 -0.94580656499E+03  0.11020142981E+04  0.81022409690E+02 0.  0.
        254    2    1    2    0    0  0.36265842603E+03  0.42637974866E+03  0.11547177597E+04  0.15613246521E+04  0.88940471126E+03 0.  0.
         23    2    4    4    0    0  0.55873498202E+03  0.42126375919E+03  0.11450396784E+04  0.13450565982E+04  0.91724872405E+02 0.  0.
         23    2    4    4    0    0 -0.19607655600E+03  0.51159894678E+01  0.96780813556E+01  0.21626805390E+03  0.90587067059E+02 0.  0.
          2    1    3    3  502    0 -0.22015251892E+03 -0.23675652179E+03 -0.47137928393E+03  0.57159357197E+03  0.00000000000E+00 0. -1.
         -1    1    3    3    0  502 -0.14250590711E+03 -0.18962322686E+03 -0.47442728106E+03  0.53042072616E+03  0.00000000000E+00 0.  1.
         11    1    5    5    0    0  0.37882717156E+03  0.31494709015E+03  0.73491726325E+03  0.88476272487E+03  0.00000000000E+00 0. -1.
        -11    1    5    5    0    0  0.17990781047E+03  0.10631666904E+03  0.41012241514E+03  0.46029387328E+03  0.00000000000E+00 0.  1.
          2    1    6    6  503    0 -0.20596225785E+03  0.64898421024E+01  0.95748858944E+01  0.20628681041E+03  0.00000000000E+00 0. -1.
         -2    1    6    6    0  503  0.98857018550E+01 -0.13738526346E+01  0.10319546126E+00  0.99812434862E+01  0.00000000000E+00 0.  1.
<mgrwt>
<rscale>  0 0.26551329E+04</rscale>
<asrwt>0</asrwt>
<pdfrwt beam="1">  1        2 0.22094232E+00 0.26551329E+04</pdfrwt>
<pdfrwt beam="2">  1       -1 0.18880214E+00 0.26551329E+04</pdfrwt>
<totfact> 0.24934616E+00</totfact>
</mgrwt>
</event>
<event>
12    6  0.1529770E-007  0.1886069E+04  0.7818608E-02  0.8661822E-01
         -1   -1    0    0    0  501 -0.00000000000E+00  0.00000000000E+00  0.22359483561E+04  0.22359483561E+04  0.00000000000E+00 0.  1.
          2   -1    0    0  501    0  0.00000000000E+00 -0.00000000000E+00 -0.39773444956E+03  0.39773444956E+03  0.00000000000E+00 0. -1.
         24    2    1    2    0    0 -0.50892009728E+03  0.32142384772E+03  0.12731003901E+04  0.14106891314E+04  0.83344267293E+02 0.  0.
        254    2    1    2    0    0  0.50892009728E+03 -0.32142384772E+03  0.56511351642E+03  0.12229936742E+04  0.90224569020E+03 0.  0.
         23    2    4    4    0    0  0.13710716566E+03  0.17154477897E+03 -0.14460008303E+03  0.27793646892E+03  0.90075028017E+02 0.  0.
         23    2    4    4    0    0  0.37181293162E+03 -0.49296862669E+03  0.70971359945E+03  0.94505720532E+03  0.90425688101E+02 0.  0.
          2    1    3    3  502    0  0.21102930768E+01 -0.15208584604E+01  0.10684505184E+02  0.10996590306E+02  0.00000000000E+00 0. -1.
         -1    1    3    3    0  502 -0.51103039036E+03  0.32294470618E+03  0.12624158849E+04  0.13996925411E+04  0.00000000000E+00 0.  1.
         11    1    5    5    0    0  0.14198609460E+03  0.14285320496E+03 -0.14605700961E+03  0.24879658213E+03  0.00000000000E+00 0. -1.
        -11    1    5    5    0    0 -0.48789289318E+01  0.28691574011E+02  0.14569265732E+01  0.29139886784E+02  0.00000000000E+00 0.  1.
          4    1    6    6  503    0  0.33400174750E+03 -0.38681114333E+03  0.59260592935E+03  0.78253550427E+03  0.00000000000E+00 0. -1.
         -4    1    6    6    0  503  0.37811184115E+02 -0.10615748336E+03  0.11710767010E+03  0.16252170105E+03  0.00000000000E+00 0.  1.
<mgrwt>
<rscale>  0 0.18860686E+04</rscale>
<asrwt>0</asrwt>
<pdfrwt beam="1">  1        2 0.61189917E-01 0.18860686E+04</pdfrwt>
<pdfrwt beam="2">  1       -1 0.34399205E+00 0.18860686E+04</pdfrwt>
<totfact> 0.14635329E+00</totfact>
</mgrwt>
</event>
<event>
12    6  0.1529770E-007  0.5479959E+04  0.7818608E-02  0.7758453E-01
         -1   -1    0    0    0  501 -0.00000000000E+00  0.00000000000E+00  0.30417578410E+04  0.30417578410E+04  0.00000000000E+00 0.  1.
          2   -1    0    0  501    0  0.00000000000E+00 -0.00000000000E+00 -0.24681412691E+04  0.24681412691E+04  0.00000000000E+00 0. -1.
         24    2    1    2    0    0 -0.25475780113E+04  0.77036638073E+03  0.41675544798E+03  0.26950751944E+04  0.78275897131E+02 0.  0.
        254    2    1    2    0    0  0.25475780113E+04 -0.77036638073E+03  0.15686112394E+03  0.28148239157E+04  0.90277914254E+03 0.  0.
         23    2    4    4    0    0  0.35059149278E+03 -0.34001746821E+03  0.28081549428E+03  0.57084016665E+03  0.92059114370E+02 0.  0.
         23    2    4    4    0    0  0.21969865185E+04 -0.43034891253E+03 -0.12395437034E+03  0.22439837491E+04  0.90268661130E+02 0.  0.
          4    1    3    3  502    0 -0.51553709344E+03  0.12809383800E+03  0.99824863166E+02  0.54051043408E+03  0.00000000000E+00 0. -1.
         -3    1    3    3    0  502 -0.20320409179E+04  0.64227254274E+03  0.31693058481E+03  0.21545647604E+04  0.00000000000E+00 0.  1.
         11    1    5    5    0    0  0.33179203160E+03 -0.32828000112E+03  0.28687958456E+03  0.54786276329E+03  0.00000000000E+00 0.  1.
        -11    1    5    5    0    0  0.18799461182E+02 -0.11737467092E+02 -0.60640902728E+01  0.22977403363E+02  0.00000000000E+00 0. -1.
          3    1    6    6  503    0  0.96204473307E+03 -0.22293750616E+03 -0.84079398087E+02  0.99111076337E+03  0.00000000000E+00 0. -1.
         -3    1    6    6    0  503  0.12349417854E+04 -0.20741140637E+03 -0.39874972256E+02  0.12528729857E+04  0.00000000000E+00 0.  1.
<mgrwt>
<rscale>  0 0.54799591E+04</rscale>
<asrwt>0</asrwt>
<pdfrwt beam="1">  1        2 0.37971404E+00 0.54799591E+04</pdfrwt>
<pdfrwt beam="2">  1       -1 0.46796275E+00 0.54799591E+04</pdfrwt>
<totfact> 0.70976668E-03</totfact>
</mgrwt>
</event>
<event>
12    6  0.1529770E-007  0.1741710E+04  0.7818608E-02  0.8737927E-01
         -1   -1    0    0    0  501 -0.00000000000E+00  0.00000000000E+00  0.12009046467E+04  0.12009046467E+04  0.00000000000E+00 0.  1.
          2   -1    0    0  501    0  0.00000000000E+00 -0.00000000000E+00 -0.63151409844E+03  0.63151409844E+03  0.00000000000E+00 0. -1.
         24    2    1    2    0    0  0.45446765341E+03 -0.44315884859E+03  0.14876646142E+03  0.65598694325E+03  0.72503769525E+02 0.  0.
        254    2    1    2    0    0 -0.45446765341E+03  0.44315884859E+03  0.42062408679E+03  0.11764318018E+04  0.89673661067E+03 0.  0.
         23    2    4    4    0    0 -0.40240713962E+03  0.51105583186E+03 -0.79832445794E+02  0.66008783625E+03  0.78950382298E+02 0.  0.
         23    2    4    4    0    0 -0.52060513795E+02 -0.67896983273E+02  0.50045653259E+03  0.51634396560E+03  0.93989639655E+02 0.  0.
          4    1    3    3  502    0  0.33243075652E+03 -0.33322049184E+03  0.77867042226E+02  0.47708424867E+03  0.00000000000E+00 0. -1.
         -3    1    3    3    0  502  0.12203689690E+03 -0.10993835674E+03  0.70899419193E+02  0.17890269458E+03  0.00000000000E+00 0.  1.
         11    1    5    5    0    0 -0.26138337472E+03  0.38937285393E+03 -0.58648718358E+02  0.47262264030E+03  0.00000000000E+00 0.  1.
        -11    1    5    5    0    0 -0.14102376490E+03  0.12168297793E+03 -0.21183727436E+02  0.18746519595E+03  0.00000000000E+00 0. -1.
          3    1    6    6  503    0 -0.29217430970E+02 -0.52679177771E+02  0.47533035143E+03  0.47913223335E+03  0.00000000000E+00 0.  1.
         -3    1    6    6    0  503 -0.22843082825E+02 -0.15217805502E+02  0.25126181160E+02  0.37211732248E+02  0.00000000000E+00 0. -1.
<mgrwt>
<rscale>  0 0.17417098E+04</rscale>
<asrwt>0</asrwt>
<pdfrwt beam="1">  1        2 0.97156015E-01 0.17417098E+04</pdfrwt>
<pdfrwt beam="2">  1       -1 0.18475456E+00 0.17417098E+04</pdfrwt>
<totfact> 0.97121761E+00</totfact>
</mgrwt>
</event>
<event>
12    6  0.1529770E-007  0.1317260E+04  0.7818608E-02  0.9015989E-01
         -1   -1    0    0    0  501 -0.00000000000E+00  0.00000000000E+00  0.22022850977E+03  0.22022850977E+03  0.00000000000E+00 0.  1.
          2   -1    0    0  501    0  0.00000000000E+00 -0.00000000000E+00 -0.19697429914E+04  0.19697429914E+04  0.00000000000E+00 0. -1.
         24    2    1    2    0    0  0.58020128784E+01  0.29237160198E+03 -0.72920374242E+03  0.78978322956E+03  0.80651315777E+02 0.  0.
        254    2    1    2    0    0 -0.58020128784E+01 -0.29237160198E+03 -0.10203107392E+04  0.14001882717E+04  0.91322416441E+03 0.  0.
         23    2    4    4    0    0  0.19500315669E+03 -0.56427134389E+03 -0.72544144287E+03  0.94433394477E+03  0.95251937275E+02 0.  0.
         23    2    4    4    0    0 -0.20080516957E+03  0.27189974191E+03 -0.29486929637E+03  0.45585432688E+03  0.81259335592E+02 0.  0.
          4    1    3    3  502    0  0.11908427179E+02  0.26360665752E+03 -0.70107346444E+03  0.74908896873E+03  0.00000000000E+00 0. -1.
         -3    1    3    3    0  502 -0.61064143007E+01  0.28764944462E+02 -0.28130277979E+02  0.40694260832E+02  0.00000000000E+00 0.  1.
         11    1    5    5    0    0  0.20585504240E+03 -0.54025680860E+03 -0.69662778732E+03  0.90528669038E+03  0.00000000000E+00 0.  1.
        -11    1    5    5    0    0 -0.10851885714E+02 -0.24014535293E+02 -0.28813655553E+02  0.39047254388E+02  0.00000000000E+00 0. -1.
          4    1    6    6  503    0 -0.97711692144E+02  0.16315632037E+03 -0.21130507634E+03  0.28428400403E+03  0.00000000000E+00 0.  1.
         -4    1    6    6    0  503 -0.10309347742E+03  0.10874342155E+03 -0.83564220023E+02  0.17157032285E+03  0.00000000000E+00 0. -1.
<mgrwt>
<rscale>  0 0.13172601E+04</rscale>
<asrwt>0</asrwt>
<pdfrwt beam="1">  1        2 0.30303739E+00 0.13172601E+04</pdfrwt>
<pdfrwt beam="2">  1       -1 0.33881308E-01 0.13172601E+04</pdfrwt>
<totfact> 0.63749816E+01</totfact>
</mgrwt>
</event>
<event>
12    6  0.1529770E-007  0.1555831E+04  0.7818608E-02  0.8848152E-01
          2   -1    0    0  501    0  0.00000000000E+00  0.00000000000E+00  0.26812535016E+04  0.26812535016E+04  0.00000000000E+00 0. -1.
         -1   -1    0    0    0  501 -0.00000000000E+00 -0.00000000000E+00 -0.22569775200E+03  0.22569775200E+03  0.00000000000E+00 0.  1.
         24    2    1    2    0    0 -0.18630997184E+03  0.45215149361E+03  0.10809899728E+04  0.11890678616E+04  0.78680870703E+02 0.  0.
        254    2    1    2    0    0  0.18630997184E+03 -0.45215149361E+03  0.13745657768E+04  0.17178833920E+04  0.90693985192E+03 0.  0.
         23    2    4    4    0    0 -0.28030853781E+02 -0.69025039557E+03  0.93683182474E+03  0.11676072667E+04  0.91768862595E+02 0.  0.
         23    2    4    4    0    0  0.21434082562E+03  0.23809890196E+03  0.43773395207E+03  0.55027612528E+03  0.92518779811E+02 0.  0.
          2    1    3    3  502    0 -0.18420796382E+03  0.38148185998E+03  0.89845160169E+03  0.99331579269E+03  0.00000000000E+00 0. -1.
         -1    1    3    3    0  502 -0.21020080211E+01  0.70669633623E+02  0.18253837108E+03  0.19575206888E+03  0.00000000000E+00 0.  1.
         11    1    5    5    0    0 -0.17546150209E+01 -0.63117105471E+03  0.86732780631E+03  0.10726777254E+04  0.00000000000E+00 0.  1.
        -11    1    5    5    0    0 -0.26276238760E+02 -0.59079340857E+02  0.69504018429E+02  0.94929541330E+02  0.00000000000E+00 0. -1.
          1    1    6    6  503    0  0.91796138543E+02  0.39953011239E+02  0.14353505640E+03  0.17500024736E+03  0.00000000000E+00 0. -1.
         -1    1    6    6    0  503  0.12254468708E+03  0.19814589072E+03  0.29419889566E+03  0.37527587792E+03  0.00000000000E+00 0.  1.
<mgrwt>
<rscale>  0 0.15558315E+04</rscale>
<asrwt>0</asrwt>
<pdfrwt beam="1">  1        2 0.41250052E+00 0.15558315E+04</pdfrwt>
<pdfrwt beam="2">  1       -1 0.34722733E-01 0.15558315E+04</pdfrwt>
<totfact> 0.23584656E+01</totfact>
</mgrwt>
</event>
<event>
12    6  0.1529770E-007  0.3211289E+04  0.7818608E-02  0.8185842E-01
         -1   -1    0    0    0  501 -0.00000000000E+00  0.00000000000E+00  0.99091020315E+03  0.99091020315E+03  0.00000000000E+00 0.  1.
          2   -1    0    0  501    0  0.00000000000E+00 -0.00000000000E+00 -0.26017442690E+04  0.26017442690E+04  0.00000000000E+00 0. -1.
         24    2    1    2    0    0  0.46800205202E+03 -0.13264026574E+04 -0.12872122564E+04  0.19083225367E+04  0.80059856705E+02 0.  0.
        254    2    1    2    0    0 -0.46800205202E+03  0.13264026574E+04 -0.32362180942E+03  0.16843319355E+04  0.86825863839E+03 0.  0.
         23    2    4    4    0    0 -0.23008280938E+00  0.37919054319E+02  0.19424736335E+03  0.21630680950E+03  0.87285107827E+02 0.  0.
         23    2    4    4    0    0 -0.46777196921E+03  0.12884836031E+04 -0.51786917277E+03  0.14680251260E+04  0.88930758847E+02 0.  0.
          4    1    3    3  502    0  0.44149498371E+03 -0.12701388007E+04 -0.12494308929E+04  0.18355511297E+04  0.00000000000E+00 0. -1.
         -3    1    3    3    0  502  0.26507068312E+02 -0.56263856713E+02 -0.37781363538E+02  0.72771406978E+02  0.00000000000E+00 0.  1.
         11    1    5    5    0    0  0.38062681774E+02 -0.38047441098E+01  0.86577854091E+02  0.94651828511E+02  0.00000000000E+00 0.  1.
        -11    1    5    5    0    0 -0.38292764584E+02  0.41723798429E+02  0.10766950926E+03  0.12165498099E+03  0.00000000000E+00 0. -1.
          2    1    6    6  503    0 -0.91835161159E+02  0.29097317532E+03 -0.15282314230E+03  0.34125356907E+03  0.00000000000E+00 0. -1.
         -2    1    6    6    0  503 -0.37593680805E+03  0.99751042774E+03 -0.36504603047E+03  0.11267715569E+04  0.00000000000E+00 0.  1.
<mgrwt>
<rscale>  0 0.32112894E+04</rscale>
<asrwt>0</asrwt>
<pdfrwt beam="1">  1        2 0.40026834E+00 0.32112894E+04</pdfrwt>
<pdfrwt beam="2">  1       -1 0.15244773E+00 0.32112894E+04</pdfrwt>
<totfact> 0.96888516E-01</totfact>
</mgrwt>
</event>
<event>
12    6  0.1529770E-007  0.1340602E+04  0.7818608E-02  0.8997973E-01
         -1   -1    0    0    0  501 -0.00000000000E+00  0.00000000000E+00  0.21719070990E+03  0.21719070990E+03  0.00000000000E+00 0.  1.
          2   -1    0    0  501    0  0.00000000000E+00 -0.00000000000E+00 -0.20687055179E+04  0.20687055179E+04  0.00000000000E+00 0. -1.
         24    2    1    2    0    0  0.26632174021E+03  0.10104472827E+03 -0.83686922351E+03  0.88845300819E+03  0.88664220944E+02 0.  0.
        254    2    1    2    0    0 -0.26632174021E+03 -0.10104472827E+03 -0.10146455845E+04  0.13974432196E+04  0.91771704979E+03 0.  0.
         23    2    4    4    0    0 -0.32341462464E+02  0.23291774122E+03  0.47501784392E+02  0.25615360483E+03  0.89786443191E+02 0.  0.
         23    2    4    4    0    0 -0.23398027774E+03 -0.33396246949E+03 -0.10621473688E+04  0.11412896147E+04  0.90040269752E+02 0.  0.
          4    1    3    3  502    0  0.17415985703E+03  0.10703914948E+03 -0.53294584307E+03  0.57080671594E+03  0.00000000000E+00 0. -1.
         -1    1    3    3    0  502  0.92161883181E+02 -0.59944212009E+01 -0.30392338045E+03  0.31764629225E+03  0.00000000000E+00 0.  1.
         11    1    5    5    0    0 -0.19374459541E+02  0.16335989828E+03 -0.10245475421E+02  0.16482352931E+03  0.00000000000E+00 0. -1.
        -11    1    5    5    0    0 -0.12967002923E+02  0.69557842940E+02  0.57747259813E+02  0.91330075524E+02  0.00000000000E+00 0.  1.
          2    1    6    6  503    0 -0.18613228082E+03 -0.28725841446E+03 -0.78846320390E+03  0.85955619162E+03  0.00000000000E+00 0. -1.
         -2    1    6    6    0  503 -0.47847996920E+02 -0.46704055033E+02 -0.27368416494E+03  0.28173342313E+03  0.00000000000E+00 0.  1.
<mgrwt>
<rscale>  0 0.13406023E+04</rscale>
<asrwt>0</asrwt>
<pdfrwt beam="1">  1        2 0.31826239E+00 0.13406023E+04</pdfrwt>
<pdfrwt beam="2">  1       -1 0.33413956E-01 0.13406023E+04</pdfrwt>
<totfact> 0.57486341E+01</totfact>
</mgrwt>
</event>
<event>
12    6  0.1529770E-007  0.1718441E+04  0.7818608E-02  0.8750916E-01
          2   -1    0    0  501    0  0.00000000000E+00  0.00000000000E+00  0.21579816336E+04  0.21579816336E+04  0.00000000000E+00 0. -1.
         -1   -1    0    0    0  501 -0.00000000000E+00 -0.00000000000E+00 -0.34210648036E+03  0.34210648036E+03  0.00000000000E+00 0.  1.
         24    2    1    2    0    0  0.26640301972E+03 -0.35740578696E+03  0.31705918848E+02  0.45395607338E+03  0.79758296145E+02 0.  0.
        254    2    1    2    0    0 -0.26640301972E+03  0.35740578696E+03  0.17841692344E+04  0.20461320405E+04  0.89704347999E+03 0.  0.
         23    2    4    4    0    0 -0.50536063632E+03  0.34773461766E+03  0.16372779824E+04  0.17507855931E+04  0.90896997021E+02 0.  0.
         23    2    4    4    0    0  0.23895761660E+03  0.96711693045E+01  0.14689125194E+03  0.29534644748E+03  0.91968527737E+02 0.  0.
          4    1    3    3  502    0  0.22888863397E+02 -0.77388006209E+02 -0.61639561399E+01  0.80936999746E+02  0.00000000000E+00 0. -1.
         -1    1    3    3    0  502  0.24351415632E+03 -0.28001778075E+03  0.37869874988E+02  0.37301907364E+03  0.00000000000E+00 0.  1.
         11    1    5    5    0    0 -0.11448715287E+03  0.58950795514E+02  0.44526541208E+03  0.46351245038E+03  0.00000000000E+00 0.  1.
        -11    1    5    5    0    0 -0.39087348345E+03  0.28878382214E+03  0.11920125703E+04  0.12872731427E+04  0.00000000000E+00 0. -1.
          3    1    6    6  503    0  0.68709409603E+02 -0.16588052084E+02  0.88922264558E+02  0.11359276198E+03  0.00000000000E+00 0. -1.
         -3    1    6    6    0  503  0.17024820700E+03  0.26259221389E+02  0.57968987377E+02  0.18175368550E+03  0.00000000000E+00 0.  1.
<mgrwt>
<rscale>  0 0.17184406E+04</rscale>
<asrwt>0</asrwt>
<pdfrwt beam="1">  1        2 0.33199717E+00 0.17184406E+04</pdfrwt>
<pdfrwt beam="2">  1       -1 0.52631767E-01 0.17184406E+04</pdfrwt>
<totfact> 0.21472780E+01</totfact>
</mgrwt>
</event>
<event>
12    6  0.1529770E-007  0.1642743E+04  0.7818608E-02  0.8794712E-01
          2   -1    0    0  501    0  0.00000000000E+00  0.00000000000E+00  0.18065718005E+04  0.18065718005E+04  0.00000000000E+00 0. -1.
         -1   -1    0    0    0  501 -0.00000000000E+00 -0.00000000000E+00 -0.37344253389E+03  0.37344253389E+03  0.00000000000E+00 0.  1.
         24    2    1    2    0    0  0.66380219541E+02  0.54414199218E+03  0.28844669866E+03  0.62455386261E+03  0.79807193466E+02 0.  0.
        254    2    1    2    0    0 -0.66380219541E+02 -0.54414199218E+03  0.11446825680E+04  0.15554604718E+04  0.89925650220E+03 0.  0.
         23    2    4    4    0    0 -0.20109494922E+03  0.15583045620E+03  0.10151845353E+03  0.28861922021E+03  0.90954649076E+02 0.  0.
         23    2    4    4    0    0  0.13471472968E+03 -0.69997244838E+03  0.10431641145E+04  0.12668412516E+04  0.92660132791E+02 0.  0.
          2    1    3    3  502    0 -0.12388020082E+02  0.18576524498E+02  0.84871177675E+01  0.23886847259E+02  0.00000000000E+00 0. -1.
         -1    1    3    3    0  502  0.78768239622E+02  0.52556546768E+03  0.27995958089E+03  0.60066701535E+03  0.00000000000E+00 0.  1.
         11    1    5    5    0    0 -0.93187080696E+02  0.22637529892E+02  0.56826978270E+02  0.11147015398E+03  0.00000000000E+00 0. -1.
        -11    1    5    5    0    0 -0.10790786852E+03  0.13319292631E+03  0.44691475264E+02  0.17714906624E+03  0.00000000000E+00 0.  1.
          3    1    6    6  503    0  0.12310323377E+03 -0.39798051773E+03  0.60865997530E+03  0.73757024357E+03  0.00000000000E+00 0. -1.
         -3    1    6    6    0  503  0.11611495904E+02 -0.30199193065E+03  0.43450413916E+03  0.52927100805E+03  0.00000000000E+00 0.  1.
<mgrwt>
<rscale>  0 0.16427425E+04</rscale>
<asrwt>0</asrwt>
<pdfrwt beam="1">  1        2 0.27793412E+00 0.16427425E+04</pdfrwt>
<pdfrwt beam="2">  1       -1 0.57452698E-01 0.16427425E+04</pdfrwt>
<totfact> 0.28583197E+01</totfact>
</mgrwt>
</event>
<event>
12    6  0.1529770E-007  0.1574315E+04  0.7818608E-02  0.8836485E-01
          2   -1    0    0  501    0  0.00000000000E+00  0.00000000000E+00  0.97839869958E+03  0.97839869958E+03  0.00000000000E+00 0. -1.
         -1   -1    0    0    0  501 -0.00000000000E+00 -0.00000000000E+00 -0.63329684981E+03  0.63329684981E+03  0.00000000000E+00 0.  1.
         24    2    1    2    0    0 -0.12109127678E+02  0.18168208319E+03 -0.38852414210E+03  0.43654921435E+03  0.80431319953E+02 0.  0.
        254    2    1    2    0    0  0.12109127678E+02 -0.18168208319E+03  0.73362599187E+03  0.11751463350E+04  0.89978153042E+03 0.  0.
         23    2    4    4    0    0  0.35559820191E+03 -0.10378989647E+03  0.71552615192E+03  0.81080212239E+03  0.90553761785E+02 0.  0.
         23    2    4    4    0    0 -0.34348907423E+03 -0.77892186715E+02  0.18099839943E+02  0.36434421265E+03  0.91472204638E+02 0.  0.
          4    1    3    3  502    0 -0.40816198543E+02  0.51459457251E+02 -0.13165787089E+03  0.14713202497E+03  0.00000000000E+00 0. -1.
         -1    1    3    3    0  502  0.28707070865E+02  0.13022262594E+03 -0.25686627121E+03  0.28941718938E+03  0.00000000000E+00 0.  1.
         11    1    5    5    0    0  0.31010261538E+03 -0.64686693714E+02  0.64206542817E+03  0.71595810944E+03  0.00000000000E+00 0.  1.
        -11    1    5    5    0    0  0.45495586521E+02 -0.39103202757E+02  0.73460723749E+02  0.94844012950E+02  0.00000000000E+00 0. -1.
          3    1    6    6  503    0 -0.10863215179E+03 -0.78863986932E+01  0.44909862219E+02  0.11781356208E+03  0.00000000000E+00 0. -1.
         -3    1    6    6    0  503 -0.23485692244E+03 -0.70005788022E+02 -0.26810022277E+02  0.24653065057E+03  0.00000000000E+00 0.  1.
<mgrwt>
<rscale>  0 0.15743149E+04</rscale>
<asrwt>0</asrwt>
<pdfrwt beam="1">  1        2 0.15052288E+00 0.15743149E+04</pdfrwt>
<pdfrwt beam="2">  1       -1 0.97430284E-01 0.15743149E+04</pdfrwt>
<totfact> 0.28848000E+01</totfact>
</mgrwt>
</event>
<event>
12    6  0.1529770E-007  0.1849968E+04  0.7818608E-02  0.8680169E-01
          2   -1    0    0  501    0  0.00000000000E+00  0.00000000000E+00  0.52515023846E+03  0.52515023846E+03  0.00000000000E+00 0. -1.
         -1   -1    0    0    0  501 -0.00000000000E+00 -0.00000000000E+00 -0.16292391598E+04  0.16292391598E+04  0.00000000000E+00 0.  1.
         24    2    1    2    0    0  0.14997352918E+01 -0.92513788892E+02 -0.12222444636E+04  0.12285676146E+04  0.83281478256E+02 0.  0.
        254    2    1    2    0    0 -0.14997352918E+01  0.92513788892E+02  0.11815554218E+03  0.92582178369E+03  0.91357768836E+03 0.  0.
         23    2    4    4    0    0 -0.10493333955E+03  0.22284134879E+03 -0.34015627979E+03  0.42957910181E+03  0.90347316249E+02 0.  0.
         23    2    4    4    0    0  0.10343360426E+03 -0.13032755990E+03  0.45831182197E+03  0.49624268188E+03  0.92321664903E+02 0.  0.
          2    1    3    3  502    0  0.27090029994E+02 -0.39873505970E+02 -0.25262269809E+03  0.25718085814E+03  0.00000000000E+00 0. -1.
         -1    1    3    3    0  502 -0.25590294702E+02 -0.52640282922E+02 -0.96962176546E+03  0.97138675646E+03  0.00000000000E+00 0.  1.
         11    1    5    5    0    0 -0.10820912541E+03  0.15307504239E+03 -0.28236479635E+03  0.33892633660E+03  0.00000000000E+00 0.  1.
        -11    1    5    5    0    0  0.32757858615E+01  0.69766306403E+02 -0.57791483439E+02  0.90652765210E+02  0.00000000000E+00 0. -1.
          4    1    6    6  503    0  0.20429220989E+02  0.44420221274E+01  0.15595027179E+02  0.26082360006E+02  0.00000000000E+00 0. -1.
         -4    1    6    6    0  503  0.83004383271E+02 -0.13476958202E+03  0.44271679479E+03  0.47016032188E+03  0.00000000000E+00 0.  1.
<mgrwt>
<rscale>  0 0.18499679E+04</rscale>
<asrwt>0</asrwt>
<pdfrwt beam="1">  1        2 0.80792346E-01 0.18499679E+04</pdfrwt>
<pdfrwt beam="2">  1       -1 0.25065217E+00 0.18499679E+04</pdfrwt>
<totfact> 0.43127792E+00</totfact>
</mgrwt>
</event>
<event>
12    6  0.1529770E-007  0.2043427E+04  0.7818608E-02  0.8586582E-01
         -1   -1    0    0    0  501 -0.00000000000E+00  0.00000000000E+00  0.54952475276E+03  0.54952475276E+03  0.00000000000E+00 0.  1.
          2   -1    0    0  501    0  0.00000000000E+00 -0.00000000000E+00 -0.18996377957E+04  0.18996377957E+04  0.00000000000E+00 0. -1.
         24    2    1    2    0    0  0.41008853850E+02  0.57346654982E+03 -0.12455262798E+04  0.13741744897E+04  0.80462441356E+02 0.  0.
        254    2    1    2    0    0 -0.41008853850E+02 -0.57346654982E+03 -0.10458676313E+03  0.10749880588E+04  0.90228339545E+03 0.  0.
         23    2    4    4    0    0 -0.20844637606E+03  0.85129803952E+01  0.27362926572E+03  0.35499066299E+03  0.87309983528E+02 0.  0.
         23    2    4    4    0    0  0.16743752221E+03 -0.58197953021E+03 -0.37821602885E+03  0.71999739582E+03  0.92808340517E+02 0.  0.
          2    1    3    3  502    0  0.62755712337E+02  0.38783723009E+03 -0.87616344409E+03  0.96021788009E+03  0.00000000000E+00 0. -1.
         -1    1    3    3    0  502 -0.21746858487E+02  0.18562931973E+03 -0.36936283575E+03  0.41395660960E+03  0.00000000000E+00 0.  1.
         11    1    5    5    0    0 -0.16247133408E+03 -0.13389752755E+02  0.15100969540E+03  0.22221644399E+03  0.00000000000E+00 0. -1.
        -11    1    5    5    0    0 -0.45975041983E+02  0.21902733150E+02  0.12261957032E+03  0.13277421900E+03  0.00000000000E+00 0.  1.
          3    1    6    6  503    0  0.60396112434E+02 -0.99374385883E+02 -0.49731703968E+02  0.12647609002E+03  0.00000000000E+00 0. -1.
         -3    1    6    6    0  503  0.10704140978E+03 -0.48260514433E+03 -0.32848432488E+03  0.59352130580E+03  0.00000000000E+00 0.  1.
<mgrwt>
<rscale>  0 0.20434265E+04</rscale>
<asrwt>0</asrwt>
<pdfrwt beam="1">  1        2 0.29225197E+00 0.20434265E+04</pdfrwt>
<pdfrwt beam="2">  1       -1 0.84542271E-01 0.20434265E+04</pdfrwt>
<totfact> 0.11092371E+01</totfact>
</mgrwt>
</event>
<event>
12    6  0.1529770E-007  0.1576619E+04  0.7818608E-02  0.8835042E-01
         -1   -1    0    0    0  501 -0.00000000000E+00  0.00000000000E+00  0.39606515680E+03  0.39606515680E+03  0.00000000000E+00 0.  1.
          2   -1    0    0  501    0  0.00000000000E+00 -0.00000000000E+00 -0.15690137720E+04  0.15690137720E+04  0.00000000000E+00 0. -1.
         24    2    1    2    0    0  0.11342189062E+03  0.41006117276E+03 -0.77993187237E+03  0.89187388428E+03  0.78298207175E+02 0.  0.
        254    2    1    2    0    0 -0.11342189062E+03 -0.41006117276E+03 -0.39301674284E+03  0.10732050445E+04  0.90348891347E+03 0.  0.
         23    2    4    4    0    0  0.35586727548E+03 -0.32419073905E+03 -0.30988571795E+03  0.58061618858E+03  0.96668749900E+02 0.  0.
         23    2    4    4    0    0 -0.46928916610E+03 -0.85870433711E+02 -0.83131024889E+02  0.49258885594E+03  0.90149658338E+02 0.  0.
          4    1    3    3  502    0  0.76044091932E+02  0.32377251224E+03 -0.66368775027E+03  0.74235623083E+03  0.00000000000E+00 0. -1.
         -3    1    3    3    0  502  0.37377798686E+02  0.86288660528E+02 -0.11624412210E+03  0.14951765345E+03  0.00000000000E+00 0.  1.
         11    1    5    5    0    0  0.31006982294E+03 -0.31893428515E+03 -0.27750182616E+03  0.52428011298E+03  0.00000000000E+00 0. -1.
        -11    1    5    5    0    0  0.45797452539E+02 -0.52564539016E+01 -0.32383891787E+02  0.56336075600E+02  0.00000000000E+00 0.  1.
          3    1    6    6  503    0 -0.39602498503E+03 -0.62975143686E+02 -0.36226059536E+02  0.40263380991E+03  0.00000000000E+00 0. -1.
         -3    1    6    6    0  503 -0.73264181069E+02 -0.22895290026E+02 -0.46904965353E+02  0.89955046039E+02  0.00000000000E+00 0.  1.
<mgrwt>
<rscale>  0 0.15766188E+04</rscale>
<asrwt>0</asrwt>
<pdfrwt beam="1">  1        2 0.24138674E+00 0.15766188E+04</pdfrwt>
<pdfrwt beam="2">  1       -1 0.60933101E-01 0.15766188E+04</pdfrwt>
<totfact> 0.34700687E+01</totfact>
</mgrwt>
</event>
<event>
12    6  0.1529770E-007  0.3103617E+04  0.7818608E-02  0.8214746E-01
         -1   -1    0    0    0  501 -0.00000000000E+00  0.00000000000E+00  0.10407173918E+04  0.10407173918E+04  0.00000000000E+00 0.  1.
          2   -1    0    0  501    0  0.00000000000E+00 -0.00000000000E+00 -0.23138935871E+04  0.23138935871E+04  0.00000000000E+00 0. -1.
         24    2    1    2    0    0  0.47561226211E+03 -0.98125515081E+02 -0.20236734047E+04  0.20826464376E+04  0.79539264541E+02 0.  0.
        254    2    1    2    0    0 -0.47561226211E+03  0.98125515081E+02  0.75049720937E+03  0.12719645414E+04  0.90488236397E+03 0.  0.
         23    2    4    4    0    0 -0.60619955181E+03 -0.16804606115E+03  0.71910630951E+03  0.95982499817E+03  0.91830101019E+02 0.  0.
         23    2    4    4    0    0  0.13058728970E+03  0.26617157623E+03  0.31390899854E+02  0.31213954318E+03  0.92441103404E+02 0.  0.
          2    1    3    3  502    0  0.37877762424E+03 -0.87078226550E+02 -0.14728505954E+04  0.15232675348E+04  0.00000000000E+00 0. -1.
         -1    1    3    3    0  502  0.96834637870E+02 -0.11047288531E+02 -0.55082280926E+03  0.55937890278E+03  0.00000000000E+00 0.  1.
         11    1    5    5    0    0 -0.12242852109E+02  0.71591245220E+00  0.40627578165E+02  0.42438191125E+02  0.00000000000E+00 0. -1.
        -11    1    5    5    0    0 -0.59395669970E+03 -0.16876197360E+03  0.67847873135E+03  0.91738680705E+03  0.00000000000E+00 0.  1.
          4    1    6    6  503    0  0.66749214047E+02  0.12469255106E+03 -0.31106783170E+02  0.14481478456E+03  0.00000000000E+00 0.  1.
         -4    1    6    6    0  503  0.63838075652E+02  0.14147902517E+03  0.62497683024E+02  0.16732475862E+03  0.00000000000E+00 0. -1.
<mgrwt>
<rscale>  0 0.31036168E+04</rscale>
<asrwt>0</asrwt>
<pdfrwt beam="1">  1        2 0.35598363E+00 0.31036168E+04</pdfrwt>
<pdfrwt beam="2">  1       -1 0.16011037E+00 0.31036168E+04</pdfrwt>
<totfact> 0.12528350E+00</totfact>
</mgrwt>
</event>
<event>
12    6  0.1529770E-007  0.1879058E+04  0.7818608E-02  0.8665351E-01
          2   -1    0    0  501    0  0.00000000000E+00  0.00000000000E+00  0.34458465839E+03  0.34458465839E+03  0.00000000000E+00 0. -1.
         -1   -1    0    0    0  501 -0.00000000000E+00 -0.00000000000E+00 -0.25616783031E+04  0.25616783031E+04  0.00000000000E+00 0.  1.
         24    2    1    2    0    0 -0.54754805052E+03  0.40386146274E+03 -0.48733795337E+03  0.84041842348E+03  0.76758693375E+02 0.  0.
        254    2    1    2    0    0  0.54754805052E+03 -0.40386146274E+03 -0.17297556913E+04  0.20658445380E+04  0.90152423969E+03 0.  0.
         23    2    4    4    0    0 -0.84860066576E+02 -0.43924302887E+03 -0.48508248025E+03  0.66610266644E+03  0.90840961539E+02 0.  0.
         23    2    4    4    0    0  0.63240811710E+03  0.35381566133E+02 -0.12446732111E+04  0.13997418715E+04  0.94202031753E+02 0.  0.
          4    1    3    3  502    0 -0.49763176610E+03  0.33982964795E+03 -0.41495771987E+03  0.73164982986E+03  0.00000000000E+00 0. -1.
         -3    1    3    3    0  502 -0.49916284424E+02  0.64031814785E+02 -0.72380233498E+02  0.10876859361E+03  0.00000000000E+00 0.  1.
         11    1    5    5    0    0  0.84340578864E+01 -0.19106200826E+03 -0.19607701992E+03  0.27390148242E+03  0.00000000000E+00 0. -1.
        -11    1    5    5    0    0 -0.93294124463E+02 -0.24818102061E+03 -0.28900546032E+03  0.39220118402E+03  0.00000000000E+00 0.  1.
          2    1    6    6  503    0  0.25077195254E+02 -0.17729602256E+02 -0.60683975909E+02  0.68012862387E+02  0.00000000000E+00 0. -1.
         -2    1    6    6    0  503  0.60733092185E+03  0.53111168389E+02 -0.11839892352E+04  0.13317290091E+04  0.00000000000E+00 0.  1.
<mgrwt>
<rscale>  0 0.18790583E+04</rscale>
<asrwt>0</asrwt>
<pdfrwt beam="1">  1        2 0.53013024E-01 0.18790583E+04</pdfrwt>
<pdfrwt beam="2">  1       -1 0.39410436E+00 0.18790583E+04</pdfrwt>
<totfact> 0.79386028E-01</totfact>
</mgrwt>
</event>
<event>
12    6  0.1529770E-007  0.1823977E+04  0.7818608E-02  0.8693652E-01
         -1   -1    0    0    0  501 -0.00000000000E+00  0.00000000000E+00  0.20164728912E+04  0.20164728912E+04  0.00000000000E+00 0.  1.
          2   -1    0    0  501    0  0.00000000000E+00 -0.00000000000E+00 -0.41246405787E+03  0.41246405787E+03  0.00000000000E+00 0. -1.
         24    2    1    2    0    0 -0.55745664839E+03 -0.15566348101E+03  0.97047373550E+02  0.59206580576E+03  0.78324271363E+02 0.  0.
        254    2    1    2    0    0  0.55745664839E+03  0.15566348101E+03  0.15069614597E+04  0.18368711433E+04  0.87645520232E+03 0.  0.
         23    2    4    4    0    0  0.70399555723E+03 -0.11222796284E+03  0.91455130643E+03  0.11641816062E+04  0.10348845338E+03 0.  0.
         23    2    4    4    0    0 -0.14653890884E+03  0.26789144385E+03  0.59241015331E+03  0.67268953702E+03  0.91224700506E+02 0.  0.
          2    1    3    3  502    0 -0.39184211062E+03 -0.12418548781E+03  0.35414228702E+02  0.41257295431E+03  0.00000000000E+00 0. -1.
         -1    1    3    3    0  502 -0.16561453777E+03 -0.31477993204E+02  0.61633144848E+02  0.17949285145E+03  0.00000000000E+00 0.  1.
         11    1    5    5    0    0  0.21716965186E+03  0.11813512610E+02  0.25690637028E+03  0.33660525822E+03  0.00000000000E+00 0.  1.
        -11    1    5    5    0    0  0.48682590537E+03 -0.12404147545E+03  0.65764493615E+03  0.82757634803E+03  0.00000000000E+00 0. -1.
          4    1    6    6  503    0 -0.12108557953E+03  0.25076267289E+03  0.57098275949E+03  0.63526761866E+03  0.00000000000E+00 0. -1.
         -4    1    6    6    0  503 -0.25453329314E+02  0.17128770962E+02  0.21427393813E+02  0.37421918356E+02  0.00000000000E+00 0.  1.
<mgrwt>
<rscale>  0 0.18239765E+04</rscale>
<asrwt>0</asrwt>
<pdfrwt beam="1">  1        2 0.63456010E-01 0.18239765E+04</pdfrwt>
<pdfrwt beam="2">  1       -1 0.31022659E+00 0.18239765E+04</pdfrwt>
<totfact> 0.23479214E+00</totfact>
</mgrwt>
</event>
<event>
12    6  0.1529770E-007  0.1369759E+04  0.7818608E-02  0.8976004E-01
          2   -1    0    0  501    0  0.00000000000E+00  0.00000000000E+00  0.10407190494E+04  0.10407190494E+04  0.00000000000E+00 0. -1.
         -1   -1    0    0    0  501 -0.00000000000E+00 -0.00000000000E+00 -0.45070780822E+03  0.45070780822E+03  0.00000000000E+00 0.  1.
         24    2    1    2    0    0  0.11634411196E+03 -0.17584110229E+02 -0.20988539805E+03  0.25367613330E+03  0.80340195237E+02 0.  0.
        254    2    1    2    0    0 -0.11634411196E+03  0.17584110229E+02  0.79989663920E+03  0.12377507243E+04  0.93720172255E+03 0.  0.
         23    2    4    4    0    0 -0.10824255247E+03  0.45618996996E+03  0.53488109410E+03  0.71708175639E+03  0.91009459157E+02 0.  0.
         23    2    4    4    0    0 -0.81015594881E+01 -0.43860585973E+03  0.26501554510E+03  0.52066896790E+03  0.91772542360E+02 0.  0.
          4    1    3    3  502    0  0.10813593922E+02  0.86101281029E+01 -0.93055241007E+02  0.94076277554E+02  0.00000000000E+00 0. -1.
         -3    1    3    3    0  502  0.10553051804E+03 -0.26194238332E+02 -0.11683015704E+03  0.15959985574E+03  0.00000000000E+00 0.  1.
         11    1    5    5    0    0 -0.97881549821E+02  0.41946891162E+03  0.52208911721E+03  0.67683972396E+03  0.00000000000E+00 0. -1.
        -11    1    5    5    0    0 -0.10361002651E+02  0.36721058340E+02  0.12791976891E+02  0.40242032432E+02  0.00000000000E+00 0.  1.
          4    1    6    6  503    0 -0.24048742799E+02 -0.40201792664E+03  0.21452635555E+03  0.45630944829E+03  0.00000000000E+00 0. -1.
         -4    1    6    6    0  503  0.15947183311E+02 -0.36587933094E+02  0.50489189547E+02  0.64359519612E+02  0.00000000000E+00 0.  1.
<mgrwt>
<rscale>  0 0.13697594E+04</rscale>
<asrwt>0</asrwt>
<pdfrwt beam="1">  1        2 0.16011062E+00 0.13697594E+04</pdfrwt>
<pdfrwt beam="2">  1       -1 0.69339663E-01 0.13697594E+04</pdfrwt>
<totfact> 0.55547657E+01</totfact>
</mgrwt>
</event>
<event>
12    6  0.1529770E-007  0.2193044E+04  0.7818608E-02  0.8521329E-01
         -1   -1    0    0    0  501 -0.00000000000E+00  0.00000000000E+00  0.86004013844E+03  0.86004013844E+03  0.00000000000E+00 0.  1.
          2   -1    0    0  501    0  0.00000000000E+00 -0.00000000000E+00 -0.13980279966E+04  0.13980279966E+04  0.00000000000E+00 0. -1.
         24    2    1    2    0    0  0.88324118369E+03  0.17368683955E+03 -0.19176592079E+03  0.92266488257E+03  0.65224308094E+02 0.  0.
        254    2    1    2    0    0 -0.88324118369E+03 -0.17368683955E+03 -0.34622193733E+03  0.13354032524E+04  0.92366125280E+03 0.  0.
         23    2    4    4    0    0 -0.86312743216E+03  0.20128645179E+03 -0.15492514382E+03  0.90425308030E+03  0.90369426305E+02 0.  0.
         23    2    4    4    0    0 -0.20113751523E+02 -0.37497329134E+03 -0.19129679351E+03  0.43115017213E+03  0.91030080192E+02 0.  0.
          4    1    3    3  502    0  0.57948368406E+03  0.14103670007E+03 -0.11071688438E+03  0.60658958064E+03  0.00000000000E+00 0. -1.
         -3    1    3    3    0  502  0.30375749963E+03  0.32650139480E+02 -0.81049036412E+02  0.31607530193E+03  0.00000000000E+00 0.  1.
         11    1    5    5    0    0 -0.76805866948E+03  0.16822425684E+03 -0.16401347042E+03  0.80318985229E+03  0.00000000000E+00 0. -1.
        -11    1    5    5    0    0 -0.95068762686E+02  0.33062194951E+02  0.90883266055E+01  0.10106322800E+03  0.00000000000E+00 0.  1.
          1    1    6    6  503    0 -0.55862068845E+02 -0.23678206815E+03 -0.12956943040E+03  0.27563482332E+03  0.00000000000E+00 0. -1.
         -1    1    6    6    0  503  0.35748317321E+02 -0.13819122319E+03 -0.61727363116E+02  0.15551534881E+03  0.00000000000E+00 0.  1.
<mgrwt>
<rscale>  0 0.21930437E+04</rscale>
<asrwt>0</asrwt>
<pdfrwt beam="1">  1        2 0.21508123E+00 0.21930437E+04</pdfrwt>
<pdfrwt beam="2">  1       -1 0.13231387E+00 0.21930437E+04</pdfrwt>
<totfact> 0.73324089E+00</totfact>
</mgrwt>
</event>
<event>
12    6  0.1529770E-007  0.2648740E+04  0.7818608E-02  0.8351831E-01
         -1   -1    0    0    0  501 -0.00000000000E+00  0.00000000000E+00  0.95839359505E+03  0.95839359505E+03  0.00000000000E+00 0.  1.
          2   -1    0    0  501    0  0.00000000000E+00 -0.00000000000E+00 -0.18300993655E+04  0.18300993655E+04  0.00000000000E+00 0. -1.
         24    2    1    2    0    0 -0.66862333106E+03 -0.94785108926E+03 -0.57190363799E+03  0.12959126534E+04  0.82686080101E+02 0.  0.
        254    2    1    2    0    0  0.66862333106E+03  0.94785108926E+03 -0.29980213249E+03  0.14925803072E+04  0.89018863647E+03 0.  0.
         23    2    4    4    0    0 -0.70395802893E+02  0.62459704291E+03 -0.25632158641E+02  0.63573190026E+03  0.91766041483E+02 0.  0.
         23    2    4    4    0    0  0.73901913395E+03  0.32325404635E+03 -0.27416997385E+03  0.85684840693E+03  0.91529006709E+02 0.  0.
          4    1    3    3  502    0 -0.29652297471E+03 -0.41113800140E+03 -0.20477630787E+03  0.54671168543E+03  0.00000000000E+00 0. -1.
         -3    1    3    3    0  502 -0.37210035635E+03 -0.53671308786E+03 -0.36712733012E+03  0.74920096797E+03  0.00000000000E+00 0.  1.
         11    1    5    5    0    0 -0.91021753947E+02  0.55678185398E+03 -0.18277051718E+02  0.56446881511E+03  0.00000000000E+00 0. -1.
        -11    1    5    5    0    0  0.20625951055E+02  0.67815188927E+02 -0.73551069233E+01  0.71263085142E+02  0.00000000000E+00 0.  1.
          2    1    6    6  503    0  0.69825112074E+03  0.32656881740E+03 -0.25819549180E+03  0.81293710218E+03  0.00000000000E+00 0. -1.
         -2    1    6    6    0  503  0.40768013208E+02 -0.33147710474E+01 -0.15974482046E+02  0.43911304748E+02  0.00000000000E+00 0.  1.
<mgrwt>
<rscale>  0 0.26487397E+04</rscale>
<asrwt>0</asrwt>
<pdfrwt beam="1">  1        2 0.28155375E+00 0.26487397E+04</pdfrwt>
<pdfrwt beam="2">  1       -1 0.14744517E+00 0.26487397E+04</pdfrwt>
<totfact> 0.30421045E+00</totfact>
</mgrwt>
</event>
<event>
12    6  0.1529770E-007  0.1334480E+04  0.7818608E-02  0.9002661E-01
          2   -1    0    0  501    0  0.00000000000E+00  0.00000000000E+00  0.77265205855E+03  0.77265205855E+03  0.00000000000E+00 0. -1.
         -1   -1    0    0    0  501 -0.00000000000E+00 -0.00000000000E+00 -0.57620905039E+03  0.57620905039E+03  0.00000000000E+00 0.  1.
         24    2    1    2    0    0  0.90152743147E+02  0.33553251413E+03 -0.38528403179E+02  0.35923302830E+03  0.82790975596E+02 0.  0.
        254    2    1    2    0    0 -0.90152743147E+02 -0.33553251413E+03  0.23497141134E+03  0.98962808063E+03  0.89634959067E+03 0.  0.
         23    2    4    4    0    0 -0.38827248509E+03 -0.21473922616E+03  0.41059908889E+03  0.61119265372E+03  0.89979943513E+02 0.  0.
         23    2    4    4    0    0  0.29811974194E+03 -0.12079328797E+03 -0.17562767755E+03  0.37843542691E+03  0.94349839753E+02 0.  0.
          4    1    3    3  502    0  0.54380466308E+02  0.16564215051E+03  0.21213335337E+02  0.17562620174E+03  0.00000000000E+00 0. -1.
         -3    1    3    3    0  502  0.35772276839E+02  0.16989036362E+03 -0.59741738517E+02  0.18360682656E+03  0.00000000000E+00 0.  1.
         11    1    5    5    0    0 -0.10725956254E+03 -0.10324069378E+03  0.11231333282E+03  0.18648737045E+03  0.00000000000E+00 0.  1.
        -11    1    5    5    0    0 -0.28101292255E+03 -0.11149853238E+03  0.29828575607E+03  0.42470528328E+03  0.00000000000E+00 0. -1.
          1    1    6    6  503    0  0.88203917772E+01  0.61858176665E+01 -0.27420533988E+02  0.29460979880E+02  0.00000000000E+00 0. -1.
         -1    1    6    6    0  503  0.28929935017E+03 -0.12697910563E+03 -0.14820714356E+03  0.34897444703E+03  0.00000000000E+00 0.  1.
<mgrwt>
<rscale>  0 0.13344798E+04</rscale>
<asrwt>0</asrwt>
<pdfrwt beam="1">  1        2 0.11886955E+00 0.13344798E+04</pdfrwt>
<pdfrwt beam="2">  1       -1 0.88647546E-01 0.13344798E+04</pdfrwt>
<totfact> 0.50321899E+01</totfact>
</mgrwt>
</event>
<event>
12    6  0.1529770E-007  0.2151627E+04  0.7818608E-02  0.8538836E-01
         -1   -1    0    0    0  501 -0.00000000000E+00  0.00000000000E+00  0.10175681934E+04  0.10175681934E+04  0.00000000000E+00 0.  1.
          2   -1    0    0  501    0  0.00000000000E+00 -0.00000000000E+00 -0.11373931984E+04  0.11373931984E+04  0.00000000000E+00 0. -1.
         24    2    1    2    0    0  0.22022624238E+03 -0.47429572548E+03  0.67219621184E+03  0.85527229972E+03  0.78657017665E+02 0.  0.
        254    2    1    2    0    0 -0.22022624238E+03  0.47429572548E+03 -0.79202121687E+03  0.12996890921E+04  0.88794036686E+03 0.  0.
         23    2    4    4    0    0  0.32495990843E+03  0.19765229880E+03 -0.43823371342E+03  0.58738356678E+03  0.91133383753E+02 0.  0.
         23    2    4    4    0    0 -0.54518615081E+03  0.27664342668E+03 -0.35378750345E+03  0.71230552532E+03  0.91945849507E+02 0.  0.
          2    1    3    3  502    0  0.75158142278E+02 -0.12488018697E+03  0.13836133076E+03  0.20096682636E+03  0.00000000000E+00 0. -1.
         -1    1    3    3    0  502  0.14506810011E+03 -0.34941553851E+03  0.53383488107E+03  0.65430547336E+03  0.00000000000E+00 0.  1.
         11    1    5    5    0    0  0.13325064287E+02  0.38846436617E+02 -0.53136923544E+02  0.67157543283E+02  0.00000000000E+00 0.  1.
        -11    1    5    5    0    0  0.31163484414E+03  0.15880586218E+03 -0.38509678988E+03  0.52022602349E+03  0.00000000000E+00 0. -1.
          4    1    6    6  503    0 -0.18635042345E+03  0.55202784174E+02 -0.84063519382E+02  0.21175576259E+03  0.00000000000E+00 0. -1.
         -4    1    6    6    0  503 -0.35883572737E+03  0.22144064250E+03 -0.26972398407E+03  0.50054976273E+03  0.00000000000E+00 0.  1.
<mgrwt>
<rscale>  0 0.21516274E+04</rscale>
<asrwt>0</asrwt>
<pdfrwt beam="1">  1        2 0.17498357E+00 0.21516274E+04</pdfrwt>
<pdfrwt beam="2">  1       -1 0.15654895E+00 0.21516274E+04</pdfrwt>
<totfact> 0.67137947E+00</totfact>
</mgrwt>
</event>
<event>
12    6  0.1529770E-007  0.2504855E+04  0.7818608E-02  0.8401258E-01
         -1   -1    0    0    0  501 -0.00000000000E+00  0.00000000000E+00  0.14703763472E+04  0.14703763472E+04  0.00000000000E+00 0.  1.
          2   -1    0    0  501    0  0.00000000000E+00 -0.00000000000E+00 -0.10667842749E+04  0.10667842749E+04  0.00000000000E+00 0. -1.
         24    2    1    2    0    0 -0.56560736027E+02  0.68547149703E+03 -0.68283453685E+03  0.97242641151E+03  0.79245384643E+02 0.  0.
        254    2    1    2    0    0  0.56560736027E+02 -0.68547149703E+03  0.10864266092E+04  0.15647342106E+04  0.89162777120E+03 0.  0.
         23    2    4    4    0    0  0.86740980867E+01 -0.86244604084E+03  0.10416250214E+04  0.13554203004E+04  0.91066416735E+02 0.  0.
         23    2    4    4    0    0  0.47886637940E+02  0.17697454381E+03  0.44801587866E+02  0.20931391017E+03  0.90509731335E+02 0.  0.
          4    1    3    3  502    0 -0.34211049283E+02  0.37170520666E+03 -0.31495368378E+03  0.48839633442E+03  0.00000000000E+00 0. -1.
         -3    1    3    3    0  502 -0.22349686744E+02  0.31376629037E+03 -0.36788085307E+03  0.48403007709E+03  0.00000000000E+00 0.  1.
         11    1    5    5    0    0  0.65889760583E+01 -0.51678387753E+02  0.10064067579E+03  0.11332526634E+03  0.00000000000E+00 0.  1.
        -11    1    5    5    0    0  0.20851220285E+01 -0.81076765308E+03  0.94098434557E+03  0.12420950341E+04  0.00000000000E+00 0. -1.
          3    1    6    6  503    0  0.19831868080E+02  0.17387121865E+03  0.30375903755E+02  0.17761531239E+03  0.00000000000E+00 0. -1.
         -3    1    6    6    0  503  0.28054769860E+02  0.31033251530E+01  0.14425684111E+02  0.31698597776E+02  0.00000000000E+00 0.  1.
<mgrwt>
<rscale>  0 0.25048548E+04</rscale>
<asrwt>0</asrwt>
<pdfrwt beam="1">  1        2 0.16412066E+00 0.25048548E+04</pdfrwt>
<pdfrwt beam="2">  1       -1 0.22621175E+00 0.25048548E+04</pdfrwt>
<totfact> 0.23224552E+00</totfact>
</mgrwt>
</event>
<event>
12    6  0.1529770E-007  0.1660008E+04  0.7818608E-02  0.8784508E-01
         -1   -1    0    0    0  501 -0.00000000000E+00  0.00000000000E+00  0.31555528533E+03  0.31555528533E+03  0.00000000000E+00 0.  1.
          2   -1    0    0  501    0  0.00000000000E+00 -0.00000000000E+00 -0.21831572537E+04  0.21831572537E+04  0.00000000000E+00 0. -1.
         24    2    1    2    0    0  0.57590632066E+03 -0.72018841266E+02 -0.65415987422E+03  0.87910539047E+03  0.89701409380E+02 0.  0.
        254    2    1    2    0    0 -0.57590632066E+03  0.72018841266E+02 -0.12134420941E+04  0.16196071485E+04  0.90212570970E+03 0.  0.
         23    2    4    4    0    0 -0.67476627485E+03  0.84340242360E+02 -0.39737676134E+03  0.79267358303E+03  0.89444489137E+02 0.  0.
         23    2    4    4    0    0  0.98859954188E+02 -0.12321401093E+02 -0.81606533281E+03  0.82693356552E+03  0.89058334214E+02 0.  0.
          2    1    3    3  502    0  0.54030920061E+03 -0.47671713901E+02 -0.62216263548E+03  0.82540473076E+03  0.00000000000E+00 0. -1.
         -1    1    3    3    0  502  0.35597120048E+02 -0.24347127365E+02 -0.31997238740E+02  0.53700659713E+02  0.00000000000E+00 0.  1.
         11    1    5    5    0    0 -0.55413734699E+03  0.10347360857E+03 -0.32901782152E+03  0.65270798515E+03  0.00000000000E+00 0. -1.
        -11    1    5    5    0    0 -0.12062892785E+03 -0.19133366209E+02 -0.68358939814E+02  0.13996559788E+03  0.00000000000E+00 0.  1.
          2    1    6    6  503    0  0.41957509269E+02  0.38541102622E+02 -0.32015294770E+03  0.32518265498E+03  0.00000000000E+00 0. -1.
         -2    1    6    6    0  503  0.56902444919E+02 -0.50862503715E+02 -0.49591238511E+03  0.50175091054E+03  0.00000000000E+00 0.  1.
<mgrwt>
<rscale>  0 0.16600082E+04</rscale>
<asrwt>0</asrwt>
<pdfrwt beam="1">  1        2 0.33587035E+00 0.16600082E+04</pdfrwt>
<pdfrwt beam="2">  1       -1 0.48546967E-01 0.16600082E+04</pdfrwt>
<totfact> 0.24370948E+01</totfact>
</mgrwt>
</event>
<event>
12    6  0.1529770E-007  0.1455305E+04  0.7818608E-02  0.8914731E-01
         -1   -1    0    0    0  501 -0.00000000000E+00  0.00000000000E+00  0.35779527363E+03  0.35779527363E+03  0.00000000000E+00 0.  1.
          2   -1    0    0  501    0  0.00000000000E+00 -0.00000000000E+00 -0.14798346638E+04  0.14798346638E+04  0.00000000000E+00 0. -1.
         24    2    1    2    0    0 -0.44092478343E+03 -0.59942734731E+02 -0.32533547439E+03  0.55685638402E+03  0.78981424670E+02 0.  0.
        254    2    1    2    0    0  0.44092478343E+03  0.59942734731E+02 -0.79670391580E+03  0.12807735534E+04  0.89868569011E+03 0.  0.
         23    2    4    4    0    0  0.39768456250E+03  0.10142639340E+03 -0.97979023643E+03  0.10661701256E+04  0.91046717123E+02 0.  0.
         23    2    4    4    0    0  0.43240220923E+02 -0.41483658665E+02  0.18308632063E+03  0.21460342786E+03  0.94569655837E+02 0.  0.
          2    1    3    3  502    0 -0.72566170401E+02  0.46724214539E+01 -0.86989407197E+02  0.11337917610E+03  0.00000000000E+00 0. -1.
         -1    1    3    3    0  502 -0.36835861302E+03 -0.64615156185E+02 -0.23834606719E+03  0.44347720792E+03  0.00000000000E+00 0.  1.
         11    1    5    5    0    0  0.19358391896E+03  0.92094293338E+02 -0.45362324153E+03  0.50172715474E+03  0.00000000000E+00 0. -1.
        -11    1    5    5    0    0  0.20410064354E+03  0.93321000579E+01 -0.52616699490E+03  0.56444297082E+03  0.00000000000E+00 0.  1.
          2    1    6    6  503    0  0.25911077780E+02 -0.61057662532E+02  0.62225126199E+02  0.90947173876E+02  0.00000000000E+00 0. -1.
         -2    1    6    6    0  503  0.17329143143E+02  0.19574003867E+02  0.12086119443E+03  0.12365625399E+03  0.00000000000E+00 0.  1.
<mgrwt>
<rscale>  0 0.14553046E+04</rscale>
<asrwt>0</asrwt>
<pdfrwt beam="1">  1        2 0.22766687E+00 0.14553046E+04</pdfrwt>
<pdfrwt beam="2">  1       -1 0.55045427E-01 0.14553046E+04</pdfrwt>
<totfact> 0.48016355E+01</totfact>
</mgrwt>
</event>
<event>
12    6  0.1529770E-007  0.2146650E+04  0.7818608E-02  0.8540967E-01
          2   -1    0    0  501    0  0.00000000000E+00  0.00000000000E+00  0.13992562131E+04  0.13992562131E+04  0.00000000000E+00 0. -1.
         -1   -1    0    0    0  501 -0.00000000000E+00 -0.00000000000E+00 -0.82331365693E+03  0.82331365693E+03  0.00000000000E+00 0.  1.
         24    2    1    2    0    0  0.24772559669E+03 -0.83119905213E+03  0.75163773819E+02  0.87416682743E+03  0.79108872865E+02 0.  0.
        254    2    1    2    0    0 -0.24772559669E+03  0.83119905213E+03  0.50077878237E+03  0.13484030426E+04  0.90285743113E+03 0.  0.
         23    2    4    4    0    0  0.59224332094E+01  0.45335062281E+03  0.70336063413E+03  0.84175416925E+03  0.90950741586E+02 0.  0.
         23    2    4    4    0    0 -0.25364802990E+03  0.37784842932E+03 -0.20258185176E+03  0.50664887336E+03  0.92449530028E+02 0.  0.
          4    1    3    3  502    0  0.12842817382E+03 -0.47064874201E+03  0.45163254587E+01  0.48787747579E+03  0.00000000000E+00 0. -1.
         -3    1    3    3    0  502  0.11929742287E+03 -0.36055031012E+03  0.70647448360E+02  0.38628935164E+03  0.00000000000E+00 0.  1.
         11    1    5    5    0    0  0.32476359912E+02  0.18694499967E+03  0.23246543514E+03  0.30007220029E+03  0.00000000000E+00 0.  1.
        -11    1    5    5    0    0 -0.26553926702E+02  0.26640562314E+03  0.47089519899E+03  0.54168196896E+03  0.00000000000E+00 0. -1.
          1    1    6    6  503    0 -0.34558726415E+02  0.58787538241E+02  0.32698222769E+01  0.68271311410E+02  0.00000000000E+00 0. -1.
         -1    1    6    6    0  503 -0.21908930349E+03  0.31906089108E+03 -0.20585167404E+03  0.43837756195E+03  0.00000000000E+00 0.  1.
<mgrwt>
<rscale>  0 0.21466502E+04</rscale>
<asrwt>0</asrwt>
<pdfrwt beam="1">  1        2 0.21527019E+00 0.21466502E+04</pdfrwt>
<pdfrwt beam="2">  1       -1 0.12666364E+00 0.21466502E+04</pdfrwt>
<totfact> 0.82049610E+00</totfact>
</mgrwt>
</event>
<event>
12    6  0.1529770E-007  0.2330458E+04  0.7818608E-02  0.8466008E-01
          2   -1    0    0  501    0  0.00000000000E+00  0.00000000000E+00  0.10710540820E+04  0.10710540820E+04  0.00000000000E+00 0. -1.
         -1   -1    0    0    0  501 -0.00000000000E+00 -0.00000000000E+00 -0.12676839772E+04  0.12676839772E+04  0.00000000000E+00 0.  1.
         24    2    1    2    0    0  0.94606426440E+03 -0.30239603942E+02  0.20585070937E+03  0.97181082999E+03  0.78036842056E+02 0.  0.
        254    2    1    2    0    0 -0.94606426440E+03  0.30239603942E+02 -0.40248060455E+03  0.13669272291E+04  0.90030405236E+03 0.  0.
         23    2    4    4    0    0 -0.22147436961E+03 -0.28857498063E+03 -0.42874025199E+03  0.56964224862E+03  0.91365594708E+02 0.  0.
         23    2    4    4    0    0 -0.72458989479E+03  0.31881458457E+03  0.26259647441E+02  0.79728498052E+03  0.91107168230E+02 0.  0.
          2    1    3    3  502    0  0.48142234636E+03 -0.12296838573E+02  0.64924390179E+02  0.48593607013E+03  0.00000000000E+00 0. -1.
         -1    1    3    3    0  502  0.46464191804E+03 -0.17942765369E+02  0.14092631919E+03  0.48587475986E+03  0.00000000000E+00 0.  1.
         11    1    5    5    0    0 -0.19328019722E+03 -0.18620138908E+03 -0.32020252492E+03  0.41780120739E+03  0.00000000000E+00 0. -1.
        -11    1    5    5    0    0 -0.28194172384E+02 -0.10237359154E+03 -0.10853772707E+03  0.15184104123E+03  0.00000000000E+00 0.  1.
          3    1    6    6  503    0 -0.46842972200E+03  0.24928711520E+03  0.34252647389E+02  0.53173650816E+03  0.00000000000E+00 0. -1.
         -3    1    6    6    0  503 -0.25616017279E+03  0.69527469370E+02 -0.79929999481E+01  0.26554847236E+03  0.00000000000E+00 0.  1.
<mgrwt>
<rscale>  0 0.23304576E+04</rscale>
<asrwt>0</asrwt>
<pdfrwt beam="1">  1        2 0.16477755E+00 0.23304576E+04</pdfrwt>
<pdfrwt beam="2">  1       -1 0.19502830E+00 0.23304576E+04</pdfrwt>
<totfact> 0.38150581E+00</totfact>
</mgrwt>
</event>
<event>
12    6  0.1529770E-007  0.1686757E+04  0.7818608E-02  0.8768954E-01
          2   -1    0    0  501    0  0.00000000000E+00  0.00000000000E+00  0.60167015097E+03  0.60167015097E+03  0.00000000000E+00 0. -1.
         -1   -1    0    0    0  501 -0.00000000000E+00 -0.00000000000E+00 -0.11821877570E+04  0.11821877570E+04  0.00000000000E+00 0.  1.
         24    2    1    2    0    0 -0.67228627568E+01  0.54214252718E+02 -0.83544457038E+03  0.84120963774E+03  0.81741313784E+02 0.  0.
        254    2    1    2    0    0  0.67228627568E+01 -0.54214252718E+02  0.25492696438E+03  0.94264827020E+03  0.90587726655E+03 0.  0.
         23    2    4    4    0    0  0.34800438926E+03 -0.73600345564E+02 -0.15734422145E+03  0.39933240927E+03  0.90471560468E+02 0.  0.
         23    2    4    4    0    0 -0.34128152650E+03  0.19386092846E+02  0.41227118583E+03  0.54331586093E+03  0.91518813069E+02 0.  0.
          2    1    3    3  502    0 -0.36719358130E+01 -0.21734244974E+02 -0.21478658556E+03  0.21591465409E+03  0.00000000000E+00 0. -1.
         -1    1    3    3    0  502 -0.30509269438E+01  0.75948497692E+02 -0.62065798482E+03  0.62529498365E+03  0.00000000000E+00 0.  1.
         11    1    5    5    0    0  0.83336947243E+02 -0.29415883621E+02 -0.20563590939E+00  0.88376372810E+02  0.00000000000E+00 0.  1.
        -11    1    5    5    0    0  0.26466744202E+03 -0.44184461943E+02 -0.15713858554E+03  0.31095603646E+03  0.00000000000E+00 0. -1.
          2    1    6    6  503    0 -0.29539352059E+03  0.12453309969E+02  0.29708650634E+03  0.41913340261E+03  0.00000000000E+00 0. -1.
         -2    1    6    6    0  503 -0.45888005915E+02  0.69327828776E+01  0.11518467949E+03  0.12418245832E+03  0.00000000000E+00 0.  1.
<mgrwt>
<rscale>  0 0.16867568E+04</rscale>
<asrwt>0</asrwt>
<pdfrwt beam="1">  1        2 0.92564639E-01 0.16867568E+04</pdfrwt>
<pdfrwt beam="2">  1       -1 0.18187504E+00 0.16867568E+04</pdfrwt>
<totfact> 0.10851280E+01</totfact>
</mgrwt>
</event>
<event>
12    6  0.1529770E-007  0.1261481E+04  0.7818608E-02  0.9060681E-01
         -1   -1    0    0    0  501 -0.00000000000E+00  0.00000000000E+00  0.66475272450E+03  0.66475272450E+03  0.00000000000E+00 0.  1.
          2   -1    0    0  501    0  0.00000000000E+00 -0.00000000000E+00 -0.59846848325E+03  0.59846848325E+03  0.00000000000E+00 0. -1.
         24    2    1    2    0    0 -0.28604837043E+03  0.15476374450E+02 -0.81859956199E+02  0.30827717291E+03  0.79186959275E+02 0.  0.
        254    2    1    2    0    0  0.28604837043E+03 -0.15476374450E+02  0.14814419745E+03  0.95494403484E+03  0.89883714768E+03 0.  0.
         23    2    4    4    0    0  0.43944294707E+03 -0.34125387990E+03  0.29667124684E+02  0.56487215626E+03  0.92930621235E+02 0.  0.
         23    2    4    4    0    0 -0.15339457664E+03  0.32577750544E+03  0.11847707276E+03  0.39007187857E+03  0.91969421484E+02 0.  0.
          4    1    3    3  502    0 -0.47737951960E+02 -0.24613191986E+02 -0.28478344536E+02  0.60792576723E+02  0.00000000000E+00 0. -1.
         -3    1    3    3    0  502 -0.23831041847E+03  0.40089566436E+02 -0.53381611663E+02  0.24748459619E+03  0.00000000000E+00 0.  1.
         11    1    5    5    0    0  0.40637030866E+03 -0.29610959045E+03  0.28544145704E+01  0.50281792430E+03  0.00000000000E+00 0. -1.
        -11    1    5    5    0    0  0.33072638413E+02 -0.45144289446E+02  0.26812710114E+02  0.62054231966E+02  0.00000000000E+00 0.  1.
          2    1    6    6  503    0 -0.15040352085E+03  0.22427188153E+03  0.89186266462E+02  0.28438228857E+03  0.00000000000E+00 0. -1.
         -2    1    6    6    0  503 -0.29910557933E+01  0.10150562392E+03  0.29290806302E+02  0.10568959001E+03  0.00000000000E+00 0.  1.
<mgrwt>
<rscale>  0 0.12614810E+04</rscale>
<asrwt>0</asrwt>
<pdfrwt beam="1">  1        2 0.92072075E-01 0.12614810E+04</pdfrwt>
<pdfrwt beam="2">  1       -1 0.10226965E+00 0.12614810E+04</pdfrwt>
<totfact> 0.50598935E+01</totfact>
</mgrwt>
</event>
<event>
12    6  0.1529770E-007  0.1823356E+04  0.7818608E-02  0.8693977E-01
         -1   -1    0    0    0  501 -0.00000000000E+00  0.00000000000E+00  0.72064631897E+03  0.72064631897E+03  0.00000000000E+00 0.  1.
          2   -1    0    0  501    0  0.00000000000E+00 -0.00000000000E+00 -0.11533490463E+04  0.11533490463E+04  0.00000000000E+00 0. -1.
         24    2    1    2    0    0 -0.23277430058E+03  0.13820177560E+03  0.48653975969E+03  0.56236665132E+03  0.79067736603E+02 0.  0.
        254    2    1    2    0    0  0.23277430058E+03 -0.13820177560E+03 -0.91924248699E+03  0.13116287139E+04  0.89558892775E+03 0.  0.
         23    2    4    4    0    0  0.26060375096E+03 -0.17433177695E+02 -0.10640356420E+04  0.10997243277E+04  0.94886874057E+02 0.  0.
         23    2    4    4    0    0 -0.27829450375E+02 -0.12076859790E+03  0.14479315500E+03  0.21190438620E+03  0.92622236052E+02 0.  0.
          2    1    3    3  502    0 -0.71220215184E+02  0.62755486300E+02  0.10703721201E+03  0.14306479255E+03  0.00000000000E+00 0. -1.
         -1    1    3    3    0  502 -0.16155408540E+03  0.75446289297E+02  0.37950254768E+03  0.41930185877E+03  0.00000000000E+00 0.  1.
         11    1    5    5    0    0  0.31522706062E+02  0.20875572493E+02 -0.26272591814E+03  0.26543243695E+03  0.00000000000E+00 0.  1.
        -11    1    5    5    0    0  0.22908104490E+03 -0.38308750188E+02 -0.80130972384E+03  0.83429189076E+03  0.00000000000E+00 0. -1.
          3    1    6    6  503    0 -0.54074332546E+02 -0.64464656721E+02  0.47935344993E+02  0.96837609977E+02  0.00000000000E+00 0. -1.
         -3    1    6    6    0  503  0.26244882171E+02 -0.56303941181E+02  0.96857810003E+02  0.11506677623E+03  0.00000000000E+00 0.  1.
<mgrwt>
<rscale>  0 0.18233560E+04</rscale>
<asrwt>0</asrwt>
<pdfrwt beam="1">  1        2 0.17743832E+00 0.18233560E+04</pdfrwt>
<pdfrwt beam="2">  1       -1 0.11086866E+00 0.18233560E+04</pdfrwt>
<totfact> 0.16268093E+01</totfact>
</mgrwt>
</event>
<event>
12    6  0.1529770E-007  0.1848542E+04  0.7818608E-02  0.8680903E-01
          2   -1    0    0  501    0  0.00000000000E+00  0.00000000000E+00  0.16803814816E+04  0.16803814816E+04  0.00000000000E+00 0. -1.
         -1   -1    0    0    0  501 -0.00000000000E+00 -0.00000000000E+00 -0.50838270501E+03  0.50838270501E+03  0.00000000000E+00 0.  1.
         24    2    1    2    0    0 -0.89291012008E+02  0.21602969867E+03  0.12452866782E+04  0.12695556050E+04  0.79942527259E+02 0.  0.
        254    2    1    2    0    0  0.89291012008E+02 -0.21602969867E+03 -0.73287901678E+02  0.91920858158E+03  0.88596364733E+03 0.  0.
         23    2    4    4    0    0 -0.91910231999E+02  0.18939472267E+03 -0.32703111053E+03  0.39951809205E+03  0.91364691735E+02 0.  0.
         23    2    4    4    0    0  0.18120124401E+03 -0.40542442134E+03  0.25374320885E+03  0.51969048954E+03  0.92139766785E+02 0.  0.
          4    1    3    3  502    0 -0.70839347508E+02  0.76228821595E+02  0.60939501201E+03  0.61821624620E+03  0.00000000000E+00 0. -1.
         -3    1    3    3    0  502 -0.18451664500E+02  0.13980087708E+03  0.63589166623E+03  0.65133935881E+03  0.00000000000E+00 0.  1.
         11    1    5    5    0    0 -0.57774783900E+02  0.27975512109E+02 -0.10109761316E+03  0.11975509309E+03  0.00000000000E+00 0.  1.
        -11    1    5    5    0    0 -0.34135448100E+02  0.16141921056E+03 -0.22593349737E+03  0.27976299896E+03  0.00000000000E+00 0. -1.
          1    1    6    6  503    0  0.11788918765E+03 -0.28115924312E+03  0.22067752814E+03  0.37636013602E+03  0.00000000000E+00 0. -1.
         -1    1    6    6    0  503  0.63312056357E+02 -0.12426517822E+03  0.33065680716E+02  0.14333035352E+03  0.00000000000E+00 0.  1.
<mgrwt>
<rscale>  0 0.18485420E+04</rscale>
<asrwt>0</asrwt>
<pdfrwt beam="1">  1        2 0.25852023E+00 0.18485420E+04</pdfrwt>
<pdfrwt beam="2">  1       -1 0.78212725E-01 0.18485420E+04</pdfrwt>
<totfact> 0.17631066E+01</totfact>
</mgrwt>
</event>
<event>
12    6  0.1529770E-007  0.2490971E+04  0.7818608E-02  0.8406209E-01
         -1   -1    0    0    0  501 -0.00000000000E+00  0.00000000000E+00  0.61457480965E+03  0.61457480965E+03  0.00000000000E+00 0.  1.
          2   -1    0    0  501    0  0.00000000000E+00 -0.00000000000E+00 -0.25240763578E+04  0.25240763578E+04  0.00000000000E+00 0. -1.
         24    2    1    2    0    0 -0.48810172661E+03  0.29366493641E+03  0.32085194176E+03  0.65776837775E+03  0.72324821731E+02 0.  0.
        254    2    1    2    0    0  0.48810172661E+03 -0.29366493641E+03 -0.22303534899E+04  0.24808827897E+04  0.92510558095E+03 0.  0.
         23    2    4    4    0    0  0.29865352620E+03 -0.62295334147E+03 -0.14135922309E+04  0.15760307650E+04  0.91461371247E+02 0.  0.
         23    2    4    4    0    0  0.18944820041E+03  0.32928840506E+03 -0.81676125902E+03  0.90485202477E+03  0.85654878167E+02 0.  0.
          4    1    3    3  502    0 -0.10682104902E+02  0.47331245537E+01 -0.36437235331E+01  0.12238731731E+02  0.00000000000E+00 0. -1.
         -3    1    3    3    0  502 -0.47741962171E+03  0.28893181185E+03  0.32449566529E+03  0.64552964602E+03  0.00000000000E+00 0.  1.
         11    1    5    5    0    0  0.30461237551E+03 -0.61661628359E+03 -0.13889617415E+04  0.15499093715E+04  0.00000000000E+00 0. -1.
        -11    1    5    5    0    0 -0.59588493054E+01 -0.63370578750E+01 -0.24630489386E+02  0.26121393434E+02  0.00000000000E+00 0.  1.
          1    1    6    6  503    0  0.19697305231E+03  0.31568206601E+03 -0.76312000345E+03  0.84900276195E+03  0.00000000000E+00 0. -1.
         -1    1    6    6    0  503 -0.75248519016E+01  0.13606339054E+02 -0.53641255574E+02  0.55849262826E+02  0.00000000000E+00 0.  1.
<mgrwt>
<rscale>  0 0.24909707E+04</rscale>
<asrwt>0</asrwt>
<pdfrwt beam="1">  1        2 0.38831944E+00 0.24909707E+04</pdfrwt>
<pdfrwt beam="2">  1       -1 0.94549971E-01 0.24909707E+04</pdfrwt>
<totfact> 0.37026932E+00</totfact>
</mgrwt>
</event>
<event>
12    6  0.1529770E-007  0.2257843E+04  0.7818608E-02  0.8494731E-01
         -1   -1    0    0    0  501 -0.00000000000E+00  0.00000000000E+00  0.79780285880E+03  0.79780285880E+03  0.00000000000E+00 0.  1.
          2   -1    0    0  501    0  0.00000000000E+00 -0.00000000000E+00 -0.15974672280E+04  0.15974672280E+04  0.00000000000E+00 0. -1.
         24    2    1    2    0    0  0.47261018315E+03  0.44320136004E+03  0.40093925556E+03  0.76613615906E+03  0.80152958798E+02 0.  0.
        254    2    1    2    0    0 -0.47261018315E+03 -0.44320136004E+03 -0.12006036248E+04  0.16291339277E+04  0.89041589157E+03 0.  0.
         23    2    4    4    0    0  0.20917284661E+03  0.65474129992E+02 -0.18486143407E+03  0.30112736033E+03  0.91998890651E+02 0.  0.
         23    2    4    4    0    0 -0.68178302976E+03 -0.50867549004E+03 -0.10157421907E+04  0.13280065674E+04  0.91051585862E+02 0.  0.
          2    1    3    3  502    0 -0.98402734702E+00  0.32032497241E+01  0.10294574421E+02  0.10826235779E+02  0.00000000000E+00 0. -1.
         -1    1    3    3    0  502  0.47359421050E+03  0.43999811032E+03  0.39064468114E+03  0.75530992328E+03  0.00000000000E+00 0.  1.
         11    1    5    5    0    0  0.42735649892E+02 -0.23104206900E+02 -0.29616852571E+02  0.56897259199E+02  0.00000000000E+00 0. -1.
        -11    1    5    5    0    0  0.16643719671E+03  0.88578336892E+02 -0.15524458150E+03  0.24423010114E+03  0.00000000000E+00 0.  1.
          1    1    6    6  503    0 -0.52481679404E+03 -0.42069511887E+03 -0.75444305304E+03  0.10107429795E+04  0.00000000000E+00 0.  1.
         -1    1    6    6    0  503 -0.15696623572E+03 -0.87980371165E+02 -0.26129913766E+03  0.31726358790E+03  0.00000000000E+00 0. -1.
<mgrwt>
<rscale>  0 0.22578431E+04</rscale>
<asrwt>0</asrwt>
<pdfrwt beam="1">  1        2 0.24576418E+00 0.22578431E+04</pdfrwt>
<pdfrwt beam="2">  1       -1 0.12273890E+00 0.22578431E+04</pdfrwt>
<totfact> 0.67886235E+00</totfact>
</mgrwt>
</event>
<event>
12    6  0.1529770E-007  0.2680112E+04  0.7818608E-02  0.8341487E-01
         -1   -1    0    0    0  501 -0.00000000000E+00  0.00000000000E+00  0.75872570488E+03  0.75872570488E+03  0.00000000000E+00 0.  1.
          2   -1    0    0  501    0  0.00000000000E+00 -0.00000000000E+00 -0.23667973446E+04  0.23667973446E+04  0.00000000000E+00 0. -1.
         24    2    1    2    0    0  0.67538315200E+03  0.91337323076E+03 -0.11196773912E+04  0.15970229047E+04  0.80072698844E+02 0.  0.
        254    2    1    2    0    0 -0.67538315200E+03 -0.91337323076E+03 -0.48839424849E+03  0.15285001448E+04  0.89854921397E+03 0.  0.
         23    2    4    4    0    0 -0.48380705136E+03 -0.15924861572E+02 -0.33146347500E+03  0.59372988439E+03  0.91237471417E+02 0.  0.
         23    2    4    4    0    0 -0.19157610063E+03 -0.89744836919E+03 -0.15693077349E+03  0.93477026038E+03  0.83983297923E+02 0.  0.
          2    1    3    3  502    0  0.92702923670E+02  0.12152097277E+03 -0.19095200378E+03  0.24458913840E+03  0.00000000000E+00 0. -1.
         -1    1    3    3    0  502  0.58268022833E+03  0.79185225799E+03 -0.92872538746E+03  0.13524337663E+04  0.00000000000E+00 0.  1.
         11    1    5    5    0    0 -0.40567715106E+03  0.15778586363E+02 -0.29511216453E+03  0.50191045450E+03  0.00000000000E+00 0.  1.
        -11    1    5    5    0    0 -0.78129900304E+02 -0.31703447934E+02 -0.36351310465E+02  0.91819429888E+02  0.00000000000E+00 0. -1.
          3    1    6    6  503    0 -0.34389542003E+02 -0.22408974280E+03 -0.47646705824E+01  0.22676321464E+03  0.00000000000E+00 0. -1.
         -3    1    6    6    0  503 -0.15718655863E+03 -0.67335862639E+03 -0.15216610291E+03  0.70800704574E+03  0.00000000000E+00 0.  1.
<mgrwt>
<rscale>  0 0.26801119E+04</rscale>
<asrwt>0</asrwt>
<pdfrwt beam="1">  1        2 0.36412266E+00 0.26801119E+04</pdfrwt>
<pdfrwt beam="2">  1       -1 0.11672703E+00 0.26801119E+04</pdfrwt>
<totfact> 0.27477214E+00</totfact>
</mgrwt>
</event>
<event>
12    6  0.1529770E-007  0.3566049E+04  0.7818608E-02  0.8098313E-01
         -1   -1    0    0    0  501 -0.00000000000E+00  0.00000000000E+00  0.10601236647E+04  0.10601236647E+04  0.00000000000E+00 0.  1.
          2   -1    0    0  501    0  0.00000000000E+00 -0.00000000000E+00 -0.29988733119E+04  0.29988733119E+04  0.00000000000E+00 0. -1.
         24    2    1    2    0    0  0.80126119628E+03 -0.57836921166E+03  0.62147684197E+03  0.11700482955E+04  0.79051242753E+02 0.  0.
        254    2    1    2    0    0 -0.80126119628E+03  0.57836921166E+03 -0.25602264892E+04  0.28889486812E+04  0.90262636616E+03 0.  0.
         23    2    4    4    0    0 -0.28620995599E+03  0.72970757820E+03 -0.16257894421E+04  0.18072424909E+04  0.92438207709E+02 0.  0.
         23    2    4    4    0    0 -0.51505124029E+03 -0.15133836655E+03 -0.93443704711E+03  0.10817061903E+04  0.93459113142E+02 0.  0.
          4    1    3    3  502    0  0.41999193101E+03 -0.26077327213E+03  0.33319715547E+03  0.59616798471E+03  0.00000000000E+00 0. -1.
         -3    1    3    3    0  502  0.38126926527E+03 -0.31759593952E+03  0.28827968650E+03  0.57388031077E+03  0.00000000000E+00 0.  1.
         11    1    5    5    0    0 -0.10027670548E+03  0.38187903335E+03 -0.80535203371E+03  0.89692748424E+03  0.00000000000E+00 0. -1.
        -11    1    5    5    0    0 -0.18593325051E+03  0.34782854485E+03 -0.82043740835E+03  0.91031500662E+03  0.00000000000E+00 0.  1.
          1    1    6    6  503    0 -0.43586928283E+03 -0.14514568106E+03 -0.84711794320E+03  0.96366908746E+03  0.00000000000E+00 0. -1.
         -1    1    6    6    0  503 -0.79181957453E+02 -0.61926854841E+01 -0.87319103917E+02  0.11803710285E+03  0.00000000000E+00 0.  1.
<mgrwt>
<rscale>  0 0.35660491E+04</rscale>
<asrwt>0</asrwt>
<pdfrwt beam="1">  1        2 0.46136513E+00 0.35660491E+04</pdfrwt>
<pdfrwt beam="2">  1       -1 0.16309595E+00 0.35660491E+04</pdfrwt>
<totfact> 0.44793892E-01</totfact>
</mgrwt>
</event>
<event>
12    6  0.1529770E-007  0.2659350E+04  0.7818608E-02  0.8348316E-01
          2   -1    0    0  501    0  0.00000000000E+00  0.00000000000E+00  0.74526767855E+03  0.74526767855E+03  0.00000000000E+00 0. -1.
         -1   -1    0    0    0  501 -0.00000000000E+00 -0.00000000000E+00 -0.23723506050E+04  0.23723506050E+04  0.00000000000E+00 0.  1.
         24    2    1    2    0    0  0.41642338936E+02 -0.93473027464E+03  0.92806746423E+02  0.94369820753E+03  0.80612926965E+02 0.  0.
        254    2    1    2    0    0 -0.41642338936E+02  0.93473027464E+03 -0.17198896729E+04  0.21739200761E+04  0.94469743273E+03 0.  0.
         23    2    4    4    0    0 -0.43952835204E+03  0.64404066378E+03 -0.76770537303E+03  0.10980169440E+04  0.91083043033E+02 0.  0.
         23    2    4    4    0    0  0.39788601311E+03  0.29068961085E+03 -0.95218429990E+03  0.10759031321E+04  0.89993773700E+02 0.  0.
          2    1    3    3  502    0  0.51026279136E+02 -0.83544433315E+03  0.10359612172E+03  0.84338785348E+03  0.00000000000E+00 0. -1.
         -1    1    3    3    0  502 -0.93839401994E+01 -0.99285941489E+02 -0.10789375298E+02  0.10031035405E+03  0.00000000000E+00 0.  1.
         11    1    5    5    0    0 -0.33243805454E+02  0.10232074031E+03 -0.95085630377E+02  0.14358259505E+03  0.00000000000E+00 0. -1.
        -11    1    5    5    0    0 -0.40628454659E+03  0.54171992348E+03 -0.67261974265E+03  0.95443434897E+03  0.00000000000E+00 0.  1.
          2    1    6    6  503    0  0.60471993630E+02  0.62792121733E+02 -0.10914201748E+03  0.13968426019E+03  0.00000000000E+00 0. -1.
         -2    1    6    6    0  503  0.33741401948E+03  0.22789748912E+03 -0.84304228242E+03  0.93621887186E+03  0.00000000000E+00 0.  1.
<mgrwt>
<rscale>  0 0.26593505E+04</rscale>
<asrwt>0</asrwt>
<pdfrwt beam="1">  1        2 0.11465657E+00 0.26593505E+04</pdfrwt>
<pdfrwt beam="2">  1       -1 0.36497701E+00 0.26593505E+04</pdfrwt>
<totfact> 0.46865325E-01</totfact>
</mgrwt>
</event>
<event>
12    6  0.1529770E-007  0.2221632E+04  0.7818608E-02  0.8509478E-01
          2   -1    0    0  501    0  0.00000000000E+00  0.00000000000E+00  0.22180969868E+04  0.22180969868E+04  0.00000000000E+00 0. -1.
         -1   -1    0    0    0  501 -0.00000000000E+00 -0.00000000000E+00 -0.55629330838E+03  0.55629330838E+03  0.00000000000E+00 0.  1.
         24    2    1    2    0    0  0.17791639157E+03 -0.13730256756E+03 -0.42653038811E+03  0.48867786838E+03  0.79822613393E+02 0.  0.
        254    2    1    2    0    0 -0.17791639157E+03  0.13730256756E+03  0.20883340666E+04  0.22857124268E+04  0.90157411629E+03 0.  0.
         23    2    4    4    0    0  0.32439513897E+03  0.10487953704E+03  0.46510864534E+03  0.58379856611E+03  0.90899891852E+02 0.  0.
         23    2    4    4    0    0 -0.50231153054E+03  0.32423030521E+02  0.16232254212E+04  0.17019138607E+04  0.91004915253E+02 0.  0.
          4    1    3    3  502    0  0.62887553882E+01 -0.40943636151E+02 -0.82742742733E+02  0.92532649701E+02  0.00000000000E+00 0. -1.
         -3    1    3    3    0  502  0.17162763618E+03 -0.96358931405E+02 -0.34378764538E+03  0.39614521867E+03  0.00000000000E+00 0.  1.
         11    1    5    5    0    0  0.44384141853E+02  0.49900221133E+02  0.10317871330E+03  0.12290578096E+03  0.00000000000E+00 0. -1.
        -11    1    5    5    0    0  0.28001099712E+03  0.54979315903E+02  0.36192993205E+03  0.46089278514E+03  0.00000000000E+00 0.  1.
          2    1    6    6  503    0 -0.25058270432E+03  0.27011526910E+02  0.95905642954E+03  0.99162016384E+03  0.00000000000E+00 0. -1.
         -2    1    6    6    0  503 -0.25172882622E+03  0.54115036109E+01  0.66416899168E+03  0.71029369688E+03  0.00000000000E+00 0.  1.
<mgrwt>
<rscale>  0 0.22216323E+04</rscale>
<asrwt>0</asrwt>
<pdfrwt beam="1">  1        2 0.34124568E+00 0.22216323E+04</pdfrwt>
<pdfrwt beam="2">  1       -1 0.85583587E-01 0.22216323E+04</pdfrwt>
<totfact> 0.70640159E+00</totfact>
</mgrwt>
</event>
<event>
12    6  0.1529770E-007  0.1731106E+04  0.7818608E-02  0.8743819E-01
         -1   -1    0    0    0  501 -0.00000000000E+00  0.00000000000E+00  0.25286090923E+04  0.25286090923E+04  0.00000000000E+00 0.  1.
          2   -1    0    0  501    0  0.00000000000E+00 -0.00000000000E+00 -0.29628239878E+03  0.29628239878E+03  0.00000000000E+00 0. -1.
         24    2    1    2    0    0 -0.31300121775E+03  0.22184165688E+03  0.59797902701E+01  0.39240133063E+03  0.82216563699E+02 0.  0.
        254    2    1    2    0    0  0.31300121775E+03 -0.22184165688E+03  0.22263469033E+04  0.24324901605E+04  0.90177844509E+03 0.  0.
         23    2    4    4    0    0  0.19811086467E+03 -0.28737712745E+03  0.22690797426E+03  0.42662597739E+03  0.93214632539E+02 0.  0.
         23    2    4    4    0    0  0.11489035308E+03  0.65535470570E+02  0.19994389290E+04  0.20058641831E+04  0.90776643339E+02 0.  0.
          2    1    3    3  502    0 -0.24234132236E+03  0.18456756139E+03 -0.27332459691E+02  0.30584565486E+03  0.00000000000E+00 0. -1.
         -1    1    3    3    0  502 -0.70659895384E+02  0.37274095491E+02  0.33312249961E+02  0.86555675769E+02  0.00000000000E+00 0.  1.
         11    1    5    5    0    0  0.54545670992E+02 -0.15606069060E+03  0.85625898079E+02  0.18617723759E+03  0.00000000000E+00 0. -1.
        -11    1    5    5    0    0  0.14356519368E+03 -0.13131643686E+03  0.14128207618E+03  0.24044873981E+03  0.00000000000E+00 0.  1.
          2    1    6    6  503    0  0.71776604699E+02  0.76871713539E+02  0.10191815748E+04  0.10245936871E+04  0.00000000000E+00 0. -1.
         -2    1    6    6    0  503  0.43113748379E+02 -0.11336242968E+02  0.98025735425E+03  0.98127049597E+03  0.00000000000E+00 0.  1.
<mgrwt>
<rscale>  0 0.17311064E+04</rscale>
<asrwt>0</asrwt>
<pdfrwt beam="1">  1        2 0.45581909E-01 0.17311064E+04</pdfrwt>
<pdfrwt beam="2">  1       -1 0.38901677E+00 0.17311064E+04</pdfrwt>
<totfact> 0.10318142E+00</totfact>
</mgrwt>
</event>
<event>
12    6  0.1529770E-007  0.2140614E+04  0.7818608E-02  0.8543561E-01
         -1   -1    0    0    0  501 -0.00000000000E+00  0.00000000000E+00  0.54112878725E+03  0.54112878725E+03  0.00000000000E+00 0.  1.
          2   -1    0    0  501    0  0.00000000000E+00 -0.00000000000E+00 -0.21169767280E+04  0.21169767280E+04  0.00000000000E+00 0. -1.
         24    2    1    2    0    0  0.74810656478E+03  0.40030802752E+03 -0.91623244810E+03  0.12514349462E+04  0.81838722237E+02 0.  0.
        254    2    1    2    0    0 -0.74810656478E+03 -0.40030802752E+03 -0.65961549264E+03  0.14066705690E+04  0.90758996388E+03 0.  0.
         23    2    4    4    0    0 -0.54012156739E+01  0.16872730686E+03 -0.38014510111E+03  0.42597380562E+03  0.91898356743E+02 0.  0.
         23    2    4    4    0    0 -0.74270534911E+03 -0.56903533437E+03 -0.27947039153E+03  0.98069676342E+03  0.90829481384E+02 0.  0.
          4    1    3    3  502    0  0.18607143831E+03  0.67428520965E+02 -0.24280994809E+03  0.31325046925E+03  0.00000000000E+00 0. -1.
         -3    1    3    3    0  502  0.56203512647E+03  0.33287950655E+03 -0.67342250001E+03  0.93818447694E+03  0.00000000000E+00 0.  1.
         11    1    5    5    0    0 -0.35435119466E+02  0.15052161545E+03 -0.33329923925E+03  0.36742453278E+03  0.00000000000E+00 0.  1.
        -11    1    5    5    0    0  0.30033903793E+02  0.18205691406E+02 -0.46845861861E+02  0.58549272840E+02  0.00000000000E+00 0. -1.
          1    1    6    6  503    0 -0.17593873496E+03 -0.94670678418E+02 -0.39755045827E+02  0.20370920322E+03  0.00000000000E+00 0. -1.
         -1    1    6    6    0  503 -0.56676661415E+03 -0.47436465596E+03 -0.23971534571E+03  0.77698756020E+03  0.00000000000E+00 0.  1.
<mgrwt>
<rscale>  0 0.21406140E+04</rscale>
<asrwt>0</asrwt>
<pdfrwt beam="1">  1        2 0.32568873E+00 0.21406140E+04</pdfrwt>
<pdfrwt beam="2">  1       -1 0.83250583E-01 0.21406140E+04</pdfrwt>
<totfact> 0.86067965E+00</totfact>
</mgrwt>
</event>
<event>
12    6  0.1529770E-007  0.1346889E+04  0.7818608E-02  0.8993187E-01
          2   -1    0    0  501    0  0.00000000000E+00  0.00000000000E+00  0.49398736397E+03  0.49398736397E+03  0.00000000000E+00 0. -1.
         -1   -1    0    0    0  501 -0.00000000000E+00 -0.00000000000E+00 -0.91809507993E+03  0.91809507993E+03  0.00000000000E+00 0.  1.
         24    2    1    2    0    0 -0.34825298482E+03  0.49520621736E+02 -0.10957652132E+03  0.37686243670E+03  0.79283344749E+02 0.  0.
        254    2    1    2    0    0  0.34825298482E+03 -0.49520621736E+02 -0.31453119465E+03  0.10352200072E+04  0.92142181301E+03 0.  0.
         23    2    4    4    0    0  0.62298608073E+03  0.68428133469E+02 -0.62667637218E+02  0.63499248527E+03  0.80586334861E+02 0.  0.
         23    2    4    4    0    0 -0.27473309590E+03 -0.11794875521E+03 -0.25186355743E+03  0.40022752193E+03  0.85770827860E+02 0.  0.
          4    1    3    3  502    0 -0.11528985956E+02  0.91448364824E+01 -0.22228935898E+02  0.26658415981E+02  0.00000000000E+00 0. -1.
         -3    1    3    3    0  502 -0.33672399886E+03  0.40375785254E+02 -0.87347585418E+02  0.35020402071E+03  0.00000000000E+00 0.  1.
         11    1    5    5    0    0  0.44836215882E+03  0.76383483117E+02 -0.21089461260E+02  0.45531069318E+03  0.00000000000E+00 0.  1.
        -11    1    5    5    0    0  0.17462392191E+03 -0.79553496482E+01 -0.41578175958E+02  0.17968179209E+03  0.00000000000E+00 0. -1.
          3    1    6    6  503    0 -0.61776401286E+02  0.65313992372E+01 -0.32408404898E+02  0.70066308878E+02  0.00000000000E+00 0. -1.
         -3    1    6    6    0  503 -0.21295669462E+03 -0.12448015444E+03 -0.21945515253E+03  0.33016121305E+03  0.00000000000E+00 0.  1.
<mgrwt>
<rscale>  0 0.13468888E+04</rscale>
<asrwt>0</asrwt>
<pdfrwt beam="1">  1        2 0.75998057E-01 0.13468888E+04</pdfrwt>
<pdfrwt beam="2">  1       -1 0.14124539E+00 0.13468888E+04</pdfrwt>
<totfact> 0.28579114E+01</totfact>
</mgrwt>
</event>
<event>
12    6  0.1529770E-007  0.2205852E+04  0.7818608E-02  0.8515996E-01
          2   -1    0    0  501    0  0.00000000000E+00  0.00000000000E+00  0.18735431920E+04  0.18735431920E+04  0.00000000000E+00 0. -1.
         -1   -1    0    0    0  501 -0.00000000000E+00 -0.00000000000E+00 -0.64927536885E+03  0.64927536885E+03  0.00000000000E+00 0.  1.
         24    2    1    2    0    0  0.50754186182E+03 -0.71911960712E+03  0.24579017927E+03  0.91707245016E+03  0.76663653461E+02 0.  0.
        254    2    1    2    0    0 -0.50754186182E+03  0.71911960712E+03  0.97847764392E+03  0.16057461107E+04  0.91992951994E+03 0.  0.
         23    2    4    4    0    0 -0.49731117192E+03  0.30945627282E+03  0.59335090764E+02  0.59524101946E+03  0.87804508686E+02 0.  0.
         23    2    4    4    0    0 -0.10230689900E+02  0.40966333429E+03  0.91914255316E+03  0.10105050913E+04  0.91481101849E+02 0.  0.
          4    1    3    3  502    0  0.16841058722E+03 -0.22212969508E+03  0.11383006781E+03  0.30109967064E+03  0.00000000000E+00 0. -1.
         -3    1    3    3    0  502  0.33913127461E+03 -0.49698991204E+03  0.13196011146E+03  0.61597277951E+03  0.00000000000E+00 0.  1.
         11    1    5    5    0    0 -0.11622770341E+03  0.31378739490E+02  0.17157178776E+02  0.12160539920E+03  0.00000000000E+00 0. -1.
        -11    1    5    5    0    0 -0.38108346852E+03  0.27807753333E+03  0.42177911988E+02  0.47363562026E+03  0.00000000000E+00 0.  1.
          2    1    6    6  503    0 -0.28086405611E+02  0.25627664623E+03  0.66369116089E+03  0.71200598497E+03  0.00000000000E+00 0.  1.
         -2    1    6    6    0  503  0.17855715711E+02  0.15338668806E+03  0.25545139226E+03  0.29849910631E+03  0.00000000000E+00 0. -1.
<mgrwt>
<rscale>  0 0.22058517E+04</rscale>
<asrwt>0</asrwt>
<pdfrwt beam="1">  1        2 0.28823741E+00 0.22058517E+04</pdfrwt>
<pdfrwt beam="2">  1       -1 0.99888519E-01 0.22058517E+04</pdfrwt>
<totfact> 0.78059478E+00</totfact>
</mgrwt>
</event>
<event>
12    6  0.1529770E-007  0.2817914E+04  0.7818608E-02  0.8297728E-01
          2   -1    0    0  501    0  0.00000000000E+00  0.00000000000E+00  0.10584310828E+04  0.10584310828E+04  0.00000000000E+00 0. -1.
         -1   -1    0    0    0  501 -0.00000000000E+00 -0.00000000000E+00 -0.18755687106E+04  0.18755687106E+04  0.00000000000E+00 0.  1.
         24    2    1    2    0    0 -0.59041379340E+03  0.67660991951E+03  0.56595004150E+03  0.10644516036E+04  0.79801857145E+02 0.  0.
        254    2    1    2    0    0  0.59041379340E+03 -0.67660991951E+03 -0.13830876693E+04  0.18695481897E+04  0.88084590146E+03 0.  0.
         23    2    4    4    0    0  0.32135980949E+02 -0.63228706407E+03 -0.99165613775E+03  0.11801588598E+04  0.92592581498E+02 0.  0.
         23    2    4    4    0    0  0.55827781245E+03 -0.44322855439E+02 -0.39143153153E+03  0.68938932991E+03  0.91653548398E+02 0.  0.
          4    1    3    3  502    0 -0.42858692010E+03  0.53675355502E+03  0.45006867203E+03  0.82118995150E+03  0.00000000000E+00 0. -1.
         -3    1    3    3    0  502 -0.16182687330E+03  0.13985636449E+03  0.11588136947E+03  0.24326165214E+03  0.00000000000E+00 0.  1.
         11    1    5    5    0    0 -0.27003539094E+02 -0.30236184220E+03 -0.50574299101E+03  0.58985409017E+03  0.00000000000E+00 0. -1.
        -11    1    5    5    0    0  0.59139520043E+02 -0.32992522188E+03 -0.48591314674E+03  0.59030476962E+03  0.00000000000E+00 0.  1.
          2    1    6    6  503    0  0.90077653797E+02 -0.40585660154E+02 -0.57757160267E+02  0.11444242695E+03  0.00000000000E+00 0. -1.
         -2    1    6    6    0  503  0.46820015866E+03 -0.37371952852E+01 -0.33367437126E+03  0.57494690297E+03  0.00000000000E+00 0.  1.
<mgrwt>
<rscale>  0 0.28179143E+04</rscale>
<asrwt>0</asrwt>
<pdfrwt beam="1">  1        2 0.16283555E+00 0.28179143E+04</pdfrwt>
<pdfrwt beam="2">  1       -1 0.28854903E+00 0.28179143E+04</pdfrwt>
<totfact> 0.89710319E-01</totfact>
</mgrwt>
</event>
<event>
12    6  0.1529770E-007  0.2703405E+04  0.7818608E-02  0.8333901E-01
         -1   -1    0    0    0  501 -0.00000000000E+00  0.00000000000E+00  0.81346777251E+03  0.81346777251E+03  0.00000000000E+00 0.  1.
          2   -1    0    0  501    0  0.00000000000E+00 -0.00000000000E+00 -0.22460627179E+04  0.22460627179E+04  0.00000000000E+00 0. -1.
         24    2    1    2    0    0  0.65191496212E+03 -0.38032855083E+03 -0.17115563632E+04  0.18723114104E+04  0.80510302906E+02 0.  0.
        254    2    1    2    0    0 -0.65191496212E+03  0.38032855083E+03  0.27896141774E+03  0.11872190800E+04  0.87294143387E+03 0.  0.
         23    2    4    4    0    0 -0.67082385557E+03  0.60547811622E+03  0.24880372715E+03  0.94182815304E+03  0.92350315573E+02 0.  0.
         23    2    4    4    0    0  0.18908893454E+02 -0.22514956539E+03  0.30157690592E+02  0.24539092698E+03  0.90869949363E+02 0.  0.
          4    1    3    3  502    0  0.62087002335E+03 -0.36408377584E+03 -0.15807901885E+04  0.17369324114E+04  0.00000000000E+00 0. -1.
         -3    1    3    3    0  502  0.31044938772E+02 -0.16244774994E+02 -0.13076617466E+03  0.13537899901E+03  0.00000000000E+00 0.  1.
         11    1    5    5    0    0 -0.48102327753E+03  0.40342938493E+03  0.20952045524E+03  0.66184400225E+03  0.00000000000E+00 0.  1.
        -11    1    5    5    0    0 -0.18980057804E+03  0.20204873129E+03  0.39283271916E+02  0.27998415079E+03  0.00000000000E+00 0. -1.
          1    1    6    6  503    0 -0.25408368527E+02 -0.54558172835E+02  0.33943020067E+02  0.69096367673E+02  0.00000000000E+00 0. -1.
         -1    1    6    6    0  503  0.44317261982E+02 -0.17059139255E+03 -0.37853294754E+01  0.17629455931E+03  0.00000000000E+00 0.  1.
<mgrwt>
<rscale>  0 0.27034050E+04</rscale>
<asrwt>0</asrwt>
<pdfrwt beam="1">  1        2 0.34554811E+00 0.27034050E+04</pdfrwt>
<pdfrwt beam="2">  1       -1 0.12514889E+00 0.27034050E+04</pdfrwt>
<totfact> 0.27066681E+00</totfact>
</mgrwt>
</event>
<event>
12    6  0.1529770E-007  0.1355814E+04  0.7818608E-02  0.8986438E-01
         -1   -1    0    0    0  501 -0.00000000000E+00  0.00000000000E+00  0.30150839940E+03  0.30150839940E+03  0.00000000000E+00 0.  1.
          2   -1    0    0  501    0  0.00000000000E+00 -0.00000000000E+00 -0.15241967544E+04  0.15241967544E+04  0.00000000000E+00 0. -1.
         24    2    1    2    0    0 -0.35741575690E+03  0.10628213037E+03 -0.31006376623E+03  0.49084584542E+03  0.75816820888E+02 0.  0.
        254    2    1    2    0    0  0.35741575690E+03 -0.10628213037E+03 -0.91262458877E+03  0.13348593084E+04  0.89995767602E+03 0.  0.
         23    2    4    4    0    0 -0.19983291814E+03 -0.30134623465E+03 -0.42033487349E+03  0.56152713543E+03  0.88817620116E+02 0.  0.
         23    2    4    4    0    0  0.55724867503E+03  0.19506410427E+03 -0.49228971528E+03  0.77333217295E+03  0.84364657013E+02 0.  0.
          4    1    3    3  502    0 -0.12023519706E+03  0.32973018775E+02 -0.59565868401E+02  0.13817313508E+03  0.00000000000E+00 0. -1.
         -3    1    3    3    0  502 -0.23718055984E+03  0.73309111597E+02 -0.25049789783E+03  0.35267271035E+03  0.00000000000E+00 0.  1.
         11    1    5    5    0    0 -0.29606121042E+02 -0.58449445583E+02 -0.13448966956E+03  0.14960057256E+03  0.00000000000E+00 0. -1.
        -11    1    5    5    0    0 -0.17022679709E+03 -0.24289678906E+03 -0.28584520394E+03  0.41192656287E+03  0.00000000000E+00 0.  1.
          3    1    6    6  503    0  0.36344957769E+01  0.21178623768E+01  0.35427812749E+01  0.54996545129E+01  0.00000000000E+00 0. -1.
         -3    1    6    6    0  503  0.55361417926E+03  0.19294624190E+03 -0.49583249655E+03  0.76783251844E+03  0.00000000000E+00 0.  1.
<mgrwt>
<rscale>  0 0.13558143E+04</rscale>
<asrwt>0</asrwt>
<pdfrwt beam="1">  1        2 0.23449181E+00 0.13558143E+04</pdfrwt>
<pdfrwt beam="2">  1       -1 0.46385907E-01 0.13558143E+04</pdfrwt>
<totfact> 0.63303197E+01</totfact>
</mgrwt>
</event>
<event>
12    6  0.1529770E-007  0.1452682E+04  0.7818608E-02  0.8916543E-01
         -1   -1    0    0    0  501 -0.00000000000E+00  0.00000000000E+00  0.45979129005E+03  0.45979129005E+03  0.00000000000E+00 0.  1.
          2   -1    0    0  501    0  0.00000000000E+00 -0.00000000000E+00 -0.11474144603E+04  0.11474144603E+04  0.00000000000E+00 0. -1.
         24    2    1    2    0    0 -0.38304548199E+03  0.22645311945E+03 -0.24664463840E+03  0.51287305980E+03  0.64810039583E+02 0.  0.
        254    2    1    2    0    0  0.38304548199E+03 -0.22645311945E+03 -0.44097853185E+03  0.10943326906E+04  0.89727204096E+03 0.  0.
         23    2    4    4    0    0 -0.10405700319E+03 -0.41628440797E+03 -0.66545401679E+02  0.44501676392E+03  0.97422078896E+02 0.  0.
         23    2    4    4    0    0  0.48710248518E+03  0.18983128852E+03 -0.37443313017E+03  0.64931592664E+03  0.90034740232E+02 0.  0.
          2    1    3    3  502    0 -0.28897040542E+03  0.14582032954E+03 -0.19999098702E+03  0.38047846011E+03  0.00000000000E+00 0. -1.
         -1    1    3    3    0  502 -0.94075076572E+02  0.80632789901E+02 -0.46653651383E+02  0.13239459969E+03  0.00000000000E+00 0.  1.
         11    1    5    5    0    0 -0.60205801109E+02 -0.78136775844E+02 -0.71176594789E+01  0.98897701201E+02  0.00000000000E+00 0.  1.
        -11    1    5    5    0    0 -0.43851202078E+02 -0.33814763212E+03 -0.59427742200E+02  0.34611906272E+03  0.00000000000E+00 0. -1.
          1    1    6    6  503    0  0.28151370867E+03  0.15651847619E+03 -0.22085709590E+03  0.39054559063E+03  0.00000000000E+00 0. -1.
         -1    1    6    6    0  503  0.20558877651E+03  0.33312812336E+02 -0.15357603427E+03  0.25877033600E+03  0.00000000000E+00 0.  1.
<mgrwt>
<rscale>  0 0.14526819E+04</rscale>
<asrwt>0</asrwt>
<pdfrwt beam="1">  1        2 0.17652530E+00 0.14526819E+04</pdfrwt>
<pdfrwt beam="2">  1       -1 0.70737122E-01 0.14526819E+04</pdfrwt>
<totfact> 0.45496981E+01</totfact>
</mgrwt>
</event>
<event>
12    6  0.1529770E-007  0.1398423E+04  0.7818608E-02  0.8954961E-01
          2   -1    0    0  501    0  0.00000000000E+00  0.00000000000E+00  0.27292017947E+03  0.27292017947E+03  0.00000000000E+00 0. -1.
         -3   -1    0    0    0  501 -0.00000000000E+00 -0.00000000000E+00 -0.17913535025E+04  0.17913535025E+04  0.00000000000E+00 0.  1.
         24    2    1    2    0    0 -0.10970674495E+03 -0.31059109456E+03 -0.10816160294E+03  0.35565986029E+03  0.79325947581E+02 0.  0.
        254    2    1    2    0    0  0.10970674495E+03  0.31059109456E+03 -0.14102717200E+04  0.17086138216E+04  0.90663800340E+03 0.  0.
         23    2    4    4    0    0 -0.26796785975E+03  0.48596917768E+02 -0.11213465173E+04  0.11577064057E+04  0.93261329371E+02 0.  0.
         23    2    4    4    0    0  0.37767460470E+03  0.26199417680E+03 -0.28892520271E+03  0.55090741594E+03  0.93499478458E+02 0.  0.
          4    1    3    3  502    0  0.56957990271E+01 -0.25826737593E+00 -0.78503413083E+01  0.97024062609E+01  0.00000000000E+00 0. -1.
         -3    1    3    3    0  502 -0.11540254398E+03 -0.31033282719E+03 -0.10031126163E+03  0.34595745403E+03  0.00000000000E+00 0.  1.
         11    1    5    5    0    0 -0.25953259747E+03  0.62318923791E+02 -0.10928567336E+04  0.11249785143E+04  0.00000000000E+00 0.  1.
        -11    1    5    5    0    0 -0.84352622853E+01 -0.13722006024E+02 -0.28489783761E+02  0.32727891436E+02  0.00000000000E+00 0. -1.
          3    1    6    6  503    0  0.10649393363E+03  0.12808893883E+03 -0.98840104979E+02  0.19369331558E+03  0.00000000000E+00 0. -1.
         -3    1    6    6    0  503  0.27118067107E+03  0.13390523797E+03 -0.19008509773E+03  0.35721410036E+03  0.00000000000E+00 0.  1.
<mgrwt>
<rscale>  0 0.13984227E+04</rscale>
<asrwt>0</asrwt>
<pdfrwt beam="1">  1        2 0.41987722E-01 0.13984227E+04</pdfrwt>
<pdfrwt beam="2">  1       -3 0.27559284E+00 0.13984227E+04</pdfrwt>
<totfact> 0.38592614E+00</totfact>
</mgrwt>
</event>
<event>
12    6  0.1529770E-007  0.1991547E+04  0.7818608E-02  0.8610583E-01
          2   -1    0    0  501    0  0.00000000000E+00  0.00000000000E+00  0.96354547287E+03  0.96354547287E+03  0.00000000000E+00 0. -1.
         -1   -1    0    0    0  501 -0.00000000000E+00 -0.00000000000E+00 -0.10290796382E+04  0.10290796382E+04  0.00000000000E+00 0.  1.
         24    2    1    2    0    0  0.61688090576E+03  0.34293197772E+03  0.33435666180E+03  0.78507042317E+03  0.79979990097E+02 0.  0.
        254    2    1    2    0    0 -0.61688090576E+03 -0.34293197772E+03 -0.39989082713E+03  0.12075546879E+04  0.89450056310E+03 0.  0.
         23    2    4    4    0    0 -0.81918841575E+03 -0.36629790305E+03 -0.39709223307E+03  0.98579613052E+03  0.94169820482E+02 0.  0.
         23    2    4    4    0    0  0.20230750999E+03  0.23365925330E+02 -0.27985940507E+01  0.22175855737E+03  0.87719613384E+02 0.  0.
          4    1    3    3  502    0  0.56388040929E+03  0.28548731892E+03  0.29301393675E+03  0.69665005015E+03  0.00000000000E+00 0. -1.
         -3    1    3    3    0  502  0.53000496470E+02  0.57444658801E+02  0.41342725049E+02  0.88420373022E+02  0.00000000000E+00 0.  1.
         11    1    5    5    0    0 -0.16305357511E+03 -0.59482515825E+02 -0.39472696723E+02  0.17799643769E+03  0.00000000000E+00 0. -1.
        -11    1    5    5    0    0 -0.65613484064E+03 -0.30681538722E+03 -0.35761953635E+03  0.80779969282E+03  0.00000000000E+00 0.  1.
          3    1    6    6  503    0  0.65516456056E+02  0.48435151529E+02 -0.12141194748E+02  0.82375837038E+02  0.00000000000E+00 0. -1.
         -3    1    6    6    0  503  0.13679105394E+03 -0.25069226199E+02  0.93426006975E+01  0.13938272033E+03  0.00000000000E+00 0.  1.
<mgrwt>
<rscale>  0 0.19915472E+04</rscale>
<asrwt>0</asrwt>
<pdfrwt beam="1">  1        2 0.14823777E+00 0.19915472E+04</pdfrwt>
<pdfrwt beam="2">  1       -1 0.15831994E+00 0.19915472E+04</pdfrwt>
<totfact> 0.84908494E+00</totfact>
</mgrwt>
</event>
<event>
12    6  0.1529770E-007  0.3648664E+04  0.7818608E-02  0.8079435E-01
         -1   -1    0    0    0  501 -0.00000000000E+00  0.00000000000E+00  0.82895496532E+03  0.82895496532E+03  0.00000000000E+00 0.  1.
          2   -1    0    0  501    0  0.00000000000E+00 -0.00000000000E+00 -0.40149196334E+04  0.40149196334E+04  0.00000000000E+00 0. -1.
         24    2    1    2    0    0  0.19085823500E+03 -0.54051615055E+02  0.76658896983E+03  0.79581083475E+03  0.79421615976E+02 0.  0.
        254    2    1    2    0    0 -0.19085823500E+03  0.54051615055E+02 -0.39525536379E+04  0.40480637640E+04  0.85134689385E+03 0.  0.
         23    2    4    4    0    0  0.87285453338E+02 -0.34481125702E+03 -0.20320352611E+04  0.20648214811E+04  0.88356623353E+02 0.  0.
         23    2    4    4    0    0 -0.27814368833E+03  0.39886287207E+03 -0.19205183768E+04  0.19832422829E+04  0.91671233481E+02 0.  0.
          4    1    3    3  502    0  0.16264495007E+02 -0.29168760961E+02  0.75174367399E+02  0.82258956520E+02  0.00000000000E+00 0. -1.
         -3    1    3    3    0  502  0.17459373999E+03 -0.24882854094E+02  0.69141460243E+03  0.71355187823E+03  0.00000000000E+00 0.  1.
         11    1    5    5    0    0  0.54532660382E+02 -0.32133002131E+03 -0.17822940601E+04  0.18118495827E+04  0.00000000000E+00 0. -1.
        -11    1    5    5    0    0  0.32752792957E+02 -0.23481235709E+02 -0.24974120101E+03  0.25297189835E+03  0.00000000000E+00 0.  1.
          4    1    6    6  503    0 -0.79105983125E+02  0.19250740954E+03 -0.80470906827E+03  0.83118803158E+03  0.00000000000E+00 0. -1.
         -4    1    6    6    0  503 -0.19903770521E+03  0.20635546253E+03 -0.11158093085E+04  0.11520542513E+04  0.00000000000E+00 0.  1.
<mgrwt>
<rscale>  0 0.36486642E+04</rscale>
<asrwt>0</asrwt>
<pdfrwt beam="1">  1        2 0.61767994E+00 0.36486642E+04</pdfrwt>
<pdfrwt beam="2">  1       -1 0.12753153E+00 0.36486642E+04</pdfrwt>
<totfact> 0.16261399E-01</totfact>
</mgrwt>
</event>
<event>
12    6  0.1529770E-007  0.1246224E+04  0.7818608E-02  0.9073332E-01
         -1   -1    0    0    0  501 -0.00000000000E+00  0.00000000000E+00  0.51431594263E+03  0.51431594263E+03  0.00000000000E+00 0.  1.
          2   -1    0    0  501    0  0.00000000000E+00 -0.00000000000E+00 -0.75492218709E+03  0.75492218709E+03  0.00000000000E+00 0. -1.
         24    2    1    2    0    0 -0.67915400279E+00 -0.56850661651E+02 -0.32883447494E+03  0.34294254880E+03  0.79025444559E+02 0.  0.
        254    2    1    2    0    0  0.67915400278E+00  0.56850661651E+02  0.88228230482E+02  0.92629558092E+03  0.92032973635E+03 0.  0.
         23    2    4    4    0    0  0.73558133882E+02  0.41437773081E+03 -0.17660827448E+03  0.46660170371E+03  0.96989506879E+02 0.  0.
         23    2    4    4    0    0 -0.72878979879E+02 -0.35752706916E+03  0.26483650496E+03  0.45969387721E+03  0.89683529698E+02 0.  0.
          2    1    3    3  502    0  0.10057419031E+02 -0.22689516953E+02 -0.28616181286E+03  0.28723605101E+03  0.00000000000E+00 0. -1.
         -1    1    3    3    0  502 -0.10736573034E+02 -0.34161144698E+02 -0.42672662079E+02  0.55706497794E+02  0.00000000000E+00 0.  1.
         11    1    5    5    0    0 -0.27472649422E+01  0.17067039401E+03 -0.33789608221E+02  0.17400479442E+03  0.00000000000E+00 0.  1.
        -11    1    5    5    0    0  0.76305398824E+02  0.24370733680E+03 -0.14281866626E+03  0.29259690929E+03  0.00000000000E+00 0. -1.
          3    1    6    6  503    0 -0.45308447075E+02 -0.24718289121E+03  0.23020242246E+03  0.34080110386E+03  0.00000000000E+00 0. -1.
         -3    1    6    6    0  503 -0.27570532805E+02 -0.11034417794E+03  0.34634082499E+02  0.11889277335E+03  0.00000000000E+00 0.  1.
<mgrwt>
<rscale>  0 0.12462239E+04</rscale>
<asrwt>0</asrwt>
<pdfrwt beam="1">  1        2 0.11614187E+00 0.12462239E+04</pdfrwt>
<pdfrwt beam="2">  1       -1 0.79125530E-01 0.12462239E+04</pdfrwt>
<totfact> 0.66726758E+01</totfact>
</mgrwt>
</event>
<event>
12    6  0.1529770E-007  0.1410184E+04  0.7818608E-02  0.8946479E-01
         -1   -1    0    0    0  501 -0.00000000000E+00  0.00000000000E+00  0.22539753246E+03  0.22539753246E+03  0.00000000000E+00 0.  1.
          2   -1    0    0  501    0  0.00000000000E+00 -0.00000000000E+00 -0.22056810838E+04  0.22056810838E+04  0.00000000000E+00 0. -1.
         24    2    1    2    0    0  0.12948621603E+03  0.38056495843E+03 -0.50135504787E+03  0.64765762917E+03  0.80666925508E+02 0.  0.
        254    2    1    2    0    0 -0.12948621603E+03 -0.38056495843E+03 -0.14789285034E+04  0.17834209870E+04  0.91201125600E+03 0.  0.
         23    2    4    4    0    0 -0.47926707911E+03 -0.37833160670E+03 -0.10858278719E+04  0.12492736221E+04  0.93971685824E+02 0.  0.
         23    2    4    4    0    0  0.34978086309E+03 -0.22333517380E+01 -0.39310063152E+03  0.53414736494E+03  0.91834965711E+02 0.  0.
          2    1    3    3  502    0  0.86691810400E+02  0.29785252703E+03 -0.33191513867E+03  0.45431185008E+03  0.00000000000E+00 0. -1.
         -1    1    3    3    0  502  0.42794405627E+02  0.82712431410E+02 -0.16943990920E+03  0.19334577909E+03  0.00000000000E+00 0.  1.
         11    1    5    5    0    0 -0.20244699974E+03 -0.17002436384E+03 -0.37884178583E+03  0.46196771607E+03  0.00000000000E+00 0.  1.
        -11    1    5    5    0    0 -0.27682007938E+03 -0.20830724286E+03 -0.70698608608E+03  0.78730590604E+03  0.00000000000E+00 0. -1.
          2    1    6    6  503    0  0.39172528329E+02 -0.17164901348E+02 -0.16713097292E+02  0.45917844408E+02  0.00000000000E+00 0. -1.
         -2    1    6    6    0  503  0.31060833476E+03  0.14931549610E+02 -0.37638753423E+03  0.48822952053E+03  0.00000000000E+00 0.  1.
<mgrwt>
<rscale>  0 0.14101845E+04</rscale>
<asrwt>0</asrwt>
<pdfrwt beam="1">  1        2 0.33933556E+00 0.14101845E+04</pdfrwt>
<pdfrwt beam="2">  1       -1 0.34676542E-01 0.14101845E+04</pdfrwt>
<totfact> 0.44872143E+01</totfact>
</mgrwt>
</event>
<event>
12    6  0.1529770E-007  0.4485028E+04  0.7818608E-02  0.7913263E-01
          2   -1    0    0  501    0  0.00000000000E+00  0.00000000000E+00  0.35776573051E+04  0.35776573051E+04  0.00000000000E+00 0. -1.
         -3   -1    0    0    0  501 -0.00000000000E+00 -0.00000000000E+00 -0.14056319976E+04  0.14056319976E+04  0.00000000000E+00 0.  1.
         24    2    1    2    0    0  0.43112787799E+03 -0.92872196040E+03  0.31433691388E+04  0.33068825069E+04  0.79414385104E+02 0.  0.
        254    2    1    2    0    0 -0.43112787799E+03  0.92872196040E+03 -0.97134383127E+03  0.16764067958E+04  0.90467407362E+03 0.  0.
         23    2    4    4    0    0 -0.41879484726E+03  0.10668448484E+04 -0.66478677339E+03  0.13280679297E+04  0.90972068552E+02 0.  0.
         23    2    4    4    0    0 -0.12333030732E+02 -0.13812288796E+03 -0.30655705788E+03  0.34833886608E+03  0.90181484019E+02 0.  0.
          4    1    3    3  502    0  0.41631244852E+03 -0.89512511045E+03  0.29735739195E+04  0.31331624396E+04  0.00000000000E+00 0. -1.
         -3    1    3    3    0  502  0.14815429468E+02 -0.33596849950E+02  0.16979521927E+03  0.17372006725E+03  0.00000000000E+00 0.  1.
         11    1    5    5    0    0 -0.40351636473E+03  0.10499066651E+04 -0.66187999560E+03  0.13050726381E+04  0.00000000000E+00 0. -1.
        -11    1    5    5    0    0 -0.15278482530E+02  0.16938183264E+02 -0.29067777859E+01  0.22995291645E+02  0.00000000000E+00 0.  1.
          3    1    6    6  503    0 -0.51622695872E+02 -0.78631821636E+02 -0.16974064045E+03  0.19406120458E+03  0.00000000000E+00 0. -1.
         -3    1    6    6    0  503  0.39289665140E+02 -0.59491066325E+02 -0.13681641743E+03  0.15427766150E+03  0.00000000000E+00 0.  1.
<mgrwt>
<rscale>  0 0.44850282E+04</rscale>
<asrwt>0</asrwt>
<pdfrwt beam="1">  1        2 0.55040881E+00 0.44850282E+04</pdfrwt>
<pdfrwt beam="2">  1       -3 0.21625108E+00 0.44850282E+04</pdfrwt>
<totfact> 0.39893027E-02</totfact>
</mgrwt>
</event>
<event>
12    6  0.1529770E-007  0.1777395E+04  0.7818608E-02  0.8718414E-01
          2   -1    0    0  501    0  0.00000000000E+00  0.00000000000E+00  0.84868240666E+03  0.84868240666E+03  0.00000000000E+00 0. -1.
         -1   -1    0    0    0  501 -0.00000000000E+00 -0.00000000000E+00 -0.93059965856E+03  0.93059965856E+03  0.00000000000E+00 0.  1.
         24    2    1    2    0    0 -0.96853360973E+02  0.63538734431E+03 -0.98314230829E+02  0.65511711143E+03  0.80094262396E+02 0.  0.
        254    2    1    2    0    0  0.96853360973E+02 -0.63538734431E+03  0.16396978924E+02  0.11241649538E+04  0.92216068641E+03 0.  0.
         23    2    4    4    0    0  0.42065540662E+03 -0.13819003709E+03 -0.18907751571E+03  0.49043968780E+03  0.93452249549E+02 0.  0.
         23    2    4    4    0    0 -0.32380204565E+03 -0.49719730721E+03  0.20547449463E+03  0.63372526599E+03  0.85644718092E+02 0.  0.
          4    1    3    3  502    0  0.29614139117E+01  0.23266342912E+02  0.10048497929E+02  0.25515975299E+02  0.00000000000E+00 0. -1.
         -3    1    3    3    0  502 -0.99814774885E+02  0.61212100140E+03 -0.10836272876E+03  0.62960113613E+03  0.00000000000E+00 0.  1.
         11    1    5    5    0    0  0.28133179256E+03 -0.13455968795E+03 -0.11329326503E+03  0.33179700274E+03  0.00000000000E+00 0.  1.
        -11    1    5    5    0    0  0.13932361406E+03 -0.36303491418E+01 -0.75784250682E+02  0.15864268505E+03  0.00000000000E+00 0. -1.
          1    1    6    6  503    0 -0.50928801603E+02 -0.14647543552E+03  0.49880509879E+02  0.16290138522E+03  0.00000000000E+00 0. -1.
         -1    1    6    6    0  503 -0.27287324405E+03 -0.35072187170E+03  0.15559398476E+03  0.47082388076E+03  0.00000000000E+00 0.  1.
<mgrwt>
<rscale>  0 0.17773954E+04</rscale>
<asrwt>0</asrwt>
<pdfrwt beam="1">  1        2 0.13056652E+00 0.17773954E+04</pdfrwt>
<pdfrwt beam="2">  1       -1 0.14316918E+00 0.17773954E+04</pdfrwt>
<totfact> 0.13569037E+01</totfact>
</mgrwt>
</event>
<event>
12    6  0.1529770E-007  0.1196727E+04  0.7818608E-02  0.9115726E-01
         -1   -1    0    0    0  501 -0.00000000000E+00  0.00000000000E+00  0.83776702214E+03  0.83776702214E+03  0.00000000000E+00 0.  1.
          2   -1    0    0  501    0  0.00000000000E+00 -0.00000000000E+00 -0.42737271192E+03  0.42737271192E+03  0.00000000000E+00 0. -1.
         24    2    1    2    0    0 -0.22100998703E+03  0.89564922450E+02 -0.30642159490E+02  0.25350558365E+03  0.80366966491E+02 0.  0.
        254    2    1    2    0    0  0.22100998703E+03 -0.89564922450E+02  0.44103646970E+03  0.10116341504E+04  0.87864850593E+03 0.  0.
         23    2    4    4    0    0 -0.30478355950E+01 -0.10647938523E+03  0.66593663406E+03  0.68065616039E+03  0.92054653943E+02 0.  0.
         23    2    4    4    0    0  0.22405782263E+03  0.16914462784E+02 -0.22490016436E+03  0.33097799002E+03  0.92077896472E+02 0.  0.
          2    1    3    3  502    0 -0.19866845627E+03  0.10312454947E+03 -0.36307043329E+02  0.22676426000E+03  0.00000000000E+00 0. -1.
         -1    1    3    3    0  502 -0.22341530761E+02 -0.13559627016E+02  0.56648838391E+01  0.26741323648E+02  0.00000000000E+00 0.  1.
         11    1    5    5    0    0 -0.11008552441E+02 -0.16655085103E+02  0.19320648162E+02  0.27782504063E+02  0.00000000000E+00 0. -1.
        -11    1    5    5    0    0  0.79607168458E+01 -0.89824300131E+02  0.64661598590E+03  0.65287365633E+03  0.00000000000E+00 0.  1.
          4    1    6    6  503    0  0.40503137127E+02 -0.24067094047E+02 -0.15688754217E+02  0.49657488276E+02  0.00000000000E+00 0. -1.
         -4    1    6    6    0  503  0.18355468550E+03  0.40981556830E+02 -0.20921141014E+03  0.28132050174E+03  0.00000000000E+00 0.  1.
<mgrwt>
<rscale>  0 0.11967268E+04</rscale>
<asrwt>0</asrwt>
<pdfrwt beam="1">  1        2 0.65749648E-01 0.11967268E+04</pdfrwt>
<pdfrwt beam="2">  1       -1 0.12888723E+00 0.11967268E+04</pdfrwt>
<totfact> 0.43189973E+01</totfact>
</mgrwt>
</event>
<event>
12    6  0.1529770E-007  0.1658179E+04  0.7818608E-02  0.8785582E-01
          2   -1    0    0  501    0  0.00000000000E+00  0.00000000000E+00  0.36227491528E+04  0.36227491528E+04  0.00000000000E+00 0. -1.
         -1   -1    0    0    0  501 -0.00000000000E+00 -0.00000000000E+00 -0.18974258690E+03  0.18974258690E+03  0.00000000000E+00 0.  1.
         24    2    1    2    0    0  0.78435223049E+02 -0.57432013632E+03  0.11416140242E+04  0.12827849956E+04  0.79114230342E+02 0.  0.
        254    2    1    2    0    0 -0.78435223049E+02  0.57432013632E+03  0.22913925417E+04  0.25297067441E+04  0.90163225758E+03 0.  0.
         23    2    4    4    0    0 -0.48094751709E+03  0.34442024479E+03  0.13413575417E+04  0.14687183220E+04  0.89205579970E+02 0.  0.
         23    2    4    4    0    0  0.40251229405E+03  0.22989989153E+03  0.95003499994E+03  0.10609884221E+04  0.90883572002E+02 0.  0.
          4    1    3    3  502    0  0.48732855338E+02 -0.18178014508E+03  0.43379652604E+03  0.47286185968E+03  0.00000000000E+00 0. -1.
         -1    1    3    3    0  502  0.29702367712E+02 -0.39253999124E+03  0.70781749817E+03  0.80992313591E+03  0.00000000000E+00 0.  1.
         11    1    5    5    0    0 -0.33326411829E+03  0.25079093791E+03  0.10365149678E+04  0.11172843620E+04  0.00000000000E+00 0.  1.
        -11    1    5    5    0    0 -0.14768339881E+03  0.93629306877E+02  0.30484257391E+03  0.35143396003E+03  0.00000000000E+00 0. -1.
          2    1    6    6  503    0  0.12237092301E+03  0.45918768602E+02  0.35137226651E+03  0.37489417945E+03  0.00000000000E+00 0. -1.
         -2    1    6    6    0  503  0.28014137103E+03  0.18398112293E+03  0.59866273343E+03  0.68609424262E+03  0.00000000000E+00 0.  1.
<mgrwt>
<rscale>  0 0.16581795E+04</rscale>
<asrwt>0</asrwt>
<pdfrwt beam="1">  1        2 0.55734597E+00 0.16581795E+04</pdfrwt>
<pdfrwt beam="2">  1       -1 0.29191170E-01 0.16581795E+04</pdfrwt>
<totfact> 0.78320254E+00</totfact>
</mgrwt>
</event>
<event>
12    6  0.1529770E-007  0.1343412E+04  0.7818608E-02  0.8995830E-01
         -1   -1    0    0    0  501 -0.00000000000E+00  0.00000000000E+00  0.16515941024E+03  0.16515941024E+03  0.00000000000E+00 0.  1.
          2   -1    0    0  501    0  0.00000000000E+00 -0.00000000000E+00 -0.27318403764E+04  0.27318403764E+04  0.00000000000E+00 0. -1.
         24    2    1    2    0    0 -0.20956112884E+03  0.18976424724E+03 -0.21017552574E+03  0.36036130763E+03  0.75895877132E+02 0.  0.
        254    2    1    2    0    0  0.20956112884E+03 -0.18976424724E+03 -0.23565054405E+04  0.25366384791E+04  0.89526004394E+03 0.  0.
         23    2    4    4    0    0  0.37129486213E+03  0.14050059762E+02 -0.37302111771E+03  0.53417700741E+03  0.90238806298E+02 0.  0.
         23    2    4    4    0    0 -0.16173373329E+03 -0.20381430700E+03 -0.19834843227E+04  0.20024614716E+04  0.89128079915E+02 0.  0.
          2    1    3    3  502    0 -0.32644981607E+02  0.45019414865E+02 -0.79633056288E+02  0.97128091676E+02  0.00000000000E+00 0. -1.
         -1    1    3    3    0  502 -0.17691614723E+03  0.14474483238E+03 -0.13054246945E+03  0.26323321595E+03  0.00000000000E+00 0.  1.
         11    1    5    5    0    0  0.29928730876E+01  0.11738539855E+02 -0.38793415582E+01  0.12720058890E+02  0.00000000000E+00 0.  1.
        -11    1    5    5    0    0  0.36830198904E+03  0.23115199073E+01 -0.36914177615E+03  0.52145694851E+03  0.00000000000E+00 0. -1.
          3    1    6    6  503    0 -0.15144328992E+03 -0.14910044790E+03 -0.17254876444E+04  0.17385262795E+04  0.00000000000E+00 0. -1.
         -3    1    6    6    0  503 -0.10290443375E+02 -0.54713859102E+02 -0.25799667836E+03  0.26393519213E+03  0.00000000000E+00 0.  1.
<mgrwt>
<rscale>  0 0.13434123E+04</rscale>
<asrwt>0</asrwt>
<pdfrwt beam="1">  1        2 0.42028311E+00 0.13434123E+04</pdfrwt>
<pdfrwt beam="2">  1       -1 0.25409142E-01 0.13434123E+04</pdfrwt>
<totfact> 0.38794370E+01</totfact>
</mgrwt>
</event>
<event>
12    6  0.1529770E-007  0.2601064E+04  0.7818608E-02  0.8367840E-01
          2   -1    0    0  501    0  0.00000000000E+00  0.00000000000E+00  0.18007234685E+04  0.18007234685E+04  0.00000000000E+00 0. -1.
         -1   -1    0    0    0  501 -0.00000000000E+00 -0.00000000000E+00 -0.93927984810E+03  0.93927984810E+03  0.00000000000E+00 0.  1.
         24    2    1    2    0    0 -0.98512326437E+02  0.80978235200E+03  0.12213134974E+04  0.14728153002E+04  0.11011863402E+03 0.  0.
        254    2    1    2    0    0  0.98512326437E+02 -0.80978235200E+03 -0.35986987700E+03  0.12671880164E+04  0.90044822416E+03 0.  0.
         23    2    4    4    0    0 -0.13901191476E+03 -0.86223020172E+03 -0.45636213673E+03  0.98966328577E+03  0.91661257600E+02 0.  0.
         23    2    4    4    0    0  0.23752424120E+03  0.52447849725E+02  0.96492259721E+02  0.27752473061E+03  0.92415787694E+02 0.  0.
          2    1    3    3  502    0 -0.54780527150E+02  0.38476712733E+03  0.48488278265E+03  0.62141609356E+03  0.00000000000E+00 0. -1.
         -1    1    3    3    0  502 -0.43731799287E+02  0.42501522467E+03  0.73643071471E+03  0.85139920663E+03  0.00000000000E+00 0.  1.
         11    1    5    5    0    0 -0.33797588203E+02 -0.49478497967E+03 -0.25525726448E+03  0.55777300414E+03  0.00000000000E+00 0.  1.
        -11    1    5    5    0    0 -0.10521432656E+03 -0.36744522205E+03 -0.20110487225E+03  0.43189028163E+03  0.00000000000E+00 0. -1.
          1    1    6    6  503    0  0.20837432892E+03  0.34390119046E+02  0.45440884982E+02  0.21602642261E+03  0.00000000000E+00 0. -1.
         -1    1    6    6    0  503  0.29149912280E+02  0.18057730679E+02  0.51051374738E+02  0.61498307992E+02  0.00000000000E+00 0.  1.
<mgrwt>
<rscale>  0 0.26010638E+04</rscale>
<asrwt>0</asrwt>
<pdfrwt beam="1">  1        2 0.27703438E+00 0.26010638E+04</pdfrwt>
<pdfrwt beam="2">  1       -1 0.14450459E+00 0.26010638E+04</pdfrwt>
<totfact> 0.33463307E+00</totfact>
</mgrwt>
</event>
<event>
12    6  0.1529770E-007  0.1286092E+04  0.7818608E-02  0.9040668E-01
          2   -1    0    0  501    0  0.00000000000E+00  0.00000000000E+00  0.16857684429E+04  0.16857684429E+04  0.00000000000E+00 0. -1.
         -1   -1    0    0    0  501 -0.00000000000E+00 -0.00000000000E+00 -0.24529359710E+03  0.24529359710E+03  0.00000000000E+00 0.  1.
         24    2    1    2    0    0  0.18587119075E+03  0.25286873004E+03  0.36659401061E+03  0.48911515090E+03  0.79697980171E+02 0.  0.
        254    2    1    2    0    0 -0.18587119075E+03 -0.25286873004E+03  0.10738808352E+04  0.14419468891E+04  0.90967031863E+03 0.  0.
         23    2    4    4    0    0 -0.28144927667E+03  0.20120372360E+03  0.12102863993E+03  0.37767959487E+03  0.91089576619E+02 0.  0.
         23    2    4    4    0    0  0.95578085917E+02 -0.45407245364E+03  0.95285219524E+03  0.10642672942E+04  0.97059795413E+02 0.  0.
          4    1    3    3  502    0  0.73389514842E+02  0.72123091707E+02  0.71728789424E+02  0.12543038100E+03  0.00000000000E+00 0. -1.
         -3    1    3    3    0  502  0.11248167591E+03  0.18074563833E+03  0.29486522119E+03  0.36368476990E+03  0.00000000000E+00 0.  1.
         11    1    5    5    0    0 -0.49104721796E+02  0.83239223152E+02  0.42071924763E+02  0.10540440611E+03  0.00000000000E+00 0. -1.
        -11    1    5    5    0    0 -0.23234455487E+03  0.11796450045E+03  0.78956715165E+02  0.27227518876E+03  0.00000000000E+00 0.  1.
          1    1    6    6  503    0 -0.18992720096E+02 -0.10389202936E+03  0.21425089973E+03  0.23886758930E+03  0.00000000000E+00 0. -1.
         -1    1    6    6    0  503  0.11457080601E+03 -0.35018042428E+03  0.73860129550E+03  0.82539970491E+03  0.00000000000E+00 0.  1.
<mgrwt>
<rscale>  0 0.12860921E+04</rscale>
<asrwt>0</asrwt>
<pdfrwt beam="1">  1        2 0.25934898E+00 0.12860921E+04</pdfrwt>
<pdfrwt beam="2">  1       -1 0.37737478E-01 0.12860921E+04</pdfrwt>
<totfact> 0.75606233E+01</totfact>
</mgrwt>
</event>
<event>
12    6  0.1529770E-007  0.2104779E+04  0.7818608E-02  0.8559141E-01
          2   -1    0    0  501    0  0.00000000000E+00  0.00000000000E+00  0.28843698360E+04  0.28843698360E+04  0.00000000000E+00 0. -1.
         -1   -1    0    0    0  501 -0.00000000000E+00 -0.00000000000E+00 -0.38397416189E+03  0.38397416189E+03  0.00000000000E+00 0.  1.
         24    2    1    2    0    0  0.10685866973E+03 -0.69081473268E+03  0.24171369633E+03  0.74378470698E+03  0.78399037980E+02 0.  0.
        254    2    1    2    0    0 -0.10685866973E+03  0.69081473268E+03  0.22586819777E+04  0.25245592909E+04  0.88493591089E+03 0.  0.
         23    2    4    4    0    0 -0.29564445347E+03  0.77488092738E+03  0.20610538326E+04  0.22237395654E+04  0.96065911826E+02 0.  0.
         23    2    4    4    0    0  0.18878578374E+03 -0.84066194699E+02  0.19762814518E+03  0.30081972550E+03  0.93426046943E+02 0.  0.
          4    1    3    3  502    0  0.74923644827E+02 -0.27762704946E+03  0.75759378270E+02  0.29737150930E+03  0.00000000000E+00 0. -1.
         -3    1    3    3    0  502  0.31935024904E+02 -0.41318768322E+03  0.16595431806E+03  0.44641319768E+03  0.00000000000E+00 0.  1.
         11    1    5    5    0    0 -0.15077075631E+03  0.36892714419E+03  0.11160733778E+04  0.11850986640E+04  0.00000000000E+00 0. -1.
        -11    1    5    5    0    0 -0.14487369716E+03  0.40595378319E+03  0.94498045472E+03  0.10386409014E+04  0.00000000000E+00 0.  1.
          3    1    6    6  503    0  0.12194351884E+03 -0.94538415313E+02  0.10719676811E+03  0.18787996394E+03  0.00000000000E+00 0. -1.
         -3    1    6    6    0  503  0.66842264899E+02  0.10472220614E+02  0.90431377072E+02  0.11293976156E+03  0.00000000000E+00 0.  1.
<mgrwt>
<rscale>  0 0.21047788E+04</rscale>
<asrwt>0</asrwt>
<pdfrwt beam="1">  1        2 0.44374919E+00 0.21047788E+04</pdfrwt>
<pdfrwt beam="2">  1       -1 0.59072950E-01 0.21047788E+04</pdfrwt>
<totfact> 0.62631502E+00</totfact>
</mgrwt>
</event>
<event>
12    6  0.1529770E-007  0.2073127E+04  0.7818608E-02  0.8573174E-01
         -1   -1    0    0    0  501 -0.00000000000E+00  0.00000000000E+00  0.20852068366E+04  0.20852068366E+04  0.00000000000E+00 0.  1.
          2   -1    0    0  501    0  0.00000000000E+00 -0.00000000000E+00 -0.51527943892E+03  0.51527943892E+03  0.00000000000E+00 0. -1.
         24    2    1    2    0    0 -0.80721925206E+03  0.26298128970E+03  0.60158588802E+03  0.10434553431E+04  0.78303210183E+02 0.  0.
        254    2    1    2    0    0  0.80721925206E+03 -0.26298128970E+03  0.96834150967E+03  0.15570309324E+04  0.87515596644E+03 0.  0.
         23    2    4    4    0    0  0.27189517076E+03  0.25474656306E+03  0.75910799497E+02  0.39116572012E+03  0.91789846069E+02 0.  0.
         23    2    4    4    0    0  0.53532408130E+03 -0.51772785276E+03  0.89243071017E+03  0.11658652123E+04  0.90526898234E+02 0.  0.
          2    1    3    3  502    0 -0.72320693187E+03  0.23136443871E+03  0.56528618184E+03  0.94662888039E+03  0.00000000000E+00 0. -1.
         -1    1    3    3    0  502 -0.84012320190E+02  0.31616850988E+02  0.36299706178E+02  0.96826462699E+02  0.00000000000E+00 0.  1.
         11    1    5    5    0    0  0.22234740296E+02  0.47041841321E+01  0.25642755084E+02  0.34264616045E+02  0.00000000000E+00 0.  1.
        -11    1    5    5    0    0  0.24966043046E+03  0.25004237893E+03  0.50268044412E+02  0.35690110407E+03  0.00000000000E+00 0. -1.
          4    1    6    6  503    0  0.27546916264E+03 -0.21908236292E+03  0.37397529262E+03  0.51355414593E+03  0.00000000000E+00 0.  1.
         -4    1    6    6    0  503  0.25985491866E+03 -0.29864548984E+03  0.51845541755E+03  0.65231106640E+03  0.00000000000E+00 0. -1.
<mgrwt>
<rscale>  0 0.20731273E+04</rscale>
<asrwt>0</asrwt>
<pdfrwt beam="1">  1        2 0.79273761E-01 0.20731273E+04</pdfrwt>
<pdfrwt beam="2">  1       -1 0.32080105E+00 0.20731273E+04</pdfrwt>
<totfact> 0.15179088E+00</totfact>
</mgrwt>
</event>
<event>
12    6  0.1529770E-007  0.1247773E+04  0.7818608E-02  0.9072039E-01
         -3   -1    0    0    0  501 -0.00000000000E+00  0.00000000000E+00  0.43309330995E+03  0.43309330995E+03  0.00000000000E+00 0.  1.
          2   -1    0    0  501    0  0.00000000000E+00 -0.00000000000E+00 -0.89873095983E+03  0.89873095983E+03  0.00000000000E+00 0. -1.
         24    2    1    2    0    0  0.19031918708E+03 -0.17645849434E+03 -0.23789847304E+03  0.36065698436E+03  0.78222654637E+02 0.  0.
        254    2    1    2    0    0 -0.19031918708E+03  0.17645849434E+03 -0.22773917684E+03  0.97116728542E+03  0.90771238309E+03 0.  0.
         23    2    4    4    0    0 -0.49243997612E+03 -0.86381605101E+02 -0.23579559122E+03  0.56036186276E+03  0.91907260988E+02 0.  0.
         23    2    4    4    0    0  0.30212078903E+03  0.26284009944E+03  0.80564143824E+01  0.41080542266E+03  0.91292389797E+02 0.  0.
          4    1    3    3  502    0  0.52324329697E+02 -0.17923600668E+02 -0.22517628349E+02  0.59717120875E+02  0.00000000000E+00 0. -1.
         -3    1    3    3    0  502  0.13799485739E+03 -0.15853489367E+03 -0.21538084469E+03  0.30093986349E+03  0.00000000000E+00 0.  1.
         11    1    5    5    0    0 -0.26013440642E+03 -0.52132473301E+02 -0.17492548750E+03  0.31778393659E+03  0.00000000000E+00 0. -1.
        -11    1    5    5    0    0 -0.23230556969E+03 -0.34249131800E+02 -0.60870103724E+02  0.24257792617E+03  0.00000000000E+00 0.  1.
          4    1    6    6  503    0  0.28861916296E+03  0.24391234242E+03  0.29692181188E+02  0.37904600992E+03  0.00000000000E+00 0. -1.
         -4    1    6    6    0  503  0.13501626076E+02  0.18927757022E+02 -0.21635766805E+02  0.31759412743E+02  0.00000000000E+00 0.  1.
<mgrwt>
<rscale>  0 0.12477730E+04</rscale>
<asrwt>0</asrwt>
<pdfrwt beam="1">  1        2 0.13826630E+00 0.12477730E+04</pdfrwt>
<pdfrwt beam="2">  1       -3 0.66629741E-01 0.12477730E+04</pdfrwt>
<totfact> 0.39865495E+01</totfact>
</mgrwt>
</event>
<event>
12    6  0.1529770E-007  0.1877848E+04  0.7818608E-02  0.8665962E-01
          2   -1    0    0  501    0  0.00000000000E+00  0.00000000000E+00  0.84666675062E+03  0.84666675062E+03  0.00000000000E+00 0. -1.
         -1   -1    0    0    0  501 -0.00000000000E+00 -0.00000000000E+00 -0.10412342984E+04  0.10412342984E+04  0.00000000000E+00 0.  1.
         24    2    1    2    0    0 -0.10504456508E+02 -0.57304996042E+03  0.35652382561E+03  0.67956813892E+03  0.78784620737E+02 0.  0.
        254    2    1    2    0    0  0.10504456508E+02  0.57304996042E+03 -0.55109137341E+03  0.12083329101E+04  0.90987368305E+03 0.  0.
         23    2    4    4    0    0  0.10345885392E+02  0.64096085534E+03 -0.23619594836E+01  0.64752448453E+03  0.91348364967E+02 0.  0.
         23    2    4    4    0    0  0.15857111543E+00 -0.67910894921E+02 -0.54872941392E+03  0.56080842560E+03  0.93756097034E+02 0.  0.
          2    1    3    3  502    0 -0.10738628189E+02 -0.16191209992E+03  0.14301652003E+03  0.21629741384E+03  0.00000000000E+00 0. -1.
         -3    1    3    3    0  502  0.23417168106E+00 -0.41113786050E+03  0.21350730558E+03  0.46327072508E+03  0.00000000000E+00 0.  1.
         11    1    5    5    0    0 -0.29697182915E+02  0.35871205113E+03 -0.29581702925E+02  0.36115278685E+03  0.00000000000E+00 0. -1.
        -11    1    5    5    0    0  0.40043068307E+02  0.28224880421E+03  0.27219743442E+02  0.28637169768E+03  0.00000000000E+00 0.  1.
          1    1    6    6  503    0  0.30430890044E+02 -0.33543984256E+02 -0.10036134951E+03  0.11010739496E+03  0.00000000000E+00 0. -1.
         -1    1    6    6    0  503 -0.30272318929E+02 -0.34366910665E+02 -0.44836806441E+03  0.45070103064E+03  0.00000000000E+00 0.  1.
<mgrwt>
<rscale>  0 0.18778482E+04</rscale>
<asrwt>0</asrwt>
<pdfrwt beam="1">  1        2 0.13025642E+00 0.18778482E+04</pdfrwt>
<pdfrwt beam="2">  1       -1 0.16018989E+00 0.18778482E+04</pdfrwt>
<totfact> 0.99522483E+00</totfact>
</mgrwt>
</event>
<event>
12    6  0.1529770E-007  0.1634431E+04  0.7818608E-02  0.8799670E-01
          2   -1    0    0  501    0  0.00000000000E+00  0.00000000000E+00  0.14887909390E+04  0.14887909390E+04  0.00000000000E+00 0. -1.
         -1   -1    0    0    0  501 -0.00000000000E+00 -0.00000000000E+00 -0.44857959400E+03  0.44857959400E+03  0.00000000000E+00 0.  1.
         24    2    1    2    0    0 -0.52665860243E+03  0.13203161587E+03  0.54396042519E+03  0.77258558052E+03  0.78701359258E+02 0.  0.
        254    2    1    2    0    0  0.52665860243E+03 -0.13203161587E+03  0.49625091983E+03  0.11647849525E+04  0.90313751945E+03 0.  0.
         23    2    4    4    0    0 -0.21407507943E+02  0.28948037098E+03  0.32761015477E+03  0.44723065185E+03  0.91813266257E+02 0.  0.
         23    2    4    4    0    0  0.54806611038E+03 -0.42151198686E+03  0.16864076506E+03  0.71755430065E+03  0.91627781492E+02 0.  0.
          4    1    3    3  502    0 -0.44631455867E+03  0.11457535546E+03  0.41779210304E+03  0.62199231404E+03  0.00000000000E+00 0. -1.
         -3    1    3    3    0  502 -0.80344043762E+02  0.17456260407E+02  0.12616832215E+03  0.15059326648E+03  0.00000000000E+00 0.  1.
         11    1    5    5    0    0 -0.22939033945E+02  0.13025662427E+03  0.85632743434E+02  0.15756254058E+03  0.00000000000E+00 0.  1.
        -11    1    5    5    0    0  0.15315260019E+01  0.15922374671E+03  0.24197741134E+03  0.28966811127E+03  0.00000000000E+00 0. -1.
          3    1    6    6  503    0  0.15147626887E+03 -0.10707312673E+03  0.47395795256E+01  0.18555909601E+03  0.00000000000E+00 0. -1.
         -3    1    6    6    0  503  0.39658984151E+03 -0.31443886013E+03  0.16390118553E+03  0.53199520464E+03  0.00000000000E+00 0.  1.
<mgrwt>
<rscale>  0 0.16344311E+04</rscale>
<asrwt>0</asrwt>
<pdfrwt beam="1">  1        2 0.22904476E+00 0.16344311E+04</pdfrwt>
<pdfrwt beam="2">  1       -1 0.69012246E-01 0.16344311E+04</pdfrwt>
<totfact> 0.29820634E+01</totfact>
</mgrwt>
</event>
<event>
12    6  0.1529770E-007  0.1650951E+04  0.7818608E-02  0.8789844E-01
          2   -1    0    0  501    0  0.00000000000E+00  0.00000000000E+00  0.10625153658E+04  0.10625153658E+04  0.00000000000E+00 0. -1.
         -1   -1    0    0    0  501 -0.00000000000E+00 -0.00000000000E+00 -0.64131733689E+03  0.64131733689E+03  0.00000000000E+00 0.  1.
         24    2    1    2    0    0 -0.17773498471E+03  0.34091084279E+03 -0.30141268391E+03  0.49495739133E+03  0.79519090079E+02 0.  0.
        254    2    1    2    0    0  0.17773498471E+03 -0.34091084279E+03  0.72261071277E+03  0.12088753113E+04  0.88960853669E+03 0.  0.
         23    2    4    4    0    0 -0.12542434348E+03  0.13762038242E+03  0.58039268044E+03  0.61768030663E+03  0.10001330957E+03 0.  0.
         23    2    4    4    0    0  0.30315932819E+03 -0.47853122521E+03  0.14221803233E+03  0.59119500468E+03  0.91585223007E+02 0.  0.
          2    1    3    3  502    0 -0.65369108375E+02  0.14360340163E+03 -0.76456579060E+02  0.17533016219E+03  0.00000000000E+00 0. -1.
         -1    1    3    3    0  502 -0.11236587634E+03  0.19730744116E+03 -0.22495610485E+03  0.31962722914E+03  0.00000000000E+00 0.  1.
         11    1    5    5    0    0 -0.11112169954E+03  0.50695634942E+02  0.36813258471E+03  0.38786554298E+03  0.00000000000E+00 0.  1.
        -11    1    5    5    0    0 -0.14302643941E+02  0.86924747475E+02  0.21226009573E+03  0.22981476364E+03  0.00000000000E+00 0. -1.
          3    1    6    6  503    0  0.18279153724E+03 -0.35763989926E+03  0.79517869079E+02  0.40944124747E+03  0.00000000000E+00 0. -1.
         -3    1    6    6    0  503  0.12036779096E+03 -0.12089132595E+03  0.62700163252E+02  0.18175375721E+03  0.00000000000E+00 0.  1.
<mgrwt>
<rscale>  0 0.16509507E+04</rscale>
<asrwt>0</asrwt>
<pdfrwt beam="1">  1        2 0.16346390E+00 0.16509507E+04</pdfrwt>
<pdfrwt beam="2">  1       -1 0.98664206E-01 0.16509507E+04</pdfrwt>
<totfact> 0.24622854E+01</totfact>
</mgrwt>
</event>
<event>
12    6  0.1529770E-007  0.3228830E+04  0.7818608E-02  0.8181245E-01
          2   -1    0    0  501    0  0.00000000000E+00  0.00000000000E+00  0.25610069865E+04  0.25610069865E+04  0.00000000000E+00 0. -1.
         -1   -1    0    0    0  501 -0.00000000000E+00 -0.00000000000E+00 -0.10176993293E+04  0.10176993293E+04  0.00000000000E+00 0.  1.
         24    2    1    2    0    0  0.68408912173E+03  0.74659095967E+03 -0.49782310828E+03  0.11312452343E+04  0.80696626170E+02 0.  0.
        254    2    1    2    0    0 -0.68408912173E+03 -0.74659095967E+03  0.20411307655E+04  0.24474610814E+04  0.89357425863E+03 0.  0.
         23    2    4    4    0    0 -0.11222527493E+03 -0.68261445727E+03  0.71411553137E+03  0.99833707435E+03  0.90326697383E+02 0.  0.
         23    2    4    4    0    0 -0.57186384680E+03 -0.63976502397E+02  0.13270152341E+04  0.14491240071E+04  0.88711352941E+02 0.  0.
          2    1    3    3  502    0  0.20700604892E+03  0.20760129619E+03 -0.18303949433E+03  0.34562010786E+03  0.00000000000E+00 0. -1.
         -1    1    3    3    0  502  0.47708307282E+03  0.53898966348E+03 -0.31478361394E+03  0.78562512645E+03  0.00000000000E+00 0.  1.
         11    1    5    5    0    0 -0.34950995553E+02 -0.18257891739E+03  0.13760128162E+03  0.23128066471E+03  0.00000000000E+00 0.  1.
        -11    1    5    5    0    0 -0.77274279377E+02 -0.50003553988E+03  0.57651424975E+03  0.76705640964E+03  0.00000000000E+00 0. -1.
          1    1    6    6  503    0 -0.38303054023E+03 -0.79975738237E+02  0.94047500883E+03  0.10186273881E+04  0.00000000000E+00 0. -1.
         -1    1    6    6    0  503 -0.18883330658E+03  0.15999235840E+02  0.38654022530E+03  0.43049661903E+03  0.00000000000E+00 0.  1.
<mgrwt>
<rscale>  0 0.32288296E+04</rscale>
<asrwt>0</asrwt>
<pdfrwt beam="1">  1        2 0.39400107E+00 0.32288296E+04</pdfrwt>
<pdfrwt beam="2">  1       -1 0.15656913E+00 0.32288296E+04</pdfrwt>
<totfact> 0.95019346E-01</totfact>
</mgrwt>
</event>
<event>
12    6  0.1529770E-007  0.2798339E+04  0.7818608E-02  0.8303784E-01
         -1   -1    0    0    0  501 -0.00000000000E+00  0.00000000000E+00  0.74550576703E+03  0.74550576703E+03  0.00000000000E+00 0.  1.
          2   -1    0    0  501    0  0.00000000000E+00 -0.00000000000E+00 -0.26259696042E+04  0.26259696042E+04  0.00000000000E+00 0. -1.
         24    2    1    2    0    0  0.11030672984E+02  0.57863913977E+03 -0.21821784715E+04  0.22590196517E+04  0.79510850239E+02 0.  0.
        254    2    1    2    0    0 -0.11030672984E+02 -0.57863913977E+03  0.30171463435E+03  0.11124557196E+04  0.90087794820E+03 0.  0.
         23    2    4    4    0    0 -0.20637021694E+03  0.12414450356E+03  0.27451056460E+03  0.37616187719E+03  0.90228507509E+02 0.  0.
         23    2    4    4    0    0  0.19533954396E+03 -0.70278364333E+03  0.27204069753E+02  0.73629384236E+03  0.96572118741E+02 0.  0.
          4    1    3    3  502    0  0.14705100040E+02  0.55224708882E+03 -0.19997335513E+04  0.20746390923E+04  0.00000000000E+00 0. -1.
         -3    1    3    3    0  502 -0.36744270555E+01  0.26392050953E+02 -0.18244492016E+03  0.18438055933E+03  0.00000000000E+00 0.  1.
         11    1    5    5    0    0 -0.25772284738E+01  0.31485257397E+02  0.49749082945E+02  0.58931611160E+02  0.00000000000E+00 0.  1.
        -11    1    5    5    0    0 -0.20379298847E+03  0.92659246167E+02  0.22476148165E+03  0.31723026603E+03  0.00000000000E+00 0. -1.
          1    1    6    6  503    0  0.18921754443E+03 -0.66719376778E+03  0.47026222458E+02  0.69509874729E+03  0.00000000000E+00 0. -1.
         -1    1    6    6    0  503  0.61219995252E+01 -0.35589875553E+02 -0.19822152705E+02  0.41195095072E+02  0.00000000000E+00 0.  1.
<mgrwt>
<rscale>  0 0.27983391E+04</rscale>
<asrwt>0</asrwt>
<pdfrwt beam="1">  1        2 0.40399533E+00 0.27983391E+04</pdfrwt>
<pdfrwt beam="2">  1       -1 0.11469319E+00 0.27983391E+04</pdfrwt>
<totfact> 0.20072396E+00</totfact>
</mgrwt>
</event>
<event>
12    6  0.1529770E-007  0.2264028E+04  0.7818608E-02  0.8492241E-01
          2   -1    0    0  501    0  0.00000000000E+00  0.00000000000E+00  0.16800717083E+04  0.16800717083E+04  0.00000000000E+00 0. -1.
         -1   -1    0    0    0  501 -0.00000000000E+00 -0.00000000000E+00 -0.76273842360E+03  0.76273842360E+03  0.00000000000E+00 0.  1.
         24    2    1    2    0    0  0.45205101059E+03  0.57735503254E+03  0.10275936800E+04  0.12661978551E+04  0.98077965229E+02 0.  0.
        254    2    1    2    0    0 -0.45205101059E+03 -0.57735503254E+03 -0.11026039528E+03  0.11766122768E+04  0.91354810790E+03 0.  0.
         23    2    4    4    0    0 -0.67002017492E+03 -0.44850512905E+03 -0.27991698891E+03  0.85802408012E+03  0.88135780495E+02 0.  0.
         23    2    4    4    0    0  0.21796916433E+03 -0.12884990349E+03  0.16965659364E+03  0.31858819670E+03  0.92748181042E+02 0.  0.
          4    1    3    3  502    0  0.28625688807E+03  0.41467007237E+03  0.64312191674E+03  0.81700677762E+03  0.00000000000E+00 0. -1.
         -3    1    3    3    0  502  0.16579412252E+03  0.16268496017E+03  0.38447176323E+03  0.44919107744E+03  0.00000000000E+00 0.  1.
         11    1    5    5    0    0 -0.34644569282E+03 -0.27925987272E+03 -0.17419006684E+03  0.47786281920E+03  0.00000000000E+00 0. -1.
        -11    1    5    5    0    0 -0.32357448211E+03 -0.16924525633E+03 -0.10572692207E+03  0.38016126093E+03  0.00000000000E+00 0.  1.
          3    1    6    6  503    0  0.14112947077E+03 -0.40245296691E+02  0.12606364566E+03  0.19346641616E+03  0.00000000000E+00 0. -1.
         -3    1    6    6    0  503  0.76839693561E+02 -0.88604606799E+02  0.43592947973E+02  0.12512178054E+03  0.00000000000E+00 0.  1.
<mgrwt>
<rscale>  0 0.22640276E+04</rscale>
<asrwt>0</asrwt>
<pdfrwt beam="1">  1        2 0.25847257E+00 0.22640276E+04</pdfrwt>
<pdfrwt beam="2">  1       -1 0.11734437E+00 0.22640276E+04</pdfrwt>
<totfact> 0.68108389E+00</totfact>
</mgrwt>
</event>
<event>
12    6  0.1529770E-007  0.1370311E+04  0.7818608E-02  0.8975594E-01
          2   -1    0    0  501    0  0.00000000000E+00  0.00000000000E+00  0.78397398984E+03  0.78397398984E+03  0.00000000000E+00 0. -1.
         -1   -1    0    0    0  501 -0.00000000000E+00 -0.00000000000E+00 -0.59879247934E+03  0.59879247934E+03  0.00000000000E+00 0.  1.
         24    2    1    2    0    0 -0.17706527548E+03 -0.31106185561E+03  0.23778052522E+03  0.43714223892E+03  0.80263124055E+02 0.  0.
        254    2    1    2    0    0  0.17706527548E+03  0.31106185561E+03 -0.52599014719E+02  0.94562423025E+03  0.87368583524E+03 0.  0.
         23    2    4    4    0    0 -0.10477434122E+03 -0.12190145231E+03 -0.31020894957E+03  0.36071671428E+03  0.89718052332E+02 0.  0.
         23    2    4    4    0    0  0.28183961670E+03  0.43296330791E+03  0.25760993485E+03  0.58490751597E+03  0.94144188129E+02 0.  0.
          2    1    3    3  502    0 -0.86336807050E+02 -0.22657991629E+03  0.16658327613E+03  0.29418105072E+03  0.00000000000E+00 0. -1.
         -1    1    3    3    0  502 -0.90728468431E+02 -0.84481939321E+02  0.71197249094E+02  0.14296118821E+03  0.00000000000E+00 0.  1.
         11    1    5    5    0    0 -0.18894717137E+01 -0.62327541522E+02 -0.13824075436E+03  0.15165354827E+03  0.00000000000E+00 0.  1.
        -11    1    5    5    0    0 -0.10288486951E+03 -0.59573910783E+02 -0.17196819521E+03  0.20906316601E+03  0.00000000000E+00 0. -1.
          3    1    6    6  503    0  0.23569152056E+03  0.28361735003E+03  0.17752357716E+03  0.40927242095E+03  0.00000000000E+00 0. -1.
         -3    1    6    6    0  503  0.46148096141E+02  0.14934595788E+03  0.80086357695E+02  0.17563509502E+03  0.00000000000E+00 0.  1.
<mgrwt>
<rscale>  0 0.13703105E+04</rscale>
<asrwt>0</asrwt>
<pdfrwt beam="1">  1        2 0.12061138E+00 0.13703105E+04</pdfrwt>
<pdfrwt beam="2">  1       -1 0.92121920E-01 0.13703105E+04</pdfrwt>
<totfact> 0.45222169E+01</totfact>
</mgrwt>
</event>
<event>
12    6  0.1529770E-007  0.2135398E+04  0.7818608E-02  0.8545809E-01
          2   -1    0    0  501    0  0.00000000000E+00  0.00000000000E+00  0.13413104499E+04  0.13413104499E+04  0.00000000000E+00 0. -1.
         -1   -1    0    0    0  501 -0.00000000000E+00 -0.00000000000E+00 -0.84990115813E+03  0.84990115813E+03  0.00000000000E+00 0.  1.
         24    2    1    2    0    0 -0.52830180185E+03  0.53752355132E+03  0.65634687743E+03  0.10026015606E+04  0.79901837611E+02 0.  0.
        254    2    1    2    0    0  0.52830180185E+03 -0.53752355132E+03 -0.16493758564E+03  0.11886100475E+04  0.90418752247E+03 0.  0.
         23    2    4    4    0    0  0.16109198292E+03 -0.72614990810E+03 -0.63493300224E+02  0.75213372210E+03  0.91811876947E+02 0.  0.
         23    2    4    4    0    0  0.36720981893E+03  0.18862635678E+03 -0.10144428542E+03  0.43647632540E+03  0.98983261206E+02 0.  0.
          2    1    3    3  502    0 -0.40444597104E+03  0.38081562507E+03  0.51863334785E+03  0.75998528491E+03  0.00000000000E+00 0. -1.
         -1    1    3    3    0  502 -0.12385583081E+03  0.15670792625E+03  0.13771352958E+03  0.24261627564E+03  0.00000000000E+00 0.  1.
         11    1    5    5    0    0  0.51772514962E+02 -0.14758237628E+03 -0.46176572902E+02  0.16307429895E+03  0.00000000000E+00 0.  1.
        -11    1    5    5    0    0  0.10931946796E+03 -0.57856753182E+03 -0.17316727322E+02  0.58905942315E+03  0.00000000000E+00 0. -1.
          1    1    6    6  503    0  0.23108561517E+03  0.76822856033E+02 -0.26200024136E+02  0.24492601742E+03  0.00000000000E+00 0. -1.
         -1    1    6    6    0  503  0.13612420376E+03  0.11180350075E+03 -0.75244261283E+02  0.19155030797E+03  0.00000000000E+00 0.  1.
<mgrwt>
<rscale>  0 0.21353981E+04</rscale>
<asrwt>0</asrwt>
<pdfrwt beam="1">  1        2 0.20635546E+00 0.21353981E+04</pdfrwt>
<pdfrwt beam="2">  1       -1 0.13075402E+00 0.21353981E+04</pdfrwt>
<totfact> 0.81871879E+00</totfact>
</mgrwt>
</event>
<event>
12    6  0.1529770E-007  0.2035933E+04  0.7818608E-02  0.8590003E-01
         -1   -1    0    0    0  501 -0.00000000000E+00  0.00000000000E+00  0.47142449091E+03  0.47142449091E+03  0.00000000000E+00 0.  1.
          2   -1    0    0  501    0  0.00000000000E+00 -0.00000000000E+00 -0.21981373414E+04  0.21981373414E+04  0.00000000000E+00 0. -1.
         24    2    1    2    0    0 -0.32244438823E+03  0.26701126320E+03 -0.14129051053E+04  0.14757683555E+04  0.79536182987E+02 0.  0.
        254    2    1    2    0    0  0.32244438823E+03 -0.26701126320E+03 -0.31380774524E+03  0.11937934768E+04  0.10730340937E+04 0.  0.
         23    2    4    4    0    0 -0.30732597779E+03  0.10280257120E+03 -0.31045231116E+03  0.45786416082E+03  0.90781754683E+02 0.  0.
         23    2    4    4    0    0  0.62977036602E+03 -0.36981383441E+03 -0.33554340723E+01  0.73592931601E+03  0.90596430336E+02 0.  0.
          2    1    3    3  502    0 -0.32427327110E+03  0.26212869166E+03 -0.14085601619E+04  0.14689813937E+04  0.00000000000E+00 0. -1.
         -1    1    3    3    0  502  0.18288828691E+01  0.48825715362E+01 -0.43449433315E+01  0.67869617583E+01  0.00000000000E+00 0.  1.
         11    1    5    5    0    0 -0.56696514918E+01 -0.35351058809E+01  0.52148833321E+01  0.84756669233E+01  0.00000000000E+00 0.  1.
        -11    1    5    5    0    0 -0.30165632630E+03  0.10633767708E+03 -0.31566719450E+03  0.44938849389E+03  0.00000000000E+00 0. -1.
          4    1    6    6  503    0  0.43343195879E+03 -0.20847117033E+03  0.14468846607E+02  0.48117859396E+03  0.00000000000E+00 0. -1.
         -4    1    6    6    0  503  0.19633840722E+03 -0.16134266408E+03 -0.17824280679E+02  0.25475072205E+03  0.00000000000E+00 0.  1.
<mgrwt>
<rscale>  0 0.20359330E+04</rscale>
<asrwt>0</asrwt>
<pdfrwt beam="1">  1        2 0.33817497E+00 0.20359330E+04</pdfrwt>
<pdfrwt beam="2">  1       -1 0.72526845E-01 0.20359330E+04</pdfrwt>
<totfact> 0.10466721E+01</totfact>
</mgrwt>
</event>
<event>
12    6  0.1529770E-007  0.1817413E+04  0.7818608E-02  0.8697094E-01
          2   -1    0    0  501    0  0.00000000000E+00  0.00000000000E+00  0.17173412241E+04  0.17173412241E+04  0.00000000000E+00 0. -1.
         -3   -1    0    0    0  501 -0.00000000000E+00 -0.00000000000E+00 -0.48082909782E+03  0.48082909782E+03  0.00000000000E+00 0.  1.
         24    2    1    2    0    0 -0.10249296762E+03  0.26529352251E+03  0.12127260426E+04  0.12481013941E+04  0.78531357050E+02 0.  0.
        254    2    1    2    0    0  0.10249296762E+03 -0.26529352251E+03  0.23786083666E+02  0.95006892781E+03  0.90618967569E+03 0.  0.
         23    2    4    4    0    0 -0.17974619139E+03 -0.35185998210E+02 -0.35913662798E+03  0.41394185663E+03  0.93925477482E+02 0.  0.
         23    2    4    4    0    0  0.28223915901E+03 -0.23010752430E+03  0.38292271165E+03  0.53612707119E+03  0.90520813869E+02 0.  0.
          2    1    3    3  502    0 -0.71620442786E+02  0.23570092077E+03  0.92613891276E+03  0.95834111756E+03  0.00000000000E+00 0. -1.
         -1    1    3    3    0  502 -0.30872524831E+02  0.29592601738E+02  0.28658712980E+03  0.28976027650E+03  0.00000000000E+00 0.  1.
         11    1    5    5    0    0 -0.14479607541E+03  0.73724094592E+01 -0.29962493540E+03  0.33285936638E+03  0.00000000000E+00 0. -1.
        -11    1    5    5    0    0 -0.34950115988E+02 -0.42558407669E+02 -0.59511692587E+02  0.81082490251E+02  0.00000000000E+00 0.  1.
          2    1    6    6  503    0  0.21312735821E+02  0.64047150570E+01  0.15072024181E+02  0.26877853264E+02  0.00000000000E+00 0.  1.
         -2    1    6    6    0  503  0.26092642319E+03 -0.23651223936E+03  0.36785068747E+03  0.50924921792E+03  0.00000000000E+00 0. -1.
<mgrwt>
<rscale>  0 0.18174131E+04</rscale>
<asrwt>0</asrwt>
<pdfrwt beam="1">  1        2 0.26420634E+00 0.18174131E+04</pdfrwt>
<pdfrwt beam="2">  1       -3 0.73973708E-01 0.18174131E+04</pdfrwt>
<totfact> 0.99907996E+00</totfact>
</mgrwt>
</event>
<event>
12    6  0.1529770E-007  0.1522764E+04  0.7818608E-02  0.8869455E-01
          2   -1    0    0  501    0  0.00000000000E+00  0.00000000000E+00  0.14173302410E+04  0.14173302410E+04  0.00000000000E+00 0. -1.
         -1   -1    0    0    0  501 -0.00000000000E+00 -0.00000000000E+00 -0.40901007946E+03  0.40901007946E+03  0.00000000000E+00 0.  1.
         24    2    1    2    0    0  0.31122286140E+03  0.16300862355E+03 -0.10173831330E+03  0.37429750356E+03  0.79476134577E+02 0.  0.
        254    2    1    2    0    0 -0.31122286140E+03 -0.16300862355E+03  0.11100584748E+04  0.14520428169E+04  0.86762148642E+03 0.  0.
         23    2    4    4    0    0 -0.45917651837E+03 -0.30867880423E+03  0.10881555359E+04  0.12241871727E+04  0.91793704258E+02 0.  0.
         23    2    4    4    0    0  0.14795365697E+03  0.14567018068E+03  0.21902938889E+02  0.22785564421E+03  0.91259902014E+02 0.  0.
          2    1    3    3  502    0  0.63142862446E+02  0.60262808924E+02 -0.50806438241E+02  0.10099466018E+03  0.00000000000E+00 0. -1.
         -1    1    3    3    0  502  0.24807999895E+03  0.10274581463E+03 -0.50931875060E+02  0.27330284338E+03  0.00000000000E+00 0.  1.
         11    1    5    5    0    0 -0.44261777292E+03 -0.26925375439E+03  0.10067689479E+04  0.11322507636E+04  0.00000000000E+00 0. -1.
        -11    1    5    5    0    0 -0.16558745449E+02 -0.39425049832E+02  0.81386587967E+02  0.91936409034E+02  0.00000000000E+00 0.  1.
          1    1    6    6  503    0  0.57914491593E+02  0.78215544422E+02 -0.32873707047E+02  0.10272507163E+03  0.00000000000E+00 0. -1.
         -1    1    6    6    0  503  0.90039165375E+02  0.67454636254E+02  0.54776645937E+02  0.12513057258E+03  0.00000000000E+00 0.  1.
<mgrwt>
<rscale>  0 0.15227637E+04</rscale>
<asrwt>0</asrwt>
<pdfrwt beam="1">  1        2 0.21805080E+00 0.15227637E+04</pdfrwt>
<pdfrwt beam="2">  1       -1 0.62924628E-01 0.15227637E+04</pdfrwt>
<totfact> 0.39826318E+01</totfact>
</mgrwt>
</event>
<event>
12    6  0.1529770E-007  0.1370993E+04  0.7818608E-02  0.8975087E-01
         -1   -1    0    0    0  501 -0.00000000000E+00  0.00000000000E+00  0.44092319630E+03  0.44092319630E+03  0.00000000000E+00 0.  1.
          2   -1    0    0  501    0  0.00000000000E+00 -0.00000000000E+00 -0.10657312820E+04  0.10657312820E+04  0.00000000000E+00 0. -1.
         24    2    1    2    0    0 -0.11089179847E+03  0.29347000753E+03 -0.25160083167E+03  0.41008811198E+03  0.80297227832E+02 0.  0.
        254    2    1    2    0    0  0.11089179847E+03 -0.29347000753E+03 -0.37320725398E+03  0.10965663663E+04  0.98221815547E+03 0.  0.
         23    2    4    4    0    0  0.80196364211E+02 -0.65031558161E+03 -0.23610630887E+03  0.70244943961E+03  0.91363086662E+02 0.  0.
         23    2    4    4    0    0  0.30695434263E+02  0.35684557407E+03 -0.13710094512E+03  0.39411692667E+03  0.90832314275E+02 0.  0.
          4    1    3    3  502    0 -0.10873241014E+03  0.18569241992E+03 -0.18142518179E+03  0.28145960353E+03  0.00000000000E+00 0. -1.
         -3    1    3    3    0  502 -0.21593883347E+01  0.10777758762E+03 -0.70175649884E+02  0.12862850845E+03  0.00000000000E+00 0.  1.
         11    1    5    5    0    0  0.32840390417E+01 -0.26087408471E+02 -0.31555330396E+02  0.41074038876E+02  0.00000000000E+00 0.  1.
        -11    1    5    5    0    0  0.76912325169E+02 -0.62422817314E+03 -0.20455097847E+03  0.66137540073E+03  0.00000000000E+00 0. -1.
          2    1    6    6  503    0  0.47016035036E+02  0.29520256422E+03 -0.14042397122E+03  0.33026346023E+03  0.00000000000E+00 0. -1.
         -2    1    6    6    0  503 -0.16320600773E+02  0.61643009857E+02  0.33230261058E+01  0.63853466440E+02  0.00000000000E+00 0.  1.
<mgrwt>
<rscale>  0 0.13709933E+04</rscale>
<asrwt>0</asrwt>
<pdfrwt beam="1">  1        2 0.16395866E+00 0.13709933E+04</pdfrwt>
<pdfrwt beam="2">  1       -1 0.67834339E-01 0.13709933E+04</pdfrwt>
<totfact> 0.56021653E+01</totfact>
</mgrwt>
</event>
<event>
12    6  0.1529770E-007  0.1254794E+04  0.7818608E-02  0.9066202E-01
         -1   -1    0    0    0  501 -0.00000000000E+00  0.00000000000E+00  0.35009791535E+03  0.35009791535E+03  0.00000000000E+00 0.  1.
          2   -1    0    0  501    0  0.00000000000E+00 -0.00000000000E+00 -0.11243348968E+04  0.11243348968E+04  0.00000000000E+00 0. -1.
         24    2    1    2    0    0 -0.73316238969E+02  0.14727446473E+03 -0.50359710031E+03  0.53584064506E+03  0.80312630387E+02 0.  0.
        254    2    1    2    0    0  0.73316238969E+02 -0.14727446473E+03 -0.27063988116E+03  0.93859216710E+03  0.88354075855E+03 0.  0.
         23    2    4    4    0    0 -0.25381478509E+03  0.17618949731E+03  0.10661547520E+03  0.33768500574E+03  0.84850571349E+02 0.  0.
         23    2    4    4    0    0  0.32713102406E+03 -0.32346396204E+03 -0.37725535636E+03  0.60090716136E+03  0.84404804590E+02 0.  0.
          2    1    3    3  502    0 -0.58903744373E+02  0.66003379169E+02 -0.35502285024E+03  0.36587883425E+03  0.00000000000E+00 0. -1.
         -1    1    3    3    0  502 -0.14412494596E+02  0.81271085558E+02 -0.14857425007E+03  0.16996181081E+03  0.00000000000E+00 0.  1.
         11    1    5    5    0    0 -0.22494718589E+03  0.17094329267E+03  0.70573313764E+02  0.29121029921E+03  0.00000000000E+00 0. -1.
        -11    1    5    5    0    0 -0.28867599197E+02  0.52462046423E+01  0.36042161433E+02  0.46474706533E+02  0.00000000000E+00 0.  1.
          3    1    6    6  503    0  0.27720003778E+03 -0.31002254098E+03 -0.34006830414E+03  0.53721530912E+03  0.00000000000E+00 0. -1.
         -3    1    6    6    0  503  0.49930986276E+02 -0.13441421056E+02 -0.37187052215E+02  0.63691852249E+02  0.00000000000E+00 0.  1.
<mgrwt>
<rscale>  0 0.12547945E+04</rscale>
<asrwt>0</asrwt>
<pdfrwt beam="1">  1        2 0.17297460E+00 0.12547945E+04</pdfrwt>
<pdfrwt beam="2">  1       -1 0.53861218E-01 0.12547945E+04</pdfrwt>
<totfact> 0.82091658E+01</totfact>
</mgrwt>
</event>
<event>
12    6  0.1529770E-007  0.2208807E+04  0.7818608E-02  0.8514771E-01
          2   -1    0    0  501    0  0.00000000000E+00  0.00000000000E+00  0.15064817781E+04  0.15064817781E+04  0.00000000000E+00 0. -1.
         -1   -1    0    0    0  501 -0.00000000000E+00 -0.00000000000E+00 -0.80963932097E+03  0.80963932097E+03  0.00000000000E+00 0.  1.
         24    2    1    2    0    0  0.45304217104E+03 -0.45937709308E+03  0.92465898559E+03  0.11303642574E+04  0.80340477983E+02 0.  0.
        254    2    1    2    0    0 -0.45304217104E+03  0.45937709308E+03 -0.22781652850E+03  0.11857568416E+04  0.96842366473E+03 0.  0.
         23    2    4    4    0    0  0.23388023237E+03  0.32746318348E+03  0.71623240731E+02  0.41940721566E+03  0.94023530615E+02 0.  0.
         23    2    4    4    0    0 -0.68692240341E+03  0.13191390960E+03 -0.29943976923E+03  0.76634962596E+03  0.91454392775E+02 0.  0.
          4    1    3    3  502    0  0.98169082917E+02 -0.96165647168E+02  0.14372098210E+03  0.19884848813E+03  0.00000000000E+00 0. -1.
         -3    1    3    3    0  502  0.35487308813E+03 -0.36321144592E+03  0.78093800349E+03  0.93151576928E+03  0.00000000000E+00 0.  1.
         11    1    5    5    0    0  0.10257282135E+03  0.17776274792E+03  0.79576103020E+02  0.22012072688E+03  0.00000000000E+00 0.  1.
        -11    1    5    5    0    0  0.13130741101E+03  0.14970043556E+03 -0.79528622889E+01  0.19928648879E+03  0.00000000000E+00 0. -1.
          4    1    6    6  503    0 -0.10112107724E+03  0.37227325497E+02 -0.77790054586E+02  0.13290086011E+03  0.00000000000E+00 0.  1.
         -4    1    6    6    0  503 -0.58580132617E+03  0.94686584104E+02 -0.22164971465E+03  0.63344876585E+03  0.00000000000E+00 0. -1.
<mgrwt>
<rscale>  0 0.22088068E+04</rscale>
<asrwt>0</asrwt>
<pdfrwt beam="1">  1        2 0.23176643E+00 0.22088068E+04</pdfrwt>
<pdfrwt beam="2">  1       -1 0.12455990E+00 0.22088068E+04</pdfrwt>
<totfact> 0.73945289E+00</totfact>
</mgrwt>
</event>
<event>
12    6  0.1529770E-007  0.1892316E+04  0.7818608E-02  0.8658691E-01
          4   -1    0    0  501    0  0.00000000000E+00  0.00000000000E+00  0.71052723091E+03  0.71052723091E+03  0.00000000000E+00 0. -1.
         -3   -1    0    0    0  501 -0.00000000000E+00 -0.00000000000E+00 -0.12599308270E+04  0.12599308270E+04  0.00000000000E+00 0.  1.
         24    2    1    2    0    0  0.43880110264E+03 -0.38620564850E+03  0.23160176367E+03  0.63375909724E+03  0.79435544838E+02 0.  0.
        254    2    1    2    0    0 -0.43880110264E+03  0.38620564850E+03 -0.78100535972E+03  0.13366989606E+04  0.91383451941E+03 0.  0.
         23    2    4    4    0    0  0.20009078723E+03 -0.10233748237E+03 -0.55299486444E+02  0.24989041181E+03  0.94222615555E+02 0.  0.
         23    2    4    4    0    0 -0.63889188987E+03  0.48854313087E+03 -0.72570587328E+03  0.10868085488E+04  0.87444666227E+02 0.  0.
          2    1    3    3  502    0  0.29089717369E+03 -0.25466676792E+03  0.19291523094E+03  0.43207940783E+03  0.00000000000E+00 0. -1.
         -1    1    3    3    0  502  0.14790392895E+03 -0.13153888058E+03  0.38686532723E+02  0.20167968940E+03  0.00000000000E+00 0.  1.
         11    1    5    5    0    0  0.16012357573E+03 -0.34369200420E+02 -0.26249753086E+02  0.16586093868E+03  0.00000000000E+00 0.  1.
        -11    1    5    5    0    0  0.39967211495E+02 -0.67968281953E+02 -0.29049733357E+02  0.84029473130E+02  0.00000000000E+00 0. -1.
          2    1    6    6  503    0 -0.58558662886E+03  0.44607266469E+03 -0.62761526088E+03  0.96736417019E+03  0.00000000000E+00 0. -1.
         -2    1    6    6    0  503 -0.53305261008E+02  0.42470466182E+02 -0.98090612399E+02  0.11944437864E+03  0.00000000000E+00 0.  1.
<mgrwt>
<rscale>  0 0.18923162E+04</rscale>
<asrwt>0</asrwt>
<pdfrwt beam="1">  1        4 0.10931188E+00 0.18923162E+04</pdfrwt>
<pdfrwt beam="2">  1       -3 0.19383551E+00 0.18923162E+04</pdfrwt>
<totfact> 0.22893719E-01</totfact>
</mgrwt>
</event>
<event>
12    6  0.1529770E-007  0.3499947E+04  0.7818608E-02  0.8113803E-01
          2   -1    0    0  501    0  0.00000000000E+00  0.00000000000E+00  0.23193446486E+04  0.23193446486E+04  0.00000000000E+00 0. -1.
         -1   -1    0    0    0  501 -0.00000000000E+00 -0.00000000000E+00 -0.13203759080E+04  0.13203759080E+04  0.00000000000E+00 0.  1.
         24    2    1    2    0    0 -0.12760907403E+04  0.52554454029E+03  0.13817489800E+04  0.19545397641E+04  0.79942506668E+02 0.  0.
        254    2    1    2    0    0  0.12760907403E+04 -0.52554454029E+03 -0.38278023934E+03  0.16851807926E+04  0.88809287271E+03 0.  0.
         23    2    4    4    0    0  0.74234072953E+02  0.12179402533E+02  0.20801167147E+03  0.23913651260E+03  0.90875633471E+02 0.  0.
         23    2    4    4    0    0  0.12018566674E+04 -0.53772394283E+03 -0.59079191082E+03  0.14460442800E+04  0.91665097328E+02 0.  0.
          2    1    3    3  502    0 -0.10893772094E+04  0.47462491266E+03  0.12073730130E+04  0.16940369254E+04  0.00000000000E+00 0. -1.
         -1    1    3    3    0  502 -0.18671353097E+03  0.50919627632E+02  0.17437596698E+03  0.26050283873E+03  0.00000000000E+00 0.  1.
         11    1    5    5    0    0  0.77586177587E+02 -0.11895473885E+02  0.93527758786E+02  0.12210060981E+03  0.00000000000E+00 0.  1.
        -11    1    5    5    0    0 -0.33521046335E+01  0.24074876417E+02  0.11448391269E+03  0.11703590280E+03  0.00000000000E+00 0. -1.
          3    1    6    6  503    0  0.11643962633E+04 -0.50609020876E+03 -0.55661536474E+03  0.13862779742E+04  0.00000000000E+00 0. -1.
         -3    1    6    6    0  503  0.37460404069E+02 -0.31633734069E+02 -0.34176546077E+02  0.59766305774E+02  0.00000000000E+00 0.  1.
<mgrwt>
<rscale>  0 0.34999467E+04</rscale>
<asrwt>0</asrwt>
<pdfrwt beam="1">  1        2 0.35682225E+00 0.34999467E+04</pdfrwt>
<pdfrwt beam="2">  1       -1 0.20313475E+00 0.34999467E+04</pdfrwt>
<totfact> 0.59128653E-01</totfact>
</mgrwt>
</event>
<event>
12    6  0.1529770E-007  0.2200685E+04  0.7818608E-02  0.8518143E-01
          2   -1    0    0  501    0  0.00000000000E+00  0.00000000000E+00  0.25344529247E+04  0.25344529247E+04  0.00000000000E+00 0. -1.
         -1   -1    0    0    0  501 -0.00000000000E+00 -0.00000000000E+00 -0.47771778061E+03  0.47771778061E+03  0.00000000000E+00 0.  1.
         24    2    1    2    0    0  0.32842245755E+01  0.84024427568E+03  0.13817147889E+04  0.16193113962E+04  0.83740138941E+02 0.  0.
        254    2    1    2    0    0 -0.32842245755E+01 -0.84024427568E+03  0.67502035515E+03  0.13928593091E+04  0.88226036191E+03 0.  0.
         23    2    4    4    0    0  0.22693919793E+03  0.18336971947E+02  0.37878280042E+03  0.45157863703E+03  0.92785836402E+02 0.  0.
         23    2    4    4    0    0 -0.23022342250E+03 -0.85858124763E+03  0.29623755473E+03  0.94128067209E+03  0.89933485262E+02 0.  0.
          4    1    3    3  502    0  0.34625802329E+02  0.51142305610E+03  0.79250248042E+03  0.94382872915E+03  0.00000000000E+00 0. -1.
         -3    1    3    3    0  502 -0.31341577753E+02  0.32882121958E+03  0.58921230853E+03  0.67548266703E+03  0.00000000000E+00 0.  1.
         11    1    5    5    0    0  0.49275471525E+02 -0.34901647921E+02  0.94469942504E+02  0.11211943256E+03  0.00000000000E+00 0.  1.
        -11    1    5    5    0    0  0.17766372640E+03  0.53238619868E+02  0.28431285791E+03  0.33945920447E+03  0.00000000000E+00 0. -1.
          2    1    6    6  503    0 -0.13410266513E+03 -0.47982000305E+03  0.21254435888E+03  0.54165105429E+03  0.00000000000E+00 0. -1.
         -2    1    6    6    0  503 -0.96120757375E+02 -0.37876124458E+03  0.83693195853E+02  0.39962961780E+03  0.00000000000E+00 0.  1.
<mgrwt>
<rscale>  0 0.22006846E+04</rscale>
<asrwt>0</asrwt>
<pdfrwt beam="1">  1        2 0.38991583E+00 0.22006846E+04</pdfrwt>
<pdfrwt beam="2">  1       -1 0.73495045E-01 0.22006846E+04</pdfrwt>
<totfact> 0.64499485E+00</totfact>
</mgrwt>
</event>
<event>
12    6  0.1529770E-007  0.1815261E+04  0.7818608E-02  0.8698226E-01
         -1   -1    0    0    0  501 -0.00000000000E+00  0.00000000000E+00  0.29366351313E+03  0.29366351313E+03  0.00000000000E+00 0.  1.
          2   -1    0    0  501    0  0.00000000000E+00 -0.00000000000E+00 -0.28052268387E+04  0.28052268387E+04  0.00000000000E+00 0. -1.
         24    2    1    2    0    0 -0.53974879255E+03  0.35706756334E+03 -0.13418008776E+04  0.14918478554E+04  0.79714646677E+02 0.  0.
        254    2    1    2    0    0  0.53974879255E+03 -0.35706756334E+03 -0.11697624480E+04  0.16070424964E+04  0.89186063745E+03 0.  0.
         23    2    4    4    0    0  0.45924381680E+03  0.13000490921E+03 -0.22246570527E+03  0.53498623329E+03  0.94409322145E+02 0.  0.
         23    2    4    4    0    0  0.80504975748E+02 -0.48707247255E+03 -0.94729674274E+03  0.10720562631E+04  0.90624874247E+02 0.  0.
          4    1    3    3  502    0 -0.45564063956E+03  0.33311170784E+03 -0.11735866397E+04  0.13022585777E+04  0.00000000000E+00 0. -1.
         -3    1    3    3    0  502 -0.84108152984E+02  0.23955855501E+02 -0.16821423785E+03  0.18958927772E+03  0.00000000000E+00 0.  1.
         11    1    5    5    0    0  0.17864423960E+03  0.54632509279E+02 -0.13849336307E+03  0.23254867669E+03  0.00000000000E+00 0. -1.
        -11    1    5    5    0    0  0.28059957719E+03  0.75372399929E+02 -0.83972342197E+02  0.30243755661E+03  0.00000000000E+00 0.  1.
          1    1    6    6  503    0  0.17650819167E+02 -0.32339125473E+02 -0.12480810911E+03  0.13013237320E+03  0.00000000000E+00 0. -1.
         -1    1    6    6    0  503  0.62854156581E+02 -0.45473334707E+03 -0.82248863363E+03  0.94192388991E+03  0.00000000000E+00 0.  1.
<mgrwt>
<rscale>  0 0.18152606E+04</rscale>
<asrwt>0</asrwt>
<pdfrwt beam="1">  1        2 0.43157337E+00 0.18152606E+04</pdfrwt>
<pdfrwt beam="2">  1       -1 0.45179001E-01 0.18152606E+04</pdfrwt>
<totfact> 0.12010050E+01</totfact>
</mgrwt>
</event>
<event>
12    6  0.1529770E-007  0.1858309E+04  0.7818608E-02  0.8675892E-01
          2   -1    0    0  501    0  0.00000000000E+00  0.00000000000E+00  0.16653336363E+04  0.16653336363E+04  0.00000000000E+00 0. -1.
         -1   -1    0    0    0  501 -0.00000000000E+00 -0.00000000000E+00 -0.51841150130E+03  0.51841150130E+03  0.00000000000E+00 0.  1.
         24    2    1    2    0    0  0.26628072145E+03 -0.59966377991E+03  0.78532330506E+03  0.10253183894E+04  0.63584861456E+02 0.  0.
        254    2    1    2    0    0 -0.26628072145E+03  0.59966377991E+03  0.36159882999E+03  0.11584267482E+04  0.88357045314E+03 0.  0.
         23    2    4    4    0    0 -0.35005129465E+03  0.79009296422E+03  0.24589701541E+03  0.90308189871E+03  0.91152468934E+02 0.  0.
         23    2    4    4    0    0  0.83770573206E+02 -0.19042918431E+03  0.11570181458E+03  0.25534484954E+03  0.92375857864E+02 0.  0.
          2    1    3    3  502    0  0.76097710940E+02 -0.21584219357E+03  0.23633911759E+03  0.32899071816E+03  0.00000000000E+00 0. -1.
         -1    1    3    3    0  502  0.19018301051E+03 -0.38382158634E+03  0.54898418747E+03  0.69632767123E+03  0.00000000000E+00 0.  1.
         11    1    5    5    0    0 -0.28263087110E+02  0.28128511084E+02  0.24640687499E+02  0.46874072890E+02  0.00000000000E+00 0.  1.
        -11    1    5    5    0    0 -0.32178820754E+03  0.76196445314E+03  0.22125632791E+03  0.85620782582E+03  0.00000000000E+00 0. -1.
          3    1    6    6  503    0  0.88688729124E+02 -0.19727839432E+03  0.11828303917E+03  0.24652653588E+03  0.00000000000E+00 0. -1.
         -3    1    6    6    0  503 -0.49181559187E+01  0.68492100098E+01 -0.25812245849E+01  0.88183136572E+01  0.00000000000E+00 0.  1.
<mgrwt>
<rscale>  0 0.18583090E+04</rscale>
<asrwt>0</asrwt>
<pdfrwt beam="1">  1        2 0.25620517E+00 0.18583090E+04</pdfrwt>
<pdfrwt beam="2">  1       -1 0.79755616E-01 0.18583090E+04</pdfrwt>
<totfact> 0.17230881E+01</totfact>
</mgrwt>
</event>
<event>
12    6  0.1529770E-007  0.1860239E+04  0.7818608E-02  0.8674905E-01
          2   -1    0    0  501    0  0.00000000000E+00  0.00000000000E+00  0.22384333523E+04  0.22384333523E+04  0.00000000000E+00 0. -1.
         -1   -1    0    0    0  501 -0.00000000000E+00 -0.00000000000E+00 -0.38648571454E+03  0.38648571454E+03  0.00000000000E+00 0.  1.
         24    2    1    2    0    0 -0.30396871809E+03  0.42170602181E+03  0.58328235180E+02  0.52917975536E+03  0.79975496568E+02 0.  0.
        254    2    1    2    0    0  0.30396871809E+03 -0.42170602181E+03  0.17936194026E+04  0.20957393115E+04  0.95122013750E+03 0.  0.
         23    2    4    4    0    0  0.41463913282E+03 -0.26862843382E+03  0.29516515619E+03  0.58275076531E+03  0.91592243807E+02 0.  0.
         23    2    4    4    0    0 -0.11067041474E+03 -0.15307758800E+03  0.14984542464E+04  0.15129885461E+04  0.89936220080E+02 0.  0.
          2    1    3    3  502    0 -0.10305161101E+03  0.17882904654E+03  0.56403677909E+02  0.21396457020E+03  0.00000000000E+00 0. -1.
         -1    1    3    3    0  502 -0.20091710708E+03  0.24287697527E+03  0.19245572708E+01  0.31521518516E+03  0.00000000000E+00 0.  1.
         11    1    5    5    0    0  0.33609665765E+03 -0.17081336445E+03  0.22318976493E+03  0.43812308765E+03  0.00000000000E+00 0. -1.
        -11    1    5    5    0    0  0.78542475170E+02 -0.97815069366E+02  0.71975391259E+02  0.14462767767E+03  0.00000000000E+00 0.  1.
          3    1    6    6  503    0 -0.36093383803E+02 -0.65798290934E+02  0.93208717476E+03  0.93510354977E+03  0.00000000000E+00 0. -1.
         -3    1    6    6    0  503 -0.74577030933E+02 -0.87279297064E+02  0.56636707161E+03  0.57788499638E+03  0.00000000000E+00 0.  1.
<mgrwt>
<rscale>  0 0.18602392E+04</rscale>
<asrwt>0</asrwt>
<pdfrwt beam="1">  1        2 0.34437435E+00 0.18602392E+04</pdfrwt>
<pdfrwt beam="2">  1       -1 0.59459342E-01 0.18602392E+04</pdfrwt>
<totfact> 0.15073434E+01</totfact>
</mgrwt>
</event>
<event>
12    6  0.1529770E-007  0.1561119E+04  0.7818608E-02  0.8844797E-01
          2   -1    0    0  501    0  0.00000000000E+00  0.00000000000E+00  0.22729079550E+04  0.22729079550E+04  0.00000000000E+00 0. -1.
         -1   -1    0    0    0  501 -0.00000000000E+00 -0.00000000000E+00 -0.26805893088E+03  0.26805893088E+03  0.00000000000E+00 0.  1.
         24    2    1    2    0    0 -0.32539598418E+03 -0.41455207140E+03  0.68863272949E+03  0.87077893394E+03  0.79403710486E+02 0.  0.
        254    2    1    2    0    0  0.32539598418E+03  0.41455207140E+03  0.13162162946E+04  0.16701879519E+04  0.88281736172E+03 0.  0.
         23    2    4    4    0    0 -0.94989249200E+02 -0.10002543179E+03 -0.27783274969E+02  0.16810931309E+03  0.91982532651E+02 0.  0.
         23    2    4    4    0    0  0.42038523338E+03  0.51457750319E+03  0.13439995696E+04  0.15020786388E+04  0.91605911270E+02 0.  0.
          4    1    3    3  502    0 -0.44875890272E+02 -0.86730708722E+02  0.89536050727E+02  0.13248685121E+03  0.00000000000E+00 0. -1.
         -3    1    3    3    0  502 -0.28052009391E+03 -0.32782136268E+03  0.59909667876E+03  0.73829208273E+03  0.00000000000E+00 0.  1.
         11    1    5    5    0    0 -0.21444730415E+02 -0.81131244245E+02 -0.36821574236E+02  0.91640512790E+02  0.00000000000E+00 0. -1.
        -11    1    5    5    0    0 -0.73544518785E+02 -0.18894187543E+02  0.90382992666E+01  0.76468800304E+02  0.00000000000E+00 0.  1.
          1    1    6    6  503    0  0.42471569608E+03  0.50969602022E+03  0.13221406834E+04  0.14792665217E+04  0.00000000000E+00 0. -1.
         -1    1    6    6    0  503 -0.43304626974E+01  0.48814829672E+01  0.21858886161E+02  0.22812117116E+02  0.00000000000E+00 0.  1.
<mgrwt>
<rscale>  0 0.15611192E+04</rscale>
<asrwt>0</asrwt>
<pdfrwt beam="1">  1        2 0.34967813E+00 0.15611192E+04</pdfrwt>
<pdfrwt beam="2">  1       -1 0.41239837E-01 0.15611192E+04</pdfrwt>
<totfact> 0.29661339E+01</totfact>
</mgrwt>
</event>
<event>
12    6  0.1529770E-007  0.1594117E+04  0.7818608E-02  0.8824170E-01
          2   -1    0    0  501    0  0.00000000000E+00  0.00000000000E+00  0.43645009725E+04  0.43645009725E+04  0.00000000000E+00 0. -1.
         -1   -1    0    0    0  501 -0.00000000000E+00 -0.00000000000E+00 -0.14556131243E+03  0.14556131243E+03  0.00000000000E+00 0.  1.
         24    2    1    2    0    0 -0.37767310827E+03 -0.38756638698E+03  0.12405041908E+04  0.13558824194E+04  0.81986625526E+02 0.  0.
        254    2    1    2    0    0  0.37767310827E+03  0.38756638698E+03  0.29784354693E+04  0.31541798656E+04  0.88596168012E+03 0.  0.
         23    2    4    4    0    0  0.14372124151E+03  0.37487022832E+03  0.28338085977E+04  0.28635380699E+04  0.90529697399E+02 0.  0.
         23    2    4    4    0    0  0.23395186676E+03  0.12696158659E+02  0.14462687158E+03  0.29064179565E+03  0.93064778466E+02 0.  0.
          2    1    3    3  502    0 -0.18889484104E+03 -0.18986999968E+03  0.51274869332E+03  0.57848344855E+03  0.00000000000E+00 0. -1.
         -1    1    3    3    0  502 -0.18877826723E+03 -0.19769638730E+03  0.72775549746E+03  0.77739897081E+03  0.00000000000E+00 0.  1.
         11    1    5    5    0    0  0.56314619317E+02  0.26600398423E+03  0.18524069461E+04  0.18722555781E+04  0.00000000000E+00 0. -1.
        -11    1    5    5    0    0  0.87406622192E+02  0.10886624409E+03  0.98140165164E+03  0.99128249180E+03  0.00000000000E+00 0.  1.
          3    1    6    6  503    0  0.13011602202E+03 -0.24547199256E+02  0.11753338452E+03  0.17705039015E+03  0.00000000000E+00 0. -1.
         -3    1    6    6    0  503  0.10383584474E+03  0.37243357915E+02  0.27093487066E+02  0.11359140550E+03  0.00000000000E+00 0.  1.
<mgrwt>
<rscale>  0 0.15941173E+04</rscale>
<asrwt>0</asrwt>
<pdfrwt beam="1">  1        2 0.67146159E+00 0.15941173E+04</pdfrwt>
<pdfrwt beam="2">  1       -1 0.22394051E-01 0.15941173E+04</pdfrwt>
<totfact> 0.31445136E+00</totfact>
</mgrwt>
</event>
<event>
12    6  0.1529770E-007  0.1892705E+04  0.7818608E-02  0.8658496E-01
         -1   -1    0    0    0  501 -0.00000000000E+00  0.00000000000E+00  0.12714867937E+04  0.12714867937E+04  0.00000000000E+00 0.  1.
          2   -1    0    0  501    0  0.00000000000E+00 -0.00000000000E+00 -0.70435891338E+03  0.70435891338E+03  0.00000000000E+00 0. -1.
         24    2    1    2    0    0 -0.35041066442E+03 -0.60553244010E+03  0.42854780467E+03  0.82433166481E+03  0.80076856688E+02 0.  0.
        254    2    1    2    0    0  0.35041066442E+03  0.60553244010E+03  0.13858007570E+03  0.11515140423E+04  0.90405916981E+03 0.  0.
         23    2    4    4    0    0 -0.21630950908E+03 -0.58192976484E+02  0.12885603317E+03  0.27393886957E+03  0.90897748858E+02 0.  0.
         23    2    4    4    0    0  0.56672017350E+03  0.66372541658E+03  0.97240425278E+01  0.87757517274E+03  0.91326026616E+02 0.  0.
          2    1    3    3  502    0 -0.11332933165E+03 -0.15500996564E+03  0.83913198418E+02  0.20955441233E+03  0.00000000000E+00 0. -1.
         -1    1    3    3    0  502 -0.23708133277E+03 -0.45052247446E+03  0.34463460625E+03  0.61477725248E+03  0.00000000000E+00 0.  1.
         11    1    5    5    0    0 -0.11624197080E+03 -0.13090775613E+02  0.11371028032E+03  0.16313672803E+03  0.00000000000E+00 0.  1.
        -11    1    5    5    0    0 -0.10006753828E+03 -0.45102200870E+02  0.15145752848E+02  0.11080214154E+03  0.00000000000E+00 0. -1.
          2    1    6    6  503    0  0.97728596255E+01  0.39407393080E+02  0.51344172539E+01  0.40924487231E+02  0.00000000000E+00 0. -1.
         -2    1    6    6    0  503  0.55694731388E+03  0.62431802350E+03  0.45896252739E+01  0.83665068551E+03  0.00000000000E+00 0.  1.
<mgrwt>
<rscale>  0 0.18927050E+04</rscale>
<asrwt>0</asrwt>
<pdfrwt beam="1">  1        2 0.10836291E+00 0.18927050E+04</pdfrwt>
<pdfrwt beam="2">  1       -1 0.19561335E+00 0.18927050E+04</pdfrwt>
<totfact> 0.70197957E+00</totfact>
</mgrwt>
</event>
<event>
12    6  0.1529770E-007  0.1548222E+04  0.7818608E-02  0.8853004E-01
         -1   -1    0    0    0  501 -0.00000000000E+00  0.00000000000E+00  0.22402008489E+03  0.22402008489E+03  0.00000000000E+00 0.  1.
          2   -1    0    0  501    0  0.00000000000E+00 -0.00000000000E+00 -0.26749754402E+04  0.26749754402E+04  0.00000000000E+00 0. -1.
         24    2    1    2    0    0 -0.53726169724E+02 -0.14632417366E+03  0.91591022520E+02  0.19753281979E+03  0.79580364267E+02 0.  0.
        254    2    1    2    0    0  0.53726169724E+02  0.14632417366E+03 -0.25425463778E+04  0.27014627053E+04  0.89947840420E+03 0.  0.
         23    2    4    4    0    0  0.30293410786E+03 -0.24865328727E+03 -0.15575346471E+04  0.16081691224E+04  0.81830423527E+02 0.  0.
         23    2    4    4    0    0 -0.24920793814E+03  0.39497746093E+03 -0.98501173074E+03  0.10932935830E+04  0.83252373912E+02 0.  0.
          2    1    3    3  502    0  0.19614993216E+02 -0.37765893807E+02  0.33782946021E+02  0.54335054391E+02  0.00000000000E+00 0. -1.
         -1    1    3    3    0  502 -0.73341162941E+02 -0.10855827985E+03  0.57808076499E+02  0.14319776540E+03  0.00000000000E+00 0.  1.
         11    1    5    5    0    0  0.14133072206E+03 -0.64919671837E+02 -0.58408006473E+03  0.60443234427E+03  0.00000000000E+00 0. -1.
        -11    1    5    5    0    0  0.16160338580E+03 -0.18373361543E+03 -0.97345458236E+03  0.10037367781E+04  0.00000000000E+00 0.  1.
          2    1    6    6  503    0 -0.16750105792E+03  0.20083493091E+03 -0.59776433266E+03  0.65246721855E+03  0.00000000000E+00 0. -1.
         -2    1    6    6    0  503 -0.81706880211E+02  0.19414253002E+03 -0.38724739808E+03  0.44082636440E+03  0.00000000000E+00 0.  1.
<mgrwt>
<rscale>  0 0.15482225E+04</rscale>
<asrwt>0</asrwt>
<pdfrwt beam="1">  1        2 0.41153471E+00 0.15482225E+04</pdfrwt>
<pdfrwt beam="2">  1       -1 0.34464626E-01 0.15482225E+04</pdfrwt>
<totfact> 0.24122694E+01</totfact>
</mgrwt>
</event>
<event>
12    6  0.1529770E-007  0.2241899E+04  0.7818608E-02  0.8501189E-01
         -1   -1    0    0    0  501 -0.00000000000E+00  0.00000000000E+00  0.89650580482E+03  0.89650580482E+03  0.00000000000E+00 0.  1.
          2   -1    0    0  501    0  0.00000000000E+00 -0.00000000000E+00 -0.14015829946E+04  0.14015829946E+04  0.00000000000E+00 0. -1.
         24    2    1    2    0    0  0.53142539751E+03  0.42420597015E+03 -0.85337886252E+03  0.10944900232E+04  0.85377219927E+02 0.  0.
        254    2    1    2    0    0 -0.53142539751E+03 -0.42420597015E+03  0.34830167276E+03  0.12035987762E+04  0.93003887046E+03 0.  0.
         23    2    4    4    0    0 -0.23287495691E+03 -0.57988000207E+03  0.51756757670E+03  0.81632351275E+03  0.89533896713E+02 0.  0.
         23    2    4    4    0    0 -0.29855044060E+03  0.15567403192E+03 -0.16926590393E+03  0.38727526345E+03  0.89243563627E+02 0.  0.
          2    1    3    3  502    0  0.37183522994E+03  0.34341778061E+03 -0.61665197229E+03  0.79778246734E+03  0.00000000000E+00 0. -1.
         -1    1    3    3    0  502  0.15959016757E+03  0.80788189547E+02 -0.23672689023E+03  0.29670755588E+03  0.00000000000E+00 0.  1.
         11    1    5    5    0    0 -0.20420787944E+03 -0.42425676991E+03  0.41598990341E+03  0.62828517775E+03  0.00000000000E+00 0.  1.
        -11    1    5    5    0    0 -0.28667077471E+02 -0.15562323216E+03  0.10157767329E+03  0.18803833500E+03  0.00000000000E+00 0. -1.
          4    1    6    6  503    0 -0.14352920753E+03  0.44391884181E+02 -0.35913371430E+02  0.15447020115E+03  0.00000000000E+00 0. -1.
         -4    1    6    6    0  503 -0.15502123307E+03  0.11128214774E+03 -0.13335253250E+03  0.23280506230E+03  0.00000000000E+00 0.  1.
<mgrwt>
<rscale>  0 0.22418986E+04</rscale>
<asrwt>0</asrwt>
<pdfrwt beam="1">  1        2 0.21562815E+00 0.22418986E+04</pdfrwt>
<pdfrwt beam="2">  1       -1 0.13792397E+00 0.22418986E+04</pdfrwt>
<totfact> 0.65326908E+00</totfact>
</mgrwt>
</event>
<event>
12    6  0.1708498E-007  0.2860405E+04  0.7818608E-02  0.8284757E-01
          2   -1    0    0  501    0  0.00000000000E+00  0.00000000000E+00  0.14912982493E+04  0.14912982493E+04  0.00000000000E+00 0. -1.
         -3   -1    0    0    0  501 -0.00000000000E+00 -0.00000000000E+00 -0.13716094303E+04  0.13716094303E+04  0.00000000000E+00 0.  1.
         24    2    1    2    0    0  0.77825082697E+03  0.83761532589E+03 -0.53331835901E+03  0.12642082648E+04  0.80748256829E+02 0.  0.
        254    2    1    2    0    0 -0.77825082697E+03 -0.83761532589E+03  0.65300717800E+03  0.15986994147E+04  0.90672358538E+03 0.  0.
         23    2    4    4    0    0 -0.53319358108E+03 -0.51419653237E+03  0.85609338930E+03  0.11358489502E+04  0.92539060600E+02 0.  0.
         23    2    4    4    0    0 -0.24505724589E+03 -0.32341879351E+03 -0.20308621131E+03  0.46285046449E+03  0.91289503756E+02 0.  0.
          4    1    3    3  502    0  0.20348603339E+03  0.20044870259E+03 -0.16973592353E+03  0.33225973558E+03  0.00000000000E+00 0. -1.
         -3    1    3    3    0  502  0.57476479359E+03  0.63716662330E+03 -0.36358243549E+03  0.93194852926E+03  0.00000000000E+00 0.  1.
         11    1    5    5    0    0 -0.43569527459E+03 -0.37369002729E+03  0.68872054403E+03  0.89655484861E+03  0.00000000000E+00 0.  1.
        -11    1    5    5    0    0 -0.97498306497E+02 -0.14050650508E+03  0.16737284527E+03  0.23929410163E+03  0.00000000000E+00 0. -1.
          4    1    6    6  503    0 -0.60371750900E+02 -0.33754811456E+02 -0.56669738820E+02  0.89418090457E+02  0.00000000000E+00 0. -1.
         -4    1    6    6    0  503 -0.18468549499E+03 -0.28966398206E+03 -0.14641647249E+03  0.37343237403E+03  0.00000000000E+00 0.  1.
<mgrwt>
<rscale>  0 0.28604047E+04</rscale>
<asrwt>0</asrwt>
<pdfrwt beam="1">  1        2 0.22943050E+00 0.28604047E+04</pdfrwt>
<pdfrwt beam="2">  1       -3 0.21101684E+00 0.28604047E+04</pdfrwt>
<totfact> 0.87627903E-01</totfact>
</mgrwt>
</event>
<event>
12    6  0.1529770E-007  0.1312149E+04  0.7818608E-02  0.9019986E-01
         -1   -1    0    0    0  501 -0.00000000000E+00  0.00000000000E+00  0.41716834012E+03  0.41716834012E+03  0.00000000000E+00 0.  1.
          2   -1    0    0  501    0  0.00000000000E+00 -0.00000000000E+00 -0.10317994017E+04  0.10317994017E+04  0.00000000000E+00 0. -1.
         24    2    1    2    0    0  0.14911216422E+03  0.20612202928E+03  0.92924493837E+02  0.28241923801E+03  0.80030843859E+02 0.  0.
        254    2    1    2    0    0 -0.14911216422E+03 -0.20612202928E+03 -0.70755555543E+03  0.11665485038E+04  0.89189675371E+03 0.  0.
         23    2    4    4    0    0  0.36222992820E+03 -0.86784752935E+02 -0.38732830948E+03  0.54514572583E+03  0.91752541385E+02 0.  0.
         23    2    4    4    0    0 -0.51134209241E+03 -0.11933727635E+03 -0.32022724595E+03  0.62140277799E+03  0.88790779060E+02 0.  0.
          2    1    3    3  502    0 -0.49662790566E+01  0.33278979019E+02  0.21610556087E+01  0.33716828640E+02  0.00000000000E+00 0. -1.
         -3    1    3    3    0  502  0.15407844327E+03  0.17284305026E+03  0.90763438229E+02  0.24870240937E+03  0.00000000000E+00 0.  1.
         11    1    5    5    0    0  0.29422824620E+03 -0.58769978260E+02 -0.35499153437E+03  0.46480443272E+03  0.00000000000E+00 0.  1.
        -11    1    5    5    0    0  0.68001681994E+02 -0.28014774675E+02 -0.32336775109E+02  0.80341293110E+02  0.00000000000E+00 0. -1.
          3    1    6    6  503    0 -0.41458808549E+03 -0.64820348502E+02 -0.27369108830E+03  0.50099078836E+03  0.00000000000E+00 0. -1.
         -3    1    6    6    0  503 -0.96754006926E+02 -0.54516927844E+02 -0.46536157655E+02  0.12041198963E+03  0.00000000000E+00 0.  1.
<mgrwt>
<rscale>  0 0.13121494E+04</rscale>
<asrwt>0</asrwt>
<pdfrwt beam="1">  1        2 0.15873837E+00 0.13121494E+04</pdfrwt>
<pdfrwt beam="2">  1       -1 0.64179745E-01 0.13121494E+04</pdfrwt>
<totfact> 0.66115969E+01</totfact>
</mgrwt>
</event>
<event>
12    6  0.1529770E-007  0.1154646E+04  0.7818608E-02  0.9153508E-01
          2   -1    0    0  501    0  0.00000000000E+00  0.00000000000E+00  0.20030824968E+04  0.20030824968E+04  0.00000000000E+00 0. -1.
         -1   -1    0    0    0  501 -0.00000000000E+00 -0.00000000000E+00 -0.16639455697E+03  0.16639455697E+03  0.00000000000E+00 0.  1.
         24    2    1    2    0    0  0.14245029197E+02  0.20846873912E+03  0.49298682687E+03  0.54135656570E+03  0.79804659677E+02 0.  0.
        254    2    1    2    0    0 -0.14245029197E+02 -0.20846873912E+03  0.13437011129E+04  0.16281204880E+04  0.89531084361E+03 0.  0.
         23    2    4    4    0    0 -0.72138515564E+02 -0.32245667056E+03  0.80283268286E+02  0.35477713252E+03  0.10118863958E+03 0.  0.
         23    2    4    4    0    0  0.57893486367E+02  0.11398793144E+03  0.12634178446E+04  0.12733433555E+04  0.93988013237E+02 0.  0.
          4    1    3    3  502    0 -0.97416793936E+00  0.79579220657E+02  0.28752941350E+03  0.29834035093E+03  0.00000000000E+00 0. -1.
         -3    1    3    3    0  502  0.15219197137E+02  0.12888951846E+03  0.20545741337E+03  0.24301621477E+03  0.00000000000E+00 0.  1.
         11    1    5    5    0    0 -0.29834182506E+02 -0.54670048374E+02  0.53941464267E+02  0.82392804311E+02  0.00000000000E+00 0.  1.
        -11    1    5    5    0    0 -0.42304333058E+02 -0.26778662219E+03  0.26341804019E+02  0.27238432821E+03  0.00000000000E+00 0. -1.
          4    1    6    6  503    0  0.23810913711E+02  0.10476550083E+03  0.11376935953E+04  0.11427552173E+04  0.00000000000E+00 0. -1.
         -4    1    6    6    0  503  0.34082572655E+02  0.92224306079E+01  0.12572424932E+03  0.13058813825E+03  0.00000000000E+00 0.  1.
<mgrwt>
<rscale>  0 0.11546463E+04</rscale>
<asrwt>0</asrwt>
<pdfrwt beam="1">  1        2 0.30816652E+00 0.11546463E+04</pdfrwt>
<pdfrwt beam="2">  1       -1 0.25599164E-01 0.11546463E+04</pdfrwt>
<totfact> 0.10105783E+02</totfact>
</mgrwt>
</event>
<event>
12    6  0.1529770E-007  0.1210567E+04  0.7818608E-02  0.9103657E-01
          2   -1    0    0  501    0  0.00000000000E+00  0.00000000000E+00  0.23227324573E+04  0.23227324573E+04  0.00000000000E+00 0. -1.
         -1   -1    0    0    0  501 -0.00000000000E+00 -0.00000000000E+00 -0.15773156390E+03  0.15773156390E+03  0.00000000000E+00 0.  1.
         24    2    1    2    0    0  0.25380880338E+03  0.40252440096E+02  0.51193762852E+03  0.57819109807E+03  0.78648857475E+02 0.  0.
        254    2    1    2    0    0 -0.25380880338E+03 -0.40252440096E+02  0.16530632649E+04  0.19022729232E+04  0.90553020314E+03 0.  0.
         23    2    4    4    0    0 -0.32239821532E+03 -0.23054887354E+03  0.24089392049E+03  0.47283393747E+03  0.91916588068E+02 0.  0.
         23    2    4    4    0    0  0.68589411948E+02  0.19029643345E+03  0.14121693444E+04  0.14294389857E+04  0.90312327381E+02 0.  0.
          4    1    3    3  502    0  0.69015799480E+02  0.26785990924E+02  0.22283372961E+03  0.23480958443E+03  0.00000000000E+00 0. -1.
         -3    1    3    3    0  502  0.18479300390E+03  0.13466449172E+02  0.28910389891E+03  0.34338151363E+03  0.00000000000E+00 0.  1.
         11    1    5    5    0    0 -0.31912414676E+03 -0.22941246918E+03  0.21752128851E+03  0.44920575800E+03  0.00000000000E+00 0. -1.
        -11    1    5    5    0    0 -0.32740685640E+01 -0.11364043624E+01  0.23372631979E+02  0.23628179479E+02  0.00000000000E+00 0.  1.
          1    1    6    6  503    0  0.70440837261E+02  0.19847859940E+03  0.13872409560E+04  0.14031368914E+04  0.00000000000E+00 0. -1.
         -1    1    6    6    0  503 -0.18514253130E+01 -0.81821659561E+01  0.24928388447E+02  0.26302094327E+02  0.00000000000E+00 0.  1.
<mgrwt>
<rscale>  0 0.12105672E+04</rscale>
<asrwt>0</asrwt>
<pdfrwt beam="1">  1        2 0.35734343E+00 0.12105672E+04</pdfrwt>
<pdfrwt beam="2">  1       -1 0.24266396E-01 0.12105672E+04</pdfrwt>
<totfact> 0.73162275E+01</totfact>
</mgrwt>
</event>
<event>
12    6  0.1529770E-007  0.2189522E+04  0.7818608E-02  0.8522802E-01
         -1   -1    0    0    0  501 -0.00000000000E+00  0.00000000000E+00  0.57889460936E+03  0.57889460936E+03  0.00000000000E+00 0.  1.
          2   -1    0    0  501    0  0.00000000000E+00 -0.00000000000E+00 -0.20703282045E+04  0.20703282045E+04  0.00000000000E+00 0. -1.
         24    2    1    2    0    0 -0.31220725460E+03 -0.83343039176E+03 -0.36796968003E+03  0.96641887552E+03  0.80524342848E+02 0.  0.
        254    2    1    2    0    0  0.31220725460E+03  0.83343039176E+03 -0.11234639151E+04  0.16828039384E+04  0.88180402509E+03 0.  0.
         23    2    4    4    0    0 -0.49360625396E+01  0.39457647029E+03 -0.10545368726E+04  0.11293833318E+04  0.87998516152E+02 0.  0.
         23    2    4    4    0    0  0.31714331714E+03  0.43885392147E+03 -0.68927042526E+02  0.55342060657E+03  0.91382616434E+02 0.  0.
          2    1    3    3  502    0 -0.11618928825E+03 -0.27571709978E+03 -0.16311454363E+03  0.34077298038E+03  0.00000000000E+00 0. -1.
         -1    1    3    3    0  502 -0.19601796635E+03 -0.55771329198E+03 -0.20485513640E+03  0.62564589513E+03  0.00000000000E+00 0.  1.
         11    1    5    5    0    0 -0.19604152129E+01  0.40112981337E+02 -0.20434133811E+03  0.20825051491E+03  0.00000000000E+00 0. -1.
        -11    1    5    5    0    0 -0.29756473266E+01  0.35446348895E+03 -0.85019553450E+03  0.92113281690E+03  0.00000000000E+00 0.  1.
          1    1    6    6  503    0  0.55829555736E+02  0.36317116616E+02  0.90336125132E+01  0.67212189430E+02  0.00000000000E+00 0. -1.
         -1    1    6    6    0  503  0.26131376140E+03  0.40253680486E+03 -0.77960655039E+02  0.48620841714E+03  0.00000000000E+00 0.  1.
<mgrwt>
<rscale>  0 0.21895222E+04</rscale>
<asrwt>0</asrwt>
<pdfrwt beam="1">  1        2 0.31851202E+00 0.21895222E+04</pdfrwt>
<pdfrwt beam="2">  1       -1 0.89060711E-01 0.21895222E+04</pdfrwt>
<totfact> 0.78572721E+00</totfact>
</mgrwt>
</event>
<event>
12    6  0.1529770E-007  0.4026644E+04  0.7818608E-02  0.7999193E-01
          2   -1    0    0  501    0  0.00000000000E+00  0.00000000000E+00  0.29392837847E+04  0.29392837847E+04  0.00000000000E+00 0. -1.
         -1   -1    0    0    0  501 -0.00000000000E+00 -0.00000000000E+00 -0.13790654493E+04  0.13790654493E+04  0.00000000000E+00 0.  1.
         24    2    1    2    0    0  0.19849224062E+03 -0.13299724690E+04  0.21987326467E+04  0.25785943281E+04  0.80607189349E+02 0.  0.
        254    2    1    2    0    0 -0.19849224062E+03  0.13299724690E+04 -0.63851431131E+03  0.17397549059E+04  0.90045581176E+03 0.  0.
         23    2    4    4    0    0  0.29739944702E+03  0.17085488442E+03 -0.15011941731E+03  0.38465736220E+03  0.88247516843E+02 0.  0.
         23    2    4    4    0    0 -0.49589168763E+03  0.11591175846E+04 -0.48839489400E+03  0.13550975437E+04  0.91091380933E+02 0.  0.
          2    1    3    3  502    0  0.17331582325E+03 -0.12603984627E+04  0.20554768845E+04  0.24173596923E+04  0.00000000000E+00 0. -1.
         -1    1    3    3    0  502  0.25176417362E+02 -0.69574006263E+02  0.14325576226E+03  0.16123463573E+03  0.00000000000E+00 0.  1.
         11    1    5    5    0    0  0.24623278786E+03  0.15709319020E+03 -0.15637647960E+03  0.33130417986E+03  0.00000000000E+00 0.  1.
        -11    1    5    5    0    0  0.51166659159E+02  0.13761694223E+02  0.62570622929E+01  0.53353182341E+02  0.00000000000E+00 0. -1.
          1    1    6    6  503    0 -0.22819045093E+03  0.51433867305E+03 -0.26597185076E+03  0.62237944848E+03  0.00000000000E+00 0. -1.
         -1    1    6    6    0  503 -0.26770123670E+03  0.64477891152E+03 -0.22242304324E+03  0.73271809520E+03  0.00000000000E+00 0.  1.
<mgrwt>
<rscale>  0 0.40266436E+04</rscale>
<asrwt>0</asrwt>
<pdfrwt beam="1">  1        2 0.45219750E+00 0.40266436E+04</pdfrwt>
<pdfrwt beam="2">  1       -1 0.21216392E+00 0.40266436E+04</pdfrwt>
<totfact> 0.21100269E-01</totfact>
</mgrwt>
</event>
<event>
12    6  0.1529770E-007  0.2324295E+04  0.7818608E-02  0.8468403E-01
         -1   -1    0    0    0  501 -0.00000000000E+00  0.00000000000E+00  0.55731243486E+03  0.55731243486E+03  0.00000000000E+00 0.  1.
          2   -1    0    0  501    0  0.00000000000E+00 -0.00000000000E+00 -0.24233934919E+04  0.24233934919E+04  0.00000000000E+00 0. -1.
         24    2    1    2    0    0  0.72753567312E+03  0.39743152045E+03 -0.14721240554E+04  0.16914865054E+04  0.81959713058E+02 0.  0.
        254    2    1    2    0    0 -0.72753567312E+03 -0.39743152045E+03 -0.39395700164E+03  0.12892194213E+04  0.90533122556E+03 0.  0.
         23    2    4    4    0    0 -0.61901953330E+03 -0.44187131081E+02  0.13103839375E+03  0.64087137573E+03  0.91691735946E+02 0.  0.
         23    2    4    4    0    0 -0.10851613982E+03 -0.35324438937E+03 -0.52499539538E+03  0.64834804555E+03  0.90430480320E+02 0.  0.
          2    1    3    3  502    0  0.60570659261E+03  0.33410191221E+03 -0.11617530809E+04  0.13521001387E+04  0.00000000000E+00 0. -1.
         -1    1    3    3    0  502  0.12182908051E+03  0.63329608241E+02 -0.31037097446E+03  0.33938636674E+03  0.00000000000E+00 0.  1.
         11    1    5    5    0    0 -0.62017123833E+03 -0.47923686728E+02  0.13358814120E+03  0.63620345493E+03  0.00000000000E+00 0.  1.
        -11    1    5    5    0    0  0.11517050283E+01  0.37365556473E+01 -0.25497474480E+01  0.46679208034E+01  0.00000000000E+00 0. -1.
          3    1    6    6  503    0 -0.11907595147E+03 -0.28752847203E+03 -0.40074866896E+03  0.50739649202E+03  0.00000000000E+00 0. -1.
         -3    1    6    6    0  503  0.10559811652E+02 -0.65715917348E+02 -0.12424672642E+03  0.14095155353E+03  0.00000000000E+00 0.  1.
<mgrwt>
<rscale>  0 0.23242954E+04</rscale>
<asrwt>0</asrwt>
<pdfrwt beam="1">  1        2 0.37282976E+00 0.23242954E+04</pdfrwt>
<pdfrwt beam="2">  1       -1 0.85740376E-01 0.23242954E+04</pdfrwt>
<totfact> 0.53305015E+00</totfact>
</mgrwt>
</event>
<event>
12    6  0.1529770E-007  0.2234821E+04  0.7818608E-02  0.8504073E-01
          2   -1    0    0  501    0  0.00000000000E+00  0.00000000000E+00  0.86527719737E+03  0.86527719737E+03  0.00000000000E+00 0. -1.
         -1   -1    0    0    0  501 -0.00000000000E+00 -0.00000000000E+00 -0.14430130855E+04  0.14430130855E+04  0.00000000000E+00 0.  1.
         24    2    1    2    0    0 -0.31491564043E+02  0.21466603483E+03  0.69861106969E+03  0.73584043948E+03  0.79564442803E+02 0.  0.
        254    2    1    2    0    0  0.31491564043E+02 -0.21466603483E+03 -0.12763469579E+04  0.15724498434E+04  0.89244816554E+03 0.  0.
         23    2    4    4    0    0  0.33677677498E+02  0.24178034783E+03 -0.61327052293E+02  0.27126339002E+03  0.10114789598E+03 0.  0.
         23    2    4    4    0    0 -0.21861134546E+01 -0.45644638267E+03 -0.12150199056E+04  0.13011864534E+04  0.92004001543E+02 0.  0.
          2    1    3    3  502    0 -0.25712074109E+02  0.17001782026E+03  0.42361696782E+03  0.45718541686E+03  0.00000000000E+00 0. -1.
         -1    1    3    3    0  502 -0.57794899342E+01  0.44648214575E+02  0.27499410187E+03  0.27865502262E+03  0.00000000000E+00 0.  1.
         11    1    5    5    0    0 -0.80131239576E+01  0.18160346298E+03 -0.10387002429E+02  0.18207668094E+03  0.00000000000E+00 0. -1.
        -11    1    5    5    0    0  0.41690801456E+02  0.60176884855E+02 -0.50940049864E+02  0.89186709082E+02  0.00000000000E+00 0.  1.
          2    1    6    6  503    0 -0.11899764997E+02 -0.22622387968E+03 -0.72747027257E+03  0.76192640433E+03  0.00000000000E+00 0. -1.
         -2    1    6    6    0  503  0.97136515426E+01 -0.23022250299E+03 -0.48754963298E+03  0.53926004908E+03  0.00000000000E+00 0.  1.
<mgrwt>
<rscale>  0 0.22348211E+04</rscale>
<asrwt>0</asrwt>
<pdfrwt beam="1">  1        2 0.13311957E+00 0.22348211E+04</pdfrwt>
<pdfrwt beam="2">  1       -1 0.22200201E+00 0.22348211E+04</pdfrwt>
<totfact> 0.34358282E+00</totfact>
</mgrwt>
</event>
<event>
12    6  0.1529770E-007  0.1504671E+04  0.7818608E-02  0.8881353E-01
         -1   -1    0    0    0  501 -0.00000000000E+00  0.00000000000E+00  0.22623668370E+03  0.22623668370E+03  0.00000000000E+00 0.  1.
          2   -1    0    0  501    0  0.00000000000E+00 -0.00000000000E+00 -0.25018436869E+04  0.25018436869E+04  0.00000000000E+00 0. -1.
         24    2    1    2    0    0 -0.57818210792E+02 -0.25183018643E+03 -0.14672333582E+04  0.14919392172E+04  0.79671275018E+02 0.  0.
        254    2    1    2    0    0  0.57818210792E+02  0.25183018643E+03 -0.80837364499E+03  0.12361411534E+04  0.89878563237E+03 0.  0.
         23    2    4    4    0    0  0.28021892867E+02  0.55103085220E+03 -0.71667912949E+03  0.90903927490E+03  0.91121907907E+02 0.  0.
         23    2    4    4    0    0  0.29796317925E+02 -0.29920066578E+03 -0.91694515507E+02  0.32710187852E+03  0.90437247829E+02 0.  0.
          4    1    3    3  502    0 -0.23947204952E+02 -0.22658343584E+03 -0.12620208843E+04  0.12824235784E+04  0.00000000000E+00 0. -1.
         -3    1    3    3    0  502 -0.33871005840E+02 -0.25246750582E+02 -0.20521247392E+03  0.20951563880E+03  0.00000000000E+00 0.  1.
         11    1    5    5    0    0 -0.27913340767E+02  0.21347957328E+03 -0.24215779305E+03  0.32402635624E+03  0.00000000000E+00 0.  1.
        -11    1    5    5    0    0  0.55935233634E+02  0.33755127892E+03 -0.47452133644E+03  0.58501291866E+03  0.00000000000E+00 0. -1.
          1    1    6    6  503    0  0.25668697807E+02 -0.29696595144E+03 -0.10259365321E+03  0.31523501716E+03  0.00000000000E+00 0. -1.
         -1    1    6    6    0  503  0.41276201177E+01 -0.22347143371E+01  0.10899137704E+02  0.11866861366E+02  0.00000000000E+00 0.  1.
<mgrwt>
<rscale>  0 0.15046712E+04</rscale>
<asrwt>0</asrwt>
<pdfrwt beam="1">  1        2 0.38489901E+00 0.15046712E+04</pdfrwt>
<pdfrwt beam="2">  1       -1 0.34805646E-01 0.15046712E+04</pdfrwt>
<totfact> 0.30020878E+01</totfact>
</mgrwt>
</event>
<event>
12    6  0.1529770E-007  0.2277821E+04  0.7818608E-02  0.8486718E-01
          2   -1    0    0  501    0  0.00000000000E+00  0.00000000000E+00  0.11508861595E+04  0.11508861595E+04  0.00000000000E+00 0. -1.
         -1   -1    0    0    0  501 -0.00000000000E+00 -0.00000000000E+00 -0.11270597885E+04  0.11270597885E+04  0.00000000000E+00 0.  1.
         24    2    1    2    0    0 -0.44854392068E+03  0.40359685227E+03  0.75143437013E+03  0.96676240796E+03  0.76771563080E+02 0.  0.
        254    2    1    2    0    0  0.44854392068E+03 -0.40359685227E+03 -0.72760799906E+03  0.13111835400E+04  0.90868410762E+03 0.  0.
         23    2    4    4    0    0  0.71102397129E+03 -0.37124014127E+03 -0.48979655605E+03  0.94404824345E+03  0.89174488580E+02 0.  0.
         23    2    4    4    0    0 -0.26248005061E+03 -0.32356710995E+02 -0.23781144301E+03  0.36713529659E+03  0.91056629948E+02 0.  0.
          2    1    3    3  502    0 -0.42471661966E+03  0.38828497347E+03  0.68561276390E+03  0.89510574217E+03  0.00000000000E+00 0. -1.
         -1    1    3    3    0  502 -0.23827301015E+02  0.15311878798E+02  0.65821606226E+02  0.71656665790E+02  0.00000000000E+00 0.  1.
         11    1    5    5    0    0  0.63604639711E+03 -0.35315643070E+03 -0.42009583181E+03  0.84009225192E+03  0.00000000000E+00 0. -1.
        -11    1    5    5    0    0  0.74977574176E+02 -0.18083710569E+02 -0.69700724235E+02  0.10395599154E+03  0.00000000000E+00 0.  1.
          1    1    6    6  503    0 -0.12663123864E+03  0.42184614520E+01 -0.16702625796E+03  0.20964502585E+03  0.00000000000E+00 0. -1.
         -1    1    6    6    0  503 -0.13584881197E+03 -0.36575172447E+02 -0.70785185052E+02  0.15749027073E+03  0.00000000000E+00 0.  1.
<mgrwt>
<rscale>  0 0.22778213E+04</rscale>
<asrwt>0</asrwt>
<pdfrwt beam="1">  1        2 0.17705941E+00 0.22778213E+04</pdfrwt>
<pdfrwt beam="2">  1       -1 0.17339381E+00 0.22778213E+04</pdfrwt>
<totfact> 0.48790024E+00</totfact>
</mgrwt>
</event>
<event>
12    6  0.1529770E-007  0.1703877E+04  0.7818608E-02  0.8759156E-01
          2   -1    0    0  501    0  0.00000000000E+00  0.00000000000E+00  0.80437950101E+03  0.80437950101E+03  0.00000000000E+00 0. -1.
         -1   -1    0    0    0  501 -0.00000000000E+00 -0.00000000000E+00 -0.90230961298E+03  0.90230961298E+03  0.00000000000E+00 0.  1.
         24    2    1    2    0    0  0.20378099304E+03 -0.19677526845E+03  0.50431296593E+03  0.58381776586E+03  0.79148068370E+02 0.  0.
        254    2    1    2    0    0 -0.20378099304E+03  0.19677526845E+03 -0.60224307790E+03  0.11228713481E+04  0.90437610550E+03 0.  0.
         23    2    4    4    0    0 -0.40324391976E+03  0.66470916490E+02 -0.72839497795E+03  0.84008427232E+03  0.90323303434E+02 0.  0.
         23    2    4    4    0    0  0.19946292672E+03  0.13030435196E+03  0.12615190005E+03  0.28278707582E+03  0.85378832796E+02 0.  0.
          4    1    3    3  502    0  0.19634863885E+03 -0.16463283812E+03  0.47490990254E+03  0.53962595833E+03  0.00000000000E+00 0. -1.
         -3    1    3    3    0  502  0.74323541849E+01 -0.32142430327E+02  0.29403063388E+02  0.44191807529E+02  0.00000000000E+00 0.  1.
         11    1    5    5    0    0 -0.35439753555E+03  0.72825584082E+02 -0.57868465251E+03  0.68247864871E+03  0.00000000000E+00 0. -1.
        -11    1    5    5    0    0 -0.48846384210E+02 -0.63546675920E+01 -0.14971032543E+03  0.15760562361E+03  0.00000000000E+00 0.  1.
          4    1    6    6  503    0  0.10169794042E+03  0.20026584090E+02  0.34517778859E+02  0.10924748149E+03  0.00000000000E+00 0. -1.
         -4    1    6    6    0  503  0.97764986304E+02  0.11027776787E+03  0.91634121188E+02  0.17353959433E+03  0.00000000000E+00 0.  1.
<mgrwt>
<rscale>  0 0.17038772E+04</rscale>
<asrwt>0</asrwt>
<pdfrwt beam="1">  1        2 0.12375069E+00 0.17038772E+04</pdfrwt>
<pdfrwt beam="2">  1       -1 0.13881686E+00 0.17038772E+04</pdfrwt>
<totfact> 0.15916680E+01</totfact>
</mgrwt>
</event>
<event>
12    6  0.1529770E-007  0.1681781E+04  0.7818608E-02  0.8771824E-01
         -1   -1    0    0    0  501 -0.00000000000E+00  0.00000000000E+00  0.51704641040E+03  0.51704641040E+03  0.00000000000E+00 0.  1.
          2   -1    0    0  501    0  0.00000000000E+00 -0.00000000000E+00 -0.13675689016E+04  0.13675689016E+04  0.00000000000E+00 0. -1.
         24    2    1    2    0    0  0.17742531341E+02  0.52580922789E+03 -0.23096972842E+03  0.58015400043E+03  0.80259000857E+02 0.  0.
        254    2    1    2    0    0 -0.17742531341E+02 -0.52580922789E+03 -0.61955276281E+03  0.13044613116E+04  0.10202860119E+04 0.  0.
         23    2    4    4    0    0 -0.71338553982E+02 -0.32317888893E+03 -0.88758228077E+03  0.95171663087E+03  0.91806627301E+02 0.  0.
         23    2    4    4    0    0  0.53596022642E+02 -0.20263033895E+03  0.26802951795E+03  0.35274468073E+03  0.93045147024E+02 0.  0.
          4    1    3    3  502    0 -0.15732546417E+02  0.20817607976E+02 -0.11615133150E+02  0.28562162676E+02  0.00000000000E+00 0. -1.
         -1    1    3    3    0  502  0.33475077757E+02  0.50499161991E+03 -0.21935459527E+03  0.55159183775E+03  0.00000000000E+00 0.  1.
         11    1    5    5    0    0 -0.58894783886E+02 -0.31657866953E+03 -0.87654667530E+03  0.93382264031E+03  0.00000000000E+00 0.  1.
        -11    1    5    5    0    0 -0.12443770096E+02 -0.66002194030E+01 -0.11035605462E+02  0.17893990564E+02  0.00000000000E+00 0. -1.
          4    1    6    6  503    0  0.14977125236E+02  0.12155233248E+01  0.16716798357E+01  0.15119070433E+02  0.00000000000E+00 0. -1.
         -4    1    6    6    0  503  0.38618897406E+02 -0.20384586228E+03  0.26635783812E+03  0.33762561030E+03  0.00000000000E+00 0.  1.
<mgrwt>
<rscale>  0 0.16817807E+04</rscale>
<asrwt>0</asrwt>
<pdfrwt beam="1">  1        2 0.21039521E+00 0.16817807E+04</pdfrwt>
<pdfrwt beam="2">  1       -1 0.79545603E-01 0.16817807E+04</pdfrwt>
<totfact> 0.25905413E+01</totfact>
</mgrwt>
</event>
<event>
12    6  0.1529770E-007  0.1370461E+04  0.7818608E-02  0.8975482E-01
          2   -1    0    0  501    0  0.00000000000E+00  0.00000000000E+00  0.10400462355E+04  0.10400462355E+04  0.00000000000E+00 0. -1.
         -1   -1    0    0    0  501 -0.00000000000E+00 -0.00000000000E+00 -0.45146174530E+03  0.45146174530E+03  0.00000000000E+00 0.  1.
         24    2    1    2    0    0 -0.34160554967E+03  0.25859713318E+03  0.22742506046E+03  0.49168171832E+03  0.80386100519E+02 0.  0.
        254    2    1    2    0    0  0.34160554967E+03 -0.25859713318E+03  0.36115942973E+03  0.99982626246E+03  0.82803960809E+03 0.  0.
         23    2    4    4    0    0  0.20982735327E+03  0.28264127940E+03  0.18256872711E+03  0.40765084108E+03  0.94521199282E+02 0.  0.
         23    2    4    4    0    0  0.13177819640E+03 -0.54123841257E+03  0.17859070262E+03  0.59217542138E+03  0.92046609598E+02 0.  0.
          2    1    3    3  502    0 -0.11772912124E+03  0.61645722296E+02  0.10492281730E+03  0.16931963459E+03  0.00000000000E+00 0. -1.
         -1    1    3    3    0  502 -0.22387642843E+03  0.19695141088E+03  0.12250224316E+03  0.32236208374E+03  0.00000000000E+00 0.  1.
         11    1    5    5    0    0  0.57507041220E+02  0.20430433681E+02  0.25461466419E+02  0.66126762226E+02  0.00000000000E+00 0.  1.
        -11    1    5    5    0    0  0.15232031205E+03  0.26221084571E+03  0.15710726069E+03  0.34152407885E+03  0.00000000000E+00 0. -1.
          3    1    6    6  503    0  0.12630892543E+03 -0.54213695943E+03  0.18201720523E+03  0.58565919306E+03  0.00000000000E+00 0. -1.
         -3    1    6    6    0  503  0.54692709686E+01  0.89854685468E+00 -0.34265026104E+01  0.65162283199E+01  0.00000000000E+00 0.  1.
<mgrwt>
<rscale>  0 0.13704614E+04</rscale>
<asrwt>0</asrwt>
<pdfrwt beam="1">  1        2 0.16000711E+00 0.13704614E+04</pdfrwt>
<pdfrwt beam="2">  1       -1 0.69455653E-01 0.13704614E+04</pdfrwt>
<totfact> 0.55409119E+01</totfact>
</mgrwt>
</event>
<event>
12    6  0.1529770E-007  0.2725514E+04  0.7818608E-02  0.8326774E-01
          2   -1    0    0  501    0  0.00000000000E+00  0.00000000000E+00  0.15292580435E+04  0.15292580435E+04  0.00000000000E+00 0. -1.
         -1   -1    0    0    0  501 -0.00000000000E+00 -0.00000000000E+00 -0.12143842649E+04  0.12143842649E+04  0.00000000000E+00 0.  1.
         24    2    1    2    0    0  0.96036921084E+03  0.69413954201E+03 -0.12150206767E+03  0.11944374380E+04  0.88200430459E+02 0.  0.
        254    2    1    2    0    0 -0.96036921084E+03 -0.69413954201E+03  0.43637584627E+03  0.15492048704E+04  0.89748154652E+03 0.  0.
         23    2    4    4    0    0 -0.66990851115E+03 -0.10158644291E+03  0.54500823750E+03  0.87409330945E+03  0.88926463979E+02 0.  0.
         23    2    4    4    0    0 -0.29046069969E+03 -0.59255309910E+03 -0.10863239122E+03  0.67511156095E+03  0.92130505161E+02 0.  0.
          2    1    3    3  502    0  0.66869463711E+03  0.49511575217E+03 -0.45759372959E+02  0.83329829350E+03  0.00000000000E+00 0. -1.
         -1    1    3    3    0  502  0.29167457373E+03  0.19902378985E+03 -0.75742694711E+02  0.36113914450E+03  0.00000000000E+00 0.  1.
         11    1    5    5    0    0 -0.65495625743E+03 -0.11122567259E+03  0.52127459362E+03  0.84443238412E+03  0.00000000000E+00 0.  1.
        -11    1    5    5    0    0 -0.14952253717E+02  0.96392296797E+01  0.23733643876E+02  0.29660925334E+02  0.00000000000E+00 0. -1.
          1    1    6    6  503    0 -0.17804252756E+01 -0.63274185319E+02 -0.14223541625E+02  0.64877589183E+02  0.00000000000E+00 0. -1.
         -1    1    6    6    0  503 -0.28868027441E+03 -0.52927891378E+03 -0.94408849600E+02  0.61023397176E+03  0.00000000000E+00 0.  1.
<mgrwt>
<rscale>  0 0.27255142E+04</rscale>
<asrwt>0</asrwt>
<pdfrwt beam="1">  1        2 0.23527047E+00 0.27255142E+04</pdfrwt>
<pdfrwt beam="2">  1       -1 0.18682835E+00 0.27255142E+04</pdfrwt>
<totfact> 0.22665536E+00</totfact>
</mgrwt>
</event>
<event>
12    6  0.1529770E-007  0.1729056E+04  0.7818608E-02  0.8744964E-01
          2   -1    0    0  501    0  0.00000000000E+00  0.00000000000E+00  0.15598380720E+04  0.15598380720E+04  0.00000000000E+00 0. -1.
         -1   -1    0    0    0  501 -0.00000000000E+00 -0.00000000000E+00 -0.47915802359E+03  0.47915802359E+03  0.00000000000E+00 0.  1.
         24    2    1    2    0    0  0.25929073926E+03  0.22880062290E+03 -0.22098172032E+03  0.41778156042E+03  0.78275788111E+02 0.  0.
        254    2    1    2    0    0 -0.25929073926E+03 -0.22880062290E+03  0.13016617687E+04  0.16212145351E+04  0.90245875048E+03 0.  0.
         23    2    4    4    0    0  0.14366013464E+03 -0.43403260484E+03  0.42690130625E+03  0.63246004905E+03  0.93479687716E+02 0.  0.
         23    2    4    4    0    0 -0.40295087390E+03  0.20523198193E+03  0.87476046247E+03  0.98875448610E+03  0.89106643370E+02 0.  0.
          4    1    3    3  502    0  0.38971877207E+02  0.74057929571E+02 -0.70015921866E+02  0.10911284737E+03  0.00000000000E+00 0. -1.
         -3    1    3    3    0  502  0.22031886205E+03  0.15474269333E+03 -0.15096579846E+03  0.30866871306E+03  0.00000000000E+00 0.  1.
         11    1    5    5    0    0  0.15133218970E+03 -0.42555543039E+03  0.42620270252E+03  0.62100531367E+03  0.00000000000E+00 0.  1.
        -11    1    5    5    0    0 -0.76720550567E+01 -0.84771744476E+01  0.69860373436E+00  0.11454735378E+02  0.00000000000E+00 0. -1.
          2    1    6    6  503    0 -0.27960571696E+03  0.94535030258E+02  0.56361428737E+03  0.63622110452E+03  0.00000000000E+00 0.  1.
         -2    1    6    6    0  503 -0.12334515694E+03  0.11069695168E+03  0.31114617510E+03  0.35253338158E+03  0.00000000000E+00 0. -1.
<mgrwt>
<rscale>  0 0.17290563E+04</rscale>
<asrwt>0</asrwt>
<pdfrwt beam="1">  1        2 0.23997509E+00 0.17290563E+04</pdfrwt>
<pdfrwt beam="2">  1       -1 0.73716620E-01 0.17290563E+04</pdfrwt>
<totfact> 0.23549718E+01</totfact>
</mgrwt>
</event>
