<event>
12    1  0.1489233E-007  0.2258677E+04  0.7818608E-02  0.8494395E-01
          2   -1    0    0  501    0  0.00000000000E+00  0.00000000000E+00  0.75475298297E+03  0.75475298297E+03  0.00000000000E+00 0. -1.
         -2   -1    0    0    0  501 -0.00000000000E+00 -0.00000000000E+00 -0.16898321101E+04  0.16898321101E+04  0.00000000000E+00 0.  1.
         23    2    1    2    0    0  0.54227538120E+03 -0.74164240027E+03 -0.17689555985E+03  0.94009077409E+03  0.91556460637E+02 0.  0.
        254    2    1    2    0    0 -0.54227538120E+03  0.74164240027E+03 -0.75818356727E+03  0.15044943190E+04  0.91900206486E+03 0.  0.
        -24    2    4    4    0    0 -0.55137020589E+03  0.62988762710E+03 -0.94752765221E+03  0.12667249639E+04  0.77562592460E+02 0.  0.
         24    2    4    4    0    0  0.90948246909E+01  0.11175477317E+03  0.18934408494E+03  0.23776935508E+03  0.90062414741E+02 0.  0.
         13    1    3    3    0    0  0.40582204913E+03 -0.54393932169E+03 -0.17072030689E+03  0.69979064329E+03  0.00000000000E+00 0. -1.
        -13    1    3    3    0    0  0.13645333207E+03 -0.19770307858E+03 -0.61752529611E+01  0.24030013080E+03  0.00000000000E+00 0.  1.
          4    1    6    6  502    0  0.14575370967E+02  0.11028911244E+03  0.19817967344E+03  0.22726925160E+03  0.00000000000E+00 0. -1.
          3    1    5    5  503    0 -0.23126053658E+03  0.32130553656E+03 -0.46009372045E+03  0.60696368524E+03  0.00000000000E+00 0. -1.
         -4    1    5    5    0  503 -0.32010966931E+03  0.30858209055E+03 -0.48743393176E+03  0.65976127866E+03  0.00000000000E+00 0.  1.
         -3    1    6    6    0  502 -0.54805462757E+01  0.14656607312E+01 -0.88355884959E+01  0.10500103472E+02  0.00000000000E+00 0.  1.
<mgrwt>
<rscale>  0 0.22586773E+04</rscale>
<asrwt>0</asrwt>
<pdfrwt beam="1">  1        2 0.11611584E+00 0.22586773E+04</pdfrwt>
<pdfrwt beam="2">  1       -2 0.25997417E+00 0.22586773E+04</pdfrwt>
<totfact> 0.18881645E+00</totfact>
</mgrwt>
</event>
<event>
12    1  0.1786061E-007  0.1769534E+04  0.7818608E-02  0.8722671E-01
         -2   -1    0    0    0  501 -0.00000000000E+00  0.00000000000E+00  0.11216846955E+04  0.11216846955E+04  0.00000000000E+00 0. -1.
          2   -1    0    0  501    0  0.00000000000E+00 -0.00000000000E+00 -0.69789025656E+03  0.69789025656E+03  0.00000000000E+00 0.  1.
         23    2    1    2    0    0  0.41992586069E+03 -0.38648207159E+03  0.56649755557E+03  0.80939159204E+03  0.92136576120E+02 0.  0.
        254    2    1    2    0    0 -0.41992586069E+03  0.38648207159E+03 -0.14270311666E+03  0.10101833600E+04  0.82121868047E+03 0.  0.
        -24    2    4    4    0    0  0.22731957016E+03  0.17376728105E+03 -0.12973889876E+03  0.32435099131E+03  0.80635778459E+02 0.  0.
         24    2    4    4    0    0 -0.64724543086E+03  0.21271479054E+03 -0.12964217893E+02  0.68583236868E+03  0.77612738057E+02 0.  0.
         11    1    3    3    0    0  0.24297075360E+02 -0.45731602717E+02  0.82652993562E+02  0.97535863675E+02  0.00000000000E+00 0.  1.
        -11    1    3    3    0    0  0.39562878533E+03 -0.34075046887E+03  0.48384456201E+03  0.71185572836E+03  0.00000000000E+00 0. -1.
          2    1    6    6  502    0 -0.63451476504E+03  0.20827853863E+03 -0.24229962640E+02  0.66826344191E+03  0.00000000000E+00 0. -1.
          1    1    5    5  503    0  0.21180139666E+03  0.16592971574E+03 -0.14087254547E+03  0.30370639812E+03  0.00000000000E+00 0. -1.
         -2    1    5    5    0  503  0.15518173503E+02  0.78375653119E+01  0.11133646707E+02  0.20644593187E+02  0.00000000000E+00 0.  1.
         -1    1    6    6    0  502 -0.12730665818E+02  0.44362519048E+01  0.11265744747E+02  0.17568926770E+02  0.00000000000E+00 0.  1.
<mgrwt>
<rscale>  0 0.17695342E+04</rscale>
<asrwt>0</asrwt>
<pdfrwt beam="1">  1        2 0.10736773E+00 0.17695342E+04</pdfrwt>
<pdfrwt beam="2">  1       -2 0.17256688E+00 0.17695342E+04</pdfrwt>
<totfact> 0.79499116E+00</totfact>
</mgrwt>
</event>
<event>
12    1  0.1489233E-007  0.1587491E+04  0.7818608E-02  0.8828270E-01
          2   -1    0    0  501    0  0.00000000000E+00  0.00000000000E+00  0.15917983505E+04  0.15917983505E+04  0.00000000000E+00 0. -1.
         -2   -1    0    0    0  501 -0.00000000000E+00 -0.00000000000E+00 -0.39579869611E+03  0.39579869611E+03  0.00000000000E+00 0.  1.
         23    2    1    2    0    0  0.13719346327E+03  0.45212968229E+03  0.10620717460E+03  0.49266307758E+03  0.90518772070E+02 0.  0.
        254    2    1    2    0    0 -0.13719346327E+03 -0.45212968229E+03  0.10897924797E+04  0.14949339690E+04  0.90770954977E+03 0.  0.
        -24    2    4    4    0    0  0.35905919546E+03 -0.32747849412E+03  0.64244051438E+03  0.80948591358E+03  0.79824556415E+02 0.  0.
         24    2    4    4    0    0 -0.49625265873E+03 -0.12465118817E+03  0.44735196535E+03  0.68544805540E+03  0.88941754772E+02 0.  0.
         13    1    3    3    0    0  0.11116796876E+03  0.43042007184E+03  0.11161636800E+03  0.45834263289E+03  0.00000000000E+00 0. -1.
        -13    1    3    3    0    0  0.26025494503E+02  0.21709610457E+02 -0.54091933981E+01  0.34320444687E+02  0.00000000000E+00 0.  1.
          4    1    6    6  502    0 -0.63293992226E+02 -0.14677930836E+01  0.93299196622E+02  0.11275204636E+03  0.00000000000E+00 0. -1.
          3    1    5    5  503    0  0.58713588331E+01 -0.15158523189E+02  0.57649997782E+01  0.17247866600E+02  0.00000000000E+00 0. -1.
         -4    1    5    5    0  503  0.35318783663E+03 -0.31231997093E+03  0.63667551461E+03  0.79223804698E+03  0.00000000000E+00 0.  1.
         -3    1    6    6    0  502 -0.43295866650E+03 -0.12318339509E+03  0.35405276873E+03  0.57269600904E+03  0.00000000000E+00 0.  1.
<mgrwt>
<rscale>  0 0.15874907E+04</rscale>
<asrwt>0</asrwt>
<pdfrwt beam="1">  1        2 0.24489205E+00 0.15874907E+04</pdfrwt>
<pdfrwt beam="2">  1       -2 0.60892108E-01 0.15874907E+04</pdfrwt>
<totfact> 0.27151149E+01</totfact>
</mgrwt>
</event>
<event>
12    1  0.1489233E-007  0.1727612E+04  0.7818608E-02  0.8745771E-01
          2   -1    0    0  501    0  0.00000000000E+00  0.00000000000E+00  0.23413197149E+04  0.23413197149E+04  0.00000000000E+00 0. -1.
         -2   -1    0    0    0  501 -0.00000000000E+00 -0.00000000000E+00 -0.31869223334E+03  0.31869223334E+03  0.00000000000E+00 0.  1.
         23    2    1    2    0    0 -0.46942767601E+03 -0.42411483486E+03  0.94728397272E+03  0.11432561988E+04  0.97221782592E+02 0.  0.
        254    2    1    2    0    0  0.46942767601E+03  0.42411483486E+03  0.10753435088E+04  0.15167557494E+04  0.86252455340E+03 0.  0.
        -24    2    4    4    0    0  0.26894494720E+03  0.66152169404E+03  0.89900132080E+03  0.11508702567E+04  0.79728518197E+02 0.  0.
         24    2    4    4    0    0  0.20048272882E+03 -0.23740685918E+03  0.17634218799E+03  0.36588549270E+03  0.78868784424E+02 0.  0.
         13    1    3    3    0    0 -0.46743393842E+03 -0.42878095853E+03  0.93392203322E+03  0.11289632241E+04  0.00000000000E+00 0. -1.
        -13    1    3    3    0    0 -0.19937375981E+01  0.46661236755E+01  0.13361939502E+02  0.14292974743E+02  0.00000000000E+00 0.  1.
          2    1    6    6  502    0  0.15334358122E+03 -0.14823827002E+03  0.84292020799E+02  0.22933378157E+03  0.00000000000E+00 0. -1.
          3    1    5    5  503    0  0.11583688026E+03  0.33160566287E+03  0.49904053643E+03  0.61026384087E+03  0.00000000000E+00 0. -1.
         -4    1    5    5    0  503  0.15310806693E+03  0.32991603118E+03  0.39996078437E+03  0.54060641582E+03  0.00000000000E+00 0.  1.
         -1    1    6    6    0  502  0.47139147595E+02 -0.89168589167E+02  0.92050167195E+02  0.13655171112E+03  0.00000000000E+00 0.  1.
<mgrwt>
<rscale>  0 0.17276115E+04</rscale>
<asrwt>0</asrwt>
<pdfrwt beam="1">  1        2 0.36020302E+00 0.17276115E+04</pdfrwt>
<pdfrwt beam="2">  1       -2 0.49029576E-01 0.17276115E+04</pdfrwt>
<totfact> 0.16074922E+01</totfact>
</mgrwt>
</event>
<event>
12    1  0.1489233E-007  0.2385158E+04  0.7818608E-02  0.8445081E-01
          2   -1    0    0  501    0  0.00000000000E+00  0.00000000000E+00  0.17473452320E+04  0.17473452320E+04  0.00000000000E+00 0.  1.
         -2   -1    0    0    0  501 -0.00000000000E+00 -0.00000000000E+00 -0.81394612586E+03  0.81394612586E+03  0.00000000000E+00 0. -1.
         23    2    1    2    0    0 -0.81680833991E+03 -0.46991846824E+03 -0.14466820474E+02  0.94683486580E+03  0.91037043409E+02 0.  0.
        254    2    1    2    0    0  0.81680833991E+03  0.46991846824E+03  0.94786592665E+03  0.16144564921E+04  0.90554995393E+03 0.  0.
        -24    2    4    4    0    0  0.56519411990E+03  0.56923171334E+03  0.22217492260E+03  0.83595064786E+03  0.77347610031E+02 0.  0.
         24    2    4    4    0    0  0.25161422001E+03 -0.99313245103E+02  0.72569100405E+03  0.77850584425E+03  0.79190149642E+02 0.  0.
         11    1    3    3    0    0 -0.27491977918E+02 -0.37274950631E+02  0.44041871346E+01  0.46525559198E+02  0.00000000000E+00 0.  1.
        -11    1    3    3    0    0 -0.78931636199E+03 -0.43264351761E+03 -0.18871007608E+02  0.90030930660E+03  0.00000000000E+00 0. -1.
          2    1    6    6  502    0  0.25380276708E+02 -0.30169919172E+02  0.17081860680E+03  0.17530938052E+03  0.00000000000E+00 0. -1.
          3    1    5    5  503    0  0.12575392935E+03  0.16091137986E+03  0.81016948482E+02  0.21970495865E+03  0.00000000000E+00 0. -1.
         -4    1    5    5    0  503  0.43944019056E+03  0.40832033348E+03  0.14115797412E+03  0.61624568921E+03  0.00000000000E+00 0.  1.
         -1    1    6    6    0  502  0.22623394330E+03 -0.69143325931E+02  0.55487239726E+03  0.60319646373E+03  0.00000000000E+00 0.  1.
<mgrwt>
<rscale>  0 0.23851582E+04</rscale>
<asrwt>0</asrwt>
<pdfrwt beam="1">  1        2 0.26882234E+00 0.23851582E+04</pdfrwt>
<pdfrwt beam="2">  1       -2 0.12522248E+00 0.23851582E+04</pdfrwt>
<totfact> 0.39671331E+00</totfact>
</mgrwt>
</event>
<event>
12    1  0.1489233E-007  0.1932433E+04  0.7818608E-02  0.8638879E-01
          2   -1    0    0  501    0  0.00000000000E+00  0.00000000000E+00  0.24694389200E+04  0.24694389200E+04  0.00000000000E+00 0. -1.
         -2   -1    0    0    0  501 -0.00000000000E+00 -0.00000000000E+00 -0.37805122133E+03  0.37805122133E+03  0.00000000000E+00 0.  1.
         23    2    1    2    0    0 -0.12321952285E+03  0.51000879283E+03  0.24649791243E+02  0.53310300061E+03  0.91099821489E+02 0.  0.
        254    2    1    2    0    0  0.12321952285E+03 -0.51000879283E+03  0.20667379075E+04  0.23143871408E+04  0.89982789445E+03 0.  0.
        -24    2    4    4    0    0  0.32068761490E+03 -0.34405898248E+03  0.38974752403E+03  0.61574309348E+03  0.77584115050E+02 0.  0.
         24    2    4    4    0    0 -0.19746809205E+03 -0.16594981035E+03  0.16769903834E+04  0.16986440473E+04  0.81005347500E+02 0.  0.
         13    1    3    3    0    0 -0.31373962225E+02  0.27226904525E+03  0.43678307087E+02  0.27752937325E+03  0.00000000000E+00 0. -1.
        -13    1    3    3    0    0 -0.91845560629E+02  0.23773974758E+03 -0.19028515844E+02  0.25557362736E+03  0.00000000000E+00 0.  1.
          4    1    6    6  502    0 -0.19928810514E+03 -0.14224339674E+03  0.15750814645E+04  0.15939982913E+04  0.00000000000E+00 0. -1.
          3    1    5    5  503    0  0.30510840477E+03 -0.34561663102E+03  0.37610758871E+03  0.59497807740E+03  0.00000000000E+00 0. -1.
         -4    1    5    5    0  503  0.15579210127E+02  0.15576485482E+01  0.13639935323E+02  0.20765016080E+02  0.00000000000E+00 0.  1.
         -3    1    6    6    0  502  0.18200130916E+01 -0.23706413610E+02  0.10190891896E+03  0.10464575604E+03  0.00000000000E+00 0.  1.
<mgrwt>
<rscale>  0 0.19324331E+04</rscale>
<asrwt>0</asrwt>
<pdfrwt beam="1">  1        2 0.37991367E+00 0.19324331E+04</pdfrwt>
<pdfrwt beam="2">  1       -2 0.58161728E-01 0.19324331E+04</pdfrwt>
<totfact> 0.93738392E+00</totfact>
</mgrwt>
</event>
<event>
12    1  0.1489233E-007  0.2293893E+04  0.7818608E-02  0.8480333E-01
         -1   -1    0    0    0  501 -0.00000000000E+00  0.00000000000E+00  0.17719824220E+04  0.17719824220E+04  0.00000000000E+00 0.  1.
          1   -1    0    0  501    0  0.00000000000E+00 -0.00000000000E+00 -0.74238117753E+03  0.74238117753E+03  0.00000000000E+00 0. -1.
         23    2    1    2    0    0  0.36118754723E+03  0.71938556917E+03 -0.15045877670E+03  0.82382706237E+03  0.89895182311E+02 0.  0.
        254    2    1    2    0    0 -0.36118754723E+03 -0.71938556917E+03  0.11800600212E+04  0.16905365372E+04  0.90410181314E+03 0.  0.
        -24    2    4    4    0    0 -0.64120100867E+03 -0.51764003198E+03  0.98321433223E+03  0.12853587978E+04  0.79667307219E+02 0.  0.
         24    2    4    4    0    0  0.28001346144E+03 -0.20174553719E+03  0.19684568892E+03  0.40517773932E+03  0.79447937844E+02 0.  0.
         13    1    3    3    0    0  0.89962325355E+02  0.27108190001E+03 -0.65261546856E+02  0.29298069219E+03  0.00000000000E+00 0.  1.
        -13    1    3    3    0    0  0.27122522187E+03  0.44830366916E+03 -0.85197229841E+02  0.53084637018E+03  0.00000000000E+00 0. -1.
          4    1    6    6  502    0  0.91097068823E+02 -0.56772324736E+02  0.10438360743E+03  0.14972544976E+03  0.00000000000E+00 0. -1.
          3    1    5    5  503    0 -0.32557353152E+03 -0.23650516108E+03  0.42659669607E+03  0.58644484544E+03  0.00000000000E+00 0. -1.
         -4    1    5    5    0  503 -0.31562747715E+03 -0.28113487090E+03  0.55661763616E+03  0.69891395239E+03  0.00000000000E+00 0.  1.
         -3    1    6    6    0  502  0.18891639262E+03 -0.14497321246E+03  0.92462081489E+02  0.25545228956E+03  0.00000000000E+00 0.  1.
<mgrwt>
<rscale>  0 0.22938931E+04</rscale>
<asrwt>0</asrwt>
<pdfrwt beam="1">  1        1 0.11421249E+00 0.22938931E+04</pdfrwt>
<pdfrwt beam="2">  1       -1 0.27261268E+00 0.22938931E+04</pdfrwt>
<totfact> 0.11184195E+00</totfact>
</mgrwt>
</event>
<event>
12    1  0.1489233E-007  0.2502624E+04  0.7818608E-02  0.8402051E-01
          1   -1    0    0  501    0  0.00000000000E+00  0.00000000000E+00  0.12672128421E+04  0.12672128421E+04  0.00000000000E+00 0.  1.
         -1   -1    0    0    0  501 -0.00000000000E+00 -0.00000000000E+00 -0.12356103441E+04  0.12356103441E+04  0.00000000000E+00 0. -1.
         23    2    1    2    0    0  0.84724736922E+02 -0.18045350105E+03 -0.10554320469E+04  0.10781188839E+04  0.93068659047E+02 0.  0.
        254    2    1    2    0    0 -0.84724736922E+02  0.18045350105E+03  0.10870345449E+04  0.14247043022E+04  0.89910872526E+03 0.  0.
        -24    2    4    4    0    0  0.29287502481E+03  0.35831659581E+03  0.39836628318E+03  0.61566485188E+03  0.78619026184E+02 0.  0.
         24    2    4    4    0    0 -0.37759976173E+03 -0.17786309476E+03  0.68866826177E+03  0.80903945037E+03  0.77871669732E+02 0.  0.
         11    1    3    3    0    0  0.28006553368E+02 -0.87459080276E+02 -0.27046958519E+03  0.28563482678E+03  0.00000000000E+00 0.  1.
        -11    1    3    3    0    0  0.56718183555E+02 -0.92994420779E+02 -0.78496246167E+03  0.79248405717E+03  0.00000000000E+00 0. -1.
          4    1    6    6  502    0 -0.11163149010E+03 -0.24267962036E+02  0.23340911963E+03  0.25986600526E+03  0.00000000000E+00 0. -1.
          1    1    5    5  503    0  0.58920170024E+02  0.35921475493E+02  0.80615943818E+02  0.10611724287E+03  0.00000000000E+00 0. -1.
         -2    1    5    5    0  503  0.23395485478E+03  0.32239512032E+03  0.31775033936E+03  0.50954760901E+03  0.00000000000E+00 0.  1.
         -3    1    6    6    0  502 -0.26596827163E+03 -0.15359513272E+03  0.45525914214E+03  0.54917344511E+03  0.00000000000E+00 0.  1.
<mgrwt>
<rscale>  0 0.25026237E+04</rscale>
<asrwt>0</asrwt>
<pdfrwt beam="1">  1        1 0.19495582E+00 0.25026237E+04</pdfrwt>
<pdfrwt beam="2">  1       -1 0.19009390E+00 0.25026237E+04</pdfrwt>
<totfact> 0.14965492E+00</totfact>
</mgrwt>
</event>
<event>
12    1  0.1489233E-007  0.1751595E+04  0.7818608E-02  0.8732473E-01
         -2   -1    0    0    0  501 -0.00000000000E+00  0.00000000000E+00  0.20769904370E+04  0.20769904370E+04  0.00000000000E+00 0.  1.
          2   -1    0    0  501    0  0.00000000000E+00 -0.00000000000E+00 -0.36929441380E+03  0.36929441380E+03  0.00000000000E+00 0. -1.
         23    2    1    2    0    0  0.78701093727E+02 -0.64063426805E+03  0.63440553162E+03  0.90958574138E+03  0.90937972367E+02 0.  0.
        254    2    1    2    0    0 -0.78701093727E+02  0.64063426805E+03  0.10732904916E+04  0.15366991094E+04  0.89044120862E+03 0.  0.
        -24    2    4    4    0    0  0.24958697432E+03  0.66074472589E+03  0.49472951807E+03  0.86591616476E+03  0.78589170982E+02 0.  0.
         24    2    4    4    0    0 -0.32828806804E+03 -0.20110457839E+02  0.57856097348E+03  0.67078294464E+03  0.83901565260E+02 0.  0.
         11    1    3    3    0    0  0.98174855246E+02 -0.48582664724E+03  0.47409560564E+03  0.68588080353E+03  0.00000000000E+00 0.  1.
        -11    1    3    3    0    0 -0.19473761519E+02 -0.15480762082E+03  0.16030992598E+03  0.22370493785E+03  0.00000000000E+00 0. -1.
          4    1    6    6  502    0 -0.49947032878E+02 -0.34382526329E+02  0.97487672235E+02  0.11480727524E+03  0.00000000000E+00 0. -1.
          3    1    5    5  503    0  0.87286509610E+02  0.15670609722E+03  0.99213194998E+02  0.20498535003E+03  0.00000000000E+00 0. -1.
         -4    1    5    5    0  503  0.16230046471E+03  0.50403862867E+03  0.39551632308E+03  0.66093081473E+03  0.00000000000E+00 0.  1.
         -3    1    6    6    0  502 -0.27834103516E+03  0.14272068490E+02  0.48107330124E+03  0.55597566940E+03  0.00000000000E+00 0.  1.
<mgrwt>
<rscale>  0 0.17515947E+04</rscale>
<asrwt>0</asrwt>
<pdfrwt beam="1">  1        2 0.56814527E-01 0.17515947E+04</pdfrwt>
<pdfrwt beam="2">  1       -2 0.31953698E+00 0.17515947E+04</pdfrwt>
<totfact> 0.19930610E+00</totfact>
</mgrwt>
</event>
<event>
12    1  0.1489233E-007  0.1215003E+04  0.7818608E-02  0.9099825E-01
         -1   -1    0    0    0  501 -0.00000000000E+00  0.00000000000E+00  0.51112959547E+03  0.51112959547E+03  0.00000000000E+00 0.  1.
          1   -1    0    0  501    0  0.00000000000E+00 -0.00000000000E+00 -0.72204347824E+03  0.72204347824E+03  0.00000000000E+00 0. -1.
         23    2    1    2    0    0 -0.19935113477E+03 -0.12128762059E+03 -0.15185099323E+03  0.29325947526E+03  0.92145720685E+02 0.  0.
        254    2    1    2    0    0  0.19935113477E+03  0.12128762059E+03 -0.59062889535E+02  0.93991359845E+03  0.90856897690E+03 0.  0.
        -24    2    4    4    0    0  0.93747628649E+02 -0.26495029924E+02 -0.46827271851E+03  0.48668896356E+03  0.89978907842E+02 0.  0.
         24    2    4    4    0    0  0.10560350612E+03  0.14778265052E+03  0.40920982898E+03  0.45322463490E+03  0.70484560341E+02 0.  0.
         13    1    3    3    0    0 -0.12168283257E+03 -0.10903690204E+03 -0.13703517101E+03  0.21324726456E+03  0.00000000000E+00 0. -1.
        -13    1    3    3    0    0 -0.77668302206E+02 -0.12250718547E+02 -0.14815822214E+02  0.80012210695E+02  0.00000000000E+00 0.  1.
          2    1    6    6  502    0  0.56625397402E+02  0.98004683628E+02  0.17161579224E+03  0.20558048008E+03  0.00000000000E+00 0. -1.
          1    1    5    5  503    0 -0.24303297319E+01 -0.88439673804E+01 -0.92197056731E+00  0.92180416228E+01  0.00000000000E+00 0. -1.
         -2    1    5    5    0  503  0.96177958381E+02 -0.17651062544E+02 -0.46735074794E+03  0.47747092193E+03  0.00000000000E+00 0.  1.
         -1    1    6    6    0  502  0.48978108722E+02  0.49777966887E+02  0.23759403674E+03  0.24764415482E+03  0.00000000000E+00 0.  1.
<mgrwt>
<rscale>  0 0.12150025E+04</rscale>
<asrwt>0</asrwt>
<pdfrwt beam="1">  1        1 0.11108361E+00 0.12150025E+04</pdfrwt>
<pdfrwt beam="2">  1       -1 0.78635322E-01 0.12150025E+04</pdfrwt>
<totfact> 0.41580200E+01</totfact>
</mgrwt>
</event>
<event>
12    1  0.1491464E-007  0.2246668E+04  0.7818608E-02  0.8499251E-01
         -1   -1    0    0    0  501 -0.00000000000E+00  0.00000000000E+00  0.41710356799E+03  0.41710356799E+03  0.00000000000E+00 0.  1.
          1   -1    0    0  501    0  0.00000000000E+00 -0.00000000000E+00 -0.30253387162E+04  0.30253387162E+04  0.00000000000E+00 0. -1.
         23    2    1    2    0    0 -0.42930720679E+02 -0.93371717452E+03 -0.99559541662E+03  0.13686595916E+04  0.91367583746E+02 0.  0.
        254    2    1    2    0    0  0.42930720679E+02  0.93371717452E+03 -0.16126397316E+04  0.20737826926E+04  0.90900876965E+03 0.  0.
        -24    2    4    4    0    0 -0.21508818255E+02  0.63211980767E+03 -0.26695228213E+03  0.69092685833E+03  0.77963594808E+02 0.  0.
         24    2    4    4    0    0  0.64439538934E+02  0.30159736685E+03 -0.13456874495E+04  0.13828558342E+04  0.79385897751E+02 0.  0.
         13    1    3    3    0    0 -0.42740692619E+02 -0.90802394464E+03 -0.98635657913E+03  0.13413551178E+04  0.00000000000E+00 0.  1.
        -13    1    3    3    0    0 -0.19002806000E+00 -0.25693229886E+02 -0.92388374871E+01  0.27304473823E+02  0.00000000000E+00 0. -1.
          4    1    6    6  502    0  0.35761721692E+01  0.62210218387E+02 -0.15983398131E+03  0.17155116397E+03  0.00000000000E+00 0. -1.
          3    1    5    5  503    0 -0.23495121394E+01  0.23857975516E+02 -0.28680492277E+02  0.37380393795E+02  0.00000000000E+00 0. -1.
         -4    1    5    5    0  503 -0.19159306116E+02  0.60826183216E+03 -0.23827178986E+03  0.65354646454E+03  0.00000000000E+00 0.  1.
         -3    1    6    6    0  502  0.60863366765E+02  0.23938714846E+03 -0.11858534682E+04  0.12113046703E+04  0.00000000000E+00 0.  1.
<mgrwt>
<rscale>  0 0.22466683E+04</rscale>
<asrwt>0</asrwt>
<pdfrwt beam="1">  1        1 0.46543674E+00 0.22466683E+04</pdfrwt>
<pdfrwt beam="2">  1       -1 0.64169778E-01 0.22466683E+04</pdfrwt>
<totfact> 0.12818736E+00</totfact>
</mgrwt>
</event>
<event>
12    1  0.1489233E-007  0.1660335E+04  0.7818608E-02  0.8784316E-01
         -2   -1    0    0    0  501 -0.00000000000E+00  0.00000000000E+00  0.69414532035E+03  0.69414532035E+03  0.00000000000E+00 0.  1.
          2   -1    0    0  501    0  0.00000000000E+00 -0.00000000000E+00 -0.99284386828E+03  0.99284386828E+03  0.00000000000E+00 0. -1.
         23    2    1    2    0    0 -0.15238463935E+03  0.46341854592E+03  0.21611038476E+03  0.54170152156E+03  0.93589599035E+02 0.  0.
        254    2    1    2    0    0  0.15238463935E+03 -0.46341854592E+03 -0.51480893269E+03  0.11452876671E+04  0.89926513119E+03 0.  0.
        -24    2    4    4    0    0 -0.22776572859E+03 -0.12117150770E+02 -0.49360469994E+03  0.54964461816E+03  0.80246831781E+02 0.  0.
         24    2    4    4    0    0  0.38015036794E+03 -0.45130139515E+03 -0.21204232747E+02  0.59564304891E+03  0.78445973288E+02 0.  0.
         11    1    3    3    0    0  0.83408510559E+01  0.80364652515E+02  0.26160651663E+02  0.84926008181E+02  0.00000000000E+00 0. -1.
        -11    1    3    3    0    0 -0.16072549041E+03  0.38305389340E+03  0.18994973310E+03  0.45677551338E+03  0.00000000000E+00 0.  1.
          4    1    6    6  502    0  0.53001942655E+02 -0.58478458132E+02 -0.29795497340E+02  0.84360581153E+02  0.00000000000E+00 0. -1.
          3    1    5    5  503    0 -0.68092528647E+02  0.29603255276E+02 -0.11849541597E+03  0.13983600676E+03  0.00000000000E+00 0. -1.
         -4    1    5    5    0  503 -0.15967319994E+03 -0.41720406046E+02 -0.37510928397E+03  0.40980861141E+03  0.00000000000E+00 0.  1.
         -3    1    6    6    0  502  0.32714842529E+03 -0.39282293701E+03  0.85912645923E+01  0.51128246776E+03  0.00000000000E+00 0.  1.
<mgrwt>
<rscale>  0 0.16603348E+04</rscale>
<asrwt>0</asrwt>
<pdfrwt beam="1">  1        2 0.15274521E+00 0.16603348E+04</pdfrwt>
<pdfrwt beam="2">  1       -2 0.10679159E+00 0.16603348E+04</pdfrwt>
<totfact> 0.17151688E+01</totfact>
</mgrwt>
</event>
<event>
12    1  0.1489233E-007  0.1420438E+04  0.7818608E-02  0.8939156E-01
          2   -1    0    0  501    0  0.00000000000E+00  0.00000000000E+00  0.69831099608E+03  0.69831099608E+03  0.00000000000E+00 0. -1.
         -2   -1    0    0    0  501 -0.00000000000E+00 -0.00000000000E+00 -0.72232983990E+03  0.72232983990E+03  0.00000000000E+00 0.  1.
         23    2    1    2    0    0  0.32741036142E+03  0.24863707336E+03  0.95340845225E+02  0.43216758349E+03  0.93064517600E+02 0.  0.
        254    2    1    2    0    0 -0.32741036142E+03 -0.24863707336E+03 -0.11935968905E+03  0.98847325249E+03  0.89096279187E+03 0.  0.
        -24    2    4    4    0    0 -0.20289828407E+03  0.18217810161E+03  0.26719218593E+03  0.39059678502E+03  0.82568818908E+02 0.  0.
         24    2    4    4    0    0 -0.12451207735E+03 -0.43081517497E+03 -0.38655187498E+03  0.59787646747E+03  0.83240290209E+02 0.  0.
         11    1    3    3    0    0  0.17061478842E+03  0.88631467580E+02  0.10275379545E+02  0.19253707825E+03  0.00000000000E+00 0.  1.
        -11    1    3    3    0    0  0.15679557300E+03  0.16000560578E+03  0.85065465680E+02  0.23963050525E+03  0.00000000000E+00 0. -1.
          4    1    6    6  502    0 -0.96480580809E+02 -0.22558591497E+03 -0.17188166059E+03  0.29956770979E+03  0.00000000000E+00 0. -1.
          1    1    5    5  503    0 -0.60656261890E+02  0.84727149144E+02  0.57136450875E+02  0.11883789769E+03  0.00000000000E+00 0. -1.
         -2    1    5    5    0  503 -0.14224202218E+03  0.97450952469E+02  0.21005573506E+03  0.27175888733E+03  0.00000000000E+00 0.  1.
         -3    1    6    6    0  502 -0.28031496541E+02 -0.20522926001E+03 -0.21467021439E+03  0.29830875768E+03  0.00000000000E+00 0.  1.
<mgrwt>
<rscale>  0 0.14204378E+04</rscale>
<asrwt>0</asrwt>
<pdfrwt beam="1">  1        2 0.10743246E+00 0.14204378E+04</pdfrwt>
<pdfrwt beam="2">  1       -2 0.11112767E+00 0.14204378E+04</pdfrwt>
<totfact> 0.25602712E+01</totfact>
</mgrwt>
</event>
<event>
12    1  0.1489233E-007  0.1588869E+04  0.7818608E-02  0.8827416E-01
          1   -1    0    0  501    0  0.00000000000E+00  0.00000000000E+00  0.90422664765E+03  0.90422664765E+03  0.00000000000E+00 0. -1.
         -1   -1    0    0    0  501 -0.00000000000E+00 -0.00000000000E+00 -0.69797314177E+03  0.69797314177E+03  0.00000000000E+00 0.  1.
         23    2    1    2    0    0  0.44424231188E+03  0.22213337464E+03 -0.16558851849E+03  0.53146216973E+03  0.91312718775E+02 0.  0.
        254    2    1    2    0    0 -0.44424231188E+03 -0.22213337464E+03  0.37184202437E+03  0.10707376197E+04  0.87265003944E+03 0.  0.
        -24    2    4    4    0    0 -0.57041223980E+00  0.20566195844E+03  0.39107163795E+03  0.44885593285E+03  0.78977565953E+02 0.  0.
         24    2    4    4    0    0 -0.44367189964E+03 -0.42779533308E+03 -0.19229613581E+02  0.62188168684E+03  0.80705965385E+02 0.  0.
         13    1    3    3    0    0  0.36593551450E+03  0.21899393451E+03 -0.13471861794E+03  0.44723176335E+03  0.00000000000E+00 0.  1.
        -13    1    3    3    0    0  0.78306797378E+02  0.31394401225E+01 -0.30869900547E+02  0.84230406385E+02  0.00000000000E+00 0. -1.
          4    1    6    6  502    0 -0.19236000836E+03 -0.20971857245E+03 -0.45141623773E+02  0.28813541720E+03  0.00000000000E+00 0. -1.
          1    1    5    5  503    0  0.15336452178E+02  0.15842608292E+03  0.34918538450E+03  0.38375052217E+03  0.00000000000E+00 0. -1.
         -4    1    5    5    0  503 -0.15906864418E+02  0.47235875522E+02  0.41886253450E+02  0.65105410681E+02  0.00000000000E+00 0.  1.
         -3    1    6    6    0  502 -0.25131189128E+03 -0.21807676063E+03  0.25912010192E+02  0.33374626964E+03  0.00000000000E+00 0.  1.
<mgrwt>
<rscale>  0 0.15888687E+04</rscale>
<asrwt>0</asrwt>
<pdfrwt beam="1">  1        1 0.13911179E+00 0.15888687E+04</pdfrwt>
<pdfrwt beam="2">  1       -1 0.10738048E+00 0.15888687E+04</pdfrwt>
<totfact> 0.14009339E+01</totfact>
</mgrwt>
</event>
<event>
12    1  0.1489233E-007  0.1430788E+04  0.7818608E-02  0.8931830E-01
         -1   -1    0    0    0  501 -0.00000000000E+00  0.00000000000E+00  0.52860229990E+03  0.52860229990E+03  0.00000000000E+00 0.  1.
          1   -1    0    0  501    0  0.00000000000E+00 -0.00000000000E+00 -0.96819157908E+03  0.96819157908E+03  0.00000000000E+00 0. -1.
         23    2    1    2    0    0 -0.32696872637E+02 -0.40728161306E+03 -0.59720954826E+02  0.42221251580E+03  0.88030780016E+02 0.  0.
        254    2    1    2    0    0  0.32696872637E+02  0.40728161306E+03 -0.37986832435E+03  0.10745813632E+04  0.91841045532E+03 0.  0.
        -24    2    4    4    0    0 -0.16200978399E+03 -0.93915865997E+01  0.23844459310E+03  0.29990019273E+03  0.82151869199E+02 0.  0.
         24    2    4    4    0    0  0.19470665663E+03  0.41667319966E+03 -0.61831291745E+03  0.77468117045E+03  0.79327262146E+02 0.  0.
         13    1    3    3    0    0 -0.32760700417E+00 -0.58847201929E+02  0.22062762052E+02  0.62847959160E+02  0.00000000000E+00 0. -1.
        -13    1    3    3    0    0 -0.32369265633E+02 -0.34843441113E+03 -0.81783716878E+02  0.35936455664E+03  0.00000000000E+00 0.  1.
          4    1    6    6  502    0  0.12402819057E+03  0.33142859635E+03 -0.50083576093E+03  0.61324087108E+03  0.00000000000E+00 0. -1.
          3    1    5    5  503    0 -0.93119006597E+01 -0.42847122293E+01  0.76787971896E+02  0.77469109203E+02  0.00000000000E+00 0. -1.
         -4    1    5    5    0  503 -0.15269788333E+03 -0.51068743704E+01  0.16165662120E+03  0.22243108353E+03  0.00000000000E+00 0.  1.
         -3    1    6    6    0  502  0.70678466063E+02  0.85244603314E+02 -0.11747715651E+03  0.16144029937E+03  0.00000000000E+00 0.  1.
<mgrwt>
<rscale>  0 0.14307876E+04</rscale>
<asrwt>0</asrwt>
<pdfrwt beam="1">  1        1 0.14895255E+00 0.14307876E+04</pdfrwt>
<pdfrwt beam="2">  1       -1 0.81323431E-01 0.14307876E+04</pdfrwt>
<totfact> 0.23491003E+01</totfact>
</mgrwt>
</event>
<event>
12    1  0.1489233E-007  0.2021996E+04  0.7818608E-02  0.8596405E-01
          2   -1    0    0  501    0  0.00000000000E+00  0.00000000000E+00  0.15979624931E+04  0.15979624931E+04  0.00000000000E+00 0. -1.
         -2   -1    0    0    0  501 -0.00000000000E+00 -0.00000000000E+00 -0.63963779842E+03  0.63963779842E+03  0.00000000000E+00 0.  1.
         23    2    1    2    0    0 -0.28356890838E+03 -0.43420963610E+02 -0.47747046105E+03  0.56439837783E+03  0.90943838937E+02 0.  0.
        254    2    1    2    0    0  0.28356890838E+03  0.43420963610E+02  0.14357951558E+04  0.16732019137E+04  0.80981492261E+03 0.  0.
        -24    2    4    4    0    0  0.13730874067E+03  0.40923201861E+03  0.91990012503E+03  0.10192721470E+04  0.79843185111E+02 0.  0.
         24    2    4    4    0    0  0.14626016771E+03 -0.36581105500E+03  0.51589503074E+03  0.65392976678E+03  0.79162443853E+02 0.  0.
         13    1    3    3    0    0 -0.13745929156E+03 -0.47097225272E+02 -0.16779168733E+03  0.22196228464E+03  0.00000000000E+00 0.  1.
        -13    1    3    3    0    0 -0.14610961682E+03  0.36762616620E+01 -0.30967877373E+03  0.34243609320E+03  0.00000000000E+00 0. -1.
          4    1    6    6  502    0  0.79814214145E+02 -0.10350548707E+03  0.15230002709E+03  0.20069627023E+03  0.00000000000E+00 0. -1.
          3    1    5    5  503    0  0.78748499748E+01  0.94442845567E+01  0.71010623186E+02  0.72067443261E+02  0.00000000000E+00 0. -1.
         -4    1    5    5    0  503  0.12943389070E+03  0.39978773405E+03  0.84888950184E+03  0.94720470369E+03  0.00000000000E+00 0.  1.
         -3    1    6    6    0  502  0.66445953565E+02 -0.26230556792E+03  0.36359500366E+03  0.45323349655E+03  0.00000000000E+00 0.  1.
<mgrwt>
<rscale>  0 0.20219963E+04</rscale>
<asrwt>0</asrwt>
<pdfrwt beam="1">  1        2 0.24584038E+00 0.20219963E+04</pdfrwt>
<pdfrwt beam="2">  1       -2 0.98405816E-01 0.20219963E+04</pdfrwt>
<totfact> 0.88976965E+00</totfact>
</mgrwt>
</event>
<event>
12    1  0.1489233E-007  0.1847098E+04  0.7818608E-02  0.8681647E-01
          2   -1    0    0  501    0  0.00000000000E+00  0.00000000000E+00  0.62945656790E+03  0.62945656790E+03  0.00000000000E+00 0. -1.
         -2   -1    0    0    0  501 -0.00000000000E+00 -0.00000000000E+00 -0.13550461371E+04  0.13550461371E+04  0.00000000000E+00 0.  1.
         23    2    1    2    0    0 -0.11787315186E+03  0.11579436357E+03  0.45076338864E+03  0.48875621727E+03  0.91611095502E+02 0.  0.
        254    2    1    2    0    0  0.11787315186E+03 -0.11579436357E+03 -0.11763529579E+04  0.14957464877E+04  0.90892731259E+03 0.  0.
        -24    2    4    4    0    0 -0.20597818193E+03 -0.13699690340E+03  0.13395772821E+02  0.26025809225E+03  0.79747507056E+02 0.  0.
         24    2    4    4    0    0  0.32385133379E+03  0.21202539830E+02 -0.11897487307E+04  0.12354883955E+04  0.74835146469E+02 0.  0.
         13    1    3    3    0    0 -0.88177378649E+02  0.10937575577E+03  0.25946211374E+03  0.29505744275E+03  0.00000000000E+00 0.  1.
        -13    1    3    3    0    0 -0.29695773214E+02  0.64186078014E+01  0.19130127490E+03  0.19369877452E+03  0.00000000000E+00 0. -1.
          4    1    6    6  502    0  0.80825563102E+02 -0.22189057798E+02 -0.36994757956E+03  0.37932352624E+03  0.00000000000E+00 0. -1.
          3    1    5    5  503    0  0.10665307514E+01 -0.54529438679E+01 -0.12418762763E+02  0.13605063515E+02  0.00000000000E+00 0. -1.
         -4    1    5    5    0  503 -0.20704471268E+03 -0.13154395954E+03  0.25814535584E+02  0.24665302874E+03  0.00000000000E+00 0.  1.
         -3    1    6    6    0  502  0.24302577069E+03  0.43391597629E+02 -0.81980115112E+03  0.85616486925E+03  0.00000000000E+00 0.  1.
<mgrwt>
<rscale>  0 0.18470979E+04</rscale>
<asrwt>0</asrwt>
<pdfrwt beam="1">  1        2 0.96839473E-01 0.18470979E+04</pdfrwt>
<pdfrwt beam="2">  1       -2 0.20846863E+00 0.18470979E+04</pdfrwt>
<totfact> 0.51500817E+00</totfact>
</mgrwt>
</event>
<event>
12    1  0.1489233E-007  0.2788875E+04  0.7818608E-02  0.8306731E-01
          2   -1    0    0  501    0  0.00000000000E+00  0.00000000000E+00  0.31793938250E+04  0.31793938250E+04  0.00000000000E+00 0. -1.
         -2   -1    0    0    0  501 -0.00000000000E+00 -0.00000000000E+00 -0.61158063400E+03  0.61158063400E+03  0.00000000000E+00 0.  1.
         23    2    1    2    0    0  0.69727147090E+03  0.23045376793E+03  0.25276106784E+04  0.26336849507E+04  0.90466760116E+02 0.  0.
        254    2    1    2    0    0 -0.69727147090E+03 -0.23045376793E+03  0.40202512554E+02  0.11572895083E+04  0.89353585302E+03 0.  0.
        -24    2    4    4    0    0 -0.13716419753E+03  0.15772015884E+03  0.33995335270E+03  0.40862039574E+03  0.87821866374E+02 0.  0.
         24    2    4    4    0    0 -0.56010727337E+03 -0.38817392677E+03 -0.29975084015E+03  0.74866911252E+03  0.79093101872E+02 0.  0.
         11    1    3    3    0    0  0.23661549480E+02  0.21936075121E+02  0.16346523560E+03  0.16661915726E+03  0.00000000000E+00 0.  1.
        -11    1    3    3    0    0  0.67360992142E+03  0.20851769281E+03  0.23641454428E+04  0.24670657934E+04  0.00000000000E+00 0. -1.
          4    1    6    6  502    0 -0.46623894601E+03 -0.34339367103E+03 -0.22801130460E+03  0.62232396957E+03  0.00000000000E+00 0. -1.
          1    1    5    5  503    0 -0.11798956197E+03  0.70822093066E+02  0.19993263234E+03  0.24271457120E+03  0.00000000000E+00 0. -1.
         -2    1    5    5    0  503 -0.19174635554E+02  0.86898065774E+02  0.14002072036E+03  0.16590582454E+03  0.00000000000E+00 0.  1.
         -3    1    6    6    0  502 -0.93868327358E+02 -0.44780255747E+02 -0.71739535548E+02  0.12634514295E+03  0.00000000000E+00 0.  1.
<mgrwt>
<rscale>  0 0.27888748E+04</rscale>
<asrwt>0</asrwt>
<pdfrwt beam="1">  1        2 0.48913750E+00 0.27888748E+04</pdfrwt>
<pdfrwt beam="2">  1       -2 0.94089331E-01 0.27888748E+04</pdfrwt>
<totfact> 0.11099876E+00</totfact>
</mgrwt>
</event>
<event>
12    1  0.1489233E-007  0.2191284E+04  0.7818608E-02  0.8522065E-01
          1   -1    0    0  501    0  0.00000000000E+00  0.00000000000E+00  0.22788429178E+04  0.22788429178E+04  0.00000000000E+00 0. -1.
         -1   -1    0    0    0  501 -0.00000000000E+00 -0.00000000000E+00 -0.52677222407E+03  0.52677222407E+03  0.00000000000E+00 0.  1.
         23    2    1    2    0    0 -0.22255432593E+03 -0.16498352970E+03 -0.38128707472E+03  0.47936276261E+03  0.87514751703E+02 0.  0.
        254    2    1    2    0    0  0.22255432593E+03  0.16498352970E+03  0.21333577684E+04  0.23262523792E+04  0.88514675095E+03 0.  0.
        -24    2    4    4    0    0 -0.30592985874E+03  0.18772307060E+03  0.11405239823E+04  0.11981693472E+04  0.77342101980E+02 0.  0.
         24    2    4    4    0    0  0.52848418467E+03 -0.22739540892E+02  0.99283378613E+03  0.11280830320E+04  0.83903397147E+02 0.  0.
         11    1    3    3    0    0 -0.92961441021E+02 -0.11817855067E+03 -0.16819889313E+03  0.22560777248E+03  0.00000000000E+00 0. -1.
        -11    1    3    3    0    0 -0.12959288491E+03 -0.46804979038E+02 -0.21308818160E+03  0.25375499013E+03  0.00000000000E+00 0.  1.
          4    1    6    6  502    0  0.41416869146E+03 -0.50720934063E+02  0.75102898663E+03  0.85915822576E+03  0.00000000000E+00 0. -1.
          1    1    5    5  503    0 -0.17011177376E+03  0.10788914410E+03  0.51201047991E+03  0.55021160886E+03  0.00000000000E+00 0. -1.
         -2    1    5    5    0  503 -0.13581808498E+03  0.79833926498E+02  0.62851350241E+03  0.64795773839E+03  0.00000000000E+00 0.  1.
         -3    1    6    6    0  502  0.11431549321E+03  0.27981393172E+02  0.24180479950E+03  0.26892480624E+03  0.00000000000E+00 0.  1.
<mgrwt>
<rscale>  0 0.21912838E+04</rscale>
<asrwt>0</asrwt>
<pdfrwt beam="1">  1        1 0.35059121E+00 0.21912838E+04</pdfrwt>
<pdfrwt beam="2">  1       -1 0.81041882E-01 0.21912838E+04</pdfrwt>
<totfact> 0.26638337E+00</totfact>
</mgrwt>
</event>
<event>
12    1  0.1489233E-007  0.2175629E+04  0.7818608E-02  0.8528641E-01
         -1   -1    0    0    0  501 -0.00000000000E+00  0.00000000000E+00  0.85940488935E+03  0.85940488935E+03  0.00000000000E+00 0.  1.
          1   -1    0    0  501    0  0.00000000000E+00 -0.00000000000E+00 -0.13769300383E+04  0.13769300383E+04  0.00000000000E+00 0. -1.
         23    2    1    2    0    0  0.13971679486E+03  0.45424457592E+02 -0.11269437666E+04  0.11401081954E+04  0.90886083646E+02 0.  0.
        254    2    1    2    0    0 -0.13971679486E+03 -0.45424457592E+02  0.60941861765E+03  0.10962267322E+04  0.89929852257E+03 0.  0.
        -24    2    4    4    0    0  0.28687032719E+03  0.18382358955E+03  0.47058717253E+03  0.58639290368E+03  0.79489960578E+02 0.  0.
         24    2    4    4    0    0 -0.42658712205E+03 -0.22924804714E+03  0.13883144511E+03  0.50983382850E+03  0.78263163207E+02 0.  0.
         13    1    3    3    0    0  0.61347218816E+02 -0.26086253850E+02 -0.43517771445E+03  0.44025403695E+03  0.00000000000E+00 0.  1.
        -13    1    3    3    0    0  0.78369576046E+02  0.71510711442E+02 -0.69176605211E+03  0.69985415848E+03  0.00000000000E+00 0. -1.
          2    1    6    6  502    0 -0.12202982671E+03 -0.10641185003E+03  0.38038345000E+02  0.16631799700E+03  0.00000000000E+00 0. -1.
          1    1    5    5  503    0  0.24395737587E+02  0.29665643557E+02  0.21952805696E+02  0.44239440525E+02  0.00000000000E+00 0. -1.
         -2    1    5    5    0  503  0.26247458960E+03  0.15415794599E+03  0.44863436684E+03  0.54215346315E+03  0.00000000000E+00 0.  1.
         -1    1    6    6    0  502 -0.30455729534E+03 -0.12283619711E+03  0.10079310011E+03  0.34351583150E+03  0.00000000000E+00 0.  1.
<mgrwt>
<rscale>  0 0.21756290E+04</rscale>
<asrwt>0</asrwt>
<pdfrwt beam="1">  1        1 0.21183539E+00 0.21756290E+04</pdfrwt>
<pdfrwt beam="2">  1       -1 0.13221614E+00 0.21756290E+04</pdfrwt>
<totfact> 0.35406362E+00</totfact>
</mgrwt>
</event>
<event>
12    1  0.1489233E-007  0.1637182E+04  0.7818608E-02  0.8798026E-01
         -2   -1    0    0    0  501 -0.00000000000E+00  0.00000000000E+00  0.69901032513E+03  0.69901032513E+03  0.00000000000E+00 0.  1.
          2   -1    0    0  501    0  0.00000000000E+00 -0.00000000000E+00 -0.95862873891E+03  0.95862873891E+03  0.00000000000E+00 0. -1.
         23    2    1    2    0    0 -0.74077443474E+02  0.55417403349E+03 -0.19267132757E+03  0.59840285606E+03  0.91473551637E+02 0.  0.
        254    2    1    2    0    0  0.74077443474E+02 -0.55417403349E+03 -0.66947086206E+02  0.10592362080E+04  0.89716392311E+03 0.  0.
        -24    2    4    4    0    0  0.27788780756E+03 -0.69606785532E+03 -0.17989982215E+03  0.77492384280E+03  0.80068241710E+02 0.  0.
         24    2    4    4    0    0 -0.20381036409E+03  0.14189382183E+03  0.11295273595E+03  0.28431236518E+03  0.80016743561E+02 0.  0.
         13    1    3    3    0    0 -0.22831828866E+02  0.27766240343E+03 -0.14183130852E+03  0.31262409179E+03  0.00000000000E+00 0. -1.
        -13    1    3    3    0    0 -0.51245614608E+02  0.27651163005E+03 -0.50840019049E+02  0.28577876427E+03  0.00000000000E+00 0.  1.
          2    1    6    6  502    0 -0.16674227075E+02 -0.69371521924E+01 -0.34394021000E+01  0.18384325277E+02  0.00000000000E+00 0. -1.
          1    1    5    5  503    0  0.51527826608E+02 -0.69628905594E+02 -0.33967323632E+02  0.93043433319E+02  0.00000000000E+00 0. -1.
         -2    1    5    5    0  503  0.22635998096E+03 -0.62643894973E+03 -0.14593249852E+03  0.68188040948E+03  0.00000000000E+00 0.  1.
         -1    1    6    6    0  502 -0.18713613702E+03  0.14883097403E+03  0.11639213805E+03  0.26592803990E+03  0.00000000000E+00 0.  1.
<mgrwt>
<rscale>  0 0.16371822E+04</rscale>
<asrwt>0</asrwt>
<pdfrwt beam="1">  1        2 0.14748134E+00 0.16371822E+04</pdfrwt>
<pdfrwt beam="2">  1       -2 0.10754005E+00 0.16371822E+04</pdfrwt>
<totfact> 0.17784401E+01</totfact>
</mgrwt>
</event>
<event>
12    1  0.1489233E-007  0.1924586E+04  0.7818608E-02  0.8642714E-01
         -1   -1    0    0    0  501 -0.00000000000E+00  0.00000000000E+00  0.14733349459E+04  0.14733349459E+04  0.00000000000E+00 0.  1.
          1   -1    0    0  501    0  0.00000000000E+00 -0.00000000000E+00 -0.62851109407E+03  0.62851109407E+03  0.00000000000E+00 0. -1.
         23    2    1    2    0    0 -0.20908686798E+03  0.28606894967E+02 -0.45238543148E+03  0.50858152970E+03  0.97298103418E+02 0.  0.
        254    2    1    2    0    0  0.20908686798E+03 -0.28606894967E+02  0.12972092833E+04  0.15932645103E+04  0.90066875273E+03 0.  0.
        -24    2    4    4    0    0 -0.27348610244E+03 -0.15426608913E+03  0.18813476693E+03  0.37464676788E+03  0.79830042410E+02 0.  0.
         24    2    4    4    0    0  0.48257297043E+03  0.12565919416E+03  0.11090745164E+04  0.12186177424E+04  0.79473355873E+02 0.  0.
         11    1    3    3    0    0 -0.16472163191E+03  0.60696096028E+02 -0.31369885727E+03  0.35947768380E+03  0.00000000000E+00 0. -1.
        -11    1    3    3    0    0 -0.44365236068E+02 -0.32089201061E+02 -0.13868657421E+03  0.14910384590E+03  0.00000000000E+00 0.  1.
          4    1    6    6  502    0  0.41111037744E+03  0.94831083797E+02  0.99247002259E+03  0.10784254368E+04  0.00000000000E+00 0. -1.
          3    1    5    5  503    0 -0.67034461092E+02 -0.72214815242E+02  0.83159765588E+02  0.12893465448E+03  0.00000000000E+00 0. -1.
         -4    1    5    5    0  503 -0.20645164135E+03 -0.82051273885E+02  0.10497500134E+03  0.24571211340E+03  0.00000000000E+00 0.  1.
         -3    1    6    6    0  502  0.71462592987E+02  0.30828110362E+02  0.11660449378E+03  0.14019230562E+03  0.00000000000E+00 0.  1.
<mgrwt>
<rscale>  0 0.19245855E+04</rscale>
<asrwt>0</asrwt>
<pdfrwt beam="1">  1        1 0.96694015E-01 0.19245855E+04</pdfrwt>
<pdfrwt beam="2">  1       -1 0.22666691E+00 0.19245855E+04</pdfrwt>
<totfact> 0.29678764E+00</totfact>
</mgrwt>
</event>
<event>
12    1  0.1489233E-007  0.2323857E+04  0.7818608E-02  0.8468574E-01
          2   -1    0    0  501    0  0.00000000000E+00  0.00000000000E+00  0.25418032302E+04  0.25418032302E+04  0.00000000000E+00 0. -1.
         -2   -1    0    0    0  501 -0.00000000000E+00 -0.00000000000E+00 -0.53114954211E+03  0.53114954211E+03  0.00000000000E+00 0.  1.
         23    2    1    2    0    0 -0.40351548970E+03  0.88313956195E+03  0.94489270897E+03  0.13578193703E+04  0.89949845172E+02 0.  0.
        254    2    1    2    0    0  0.40351548970E+03 -0.88313956195E+03  0.10657609792E+04  0.17151334020E+04  0.92901877577E+03 0.  0.
        -24    2    4    4    0    0  0.31868246066E+02 -0.20283735053E+02  0.69864296807E+03  0.70335435000E+03  0.71960612898E+02 0.  0.
         24    2    4    4    0    0  0.37164724363E+03 -0.86285582689E+03  0.36711801108E+03  0.10117790520E+04  0.79242440272E+02 0.  0.
         13    1    3    3    0    0 -0.22367480231E+03  0.49632411450E+03  0.46724428924E+03  0.71741568818E+03  0.00000000000E+00 0.  1.
        -13    1    3    3    0    0 -0.17984068739E+03  0.38681544745E+03  0.47764841973E+03  0.64040368214E+03  0.00000000000E+00 0. -1.
          2    1    6    6  502    0 -0.41566642857E+01 -0.81158026020E+01  0.34324906961E+01  0.97430027321E+01  0.00000000000E+00 0. -1.
          3    1    5    5  503    0  0.43622912394E+00  0.21127954638E+02  0.87983703906E+02  0.90485981876E+02  0.00000000000E+00 0. -1.
         -4    1    5    5    0  503  0.31432016942E+02 -0.41411689690E+02  0.61065926417E+03  0.61286836812E+03  0.00000000000E+00 0.  1.
         -1    1    6    6    0  502  0.37580390792E+03 -0.85474002429E+03  0.36368552039E+03  0.10020360493E+04  0.00000000000E+00 0.  1.
<mgrwt>
<rscale>  0 0.23238568E+04</rscale>
<asrwt>0</asrwt>
<pdfrwt beam="1">  1        2 0.39104665E+00 0.23238568E+04</pdfrwt>
<pdfrwt beam="2">  1       -2 0.81715315E-01 0.23238568E+04</pdfrwt>
<totfact> 0.39245158E+00</totfact>
</mgrwt>
</event>
<event>
12    1  0.1489233E-007  0.1294020E+04  0.7818608E-02  0.9034321E-01
          1   -1    0    0  501    0  0.00000000000E+00  0.00000000000E+00  0.22334127538E+03  0.22334127538E+03  0.00000000000E+00 0. -1.
         -1   -1    0    0    0  501 -0.00000000000E+00 -0.00000000000E+00 -0.18743591865E+04  0.18743591865E+04  0.00000000000E+00 0.  1.
         23    2    1    2    0    0  0.19220355853E+03 -0.22062269406E+03 -0.64869236714E+03  0.71739606021E+03  0.90767499494E+02 0.  0.
        254    2    1    2    0    0 -0.19220355853E+03  0.22062269406E+03 -0.10023255439E+04  0.13803044016E+04  0.90275531795E+03 0.  0.
        -24    2    4    4    0    0  0.58610999999E+02 -0.32592411515E+03 -0.37584668325E+03  0.50817752071E+03  0.85568014412E+02 0.  0.
         24    2    4    4    0    0 -0.25081455853E+03  0.54654680921E+03 -0.62647886070E+03  0.87212688092E+03  0.80673267592E+02 0.  0.
         11    1    3    3    0    0  0.13374445084E+02 -0.24357010275E+01 -0.48038627009E+01  0.14418235594E+02  0.00000000000E+00 0. -1.
        -11    1    3    3    0    0  0.17882911344E+03 -0.21818699303E+03 -0.64388850444E+03  0.70297782461E+03  0.00000000000E+00 0.  1.
          2    1    6    6  502    0 -0.13183494808E+03  0.37459051252E+03 -0.39308101611E+03  0.55875861589E+03  0.00000000000E+00 0. -1.
          3    1    5    5  503    0 -0.14341868195E+02 -0.11267921776E+03 -0.15911097814E+03  0.19549577658E+03  0.00000000000E+00 0. -1.
         -4    1    5    5    0  503  0.72952868194E+02 -0.21324489739E+03 -0.21673570511E+03  0.31268174413E+03  0.00000000000E+00 0.  1.
         -1    1    6    6    0  502 -0.11897961044E+03  0.17195629669E+03 -0.23339784459E+03  0.31336826503E+03  0.00000000000E+00 0.  1.
<mgrwt>
<rscale>  0 0.12940197E+04</rscale>
<asrwt>0</asrwt>
<pdfrwt beam="1">  1        1 0.34360197E-01 0.12940197E+04</pdfrwt>
<pdfrwt beam="2">  1       -1 0.28836294E+00 0.12940197E+04</pdfrwt>
<totfact> 0.49945226E+00</totfact>
</mgrwt>
</event>
<event>
12    1  0.1489233E-007  0.2357219E+04  0.7818608E-02  0.8455696E-01
          2   -1    0    0  501    0  0.00000000000E+00  0.00000000000E+00  0.26785211296E+04  0.26785211296E+04  0.00000000000E+00 0. -1.
         -2   -1    0    0    0  501 -0.00000000000E+00 -0.00000000000E+00 -0.51861453230E+03  0.51861453230E+03  0.00000000000E+00 0.  1.
         23    2    1    2    0    0 -0.38890653433E+03 -0.22798525637E+03  0.21395458451E+04  0.21883777348E+04  0.90083944301E+02 0.  0.
        254    2    1    2    0    0  0.38890653433E+03  0.22798525637E+03  0.20360752139E+02  0.10087579271E+04  0.90219311996E+03 0.  0.
        -24    2    4    4    0    0 -0.54597428245E+01  0.13479348691E+03 -0.39410191283E+03  0.42374368127E+03  0.77738644293E+02 0.  0.
         24    2    4    4    0    0  0.39436627716E+03  0.93191769467E+02  0.41446266496E+03  0.58501424584E+03  0.79075285199E+02 0.  0.
         11    1    3    3    0    0 -0.36396206015E+03 -0.21883531912E+03  0.20836444231E+04  0.21264833318E+04  0.00000000000E+00 0. -1.
        -11    1    3    3    0    0 -0.24944474183E+02 -0.91499372526E+01  0.55901421999E+02  0.61894403023E+02  0.00000000000E+00 0.  1.
          2    1    6    6  502    0  0.25908152119E+03  0.25023187427E+02  0.28222975266E+03  0.38393101961E+03  0.00000000000E+00 0. -1.
          1    1    5    5  503    0  0.22791942487E+02  0.11979317814E+03 -0.33560781880E+03  0.35707490281E+03  0.00000000000E+00 0. -1.
         -2    1    5    5    0  503 -0.28251685312E+02  0.15000308764E+02 -0.58494094022E+02  0.66668778460E+02  0.00000000000E+00 0.  1.
         -1    1    6    6    0  502  0.13528475597E+03  0.68168582039E+02  0.13223291230E+03  0.20108322623E+03  0.00000000000E+00 0.  1.
<mgrwt>
<rscale>  0 0.23572187E+04</rscale>
<asrwt>0</asrwt>
<pdfrwt beam="1">  1        2 0.41208017E+00 0.23572187E+04</pdfrwt>
<pdfrwt beam="2">  1       -2 0.79786853E-01 0.23572187E+04</pdfrwt>
<totfact> 0.34321411E+00</totfact>
</mgrwt>
</event>
<event>
12    1  0.1489233E-007  0.1851845E+04  0.7818608E-02  0.8679205E-01
          2   -1    0    0  501    0  0.00000000000E+00  0.00000000000E+00  0.11758391223E+04  0.11758391223E+04  0.00000000000E+00 0. -1.
         -2   -1    0    0    0  501 -0.00000000000E+00 -0.00000000000E+00 -0.72912404145E+03  0.72912404145E+03  0.00000000000E+00 0.  1.
         23    2    1    2    0    0  0.25190553876E+03 -0.88238849190E+00 -0.50377515753E+03  0.56996734935E+03  0.87270790757E+02 0.  0.
        254    2    1    2    0    0 -0.25190553876E+03  0.88238849190E+00  0.95049023839E+03  0.13349958144E+04  0.90295346068E+03 0.  0.
        -24    2    4    4    0    0  0.23716567490E+03  0.25647521653E+03  0.51721037994E+03  0.62884896738E+03  0.76924330447E+02 0.  0.
         24    2    4    4    0    0 -0.48907121366E+03 -0.25559282804E+03  0.43327985845E+03  0.70614684703E+03  0.79959915367E+02 0.  0.
         13    1    3    3    0    0  0.43964921983E+02  0.10410364676E+01 -0.17899597077E+03  0.18431916795E+03  0.00000000000E+00 0. -1.
        -13    1    3    3    0    0  0.20794061678E+03 -0.19234249595E+01 -0.32477918676E+03  0.38564818141E+03  0.00000000000E+00 0.  1.
          2    1    6    6  502    0 -0.28815815506E+03 -0.14709925622E+03  0.20351334721E+03  0.38221851865E+03  0.00000000000E+00 0. -1.
          3    1    5    5  503    0  0.21413489583E+03  0.20203166138E+03  0.46282378372E+03  0.54852201468E+03  0.00000000000E+00 0. -1.
         -4    1    5    5    0  503  0.23030779063E+02  0.54443555145E+02  0.54386596217E+02  0.80326952694E+02  0.00000000000E+00 0.  1.
         -1    1    6    6    0  502 -0.20091305860E+03 -0.10849357182E+03  0.22976651124E+03  0.32392832838E+03  0.00000000000E+00 0.  1.
<mgrwt>
<rscale>  0 0.18518451E+04</rscale>
<asrwt>0</asrwt>
<pdfrwt beam="1">  1        2 0.18089833E+00 0.18518451E+04</pdfrwt>
<pdfrwt beam="2">  1       -2 0.11217293E+00 0.18518451E+04</pdfrwt>
<totfact> 0.11538258E+01</totfact>
</mgrwt>
</event>
<event>
12    1  0.1489233E-007  0.1511630E+04  0.7818608E-02  0.8876755E-01
         -1   -1    0    0    0  501 -0.00000000000E+00  0.00000000000E+00  0.22433425764E+04  0.22433425764E+04  0.00000000000E+00 0.  1.
          1   -1    0    0  501    0  0.00000000000E+00 -0.00000000000E+00 -0.25464529738E+03  0.25464529738E+03  0.00000000000E+00 0. -1.
         23    2    1    2    0    0 -0.31915884555E+02 -0.21249148855E+03 -0.69418778849E+02  0.24218222475E+03  0.87532889448E+02 0.  0.
        254    2    1    2    0    0  0.31915884555E+02  0.21249148855E+03  0.20581160579E+04  0.22558056491E+04  0.89813482407E+03 0.  0.
        -24    2    4    4    0    0  0.16979666082E+03 -0.26587211356E+03  0.36109510035E+03  0.48573058555E+03  0.77625018200E+02 0.  0.
         24    2    4    4    0    0 -0.13788077627E+03  0.47836360211E+03  0.16970209575E+04  0.17700750635E+04  0.73775035314E+02 0.  0.
         11    1    3    3    0    0  0.30560167926E+02 -0.66439776137E+02 -0.23856755990E+02  0.76924069856E+02  0.00000000000E+00 0.  1.
        -11    1    3    3    0    0 -0.62476052480E+02 -0.14605171241E+03 -0.45562022858E+02  0.16525815489E+03  0.00000000000E+00 0. -1.
          4    1    6    6  502    0 -0.12826770089E+03  0.36120584006E+03  0.12208091233E+04  0.12795691374E+04  0.00000000000E+00 0. -1.
          3    1    5    5  503    0  0.45808362964E+02 -0.21908290595E+02  0.65991808247E+02  0.83266428229E+02  0.00000000000E+00 0. -1.
         -4    1    5    5    0  503  0.12398829786E+03 -0.24396382297E+03  0.29510329210E+03  0.40246415732E+03  0.00000000000E+00 0.  1.
         -3    1    6    6    0  502 -0.96130753803E+01  0.11715776205E+03  0.47621183424E+03  0.49050592606E+03  0.00000000000E+00 0.  1.
<mgrwt>
<rscale>  0 0.15116304E+04</rscale>
<asrwt>0</asrwt>
<pdfrwt beam="1">  1        1 0.39176201E-01 0.15116304E+04</pdfrwt>
<pdfrwt beam="2">  1       -1 0.34512961E+00 0.15116304E+04</pdfrwt>
<totfact> 0.17643702E+00</totfact>
</mgrwt>
</event>
<event>
12    1  0.1489233E-007  0.1177904E+04  0.7818608E-02  0.9132420E-01
          1   -1    0    0  501    0  0.00000000000E+00  0.00000000000E+00  0.29306232814E+03  0.29306232814E+03  0.00000000000E+00 0. -1.
         -1   -1    0    0    0  501 -0.00000000000E+00 -0.00000000000E+00 -0.11835849815E+04  0.11835849815E+04  0.00000000000E+00 0.  1.
         23    2    1    2    0    0  0.19906159048E+03 -0.23096864781E+02 -0.31741557060E+03  0.38592459213E+03  0.89588863061E+02 0.  0.
        254    2    1    2    0    0 -0.19906159048E+03  0.23096864781E+02 -0.57310708279E+03  0.10907227175E+04  0.90612655642E+03 0.  0.
        -24    2    4    4    0    0 -0.25254161857E+03  0.14642639678E+03 -0.77695351142E+03  0.83378997814E+03  0.79567643875E+02 0.  0.
         24    2    4    4    0    0  0.53480028092E+02 -0.12332953200E+03  0.20384642864E+03  0.25693273939E+03  0.79942349451E+02 0.  0.
         11    1    3    3    0    0  0.20504722841E+03 -0.10831266478E+02 -0.29043303405E+03  0.35568670130E+03  0.00000000000E+00 0.  1.
        -11    1    3    3    0    0 -0.59856379349E+01 -0.12265598303E+02 -0.26982536546E+02  0.30237890827E+02  0.00000000000E+00 0. -1.
          4    1    6    6  502    0  0.19878479958E+01 -0.42015479731E+02  0.14434528426E+02  0.44470301186E+02  0.00000000000E+00 0. -1.
          3    1    5    5  503    0 -0.58762024991E+02  0.50477928944E+02 -0.12648305100E+03  0.14832046077E+03  0.00000000000E+00 0. -1.
         -4    1    5    5    0  503 -0.19377959358E+03  0.95948467841E+02 -0.65047046042E+03  0.68546951738E+03  0.00000000000E+00 0.  1.
         -3    1    6    6    0  502  0.51492180096E+02 -0.81314052273E+02  0.18941190021E+03  0.21246243821E+03  0.00000000000E+00 0.  1.
<mgrwt>
<rscale>  0 0.11779035E+04</rscale>
<asrwt>0</asrwt>
<pdfrwt beam="1">  1        1 0.45086511E-01 0.11779035E+04</pdfrwt>
<pdfrwt beam="2">  1       -1 0.18209000E+00 0.11779035E+04</pdfrwt>
<totfact> 0.18017159E+01</totfact>
</mgrwt>
</event>
<event>
12    1  0.1489233E-007  0.1258568E+04  0.7818608E-02  0.9063082E-01
          2   -1    0    0  501    0  0.00000000000E+00  0.00000000000E+00  0.14852797506E+04  0.14852797506E+04  0.00000000000E+00 0.  1.
         -2   -1    0    0    0  501 -0.00000000000E+00 -0.00000000000E+00 -0.26661536225E+03  0.26661536225E+03  0.00000000000E+00 0. -1.
         23    2    1    2    0    0 -0.13127203947E+03 -0.16500543323E+03  0.50246136429E+03  0.55272436623E+03  0.92615663265E+02 0.  0.
        254    2    1    2    0    0  0.13127203947E+03  0.16500543323E+03  0.71620302409E+03  0.11991707466E+04  0.93840533170E+03 0.  0.
        -24    2    4    4    0    0 -0.79271079281E+02 -0.35414853680E+03  0.41914891875E+03  0.55980369987E+03  0.77390413904E+02 0.  0.
         24    2    4    4    0    0  0.21054311875E+03  0.51915397003E+03  0.29705410534E+03  0.63936704678E+03  0.81852486645E+02 0.  0.
         13    1    3    3    0    0 -0.61943338317E+02 -0.58124281400E+02  0.31368094554E+03  0.32497868367E+03  0.00000000000E+00 0.  1.
        -13    1    3    3    0    0 -0.69328701150E+02 -0.10688115183E+03  0.18878041876E+03  0.22774568256E+03  0.00000000000E+00 0. -1.
          4    1    6    6  502    0  0.14767126713E+01  0.57836116622E+02  0.15530941285E+02  0.59903315462E+02  0.00000000000E+00 0. -1.
          3    1    5    5  503    0 -0.31647160184E+02 -0.73605176491E+02  0.13928152411E+03  0.16068169688E+03  0.00000000000E+00 0. -1.
         -4    1    5    5    0  503 -0.47623919097E+02 -0.28054336031E+03  0.27986739465E+03  0.39912200299E+03  0.00000000000E+00 0.  1.
         -3    1    6    6    0  502  0.20906640608E+03  0.46131785340E+03  0.28152316405E+03  0.57946373132E+03  0.00000000000E+00 0.  1.
<mgrwt>
<rscale>  0 0.12585681E+04</rscale>
<asrwt>0</asrwt>
<pdfrwt beam="1">  1        2 0.22850457E+00 0.12585681E+04</pdfrwt>
<pdfrwt beam="2">  1       -2 0.41017749E-01 0.12585681E+04</pdfrwt>
<totfact> 0.71565457E+01</totfact>
</mgrwt>
</event>
<event>
12    1  0.1489233E-007  0.2232075E+04  0.7818608E-02  0.8505195E-01
         -2   -1    0    0    0  501 -0.00000000000E+00  0.00000000000E+00  0.62017766590E+03  0.62017766590E+03  0.00000000000E+00 0.  1.
          2   -1    0    0  501    0  0.00000000000E+00 -0.00000000000E+00 -0.20083598885E+04  0.20083598885E+04  0.00000000000E+00 0. -1.
         23    2    1    2    0    0  0.54774316979E+03  0.61469465340E+03 -0.71242718918E+02  0.83225198508E+03  0.98466972670E+02 0.  0.
        254    2    1    2    0    0 -0.54774316979E+03 -0.61469465340E+03 -0.13169395037E+04  0.17962855693E+04  0.90246334729E+03 0.  0.
        -24    2    4    4    0    0 -0.23217691984E+03 -0.28374813425E+03 -0.12765458605E+04  0.13305417437E+04  0.79704905112E+02 0.  0.
         24    2    4    4    0    0 -0.31556624995E+03 -0.33094651915E+03 -0.40393643166E+02  0.46574382563E+03  0.78600305718E+02 0.  0.
         11    1    3    3    0    0  0.51100732463E+03  0.54949861585E+03 -0.88113650903E+02  0.75554035638E+03  0.00000000000E+00 0.  1.
        -11    1    3    3    0    0  0.36735845155E+02  0.65196037551E+02  0.16870931985E+02  0.76711628699E+02  0.00000000000E+00 0. -1.
          2    1    6    6  502    0 -0.15869517707E+03 -0.22048896932E+03 -0.33993930835E+02  0.27377934939E+03  0.00000000000E+00 0. -1.
          1    1    5    5  503    0 -0.42439046628E+01  0.22244320077E+01 -0.32959056491E+01  0.58156528946E+01  0.00000000000E+00 0. -1.
         -2    1    5    5    0  503 -0.22793301517E+03 -0.28597256626E+03 -0.12732499549E+04  0.13247260908E+04  0.00000000000E+00 0.  1.
         -1    1    6    6    0  502 -0.15687107288E+03 -0.11045754983E+03 -0.63997123310E+01  0.19196447624E+03  0.00000000000E+00 0.  1.
<mgrwt>
<rscale>  0 0.22320752E+04</rscale>
<asrwt>0</asrwt>
<pdfrwt beam="1">  1        2 0.30897844E+00 0.22320752E+04</pdfrwt>
<pdfrwt beam="2">  1       -2 0.95411950E-01 0.22320752E+04</pdfrwt>
<totfact> 0.55591883E+00</totfact>
</mgrwt>
</event>
<event>
12    1  0.1531774E-007  0.1992601E+04  0.7818608E-02  0.8610088E-01
          2   -1    0    0  501    0  0.00000000000E+00  0.00000000000E+00  0.18375121248E+04  0.18375121248E+04  0.00000000000E+00 0. -1.
         -2   -1    0    0    0  501 -0.00000000000E+00 -0.00000000000E+00 -0.54019487607E+03  0.54019487607E+03  0.00000000000E+00 0.  1.
         23    2    1    2    0    0  0.23670591504E+03  0.53191771834E+03 -0.11632362532E+03  0.60077295441E+03  0.91819429589E+02 0.  0.
        254    2    1    2    0    0 -0.23670591504E+03 -0.53191771834E+03  0.14136408741E+04  0.17769340465E+04  0.90562019379E+03 0.  0.
        -24    2    4    4    0    0  0.32210528620E+02  0.16793904369E+03  0.74770387834E+03  0.77104777205E+03  0.78819645651E+02 0.  0.
         24    2    4    4    0    0 -0.26891644366E+03 -0.69985676203E+03  0.66593699573E+03  0.10058862744E+04  0.78864274417E+02 0.  0.
         13    1    3    3    0    0  0.18293280879E+03  0.38378528793E+03 -0.12438809884E+03  0.44297625094E+03  0.00000000000E+00 0.  1.
        -13    1    3    3    0    0  0.53773106253E+02  0.14813243040E+03  0.80644735197E+01  0.15779670347E+03  0.00000000000E+00 0. -1.
          2    1    6    6  502    0 -0.20398637846E+03 -0.45469770678E+03  0.40694603512E+03  0.64340152521E+03  0.00000000000E+00 0. -1.
          3    1    5    5  503    0  0.37369328068E+02  0.12959639945E+03  0.67838740309E+03  0.69166549870E+03  0.00000000000E+00 0. -1.
         -4    1    5    5    0  503 -0.51587994484E+01  0.38342644244E+02  0.69316475256E+02  0.79382273344E+02  0.00000000000E+00 0.  1.
         -1    1    6    6    0  502 -0.64930065200E+02 -0.24515905525E+03  0.25899096061E+03  0.36248474922E+03  0.00000000000E+00 0.  1.
<mgrwt>
<rscale>  0 0.19926009E+04</rscale>
<asrwt>0</asrwt>
<pdfrwt beam="1">  1        2 0.28269417E+00 0.19926009E+04</pdfrwt>
<pdfrwt beam="2">  1       -2 0.83106905E-01 0.19926009E+04</pdfrwt>
<totfact> 0.96960523E+00</totfact>
</mgrwt>
</event>
<event>
12    1  0.1489233E-007  0.1748179E+04  0.7818608E-02  0.8734354E-01
          2   -1    0    0  501    0  0.00000000000E+00  0.00000000000E+00  0.98087550655E+03  0.98087550655E+03  0.00000000000E+00 0. -1.
         -2   -1    0    0    0  501 -0.00000000000E+00 -0.00000000000E+00 -0.77892869342E+03  0.77892869342E+03  0.00000000000E+00 0.  1.
         23    2    1    2    0    0  0.11120616106E+03  0.27750855134E+03  0.63935866699E+03  0.71163738815E+03  0.90942074049E+02 0.  0.
        254    2    1    2    0    0 -0.11120616106E+03 -0.27750855134E+03 -0.43741185385E+03  0.10481668118E+04  0.90440407406E+03 0.  0.
        -24    2    4    4    0    0 -0.40749641887E+03 -0.43622871043E+03 -0.22771865163E+03  0.64384473396E+03  0.79570333372E+02 0.  0.
         24    2    4    4    0    0  0.29629025781E+03  0.15872015910E+03 -0.20969320222E+03  0.40432207786E+03  0.80778077535E+02 0.  0.
         13    1    3    3    0    0  0.15325139088E+02  0.13318519280E+01  0.12012627127E+02  0.19517605594E+02  0.00000000000E+00 0.  1.
        -13    1    3    3    0    0  0.95881021972E+02  0.27617669941E+03  0.62734603986E+03  0.69211978255E+03  0.00000000000E+00 0. -1.
          4    1    6    6  502    0  0.25081369583E+03  0.10946119341E+03 -0.13915503743E+03  0.30700714539E+03  0.00000000000E+00 0. -1.
          1    1    5    5  503    0 -0.34344530605E+03 -0.36850016400E+03 -0.22190735269E+03  0.55044520372E+03  0.00000000000E+00 0. -1.
         -4    1    5    5    0  503 -0.64051112820E+02 -0.67728546429E+02 -0.58112989478E+01  0.93399530247E+02  0.00000000000E+00 0.  1.
         -3    1    6    6    0  502  0.45476561983E+02  0.49258965682E+02 -0.70538164785E+02  0.97314932467E+02  0.00000000000E+00 0.  1.
<mgrwt>
<rscale>  0 0.17481786E+04</rscale>
<asrwt>0</asrwt>
<pdfrwt beam="1">  1        2 0.15090392E+00 0.17481786E+04</pdfrwt>
<pdfrwt beam="2">  1       -2 0.11983518E+00 0.17481786E+04</pdfrwt>
<totfact> 0.13090545E+01</totfact>
</mgrwt>
</event>
<event>
12    1  0.1489233E-007  0.3516662E+04  0.7818608E-02  0.8109853E-01
          2   -1    0    0  501    0  0.00000000000E+00  0.00000000000E+00  0.13720342938E+04  0.13720342938E+04  0.00000000000E+00 0. -1.
         -2   -1    0    0    0  501 -0.00000000000E+00 -0.00000000000E+00 -0.22533901068E+04  0.22533901068E+04  0.00000000000E+00 0.  1.
         23    2    1    2    0    0 -0.15173228475E+04 -0.49885156459E+03 -0.26243600787E+02  0.16002707739E+04  0.95164678840E+02 0.  0.
        254    2    1    2    0    0  0.15173228475E+04  0.49885156459E+03 -0.85511221221E+03  0.20251536268E+04  0.90493580419E+03 0.  0.
        -24    2    4    4    0    0  0.10150654360E+04  0.41602606516E+03 -0.91246128783E+02  0.11037478205E+04  0.80609361011E+02 0.  0.
         24    2    4    4    0    0  0.50225741153E+03  0.82825499431E+02 -0.76386608343E+03  0.92140580631E+03  0.79841691418E+02 0.  0.
         13    1    3    3    0    0 -0.11701031312E+04 -0.37398840995E+03  0.18670654855E+02  0.12285590184E+04  0.00000000000E+00 0. -1.
        -13    1    3    3    0    0 -0.34721971629E+03 -0.12486315463E+03 -0.44914255642E+02  0.37171175543E+03  0.00000000000E+00 0.  1.
          4    1    6    6  502    0  0.49488779957E+02  0.78039125239E+01 -0.39100786241E+02  0.63552434076E+02  0.00000000000E+00 0. -1.
          1    1    5    5  503    0  0.55135161929E+03  0.18326545069E+03 -0.55822375362E+02  0.58368739159E+03  0.00000000000E+00 0. -1.
         -2    1    5    5    0  503  0.46371381667E+03  0.23276061446E+03 -0.35423753421E+02  0.52006042891E+03  0.00000000000E+00 0.  1.
         -1    1    6    6    0  502  0.45276863158E+03  0.75021586907E+02 -0.72476529719E+03  0.85785337223E+03  0.00000000000E+00 0.  1.
<mgrwt>
<rscale>  0 0.35166623E+04</rscale>
<asrwt>0</asrwt>
<pdfrwt beam="1">  1        2 0.21108220E+00 0.35166623E+04</pdfrwt>
<pdfrwt beam="2">  1       -2 0.34667540E+00 0.35166623E+04</pdfrwt>
<totfact> 0.20109919E-01</totfact>
</mgrwt>
</event>
<event>
12    1  0.1489233E-007  0.1437907E+04  0.7818608E-02  0.8926828E-01
         -1   -1    0    0    0  501 -0.00000000000E+00  0.00000000000E+00  0.45133610488E+03  0.45133610488E+03  0.00000000000E+00 0.  1.
          1   -1    0    0  501    0  0.00000000000E+00 -0.00000000000E+00 -0.11452527392E+04  0.11452527392E+04  0.00000000000E+00 0. -1.
         23    2    1    2    0    0  0.14592391073E+03 -0.31824598979E+03 -0.47171145648E+03  0.59461907312E+03  0.92118652829E+02 0.  0.
        254    2    1    2    0    0 -0.14592391073E+03  0.31824598979E+03 -0.22220517781E+03  0.10019697709E+04  0.91213704183E+03 0.  0.
        -24    2    4    4    0    0  0.27234285128E+03  0.47917971865E+02 -0.37720733971E+03  0.47461716305E+03  0.80680317669E+02 0.  0.
         24    2    4    4    0    0 -0.41826676201E+03  0.27032801793E+03  0.15500216190E+03  0.52735260789E+03  0.77786768659E+02 0.  0.
         11    1    3    3    0    0  0.70206522441E+02 -0.16091882258E+03 -0.16100263394E+03  0.23821349960E+03  0.00000000000E+00 0.  1.
        -11    1    3    3    0    0  0.75717388289E+02 -0.15732716721E+03 -0.31070882254E+03  0.35640557352E+03  0.00000000000E+00 0. -1.
          2    1    6    6  502    0 -0.38108069895E+01  0.18843800346E+02  0.73022988775E+01  0.20565374548E+02  0.00000000000E+00 0. -1.
          1    1    5    5  503    0  0.60881697348E+02 -0.16597865448E+02 -0.54145309346E+02  0.83149171574E+02  0.00000000000E+00 0. -1.
         -2    1    5    5    0  503  0.21146115393E+03  0.64515837313E+02 -0.32306203036E+03  0.39146799147E+03  0.00000000000E+00 0.  1.
         -1    1    6    6    0  502 -0.41445595502E+03  0.25148421758E+03  0.14769986302E+03  0.50678723334E+03  0.00000000000E+00 0.  1.
<mgrwt>
<rscale>  0 0.14379067E+04</rscale>
<asrwt>0</asrwt>
<pdfrwt beam="1">  1        1 0.17619273E+00 0.14379067E+04</pdfrwt>
<pdfrwt beam="2">  1       -1 0.69436323E-01 0.14379067E+04</pdfrwt>
<totfact> 0.23918328E+01</totfact>
</mgrwt>
</event>
<event>
12    1  0.1489233E-007  0.1237385E+04  0.7818608E-02  0.9080749E-01
         -2   -1    0    0    0  501 -0.00000000000E+00  0.00000000000E+00  0.46174672854E+03  0.46174672854E+03  0.00000000000E+00 0.  1.
          2   -1    0    0  501    0  0.00000000000E+00 -0.00000000000E+00 -0.82898341192E+03  0.82898341192E+03  0.00000000000E+00 0. -1.
         23    2    1    2    0    0 -0.12808795294E+03  0.24732034406E+03 -0.11417842413E+03  0.31607109981E+03  0.96386468577E+02 0.  0.
        254    2    1    2    0    0  0.12808795294E+03 -0.24732034406E+03 -0.25305825926E+03  0.97465904066E+03  0.89908169078E+03 0.  0.
        -24    2    4    4    0    0  0.40361984754E+03 -0.37926547737E+03  0.14622488593E+02  0.55962180892E+03  0.78812868222E+02 0.  0.
         24    2    4    4    0    0 -0.27553189460E+03  0.13194513332E+03 -0.26768074785E+03  0.41503723174E+03  0.85296997667E+02 0.  0.
         13    1    3    3    0    0  0.43776922252E+01  0.50702049679E+02  0.42340990748E+01  0.51066521576E+02  0.00000000000E+00 0.  1.
        -13    1    3    3    0    0 -0.13246564516E+03  0.19661829438E+03 -0.11841252320E+03  0.26500457823E+03  0.00000000000E+00 0. -1.
          2    1    6    6  502    0 -0.22316053751E+03  0.65617182235E+02 -0.19272537447E+03  0.30207500736E+03  0.00000000000E+00 0. -1.
          3    1    5    5  503    0  0.17617408021E+03 -0.11406211131E+03 -0.13594196057E+01  0.20987929816E+03  0.00000000000E+00 0. -1.
         -4    1    5    5    0  503  0.22744576732E+03 -0.26520336606E+03  0.15981908198E+02  0.34974251076E+03  0.00000000000E+00 0.  1.
         -1    1    6    6    0  502 -0.52371357090E+02  0.66327951081E+02 -0.74955373380E+02  0.11296222438E+03  0.00000000000E+00 0.  1.
<mgrwt>
<rscale>  0 0.12373849E+04</rscale>
<asrwt>0</asrwt>
<pdfrwt beam="1">  1        2 0.12753591E+00 0.12373849E+04</pdfrwt>
<pdfrwt beam="2">  1       -2 0.71037959E-01 0.12373849E+04</pdfrwt>
<totfact> 0.58205283E+01</totfact>
</mgrwt>
</event>
<event>
12    1  0.1489233E-007  0.2090972E+04  0.7818608E-02  0.8565231E-01
          2   -1    0    0  501    0  0.00000000000E+00  0.00000000000E+00  0.16446248761E+04  0.16446248761E+04  0.00000000000E+00 0. -1.
         -2   -1    0    0    0  501 -0.00000000000E+00 -0.00000000000E+00 -0.66461421607E+03  0.66461421607E+03  0.00000000000E+00 0.  1.
         23    2    1    2    0    0 -0.17600605022E+03 -0.12459988380E+03 -0.50461286554E+03  0.55649173490E+03  0.92442664322E+02 0.  0.
        254    2    1    2    0    0  0.17600605022E+03  0.12459988380E+03  0.14846235256E+04  0.17527473573E+04  0.90637355709E+03 0.  0.
        -24    2    4    4    0    0 -0.32002618891E+03  0.13165812256E+03  0.97271187185E+03  0.10352025133E+04  0.75665282739E+02 0.  0.
         24    2    4    4    0    0  0.49603223913E+03 -0.70582387694E+01  0.51191165374E+03  0.71754484402E+03  0.81971098291E+02 0.  0.
         11    1    3    3    0    0 -0.99499523937E+02 -0.36329506482E+02 -0.32854802834E+03  0.34520109390E+03  0.00000000000E+00 0. -1.
        -11    1    3    3    0    0 -0.76506526280E+02 -0.88270377314E+02 -0.17606483720E+03  0.21129064100E+03  0.00000000000E+00 0.  1.
          2    1    6    6  502    0  0.45726410964E+03  0.14783031812E+02  0.45425654744E+03  0.64471545265E+03  0.00000000000E+00 0. -1.
          3    1    5    5  503    0 -0.17792011273E+03  0.95211944721E+02  0.65233483358E+03  0.68283352000E+03  0.00000000000E+00 0. -1.
         -4    1    5    5    0  503 -0.14210607618E+03  0.36446177844E+02  0.32037703827E+03  0.35236899327E+03  0.00000000000E+00 0.  1.
         -1    1    6    6    0  502  0.38768129487E+02 -0.21841270582E+02  0.57655106303E+02  0.72829391370E+02  0.00000000000E+00 0.  1.
<mgrwt>
<rscale>  0 0.20909721E+04</rscale>
<asrwt>0</asrwt>
<pdfrwt beam="1">  1        2 0.25301921E+00 0.20909721E+04</pdfrwt>
<pdfrwt beam="2">  1       -2 0.10224834E+00 0.20909721E+04</pdfrwt>
<totfact> 0.76074991E+00</totfact>
</mgrwt>
</event>
<event>
12    1  0.1489233E-007  0.1705636E+04  0.7818608E-02  0.8758156E-01
          1   -1    0    0  501    0  0.00000000000E+00  0.00000000000E+00  0.91117440774E+03  0.91117440774E+03  0.00000000000E+00 0. -1.
         -1   -1    0    0    0  501 -0.00000000000E+00 -0.00000000000E+00 -0.79819917177E+03  0.79819917177E+03  0.00000000000E+00 0.  1.
         23    2    1    2    0    0  0.34057035811E+03  0.12197777473E+03 -0.45222447687E+03  0.58652413122E+03  0.92934561238E+02 0.  0.
        254    2    1    2    0    0 -0.34057035811E+03 -0.12197777473E+03  0.56519971284E+03  0.11228494483E+04  0.90026297367E+03 0.  0.
        -24    2    4    4    0    0 -0.39034012686E+03  0.11081837571E+03  0.71745491881E+03  0.82811630585E+03  0.79930772907E+02 0.  0.
         24    2    4    4    0    0  0.49769768750E+02 -0.23279615044E+03 -0.15225520596E+03  0.29473314244E+03  0.83754999657E+02 0.  0.
         13    1    3    3    0    0  0.46536676838E+02  0.30496988275E+02 -0.12695770225E+03  0.13861452573E+03  0.00000000000E+00 0. -1.
        -13    1    3    3    0    0  0.29403368127E+03  0.91480786451E+02 -0.32526677463E+03  0.44790960549E+03  0.00000000000E+00 0.  1.
          4    1    6    6  502    0  0.74786265149E+01 -0.50824116404E+02  0.35143370567E+01  0.51491467524E+02  0.00000000000E+00 0. -1.
          3    1    5    5  503    0 -0.29977047074E+03  0.52301215848E+02  0.55889020291E+03  0.63636154127E+03  0.00000000000E+00 0. -1.
         -4    1    5    5    0  503 -0.90569656124E+02  0.58517159863E+02  0.15856471590E+03  0.19175476457E+03  0.00000000000E+00 0.  1.
         -3    1    6    6    0  502  0.42291142235E+02 -0.18197203403E+03 -0.15576954302E+03  0.24324167491E+03  0.00000000000E+00 0.  1.
<mgrwt>
<rscale>  0 0.17056361E+04</rscale>
<asrwt>0</asrwt>
<pdfrwt beam="1">  1        1 0.14018068E+00 0.17056361E+04</pdfrwt>
<pdfrwt beam="2">  1       -1 0.12279987E+00 0.17056361E+04</pdfrwt>
<totfact> 0.99137963E+00</totfact>
</mgrwt>
</event>
<event>
12    1  0.1489233E-007  0.1274172E+04  0.7818608E-02  0.9050301E-01
          1   -1    0    0  501    0  0.00000000000E+00  0.00000000000E+00  0.66865284572E+03  0.66865284572E+03  0.00000000000E+00 0. -1.
         -1   -1    0    0    0  501 -0.00000000000E+00 -0.00000000000E+00 -0.60700945174E+03  0.60700945174E+03  0.00000000000E+00 0.  1.
         23    2    1    2    0    0 -0.18099280818E+03 -0.23223498537E+03  0.11111387092E+03  0.32791638292E+03  0.92148667012E+02 0.  0.
        254    2    1    2    0    0  0.18099280818E+03  0.23223498537E+03 -0.49470476932E+02  0.94774591454E+03  0.89949069223E+03 0.  0.
        -24    2    4    4    0    0 -0.89349445508E+02 -0.18706009239E+03 -0.30818865693E+03  0.38017174814E+03  0.81089507603E+02 0.  0.
         24    2    4    4    0    0  0.27034225369E+03  0.41929507776E+03  0.25871818000E+03  0.56757416641E+03  0.79448356472E+02 0.  0.
         11    1    3    3    0    0  0.88291614310E+01 -0.19703644134E+02  0.18058331162E+02  0.28147664345E+02  0.00000000000E+00 0.  1.
        -11    1    3    3    0    0 -0.18982196961E+03 -0.21253134124E+03  0.93055539755E+02  0.29976871857E+03  0.00000000000E+00 0. -1.
          4    1    6    6  502    0  0.25192193241E+03  0.33843794694E+03  0.22385840144E+03  0.47761646522E+03  0.00000000000E+00 0. -1.
          1    1    5    5  503    0 -0.85907508115E+02 -0.14582892116E+03 -0.28819565956E+03  0.33421985636E+03  0.00000000000E+00 0. -1.
         -2    1    5    5    0  503 -0.34419373928E+01 -0.41231171228E+02 -0.19992997372E+02  0.45951891776E+02  0.00000000000E+00 0.  1.
         -3    1    6    6    0  502  0.18420321279E+02  0.80857130825E+02  0.34859778554E+02  0.89957701183E+02  0.00000000000E+00 0.  1.
<mgrwt>
<rscale>  0 0.12741720E+04</rscale>
<asrwt>0</asrwt>
<pdfrwt beam="1">  1        1 0.10286967E+00 0.12741720E+04</pdfrwt>
<pdfrwt beam="2">  1       -1 0.93386069E-01 0.12741720E+04</pdfrwt>
<totfact> 0.31998504E+01</totfact>
</mgrwt>
</event>
<event>
12    1  0.1489233E-007  0.1615106E+04  0.7818608E-02  0.8811321E-01
         -2   -1    0    0    0  501 -0.00000000000E+00  0.00000000000E+00  0.19279760060E+04  0.19279760060E+04  0.00000000000E+00 0.  1.
          2   -1    0    0  501    0  0.00000000000E+00 -0.00000000000E+00 -0.33825189223E+03  0.33825189223E+03  0.00000000000E+00 0. -1.
         23    2    1    2    0    0 -0.54348504526E+03 -0.62657371168E+01  0.36352433140E+03  0.66029241005E+03  0.91765316807E+02 0.  0.
        254    2    1    2    0    0  0.54348504526E+03  0.62657371168E+01  0.12261997824E+04  0.16059354882E+04  0.88320305254E+03 0.  0.
        -24    2    4    4    0    0  0.76871893841E+03 -0.56114487791E+02  0.80186499031E+03  0.11150794867E+04  0.79606262558E+02 0.  0.
         24    2    4    4    0    0 -0.22523389315E+03  0.62380224907E+02  0.42433479206E+03  0.49085600144E+03  0.79107517461E+02 0.  0.
         11    1    3    3    0    0 -0.38536217537E+02  0.78114682239E+01  0.57571622512E+02  0.69717650681E+02  0.00000000000E+00 0. -1.
        -11    1    3    3    0    0 -0.50494882773E+03 -0.14077205341E+02  0.30595270889E+03  0.59057475937E+03  0.00000000000E+00 0.  1.
          4    1    6    6  502    0 -0.43998866681E+02  0.36389319682E+02  0.58400181405E+02  0.81674133263E+02  0.00000000000E+00 0. -1.
          1    1    5    5  503    0  0.56272602847E+02  0.10318303538E+02  0.39509624194E+02  0.69527574552E+02  0.00000000000E+00 0. -1.
         -2    1    5    5    0  503  0.71244633556E+03 -0.66432791328E+02  0.76235536612E+03  0.10455519122E+04  0.00000000000E+00 0.  1.
         -3    1    6    6    0  502 -0.18123502646E+03  0.25990905226E+02  0.36593461065E+03  0.40918186818E+03  0.00000000000E+00 0.  1.
<mgrwt>
<rscale>  0 0.16151056E+04</rscale>
<asrwt>0</asrwt>
<pdfrwt beam="1">  1        2 0.52038754E-01 0.16151056E+04</pdfrwt>
<pdfrwt beam="2">  1       -2 0.29661169E+00 0.16151056E+04</pdfrwt>
<totfact> 0.30738139E+00</totfact>
</mgrwt>
</event>
<event>
12    1  0.1489233E-007  0.2176336E+04  0.7818608E-02  0.8528342E-01
         -2   -1    0    0    0  501 -0.00000000000E+00  0.00000000000E+00  0.42135152954E+03  0.42135152954E+03  0.00000000000E+00 0.  1.
          2   -1    0    0  501    0  0.00000000000E+00 -0.00000000000E+00 -0.28102660109E+04  0.28102660109E+04  0.00000000000E+00 0. -1.
         23    2    1    2    0    0  0.30315962007E+03 -0.50939933427E+03 -0.19960261751E+04  0.20840706702E+04  0.88524740102E+02 0.  0.
        254    2    1    2    0    0 -0.30315962007E+03  0.50939933427E+03 -0.39288830623E+03  0.11475468702E+04  0.90061598986E+03 0.  0.
        -24    2    4    4    0    0  0.14746101302E+03 -0.79595349280E+02 -0.35266964733E+03  0.40059030582E+03  0.89535149393E+02 0.  0.
         24    2    4    4    0    0 -0.45062063308E+03  0.58899468355E+03 -0.40218658893E+02  0.74695656441E+03  0.79704933190E+02 0.  0.
         13    1    3    3    0    0  0.15624080258E+03 -0.33241422173E+03 -0.11422684876E+04  0.11998698683E+04  0.00000000000E+00 0. -1.
        -13    1    3    3    0    0  0.14691881749E+03 -0.17698511254E+03 -0.85375768754E+03  0.88420080187E+03  0.00000000000E+00 0.  1.
          2    1    6    6  502    0 -0.37152525309E+03  0.51543307267E+03 -0.12753055775E+02  0.63550366365E+03  0.00000000000E+00 0. -1.
          3    1    5    5  503    0  0.14346731354E+03 -0.95071925105E+02 -0.30369403178E+03  0.34907249382E+03  0.00000000000E+00 0. -1.
         -4    1    5    5    0  503  0.39936994743E+01  0.15476575825E+02 -0.48975615548E+02  0.51517811999E+02  0.00000000000E+00 0.  1.
         -1    1    6    6    0  502 -0.79095379991E+02  0.73561610883E+02 -0.27465603118E+02  0.11145290075E+03  0.00000000000E+00 0.  1.
<mgrwt>
<rscale>  0 0.21763363E+04</rscale>
<asrwt>0</asrwt>
<pdfrwt beam="1">  1        2 0.43234861E+00 0.21763363E+04</pdfrwt>
<pdfrwt beam="2">  1       -2 0.64823314E-01 0.21763363E+04</pdfrwt>
<totfact> 0.45879008E+00</totfact>
</mgrwt>
</event>
<event>
12    1  0.1489233E-007  0.1284078E+04  0.7818608E-02  0.9042288E-01
          1   -1    0    0  501    0  0.00000000000E+00  0.00000000000E+00  0.14176497670E+03  0.14176497670E+03  0.00000000000E+00 0. -1.
         -1   -1    0    0    0  501 -0.00000000000E+00 -0.00000000000E+00 -0.29077278222E+04  0.29077278222E+04  0.00000000000E+00 0.  1.
         23    2    1    2    0    0  0.21730878950E+03  0.21474096555E+03 -0.91387399124E+03  0.96791834627E+03  0.91451959582E+02 0.  0.
        254    2    1    2    0    0 -0.21730878950E+03 -0.21474096555E+03 -0.18520888543E+04  0.20815744526E+04  0.89965675983E+03 0.  0.
        -24    2    4    4    0    0 -0.47162280118E+02  0.32095371467E+02 -0.17538007844E+04  0.17565035694E+04  0.78950645105E+02 0.  0.
         24    2    4    4    0    0 -0.17014650939E+03 -0.24683633701E+03 -0.98288069851E+02  0.32507088324E+03  0.78310424134E+02 0.  0.
         11    1    3    3    0    0  0.17636179419E+03  0.21298251596E+03 -0.76244102221E+03  0.81103720439E+03  0.00000000000E+00 0.  1.
        -11    1    3    3    0    0  0.40946995318E+02  0.17584495867E+01 -0.15143296903E+03  0.15688114188E+03  0.00000000000E+00 0. -1.
          2    1    6    6  502    0 -0.15408244411E+03 -0.22031391266E+03 -0.11190034088E+03  0.29120663795E+03  0.00000000000E+00 0. -1.
          1    1    5    5  503    0 -0.39259748209E+02  0.57558893814E+02 -0.13763190772E+04  0.13780814767E+04  0.00000000000E+00 0. -1.
         -2    1    5    5    0  503 -0.79025319085E+01 -0.25463522347E+02 -0.37748170722E+03  0.37842209273E+03  0.00000000000E+00 0.  1.
         -1    1    6    6    0  502 -0.16064065273E+02 -0.26522424349E+02  0.13612271027E+02  0.33864245289E+02  0.00000000000E+00 0.  1.
<mgrwt>
<rscale>  0 0.12840778E+04</rscale>
<asrwt>0</asrwt>
<pdfrwt beam="1">  1        1 0.21809999E-01 0.12840778E+04</pdfrwt>
<pdfrwt beam="2">  1       -1 0.44734269E+00 0.12840778E+04</pdfrwt>
<totfact> 0.78646534E-01</totfact>
</mgrwt>
</event>
<event>
12    1  0.1489233E-007  0.1557376E+04  0.7818608E-02  0.8847170E-01
          1   -1    0    0  501    0  0.00000000000E+00  0.00000000000E+00  0.29831573844E+04  0.29831573844E+04  0.00000000000E+00 0. -1.
         -1   -1    0    0    0  501 -0.00000000000E+00 -0.00000000000E+00 -0.20325947112E+03  0.20325947112E+03  0.00000000000E+00 0.  1.
         23    2    1    2    0    0  0.43164860327E+03 -0.15643180816E+03  0.45243278675E+03  0.65060886524E+03  0.88346147033E+02 0.  0.
        254    2    1    2    0    0 -0.43164860327E+03  0.15643180816E+03  0.23274651266E+04  0.25358079903E+04  0.89578837959E+03 0.  0.
        -24    2    4    4    0    0  0.16897426494E+03  0.10729616050E+03  0.14636554159E+04  0.14793840271E+04  0.78899650095E+02 0.  0.
         24    2    4    4    0    0 -0.60062286821E+03  0.49135647666E+02  0.86380971067E+03  0.10564239632E+04  0.81867161746E+02 0.  0.
         11    1    3    3    0    0  0.27385280014E+02 -0.36619413483E+02  0.39152162839E+02  0.60198229710E+02  0.00000000000E+00 0. -1.
        -11    1    3    3    0    0  0.40426332326E+03 -0.11981239468E+03  0.41328062391E+03  0.59041063553E+03  0.00000000000E+00 0.  1.
          4    1    6    6  502    0 -0.32301451263E+03  0.63747075300E+02  0.49730410870E+03  0.59641717070E+03  0.00000000000E+00 0. -1.
          3    1    5    5  503    0  0.14947593536E+03  0.84851152021E+02  0.99105213398E+03  0.10058464622E+04  0.00000000000E+00 0. -1.
         -4    1    5    5    0  503  0.19498329574E+02  0.22445008477E+02  0.47260328190E+03  0.47353756485E+03  0.00000000000E+00 0.  1.
         -3    1    6    6    0  502 -0.27760835558E+03 -0.14611427634E+02  0.36650560196E+03  0.46000679253E+03  0.00000000000E+00 0.  1.
<mgrwt>
<rscale>  0 0.15573760E+04</rscale>
<asrwt>0</asrwt>
<pdfrwt beam="1">  1        1 0.45894726E+00 0.15573760E+04</pdfrwt>
<pdfrwt beam="2">  1       -1 0.31270690E-01 0.15573760E+04</pdfrwt>
<totfact> 0.56454233E+00</totfact>
</mgrwt>
</event>
<event>
12    1  0.1489233E-007  0.1855918E+04  0.7818608E-02  0.8677115E-01
          2   -1    0    0  501    0  0.00000000000E+00  0.00000000000E+00  0.17480368346E+04  0.17480368346E+04  0.00000000000E+00 0. -1.
         -2   -1    0    0    0  501 -0.00000000000E+00 -0.00000000000E+00 -0.49261414865E+03  0.49261414865E+03  0.00000000000E+00 0.  1.
         23    2    1    2    0    0 -0.37616220579E+03 -0.10561807398E+03 -0.20376820815E+03  0.44987909809E+03  0.90645119130E+02 0.  0.
        254    2    1    2    0    0  0.37616220579E+03  0.10561807398E+03  0.14591908941E+04  0.17907718851E+04  0.96175500863E+03 0.  0.
        -24    2    4    4    0    0  0.21490782954E+03 -0.41810067137E+03  0.57005623515E+03  0.74326621910E+03  0.80542005345E+02 0.  0.
         24    2    4    4    0    0  0.16125437626E+03  0.52371874535E+03  0.88913465894E+03  0.10475056661E+04  0.80145995497E+02 0.  0.
         13    1    3    3    0    0 -0.10624893767E+02 -0.10737819544E+02  0.78032615315E+01  0.17002353562E+02  0.00000000000E+00 0. -1.
        -13    1    3    3    0    0 -0.36553731203E+03 -0.94880254438E+02 -0.21157146968E+03  0.43287674452E+03  0.00000000000E+00 0.  1.
          4    1    6    6  502    0  0.13550943187E+03  0.47314342397E+03  0.74806702401E+03  0.89545060064E+03  0.00000000000E+00 0. -1.
          1    1    5    5  503    0  0.97945903335E+02 -0.13390544602E+03  0.24543535583E+03  0.29624750184E+03  0.00000000000E+00 0. -1.
         -2    1    5    5    0  503  0.11696192620E+03 -0.28419522534E+03  0.32462087932E+03  0.44701871726E+03  0.00000000000E+00 0.  1.
         -3    1    6    6    0  502  0.25744944385E+02  0.50575321382E+02  0.14106763493E+03  0.15205506542E+03  0.00000000000E+00 0.  1.
<mgrwt>
<rscale>  0 0.18559178E+04</rscale>
<asrwt>0</asrwt>
<pdfrwt beam="1">  1        2 0.26892874E+00 0.18559178E+04</pdfrwt>
<pdfrwt beam="2">  1       -2 0.75786793E-01 0.18559178E+04</pdfrwt>
<totfact> 0.13521320E+01</totfact>
</mgrwt>
</event>
<event>
12    1  0.1489233E-007  0.2076439E+04  0.7818608E-02  0.8571694E-01
         -1   -1    0    0    0  501 -0.00000000000E+00  0.00000000000E+00  0.57678954357E+03  0.57678954357E+03  0.00000000000E+00 0.  1.
          1   -1    0    0  501    0  0.00000000000E+00 -0.00000000000E+00 -0.18687916406E+04  0.18687916406E+04  0.00000000000E+00 0. -1.
         23    2    1    2    0    0 -0.54413093536E+03 -0.60933184138E+03 -0.53195616489E+03  0.97893043776E+03  0.89239413236E+02 0.  0.
        254    2    1    2    0    0  0.54413093536E+03  0.60933184138E+03 -0.76004593216E+03  0.14666507464E+04  0.95185651506E+03 0.  0.
        -24    2    4    4    0    0 -0.19929962962E+03 -0.70437167304E+02 -0.24349046377E+03  0.33179612225E+03  0.78226107467E+02 0.  0.
         24    2    4    4    0    0  0.74343056499E+03  0.67976900868E+03 -0.51655546839E+03  0.11348546242E+04  0.79313025153E+02 0.  0.
         11    1    3    3    0    0 -0.19137338686E+03 -0.27852176793E+03 -0.23064287313E+03  0.40913846474E+03  0.00000000000E+00 0. -1.
        -11    1    3    3    0    0 -0.35275754851E+03 -0.33081007345E+03 -0.30131329176E+03  0.56979197302E+03  0.00000000000E+00 0.  1.
          4    1    6    6  502    0  0.62621056270E+03  0.60832678216E+03 -0.45325562457E+03  0.98368785900E+03  0.00000000000E+00 0. -1.
          1    1    5    5  503    0 -0.19849394751E+03 -0.49996929207E+02 -0.22557344157E+03  0.30460288520E+03  0.00000000000E+00 0. -1.
         -2    1    5    5    0  503 -0.80568211371E+00 -0.20440238096E+02 -0.17917022197E+02  0.27193237055E+02  0.00000000000E+00 0.  1.
         -3    1    6    6    0  502  0.11722000228E+03  0.71442226525E+02 -0.63299843811E+02  0.15116676517E+03  0.00000000000E+00 0.  1.
<mgrwt>
<rscale>  0 0.20764388E+04</rscale>
<asrwt>0</asrwt>
<pdfrwt beam="1">  1        1 0.28750641E+00 0.20764388E+04</pdfrwt>
<pdfrwt beam="2">  1       -1 0.88736852E-01 0.20764388E+04</pdfrwt>
<totfact> 0.42007761E+00</totfact>
</mgrwt>
</event>
<event>
12    1  0.1489233E-007  0.2857784E+04  0.7818608E-02  0.8285550E-01
         -2   -1    0    0    0  501 -0.00000000000E+00  0.00000000000E+00  0.10519589169E+04  0.10519589169E+04  0.00000000000E+00 0.  1.
          2   -1    0    0  501    0  0.00000000000E+00 -0.00000000000E+00 -0.19408858335E+04  0.19408858335E+04  0.00000000000E+00 0. -1.
         23    2    1    2    0    0  0.65123748639E+03  0.23991317494E+03  0.73794952960E+03  0.10185432703E+04  0.10579362021E+03 0.  0.
        254    2    1    2    0    0 -0.65123748639E+03 -0.23991317494E+03 -0.16268764463E+04  0.19743014801E+04  0.87719482891E+03 0.  0.
        -24    2    4    4    0    0 -0.14081402615E+03 -0.42125004674E+01 -0.13177577837E+04  0.13277380774E+04  0.80972159398E+02 0.  0.
         24    2    4    4    0    0 -0.51042346025E+03 -0.23570067447E+03 -0.30911866259E+03  0.64656340275E+03  0.80018557184E+02 0.  0.
         13    1    3    3    0    0  0.53412215887E+03  0.20611642948E+03  0.54580016688E+03  0.79099196283E+03  0.00000000000E+00 0.  1.
        -13    1    3    3    0    0  0.11711532752E+03  0.33796745463E+02  0.19214936272E+03  0.22755130748E+03  0.00000000000E+00 0. -1.
          4    1    6    6  502    0 -0.33388678849E+03 -0.14017871232E+03 -0.15689469092E+03  0.39464718795E+03  0.00000000000E+00 0. -1.
          3    1    5    5  503    0 -0.14461348435E+03  0.29538209464E+01 -0.10566235033E+04  0.10664778538E+04  0.00000000000E+00 0. -1.
         -4    1    5    5    0  503  0.37994582030E+01 -0.71663214138E+01 -0.26113428036E+03  0.26126022358E+03  0.00000000000E+00 0.  1.
         -3    1    6    6    0  502 -0.17653667176E+03 -0.95521962151E+02 -0.15222397167E+03  0.25191621480E+03  0.00000000000E+00 0.  1.
<mgrwt>
<rscale>  0 0.28577839E+04</rscale>
<asrwt>0</asrwt>
<pdfrwt beam="1">  1        2 0.29859782E+00 0.28577839E+04</pdfrwt>
<pdfrwt beam="2">  1       -2 0.16183983E+00 0.28577839E+04</pdfrwt>
<totfact> 0.15239455E+00</totfact>
</mgrwt>
</event>
<event>
12    1  0.1489233E-007  0.1871335E+04  0.7818608E-02  0.8669258E-01
          2   -1    0    0  501    0  0.00000000000E+00  0.00000000000E+00  0.70499033071E+03  0.70499033071E+03  0.00000000000E+00 0. -1.
         -2   -1    0    0    0  501 -0.00000000000E+00 -0.00000000000E+00 -0.12418233712E+04  0.12418233712E+04  0.00000000000E+00 0.  1.
         23    2    1    2    0    0  0.22536585629E+03  0.74448217275E+02  0.49638213600E+03  0.55701410867E+03  0.86816968865E+02 0.  0.
        254    2    1    2    0    0 -0.22536585629E+03 -0.74448217275E+02 -0.10332151765E+04  0.13897995932E+04  0.89870851903E+03 0.  0.
        -24    2    4    4    0    0  0.16325876288E+03  0.31751565067E+03 -0.33572115416E+03  0.49673283244E+03  0.81025930398E+02 0.  0.
         24    2    4    4    0    0 -0.38862461917E+03 -0.39196386795E+03 -0.69749402230E+03  0.89306676076E+03  0.80034740202E+02 0.  0.
         11    1    3    3    0    0  0.21577708496E+03  0.43647260690E+02  0.42313856489E+03  0.47698121436E+03  0.00000000000E+00 0. -1.
        -11    1    3    3    0    0  0.95887713288E+01  0.30800956586E+02  0.73243571109E+02  0.80032894306E+02  0.00000000000E+00 0.  1.
          4    1    6    6  502    0 -0.16100686593E+03 -0.13160018715E+03 -0.21167945507E+03  0.29673222244E+03  0.00000000000E+00 0. -1.
          3    1    5    5  503    0  0.12620466648E+03  0.29873795865E+03 -0.29141276187E+03  0.43599699948E+03  0.00000000000E+00 0. -1.
         -4    1    5    5    0  503  0.37054096403E+02  0.18777692025E+02 -0.44308392287E+02  0.60735832958E+02  0.00000000000E+00 0.  1.
         -3    1    6    6    0  502 -0.22761775324E+03 -0.26036368080E+03 -0.48581456723E+03  0.59633453833E+03  0.00000000000E+00 0.  1.
<mgrwt>
<rscale>  0 0.18713348E+04</rscale>
<asrwt>0</asrwt>
<pdfrwt beam="1">  1        2 0.10846005E+00 0.18713348E+04</pdfrwt>
<pdfrwt beam="2">  1       -2 0.19104975E+00 0.18713348E+04</pdfrwt>
<totfact> 0.58089738E+00</totfact>
</mgrwt>
</event>
<event>
12    1  0.1489233E-007  0.1917116E+04  0.7818608E-02  0.8646383E-01
          2   -1    0    0  501    0  0.00000000000E+00  0.00000000000E+00  0.18090627440E+04  0.18090627440E+04  0.00000000000E+00 0. -1.
         -2   -1    0    0    0  501 -0.00000000000E+00 -0.00000000000E+00 -0.50790572746E+03  0.50790572746E+03  0.00000000000E+00 0.  1.
         23    2    1    2    0    0  0.64953261378E+03  0.24891512770E+03  0.18594097367E+03  0.72588875268E+03  0.92136194903E+02 0.  0.
        254    2    1    2    0    0 -0.64953261378E+03 -0.24891512770E+03  0.11152160429E+04  0.15910797188E+04  0.89664736214E+03 0.  0.
        -24    2    4    4    0    0 -0.84005307497E+03 -0.95166176306E+02  0.99128535148E+03  0.13053006879E+04  0.80109100054E+02 0.  0.
         24    2    4    4    0    0  0.19052046119E+03 -0.15374895140E+03  0.12393069139E+03  0.28577903086E+03  0.79837660446E+02 0.  0.
         11    1    3    3    0    0  0.11636294067E+03  0.17780045811E+02  0.73133931909E+01  0.11794044985E+03  0.00000000000E+00 0. -1.
        -11    1    3    3    0    0  0.53316967311E+03  0.23113508189E+03  0.17862758047E+03  0.60794830283E+03  0.00000000000E+00 0.  1.
          2    1    6    6  502    0  0.19357369925E+03 -0.15947023375E+03  0.11883067321E+03  0.27752884784E+03  0.00000000000E+00 0. -1.
          1    1    5    5  503    0 -0.80489288164E+03 -0.81184944966E+02  0.92391611661E+03  0.12280327914E+04  0.00000000000E+00 0. -1.
         -2    1    5    5    0  503 -0.35160193332E+02 -0.13981231340E+02  0.67369234870E+02  0.77267896516E+02  0.00000000000E+00 0.  1.
         -1    1    6    6    0  502 -0.30532380606E+01  0.57212823487E+01  0.51000181777E+01  0.82501830150E+01  0.00000000000E+00 0.  1.
<mgrwt>
<rscale>  0 0.19171159E+04</rscale>
<asrwt>0</asrwt>
<pdfrwt beam="1">  1        2 0.27831734E+00 0.19171159E+04</pdfrwt>
<pdfrwt beam="2">  1       -2 0.78139344E-01 0.19171159E+04</pdfrwt>
<totfact> 0.11624444E+01</totfact>
</mgrwt>
</event>
<event>
12    1  0.1489233E-007  0.2117048E+04  0.7818608E-02  0.8553771E-01
         -2   -1    0    0    0  501 -0.00000000000E+00  0.00000000000E+00  0.16614865849E+04  0.16614865849E+04  0.00000000000E+00 0.  1.
          2   -1    0    0  501    0  0.00000000000E+00 -0.00000000000E+00 -0.67437958415E+03  0.67437958415E+03  0.00000000000E+00 0. -1.
         23    2    1    2    0    0  0.58249221403E+03  0.32124717316E+03 -0.19807283421E+03  0.69903845417E+03  0.83216507326E+02 0.  0.
        254    2    1    2    0    0 -0.58249221403E+03 -0.32124717316E+03  0.11851798350E+04  0.16368277149E+04  0.91217147586E+03 0.  0.
        -24    2    4    4    0    0 -0.18778147631E+03  0.28252404263E+03  0.64104825179E+03  0.72971336992E+03  0.80355607229E+02 0.  0.
         24    2    4    4    0    0 -0.39471073772E+03 -0.60377121579E+03  0.54413158320E+03  0.90711434499E+03  0.80255888007E+02 0.  0.
         11    1    3    3    0    0  0.51783413841E+03  0.28588331451E+03 -0.14738607490E+03  0.60959340506E+03  0.00000000000E+00 0. -1.
        -11    1    3    3    0    0  0.64658075621E+02  0.35363858652E+02 -0.50686759311E+02  0.89445049115E+02  0.00000000000E+00 0.  1.
          4    1    6    6  502    0 -0.24085303278E+02 -0.25246055818E+02  0.49338657604E+02  0.60429862672E+02  0.00000000000E+00 0. -1.
          3    1    5    5  503    0 -0.81757643737E+02  0.15163544757E+03  0.24669110261E+03  0.30088888544E+03  0.00000000000E+00 0. -1.
         -4    1    5    5    0  503 -0.10602383258E+03  0.13088859506E+03  0.39435714917E+03  0.42882448449E+03  0.00000000000E+00 0.  1.
         -3    1    6    6    0  502 -0.37062543444E+03 -0.57852515997E+03  0.49479292560E+03  0.84668448232E+03  0.00000000000E+00 0.  1.
<mgrwt>
<rscale>  0 0.21170476E+04</rscale>
<asrwt>0</asrwt>
<pdfrwt beam="1">  1        2 0.10375071E+00 0.21170476E+04</pdfrwt>
<pdfrwt beam="2">  1       -2 0.25561332E+00 0.21170476E+04</pdfrwt>
<totfact> 0.23455052E+00</totfact>
</mgrwt>
</event>
<event>
12    1  0.1489233E-007  0.1443054E+04  0.7818608E-02  0.8923230E-01
          2   -1    0    0  501    0  0.00000000000E+00  0.00000000000E+00  0.44207616251E+03  0.44207616251E+03  0.00000000000E+00 0. -1.
         -2   -1    0    0    0  501 -0.00000000000E+00 -0.00000000000E+00 -0.11776275547E+04  0.11776275547E+04  0.00000000000E+00 0.  1.
         23    2    1    2    0    0  0.33416309374E+03  0.65228646633E+01 -0.55384101150E+03  0.65336888552E+03  0.91888593249E+02 0.  0.
        254    2    1    2    0    0 -0.33416309374E+03 -0.65228646633E+01 -0.18171038073E+03  0.96633483173E+03  0.88829996260E+03 0.  0.
        -24    2    4    4    0    0  0.11490899884E+03  0.31092697234E+03  0.82226743151E+02  0.35079374016E+03  0.80095884426E+02 0.  0.
         24    2    4    4    0    0 -0.44907209258E+03 -0.31744983700E+03 -0.26393712388E+03  0.61554109157E+03  0.82388632126E+02 0.  0.
         13    1    3    3    0    0  0.16803594511E+03  0.48064273539E+02 -0.26035117886E+03  0.31357453592E+03  0.00000000000E+00 0. -1.
        -13    1    3    3    0    0  0.16612714863E+03 -0.41541408875E+02 -0.29348983264E+03  0.33979434961E+03  0.00000000000E+00 0.  1.
          2    1    6    6  502    0 -0.30124157370E+03 -0.23127357245E+03 -0.14215416760E+03  0.40551419014E+03  0.00000000000E+00 0. -1.
          1    1    5    5  503    0  0.11982700018E+03  0.29750941332E+03  0.63041135327E+02  0.32687083952E+03  0.00000000000E+00 0. -1.
         -2    1    5    5    0  503 -0.49180013420E+01  0.13417559019E+02  0.19185607824E+02  0.23922900636E+02  0.00000000000E+00 0.  1.
         -1    1    6    6    0  502 -0.14783051888E+03 -0.86176264554E+02 -0.12178295628E+03  0.21002690143E+03  0.00000000000E+00 0.  1.
<mgrwt>
<rscale>  0 0.14430538E+04</rscale>
<asrwt>0</asrwt>
<pdfrwt beam="1">  1        2 0.68011718E-01 0.14430538E+04</pdfrwt>
<pdfrwt beam="2">  1       -2 0.18117347E+00 0.14430538E+04</pdfrwt>
<totfact> 0.12242552E+01</totfact>
</mgrwt>
</event>
<event>
12    1  0.1489233E-007  0.1298564E+04  0.7818608E-02  0.9030705E-01
         -1   -1    0    0    0  501 -0.00000000000E+00  0.00000000000E+00  0.28225924627E+03  0.28225924627E+03  0.00000000000E+00 0.  1.
          1   -1    0    0  501    0  0.00000000000E+00 -0.00000000000E+00 -0.14935460416E+04  0.14935460416E+04  0.00000000000E+00 0. -1.
         23    2    1    2    0    0 -0.11449556936E+03  0.30656908131E+03 -0.27375868980E+03  0.43850664771E+03  0.10124437184E+03 0.  0.
        254    2    1    2    0    0  0.11449556936E+03 -0.30656908131E+03 -0.93752810557E+03  0.13372986402E+04  0.89572030642E+03 0.  0.
        -24    2    4    4    0    0  0.28446341362E+03 -0.51322090047E+03 -0.35226929689E+03  0.68881288780E+03  0.77810092521E+02 0.  0.
         24    2    4    4    0    0 -0.16996784427E+03  0.20665181917E+03 -0.58525880869E+03  0.64848575240E+03  0.80074062431E+02 0.  0.
         11    1    3    3    0    0 -0.12592442517E+03  0.22131011228E+03 -0.22398434933E+03  0.33912256692E+03  0.00000000000E+00 0. -1.
        -11    1    3    3    0    0  0.11428855811E+02  0.85258969030E+02 -0.49774340466E+02  0.99384080788E+02  0.00000000000E+00 0.  1.
          4    1    6    6  502    0 -0.24651162375E+02  0.48774874347E+02 -0.60372923560E+02  0.81434378940E+02  0.00000000000E+00 0. -1.
          1    1    5    5  503    0  0.54719378920E+02 -0.60758347258E+02 -0.72894917874E+02  0.10954202957E+03  0.00000000000E+00 0. -1.
         -2    1    5    5    0  503  0.22974403470E+03 -0.45246255321E+03 -0.27937437901E+03  0.57927085823E+03  0.00000000000E+00 0.  1.
         -3    1    6    6    0  502 -0.14531668189E+03  0.15787694482E+03 -0.52488588513E+03  0.56705137346E+03  0.00000000000E+00 0.  1.
<mgrwt>
<rscale>  0 0.12985641E+04</rscale>
<asrwt>0</asrwt>
<pdfrwt beam="1">  1        1 0.22977632E+00 0.12985641E+04</pdfrwt>
<pdfrwt beam="2">  1       -1 0.43424498E-01 0.12985641E+04</pdfrwt>
<totfact> 0.33987438E+01</totfact>
</mgrwt>
</event>
<event>
12    1  0.1489233E-007  0.1852637E+04  0.7818608E-02  0.8678798E-01
         -1   -1    0    0    0  501 -0.00000000000E+00  0.00000000000E+00  0.39898962294E+03  0.39898962294E+03  0.00000000000E+00 0.  1.
          1   -1    0    0  501    0  0.00000000000E+00 -0.00000000000E+00 -0.21505974689E+04  0.21505974689E+04  0.00000000000E+00 0. -1.
         23    2    1    2    0    0  0.18519717920E+03 -0.60313106451E+03 -0.11086710996E+04  0.12787513634E+04  0.89377660390E+02 0.  0.
        254    2    1    2    0    0 -0.18519717920E+03  0.60313106451E+03 -0.64293674636E+03  0.12708357284E+04  0.89643221312E+03 0.  0.
        -24    2    4    4    0    0  0.41473384788E+02  0.78735189821E+03 -0.47372148406E+03  0.92334368937E+03  0.80675095142E+02 0.  0.
         24    2    4    4    0    0 -0.22667056399E+03 -0.18422083370E+03 -0.16921526230E+03  0.34749203908E+03  0.82462428285E+02 0.  0.
         11    1    3    3    0    0  0.39516058597E+02 -0.86312940171E+02 -0.11354727157E+03  0.14800143719E+03  0.00000000000E+00 0. -1.
        -11    1    3    3    0    0  0.14568112060E+03 -0.51681812434E+03 -0.99512382806E+03  0.11307499262E+04  0.00000000000E+00 0.  1.
          2    1    6    6  502    0 -0.66630047030E+02 -0.13204586405E+02 -0.24710466096E+02  0.72280920055E+02  0.00000000000E+00 0. -1.
          3    1    5    5  503    0  0.77043976587E+01  0.34405655557E+03 -0.25200119448E+03  0.42654293241E+03  0.00000000000E+00 0. -1.
         -4    1    5    5    0  503  0.33768987129E+02  0.44329534264E+03 -0.22172028958E+03  0.49680075696E+03  0.00000000000E+00 0.  1.
         -1    1    6    6    0  502 -0.16004051696E+03 -0.17101624730E+03 -0.14450479620E+03  0.27521111902E+03  0.00000000000E+00 0.  1.
<mgrwt>
<rscale>  0 0.18526371E+04</rscale>
<asrwt>0</asrwt>
<pdfrwt beam="1">  1        1 0.33086114E+00 0.18526371E+04</pdfrwt>
<pdfrwt beam="2">  1       -1 0.61383020E-01 0.18526371E+04</pdfrwt>
<totfact> 0.59541319E+00</totfact>
</mgrwt>
</event>
<event>
12    1  0.1489233E-007  0.1411884E+04  0.7818608E-02  0.8945261E-01
         -2   -1    0    0    0  501 -0.00000000000E+00  0.00000000000E+00  0.28923417465E+03  0.28923417465E+03  0.00000000000E+00 0.  1.
          2   -1    0    0  501    0  0.00000000000E+00 -0.00000000000E+00 -0.17230119728E+04  0.17230119728E+04  0.00000000000E+00 0. -1.
         23    2    1    2    0    0 -0.34982330610E+03 -0.92212912915E+02 -0.33943421130E+03  0.50426398623E+03  0.90482137485E+02 0.  0.
        254    2    1    2    0    0  0.34982330610E+03  0.92212912915E+02 -0.10943435868E+04  0.15079821612E+04  0.97239022292E+03 0.  0.
        -24    2    4    4    0    0  0.37456571235E+02  0.45747969637E+03 -0.83497210421E+03  0.95598663912E+03  0.77726263534E+02 0.  0.
         24    2    4    4    0    0  0.31236673487E+03 -0.36526678346E+03 -0.25937148261E+03  0.55199552206E+03  0.80204053743E+02 0.  0.
         13    1    3    3    0    0 -0.29846687688E+03 -0.96511564122E+02 -0.25031327044E+03  0.40131495357E+03  0.00000000000E+00 0. -1.
        -13    1    3    3    0    0 -0.51356429225E+02  0.42986512073E+01 -0.89120940855E+02  0.10294903265E+03  0.00000000000E+00 0.  1.
          2    1    6    6  502    0  0.12273782132E+03 -0.98726986434E+02 -0.57925699489E+02  0.16783020376E+03  0.00000000000E+00 0. -1.
          3    1    5    5  503    0 -0.13384045131E+02  0.48391924292E+02 -0.12962553722E+03  0.13900967916E+03  0.00000000000E+00 0. -1.
         -4    1    5    5    0  503  0.50840616367E+02  0.40908777208E+03 -0.70534656700E+03  0.81697695996E+03  0.00000000000E+00 0.  1.
         -1    1    6    6    0  502  0.18962891355E+03 -0.26653979702E+03 -0.20144578312E+03  0.38416531830E+03  0.00000000000E+00 0.  1.
<mgrwt>
<rscale>  0 0.14118838E+04</rscale>
<asrwt>0</asrwt>
<pdfrwt beam="1">  1        2 0.26507877E+00 0.14118838E+04</pdfrwt>
<pdfrwt beam="2">  1       -2 0.44497565E-01 0.14118838E+04</pdfrwt>
<totfact> 0.44346578E+01</totfact>
</mgrwt>
</event>
<event>
12    1  0.2129705E-007  0.1362457E+04  0.7818608E-02  0.8981452E-01
         -1   -1    0    0    0  501 -0.00000000000E+00  0.00000000000E+00  0.40784704586E+03  0.40784704586E+03  0.00000000000E+00 0.  1.
          1   -1    0    0  501    0  0.00000000000E+00 -0.00000000000E+00 -0.11378582350E+04  0.11378582350E+04  0.00000000000E+00 0. -1.
         23    2    1    2    0    0  0.11287422755E+03 -0.16975784686E+03  0.15237783375E+03  0.27086477028E+03  0.92684420166E+02 0.  0.
        254    2    1    2    0    0 -0.11287422755E+03  0.16975784686E+03 -0.88238902285E+03  0.12748405105E+04  0.89724557500E+03 0.  0.
        -24    2    4    4    0    0 -0.23984168498E+03  0.49848330907E+03 -0.52738311706E+03  0.76843498083E+03  0.79685157527E+02 0.  0.
         24    2    4    4    0    0  0.12696745742E+03 -0.32872546220E+03 -0.35500590579E+03  0.50640552972E+03  0.78969631128E+02 0.  0.
         11    1    3    3    0    0  0.21138033699E+02 -0.15313257050E+02 -0.10735869731E+02  0.28223593127E+02  0.00000000000E+00 0. -1.
        -11    1    3    3    0    0  0.91736193854E+02 -0.15444458981E+03  0.16311370348E+03  0.24264117715E+03  0.00000000000E+00 0.  1.
          4    1    6    6  502    0  0.49004723985E+02 -0.45733696237E+02 -0.55283541683E+02  0.86886730433E+02  0.00000000000E+00 0. -1.
          3    1    5    5  503    0 -0.17974748470E+02  0.16232332574E+02 -0.45266710930E+02  0.51338633813E+02  0.00000000000E+00 0. -1.
         -4    1    5    5    0  503 -0.22186693651E+03  0.48225097649E+03 -0.48211640613E+03  0.71709634702E+03  0.00000000000E+00 0.  1.
         -3    1    6    6    0  502  0.77962733438E+02 -0.28299176596E+03 -0.29972236410E+03  0.41951879928E+03  0.00000000000E+00 0.  1.
<mgrwt>
<rscale>  0 0.13624568E+04</rscale>
<asrwt>0</asrwt>
<pdfrwt beam="1">  1        1 0.17505511E+00 0.13624568E+04</pdfrwt>
<pdfrwt beam="2">  1       -1 0.62745700E-01 0.13624568E+04</pdfrwt>
<totfact> 0.29921562E+01</totfact>
</mgrwt>
</event>
<event>
12    1  0.1489233E-007  0.2475726E+04  0.7818608E-02  0.8411685E-01
          2   -1    0    0  501    0  0.00000000000E+00  0.00000000000E+00  0.17842893199E+04  0.17842893199E+04  0.00000000000E+00 0. -1.
         -2   -1    0    0    0  501 -0.00000000000E+00 -0.00000000000E+00 -0.85877612665E+03  0.85877612665E+03  0.00000000000E+00 0.  1.
         23    2    1    2    0    0  0.71505047666E+03 -0.64672090683E+03 -0.10158908092E+03  0.97373035297E+03  0.91023861941E+02 0.  0.
        254    2    1    2    0    0 -0.71505047666E+03  0.64672090683E+03  0.10271022742E+04  0.16693350936E+04  0.89565364822E+03 0.  0.
        -24    2    4    4    0    0 -0.12832213802E+02  0.57575224795E+02 -0.14692649787E+03  0.17790662779E+03  0.81140620018E+02 0.  0.
         24    2    4    4    0    0 -0.70221826285E+03  0.58914568203E+03  0.11740287720E+04  0.14914284658E+04  0.76237705007E+02 0.  0.
         11    1    3    3    0    0  0.10028478391E+03 -0.52541029243E+02 -0.51638505032E+01  0.11333253279E+03  0.00000000000E+00 0. -1.
        -11    1    3    3    0    0  0.61476569275E+03 -0.59417987758E+03 -0.96425230412E+02  0.86039782018E+03  0.00000000000E+00 0.  1.
          4    1    6    6  502    0 -0.37050518309E+03  0.26871965224E+03  0.61767215419E+03  0.76876734598E+03  0.00000000000E+00 0. -1.
          1    1    5    5  503    0 -0.20145850160E+02 -0.15279495138E+02 -0.24212930968E+02  0.35008345811E+02  0.00000000000E+00 0. -1.
         -2    1    5    5    0  503  0.73136363575E+01  0.72854719933E+02 -0.12271356690E+03  0.14289828198E+03  0.00000000000E+00 0.  1.
         -3    1    6    6    0  502 -0.33171307977E+03  0.32042602979E+03  0.55635661784E+03  0.72266111980E+03  0.00000000000E+00 0.  1.
<mgrwt>
<rscale>  0 0.24757262E+04</rscale>
<asrwt>0</asrwt>
<pdfrwt beam="1">  1        2 0.27450605E+00 0.24757262E+04</pdfrwt>
<pdfrwt beam="2">  1       -2 0.13211940E+00 0.24757262E+04</pdfrwt>
<totfact> 0.32798485E+00</totfact>
</mgrwt>
</event>
<event>
12    1  0.1489233E-007  0.2301871E+04  0.7818608E-02  0.8477184E-01
          2   -1    0    0  501    0  0.00000000000E+00  0.00000000000E+00  0.21331634209E+04  0.21331634209E+04  0.00000000000E+00 0. -1.
         -2   -1    0    0    0  501 -0.00000000000E+00 -0.00000000000E+00 -0.62098022520E+03  0.62098022520E+03  0.00000000000E+00 0.  1.
         23    2    1    2    0    0  0.15976233494E+03  0.19539804959E+03 -0.48227551710E+03  0.55171892184E+03  0.89998293741E+02 0.  0.
        254    2    1    2    0    0 -0.15976233494E+03 -0.19539804959E+03  0.19944587128E+04  0.22024247243E+04  0.89950247777E+03 0.  0.
        -24    2    4    4    0    0 -0.33048308810E+03 -0.66016272888E+02  0.21366975957E+03  0.40701655121E+03  0.80190317349E+02 0.  0.
         24    2    4    4    0    0  0.17072075316E+03 -0.12938177670E+03  0.17807889532E+04  0.17954081730E+04  0.79974947410E+02 0.  0.
         13    1    3    3    0    0  0.64850640619E+02  0.13910663652E+03 -0.32698736723E+03  0.36121600220E+03  0.00000000000E+00 0.  1.
        -13    1    3    3    0    0  0.94911694324E+02  0.56291413066E+02 -0.15528814986E+03  0.19050291964E+03  0.00000000000E+00 0. -1.
          2    1    6    6  502    0 -0.14469256720E+01 -0.22738459282E+02  0.10613966036E+03  0.10855762813E+03  0.00000000000E+00 0. -1.
          1    1    5    5  503    0 -0.14882303848E+03 -0.61601929811E+02  0.12990261901E+03  0.20692458762E+03  0.00000000000E+00 0. -1.
         -2    1    5    5    0  503 -0.18166004962E+03 -0.44143430772E+01  0.83767140566E+02  0.20009196359E+03  0.00000000000E+00 0.  1.
         -1    1    6    6    0  502  0.17216767883E+03 -0.10664331742E+03  0.16746492929E+04  0.16868505449E+04  0.00000000000E+00 0.  1.
<mgrwt>
<rscale>  0 0.23018708E+04</rscale>
<asrwt>0</asrwt>
<pdfrwt beam="1">  1        2 0.32817898E+00 0.23018708E+04</pdfrwt>
<pdfrwt beam="2">  1       -2 0.95535420E-01 0.23018708E+04</pdfrwt>
<totfact> 0.46937503E+00</totfact>
</mgrwt>
</event>
<event>
12    1  0.1489233E-007  0.1196897E+04  0.7818608E-02  0.9115577E-01
          2   -1    0    0  501    0  0.00000000000E+00  0.00000000000E+00  0.14452309689E+04  0.14452309689E+04  0.00000000000E+00 0. -1.
         -2   -1    0    0    0  501 -0.00000000000E+00 -0.00000000000E+00 -0.24780875082E+03  0.24780875082E+03  0.00000000000E+00 0.  1.
         23    2    1    2    0    0  0.43050306540E+02 -0.20200009492E+03  0.35784468087E+03  0.42228834379E+03  0.87276929530E+02 0.  0.
        254    2    1    2    0    0 -0.43050306540E+02  0.20200009492E+03  0.83957753720E+03  0.12707513759E+04  0.93126862462E+03 0.  0.
        -24    2    4    4    0    0 -0.44983478872E+03  0.14990694628E+03  0.23250271782E+03  0.53373402463E+03  0.77401973935E+02 0.  0.
         24    2    4    4    0    0  0.40678448218E+03  0.52093148640E+02  0.60707481938E+03  0.73701735130E+03  0.80420325249E+02 0.  0.
         13    1    3    3    0    0  0.28287464945E+02 -0.65671173844E+02  0.20416745600E+03  0.21632668313E+03  0.00000000000E+00 0. -1.
        -13    1    3    3    0    0  0.14762841595E+02 -0.13632892108E+03  0.15367722488E+03  0.20596166065E+03  0.00000000000E+00 0.  1.
          2    1    6    6  502    0  0.24247437822E+03 -0.71928926437E+01  0.37316512009E+03  0.44508175502E+03  0.00000000000E+00 0. -1.
          1    1    5    5  503    0 -0.36811273952E+02 -0.88519886750E+01  0.21084891778E+02  0.43335900300E+02  0.00000000000E+00 0. -1.
         -2    1    5    5    0  503 -0.41302351477E+03  0.15875893495E+03  0.21141782604E+03  0.49039812433E+03  0.00000000000E+00 0.  1.
         -1    1    6    6    0  502  0.16431010396E+03  0.59286041284E+02  0.23390969929E+03  0.29193559628E+03  0.00000000000E+00 0.  1.
<mgrwt>
<rscale>  0 0.11968975E+04</rscale>
<asrwt>0</asrwt>
<pdfrwt beam="1">  1        2 0.22234322E+00 0.11968975E+04</pdfrwt>
<pdfrwt beam="2">  1       -2 0.38124424E-01 0.11968975E+04</pdfrwt>
<totfact> 0.87356959E+01</totfact>
</mgrwt>
</event>
<event>
12    1  0.1489233E-007  0.1457007E+04  0.7818608E-02  0.8913557E-01
          1   -1    0    0  501    0  0.00000000000E+00  0.00000000000E+00  0.55168050797E+03  0.55168050797E+03  0.00000000000E+00 0. -1.
         -1   -1    0    0    0  501 -0.00000000000E+00 -0.00000000000E+00 -0.96200186972E+03  0.96200186972E+03  0.00000000000E+00 0.  1.
         23    2    1    2    0    0  0.47657292453E+02  0.13784850835E+03 -0.56011774711E+03  0.58591976054E+03  0.91085928581E+02 0.  0.
        254    2    1    2    0    0 -0.47657292453E+02 -0.13784850835E+03  0.14979638536E+03  0.92776261715E+03  0.90389771985E+03 0.  0.
        -24    2    4    4    0    0 -0.14524989420E+03  0.36020659896E+03  0.11757054808E+03  0.41341176040E+03  0.78994456494E+02 0.  0.
         24    2    4    4    0    0  0.97592601747E+02 -0.49805510731E+03  0.32225837283E+02  0.51435085676E+03  0.77039557529E+02 0.  0.
         11    1    3    3    0    0  0.67468485193E+02  0.10438225273E+03 -0.33182420051E+03  0.35433734099E+03  0.00000000000E+00 0.  1.
        -11    1    3    3    0    0 -0.19811192740E+02  0.33466255616E+02 -0.22829354660E+03  0.23158241954E+03  0.00000000000E+00 0. -1.
          2    1    6    6  502    0  0.10074620176E+03 -0.37837637078E+03  0.44140504802E+02  0.39403915960E+03  0.00000000000E+00 0. -1.
          1    1    5    5  503    0 -0.12922311708E+03  0.27271417402E+03  0.11914658430E+03  0.32444960048E+03  0.00000000000E+00 0. -1.
         -2    1    5    5    0  503 -0.16026777122E+02  0.87492424943E+02 -0.15760362233E+01  0.88962159920E+02  0.00000000000E+00 0.  1.
         -1    1    6    6    0  502 -0.31536000159E+01 -0.11967873653E+03 -0.11914667520E+02  0.12031169716E+03  0.00000000000E+00 0.  1.
<mgrwt>
<rscale>  0 0.14570075E+04</rscale>
<asrwt>0</asrwt>
<pdfrwt beam="1">  1        1 0.84873925E-01 0.14570075E+04</pdfrwt>
<pdfrwt beam="2">  1       -1 0.14800029E+00 0.14570075E+04</pdfrwt>
<totfact> 0.13563342E+01</totfact>
</mgrwt>
</event>
<event>
12    1  0.1489233E-007  0.1707050E+04  0.7818608E-02  0.8757354E-01
          1   -1    0    0  501    0  0.00000000000E+00  0.00000000000E+00  0.18253306036E+04  0.18253306036E+04  0.00000000000E+00 0. -1.
         -1   -1    0    0    0  501 -0.00000000000E+00 -0.00000000000E+00 -0.39910854083E+03  0.39910854083E+03  0.00000000000E+00 0.  1.
         23    2    1    2    0    0  0.32197130407E+03  0.21481131903E+03  0.10386105703E+04  0.11125695273E+04  0.96382638851E+02 0.  0.
        254    2    1    2    0    0 -0.32197130407E+03 -0.21481131903E+03  0.38761149247E+03  0.11118696170E+04  0.96757529567E+03 0.  0.
        -24    2    4    4    0    0 -0.18694704625E+03 -0.55982292086E+03  0.42479790247E+03  0.73140658093E+03  0.78431038911E+02 0.  0.
         24    2    4    4    0    0 -0.13502425781E+03  0.34501160183E+03 -0.37186409998E+02  0.38046303612E+03  0.78132817495E+02 0.  0.
         13    1    3    3    0    0  0.18272986521E+02  0.10177747430E+02  0.15009464935E+03  0.15154501755E+03  0.00000000000E+00 0.  1.
        -13    1    3    3    0    0  0.30369831755E+03  0.20463357160E+03  0.88851592091E+03  0.96102450979E+03  0.00000000000E+00 0. -1.
          4    1    6    6  502    0 -0.13264967020E+03  0.27449664840E+03 -0.49444241680E+02  0.30885122312E+03  0.00000000000E+00 0. -1.
          1    1    5    5  503    0 -0.16563850382E+03 -0.46848414132E+03  0.32129559850E+03  0.59172997747E+03  0.00000000000E+00 0. -1.
         -2    1    5    5    0  503 -0.21308542431E+02 -0.91338779534E+02  0.10350230397E+03  0.13967660346E+03  0.00000000000E+00 0.  1.
         -3    1    6    6    0  502 -0.23745876110E+01  0.70514953426E+02  0.12257831682E+02  0.71611812996E+02  0.00000000000E+00 0.  1.
<mgrwt>
<rscale>  0 0.17070501E+04</rscale>
<asrwt>0</asrwt>
<pdfrwt beam="1">  1        1 0.28082009E+00 0.17070501E+04</pdfrwt>
<pdfrwt beam="2">  1       -1 0.61401315E-01 0.17070501E+04</pdfrwt>
<totfact> 0.10018718E+01</totfact>
</mgrwt>
</event>
<event>
12    1  0.1489233E-007  0.3555042E+04  0.7818608E-02  0.8100868E-01
          2   -1    0    0  501    0  0.00000000000E+00  0.00000000000E+00  0.40839270741E+04  0.40839270741E+04  0.00000000000E+00 0. -1.
         -2   -1    0    0    0  501 -0.00000000000E+00 -0.00000000000E+00 -0.77366225851E+03  0.77366225851E+03  0.00000000000E+00 0.  1.
         23    2    1    2    0    0  0.37696811574E+03 -0.36348338551E+03  0.37056863803E+04  0.37437076837E+04  0.94923867813E+02 0.  0.
        254    2    1    2    0    0 -0.37696811574E+03  0.36348338551E+03 -0.39542156468E+03  0.11138816488E+04  0.90008276398E+03 0.  0.
        -24    2    4    4    0    0 -0.33253649368E+03  0.43313247522E+02  0.22351260841E+03  0.41110712565E+03  0.81207300221E+02 0.  0.
         24    2    4    4    0    0 -0.44431622060E+02  0.32017013799E+03 -0.61893417309E+03  0.70277452320E+03  0.79557737148E+02 0.  0.
         11    1    3    3    0    0  0.19105610411E+03 -0.19391532804E+03  0.22534072212E+04  0.22697906718E+04  0.00000000000E+00 0.  1.
        -11    1    3    3    0    0  0.18591201163E+03 -0.16956805747E+03  0.14522791591E+04  0.14739170119E+04  0.00000000000E+00 0. -1.
          2    1    6    6  502    0 -0.26347518582E+02  0.29958375051E+03 -0.52621852543E+03  0.60609450733E+03  0.00000000000E+00 0. -1.
          1    1    5    5  503    0 -0.71732477356E+02 -0.56956771884E+01  0.86297384524E+02  0.11236203817E+03  0.00000000000E+00 0. -1.
         -2    1    5    5    0  503 -0.26080401632E+03  0.49008924710E+02  0.13721522388E+03  0.29874508748E+03  0.00000000000E+00 0.  1.
         -1    1    6    6    0  502 -0.18084103478E+02  0.20586387474E+02 -0.92715647652E+02  0.96680015864E+02  0.00000000000E+00 0.  1.
<mgrwt>
<rscale>  0 0.35550416E+04</rscale>
<asrwt>0</asrwt>
<pdfrwt beam="1">  1        2 0.62829646E+00 0.35550416E+04</pdfrwt>
<pdfrwt beam="2">  1       -2 0.11902496E+00 0.35550416E+04</pdfrwt>
<totfact> 0.12898623E-01</totfact>
</mgrwt>
</event>
<event>
12    1  0.1489233E-007  0.2307042E+04  0.7818608E-02  0.8475150E-01
         -2   -1    0    0    0  501 -0.00000000000E+00  0.00000000000E+00  0.22555851832E+04  0.22555851832E+04  0.00000000000E+00 0.  1.
          2   -1    0    0  501    0  0.00000000000E+00 -0.00000000000E+00 -0.58991823410E+03  0.58991823410E+03  0.00000000000E+00 0. -1.
         23    2    1    2    0    0  0.69860279088E+03 -0.62937810811E+03  0.38383271257E+03  0.10211207856E+04  0.10581798090E+03 0.  0.
        254    2    1    2    0    0 -0.69860279088E+03  0.62937810811E+03  0.12818342366E+04  0.18243826318E+04  0.89504766058E+03 0.  0.
        -24    2    4    4    0    0  0.15760257113E+03  0.13162163196E+03  0.24842888674E+02  0.22216853532E+03  0.81110200000E+02 0.  0.
         24    2    4    4    0    0 -0.85620536200E+03  0.49775647615E+03  0.12569913479E+04  0.16022140965E+04  0.78826586457E+02 0.  0.
         13    1    3    3    0    0  0.38523819161E+03 -0.36620659083E+03  0.27107587966E+03  0.59665556561E+03  0.00000000000E+00 0. -1.
        -13    1    3    3    0    0  0.31336459927E+03 -0.26317151728E+03  0.11275683291E+03  0.42446521995E+03  0.00000000000E+00 0.  1.
          4    1    6    6  502    0 -0.75111346852E+03  0.43746606948E+03  0.11420442734E+04  0.14352049076E+04  0.00000000000E+00 0. -1.
          3    1    5    5  503    0  0.15787034195E+03  0.14018652159E+03  0.28122339157E+02  0.21299336061E+03  0.00000000000E+00 0. -1.
         -4    1    5    5    0  503 -0.26777082329E+00 -0.85648896300E+01 -0.32794504832E+01  0.91751747155E+01  0.00000000000E+00 0.  1.
         -3    1    6    6    0  502 -0.10509189348E+03  0.60290406667E+02  0.11494707453E+03  0.16700918883E+03  0.00000000000E+00 0.  1.
<mgrwt>
<rscale>  0 0.23070421E+04</rscale>
<asrwt>0</asrwt>
<pdfrwt beam="1">  1        2 0.90756653E-01 0.23070421E+04</pdfrwt>
<pdfrwt beam="2">  1       -2 0.34701310E+00 0.23070421E+04</pdfrwt>
<totfact> 0.74599977E-01</totfact>
</mgrwt>
</event>
<event>
12    1  0.1489233E-007  0.1999121E+04  0.7818608E-02  0.8607032E-01
          1   -1    0    0  501    0  0.00000000000E+00  0.00000000000E+00  0.69730402686E+03  0.69730402686E+03  0.00000000000E+00 0. -1.
         -1   -1    0    0    0  501 -0.00000000000E+00 -0.00000000000E+00 -0.14328344135E+04  0.14328344135E+04  0.00000000000E+00 0.  1.
         23    2    1    2    0    0  0.52934942833E+03 -0.54177459511E+03 -0.10815297010E+03  0.76997873157E+03  0.86253422815E+02 0.  0.
        254    2    1    2    0    0 -0.52934942833E+03  0.54177459511E+03 -0.62737741655E+03  0.13601597088E+04  0.93952194304E+03 0.  0.
        -24    2    4    4    0    0  0.92209617434E+02  0.16146510828E+03 -0.59288135088E+03  0.62639579730E+03  0.79308284019E+02 0.  0.
         24    2    4    4    0    0 -0.62155904576E+03  0.38030948684E+03 -0.34496065665E+02  0.73376391150E+03  0.79047745841E+02 0.  0.
         13    1    3    3    0    0  0.41530513119E+03 -0.47175696146E+03 -0.90308065736E+02  0.63497128235E+03  0.00000000000E+00 0.  1.
        -13    1    3    3    0    0  0.11404429713E+03 -0.70017633657E+02 -0.17844904359E+02  0.13500744921E+03  0.00000000000E+00 0. -1.
          2    1    6    6  502    0 -0.46279056638E+03  0.31672979092E+03 -0.43653982343E+02  0.56249314570E+03  0.00000000000E+00 0. -1.
          1    1    5    5  503    0  0.72793910377E+02  0.49736827044E+02 -0.23598480232E+03  0.25191572456E+03  0.00000000000E+00 0. -1.
         -2    1    5    5    0  503  0.19415707058E+02  0.11172828123E+03 -0.35689654856E+03  0.37448007274E+03  0.00000000000E+00 0.  1.
         -1    1    6    6    0  502 -0.15876847938E+03  0.63579695914E+02  0.91579166778E+01  0.17127076579E+03  0.00000000000E+00 0.  1.
<mgrwt>
<rscale>  0 0.19991210E+04</rscale>
<asrwt>0</asrwt>
<pdfrwt beam="1">  1        1 0.10727754E+00 0.19991210E+04</pdfrwt>
<pdfrwt beam="2">  1       -1 0.22043606E+00 0.19991210E+04</pdfrwt>
<totfact> 0.27787458E+00</totfact>
</mgrwt>
</event>
<event>
12    1  0.1489233E-007  0.2834637E+04  0.7818608E-02  0.8292595E-01
          2   -1    0    0  501    0  0.00000000000E+00  0.00000000000E+00  0.12975182670E+04  0.12975182670E+04  0.00000000000E+00 0.  1.
         -2   -1    0    0    0  501 -0.00000000000E+00 -0.00000000000E+00 -0.15481803473E+04  0.15481803473E+04  0.00000000000E+00 0. -1.
         23    2    1    2    0    0  0.64506062425E+03  0.99988553300E+03  0.34061496685E+03  0.12410949756E+04  0.91781778196E+02 0.  0.
        254    2    1    2    0    0 -0.64506062425E+03 -0.99988553300E+03 -0.59127704722E+03  0.16046036387E+04  0.89959435446E+03 0.  0.
        -24    2    4    4    0    0 -0.47448463891E+03 -0.89771140684E+03 -0.80771689507E+03  0.12999077629E+04  0.79574914289E+02 0.  0.
         24    2    4    4    0    0 -0.17057598533E+03 -0.10217412616E+03  0.21643984785E+03  0.30469587574E+03  0.80359505508E+02 0.  0.
         11    1    3    3    0    0  0.57778776957E+03  0.83607518486E+03  0.28577841550E+03  0.10557128986E+04  0.00000000000E+00 0.  1.
        -11    1    3    3    0    0  0.67272854679E+02  0.16381034814E+03  0.54836551349E+02  0.18538207707E+03  0.00000000000E+00 0. -1.
          4    1    6    6  502    0 -0.97606814427E+02 -0.47323959365E+02  0.17155488047E+03  0.20297222560E+03  0.00000000000E+00 0. -1.
          1    1    5    5  503    0 -0.91272130364E+02 -0.20857723244E+03 -0.14540955041E+03  0.27014625857E+03  0.00000000000E+00 0. -1.
         -2    1    5    5    0  503 -0.38321250855E+03 -0.68913417441E+03 -0.66230734466E+03  0.10297615043E+04  0.00000000000E+00 0.  1.
         -3    1    6    6    0  502 -0.72969170907E+02 -0.54850166792E+02  0.44884967377E+02  0.10172365013E+03  0.00000000000E+00 0.  1.
<mgrwt>
<rscale>  0 0.28346374E+04</rscale>
<asrwt>0</asrwt>
<pdfrwt beam="1">  1        2 0.19961820E+00 0.28346374E+04</pdfrwt>
<pdfrwt beam="2">  1       -2 0.23818159E+00 0.28346374E+04</pdfrwt>
<totfact> 0.10941623E+00</totfact>
</mgrwt>
</event>
<event>
12    1  0.1489233E-007  0.1218006E+04  0.7818608E-02  0.9097240E-01
         -2   -1    0    0    0  501 -0.00000000000E+00  0.00000000000E+00  0.51013820241E+03  0.51013820241E+03  0.00000000000E+00 0.  1.
          2   -1    0    0  501    0  0.00000000000E+00 -0.00000000000E+00 -0.72702814455E+03  0.72702814455E+03  0.00000000000E+00 0. -1.
         23    2    1    2    0    0 -0.84119081436E+02 -0.43095857599E+02 -0.31198414660E+03  0.33864293310E+03  0.91715078395E+02 0.  0.
        254    2    1    2    0    0  0.84119081436E+02  0.43095857599E+02  0.95094204470E+02  0.89852341385E+03  0.88846392426E+03 0.  0.
        -24    2    4    4    0    0  0.39933932072E+03  0.19391940599E+03  0.24161605584E+03  0.51187734182E+03  0.81015217962E+02 0.  0.
         24    2    4    4    0    0 -0.31522023928E+03 -0.15082354839E+03 -0.14652185137E+03  0.38664607203E+03  0.76908972717E+02 0.  0.
         11    1    3    3    0    0 -0.10188214724E+03 -0.33188385271E+02 -0.28746497301E+03  0.30678583988E+03  0.00000000000E+00 0. -1.
        -11    1    3    3    0    0  0.17763065809E+02 -0.99074723281E+01 -0.24519173596E+02  0.31857093224E+02  0.00000000000E+00 0.  1.
          2    1    6    6  502    0 -0.14458023262E+03 -0.31234916453E+02 -0.78472946834E+02  0.16744272769E+03  0.00000000000E+00 0. -1.
          3    1    5    5  503    0  0.40919056267E+02  0.65786431945E+01  0.48233664899E+02  0.63593507072E+02  0.00000000000E+00 0. -1.
         -4    1    5    5    0  503  0.35842026445E+03  0.18734076279E+03  0.19338239094E+03  0.44828383475E+03  0.00000000000E+00 0.  1.
         -1    1    6    6    0  502 -0.17064000666E+03 -0.11958863194E+03 -0.68048904538E+02  0.21920334434E+03  0.00000000000E+00 0.  1.
<mgrwt>
<rscale>  0 0.12180063E+04</rscale>
<asrwt>0</asrwt>
<pdfrwt beam="1">  1        2 0.11185048E+00 0.12180063E+04</pdfrwt>
<pdfrwt beam="2">  1       -2 0.78482800E-01 0.12180063E+04</pdfrwt>
<totfact> 0.55549878E+01</totfact>
</mgrwt>
</event>
<event>
12    1  0.1489233E-007  0.1395323E+04  0.7818608E-02  0.8957211E-01
          2   -1    0    0  501    0  0.00000000000E+00  0.00000000000E+00  0.18296458585E+04  0.18296458585E+04  0.00000000000E+00 0. -1.
         -2   -1    0    0    0  501 -0.00000000000E+00 -0.00000000000E+00 -0.26602490726E+03  0.26602490726E+03  0.00000000000E+00 0.  1.
         23    2    1    2    0    0  0.24696237934E+03 -0.23834707044E+03  0.15172373500E+03  0.38639766981E+03  0.92104965503E+02 0.  0.
        254    2    1    2    0    0 -0.24696237934E+03  0.23834707044E+03  0.14118972162E+04  0.17092730959E+04  0.90020054684E+03 0.  0.
        -24    2    4    4    0    0 -0.19226520219E+03  0.18214865137E+03 -0.16515473102E+02  0.27645310672E+03  0.77521095152E+02 0.  0.
         24    2    4    4    0    0 -0.54697177155E+02  0.56198419070E+02  0.14284126893E+04  0.14328199892E+04  0.80375786198E+02 0.  0.
         11    1    3    3    0    0  0.37132131002E+02 -0.64803095644E+02  0.69331763140E+02  0.10190745673E+03  0.00000000000E+00 0. -1.
        -11    1    3    3    0    0  0.20983024834E+03 -0.17354397480E+03  0.82391971864E+02  0.28449021307E+03  0.00000000000E+00 0.  1.
          2    1    6    6  502    0 -0.71336893568E+02  0.27264324805E+02  0.84123030387E+03  0.84468971815E+03  0.00000000000E+00 0. -1.
          1    1    5    5  503    0 -0.17324653028E+03  0.18838280644E+03 -0.14690469317E+02  0.25635571362E+03  0.00000000000E+00 0. -1.
         -2    1    5    5    0  503 -0.19018671903E+02 -0.62341550700E+01 -0.18250037849E+01  0.20097393095E+02  0.00000000000E+00 0.  1.
         -1    1    6    6    0  502  0.16639716413E+02  0.28934094265E+02  0.58718238542E+03  0.58813027105E+03  0.00000000000E+00 0.  1.
<mgrwt>
<rscale>  0 0.13953227E+04</rscale>
<asrwt>0</asrwt>
<pdfrwt beam="1">  1        2 0.28148397E+00 0.13953227E+04</pdfrwt>
<pdfrwt beam="2">  1       -2 0.40926910E-01 0.13953227E+04</pdfrwt>
<totfact> 0.45739150E+01</totfact>
</mgrwt>
</event>
<event>
12    1  0.1489233E-007  0.1338808E+04  0.7818608E-02  0.8999343E-01
         -2   -1    0    0    0  501 -0.00000000000E+00  0.00000000000E+00  0.64507503547E+03  0.64507503547E+03  0.00000000000E+00 0.  1.
          2   -1    0    0  501    0  0.00000000000E+00 -0.00000000000E+00 -0.69465100794E+03  0.69465100794E+03  0.00000000000E+00 0. -1.
         23    2    1    2    0    0  0.25311779488E+03 -0.15986999731E+02 -0.27633422902E+03  0.38609451012E+03  0.91565071762E+02 0.  0.
        254    2    1    2    0    0 -0.25311779488E+03  0.15986999731E+02  0.22675825656E+03  0.95363153329E+03  0.89088135693E+03 0.  0.
        -24    2    4    4    0    0 -0.16190782604E+03 -0.33824235050E+03 -0.15905929912E+03  0.41619322997E+03  0.85410258347E+02 0.  0.
         24    2    4    4    0    0 -0.91209968842E+02  0.35422935023E+03  0.38581755568E+03  0.53743830332E+03  0.78657819844E+02 0.  0.
         13    1    3    3    0    0  0.14844524655E+03  0.84543008079E+01 -0.21776908169E+03  0.26368701023E+03  0.00000000000E+00 0. -1.
        -13    1    3    3    0    0  0.10467254833E+03 -0.24441300539E+02 -0.58565147338E+02  0.12240749989E+03  0.00000000000E+00 0.  1.
          4    1    6    6  502    0 -0.36260388736E+02  0.10304128597E+03  0.16832278902E+03  0.20066111659E+03  0.00000000000E+00 0. -1.
          1    1    5    5  503    0  0.11642250997E+01 -0.56672084929E-02  0.59344272935E+01  0.60475515295E+01  0.00000000000E+00 0. -1.
         -2    1    5    5    0  503 -0.16307205114E+03 -0.33823668329E+03 -0.16499372642E+03  0.41014567844E+03  0.00000000000E+00 0.  1.
         -3    1    6    6    0  502 -0.54949580106E+02  0.25118806426E+03  0.21749476666E+03  0.33677718673E+03  0.00000000000E+00 0.  1.
<mgrwt>
<rscale>  0 0.13388085E+04</rscale>
<asrwt>0</asrwt>
<pdfrwt beam="1">  1        2 0.10686939E+00 0.13388085E+04</pdfrwt>
<pdfrwt beam="2">  1       -2 0.99242313E-01 0.13388085E+04</pdfrwt>
<totfact> 0.34022626E+01</totfact>
</mgrwt>
</event>
<event>
12    1  0.1489233E-007  0.1805427E+04  0.7818608E-02  0.8703419E-01
         -1   -1    0    0    0  501 -0.00000000000E+00  0.00000000000E+00  0.55871362438E+03  0.55871362438E+03  0.00000000000E+00 0.  1.
          1   -1    0    0  501    0  0.00000000000E+00 -0.00000000000E+00 -0.14585132957E+04  0.14585132957E+04  0.00000000000E+00 0. -1.
         23    2    1    2    0    0  0.28962937352E+03 -0.24783258157E+03  0.28400499752E+03  0.48461225927E+03  0.94255189388E+02 0.  0.
        254    2    1    2    0    0 -0.28962937352E+03  0.24783258157E+03 -0.11838046688E+04  0.15326146608E+04  0.89566067352E+03 0.  0.
        -24    2    4    4    0    0  0.10070263813E+03  0.48135507579E+03 -0.74057306268E+03  0.89254010280E+03  0.79596756387E+02 0.  0.
         24    2    4    4    0    0 -0.39033201165E+03 -0.23352249422E+03 -0.44323160612E+03  0.64007455798E+03  0.79682799210E+02 0.  0.
         11    1    3    3    0    0  0.10699151701E+03 -0.97006406229E+02  0.53246169797E+02  0.15392394927E+03  0.00000000000E+00 0. -1.
        -11    1    3    3    0    0  0.18263785651E+03 -0.15082617534E+03  0.23075882772E+03  0.33068831000E+03  0.00000000000E+00 0.  1.
          2    1    6    6  502    0 -0.26745466423E+03 -0.16771484932E+03 -0.35520442183E+03  0.47521621330E+03  0.00000000000E+00 0. -1.
          3    1    5    5  503    0  0.98236623401E+02  0.30528390245E+03 -0.44562663393E+03  0.54902804313E+03  0.00000000000E+00 0. -1.
         -4    1    5    5    0  503  0.24660147337E+01  0.17607117333E+03 -0.29494642874E+03  0.34351205967E+03  0.00000000000E+00 0.  1.
         -1    1    6    6    0  502 -0.12287734742E+03 -0.65807644900E+02 -0.88027184292E+02  0.16485834468E+03  0.00000000000E+00 0.  1.
<mgrwt>
<rscale>  0 0.18054265E+04</rscale>
<asrwt>0</asrwt>
<pdfrwt beam="1">  1        1 0.22438666E+00 0.18054265E+04</pdfrwt>
<pdfrwt beam="2">  1       -1 0.85955943E-01 0.18054265E+04</pdfrwt>
<totfact> 0.88103640E+00</totfact>
</mgrwt>
</event>
<event>
12    1  0.1489233E-007  0.1534625E+04  0.7818608E-02  0.8861749E-01
          2   -1    0    0  501    0  0.00000000000E+00  0.00000000000E+00  0.29417456219E+04  0.29417456219E+04  0.00000000000E+00 0.  1.
         -2   -1    0    0    0  501 -0.00000000000E+00 -0.00000000000E+00 -0.20014252664E+03  0.20014252664E+03  0.00000000000E+00 0. -1.
         23    2    1    2    0    0 -0.25364527646E+03  0.17754251986E+03  0.10717489022E+03  0.34012819659E+03  0.91342544250E+02 0.  0.
        254    2    1    2    0    0  0.25364527646E+03 -0.17754251986E+03  0.26344282050E+04  0.28017599519E+04  0.90210287011E+03 0.  0.
        -24    2    4    4    0    0 -0.24150084136E+03 -0.14470458376E+00  0.24249493600E+03  0.35136117552E+03  0.79550011711E+02 0.  0.
         24    2    4    4    0    0  0.49514611782E+03 -0.17739781528E+03  0.23919332690E+04  0.24503987764E+04  0.80434676255E+02 0.  0.
         11    1    3    3    0    0 -0.24128068805E+03  0.15510479895E+03  0.12065680877E+03  0.31117830032E+03  0.00000000000E+00 0. -1.
        -11    1    3    3    0    0 -0.12364588408E+02  0.22437720907E+02 -0.13481918554E+02  0.28949896268E+02  0.00000000000E+00 0.  1.
          2    1    6    6  502    0  0.72019653828E+02  0.29931431023E+01  0.31624220878E+03  0.32435308548E+03  0.00000000000E+00 0. -1.
          3    1    5    5  503    0 -0.44618285469E+02  0.21675044856E+02  0.20055724613E+02  0.53505430168E+02  0.00000000000E+00 0. -1.
         -4    1    5    5    0  503 -0.19688255589E+03 -0.21819749439E+02  0.22243921138E+03  0.29785574535E+03  0.00000000000E+00 0.  1.
         -1    1    6    6    0  502  0.42312646399E+03 -0.18039095838E+03  0.20756910602E+04  0.21260456909E+04  0.00000000000E+00 0.  1.
<mgrwt>
<rscale>  0 0.15346249E+04</rscale>
<asrwt>0</asrwt>
<pdfrwt beam="1">  1        2 0.45257622E+00 0.15346249E+04</pdfrwt>
<pdfrwt beam="2">  1       -2 0.30791160E-01 0.15346249E+04</pdfrwt>
<totfact> 0.17929285E+01</totfact>
</mgrwt>
</event>
<event>
12    1  0.1489233E-007  0.1124358E+04  0.7818608E-02  0.9181770E-01
          2   -1    0    0  501    0  0.00000000000E+00  0.00000000000E+00  0.90538131756E+03  0.90538131756E+03  0.00000000000E+00 0. -1.
         -2   -1    0    0    0  501 -0.00000000000E+00 -0.00000000000E+00 -0.34907444272E+03  0.34907444272E+03  0.00000000000E+00 0.  1.
         23    2    1    2    0    0 -0.73441833344E+02 -0.12989593493E+03 -0.35697594680E+01  0.17471810579E+03  0.90813085574E+02 0.  0.
        254    2    1    2    0    0  0.73441833344E+02  0.12989593493E+03  0.55987663431E+03  0.10797376545E+04  0.91110092751E+03 0.  0.
        -24    2    4    4    0    0  0.76314920436E+02  0.39043567296E+03  0.67220692201E+03  0.78521370893E+03  0.80214966725E+02 0.  0.
         24    2    4    4    0    0 -0.28730870924E+01 -0.26053973804E+03 -0.11233028770E+03  0.29452394557E+03  0.78975003962E+02 0.  0.
         13    1    3    3    0    0 -0.67017686494E+02 -0.97571187969E+02 -0.40606131282E+02  0.12514137974E+03  0.00000000000E+00 0.  1.
        -13    1    3    3    0    0 -0.64241468501E+01 -0.32324746959E+02  0.37036371814E+02  0.49576726051E+02  0.00000000000E+00 0. -1.
          2    1    6    6  502    0  0.16276510902E+02 -0.45032015692E+02  0.54387941840E+01  0.48191158178E+02  0.00000000000E+00 0. -1.
          1    1    5    5  503    0 -0.94073121720E+01  0.44889439417E+01  0.19403949365E+02  0.22026379434E+02  0.00000000000E+00 0. -1.
         -2    1    5    5    0  503  0.85722232608E+02  0.38594672902E+03  0.65280297265E+03  0.76318732950E+03  0.00000000000E+00 0.  1.
         -1    1    6    6    0  502 -0.19149597995E+02 -0.21550772234E+03 -0.11776908189E+03  0.24633278739E+03  0.00000000000E+00 0.  1.
<mgrwt>
<rscale>  0 0.11243584E+04</rscale>
<asrwt>0</asrwt>
<pdfrwt beam="1">  1        2 0.13928943E+00 0.11243584E+04</pdfrwt>
<pdfrwt beam="2">  1       -2 0.53703761E-01 0.11243584E+04</pdfrwt>
<totfact> 0.94177827E+01</totfact>
</mgrwt>
</event>
<event>
12    1  0.1489233E-007  0.1921622E+04  0.7818608E-02  0.8644168E-01
         -2   -1    0    0    0  501 -0.00000000000E+00  0.00000000000E+00  0.37398581385E+03  0.37398581385E+03  0.00000000000E+00 0.  1.
          2   -1    0    0  501    0  0.00000000000E+00 -0.00000000000E+00 -0.24684288963E+04  0.24684288963E+04  0.00000000000E+00 0. -1.
         23    2    1    2    0    0 -0.32503383368E+03 -0.51185005090E+03 -0.14668941238E+04  0.15897527399E+04  0.88870331467E+02 0.  0.
        254    2    1    2    0    0  0.32503383368E+03  0.51185005090E+03 -0.62754895862E+03  0.12526619703E+04  0.89872512407E+03 0.  0.
        -24    2    4    4    0    0  0.52822412271E+03  0.55551750325E+02 -0.49390568557E+03  0.72962394425E+03  0.79382321767E+02 0.  0.
         24    2    4    4    0    0 -0.20319028903E+03  0.45629830058E+03 -0.13364327306E+03  0.52303802602E+03  0.78827784199E+02 0.  0.
         11    1    3    3    0    0 -0.30601164855E+03 -0.44612785001E+03 -0.13491254500E+04  0.14535517423E+04  0.00000000000E+00 0. -1.
        -11    1    3    3    0    0 -0.19022185135E+02 -0.65722200893E+02 -0.11776867376E+03  0.13620099756E+03  0.00000000000E+00 0.  1.
          2    1    6    6  502    0 -0.33121904814E+02  0.53993390115E+02  0.80545426919E+01  0.63853131580E+02  0.00000000000E+00 0. -1.
          3    1    5    5  503    0  0.77090463879E+02  0.28205422310E+02 -0.10567032717E+03  0.13380845830E+03  0.00000000000E+00 0. -1.
         -4    1    5    5    0  503  0.45113365883E+03  0.27346328015E+02 -0.38823535840E+03  0.59581548595E+03  0.00000000000E+00 0.  1.
         -1    1    6    6    0  502 -0.17006838421E+03  0.40230491046E+03 -0.14169781575E+03  0.45918489444E+03  0.00000000000E+00 0.  1.
<mgrwt>
<rscale>  0 0.19216216E+04</rscale>
<asrwt>0</asrwt>
<pdfrwt beam="1">  1        2 0.37975830E+00 0.19216216E+04</pdfrwt>
<pdfrwt beam="2">  1       -2 0.57536278E-01 0.19216216E+04</pdfrwt>
<totfact> 0.96107524E+00</totfact>
</mgrwt>
</event>
<event>
12    1  0.1489233E-007  0.1118677E+04  0.7818608E-02  0.9187177E-01
         -2   -1    0    0    0  501 -0.00000000000E+00  0.00000000000E+00  0.36302996189E+03  0.36302996189E+03  0.00000000000E+00 0. -1.
          2   -1    0    0  501    0  0.00000000000E+00 -0.00000000000E+00 -0.86180073196E+03  0.86180073196E+03  0.00000000000E+00 0.  1.
         23    2    1    2    0    0  0.37071979910E+02  0.24705297784E+02  0.99771749671E+02  0.14282298071E+03  0.91974552745E+02 0.  0.
        254    2    1    2    0    0 -0.37071979910E+02 -0.24705297784E+02 -0.59854251973E+03  0.10820077131E+04  0.90027932328E+03 0.  0.
        -24    2    4    4    0    0 -0.32013271589E+03 -0.32704649547E+03 -0.21293241995E+03  0.51052795894E+03  0.76512844789E+02 0.  0.
         24    2    4    4    0    0  0.28306073598E+03  0.30234119768E+03 -0.38561009979E+03  0.57147975420E+03  0.79751992628E+02 0.  0.
         13    1    3    3    0    0  0.49741660930E+02  0.50356080989E+02  0.54769405270E+02  0.89496678588E+02  0.00000000000E+00 0. -1.
        -13    1    3    3    0    0 -0.12669681020E+02 -0.25650783204E+02  0.45002344401E+02  0.53326302119E+02  0.00000000000E+00 0.  1.
          2    1    6    6  502    0  0.25267587919E+03  0.26793757048E+03 -0.30273775383E+03  0.47674499388E+03  0.00000000000E+00 0. -1.
          1    1    5    5  503    0 -0.29865750556E+03 -0.29262683730E+03 -0.21448994942E+03  0.46992840937E+03  0.00000000000E+00 0. -1.
         -2    1    5    5    0  503 -0.21475210333E+02 -0.34419658168E+02  0.15575294736E+01  0.40599549570E+02  0.00000000000E+00 0.  1.
         -1    1    6    6    0  502  0.30384856790E+02  0.34403627204E+02 -0.82872345960E+02  0.94734760314E+02  0.00000000000E+00 0.  1.
<mgrwt>
<rscale>  0 0.11186769E+04</rscale>
<asrwt>0</asrwt>
<pdfrwt beam="1">  1        2 0.13258473E+00 0.11186769E+04</pdfrwt>
<pdfrwt beam="2">  1       -2 0.55850764E-01 0.11186769E+04</pdfrwt>
<totfact> 0.93018146E+01</totfact>
</mgrwt>
</event>
<event>
12    1  0.1489233E-007  0.2074601E+04  0.7818608E-02  0.8572515E-01
          2   -1    0    0  501    0  0.00000000000E+00  0.00000000000E+00  0.31166847498E+04  0.31166847498E+04  0.00000000000E+00 0. -1.
         -2   -1    0    0    0  501 -0.00000000000E+00 -0.00000000000E+00 -0.34523605053E+03  0.34523605053E+03  0.00000000000E+00 0.  1.
         23    2    1    2    0    0 -0.65819779883E+03 -0.16974337732E+03  0.30812104369E+03  0.75176436740E+03  0.90409789248E+02 0.  0.
        254    2    1    2    0    0  0.65819779883E+03  0.16974337732E+03  0.24633276556E+04  0.27101564329E+04  0.90273340235E+03 0.  0.
        -24    2    4    4    0    0  0.16498499644E+03 -0.11437070358E+03  0.18763069671E+04  0.18885786073E+04  0.76815456834E+02 0.  0.
         24    2    4    4    0    0  0.49321280239E+03  0.28411408091E+03  0.58702068853E+03  0.82157782565E+03  0.80107149671E+02 0.  0.
         11    1    3    3    0    0 -0.21353963875E+03 -0.27163922278E+02  0.13308674139E+03  0.25307930916E+03  0.00000000000E+00 0. -1.
        -11    1    3    3    0    0 -0.44465816008E+03 -0.14257945505E+03  0.17503430230E+03  0.49868505824E+03  0.00000000000E+00 0.  1.
          2    1    6    6  502    0  0.15407740392E+03  0.10370904356E+03  0.14264040938E+03  0.23418304487E+03  0.00000000000E+00 0. -1.
          1    1    5    5  503    0  0.16700320537E+03 -0.99526751860E+02  0.15836463045E+04  0.15955347889E+04  0.00000000000E+00 0. -1.
         -2    1    5    5    0  503 -0.20182089340E+01 -0.14843951723E+02  0.29266066259E+03  0.29304381839E+03  0.00000000000E+00 0.  1.
         -1    1    6    6    0  502  0.33913539847E+03  0.18040503735E+03  0.44438027915E+03  0.58739478078E+03  0.00000000000E+00 0.  1.
<mgrwt>
<rscale>  0 0.20746006E+04</rscale>
<asrwt>0</asrwt>
<pdfrwt beam="1">  1        2 0.47948994E+00 0.20746006E+04</pdfrwt>
<pdfrwt beam="2">  1       -2 0.53113241E-01 0.20746006E+04</pdfrwt>
<totfact> 0.45432220E+00</totfact>
</mgrwt>
</event>
<event>
12    1  0.1489233E-007  0.1271252E+04  0.7818608E-02  0.9052678E-01
         -1   -1    0    0    0  501 -0.00000000000E+00  0.00000000000E+00  0.13509360229E+03  0.13509360229E+03  0.00000000000E+00 0.  1.
          1   -1    0    0  501    0  0.00000000000E+00 -0.00000000000E+00 -0.29906724179E+04  0.29906724179E+04  0.00000000000E+00 0. -1.
         23    2    1    2    0    0 -0.96536697872E+02 -0.20374977863E+03 -0.34878727565E+03  0.42516957830E+03  0.91012638297E+02 0.  0.
        254    2    1    2    0    0  0.96536697872E+02  0.20374977863E+03 -0.25067915400E+04  0.27005964419E+04  0.97897089376E+03 0.  0.
        -24    2    4    4    0    0  0.37996116902E+03  0.16181221063E+03 -0.42757918269E+03  0.60014096258E+03  0.82410776198E+02 0.  0.
         24    2    4    4    0    0 -0.28342447114E+03  0.41937568002E+02 -0.20792123573E+04  0.21004554793E+04  0.81859657203E+02 0.  0.
         13    1    3    3    0    0 -0.69201028779E+02 -0.15436929708E+03 -0.31963836551E+03  0.36164533313E+03  0.00000000000E+00 0.  1.
        -13    1    3    3    0    0 -0.27335669093E+02 -0.49380481548E+02 -0.29148910137E+02  0.63524245173E+02  0.00000000000E+00 0. -1.
          4    1    6    6  502    0 -0.54728480458E+02 -0.91520264061E+01 -0.23754411606E+03  0.24393887193E+03  0.00000000000E+00 0. -1.
          1    1    5    5  503    0  0.20838261836E+03  0.10671729381E+03 -0.29397057966E+03  0.37580659672E+03  0.00000000000E+00 0. -1.
         -2    1    5    5    0  503  0.17157855065E+03  0.55094916822E+02 -0.13360860303E+03  0.22433436586E+03  0.00000000000E+00 0.  1.
         -3    1    6    6    0  502 -0.22869599069E+03  0.51089594408E+02 -0.18416682412E+04  0.18565166074E+04  0.00000000000E+00 0.  1.
<mgrwt>
<rscale>  0 0.12712525E+04</rscale>
<asrwt>0</asrwt>
<pdfrwt beam="1">  1        1 0.46010344E+00 0.12712525E+04</pdfrwt>
<pdfrwt beam="2">  1       -1 0.20783631E-01 0.12712525E+04</pdfrwt>
<totfact> 0.11587725E+01</totfact>
</mgrwt>
</event>
<event>
12    1  0.1489233E-007  0.1602261E+04  0.7818608E-02  0.8819160E-01
          2   -1    0    0  501    0  0.00000000000E+00  0.00000000000E+00  0.27530563373E+03  0.27530563373E+03  0.00000000000E+00 0. -1.
         -2   -1    0    0    0  501 -0.00000000000E+00 -0.00000000000E+00 -0.23312645846E+04  0.23312645846E+04  0.00000000000E+00 0.  1.
         23    2    1    2    0    0  0.18772814536E+02  0.47226376818E+03 -0.11333356255E+04  0.12312146825E+04  0.89746693601E+02 0.  0.
        254    2    1    2    0    0 -0.18772814536E+02 -0.47226376818E+03 -0.92262332532E+03  0.13753555358E+04  0.90387143122E+03 0.  0.
        -24    2    4    4    0    0  0.96335323153E+02  0.24293778125E+03 -0.37665120176E+03  0.46483452184E+03  0.76848844215E+02 0.  0.
         24    2    4    4    0    0 -0.11510813769E+03 -0.71520154943E+03 -0.54597212356E+03  0.91052101398E+03  0.78738920010E+02 0.  0.
         11    1    3    3    0    0 -0.63786927613E+01  0.83406136318E+02 -0.12703807556E+03  0.15210504245E+03  0.00000000000E+00 0.  1.
        -11    1    3    3    0    0  0.25151507297E+02  0.38885763187E+03 -0.10062975500E+04  0.10791096401E+04  0.00000000000E+00 0. -1.
          2    1    6    6  502    0 -0.34766154224E+02 -0.45493253548E+03 -0.34557641628E+03  0.57235946468E+03  0.00000000000E+00 0. -1.
          3    1    5    5  503    0  0.39452221603E+02  0.15263779442E+03 -0.16747383385E+03  0.23000491104E+03  0.00000000000E+00 0. -1.
         -4    1    5    5    0  503  0.56883101550E+02  0.90299986824E+02 -0.20917736791E+03  0.23482961080E+03  0.00000000000E+00 0.  1.
         -1    1    6    6    0  502 -0.80341983465E+02 -0.26026901395E+03 -0.20039570728E+03  0.33816154930E+03  0.00000000000E+00 0.  1.
<mgrwt>
<rscale>  0 0.16022612E+04</rscale>
<asrwt>0</asrwt>
<pdfrwt beam="1">  1        2 0.42354711E-01 0.16022612E+04</pdfrwt>
<pdfrwt beam="2">  1       -2 0.35865610E+00 0.16022612E+04</pdfrwt>
<totfact> 0.15987425E+00</totfact>
</mgrwt>
</event>
<event>
12    1  0.1489233E-007  0.1137747E+04  0.7818608E-02  0.9169162E-01
          2   -1    0    0  501    0  0.00000000000E+00  0.00000000000E+00  0.33690599822E+04  0.33690599822E+04  0.00000000000E+00 0. -1.
         -2   -1    0    0    0  501 -0.00000000000E+00 -0.00000000000E+00 -0.96055645326E+02  0.96055645326E+02  0.00000000000E+00 0.  1.
         23    2    1    2    0    0  0.28249535065E+02 -0.75176445852E+02  0.92416854359E+02  0.15343430623E+03  0.92475278410E+02 0.  0.
        254    2    1    2    0    0 -0.28249535065E+02  0.75176445852E+02  0.31805874825E+04  0.33116813212E+04  0.91904673745E+03 0.  0.
        -24    2    4    4    0    0 -0.10908869842E+03 -0.95331697279E+02  0.30787683828E+04  0.30832213895E+04  0.80317528391E+02 0.  0.
         24    2    4    4    0    0  0.80839163359E+02  0.17050814313E+03  0.10181909968E+03  0.22845993172E+03  0.78859458112E+02 0.  0.
         13    1    3    3    0    0  0.21454765640E+02 -0.46319784767E+02 -0.52977826010E+01  0.51321495788E+02  0.00000000000E+00 0.  1.
        -13    1    3    3    0    0  0.67947694249E+01 -0.28856661086E+02  0.97714636959E+02  0.10211281044E+03  0.00000000000E+00 0. -1.
          2    1    6    6  502    0  0.85952430115E+02  0.11062932872E+03  0.91905884341E+02  0.16755106742E+03  0.00000000000E+00 0. -1.
          3    1    5    5  503    0 -0.40486172971E+02  0.31659038389E+01  0.49355352004E+03  0.49522139523E+03  0.00000000000E+00 0. -1.
         -4    1    5    5    0  503 -0.68602525453E+02 -0.98497601118E+02  0.25852148627E+04  0.25879999943E+04  0.00000000000E+00 0.  1.
         -1    1    6    6    0  502 -0.51132667561E+01  0.59878814407E+02  0.99132153396E+01  0.60908864298E+02  0.00000000000E+00 0.  1.
<mgrwt>
<rscale>  0 0.11377473E+04</rscale>
<asrwt>0</asrwt>
<pdfrwt beam="1">  1        2 0.51831683E+00 0.11377473E+04</pdfrwt>
<pdfrwt beam="2">  1       -2 0.14777794E-01 0.11377473E+04</pdfrwt>
<totfact> 0.36639792E+01</totfact>
</mgrwt>
</event>
<event>
12    1  0.1489233E-007  0.1488904E+04  0.7818608E-02  0.8891865E-01
          2   -1    0    0  501    0  0.00000000000E+00  0.00000000000E+00  0.19966206081E+04  0.19966206081E+04  0.00000000000E+00 0. -1.
         -2   -1    0    0    0  501 -0.00000000000E+00 -0.00000000000E+00 -0.27757350699E+03  0.27757350699E+03  0.00000000000E+00 0.  1.
         23    2    1    2    0    0  0.13072220691E+03  0.39453655668E+03  0.22882559807E+03  0.48320794422E+03  0.91549839373E+02 0.  0.
        254    2    1    2    0    0 -0.13072220691E+03 -0.39453655668E+03  0.14902215031E+04  0.17909861709E+04  0.90228817251E+03 0.  0.
        -24    2    4    4    0    0  0.34486382561E+03 -0.32768940268E+03  0.54400824505E+03  0.72709604123E+03  0.80076710987E+02 0.  0.
         24    2    4    4    0    0 -0.47558603252E+03 -0.66847154004E+02  0.94621325803E+03  0.10638901297E+04  0.76759768489E+02 0.  0.
         13    1    3    3    0    0  0.24159277513E+02  0.13812373877E+03  0.12141912868E+03  0.18548434627E+03  0.00000000000E+00 0.  1.
        -13    1    3    3    0    0  0.10656292940E+03  0.25641281791E+03  0.10740646939E+03  0.29772359795E+03  0.00000000000E+00 0. -1.
          2    1    6    6  502    0 -0.11101388352E+02 -0.69002796023E+01  0.81222840251E+01  0.15389157863E+02  0.00000000000E+00 0. -1.
          1    1    5    5  503    0  0.16143036543E+03 -0.20741047109E+03  0.28521008421E+03  0.38784488979E+03  0.00000000000E+00 0. -1.
         -2    1    5    5    0  503  0.18343346018E+03 -0.12027893159E+03  0.25879816084E+03  0.33925115144E+03  0.00000000000E+00 0.  1.
         -1    1    6    6    0  502 -0.46448464417E+03 -0.59946874402E+02  0.93809097401E+03  0.10485009718E+04  0.00000000000E+00 0.  1.
<mgrwt>
<rscale>  0 0.14889043E+04</rscale>
<asrwt>0</asrwt>
<pdfrwt beam="1">  1        2 0.30717239E+00 0.14889043E+04</pdfrwt>
<pdfrwt beam="2">  1       -2 0.42703618E-01 0.14889043E+04</pdfrwt>
<totfact> 0.33745392E+01</totfact>
</mgrwt>
</event>
<event>
12    1  0.1489233E-007  0.1542553E+04  0.7818608E-02  0.8856639E-01
         -2   -1    0    0    0  501 -0.00000000000E+00  0.00000000000E+00  0.90343664103E+03  0.90343664103E+03  0.00000000000E+00 0.  1.
          2   -1    0    0  501    0  0.00000000000E+00 -0.00000000000E+00 -0.65844950359E+03  0.65844950359E+03  0.00000000000E+00 0. -1.
         23    2    1    2    0    0  0.38717112678E+03 -0.25632313192E+03  0.31159478647E+03  0.56674973180E+03  0.92254637668E+02 0.  0.
        254    2    1    2    0    0 -0.38717112678E+03  0.25632313192E+03 -0.66607649026E+02  0.99513641281E+03  0.87764279284E+03 0.  0.
        -24    2    4    4    0    0  0.49973624234E+01 -0.19675107623E+03  0.23750758266E+03  0.31836349330E+03  0.78800396037E+02 0.  0.
         24    2    4    4    0    0 -0.39216848920E+03  0.45307420815E+03 -0.30411523168E+03  0.67677291952E+03  0.80393708920E+02 0.  0.
         13    1    3    3    0    0  0.36175698982E+03 -0.20774503726E+03  0.28879058638E+03  0.50737177984E+03  0.00000000000E+00 0.  1.
        -13    1    3    3    0    0  0.25414136962E+02 -0.48578094657E+02  0.22804200088E+02  0.59377951966E+02  0.00000000000E+00 0. -1.
          2    1    6    6  502    0 -0.19468291836E+03  0.23871037289E+03 -0.20001818917E+03  0.36727558703E+03  0.00000000000E+00 0. -1.
          3    1    5    5  503    0  0.27468979474E+02 -0.15401890295E+03  0.21281865054E+03  0.26413660352E+03  0.00000000000E+00 0. -1.
         -4    1    5    5    0  503 -0.22471617051E+02 -0.42732173282E+02  0.24688932116E+02  0.54226889781E+02  0.00000000000E+00 0.  1.
         -1    1    6    6    0  502 -0.19748557084E+03  0.21436383526E+03 -0.10409704251E+03  0.30949733249E+03  0.00000000000E+00 0.  1.
<mgrwt>
<rscale>  0 0.15425530E+04</rscale>
<asrwt>0</asrwt>
<pdfrwt beam="1">  1        2 0.10129992E+00 0.15425530E+04</pdfrwt>
<pdfrwt beam="2">  1       -2 0.13899025E+00 0.15425530E+04</pdfrwt>
<totfact> 0.15588601E+01</totfact>
</mgrwt>
</event>
<event>
12    1  0.1489233E-007  0.1656400E+04  0.7818608E-02  0.8786629E-01
          2   -1    0    0  501    0  0.00000000000E+00  0.00000000000E+00  0.11879318630E+04  0.11879318630E+04  0.00000000000E+00 0. -1.
         -2   -1    0    0    0  501 -0.00000000000E+00 -0.00000000000E+00 -0.57740285711E+03  0.57740285711E+03  0.00000000000E+00 0.  1.
         23    2    1    2    0    0  0.30296645277E+03  0.32081022390E+03 -0.18505260297E+03  0.48701489161E+03  0.90725782000E+02 0.  0.
        254    2    1    2    0    0 -0.30296645277E+03 -0.32081022390E+03  0.79558160888E+03  0.12783198285E+04  0.89802205780E+03 0.  0.
        -24    2    4    4    0    0 -0.24159760468E+03 -0.73442194881E+02  0.93741443653E+03  0.97492834390E+03  0.89310085429E+02 0.  0.
         24    2    4    4    0    0 -0.61368848090E+02 -0.24736802902E+03 -0.14183282765E+03  0.30339148460E+03  0.83503081570E+02 0.  0.
         13    1    3    3    0    0  0.24693846730E+03  0.27617568976E+03 -0.11778372287E+03  0.38874750625E+03  0.00000000000E+00 0.  1.
        -13    1    3    3    0    0  0.56027985473E+02  0.44634534145E+02 -0.67268880110E+02  0.98267385361E+02  0.00000000000E+00 0. -1.
          4    1    6    6  502    0  0.10311789584E+02 -0.92951842876E+02 -0.77284223475E+02  0.12132283090E+03  0.00000000000E+00 0. -1.
          1    1    5    5  503    0 -0.44457364194E+02 -0.22177178903E+02  0.34302713408E+03  0.34660625963E+03  0.00000000000E+00 0. -1.
         -2    1    5    5    0  503 -0.19714024049E+03 -0.51265015978E+02  0.59438730245E+03  0.62832208428E+03  0.00000000000E+00 0.  1.
         -3    1    6    6    0  502 -0.71680637674E+02 -0.15441618615E+03 -0.64548604171E+02  0.18206865371E+03  0.00000000000E+00 0.  1.
<mgrwt>
<rscale>  0 0.16564000E+04</rscale>
<asrwt>0</asrwt>
<pdfrwt beam="1">  1        2 0.18275875E+00 0.16564000E+04</pdfrwt>
<pdfrwt beam="2">  1       -2 0.88831209E-01 0.16564000E+04</pdfrwt>
<totfact> 0.20030804E+01</totfact>
</mgrwt>
</event>
<event>
12    1  0.1489233E-007  0.2210758E+04  0.7818608E-02  0.8513964E-01
          2   -1    0    0  501    0  0.00000000000E+00  0.00000000000E+00  0.94555439439E+03  0.94555439439E+03  0.00000000000E+00 0. -1.
         -2   -1    0    0    0  501 -0.00000000000E+00 -0.00000000000E+00 -0.12922187526E+04  0.12922187526E+04  0.00000000000E+00 0.  1.
         23    2    1    2    0    0 -0.14503190229E+03  0.54971835244E+03 -0.87496517972E+03  0.10474840382E+04  0.91838036435E+02 0.  0.
        254    2    1    2    0    0  0.14503190229E+03 -0.54971835244E+03  0.52830082150E+03  0.11902891088E+04  0.90247542057E+03 0.  0.
        -24    2    4    4    0    0 -0.34373902150E+02 -0.63058279232E+03  0.17070923354E+02  0.63672069023E+03  0.79407794479E+02 0.  0.
         24    2    4    4    0    0  0.17940580444E+03  0.80864439879E+02  0.51122989815E+03  0.55356841852E+03  0.79727566878E+02 0.  0.
         11    1    3    3    0    0 -0.75298967930E+02  0.38125771718E+03 -0.65684300808E+03  0.76319730001E+03  0.00000000000E+00 0.  1.
        -11    1    3    3    0    0 -0.69732934364E+02  0.16846063527E+03 -0.21812217164E+03  0.28428673823E+03  0.00000000000E+00 0. -1.
          4    1    6    6  502    0  0.17571653829E+02  0.11343761782E+02  0.11854487496E+02  0.24041065355E+02  0.00000000000E+00 0. -1.
          1    1    5    5  503    0 -0.12621235225E+02 -0.17474693966E+02 -0.72566915181E+01  0.22744671455E+02  0.00000000000E+00 0. -1.
         -2    1    5    5    0  503 -0.21752666925E+02 -0.61310809836E+03  0.24327614872E+02  0.61397601878E+03  0.00000000000E+00 0.  1.
         -3    1    6    6    0  502  0.16183415062E+03  0.69520678097E+02  0.49937541065E+03  0.52952735317E+03  0.00000000000E+00 0.  1.
<mgrwt>
<rscale>  0 0.22107583E+04</rscale>
<asrwt>0</asrwt>
<pdfrwt beam="1">  1        2 0.14546991E+00 0.22107583E+04</pdfrwt>
<pdfrwt beam="2">  1       -2 0.19880288E+00 0.22107583E+04</pdfrwt>
<totfact> 0.33797758E+00</totfact>
</mgrwt>
</event>
<event>
12    1  0.1489233E-007  0.1404670E+04  0.7818608E-02  0.8950445E-01
         -2   -1    0    0    0  501 -0.00000000000E+00  0.00000000000E+00  0.19188106423E+03  0.19188106423E+03  0.00000000000E+00 0.  1.
          2   -1    0    0  501    0  0.00000000000E+00 -0.00000000000E+00 -0.25707315421E+04  0.25707315421E+04  0.00000000000E+00 0. -1.
         23    2    1    2    0    0  0.17472508546E+03  0.20286041806E+03 -0.10109112443E+03  0.30095627446E+03  0.93134628351E+02 0.  0.
        254    2    1    2    0    0 -0.17472508546E+03 -0.20286041806E+03 -0.22777593535E+04  0.24616563319E+04  0.89436179445E+03 0.  0.
        -24    2    4    4    0    0 -0.47484338024E+03 -0.24733127599E+03 -0.91377728932E+03  0.10620404629E+04  0.79322219384E+02 0.  0.
         24    2    4    4    0    0  0.30011829478E+03  0.44470857928E+02 -0.13639820642E+04  0.13996158690E+04  0.80180180915E+02 0.  0.
         13    1    3    3    0    0  0.14751105471E+03  0.20739430313E+03 -0.81929071958E+02  0.26736544478E+03  0.00000000000E+00 0.  1.
        -13    1    3    3    0    0  0.27214030755E+02 -0.45338850761E+01 -0.19162052469E+02  0.33590829680E+02  0.00000000000E+00 0. -1.
          2    1    6    6  502    0  0.12482442851E+01  0.11001715987E+02 -0.86835937560E+02  0.87538996569E+02  0.00000000000E+00 0. -1.
          1    1    5    5  503    0 -0.33026687154E+03 -0.13097097703E+03 -0.61859699773E+03  0.71336655996E+03  0.00000000000E+00 0. -1.
         -2    1    5    5    0  503 -0.14457650870E+03 -0.11636029896E+03 -0.29518029158E+03  0.34867390293E+03  0.00000000000E+00 0.  1.
         -1    1    6    6    0  502  0.29887005050E+03  0.33469141942E+02 -0.12771461266E+04  0.13120768725E+04  0.00000000000E+00 0.  1.
<mgrwt>
<rscale>  0 0.14046704E+04</rscale>
<asrwt>0</asrwt>
<pdfrwt beam="1">  1        2 0.39549714E+00 0.14046704E+04</pdfrwt>
<pdfrwt beam="2">  1       -2 0.29520165E-01 0.14046704E+04</pdfrwt>
<totfact> 0.32691236E+01</totfact>
</mgrwt>
</event>
<event>
12    1  0.1489233E-007  0.1117980E+04  0.7818608E-02  0.9187842E-01
          2   -1    0    0  501    0  0.00000000000E+00  0.00000000000E+00  0.11440445268E+04  0.11440445268E+04  0.00000000000E+00 0. -1.
         -2   -1    0    0    0  501 -0.00000000000E+00 -0.00000000000E+00 -0.27312742874E+03  0.27312742874E+03  0.00000000000E+00 0.  1.
         23    2    1    2    0    0  0.10471851474E+03 -0.50581607368E+02 -0.20717979536E+02  0.14832775476E+03  0.89707423460E+02 0.  0.
        254    2    1    2    0    0 -0.10471851474E+03  0.50581607368E+02  0.89163507755E+03  0.12688442007E+04  0.89522512691E+03 0.  0.
        -24    2    4    4    0    0  0.88149401096E+02  0.25133122452E+03 -0.51233823134E+02  0.28235771105E+03  0.78506503063E+02 0.  0.
         24    2    4    4    0    0 -0.19286791584E+03 -0.20074961715E+03  0.94286890068E+03  0.98648648967E+03  0.81580565595E+02 0.  0.
         13    1    3    3    0    0 -0.14326138119E+02 -0.18836792966E+02 -0.37156396793E+01  0.23955562629E+02  0.00000000000E+00 0. -1.
        -13    1    3    3    0    0  0.11904465286E+03 -0.31744814403E+02 -0.17002339856E+02  0.12437219213E+03  0.00000000000E+00 0.  1.
          2    1    6    6  502    0 -0.18028556812E+03 -0.17423089691E+03  0.90182118527E+03  0.93602390019E+03  0.00000000000E+00 0. -1.
          1    1    5    5  503    0  0.95787553524E+02  0.17811017555E+03 -0.51701123558E+02  0.20873786485E+03  0.00000000000E+00 0. -1.
         -2    1    5    5    0  503 -0.76381524274E+01  0.73221048969E+02  0.46730042415E+00  0.73619846199E+02  0.00000000000E+00 0.  1.
         -1    1    6    6    0  502 -0.12582347715E+02 -0.26518720241E+02  0.41047715412E+02  0.50462589487E+02  0.00000000000E+00 0.  1.
<mgrwt>
<rscale>  0 0.11179802E+04</rscale>
<asrwt>0</asrwt>
<pdfrwt beam="1">  1        2 0.17600685E+00 0.11179802E+04</pdfrwt>
<pdfrwt beam="2">  1       -2 0.42019605E-01 0.11179802E+04</pdfrwt>
<totfact> 0.10891377E+02</totfact>
</mgrwt>
</event>
<event>
12    1  0.1489233E-007  0.1604213E+04  0.7818608E-02  0.8817964E-01
          1   -1    0    0  501    0  0.00000000000E+00  0.00000000000E+00  0.48218329694E+03  0.48218329694E+03  0.00000000000E+00 0. -1.
         -1   -1    0    0    0  501 -0.00000000000E+00 -0.00000000000E+00 -0.13342956387E+04  0.13342956387E+04  0.00000000000E+00 0.  1.
         23    2    1    2    0    0 -0.38789253359E+03 -0.10649465354E+03  0.12311726360E+03  0.43059022913E+03  0.91914938858E+02 0.  0.
        254    2    1    2    0    0  0.38789253359E+03  0.10649465354E+03 -0.97522960534E+03  0.13858887065E+04  0.89878417586E+03 0.  0.
        -24    2    4    4    0    0 -0.19345036818E+03 -0.22736116812E+03 -0.30538749319E+03  0.43484145244E+03  0.81911061798E+02 0.  0.
         24    2    4    4    0    0  0.58134290176E+03  0.33385582166E+03 -0.66984211215E+03  0.95104725404E+03  0.79894587532E+02 0.  0.
         11    1    3    3    0    0 -0.17106258007E+03 -0.27606653487E+02  0.98562443140E+01  0.17355598281E+03  0.00000000000E+00 0. -1.
        -11    1    3    3    0    0 -0.21682995352E+03 -0.78888000050E+02  0.11326101929E+03  0.25703424633E+03  0.00000000000E+00 0.  1.
          4    1    6    6  502    0  0.54924115653E+03  0.29584186583E+03 -0.60225684183E+03  0.86712257561E+03  0.00000000000E+00 0. -1.
          3    1    5    5  503    0 -0.18744543641E+03 -0.18703203285E+03 -0.23776609579E+03  0.35587847540E+03  0.00000000000E+00 0. -1.
         -4    1    5    5    0  503 -0.60049317671E+01 -0.40329135276E+02 -0.67621397396E+02  0.78962977043E+02  0.00000000000E+00 0.  1.
         -3    1    6    6    0  502  0.32101745235E+02  0.38013955832E+02 -0.67585270316E+02  0.83924678426E+02  0.00000000000E+00 0.  1.
<mgrwt>
<rscale>  0 0.16042133E+04</rscale>
<asrwt>0</asrwt>
<pdfrwt beam="1">  1        1 0.74182045E-01 0.16042133E+04</pdfrwt>
<pdfrwt beam="2">  1       -1 0.20527625E+00 0.16042133E+04</pdfrwt>
<totfact> 0.61868818E+00</totfact>
</mgrwt>
</event>
<event>
12    1  0.1489233E-007  0.3489323E+04  0.7818608E-02  0.8116325E-01
         -2   -1    0    0    0  501 -0.00000000000E+00  0.00000000000E+00  0.13394302726E+04  0.13394302726E+04  0.00000000000E+00 0.  1.
          2   -1    0    0  501    0  0.00000000000E+00 -0.00000000000E+00 -0.22724909860E+04  0.22724909860E+04  0.00000000000E+00 0. -1.
         23    2    1    2    0    0 -0.14513608774E+04  0.72995110397E+03 -0.39812549801E+03  0.16751109563E+04  0.90641010884E+02 0.  0.
        254    2    1    2    0    0  0.14513608774E+04 -0.72995110397E+03 -0.53493521537E+03  0.19368103023E+04  0.90873618377E+03 0.  0.
        -24    2    4    4    0    0  0.19659675604E+03 -0.41166679212E+03  0.12689507111E+03  0.48074245435E+03  0.83012746745E+02 0.  0.
         24    2    4    4    0    0  0.12547641214E+04 -0.31828431185E+03 -0.66183028648E+03  0.14560678480E+04  0.79852026897E+02 0.  0.
         11    1    3    3    0    0 -0.23258211765E+03  0.10547890546E+03 -0.95272996728E+02  0.27257509947E+03  0.00000000000E+00 0. -1.
        -11    1    3    3    0    0 -0.12187787598E+04  0.62447219851E+03 -0.30285250128E+03  0.14025358568E+04  0.00000000000E+00 0.  1.
          2    1    6    6  502    0  0.71178767231E+03 -0.16909080617E+03 -0.41648895708E+03  0.84184110291E+03  0.00000000000E+00 0. -1.
          3    1    5    5  503    0  0.17764285429E+03 -0.37119723577E+03  0.86509939432E+02  0.42050962075E+03  0.00000000000E+00 0. -1.
         -2    1    5    5    0  503  0.18953901754E+02 -0.40469556350E+02  0.40385131678E+02  0.60232833600E+02  0.00000000000E+00 0.  1.
         -1    1    6    6    0  502  0.54297644910E+03 -0.14919350568E+03 -0.24534132941E+03  0.61422674504E+03  0.00000000000E+00 0.  1.
<mgrwt>
<rscale>  0 0.34893227E+04</rscale>
<asrwt>0</asrwt>
<pdfrwt beam="1">  1        2 0.34961400E+00 0.34893227E+04</pdfrwt>
<pdfrwt beam="2">  1       -2 0.20606619E+00 0.34893227E+04</pdfrwt>
<totfact> 0.46923986E-01</totfact>
</mgrwt>
</event>
<event>
12    1  0.1489233E-007  0.2298030E+04  0.7818608E-02  0.8478698E-01
         -1   -1    0    0    0  501 -0.00000000000E+00  0.00000000000E+00  0.53460330029E+03  0.53460330029E+03  0.00000000000E+00 0.  1.
          1   -1    0    0  501    0  0.00000000000E+00 -0.00000000000E+00 -0.24695617295E+04  0.24695617295E+04  0.00000000000E+00 0. -1.
         23    2    1    2    0    0 -0.32024834644E+03  0.82905567163E+03 -0.13533829372E+04  0.16215670987E+04  0.89118858143E+02 0.  0.
        254    2    1    2    0    0  0.32024834644E+03 -0.82905567163E+03 -0.58157549203E+03  0.13825979311E+04  0.88512975097E+03 0.  0.
        -24    2    4    4    0    0 -0.37515001806E+02 -0.18385594317E+03  0.21331875159E+03  0.29527956101E+03  0.80465807461E+02 0.  0.
         24    2    4    4    0    0  0.35776334824E+03 -0.64519972846E+03 -0.79489424362E+03  0.10873183701E+04  0.78275643893E+02 0.  0.
         11    1    3    3    0    0  0.42904210830E+01  0.42129577040E+01 -0.44963337837E+01  0.75082450133E+01  0.00000000000E+00 0.  1.
        -11    1    3    3    0    0 -0.32453876752E+03  0.82484271393E+03 -0.13488866034E+04  0.16140588537E+04  0.00000000000E+00 0. -1.
          2    1    6    6  502    0  0.17198701205E+03 -0.38496440845E+03 -0.43196016494E+03  0.60362795842E+03  0.00000000000E+00 0. -1.
          1    1    5    5  503    0 -0.60665204522E+02 -0.15581585505E+03  0.18348665465E+03  0.24824624903E+03  0.00000000000E+00 0. -1.
         -2    1    5    5    0  503  0.23150202715E+02 -0.28040088125E+02  0.29832096936E+02  0.47033311976E+02  0.00000000000E+00 0.  1.
         -1    1    6    6    0  502  0.18577633619E+03 -0.26023532000E+03 -0.36293407867E+03  0.48369041166E+03  0.00000000000E+00 0.  1.
<mgrwt>
<rscale>  0 0.22980303E+04</rscale>
<asrwt>0</asrwt>
<pdfrwt beam="1">  1        1 0.37993257E+00 0.22980303E+04</pdfrwt>
<pdfrwt beam="2">  1       -1 0.82246661E-01 0.22980303E+04</pdfrwt>
<totfact> 0.18898820E+00</totfact>
</mgrwt>
</event>
<event>
12    1  0.1489233E-007  0.3146597E+04  0.7818608E-02  0.8203065E-01
         -2   -1    0    0    0  501 -0.00000000000E+00  0.00000000000E+00  0.56074593203E+03  0.56074593203E+03  0.00000000000E+00 0.  1.
          2   -1    0    0  501    0  0.00000000000E+00 -0.00000000000E+00 -0.44142422614E+04  0.44142422614E+04  0.00000000000E+00 0. -1.
         23    2    1    2    0    0 -0.61298168619E+03 -0.10818324669E+04 -0.29237792085E+04  0.31783115689E+04  0.84092419481E+02 0.  0.
        254    2    1    2    0    0  0.61298168619E+03  0.10818324669E+04 -0.92971712092E+03  0.17966766246E+04  0.90419297406E+03 0.  0.
        -24    2    4    4    0    0  0.81799905451E+03  0.96918443413E+03 -0.87659098546E+03  0.15442316346E+04  0.88310049952E+02 0.  0.
         24    2    4    4    0    0 -0.20501736831E+03  0.11264803275E+03 -0.53126135464E+02  0.25244498998E+03  0.78640867920E+02 0.  0.
         11    1    3    3    0    0 -0.31619965707E+03 -0.63817945089E+03 -0.16378083012E+04  0.17859650797E+04  0.00000000000E+00 0. -1.
        -11    1    3    3    0    0 -0.29678202912E+03 -0.44365301598E+03 -0.12859709073E+04  0.13923464892E+04  0.00000000000E+00 0.  1.
          4    1    6    6  502    0 -0.33202934210E+02  0.41738283006E+02  0.13459733940E+02  0.55006213705E+02  0.00000000000E+00 0. -1.
          1    1    5    5  503    0  0.18834157064E+03  0.18173723698E+03 -0.15240572359E+03  0.30286709151E+03  0.00000000000E+00 0. -1.
         -2    1    5    5    0  503  0.62965748386E+03  0.78744719715E+03 -0.72418526187E+03  0.12413645431E+04  0.00000000000E+00 0.  1.
         -3    1    6    6    0  502 -0.17181443410E+03  0.70909749740E+02 -0.66585869404E+02  0.19743877628E+03  0.00000000000E+00 0.  1.
<mgrwt>
<rscale>  0 0.31465971E+04</rscale>
<asrwt>0</asrwt>
<pdfrwt beam="1">  1        2 0.67911423E+00 0.31465971E+04</pdfrwt>
<pdfrwt beam="2">  1       -2 0.86268601E-01 0.31465971E+04</pdfrwt>
<totfact> 0.14630393E-01</totfact>
</mgrwt>
</event>
<event>
12    1  0.1489233E-007  0.1626466E+04  0.7818608E-02  0.8804452E-01
         -2   -1    0    0    0  501 -0.00000000000E+00  0.00000000000E+00  0.74279659181E+03  0.74279659181E+03  0.00000000000E+00 0.  1.
          2   -1    0    0  501    0  0.00000000000E+00 -0.00000000000E+00 -0.89034877532E+03  0.89034877532E+03  0.00000000000E+00 0. -1.
         23    2    1    2    0    0  0.34728195732E+03  0.30523631282E+03  0.26751026756E+03  0.54176537843E+03  0.90410273050E+02 0.  0.
        254    2    1    2    0    0 -0.34728195732E+03 -0.30523631282E+03 -0.41506245107E+03  0.10913799887E+04  0.89725106682E+03 0.  0.
        -24    2    4    4    0    0 -0.13128532152E+02 -0.46512154036E+03  0.69214908263E+02  0.47639902878E+03  0.75199238207E+02 0.  0.
         24    2    4    4    0    0 -0.33415342517E+03  0.15988522754E+03 -0.48427735933E+03  0.61498095992E+03  0.80344401006E+02 0.  0.
         13    1    3    3    0    0  0.30714579185E+03  0.29822557435E+03  0.25829176465E+03  0.49999166627E+03  0.00000000000E+00 0.  1.
        -13    1    3    3    0    0  0.40136165464E+02  0.70107384707E+01  0.92185029110E+01  0.41773712164E+02  0.00000000000E+00 0. -1.
          4    1    6    6  502    0 -0.23984839890E+03  0.13988965645E+03 -0.40005460458E+03  0.48697028357E+03  0.00000000000E+00 0. -1.
          1    1    5    5  503    0 -0.35525876143E+02 -0.31136297883E+03  0.69592529592E+02  0.32101730894E+03  0.00000000000E+00 0. -1.
         -2    1    5    5    0  503  0.22397343991E+02 -0.15375856153E+03 -0.37762132970E+00  0.15538171984E+03  0.00000000000E+00 0.  1.
         -3    1    6    6    0  502 -0.94305026268E+02  0.19995571089E+02 -0.84222754755E+02  0.12801067636E+03  0.00000000000E+00 0.  1.
<mgrwt>
<rscale>  0 0.16264662E+04</rscale>
<asrwt>0</asrwt>
<pdfrwt beam="1">  1        2 0.13697673E+00 0.16264662E+04</pdfrwt>
<pdfrwt beam="2">  1       -2 0.11427640E+00 0.16264662E+04</pdfrwt>
<totfact> 0.17059621E+01</totfact>
</mgrwt>
</event>
<event>
12    1  0.1489233E-007  0.1913786E+04  0.7818608E-02  0.8648024E-01
          2   -1    0    0  501    0  0.00000000000E+00  0.00000000000E+00  0.14875763264E+04  0.14875763264E+04  0.00000000000E+00 0. -1.
         -2   -1    0    0    0  501 -0.00000000000E+00 -0.00000000000E+00 -0.61552775571E+03  0.61552775571E+03  0.00000000000E+00 0.  1.
         23    2    1    2    0    0 -0.36993727906E+03 -0.62816833923E+03  0.50098508568E+03  0.88939088545E+03  0.92633893315E+02 0.  0.
        254    2    1    2    0    0  0.36993727906E+03  0.62816833923E+03  0.37106348504E+03  0.12137131967E+04  0.89663959374E+03 0.  0.
        -24    2    4    4    0    0  0.16345489319E+03  0.44486755768E+03 -0.24062008645E+03  0.53765211858E+03  0.80914328924E+02 0.  0.
         24    2    4    4    0    0  0.20648238587E+03  0.18330078155E+03  0.61168357149E+03  0.67606107812E+03  0.81655603158E+02 0.  0.
         13    1    3    3    0    0 -0.35400921756E+02 -0.38911748903E+02  0.65119057601E+02  0.83712849234E+02  0.00000000000E+00 0.  1.
        -13    1    3    3    0    0 -0.33453635730E+03 -0.58925659033E+03  0.43586602808E+03  0.80567803621E+03  0.00000000000E+00 0. -1.
          4    1    6    6  502    0  0.18549528195E+01  0.15653870446E+02  0.96748816965E+01  0.18495616933E+02  0.00000000000E+00 0. -1.
          3    1    5    5  503    0  0.39530453648E+02  0.56098253619E+02 -0.61022455637E+02  0.91833604507E+02  0.00000000000E+00 0. -1.
         -4    1    5    5    0  503  0.12392443954E+03  0.38876930406E+03 -0.17959763081E+03  0.44581851407E+03  0.00000000000E+00 0.  1.
         -3    1    6    6    0  502  0.20462743305E+03  0.16764691111E+03  0.60200868979E+03  0.65756546119E+03  0.00000000000E+00 0.  1.
<mgrwt>
<rscale>  0 0.19137863E+04</rscale>
<asrwt>0</asrwt>
<pdfrwt beam="1">  1        2 0.22885790E+00 0.19137863E+04</pdfrwt>
<pdfrwt beam="2">  1       -2 0.94696578E-01 0.19137863E+04</pdfrwt>
<totfact> 0.11333980E+01</totfact>
</mgrwt>
</event>
<event>
12    1  0.1489233E-007  0.1648877E+04  0.7818608E-02  0.8791071E-01
         -2   -1    0    0    0  501 -0.00000000000E+00  0.00000000000E+00  0.31216022192E+03  0.31216022192E+03  0.00000000000E+00 0.  1.
          2   -1    0    0  501    0  0.00000000000E+00 -0.00000000000E+00 -0.21774028606E+04  0.21774028606E+04  0.00000000000E+00 0. -1.
         23    2    1    2    0    0  0.23960719077E+03  0.34455252236E+03 -0.12399438400E+04  0.13122130455E+04  0.91182805290E+02 0.  0.
        254    2    1    2    0    0 -0.23960719077E+03 -0.34455252236E+03 -0.62529879872E+03  0.11773500370E+04  0.90500081518E+03 0.  0.
        -24    2    4    4    0    0  0.16770818210E+03  0.20887253911E+03 -0.65999343196E+02  0.28774902640E+03  0.81791301221E+02 0.  0.
         24    2    4    4    0    0 -0.40731537287E+03 -0.55342506146E+03 -0.55929945552E+03  0.88960101063E+03  0.79931004831E+02 0.  0.
         13    1    3    3    0    0  0.22322759377E+03  0.33681560071E+03 -0.12204470471E+04  0.12855995887E+04  0.00000000000E+00 0. -1.
        -13    1    3    3    0    0  0.16379596995E+02  0.77369216453E+01 -0.19496792833E+02  0.26613456841E+02  0.00000000000E+00 0.  1.
          2    1    6    6  502    0 -0.35832296370E+03 -0.43586933347E+03 -0.46418425302E+03  0.73064659236E+03  0.00000000000E+00 0. -1.
          1    1    5    5  503    0  0.49659202399E+02  0.11970710250E+03 -0.50148677610E+02  0.13896300456E+03  0.00000000000E+00 0. -1.
         -2    1    5    5    0  503  0.11804897970E+03  0.89165436607E+02 -0.15850665586E+02  0.14878602184E+03  0.00000000000E+00 0.  1.
         -1    1    6    6    0  502 -0.48992409165E+02 -0.11755572799E+03 -0.95115202508E+02  0.15895441827E+03  0.00000000000E+00 0.  1.
<mgrwt>
<rscale>  0 0.16488767E+04</rscale>
<asrwt>0</asrwt>
<pdfrwt beam="1">  1        2 0.33498508E+00 0.16488767E+04</pdfrwt>
<pdfrwt beam="2">  1       -2 0.48024647E-01 0.16488767E+04</pdfrwt>
<totfact> 0.20878467E+01</totfact>
</mgrwt>
</event>
<event>
12    1  0.1489233E-007  0.2231065E+04  0.7818608E-02  0.8505608E-01
         -1   -1    0    0    0  501 -0.00000000000E+00  0.00000000000E+00  0.60857336559E+03  0.60857336559E+03  0.00000000000E+00 0.  1.
          1   -1    0    0  501    0  0.00000000000E+00 -0.00000000000E+00 -0.20448039760E+04  0.20448039760E+04  0.00000000000E+00 0. -1.
         23    2    1    2    0    0  0.21829608209E+03  0.87018202458E+03 -0.90609186309E+03  0.12787474654E+04  0.96554029075E+02 0.  0.
        254    2    1    2    0    0 -0.21829608209E+03 -0.87018202458E+03 -0.53013874731E+03  0.13746298762E+04  0.89648774101E+03 0.  0.
        -24    2    4    4    0    0 -0.44317586561E+03 -0.74352293706E+03 -0.11190563945E+03  0.87656997453E+03  0.81368558523E+02 0.  0.
         24    2    4    4    0    0  0.22487978353E+03 -0.12665908752E+03 -0.41823310787E+03  0.49805990167E+03  0.80816407018E+02 0.  0.
         13    1    3    3    0    0  0.21060841745E+03  0.74647900848E+03 -0.74465346147E+03  0.10752188583E+04  0.00000000000E+00 0. -1.
        -13    1    3    3    0    0  0.76876646365E+01  0.12370301609E+03 -0.16143840162E+03  0.20352860707E+03  0.00000000000E+00 0.  1.
          4    1    6    6  502    0  0.11669836526E+03 -0.71876596283E+02 -0.29441178219E+03  0.32475075218E+03  0.00000000000E+00 0. -1.
          3    1    5    5  503    0 -0.40435319935E+03 -0.68370291376E+03 -0.79672289648E+02  0.79831000110E+03  0.00000000000E+00 0. -1.
         -4    1    5    5    0  503 -0.38822666261E+02 -0.59820023295E+02 -0.32233349798E+02  0.78259973433E+02  0.00000000000E+00 0.  1.
         -3    1    6    6    0  502  0.10818141827E+03 -0.54782491235E+02 -0.12382132567E+03  0.17330914949E+03  0.00000000000E+00 0.  1.
<mgrwt>
<rscale>  0 0.22310654E+04</rscale>
<asrwt>0</asrwt>
<pdfrwt beam="1">  1        1 0.31458522E+00 0.22310654E+04</pdfrwt>
<pdfrwt beam="2">  1       -1 0.93626672E-01 0.22310654E+04</pdfrwt>
<totfact> 0.27943678E+00</totfact>
</mgrwt>
</event>
<event>
12    1  0.1489233E-007  0.1284414E+04  0.7818608E-02  0.9042017E-01
          1   -1    0    0  501    0  0.00000000000E+00  0.00000000000E+00  0.43019439413E+03  0.43019439413E+03  0.00000000000E+00 0. -1.
         -1   -1    0    0    0  501 -0.00000000000E+00 -0.00000000000E+00 -0.95870588352E+03  0.95870588352E+03  0.00000000000E+00 0.  1.
         23    2    1    2    0    0  0.22748440762E+03 -0.35777434336E+02 -0.36998445360E+03  0.44261565944E+03  0.77401198730E+02 0.  0.
        254    2    1    2    0    0 -0.22748440762E+03  0.35777434336E+02 -0.15852703580E+03  0.94628461821E+03  0.90404345972E+03 0.  0.
        -24    2    4    4    0    0 -0.84291302080E+02 -0.10894667763E+03 -0.50891102844E+03  0.53329826553E+03  0.80263335151E+02 0.  0.
         24    2    4    4    0    0 -0.14319310554E+03  0.14472411197E+03  0.35038399265E+03  0.41298635268E+03  0.79620670319E+02 0.  0.
         13    1    3    3    0    0  0.11634683692E+03 -0.48396699167E+02 -0.15061513401E+03  0.19637654021E+03  0.00000000000E+00 0. -1.
        -13    1    3    3    0    0  0.11113757069E+03  0.12619264831E+02 -0.21936931958E+03  0.24623911923E+03  0.00000000000E+00 0.  1.
          2    1    6    6  502    0 -0.10068077624E+03  0.12407695152E+03  0.31740715725E+03  0.35535758339E+03  0.00000000000E+00 0. -1.
          1    1    5    5  503    0 -0.46915603583E+02 -0.74590177902E+01 -0.10663824416E+03  0.11674084942E+03  0.00000000000E+00 0. -1.
         -2    1    5    5    0  503 -0.37375698497E+02 -0.10148765984E+03 -0.40227278428E+03  0.41655741610E+03  0.00000000000E+00 0.  1.
         -1    1    6    6    0  502 -0.42512329300E+02  0.20647160449E+02  0.32976835397E+02  0.57628769290E+02  0.00000000000E+00 0.  1.
<mgrwt>
<rscale>  0 0.12844141E+04</rscale>
<asrwt>0</asrwt>
<pdfrwt beam="1">  1        1 0.66183754E-01 0.12844141E+04</pdfrwt>
<pdfrwt beam="2">  1       -1 0.14749321E+00 0.12844141E+04</pdfrwt>
<totfact> 0.19544137E+01</totfact>
</mgrwt>
</event>
<event>
12    1  0.1489233E-007  0.2961594E+04  0.7818608E-02  0.8254784E-01
          2   -1    0    0  501    0  0.00000000000E+00  0.00000000000E+00  0.17806862057E+04  0.17806862057E+04  0.00000000000E+00 0. -1.
         -2   -1    0    0    0  501 -0.00000000000E+00 -0.00000000000E+00 -0.12314124827E+04  0.12314124827E+04  0.00000000000E+00 0.  1.
         23    2    1    2    0    0 -0.22688017816E+03 -0.15732453678E+03 -0.10860458831E+04  0.11265921585E+04  0.11614045923E+03 0.  0.
        254    2    1    2    0    0  0.22688017816E+03  0.15732453678E+03  0.16353196061E+04  0.18855065299E+04  0.89701674194E+03 0.  0.
        -24    2    4    4    0    0  0.10761357469E+03 -0.35770277100E+03  0.48909381876E+03  0.62068282543E+03  0.80637785169E+02 0.  0.
         24    2    4    4    0    0  0.11926660347E+03  0.51502730778E+03  0.11462257873E+04  0.12648237045E+04  0.80422618301E+02 0.  0.
         13    1    3    3    0    0 -0.20361865603E+03 -0.14006235781E+03 -0.10572364644E+04  0.10857379807E+04  0.00000000000E+00 0.  1.
        -13    1    3    3    0    0 -0.23261522124E+02 -0.17262178973E+02 -0.28809418699E+02  0.40854177757E+02  0.00000000000E+00 0. -1.
          2    1    6    6  502    0  0.63868635495E+02  0.16820781635E+03  0.32139004686E+03  0.36832680367E+03  0.00000000000E+00 0. -1.
          1    1    5    5  503    0 -0.25275518210E+01 -0.52887188947E+02  0.37755478962E+02  0.65030142738E+02  0.00000000000E+00 0. -1.
         -2    1    5    5    0  503  0.11014112651E+03 -0.30481558205E+03  0.45133833980E+03  0.55565268269E+03  0.00000000000E+00 0.  1.
         -1    1    6    6    0  502  0.55397967971E+02  0.34681949142E+03  0.82483574044E+03  0.89649690083E+03  0.00000000000E+00 0.  1.
<mgrwt>
<rscale>  0 0.29615936E+04</rscale>
<asrwt>0</asrwt>
<pdfrwt beam="1">  1        2 0.27395172E+00 0.29615936E+04</pdfrwt>
<pdfrwt beam="2">  1       -2 0.18944807E+00 0.29615936E+04</pdfrwt>
<totfact> 0.11874720E+00</totfact>
</mgrwt>
</event>
<event>
12    1  0.1489233E-007  0.1015043E+04  0.7818608E-02  0.9292198E-01
         -1   -1    0    0    0  501 -0.00000000000E+00  0.00000000000E+00  0.43026368311E+03  0.43026368311E+03  0.00000000000E+00 0.  1.
          1   -1    0    0  501    0  0.00000000000E+00 -0.00000000000E+00 -0.59865140622E+03  0.59865140622E+03  0.00000000000E+00 0. -1.
         23    2    1    2    0    0  0.24037393813E+02 -0.30135048506E+02 -0.11785605100E+03  0.15198306565E+03  0.87879952414E+02 0.  0.
        254    2    1    2    0    0 -0.24037393813E+02  0.30135048506E+02 -0.50531672101E+02  0.87693202368E+03  0.87462586677E+03 0.  0.
        -24    2    4    4    0    0  0.17362377101E+03  0.31358094597E+03  0.22169766345E+03  0.42970490806E+03  0.83774879826E+02 0.  0.
         24    2    4    4    0    0 -0.19766116482E+03 -0.28344589746E+03 -0.27222933556E+03  0.44722711563E+03  0.80571514487E+02 0.  0.
         13    1    3    3    0    0  0.25501738732E+02 -0.39015150310E+02 -0.12928812284E+03  0.13743339965E+03  0.00000000000E+00 0. -1.
        -13    1    3    3    0    0 -0.14643449194E+01  0.88801018035E+01  0.11432071839E+02  0.14549665997E+02  0.00000000000E+00 0.  1.
          4    1    6    6  502    0 -0.54222813250E+02 -0.12700324062E+03 -0.14269656859E+03  0.19857554555E+03  0.00000000000E+00 0. -1.
          3    1    5    5  503    0  0.14389643858E+03  0.30363414748E+03  0.19473787394E+03  0.38835900929E+03  0.00000000000E+00 0. -1.
         -4    1    5    5    0  503  0.29727332433E+02  0.99467984881E+01  0.26959789514E+02  0.41345898762E+02  0.00000000000E+00 0.  1.
         -3    1    6    6    0  502 -0.14343835157E+03 -0.15644265684E+03 -0.12953276697E+03  0.24865157007E+03  0.00000000000E+00 0.  1.
<mgrwt>
<rscale>  0 0.10150428E+04</rscale>
<asrwt>0</asrwt>
<pdfrwt beam="1">  1        1 0.92100215E-01 0.10150428E+04</pdfrwt>
<pdfrwt beam="2">  1       -1 0.66194413E-01 0.10150428E+04</pdfrwt>
<totfact> 0.79636251E+01</totfact>
</mgrwt>
</event>
<event>
12    1  0.1489233E-007  0.1096643E+04  0.7818608E-02  0.9208470E-01
         -2   -1    0    0    0  501 -0.00000000000E+00  0.00000000000E+00  0.25594558357E+03  0.25594558357E+03  0.00000000000E+00 0.  1.
          2   -1    0    0  501    0  0.00000000000E+00 -0.00000000000E+00 -0.11746884115E+04  0.11746884115E+04  0.00000000000E+00 0. -1.
         23    2    1    2    0    0 -0.12279938711E+02  0.33781702501E+02 -0.35975904270E+03  0.37157777984E+03  0.85740756638E+02 0.  0.
        254    2    1    2    0    0  0.12279938711E+02 -0.33781702501E+02 -0.55898378525E+03  0.10590562153E+04  0.89880208866E+03 0.  0.
        -24    2    4    4    0    0 -0.26458517204E+03  0.37551778037E+02  0.12931263419E+03  0.30955897226E+03  0.87690082968E+02 0.  0.
         24    2    4    4    0    0  0.27686511075E+03 -0.71333480538E+02 -0.68829641944E+03  0.74949724299E+03  0.79065803251E+02 0.  0.
         13    1    3    3    0    0  0.27526084905E+02  0.37186791570E+02 -0.26056353738E+03  0.26463918801E+03  0.00000000000E+00 0. -1.
        -13    1    3    3    0    0 -0.39806023616E+02 -0.34050890682E+01 -0.99195505321E+02  0.10693859183E+03  0.00000000000E+00 0.  1.
          2    1    6    6  502    0  0.22235730136E+03 -0.40713015739E+02 -0.60112468829E+03  0.64222364484E+03  0.00000000000E+00 0. -1.
          1    1    5    5  503    0 -0.18254120470E+03  0.36696012635E+02  0.13071980657E+03  0.22749847601E+03  0.00000000000E+00 0. -1.
         -2    1    5    5    0  503 -0.82043967343E+02  0.85576540194E+00 -0.14071723825E+01  0.82060496257E+02  0.00000000000E+00 0.  1.
         -1    1    6    6    0  502  0.54507809395E+02 -0.30620464799E+02 -0.87171731150E+02  0.10727359816E+03  0.00000000000E+00 0.  1.
<mgrwt>
<rscale>  0 0.10966427E+04</rscale>
<asrwt>0</asrwt>
<pdfrwt beam="1">  1        2 0.18072129E+00 0.10966427E+04</pdfrwt>
<pdfrwt beam="2">  1       -2 0.39376244E-01 0.10966427E+04</pdfrwt>
<totfact> 0.11870934E+02</totfact>
</mgrwt>
</event>
<event>
12    1  0.1489233E-007  0.4238028E+04  0.7818608E-02  0.7958178E-01
         -1   -1    0    0    0  501 -0.00000000000E+00  0.00000000000E+00  0.27955990802E+04  0.27955990802E+04  0.00000000000E+00 0.  1.
          1   -1    0    0  501    0  0.00000000000E+00 -0.00000000000E+00 -0.16061749734E+04  0.16061749734E+04  0.00000000000E+00 0. -1.
         23    2    1    2    0    0  0.12303958572E+04 -0.89210844192E+03 -0.81187833229E+03  0.17253828892E+04  0.89823439794E+02 0.  0.
        254    2    1    2    0    0 -0.12303958572E+04  0.89210844192E+03  0.20013024391E+04  0.26763911643E+04  0.92093798601E+03 0.  0.
        -24    2    4    4    0    0 -0.95544416542E+03  0.48467347043E+03  0.18776958556E+04  0.21633582473E+04  0.81211169353E+02 0.  0.
         24    2    4    4    0    0 -0.27495169182E+03  0.40743497149E+03  0.12360658354E+03  0.51303291702E+03  0.79514134738E+02 0.  0.
         11    1    3    3    0    0  0.84156809050E+03 -0.58198444823E+03 -0.58612431973E+03  0.11791880542E+04  0.00000000000E+00 0.  1.
        -11    1    3    3    0    0  0.38882776674E+03 -0.31012399369E+03 -0.22575401255E+03  0.54619483505E+03  0.00000000000E+00 0. -1.
          4    1    6    6  502    0 -0.17417980034E+03  0.19471686612E+03  0.46606036192E+02  0.26537781258E+03  0.00000000000E+00 0. -1.
          3    1    5    5  503    0 -0.73114969056E+03  0.38537776689E+03  0.15091157520E+04  0.17206179838E+04  0.00000000000E+00 0. -1.
         -4    1    5    5    0  503 -0.22429447485E+03  0.99295703546E+02  0.36858010352E+03  0.44274026348E+03  0.00000000000E+00 0.  1.
         -3    1    6    6    0  502 -0.10077189148E+03  0.21271810536E+03  0.77000547348E+02  0.24765510444E+03  0.00000000000E+00 0.  1.
<mgrwt>
<rscale>  0 0.42380284E+04</rscale>
<asrwt>0</asrwt>
<pdfrwt beam="1">  1        1 0.24710384E+00 0.42380284E+04</pdfrwt>
<pdfrwt beam="2">  1       -1 0.43009217E+00 0.42380284E+04</pdfrwt>
<totfact> 0.18835736E-02</totfact>
</mgrwt>
</event>
<event>
12    1  0.1489233E-007  0.1841965E+04  0.7818608E-02  0.8684296E-01
         -2   -1    0    0    0  501 -0.00000000000E+00  0.00000000000E+00  0.66695198371E+03  0.66695198371E+03  0.00000000000E+00 0.  1.
          2   -1    0    0  501    0  0.00000000000E+00 -0.00000000000E+00 -0.12717682109E+04  0.12717682109E+04  0.00000000000E+00 0. -1.
         23    2    1    2    0    0 -0.85577038420E+02  0.10749421551E+03  0.48801981686E+03  0.51478364027E+03  0.89221178898E+02 0.  0.
        254    2    1    2    0    0  0.85577038420E+02 -0.10749421551E+03 -0.10928360440E+04  0.14239365543E+04  0.90245568075E+03 0.  0.
        -24    2    4    4    0    0  0.30649197306E+03  0.14697375613E+03 -0.10094463239E+04  0.10680333901E+04  0.78580068160E+02 0.  0.
         24    2    4    4    0    0 -0.22091493464E+03 -0.25446797164E+03 -0.83389720172E+02  0.35590316420E+03  0.78459288312E+02 0.  0.
         13    1    3    3    0    0  0.15613757496E+02 -0.67761668879E+00  0.42227355154E+02  0.45026637791E+02  0.00000000000E+00 0. -1.
        -13    1    3    3    0    0 -0.10119079592E+03  0.10817183220E+03  0.44579246171E+03  0.46975700248E+03  0.00000000000E+00 0.  1.
          4    1    6    6  502    0 -0.21154920372E+03 -0.23349985785E+03 -0.96415535617E+02  0.32950144874E+03  0.00000000000E+00 0. -1.
          1    1    5    5  503    0  0.15297052351E+03  0.74122173383E+02 -0.62505994763E+03  0.64776077049E+03  0.00000000000E+00 0. -1.
         -2    1    5    5    0  503  0.15352144955E+03  0.72851582745E+02 -0.38438637622E+03  0.42027261962E+03  0.00000000000E+00 0.  1.
         -3    1    6    6    0  502 -0.93657309134E+01 -0.20968113785E+02  0.13025815445E+02  0.26401715460E+02  0.00000000000E+00 0.  1.
<mgrwt>
<rscale>  0 0.18419645E+04</rscale>
<asrwt>0</asrwt>
<pdfrwt beam="1">  1        2 0.19565665E+00 0.18419645E+04</pdfrwt>
<pdfrwt beam="2">  1       -2 0.10260800E+00 0.18419645E+04</pdfrwt>
<totfact> 0.12554342E+01</totfact>
</mgrwt>
</event>
<event>
12    1  0.1489233E-007  0.1118495E+04  0.7818608E-02  0.9187350E-01
          2   -1    0    0  501    0  0.00000000000E+00  0.00000000000E+00  0.71104170130E+03  0.71104170130E+03  0.00000000000E+00 0. -1.
         -2   -1    0    0    0  501 -0.00000000000E+00 -0.00000000000E+00 -0.43985867560E+03  0.43985867560E+03  0.00000000000E+00 0.  1.
         23    2    1    2    0    0  0.26407457504E+02 -0.12383025486E+03  0.17792171702E+03  0.23617270798E+03  0.89945120904E+02 0.  0.
        254    2    1    2    0    0 -0.26407457504E+02  0.12383025486E+03  0.93261308675E+02  0.91472766892E+03  0.90110917805E+03 0.  0.
        -24    2    4    4    0    0 -0.21852143684E+03  0.44070057012E+03  0.16985174296E+03  0.52758213453E+03  0.86744931954E+02 0.  0.
         24    2    4    4    0    0  0.19211397934E+03 -0.31687031526E+03 -0.76590434288E+02  0.38714553439E+03  0.81859589687E+02 0.  0.
         13    1    3    3    0    0 -0.14909609660E+02 -0.10766905099E+03  0.10705156537E+03  0.15256132750E+03  0.00000000000E+00 0.  1.
        -13    1    3    3    0    0  0.41317067164E+02 -0.16161203871E+02  0.70870151652E+02  0.83611380474E+02  0.00000000000E+00 0. -1.
          4    1    6    6  502    0  0.71341833088E+02 -0.19619995783E+03 -0.42322085554E+02  0.21301464627E+03  0.00000000000E+00 0. -1.
          3    1    5    5  503    0 -0.83360519021E+02  0.22215578928E+03  0.11972568567E+03  0.26577511293E+03  0.00000000000E+00 0. -1.
         -4    1    5    5    0  503 -0.13516091782E+03  0.21854478084E+03  0.50126057291E+02  0.26180702160E+03  0.00000000000E+00 0.  1.
         -3    1    6    6    0  502  0.12077214625E+03 -0.12067035744E+03 -0.34268348734E+02  0.17413088812E+03  0.00000000000E+00 0.  1.
<mgrwt>
<rscale>  0 0.11184952E+04</rscale>
<asrwt>0</asrwt>
<pdfrwt beam="1">  1        2 0.10939103E+00 0.11184952E+04</pdfrwt>
<pdfrwt beam="2">  1       -2 0.67670565E-01 0.11184952E+04</pdfrwt>
<totfact> 0.79760358E+01</totfact>
</mgrwt>
</event>
<event>
12    1  0.1489233E-007  0.2451416E+04  0.7818608E-02  0.8420501E-01
          1   -1    0    0  501    0  0.00000000000E+00  0.00000000000E+00  0.19452573221E+04  0.19452573221E+04  0.00000000000E+00 0. -1.
         -1   -1    0    0    0  501 -0.00000000000E+00 -0.00000000000E+00 -0.77231956223E+03  0.77231956223E+03  0.00000000000E+00 0.  1.
         23    2    1    2    0    0 -0.27807393907E+03  0.27432052611E+03 -0.58434010296E+03  0.70873767823E+03  0.90988317802E+02 0.  0.
        254    2    1    2    0    0  0.27807393907E+03 -0.27432052611E+03  0.17572778628E+04  0.20088392061E+04  0.89153384799E+03 0.  0.
        -24    2    4    4    0    0 -0.11440457685E+03 -0.41832846913E+03  0.43285330391E+03  0.61794817560E+03  0.80067782107E+02 0.  0.
         24    2    4    4    0    0  0.39247851592E+03  0.14400794303E+03  0.13244245589E+04  0.13908910305E+04  0.75496843143E+02 0.  0.
         13    1    3    3    0    0 -0.12204684417E+03  0.82714477290E+02 -0.28246394386E+03  0.31862673539E+03  0.00000000000E+00 0. -1.
        -13    1    3    3    0    0 -0.15602709491E+03  0.19160604882E+03 -0.30187615910E+03  0.39011094284E+03  0.00000000000E+00 0.  1.
          2    1    6    6  502    0  0.43094673001E+02  0.42858266195E+02  0.20916078424E+03  0.21781234007E+03  0.00000000000E+00 0. -1.
          3    1    5    5  503    0 -0.83775019276E+02 -0.36414131129E+03  0.33423068994E+03  0.50132554547E+03  0.00000000000E+00 0. -1.
         -4    1    5    5    0  503 -0.30629557573E+02 -0.54187157839E+02  0.98622613969E+02  0.11662263013E+03  0.00000000000E+00 0.  1.
         -1    1    6    6    0  502  0.34938384292E+03  0.10114967683E+03  0.11152637747E+04  0.11730786904E+04  0.00000000000E+00 0.  1.
<mgrwt>
<rscale>  0 0.24514161E+04</rscale>
<asrwt>0</asrwt>
<pdfrwt beam="1">  1        1 0.29927036E+00 0.24514161E+04</pdfrwt>
<pdfrwt beam="2">  1       -1 0.11881839E+00 0.24514161E+04</pdfrwt>
<totfact> 0.18366181E+00</totfact>
</mgrwt>
</event>
<event>
12    1  0.1489233E-007  0.2633595E+04  0.7818608E-02  0.8356879E-01
         -2   -1    0    0    0  501 -0.00000000000E+00  0.00000000000E+00  0.37873016766E+04  0.37873016766E+04  0.00000000000E+00 0.  1.
          2   -1    0    0  501    0  0.00000000000E+00 -0.00000000000E+00 -0.45783390148E+03  0.45783390148E+03  0.00000000000E+00 0. -1.
         23    2    1    2    0    0 -0.16371901731E+03 -0.22608122829E+03 -0.34407558190E+03  0.45255051795E+03  0.92180946099E+02 0.  0.
        254    2    1    2    0    0  0.16371901731E+03  0.22608122829E+03  0.36735433570E+04  0.37925850601E+04  0.90047987428E+03 0.  0.
        -24    2    4    4    0    0  0.42296917130E+03  0.16273495443E+03  0.96033177719E+03  0.10648339010E+04  0.79047639203E+02 0.  0.
         24    2    4    4    0    0 -0.25925015399E+03  0.63346273864E+02  0.27132115798E+04  0.27277511591E+04  0.88802681318E+02 0.  0.
         11    1    3    3    0    0 -0.10104373908E+03 -0.19928134742E+03 -0.28649217363E+03  0.36331894829E+03  0.00000000000E+00 0. -1.
        -11    1    3    3    0    0 -0.62675278229E+02 -0.26799880871E+02 -0.57583408268E+02  0.89231569658E+02  0.00000000000E+00 0.  1.
          2    1    6    6  502    0 -0.99948028240E+02 -0.18918727702E+02  0.10382508140E+04  0.10432220662E+04  0.00000000000E+00 0. -1.
          3    1    5    5  503    0  0.35708604419E+03  0.14954708811E+03  0.74987604280E+03  0.84391282375E+03  0.00000000000E+00 0. -1.
         -4    1    5    5    0  503  0.65883127114E+02  0.13187866312E+02  0.21045573439E+03  0.22092107729E+03  0.00000000000E+00 0.  1.
         -1    1    6    6    0  502 -0.15930212575E+03  0.82265001566E+02  0.16749607659E+04  0.16845290929E+04  0.00000000000E+00 0.  1.
<mgrwt>
<rscale>  0 0.26335946E+04</rscale>
<asrwt>0</asrwt>
<pdfrwt beam="1">  1        2 0.70435987E-01 0.26335946E+04</pdfrwt>
<pdfrwt beam="2">  1       -2 0.58266178E+00 0.26335946E+04</pdfrwt>
<totfact> 0.35464003E-02</totfact>
</mgrwt>
</event>
<event>
12    1  0.1489233E-007  0.1277866E+04  0.7818608E-02  0.9047304E-01
         -3   -1    0    0    0  501 -0.00000000000E+00  0.00000000000E+00  0.84749397051E+03  0.84749397051E+03  0.00000000000E+00 0.  1.
          3   -1    0    0  501    0  0.00000000000E+00 -0.00000000000E+00 -0.48169702149E+03  0.48169702149E+03  0.00000000000E+00 0. -1.
         23    2    1    2    0    0 -0.23805072047E+03  0.16442576284E+03 -0.33929824180E+02  0.30472866123E+03  0.89467016293E+02 0.  0.
        254    2    1    2    0    0  0.23805072047E+03 -0.16442576284E+03  0.39972677320E+03  0.10244623308E+04  0.89779596622E+03 0.  0.
        -24    2    4    4    0    0 -0.23821571695E+03  0.13282347775E+03  0.35704306329E+03  0.45622945813E+03  0.79226039727E+02 0.  0.
         24    2    4    4    0    0  0.47626643743E+03 -0.29724924059E+03  0.42683709907E+02  0.56823287265E+03  0.76680297490E+02 0.  0.
         13    1    3    3    0    0  0.82525526977E-01 -0.40528159866E+01  0.90091902200E+01  0.98791515984E+01  0.00000000000E+00 0.  1.
        -13    1    3    3    0    0 -0.23813324600E+03  0.16847857882E+03 -0.42939014400E+02  0.29484950963E+03  0.00000000000E+00 0. -1.
          4    1    6    6  502    0  0.25226672328E+03 -0.11258112923E+03  0.25350561978E+02  0.27740883426E+03  0.00000000000E+00 0. -1.
          3    1    5    5  503    0 -0.12106252765E+03  0.31655946197E+02  0.12176519890E+03  0.17459953664E+03  0.00000000000E+00 0. -1.
         -4    1    5    5    0  503 -0.11715318930E+03  0.10116753155E+03  0.23527786439E+03  0.28162992149E+03  0.00000000000E+00 0.  1.
         -3    1    6    6    0  502  0.22399971415E+03 -0.18466811136E+03  0.17333147929E+02  0.29082403839E+03  0.00000000000E+00 0.  1.
<mgrwt>
<rscale>  0 0.12778659E+04</rscale>
<asrwt>0</asrwt>
<pdfrwt beam="1">  1        3 0.74107234E-01 0.12778659E+04</pdfrwt>
<pdfrwt beam="2">  1       -3 0.13038369E+00 0.12778659E+04</pdfrwt>
<totfact> 0.20424372E+00</totfact>
</mgrwt>
</event>
<event>
12    1  0.1489233E-007  0.1702252E+04  0.7818608E-02  0.8760081E-01
         -2   -1    0    0    0  501 -0.00000000000E+00  0.00000000000E+00  0.44006651728E+03  0.44006651728E+03  0.00000000000E+00 0.  1.
          2   -1    0    0  501    0  0.00000000000E+00 -0.00000000000E+00 -0.16461492261E+04  0.16461492261E+04  0.00000000000E+00 0. -1.
         23    2    1    2    0    0  0.15096934940E+03  0.57648824418E+03 -0.61175514428E+03  0.85907413557E+03  0.92917025968E+02 0.  0.
        254    2    1    2    0    0 -0.15096934940E+03 -0.57648824418E+03 -0.59432756450E+03  0.12271416078E+04  0.89304021829E+03 0.  0.
        -24    2    4    4    0    0 -0.33749701970E+03 -0.11025414491E+03  0.89799365749E+02  0.37485702197E+03  0.79960278002E+02 0.  0.
         24    2    4    4    0    0  0.18652767030E+03 -0.46623409927E+03 -0.68412693024E+03  0.85228458580E+03  0.78692765892E+02 0.  0.
         13    1    3    3    0    0  0.13629395676E+03  0.52458929040E+03 -0.51160721697E+03  0.74532671407E+03  0.00000000000E+00 0. -1.
        -13    1    3    3    0    0  0.14675392637E+02  0.51898953777E+02 -0.10014792732E+03  0.11374742150E+03  0.00000000000E+00 0.  1.
          2    1    6    6  502    0  0.27811478743E+01  0.27636552468E+01 -0.10120644530E+02  0.10853571741E+02  0.00000000000E+00 0. -1.
          1    1    5    5  503    0 -0.78798794486E+02 -0.52422603486E+02 -0.10155197664E+01  0.94648880865E+02  0.00000000000E+00 0. -1.
         -2    1    5    5    0  503 -0.25869822521E+03 -0.57831541422E+02  0.90814885515E+02  0.28020814111E+03  0.00000000000E+00 0.  1.
         -1    1    6    6    0  502  0.18374652243E+03 -0.46899775452E+03 -0.67400628571E+03  0.84143101406E+03  0.00000000000E+00 0.  1.
<mgrwt>
<rscale>  0 0.17022516E+04</rscale>
<asrwt>0</asrwt>
<pdfrwt beam="1">  1        2 0.25325373E+00 0.17022516E+04</pdfrwt>
<pdfrwt beam="2">  1       -2 0.67702541E-01 0.17022516E+04</pdfrwt>
<totfact> 0.19984716E+01</totfact>
</mgrwt>
</event>
<event>
12    1  0.1489233E-007  0.1195435E+04  0.7818608E-02  0.9116862E-01
         -1   -1    0    0    0  501 -0.00000000000E+00  0.00000000000E+00  0.83058557007E+03  0.83058557007E+03  0.00000000000E+00 0.  1.
          1   -1    0    0  501    0  0.00000000000E+00 -0.00000000000E+00 -0.43013769484E+03  0.43013769484E+03  0.00000000000E+00 0. -1.
         23    2    1    2    0    0 -0.11246677469E+02  0.23397208881E+03  0.16427209224E+03  0.30072034310E+03  0.92617376169E+02 0.  0.
        254    2    1    2    0    0  0.11246677469E+02 -0.23397208881E+03  0.23617578299E+03  0.96000292181E+03  0.90053161150E+03 0.  0.
        -24    2    4    4    0    0 -0.23768161732E+03 -0.40623924143E+03  0.38432640956E+03  0.61305612801E+03  0.81290556133E+02 0.  0.
         24    2    4    4    0    0  0.24892829479E+03  0.17226715262E+03 -0.14815062657E+03  0.34694679380E+03  0.82354124116E+02 0.  0.
         11    1    3    3    0    0 -0.25702139577E+02  0.52969080253E+02  0.48283065385E+01  0.59073140984E+02  0.00000000000E+00 0.  1.
        -11    1    3    3    0    0  0.14455462108E+02  0.18100300856E+03  0.15944378570E+03  0.24164720211E+03  0.00000000000E+00 0. -1.
          4    1    6    6  502    0  0.22173279832E+03  0.15043520647E+03 -0.15754113473E+03  0.31083016959E+03  0.00000000000E+00 0. -1.
          3    1    5    5  503    0 -0.16969718870E+03 -0.23001685013E+03  0.19786192254E+03  0.34764094637E+03  0.00000000000E+00 0. -1.
         -4    1    5    5    0  503 -0.67984428621E+02 -0.17622239130E+03  0.18646448702E+03  0.26541518164E+03  0.00000000000E+00 0.  1.
         -1    1    6    6    0  502  0.27195496471E+02  0.21831946151E+02  0.93905081602E+01  0.36116624213E+02  0.00000000000E+00 0.  1.
<mgrwt>
<rscale>  0 0.11954349E+04</rscale>
<asrwt>0</asrwt>
<pdfrwt beam="1">  1        1 0.66175030E-01 0.11954349E+04</pdfrwt>
<pdfrwt beam="2">  1       -1 0.12778240E+00 0.11954349E+04</pdfrwt>
<totfact> 0.28547890E+01</totfact>
</mgrwt>
</event>
<event>
12    1  0.1489233E-007  0.2132480E+04  0.7818608E-02  0.8547069E-01
          2   -1    0    0  501    0  0.00000000000E+00  0.00000000000E+00  0.19710379852E+04  0.19710379852E+04  0.00000000000E+00 0. -1.
         -2   -1    0    0    0  501 -0.00000000000E+00 -0.00000000000E+00 -0.57678621428E+03  0.57678621428E+03  0.00000000000E+00 0.  1.
         23    2    1    2    0    0 -0.34441525956E+03 -0.18550131001E+03  0.15063992744E+04  0.15589953597E+04  0.90527071687E+02 0.  0.
        254    2    1    2    0    0  0.34441525956E+03  0.18550131001E+03 -0.11214750346E+03  0.98882883978E+03  0.90120630535E+03 0.  0.
        -24    2    4    4    0    0  0.42497201226E+03  0.37776763151E+02 -0.43590237347E+03  0.61513351835E+03  0.79687333749E+02 0.  0.
         24    2    4    4    0    0 -0.80556752703E+02  0.14772454686E+03  0.32375487001E+03  0.37369532143E+03  0.80740604700E+02 0.  0.
         13    1    3    3    0    0  0.56018017236E+01 -0.18205187612E+01  0.15404858863E+02  0.16492548248E+02  0.00000000000E+00 0.  1.
        -13    1    3    3    0    0 -0.35001706128E+03 -0.18368079125E+03  0.14909944155E+04  0.15425028115E+04  0.00000000000E+00 0. -1.
          2    1    6    6  502    0 -0.50981312161E+02  0.33785263308E+02  0.16565881820E+03  0.17658817133E+03  0.00000000000E+00 0. -1.
          1    1    5    5  503    0  0.28863528193E+03  0.48791104408E+02 -0.33674027701E+03  0.44618932306E+03  0.00000000000E+00 0. -1.
         -2    1    5    5    0  503  0.13633673032E+03 -0.11014341258E+02 -0.99162096461E+02  0.16894419529E+03  0.00000000000E+00 0.  1.
         -1    1    6    6    0  502 -0.29575440542E+02  0.11393928356E+03  0.15809605181E+03  0.19710715010E+03  0.00000000000E+00 0.  1.
<mgrwt>
<rscale>  0 0.21324798E+04</rscale>
<asrwt>0</asrwt>
<pdfrwt beam="1">  1        2 0.30323661E+00 0.21324798E+04</pdfrwt>
<pdfrwt beam="2">  1       -2 0.88736342E-01 0.21324798E+04</pdfrwt>
<totfact> 0.69575568E+00</totfact>
</mgrwt>
</event>
<event>
12    1  0.1489233E-007  0.2030276E+04  0.7818608E-02  0.8592595E-01
         -1   -1    0    0    0  501 -0.00000000000E+00  0.00000000000E+00  0.17697722620E+04  0.17697722620E+04  0.00000000000E+00 0.  1.
          1   -1    0    0  501    0  0.00000000000E+00 -0.00000000000E+00 -0.58228110497E+03  0.58228110497E+03  0.00000000000E+00 0. -1.
         23    2    1    2    0    0  0.30762363357E+03  0.68752228381E+03  0.17883112237E+03  0.77973385528E+03  0.93194013117E+02 0.  0.
        254    2    1    2    0    0 -0.30762363357E+03 -0.68752228381E+03  0.10086600347E+04  0.15723195117E+04  0.94205859198E+03 0.  0.
        -24    2    4    4    0    0 -0.51079986691E+03 -0.46315024425E+03  0.22732353540E+03  0.73070852903E+03  0.82669896984E+02 0.  0.
         24    2    4    4    0    0  0.20317623334E+03 -0.22437203956E+03  0.78133649931E+03  0.84161098271E+03  0.78733265773E+02 0.  0.
         13    1    3    3    0    0  0.28249002455E+03  0.64002954480E+03  0.14007993403E+03  0.71348498239E+03  0.00000000000E+00 0. -1.
        -13    1    3    3    0    0  0.25133609023E+02  0.47492739011E+02  0.38751188341E+02  0.66248872889E+02  0.00000000000E+00 0.  1.
          4    1    6    6  502    0  0.18588296124E+03 -0.16241343167E+03  0.65197438726E+03  0.69713786277E+03  0.00000000000E+00 0. -1.
          1    1    5    5  503    0 -0.27022427300E+03 -0.19661270905E+03  0.88020361521E+02  0.34557965669E+03  0.00000000000E+00 0. -1.
         -2    1    5    5    0  503 -0.24057559391E+03 -0.26653753519E+03  0.13930317388E+03  0.38512887234E+03  0.00000000000E+00 0.  1.
         -3    1    6    6    0  502  0.17293272095E+02 -0.61958607890E+02  0.12936211205E+03  0.14447311994E+03  0.00000000000E+00 0.  1.
<mgrwt>
<rscale>  0 0.20302758E+04</rscale>
<asrwt>0</asrwt>
<pdfrwt beam="1">  1        1 0.89581709E-01 0.20302758E+04</pdfrwt>
<pdfrwt beam="2">  1       -1 0.27227265E+00 0.20302758E+04</pdfrwt>
<totfact> 0.16529250E+00</totfact>
</mgrwt>
</event>
<event>
12    1  0.1489233E-007  0.1190978E+04  0.7818608E-02  0.9120791E-01
          3   -1    0    0  501    0  0.00000000000E+00  0.00000000000E+00  0.76446296731E+03  0.76446296731E+03  0.00000000000E+00 0. -1.
         -3   -1    0    0    0  501 -0.00000000000E+00 -0.00000000000E+00 -0.46386405466E+03  0.46386405466E+03  0.00000000000E+00 0.  1.
         23    2    1    2    0    0 -0.16620961016E+03  0.13030001373E+03  0.19189933421E+03  0.30007238615E+03  0.92813546271E+02 0.  0.
        254    2    1    2    0    0  0.16620961016E+03 -0.13030001373E+03  0.10869957844E+03  0.92825463582E+03  0.89735017829E+03 0.  0.
        -24    2    4    4    0    0  0.52393111127E+03  0.68758836934E+01  0.54649209822E+02  0.53270006534E+03  0.78941347472E+02 0.  0.
         24    2    4    4    0    0 -0.35772150111E+03 -0.13717589743E+03  0.54050368613E+02  0.39555457049E+03  0.82219685572E+02 0.  0.
         11    1    3    3    0    0 -0.13727380170E+03  0.93190635559E+02  0.92172670433E+02  0.18980092825E+03  0.00000000000E+00 0. -1.
        -11    1    3    3    0    0 -0.28935808461E+02  0.37109378174E+02  0.99726663778E+02  0.11027145790E+03  0.00000000000E+00 0.  1.
          2    1    6    6  502    0 -0.35253571791E+03 -0.11884948763E+03  0.56695869943E+02  0.37632572963E+03  0.00000000000E+00 0. -1.
          3    1    5    5  503    0  0.48478500542E+03  0.14950839614E+01  0.29129857367E+02  0.48566169846E+03  0.00000000000E+00 0. -1.
         -4    1    5    5    0  503  0.39146105847E+02  0.53807997320E+01  0.25519352455E+02  0.47038366877E+02  0.00000000000E+00 0.  1.
         -1    1    6    6    0  502 -0.51857831993E+01 -0.18326409799E+02 -0.26455013292E+01  0.19228840859E+02  0.00000000000E+00 0.  1.
<mgrwt>
<rscale>  0 0.11909776E+04</rscale>
<asrwt>0</asrwt>
<pdfrwt beam="1">  1        3 0.11760969E+00 0.11909776E+04</pdfrwt>
<pdfrwt beam="2">  1       -3 0.71363701E-01 0.11909776E+04</pdfrwt>
<totfact> 0.28806699E+00</totfact>
</mgrwt>
</event>
<event>
12    1  0.1489233E-007  0.1489295E+04  0.7818608E-02  0.8891603E-01
          2   -1    0    0  501    0  0.00000000000E+00  0.00000000000E+00  0.34018521292E+04  0.34018521292E+04  0.00000000000E+00 0. -1.
         -2   -1    0    0    0  501 -0.00000000000E+00 -0.00000000000E+00 -0.16299951972E+03  0.16299951972E+03  0.00000000000E+00 0.  1.
         23    2    1    2    0    0 -0.13589003235E+03  0.27992834202E+03  0.19679367281E+03  0.37926838545E+03  0.91053725859E+02 0.  0.
        254    2    1    2    0    0  0.13589003235E+03 -0.27992834202E+03  0.30420589367E+04  0.31855832635E+04  0.89274418322E+03 0.  0.
        -24    2    4    4    0    0  0.17832184635E+03 -0.25479923600E+03  0.30718500121E+04  0.30885897616E+04  0.80018040084E+02 0.  0.
         24    2    4    4    0    0 -0.42431814001E+02 -0.25129106019E+02 -0.29791075403E+02  0.96993501935E+02  0.78027562022E+02 0.  0.
         13    1    3    3    0    0 -0.13125626265E+03  0.21892466266E+03  0.18896330676E+03  0.31758990177E+03  0.00000000000E+00 0.  1.
        -13    1    3    3    0    0 -0.46337697001E+01  0.61003679363E+02  0.78303660426E+01  0.61678483686E+02  0.00000000000E+00 0. -1.
          2    1    6    6  502    0 -0.34809488827E+02 -0.38719249207E+02 -0.49519088142E+02  0.71854163846E+02  0.00000000000E+00 0. -1.
          3    1    5    5  503    0  0.38146560738E+02 -0.29118512245E+02  0.76243988998E+03  0.76394871142E+03  0.00000000000E+00 0. -1.
         -4    1    5    5    0  503  0.14017528561E+03 -0.22568072375E+03  0.23094101221E+04  0.23246410501E+04  0.00000000000E+00 0.  1.
         -1    1    6    6    0  502 -0.76223251739E+01  0.13590143187E+02  0.19728012739E+02  0.25139338089E+02  0.00000000000E+00 0.  1.
<mgrwt>
<rscale>  0 0.14892955E+04</rscale>
<asrwt>0</asrwt>
<pdfrwt beam="1">  1        2 0.52336182E+00 0.14892955E+04</pdfrwt>
<pdfrwt beam="2">  1       -2 0.25076852E-01 0.14892955E+04</pdfrwt>
<totfact> 0.13284744E+01</totfact>
</mgrwt>
</event>
<event>
12    1  0.1489233E-007  0.1304502E+04  0.7818608E-02  0.9026002E-01
          1   -1    0    0  501    0  0.00000000000E+00  0.00000000000E+00  0.58779822145E+03  0.58779822145E+03  0.00000000000E+00 0. -1.
         -1   -1    0    0    0  501 -0.00000000000E+00 -0.00000000000E+00 -0.72377158249E+03  0.72377158249E+03  0.00000000000E+00 0.  1.
         23    2    1    2    0    0 -0.56435979603E+02  0.32523405483E+03  0.23532878668E+02  0.34380720250E+03  0.93206147336E+02 0.  0.
        254    2    1    2    0    0  0.56435979603E+02 -0.32523405483E+03 -0.15950623970E+03  0.96776260144E+03  0.89563385489E+03 0.  0.
        -24    2    4    4    0    0 -0.30862805053E+03 -0.10592090837E+03  0.21169760462E+03  0.39720034764E+03  0.80509179334E+02 0.  0.
         24    2    4    4    0    0  0.36506403013E+03 -0.21931314646E+03 -0.37120384432E+03  0.57056225380E+03  0.79868574047E+02 0.  0.
         11    1    3    3    0    0 -0.69049310509E+02  0.29192389359E+03 -0.19949851700E+01  0.29998557782E+03  0.00000000000E+00 0. -1.
        -11    1    3    3    0    0  0.12613330906E+02  0.33310161234E+02  0.25527863838E+02  0.43821624686E+02  0.00000000000E+00 0.  1.
          4    1    6    6  502    0  0.13363133439E+03 -0.38119309979E+02 -0.10766469441E+03  0.17578993642E+03  0.00000000000E+00 0. -1.
          3    1    5    5  503    0 -0.53898189909E+02 -0.17795217345E+02  0.39669749273E+01  0.56898343789E+02  0.00000000000E+00 0. -1.
         -4    1    5    5    0  503 -0.25472986062E+03 -0.88125691024E+02  0.20773062969E+03  0.34030200385E+03  0.00000000000E+00 0.  1.
         -3    1    6    6    0  502  0.23143269575E+03 -0.18119383648E+03 -0.26353914991E+03  0.39477231738E+03  0.00000000000E+00 0.  1.
<mgrwt>
<rscale>  0 0.13045024E+04</rscale>
<asrwt>0</asrwt>
<pdfrwt beam="1">  1        1 0.90430496E-01 0.13045024E+04</pdfrwt>
<pdfrwt beam="2">  1       -1 0.11134947E+00 0.13045024E+04</pdfrwt>
<totfact> 0.25703398E+01</totfact>
</mgrwt>
</event>
<event>
12    1  0.1489233E-007  0.1828412E+04  0.7818608E-02  0.8691334E-01
          2   -1    0    0  501    0  0.00000000000E+00  0.00000000000E+00  0.37250243481E+04  0.37250243481E+04  0.00000000000E+00 0. -1.
         -2   -1    0    0    0  501 -0.00000000000E+00 -0.00000000000E+00 -0.22436706059E+03  0.22436706059E+03  0.00000000000E+00 0.  1.
         23    2    1    2    0    0  0.90288229486E+02  0.67383434694E+03  0.16283252786E+04  0.17668647706E+04  0.90350501959E+02 0.  0.
        254    2    1    2    0    0 -0.90288229486E+02 -0.67383434694E+03  0.18723320089E+04  0.21825266381E+04  0.89195890198E+03 0.  0.
        -24    2    4    4    0    0  0.18754665479E+03 -0.16213485725E+03  0.14111129319E+04  0.14350635282E+04  0.81891169547E+02 0.  0.
         24    2    4    4    0    0 -0.27783488428E+03 -0.51169948969E+03  0.46121907704E+03  0.74746310994E+03  0.83363499323E+02 0.  0.
         13    1    3    3    0    0  0.61258838367E+02  0.55171036353E+03  0.12355520759E+04  0.13545205435E+04  0.00000000000E+00 0.  1.
        -13    1    3    3    0    0  0.29029391119E+02  0.12212398342E+03  0.39277320273E+03  0.41234422714E+03  0.00000000000E+00 0. -1.
          4    1    6    6  502    0 -0.25650159274E+03 -0.49757450737E+03  0.42376484055E+03  0.70210405038E+03  0.00000000000E+00 0. -1.
          1    1    5    5  503    0  0.79124975366E+02 -0.31824084245E+02  0.63155481684E+03  0.63728723567E+03  0.00000000000E+00 0. -1.
         -2    1    5    5    0  503  0.10842167942E+03 -0.13031077301E+03  0.77955811504E+03  0.79777629249E+03  0.00000000000E+00 0.  1.
         -3    1    6    6    0  502 -0.21333291537E+02 -0.14124982316E+02  0.37454236490E+02  0.45359059561E+02  0.00000000000E+00 0.  1.
<mgrwt>
<rscale>  0 0.18284122E+04</rscale>
<asrwt>0</asrwt>
<pdfrwt beam="1">  1        2 0.57308062E+00 0.18284122E+04</pdfrwt>
<pdfrwt beam="2">  1       -2 0.34518012E-01 0.18284122E+04</pdfrwt>
<totfact> 0.41871825E+00</totfact>
</mgrwt>
</event>
<event>
12    1  0.1489233E-007  0.2277113E+04  0.7818608E-02  0.8487000E-01
         -2   -1    0    0    0  501 -0.00000000000E+00  0.00000000000E+00  0.88378892226E+03  0.88378892226E+03  0.00000000000E+00 0.  1.
          2   -1    0    0  501    0  0.00000000000E+00 -0.00000000000E+00 -0.14667658884E+04  0.14667658884E+04  0.00000000000E+00 0. -1.
         23    2    1    2    0    0  0.61234697888E+03 -0.56701345979E+03  0.23916384537E+03  0.87304428074E+03  0.92379029344E+02 0.  0.
        254    2    1    2    0    0 -0.61234697888E+03  0.56701345979E+03 -0.82214081148E+03  0.14775105299E+04  0.90036035338E+03 0.  0.
        -24    2    4    4    0    0  0.27826019354E+02  0.39407837356E+03 -0.68650377914E+03  0.79600259036E+03  0.79124163327E+02 0.  0.
         24    2    4    4    0    0 -0.64017299824E+03  0.17293508623E+03 -0.13563703234E+03  0.68150793954E+03  0.79546561180E+02 0.  0.
         11    1    3    3    0    0  0.30799855147E+03 -0.26341571771E+03  0.71058233909E+02  0.41146108036E+03  0.00000000000E+00 0. -1.
        -11    1    3    3    0    0  0.30434842741E+03 -0.30359774208E+03  0.16810561146E+03  0.46158320038E+03  0.00000000000E+00 0.  1.
          4    1    6    6  502    0 -0.57864090236E+03  0.16592772691E+03 -0.14419203563E+03  0.61899002220E+03  0.00000000000E+00 0. -1.
          1    1    5    5  503    0  0.20854123599E+01 -0.36952228670E+01 -0.59581233293E+01  0.73145642628E+01  0.00000000000E+00 0. -1.
         -2    1    5    5    0  503  0.25740606995E+02  0.39777359643E+03 -0.68054565581E+03  0.78868802610E+03  0.00000000000E+00 0.  1.
         -3    1    6    6    0  502 -0.61532095871E+02  0.70073593176E+01  0.85550032914E+01  0.62517917337E+02  0.00000000000E+00 0.  1.
<mgrwt>
<rscale>  0 0.22771135E+04</rscale>
<asrwt>0</asrwt>
<pdfrwt beam="1">  1        2 0.22565629E+00 0.22771135E+04</pdfrwt>
<pdfrwt beam="2">  1       -2 0.13596753E+00 0.22771135E+04</pdfrwt>
<totfact> 0.46649713E+00</totfact>
</mgrwt>
</event>
<event>
12    1  0.1489233E-007  0.3120186E+04  0.7818608E-02  0.8210220E-01
         -1   -1    0    0    0  501 -0.00000000000E+00  0.00000000000E+00  0.24368583356E+04  0.24368583356E+04  0.00000000000E+00 0.  1.
          1   -1    0    0  501    0  0.00000000000E+00 -0.00000000000E+00 -0.99878170728E+03  0.99878170728E+03  0.00000000000E+00 0. -1.
         23    2    1    2    0    0 -0.18017515159E+03 -0.13591920310E+04  0.21557851844E+03  0.13910007202E+04  0.92427504160E+02 0.  0.
        254    2    1    2    0    0  0.18017515159E+03  0.13591920310E+04  0.12224981098E+04  0.20446393227E+04  0.89787653327E+03 0.  0.
        -24    2    4    4    0    0  0.13965193792E+03  0.96010461135E+03  0.13042341710E+04  0.16275310665E+04  0.80790291198E+02 0.  0.
         24    2    4    4    0    0  0.40523213665E+02  0.39908741963E+03 -0.81736061179E+02  0.41710825616E+03  0.79910038843E+02 0.  0.
         13    1    3    3    0    0 -0.14728728072E+03 -0.10199807390E+04  0.12318267971E+03  0.10378960563E+04  0.00000000000E+00 0. -1.
        -13    1    3    3    0    0 -0.32887870862E+02 -0.33921129194E+03  0.92395838730E+02  0.35310466387E+03  0.00000000000E+00 0.  1.
          4    1    6    6  502    0 -0.23309843330E+02  0.14950008001E+03 -0.34569280832E+02  0.15520521220E+03  0.00000000000E+00 0. -1.
          3    1    5    5  503    0  0.35989325021E+02  0.11048736700E+03  0.18620884783E+03  0.21949128637E+03  0.00000000000E+00 0. -1.
         -4    1    5    5    0  503  0.10366261290E+03  0.84961724435E+03  0.11180253232E+04  0.14080397802E+04  0.00000000000E+00 0.  1.
         -3    1    6    6    0  502  0.63833056995E+02  0.24958733962E+03 -0.47166780348E+02  0.26190304396E+03  0.00000000000E+00 0.  1.
<mgrwt>
<rscale>  0 0.31201856E+04</rscale>
<asrwt>0</asrwt>
<pdfrwt beam="1">  1        1 0.15365872E+00 0.31201856E+04</pdfrwt>
<pdfrwt beam="2">  1       -1 0.37490128E+00 0.31201856E+04</pdfrwt>
<totfact> 0.13521427E-01</totfact>
</mgrwt>
</event>
<event>
12    1  0.1489233E-007  0.1428103E+04  0.7818608E-02  0.8933724E-01
         -1   -1    0    0    0  501 -0.00000000000E+00  0.00000000000E+00  0.25030859536E+03  0.25030859536E+03  0.00000000000E+00 0.  1.
          1   -1    0    0  501    0  0.00000000000E+00 -0.00000000000E+00 -0.20369640358E+04  0.20369640358E+04  0.00000000000E+00 0. -1.
         23    2    1    2    0    0  0.26921117214E+03 -0.14546628233E+03 -0.99978859929E+03  0.10528134725E+04  0.12330397415E+03 0.  0.
        254    2    1    2    0    0 -0.26921117214E+03  0.14546628233E+03 -0.78686684119E+03  0.12344591587E+04  0.90060806921E+03 0.  0.
        -24    2    4    4    0    0 -0.49995486964E+03  0.29452542224E+03 -0.74079046035E+03  0.94447026204E+03  0.80953528044E+02 0.  0.
         24    2    4    4    0    0  0.23074369751E+03 -0.14905913991E+03 -0.46076380838E+02  0.28998889670E+03  0.80679899639E+02 0.  0.
         13    1    3    3    0    0  0.18341459061E+03 -0.14903920372E+03 -0.62191860036E+03  0.66530920763E+03  0.00000000000E+00 0. -1.
        -13    1    3    3    0    0  0.85796581528E+02  0.35729213931E+01 -0.37786999894E+03  0.38750426483E+03  0.00000000000E+00 0.  1.
          2    1    6    6  502    0  0.64368836996E+02 -0.52707707908E+02  0.21960381275E+02  0.86044802254E+02  0.00000000000E+00 0. -1.
          1    1    5    5  503    0 -0.39616983912E+03  0.22117820695E+03 -0.62653787525E+03  0.77357614349E+03  0.00000000000E+00 0. -1.
         -2    1    5    5    0  503 -0.10378503052E+03  0.73347215291E+02 -0.11425258510E+03  0.17089411855E+03  0.00000000000E+00 0.  1.
         -1    1    6    6    0  502  0.16637486051E+03 -0.96351431999E+02 -0.68036762113E+02  0.20394409444E+03  0.00000000000E+00 0.  1.
<mgrwt>
<rscale>  0 0.14281031E+04</rscale>
<asrwt>0</asrwt>
<pdfrwt beam="1">  1        1 0.31337909E+00 0.14281031E+04</pdfrwt>
<pdfrwt beam="2">  1       -1 0.38509013E-01 0.14281031E+04</pdfrwt>
<totfact> 0.17882758E+01</totfact>
</mgrwt>
</event>
<event>
12    1  0.1489233E-007  0.2915336E+04  0.7818608E-02  0.8268329E-01
         -2   -1    0    0    0  501 -0.00000000000E+00  0.00000000000E+00  0.57034567626E+03  0.57034567626E+03  0.00000000000E+00 0.  1.
          2   -1    0    0  501    0  0.00000000000E+00 -0.00000000000E+00 -0.37254532643E+04  0.37254532643E+04  0.00000000000E+00 0. -1.
         23    2    1    2    0    0  0.14916053899E+03 -0.32507754336E+03  0.43835873180E+03  0.57292717093E+03  0.90348712553E+02 0.  0.
        254    2    1    2    0    0 -0.14916053899E+03  0.32507754336E+03 -0.35934663198E+04  0.37228717696E+04  0.90490316919E+03 0.  0.
        -24    2    4    4    0    0 -0.67726849751E+02 -0.12444313147E+03 -0.27956218312E+04  0.28003746697E+04  0.80770343052E+02 0.  0.
         24    2    4    4    0    0 -0.81433689237E+02  0.44952067483E+03 -0.79784448862E+03  0.92249709993E+03  0.75794383095E+02 0.  0.
         13    1    3    3    0    0  0.15907494924E+03 -0.28580666677E+03  0.37370595808E+03  0.49663511087E+03  0.00000000000E+00 0.  1.
        -13    1    3    3    0    0 -0.99144102510E+01 -0.39270876585E+02  0.64652773719E+02  0.76292060058E+02  0.00000000000E+00 0. -1.
          4    1    6    6  502    0  0.12697571009E+02  0.27304338964E+02 -0.61837111313E+02  0.68779237938E+02  0.00000000000E+00 0. -1.
          3    1    5    5  503    0  0.12506124301E+02 -0.23821220935E+02 -0.89308925679E+03  0.89349441762E+03  0.00000000000E+00 0. -1.
         -4    1    5    5    0  503 -0.80232974053E+02 -0.10062191054E+03 -0.19025325744E+04  0.19068802520E+04  0.00000000000E+00 0.  1.
         -3    1    6    6    0  502 -0.94131260246E+02  0.42221633587E+03 -0.73600737731E+03  0.85371786199E+03  0.00000000000E+00 0.  1.
<mgrwt>
<rscale>  0 0.29153361E+04</rscale>
<asrwt>0</asrwt>
<pdfrwt beam="1">  1        2 0.57314664E+00 0.29153361E+04</pdfrwt>
<pdfrwt beam="2">  1       -2 0.87745491E-01 0.29153361E+04</pdfrwt>
<totfact> 0.53951047E-01</totfact>
</mgrwt>
</event>
<event>
12    1  0.1489233E-007  0.1255029E+04  0.7818608E-02  0.9066008E-01
         -1   -1    0    0    0  501 -0.00000000000E+00  0.00000000000E+00  0.49498566529E+03  0.49498566529E+03  0.00000000000E+00 0.  1.
          1   -1    0    0  501    0  0.00000000000E+00 -0.00000000000E+00 -0.79552695711E+03  0.79552695711E+03  0.00000000000E+00 0. -1.
         23    2    1    2    0    0 -0.84512428669E+02 -0.16920177196E+03 -0.26563353700E+03  0.33851515966E+03  0.90883150846E+02 0.  0.
        254    2    1    2    0    0  0.84512428669E+02  0.16920177196E+03 -0.34907754813E+02  0.95199746274E+03  0.93236743159E+03 0.  0.
        -24    2    4    4    0    0 -0.17447704071E+03 -0.32541673487E+03 -0.79632659351E+02  0.38612361688E+03  0.80073703581E+02 0.  0.
         24    2    4    4    0    0  0.25898946938E+03  0.49461850683E+03  0.44724904538E+02  0.56587384586E+03  0.80559790150E+02 0.  0.
         11    1    3    3    0    0 -0.45744868234E+02 -0.11577000238E+03 -0.98243701232E+02  0.15857840727E+03  0.00000000000E+00 0. -1.
        -11    1    3    3    0    0 -0.38767560435E+02 -0.53431769580E+02 -0.16738983577E+03  0.17993675239E+03  0.00000000000E+00 0.  1.
          2    1    6    6  502    0  0.25685069377E+03  0.47474088878E+03  0.56422950272E+02  0.54271054871E+03  0.00000000000E+00 0. -1.
          3    1    5    5  503    0 -0.17830438185E+03 -0.29919350347E+03 -0.86237101766E+02  0.35881198813E+03  0.00000000000E+00 0. -1.
         -4    1    5    5    0  503  0.38273411333E+01 -0.26223231403E+02  0.66044424147E+01  0.27311628750E+02  0.00000000000E+00 0.  1.
         -1    1    6    6    0  502  0.21387756126E+01  0.19877618053E+02 -0.11698045734E+02  0.23163297144E+02  0.00000000000E+00 0.  1.
<mgrwt>
<rscale>  0 0.12550290E+04</rscale>
<asrwt>0</asrwt>
<pdfrwt beam="1">  1        1 0.12238876E+00 0.12550290E+04</pdfrwt>
<pdfrwt beam="2">  1       -1 0.76151641E-01 0.12550290E+04</pdfrwt>
<totfact> 0.38097328E+01</totfact>
</mgrwt>
</event>
<event>
12    1  0.1489233E-007  0.1189641E+04  0.7818608E-02  0.9121972E-01
          1   -1    0    0  501    0  0.00000000000E+00  0.00000000000E+00  0.24239290255E+04  0.24239290255E+04  0.00000000000E+00 0. -1.
         -1   -1    0    0    0  501 -0.00000000000E+00 -0.00000000000E+00 -0.14596609527E+03  0.14596609527E+03  0.00000000000E+00 0.  1.
         23    2    1    2    0    0 -0.64350906128E+02  0.13840049016E+02  0.98564008260E+03  0.99217383048E+03  0.92681990642E+02 0.  0.
        254    2    1    2    0    0  0.64350906128E+02 -0.13840049016E+02  0.12923228476E+04  0.15777212903E+04  0.90264807164E+03 0.  0.
        -24    2    4    4    0    0 -0.30868795472E+03 -0.18680526570E+03  0.22932623337E+03  0.43511031894E+03  0.80907401700E+02 0.  0.
         24    2    4    4    0    0  0.37303886085E+03  0.17296521669E+03  0.10629966142E+04  0.11426109713E+04  0.80765537377E+02 0.  0.
         11    1    3    3    0    0  0.22757285431E+02 -0.70347580384E+01  0.23700518480E+03  0.23819915929E+03  0.00000000000E+00 0.  1.
        -11    1    3    3    0    0 -0.87108191559E+02  0.20874807054E+02  0.74863489780E+03  0.75397467120E+03  0.00000000000E+00 0. -1.
          2    1    6    6  502    0  0.37263888271E+03  0.16622329601E+03  0.10586954395E+04  0.11346038757E+04  0.00000000000E+00 0. -1.
          1    1    5    5  503    0 -0.19400301324E+03 -0.16059586692E+03  0.14836691893E+03  0.29230282970E+03  0.00000000000E+00 0. -1.
         -2    1    5    5    0  503 -0.11468494149E+03 -0.26209398780E+02  0.80959314440E+02  0.14280748924E+03  0.00000000000E+00 0.  1.
         -1    1    6    6    0  502  0.39997814472E+00  0.67419206766E+01  0.43011747382E+01  0.80070956691E+01  0.00000000000E+00 0.  1.
<mgrwt>
<rscale>  0 0.11896410E+04</rscale>
<asrwt>0</asrwt>
<pdfrwt beam="1">  1        1 0.37291213E+00 0.11896410E+04</pdfrwt>
<pdfrwt beam="2">  1       -1 0.22456324E-01 0.11896410E+04</pdfrwt>
<totfact> 0.25631619E+01</totfact>
</mgrwt>
</event>
<event>
12    1  0.1489233E-007  0.1765630E+04  0.7818608E-02  0.8724794E-01
         -2   -1    0    0    0  501 -0.00000000000E+00  0.00000000000E+00  0.43423745917E+03  0.43423745917E+03  0.00000000000E+00 0.  1.
          2   -1    0    0  501    0  0.00000000000E+00 -0.00000000000E+00 -0.17947830569E+04  0.17947830569E+04  0.00000000000E+00 0. -1.
         23    2    1    2    0    0 -0.60504000647E+03  0.86187002168E+02 -0.80245908517E+03  0.10128686826E+04  0.91982476745E+02 0.  0.
        254    2    1    2    0    0  0.60504000647E+03 -0.86187002168E+02 -0.55808651253E+03  0.12161518334E+04  0.89110219265E+03 0.  0.
        -24    2    4    4    0    0  0.22813034059E+03  0.14923285710E+03 -0.68951610460E+03  0.74585006914E+03  0.80907164074E+02 0.  0.
         24    2    4    4    0    0  0.37690966588E+03 -0.23541985926E+03  0.13142959207E+03  0.47030176431E+03  0.80166111715E+02 0.  0.
         11    1    3    3    0    0 -0.33629669936E+03  0.92352418071E+02 -0.43350031551E+03  0.55636944801E+03  0.00000000000E+00 0.  1.
        -11    1    3    3    0    0 -0.26874330711E+03 -0.61654159029E+01 -0.36895876966E+03  0.45649923459E+03  0.00000000000E+00 0. -1.
          2    1    6    6  502    0  0.36299218594E+03 -0.24172484386E+03  0.12457900511E+03  0.45355722429E+03  0.00000000000E+00 0. -1.
          1    1    5    5  503    0  0.13182665906E+03  0.13176654058E+03 -0.44285841181E+03  0.48048336305E+03  0.00000000000E+00 0. -1.
         -2    1    5    5    0  503  0.96303681532E+02  0.17466316512E+02 -0.24665769279E+03  0.26536670609E+03  0.00000000000E+00 0.  1.
         -1    1    6    6    0  502  0.13917479937E+02  0.63049845948E+01  0.68505869588E+01  0.16744540012E+02  0.00000000000E+00 0.  1.
<mgrwt>
<rscale>  0 0.17656297E+04</rscale>
<asrwt>0</asrwt>
<pdfrwt beam="1">  1        2 0.27612047E+00 0.17656297E+04</pdfrwt>
<pdfrwt beam="2">  1       -2 0.66805763E-01 0.17656297E+04</pdfrwt>
<totfact> 0.16919409E+01</totfact>
</mgrwt>
</event>
<event>
12    1  0.1489233E-007  0.1826594E+04  0.7818608E-02  0.8692283E-01
          2   -1    0    0  501    0  0.00000000000E+00  0.00000000000E+00  0.30902194111E+04  0.30902194111E+04  0.00000000000E+00 0. -1.
         -2   -1    0    0    0  501 -0.00000000000E+00 -0.00000000000E+00 -0.26991994700E+03  0.26991994700E+03  0.00000000000E+00 0.  1.
         23    2    1    2    0    0  0.29165907708E+03  0.13327671849E+03  0.21769311776E+04  0.22028672083E+04  0.10376359936E+03 0.  0.
        254    2    1    2    0    0 -0.29165907708E+03 -0.13327671849E+03  0.64336828656E+03  0.11572721498E+04  0.90693350125E+03 0.  0.
        -24    2    4    4    0    0 -0.44123117285E+03 -0.35780545424E+03  0.15573011137E+03  0.59485034874E+03  0.82978182825E+02 0.  0.
         24    2    4    4    0    0  0.14957209577E+03  0.22452873575E+03  0.48763817518E+03  0.56242180109E+03  0.75778146156E+02 0.  0.
         13    1    3    3    0    0  0.23573988359E+03  0.71075772930E+02  0.14043246995E+04  0.14257464430E+04  0.00000000000E+00 0. -1.
        -13    1    3    3    0    0  0.55919193488E+02  0.62200945562E+02  0.77260647812E+03  0.77712076530E+03  0.00000000000E+00 0.  1.
          4    1    6    6  502    0  0.57348490196E+02  0.40495375136E+02  0.16987085028E+03  0.18380650290E+03  0.00000000000E+00 0. -1.
          1    1    5    5  503    0 -0.31781327567E+03 -0.20802342334E+03  0.95927390235E+02  0.39176662320E+03  0.00000000000E+00 0. -1.
         -2    1    5    5    0  503 -0.12341789717E+03 -0.14978203090E+03  0.59802721138E+02  0.20308372554E+03  0.00000000000E+00 0.  1.
         -3    1    6    6    0  502  0.92223605572E+02  0.18403336061E+03  0.31776732491E+03  0.37861529819E+03  0.00000000000E+00 0.  1.
<mgrwt>
<rscale>  0 0.18265945E+04</rscale>
<asrwt>0</asrwt>
<pdfrwt beam="1">  1        2 0.47541835E+00 0.18265945E+04</pdfrwt>
<pdfrwt beam="2">  1       -2 0.41526148E-01 0.18265945E+04</pdfrwt>
<totfact> 0.79356568E+00</totfact>
</mgrwt>
</event>
<event>
12    1  0.1489233E-007  0.2044667E+04  0.7818608E-02  0.8586017E-01
          2   -1    0    0  501    0  0.00000000000E+00  0.00000000000E+00  0.18534538682E+04  0.18534538682E+04  0.00000000000E+00 0. -1.
         -2   -1    0    0    0  501 -0.00000000000E+00 -0.00000000000E+00 -0.56390185345E+03  0.56390185345E+03  0.00000000000E+00 0.  1.
         23    2    1    2    0    0 -0.51790260901E+02 -0.72116367617E+03  0.97222483894E+03  0.12148204335E+04  0.88364411215E+02 0.  0.
        254    2    1    2    0    0  0.51790260901E+02  0.72116367617E+03  0.31732717580E+03  0.12025352882E+04  0.90699244972E+03 0.  0.
        -24    2    4    4    0    0 -0.20803972205E+03  0.13213344382E+03 -0.23558053920E+03  0.35018587810E+03  0.79951146650E+02 0.  0.
         24    2    4    4    0    0  0.25982998295E+03  0.58903023235E+03  0.55290771499E+03  0.85234941007E+03  0.79525724644E+02 0.  0.
         13    1    3    3    0    0 -0.45379176195E+02 -0.66736723632E+03  0.93266251666E+03  0.11477358876E+04  0.00000000000E+00 0. -1.
        -13    1    3    3    0    0 -0.64110847058E+01 -0.53796439851E+02  0.39562322279E+02  0.67084545850E+02  0.00000000000E+00 0.  1.
          2    1    6    6  502    0  0.22230371645E+03  0.51635955370E+03  0.44522018046E+03  0.71712421527E+03  0.00000000000E+00 0. -1.
          1    1    5    5  503    0  0.31017171131E+01 -0.31620682111E+01  0.18936009140E+01  0.48171619075E+01  0.00000000000E+00 0. -1.
         -2    1    5    5    0  503 -0.21114143916E+03  0.13529551203E+03 -0.23747414011E+03  0.34536871620E+03  0.00000000000E+00 0.  1.
         -1    1    6    6    0  502  0.37526266501E+02  0.72670678656E+02  0.10768753453E+03  0.13522519480E+03  0.00000000000E+00 0.  1.
<mgrwt>
<rscale>  0 0.20446673E+04</rscale>
<asrwt>0</asrwt>
<pdfrwt beam="1">  1        2 0.28514675E+00 0.20446673E+04</pdfrwt>
<pdfrwt beam="2">  1       -2 0.86754132E-01 0.20446673E+04</pdfrwt>
<totfact> 0.85784533E+00</totfact>
</mgrwt>
</event>
<event>
12    1  0.1489233E-007  0.1885366E+04  0.7818608E-02  0.8662175E-01
         -1   -1    0    0    0  501 -0.00000000000E+00  0.00000000000E+00  0.38342640895E+03  0.38342640895E+03  0.00000000000E+00 0.  1.
          1   -1    0    0  501    0  0.00000000000E+00 -0.00000000000E+00 -0.23176575996E+04  0.23176575996E+04  0.00000000000E+00 0. -1.
         23    2    1    2    0    0 -0.63172004914E+03  0.29798464053E+03 -0.53297232140E+03  0.88320158150E+03  0.90113659890E+02 0.  0.
        254    2    1    2    0    0  0.63172004914E+03 -0.29798464053E+03 -0.14012588692E+04  0.18178824270E+04  0.92374511279E+03 0.  0.
        -24    2    4    4    0    0  0.68673435230E+03 -0.34206885806E+03 -0.14909889727E+04  0.16786903302E+04  0.79611140784E+02 0.  0.
         24    2    4    4    0    0 -0.55014303154E+02  0.44084217529E+02  0.89730103463E+02  0.13919209682E+03  0.79705436224E+02 0.  0.
         11    1    3    3    0    0 -0.45539251780E+03  0.23622854628E+03 -0.34537732298E+03  0.61844301805E+03  0.00000000000E+00 0.  1.
        -11    1    3    3    0    0 -0.17632753134E+03  0.61756094251E+02 -0.18759499841E+03  0.26475856344E+03  0.00000000000E+00 0. -1.
          4    1    6    6  502    0 -0.12432144151E+01  0.47753414563E+02  0.62911009965E+02  0.78991957561E+02  0.00000000000E+00 0. -1.
          3    1    5    5  503    0  0.15408613467E+03 -0.10661033199E+03 -0.41078015199E+03  0.45149599450E+03  0.00000000000E+00 0. -1.
         -4    1    5    5    0  503  0.53264821763E+03 -0.23545852607E+03 -0.10802088207E+04  0.12271943357E+04  0.00000000000E+00 0.  1.
         -3    1    6    6    0  502 -0.53771088739E+02 -0.36691970343E+01  0.26819093498E+02  0.60200139262E+02  0.00000000000E+00 0.  1.
<mgrwt>
<rscale>  0 0.18853659E+04</rscale>
<asrwt>0</asrwt>
<pdfrwt beam="1">  1        1 0.35656271E+00 0.18853659E+04</pdfrwt>
<pdfrwt beam="2">  1       -1 0.58988678E-01 0.18853659E+04</pdfrwt>
<totfact> 0.49409944E+00</totfact>
</mgrwt>
</event>
<event>
12    1  0.1489233E-007  0.1841746E+04  0.7818608E-02  0.8684409E-01
          1   -1    0    0  501    0  0.00000000000E+00  0.00000000000E+00  0.66868725837E+03  0.66868725837E+03  0.00000000000E+00 0. -1.
         -1   -1    0    0    0  501 -0.00000000000E+00 -0.00000000000E+00 -0.12681662913E+04  0.12681662913E+04  0.00000000000E+00 0.  1.
         23    2    1    2    0    0 -0.60691727314E+03  0.15223971941E+03 -0.53883899415E+03  0.83067262979E+03  0.90244377438E+02 0.  0.
        254    2    1    2    0    0  0.60691727314E+03 -0.15223971941E+03 -0.60640038737E+02  0.11061809198E+04  0.91018322579E+03 0.  0.
        -24    2    4    4    0    0  0.66211036663E+03  0.23249889839E+03 -0.66834392118E+02  0.70950015533E+03  0.80484526993E+02 0.  0.
         24    2    4    4    0    0 -0.55193093491E+02 -0.38473861781E+03  0.61943533805E+01  0.39668076451E+03  0.79039087283E+02 0.  0.
         11    1    3    3    0    0 -0.50700816338E+03  0.15232624364E+03 -0.42251385905E+03  0.67733191518E+03  0.00000000000E+00 0.  1.
        -11    1    3    3    0    0 -0.99909109758E+02 -0.86524222969E-01 -0.11632513511E+03  0.15334071461E+03  0.00000000000E+00 0. -1.
          4    1    6    6  502    0  0.12774753804E+01 -0.96290342204E+01 -0.13733345278E+02  0.16821266775E+02  0.00000000000E+00 0. -1.
          3    1    5    5  503    0  0.89160600272E+02  0.60183032233E+02 -0.19550144326E+02  0.10933351797E+03  0.00000000000E+00 0. -1.
         -4    1    5    5    0  503  0.57294976636E+03  0.17231586616E+03 -0.47284247792E+02  0.60016663735E+03  0.00000000000E+00 0.  1.
         -3    1    6    6    0  502 -0.56470568871E+02 -0.37510958359E+03  0.19927698659E+02  0.37985949774E+03  0.00000000000E+00 0.  1.
<mgrwt>
<rscale>  0 0.18417455E+04</rscale>
<asrwt>0</asrwt>
<pdfrwt beam="1">  1        1 0.10287496E+00 0.18417455E+04</pdfrwt>
<pdfrwt beam="2">  1       -1 0.19510250E+00 0.18417455E+04</pdfrwt>
<totfact> 0.44669062E+00</totfact>
</mgrwt>
</event>
<event>
12    1  0.1489233E-007  0.1899385E+04  0.7818608E-02  0.8655163E-01
         -1   -1    0    0    0  501 -0.00000000000E+00  0.00000000000E+00  0.42451943083E+03  0.42451943083E+03  0.00000000000E+00 0.  1.
          1   -1    0    0  501    0  0.00000000000E+00 -0.00000000000E+00 -0.21245572622E+04  0.21245572622E+04  0.00000000000E+00 0. -1.
         23    2    1    2    0    0 -0.32596158573E+03  0.12559389767E+03  0.20248961410E+03  0.41418022078E+03  0.92295335541E+02 0.  0.
        254    2    1    2    0    0  0.32596158573E+03 -0.12559389767E+03 -0.19025274454E+04  0.21348964722E+04  0.90340881331E+03 0.  0.
        -24    2    4    4    0    0  0.48751575034E+03  0.24520456927E+03 -0.12034244906E+04  0.13236842749E+04  0.78183549254E+02 0.  0.
         24    2    4    4    0    0 -0.16155416460E+03 -0.37079846694E+03 -0.69910295486E+03  0.81121219737E+03  0.75690398796E+02 0.  0.
         11    1    3    3    0    0 -0.15867864229E+03  0.73305789182E+02  0.49841952947E+02  0.18176047568E+03  0.00000000000E+00 0. -1.
        -11    1    3    3    0    0 -0.16728294344E+03  0.52288108485E+02  0.15264766115E+03  0.23241974510E+03  0.00000000000E+00 0.  1.
          4    1    6    6  502    0 -0.12175772255E+03 -0.25421447766E+03 -0.54812948142E+03  0.61635693559E+03  0.00000000000E+00 0. -1.
          3    1    5    5  503    0  0.25428704663E+03  0.87128518653E+02 -0.55357524605E+03  0.61538511022E+03  0.00000000000E+00 0. -1.
         -4    1    5    5    0  503  0.23322870371E+03  0.15807605062E+03 -0.64984924453E+03  0.70829916464E+03  0.00000000000E+00 0.  1.
         -3    1    6    6    0  502 -0.39796442056E+02 -0.11658398928E+03 -0.15097347344E+03  0.19485526177E+03  0.00000000000E+00 0.  1.
<mgrwt>
<rscale>  0 0.18993850E+04</rscale>
<asrwt>0</asrwt>
<pdfrwt beam="1">  1        1 0.32685496E+00 0.18993850E+04</pdfrwt>
<pdfrwt beam="2">  1       -1 0.65310682E-01 0.18993850E+04</pdfrwt>
<totfact> 0.54539487E+00</totfact>
</mgrwt>
</event>
<event>
12    1  0.1489233E-007  0.2079432E+04  0.7818608E-02  0.8570358E-01
         -1   -1    0    0    0  501 -0.00000000000E+00  0.00000000000E+00  0.86727093821E+03  0.86727093821E+03  0.00000000000E+00 0.  1.
          1   -1    0    0  501    0  0.00000000000E+00 -0.00000000000E+00 -0.12464492949E+04  0.12464492949E+04  0.00000000000E+00 0. -1.
         23    2    1    2    0    0 -0.49986765451E+03 -0.67559249144E+03 -0.19724575451E+03  0.86798778458E+03  0.90576045314E+02 0.  0.
        254    2    1    2    0    0  0.49986765451E+03  0.67559249144E+03 -0.18193260219E+03  0.12457324485E+04  0.90136395263E+03 0.  0.
        -24    2    4    4    0    0 -0.10986644732E+03  0.59599848409E+03 -0.11572686398E+03  0.62220589799E+03  0.80390566387E+02 0.  0.
         24    2    4    4    0    0  0.60973410183E+03  0.79594007351E+02 -0.66205738208E+02  0.62352655055E+03  0.79317580230E+02 0.  0.
         13    1    3    3    0    0 -0.97889540860E+02 -0.86967063251E+02 -0.49917462942E+02  0.14013345570E+03  0.00000000000E+00 0. -1.
        -13    1    3    3    0    0 -0.40197811365E+03 -0.58862542819E+03 -0.14732829157E+03  0.72785432888E+03  0.00000000000E+00 0.  1.
          2    1    6    6  502    0  0.10247648773E+03 -0.12770216526E+02  0.29501222248E+01  0.10331123941E+03  0.00000000000E+00 0. -1.
          1    1    5    5  503    0 -0.75719698695E+02  0.52729386941E+03 -0.84459264377E+02  0.53935671390E+03  0.00000000000E+00 0. -1.
         -2    1    5    5    0  503 -0.34146748621E+02  0.68704614678E+02 -0.31267599605E+02  0.82849184091E+02  0.00000000000E+00 0.  1.
         -1    1    6    6    0  502  0.50725761410E+03  0.92364223877E+02 -0.69155860433E+02  0.52021531114E+03  0.00000000000E+00 0.  1.
<mgrwt>
<rscale>  0 0.20794319E+04</rscale>
<asrwt>0</asrwt>
<pdfrwt beam="1">  1        1 0.19176143E+00 0.20794319E+04</pdfrwt>
<pdfrwt beam="2">  1       -1 0.13342630E+00 0.20794319E+04</pdfrwt>
<totfact> 0.43234878E+00</totfact>
</mgrwt>
</event>
<event>
12    1  0.1565658E-007  0.1759524E+04  0.7818608E-02  0.8728125E-01
         -2   -1    0    0    0  501 -0.00000000000E+00  0.00000000000E+00  0.59492147290E+03  0.59492147290E+03  0.00000000000E+00 0. -1.
          2   -1    0    0  501    0  0.00000000000E+00 -0.00000000000E+00 -0.13009811015E+04  0.13009811015E+04  0.00000000000E+00 0.  1.
         23    2    1    2    0    0  0.10314021406E+03 -0.17093230511E+03  0.39554617472E+03  0.46080307635E+03  0.12659755983E+03 0.  0.
        254    2    1    2    0    0 -0.10314021406E+03  0.17093230511E+03 -0.11016058033E+04  0.14350994980E+04  0.89784155989E+03 0.  0.
        -24    2    4    4    0    0 -0.31012941128E+03  0.58488907640E+02 -0.20909580518E+02  0.32622958969E+03  0.79920776859E+02 0.  0.
         24    2    4    4    0    0  0.20698919722E+03  0.11244339747E+03 -0.10806962228E+04  0.11088699083E+04  0.78740728111E+02 0.  0.
         11    1    3    3    0    0 -0.19078218420E+02 -0.35105672201E+01  0.86704419586E+02  0.88847953696E+02  0.00000000000E+00 0.  1.
        -11    1    3    3    0    0  0.12221843248E+03 -0.16742173789E+03  0.30884175514E+03  0.37195512266E+03  0.00000000000E+00 0. -1.
          2    1    6    6  502    0  0.10741788636E+03  0.10122794511E+03 -0.68008916968E+03  0.69592167511E+03  0.00000000000E+00 0. -1.
          3    1    5    5  503    0 -0.15851827154E+03  0.92636736722E+00  0.17758109835E+02  0.15951254193E+03  0.00000000000E+00 0. -1.
         -4    1    5    5    0  503 -0.15161113974E+03  0.57562540272E+02 -0.38667690353E+02  0.16671704775E+03  0.00000000000E+00 0.  1.
         -1    1    6    6    0  502  0.99571310860E+02  0.11215452352E+02 -0.40060705313E+03  0.41294823324E+03  0.00000000000E+00 0.  1.
<mgrwt>
<rscale>  0 0.17595245E+04</rscale>
<asrwt>0</asrwt>
<pdfrwt beam="1">  1        2 0.20015094E+00 0.17595245E+04</pdfrwt>
<pdfrwt beam="2">  1       -2 0.91526382E-01 0.17595245E+04</pdfrwt>
<totfact> 0.15895965E+01</totfact>
</mgrwt>
</event>
<event>
12    1  0.1489233E-007  0.2381737E+04  0.7818608E-02  0.8446373E-01
         -2   -1    0    0    0  501 -0.00000000000E+00  0.00000000000E+00  0.49975875056E+03  0.49975875056E+03  0.00000000000E+00 0.  1.
          2   -1    0    0  501    0  0.00000000000E+00 -0.00000000000E+00 -0.28377037003E+04  0.28377037003E+04  0.00000000000E+00 0. -1.
         23    2    1    2    0    0 -0.10065056002E+04 -0.10360632662E+03 -0.84400423689E+03  0.13207630569E+04  0.91017066135E+02 0.  0.
        254    2    1    2    0    0  0.10065056002E+04  0.10360632662E+03 -0.14939407129E+04  0.20166993940E+04  0.90079398209E+03 0.  0.
        -24    2    4    4    0    0  0.78712892953E+03 -0.33407685769E+03 -0.93780572084E+03  0.12715959432E+04  0.79355995623E+02 0.  0.
         24    2    4    4    0    0  0.21937667066E+03  0.43768318431E+03 -0.55613499205E+03  0.74510345090E+03  0.78742172275E+02 0.  0.
         11    1    3    3    0    0 -0.69094122596E+03 -0.93546904254E+02 -0.53349839246E+03  0.87793583808E+03  0.00000000000E+00 0.  1.
        -11    1    3    3    0    0 -0.31556437423E+03 -0.10059422369E+02 -0.31050584443E+03  0.44282721877E+03  0.00000000000E+00 0. -1.
          2    1    6    6  502    0  0.20257763936E+03  0.34336541409E+03 -0.42523849592E+03  0.58289388912E+03  0.00000000000E+00 0. -1.
          1    1    5    5  503    0  0.71734579142E+03 -0.30649686594E+03 -0.88566205974E+03  0.11802214188E+04  0.00000000000E+00 0. -1.
         -2    1    5    5    0  503  0.69783138108E+02 -0.27579991751E+02 -0.52143661102E+02  0.91374524362E+02  0.00000000000E+00 0.  1.
         -1    1    6    6    0  502  0.16799031304E+02  0.94317770220E+02 -0.13089649613E+03  0.16220956178E+03  0.00000000000E+00 0.  1.
<mgrwt>
<rscale>  0 0.23817366E+04</rscale>
<asrwt>0</asrwt>
<pdfrwt beam="1">  1        2 0.43656980E+00 0.23817366E+04</pdfrwt>
<pdfrwt beam="2">  1       -2 0.76885961E-01 0.23817366E+04</pdfrwt>
<totfact> 0.29855933E+00</totfact>
</mgrwt>
</event>
<event>
12    1  0.1489233E-007  0.1567112E+04  0.7818608E-02  0.8841011E-01
         -2   -1    0    0    0  501 -0.00000000000E+00  0.00000000000E+00  0.65959545209E+03  0.65959545209E+03  0.00000000000E+00 0.  1.
          2   -1    0    0  501    0  0.00000000000E+00 -0.00000000000E+00 -0.93081310101E+03  0.93081310101E+03  0.00000000000E+00 0. -1.
         23    2    1    2    0    0  0.44959342450E+02 -0.18842691053E+02  0.42138325949E+03  0.43387621934E+03  0.91150056761E+02 0.  0.
        254    2    1    2    0    0 -0.44959342450E+02  0.18842691053E+02 -0.69260090841E+03  0.11565323338E+04  0.92492952770E+03 0.  0.
        -24    2    4    4    0    0  0.37457672505E+03  0.22869364847E+03 -0.39242415896E+03  0.59416448659E+03  0.80163637555E+02 0.  0.
         24    2    4    4    0    0 -0.41953606750E+03 -0.20985095742E+03 -0.30017674946E+03  0.56236784717E+03  0.78125401450E+02 0.  0.
         11    1    3    3    0    0  0.53820777478E+02 -0.97799175135E+01  0.41683613730E+03  0.42041014288E+03  0.00000000000E+00 0.  1.
        -11    1    3    3    0    0 -0.88614350277E+01 -0.90627735397E+01  0.45471221895E+01  0.13466076459E+02  0.00000000000E+00 0. -1.
          4    1    6    6  502    0 -0.29289814424E+03 -0.17801374963E+03 -0.19242756607E+03  0.39307325798E+03  0.00000000000E+00 0. -1.
          3    1    5    5  503    0  0.34318385114E+03  0.21182702957E+03 -0.32518337180E+03  0.51806377159E+03  0.00000000000E+00 0. -1.
         -4    1    5    5    0  503  0.31392873915E+02  0.16866618898E+02 -0.67240787151E+02  0.76100714993E+02  0.00000000000E+00 0.  1.
         -3    1    6    6    0  502 -0.12663792327E+03 -0.31837207790E+02 -0.10774918339E+03  0.16929458920E+03  0.00000000000E+00 0.  1.
<mgrwt>
<rscale>  0 0.15671121E+04</rscale>
<asrwt>0</asrwt>
<pdfrwt beam="1">  1        2 0.14320202E+00 0.15671121E+04</pdfrwt>
<pdfrwt beam="2">  1       -2 0.10147622E+00 0.15671121E+04</pdfrwt>
<totfact> 0.21442377E+01</totfact>
</mgrwt>
</event>
<event>
12    1  0.1489233E-007  0.1593261E+04  0.7818608E-02  0.8824699E-01
          2   -1    0    0  501    0  0.00000000000E+00  0.00000000000E+00  0.29547244614E+03  0.29547244614E+03  0.00000000000E+00 0. -1.
         -2   -1    0    0    0  501 -0.00000000000E+00 -0.00000000000E+00 -0.21478148629E+04  0.21478148629E+04  0.00000000000E+00 0.  1.
         23    2    1    2    0    0 -0.28488248646E+03 -0.45874569964E+03 -0.68423101381E+03  0.87725993492E+03  0.99031637009E+02 0.  0.
        254    2    1    2    0    0  0.28488248646E+03  0.45874569964E+03 -0.11681114029E+04  0.15660273741E+04  0.89238547656E+03 0.  0.
        -24    2    4    4    0    0 -0.18424279554E+02  0.54040658299E+03 -0.11097635513E+04  0.12371657733E+04  0.81395833636E+02 0.  0.
         24    2    4    4    0    0  0.30330676601E+03 -0.81660883346E+02 -0.58347851631E+02  0.32886160084E+03  0.77987092154E+02 0.  0.
         11    1    3    3    0    0 -0.12466883359E+03 -0.17249657527E+03 -0.19779691873E+03  0.29055293426E+03  0.00000000000E+00 0. -1.
        -11    1    3    3    0    0 -0.16021365287E+03 -0.28624912437E+03 -0.48643409508E+03  0.58670700066E+03  0.00000000000E+00 0.  1.
          4    1    6    6  502    0  0.20790054277E+03 -0.56526529628E+02 -0.24425890044E+01  0.21546194670E+03  0.00000000000E+00 0. -1.
          1    1    5    5  503    0 -0.35734676220E+02  0.51172562192E+03 -0.10306274277E+04  0.11512310689E+04  0.00000000000E+00 0. -1.
         -2    1    5    5    0  503  0.17310396666E+02  0.28680961074E+02 -0.79136123618E+02  0.85934704410E+02  0.00000000000E+00 0.  1.
         -3    1    6    6    0  502  0.95406223238E+02 -0.25134353718E+02 -0.55905262626E+02  0.11339965414E+03  0.00000000000E+00 0.  1.
<mgrwt>
<rscale>  0 0.15932609E+04</rscale>
<asrwt>0</asrwt>
<pdfrwt beam="1">  1        2 0.45457299E-01 0.15932609E+04</pdfrwt>
<pdfrwt beam="2">  1       -2 0.33043306E+00 0.15932609E+04</pdfrwt>
<totfact> 0.22208508E+00</totfact>
</mgrwt>
</event>
<event>
12    1  0.1489233E-007  0.1525990E+04  0.7818608E-02  0.8867352E-01
          1   -1    0    0  501    0  0.00000000000E+00  0.00000000000E+00  0.44813995719E+03  0.44813995719E+03  0.00000000000E+00 0. -1.
         -1   -1    0    0    0  501 -0.00000000000E+00 -0.00000000000E+00 -0.12990614601E+04  0.12990614601E+04  0.00000000000E+00 0.  1.
         23    2    1    2    0    0  0.21370032702E+03  0.19020038402E+03 -0.72967172246E+03  0.78913465330E+03  0.92025336883E+02 0.  0.
        254    2    1    2    0    0 -0.21370032702E+03 -0.19020038402E+03 -0.12124978045E+03  0.95806676399E+03  0.90628163346E+03 0.  0.
        -24    2    4    4    0    0 -0.45693558892E+03 -0.18849713320E+03 -0.35267091628E+03  0.61251724481E+03  0.80494088892E+02 0.  0.
         24    2    4    4    0    0  0.24323526190E+03 -0.17032508284E+01  0.23142113583E+03  0.34554951918E+03  0.81746158351E+02 0.  0.
         13    1    3    3    0    0  0.18863522191E+03  0.16667611059E+03 -0.69943738302E+03  0.74335511403E+03  0.00000000000E+00 0.  1.
        -13    1    3    3    0    0  0.25065105107E+02  0.23524273432E+02 -0.30234339448E+02  0.45779539277E+02  0.00000000000E+00 0. -1.
          2    1    6    6  502    0  0.21070491648E+03  0.20362321056E+02  0.21836747105E+03  0.30413079154E+03  0.00000000000E+00 0. -1.
          3    1    5    5  503    0 -0.31416126658E+03 -0.14997891548E+03 -0.28492492384E+03  0.44985907653E+03  0.00000000000E+00 0. -1.
         -4    1    5    5    0  503 -0.14277432234E+03 -0.38518217711E+02 -0.67745992446E+02  0.16265816828E+03  0.00000000000E+00 0.  1.
         -1    1    6    6    0  502  0.32530345419E+02 -0.22065571884E+02  0.13053664775E+02  0.41418727644E+02  0.00000000000E+00 0.  1.
<mgrwt>
<rscale>  0 0.15259900E+04</rscale>
<asrwt>0</asrwt>
<pdfrwt beam="1">  1        1 0.68944609E-01 0.15259900E+04</pdfrwt>
<pdfrwt beam="2">  1       -1 0.19985561E+00 0.15259900E+04</pdfrwt>
<totfact> 0.74969510E+00</totfact>
</mgrwt>
</event>
<event>
12    1  0.1489233E-007  0.1559277E+04  0.7818608E-02  0.8845964E-01
          2   -1    0    0  501    0  0.00000000000E+00  0.00000000000E+00  0.96853838211E+03  0.96853838211E+03  0.00000000000E+00 0. -1.
         -2   -1    0    0    0  501 -0.00000000000E+00 -0.00000000000E+00 -0.62758125018E+03  0.62758125018E+03  0.00000000000E+00 0.  1.
         23    2    1    2    0    0  0.47548841223E+03  0.17646156674E+03  0.63084125909E+02  0.51897251834E+03  0.90138522016E+02 0.  0.
        254    2    1    2    0    0 -0.47548841223E+03 -0.17646156674E+03  0.27787300602E+03  0.10771471140E+04  0.90873790662E+03 0.  0.
        -24    2    4    4    0    0  0.12498314555E+03 -0.63035410250E+02 -0.22895455240E+03  0.27966385865E+03  0.78723802967E+02 0.  0.
         24    2    4    4    0    0 -0.60047155778E+03 -0.11342615649E+03  0.50682755842E+03  0.79748325530E+03  0.75324523480E+02 0.  0.
         11    1    3    3    0    0  0.42486226546E+03  0.16259396437E+03  0.83755446840E+02  0.46255779827E+03  0.00000000000E+00 0. -1.
        -11    1    3    3    0    0  0.50626146766E+02  0.13867602372E+02 -0.20671320931E+02  0.56414720073E+02  0.00000000000E+00 0.  1.
          2    1    6    6  502    0 -0.40908486903E+03 -0.72041477477E+02  0.38820251935E+03  0.56854340254E+03  0.00000000000E+00 0. -1.
          3    1    5    5  503    0  0.10054567258E+03 -0.38506678574E+02 -0.21834970401E+03  0.24345182236E+03  0.00000000000E+00 0. -1.
         -4    1    5    5    0  503  0.24437472977E+02 -0.24528731676E+02 -0.10604848391E+02  0.36212036293E+02  0.00000000000E+00 0.  1.
         -1    1    6    6    0  502 -0.19138668875E+03 -0.41384679012E+02  0.11862503907E+03  0.22893985277E+03  0.00000000000E+00 0.  1.
<mgrwt>
<rscale>  0 0.15592774E+04</rscale>
<asrwt>0</asrwt>
<pdfrwt beam="1">  1        2 0.14900591E+00 0.15592774E+04</pdfrwt>
<pdfrwt beam="2">  1       -2 0.96550961E-01 0.15592774E+04</pdfrwt>
<totfact> 0.22790937E+01</totfact>
</mgrwt>
</event>
<event>
12    1  0.1489233E-007  0.1754231E+04  0.7818608E-02  0.8731025E-01
         -1   -1    0    0    0  501 -0.00000000000E+00  0.00000000000E+00  0.93625004608E+03  0.93625004608E+03  0.00000000000E+00 0.  1.
          1   -1    0    0  501    0  0.00000000000E+00 -0.00000000000E+00 -0.82171614832E+03  0.82171614832E+03  0.00000000000E+00 0. -1.
         23    2    1    2    0    0 -0.48270712470E+03 -0.15520056653E+03  0.43515571163E+03  0.67428425134E+03  0.90583520285E+02 0.  0.
        254    2    1    2    0    0  0.48270712470E+03  0.15520056653E+03 -0.32062181387E+03  0.10836819431E+04  0.90248258825E+03 0.  0.
        -24    2    4    4    0    0 -0.62123105415E+02 -0.29539795757E+03 -0.17313001783E+03  0.35704346669E+03  0.79917460365E+02 0.  0.
         24    2    4    4    0    0  0.54483023012E+03  0.45059852410E+03 -0.14749179604E+03  0.72663847637E+03  0.79816263237E+02 0.  0.
         13    1    3    3    0    0 -0.43270366115E+02 -0.37781210043E+02  0.28376187701E+02  0.64069902797E+02  0.00000000000E+00 0. -1.
        -13    1    3    3    0    0 -0.43943675859E+03 -0.11741935649E+03  0.40677952393E+03  0.61021434854E+03  0.00000000000E+00 0.  1.
          2    1    6    6  502    0  0.97924983486E+02  0.11801948355E+03 -0.48452128503E+02  0.16082757737E+03  0.00000000000E+00 0. -1.
          1    1    5    5  503    0 -0.20280453141E+00 -0.66493751707E+01 -0.26516894516E+02  0.27338635932E+02  0.00000000000E+00 0. -1.
         -2    1    5    5    0  503 -0.61920300884E+02 -0.28874858240E+03 -0.14661312331E+03  0.32970483076E+03  0.00000000000E+00 0.  1.
         -1    1    6    6    0  502  0.44690524663E+03  0.33257904055E+03 -0.99039667538E+02  0.56581089900E+03  0.00000000000E+00 0.  1.
<mgrwt>
<rscale>  0 0.17542312E+04</rscale>
<asrwt>0</asrwt>
<pdfrwt beam="1">  1        1 0.12641787E+00 0.17542312E+04</pdfrwt>
<pdfrwt beam="2">  1       -1 0.14403847E+00 0.17542312E+04</pdfrwt>
<totfact> 0.78002666E+00</totfact>
</mgrwt>
</event>
<event>
12    1  0.1489233E-007  0.1436033E+04  0.7818608E-02  0.8928141E-01
          2   -1    0    0  501    0  0.00000000000E+00  0.00000000000E+00  0.88698133622E+03  0.88698133622E+03  0.00000000000E+00 0. -1.
         -2   -1    0    0    0  501 -0.00000000000E+00 -0.00000000000E+00 -0.58123847340E+03  0.58123847340E+03  0.00000000000E+00 0.  1.
         23    2    1    2    0    0  0.19780345642E+03  0.37106044576E+03  0.17145330536E+03  0.46304056772E+03  0.90544296666E+02 0.  0.
        254    2    1    2    0    0 -0.19780345642E+03 -0.37106044576E+03  0.13428955746E+03  0.10051792419E+04  0.90307229019E+03 0.  0.
        -24    2    4    4    0    0  0.20822321527E+03  0.15974472254E+03 -0.10048057336E+03  0.29225997411E+03  0.80276167621E+02 0.  0.
         24    2    4    4    0    0 -0.40602667168E+03 -0.53080516830E+03  0.23477013082E+03  0.71291926779E+03  0.80777987358E+02 0.  0.
         13    1    3    3    0    0  0.19633794519E+03  0.36137827476E+03  0.14708801338E+03  0.43678110063E+03  0.00000000000E+00 0. -1.
        -13    1    3    3    0    0  0.14655112276E+01  0.96821710046E+01  0.24365291987E+02  0.26259467095E+02  0.00000000000E+00 0.  1.
          2    1    6    6  502    0 -0.30488401245E+03 -0.33645778040E+03  0.15595868736E+03  0.48008458755E+03  0.00000000000E+00 0. -1.
          1    1    5    5  503    0  0.17131987487E+03  0.89950074214E+02 -0.55072020540E+02  0.20118261064E+03  0.00000000000E+00 0. -1.
         -2    1    5    5    0  503  0.36903340394E+02  0.69794648326E+02 -0.45408552821E+02  0.91077363469E+02  0.00000000000E+00 0.  1.
         -3    1    6    6    0  502 -0.10114265924E+03 -0.19434738790E+03  0.78811443464E+02  0.23283468024E+03  0.00000000000E+00 0.  1.
<mgrwt>
<rscale>  0 0.14360330E+04</rscale>
<asrwt>0</asrwt>
<pdfrwt beam="1">  1        2 0.13645867E+00 0.14360330E+04</pdfrwt>
<pdfrwt beam="2">  1       -2 0.89421303E-01 0.14360330E+04</pdfrwt>
<totfact> 0.31170981E+01</totfact>
</mgrwt>
</event>
<event>
12    1  0.1489233E-007  0.1354106E+04  0.7818608E-02  0.8987726E-01
         -2   -1    0    0    0  501 -0.00000000000E+00  0.00000000000E+00  0.85487767064E+03  0.85487767064E+03  0.00000000000E+00 0.  1.
          2   -1    0    0  501    0  0.00000000000E+00 -0.00000000000E+00 -0.53621803093E+03  0.53621803093E+03  0.00000000000E+00 0. -1.
         23    2    1    2    0    0 -0.18797299847E+03  0.22894122968E+03 -0.14458216438E+03  0.34177425919E+03  0.90320026493E+02 0.  0.
        254    2    1    2    0    0  0.18797299847E+03 -0.22894122968E+03  0.46324180409E+03  0.10493214424E+04  0.89371952289E+03 0.  0.
        -24    2    4    4    0    0 -0.33222590828E+03 -0.14936399400E+03  0.52264017174E+02  0.37671182336E+03  0.80601572737E+02 0.  0.
         24    2    4    4    0    0  0.52019890675E+03 -0.79577235681E+02  0.41097778692E+03  0.67260961903E+03  0.81003205159E+02 0.  0.
         11    1    3    3    0    0 -0.13354469195E+03  0.21471842302E+03 -0.11009037261E+03  0.27578628696E+03  0.00000000000E+00 0. -1.
        -11    1    3    3    0    0 -0.54428306517E+02  0.14222806663E+02 -0.34491791770E+02  0.65987972231E+02  0.00000000000E+00 0.  1.
          4    1    6    6  502    0  0.46899185678E+03 -0.54016574525E+02  0.34185644090E+03  0.58286960655E+03  0.00000000000E+00 0. -1.
          3    1    5    5  503    0 -0.30640210260E+03 -0.15913292005E+03  0.45157755698E+02  0.34820217923E+03  0.00000000000E+00 0. -1.
         -4    1    5    5    0  503 -0.25823805685E+02  0.97689260481E+01  0.71062614754E+01  0.28509644128E+02  0.00000000000E+00 0.  1.
         -1    1    6    6    0  502  0.51207049972E+02 -0.25560661155E+02  0.69121346011E+02  0.89740012480E+02  0.00000000000E+00 0.  1.
<mgrwt>
<rscale>  0 0.13541061E+04</rscale>
<asrwt>0</asrwt>
<pdfrwt beam="1">  1        2 0.82495082E-01 0.13541061E+04</pdfrwt>
<pdfrwt beam="2">  1       -2 0.13151964E+00 0.13541061E+04</pdfrwt>
<totfact> 0.23347768E+01</totfact>
</mgrwt>
</event>
<event>
12    1  0.1489233E-007  0.2157556E+04  0.7818608E-02  0.8536305E-01
         -2   -1    0    0    0  501 -0.00000000000E+00  0.00000000000E+00  0.21344371583E+04  0.21344371583E+04  0.00000000000E+00 0.  1.
          2   -1    0    0  501    0  0.00000000000E+00 -0.00000000000E+00 -0.54523129170E+03  0.54523129170E+03  0.00000000000E+00 0. -1.
         23    2    1    2    0    0 -0.68546418151E+02  0.16484195928E+03 -0.42280729427E+03  0.46893661718E+03  0.96249986294E+02 0.  0.
        254    2    1    2    0    0  0.68546418151E+02 -0.16484195928E+03  0.20120131608E+04  0.22107318328E+04  0.89848026920E+03 0.  0.
        -24    2    4    4    0    0  0.42134167705E+03 -0.27806034393E+03  0.88965094074E+03  0.10261122833E+04  0.81124951839E+02 0.  0.
         24    2    4    4    0    0 -0.35279525890E+03  0.11321838465E+03  0.11223622201E+04  0.11846195495E+04  0.79646887514E+02 0.  0.
         13    1    3    3    0    0 -0.27190743414E+02  0.95829111262E+02 -0.33654766322E+03  0.35097989218E+03  0.00000000000E+00 0. -1.
        -13    1    3    3    0    0 -0.41355674738E+02  0.69012848016E+02 -0.86259631051E+02  0.11795672500E+03  0.00000000000E+00 0.  1.
          4    1    6    6  502    0 -0.34956251217E+03  0.10795181890E+03  0.11195847793E+04  0.11778444817E+04  0.00000000000E+00 0. -1.
          1    1    5    5  503    0  0.38965377786E+03 -0.22628849231E+03  0.78263356359E+03  0.90307909023E+03  0.00000000000E+00 0. -1.
         -2    1    5    5    0  503  0.31687899197E+02 -0.51771851622E+02  0.10701737715E+03  0.12303319304E+03  0.00000000000E+00 0.  1.
         -3    1    6    6    0  502 -0.32327467309E+01  0.52665657469E+01  0.27774408029E+01  0.67750677935E+01  0.00000000000E+00 0.  1.
<mgrwt>
<rscale>  0 0.21575560E+04</rscale>
<asrwt>0</asrwt>
<pdfrwt beam="1">  1        2 0.83881739E-01 0.21575560E+04</pdfrwt>
<pdfrwt beam="2">  1       -2 0.32837494E+00 0.21575560E+04</pdfrwt>
<totfact> 0.10853369E+00</totfact>
</mgrwt>
</event>
<event>
12    1  0.1489233E-007  0.1984414E+04  0.7818608E-02  0.8613943E-01
          2   -1    0    0  501    0  0.00000000000E+00  0.00000000000E+00  0.12436111808E+04  0.12436111808E+04  0.00000000000E+00 0. -1.
         -2   -1    0    0    0  501 -0.00000000000E+00 -0.00000000000E+00 -0.79162555712E+03  0.79162555712E+03  0.00000000000E+00 0.  1.
         23    2    1    2    0    0 -0.73854078331E+03  0.11303009405E+03  0.28752083935E+02  0.75322790598E+03  0.91144419683E+02 0.  0.
        254    2    1    2    0    0  0.73854078331E+03 -0.11303009405E+03  0.42323353976E+03  0.12820088320E+04  0.95194628277E+03 0.  0.
        -24    2    4    4    0    0  0.93932470922E+03 -0.15311195589E+02  0.21655650545E+03  0.96738799814E+03  0.79859106125E+02 0.  0.
         24    2    4    4    0    0 -0.20078392592E+03 -0.97718898462E+02  0.20667703432E+03  0.31462083382E+03  0.80048138865E+02 0.  0.
         11    1    3    3    0    0 -0.69602485152E+03  0.10433645987E+03  0.48664039296E+02  0.70548201927E+03  0.00000000000E+00 0.  1.
        -11    1    3    3    0    0 -0.42515931788E+02  0.86936341834E+01 -0.19911955361E+02  0.47745886707E+02  0.00000000000E+00 0. -1.
          4    1    6    6  502    0 -0.12367845147E+03 -0.39016159998E+02  0.70883361327E+02  0.14779401548E+03  0.00000000000E+00 0. -1.
          3    1    5    5  503    0  0.91898194808E+02 -0.14680598725E+02  0.42322913780E+02  0.10223515647E+03  0.00000000000E+00 0. -1.
         -4    1    5    5    0  503  0.84742651442E+03 -0.63059686360E+00  0.17423359167E+03  0.86515284167E+03  0.00000000000E+00 0.  1.
         -3    1    6    6    0  502 -0.77105474448E+02 -0.58702738464E+02  0.13579367299E+03  0.16682681834E+03  0.00000000000E+00 0.  1.
<mgrwt>
<rscale>  0 0.19844137E+04</rscale>
<asrwt>0</asrwt>
<pdfrwt beam="1">  1        2 0.19132480E+00 0.19844137E+04</pdfrwt>
<pdfrwt beam="2">  1       -2 0.12178855E+00 0.19844137E+04</pdfrwt>
<totfact> 0.84955934E+00</totfact>
</mgrwt>
</event>
<event>
12    1  0.1489233E-007  0.1836249E+04  0.7818608E-02  0.8687257E-01
          2   -1    0    0  501    0  0.00000000000E+00  0.00000000000E+00  0.24196432191E+04  0.24196432191E+04  0.00000000000E+00 0. -1.
         -2   -1    0    0    0  501 -0.00000000000E+00 -0.00000000000E+00 -0.34837890639E+03  0.34837890639E+03  0.00000000000E+00 0.  1.
         23    2    1    2    0    0 -0.29831251665E+03 -0.21749466072E+03  0.16783095644E+04  0.17207376365E+04  0.88998508562E+02 0.  0.
        254    2    1    2    0    0  0.29831251665E+03  0.21749466072E+03  0.39295474829E+03  0.10472844890E+04  0.89782909381E+03 0.  0.
        -24    2    4    4    0    0  0.70458637550E+02 -0.33524943587E+03  0.55134741026E+02  0.35599087684E+03  0.79580530719E+02 0.  0.
         24    2    4    4    0    0  0.22785387910E+03  0.55274409659E+03  0.33782000726E+03  0.69129361217E+03  0.79505184625E+02 0.  0.
         11    1    3    3    0    0 -0.21228227940E+03 -0.18613546313E+03  0.11240045491E+04  0.11589203611E+04  0.00000000000E+00 0. -1.
        -11    1    3    3    0    0 -0.86030237248E+02 -0.31359197589E+02  0.55430501529E+03  0.56181727543E+03  0.00000000000E+00 0.  1.
          4    1    6    6  502    0  0.15330576393E+03  0.26794411069E+03  0.17648816381E+03  0.35559074182E+03  0.00000000000E+00 0. -1.
          3    1    5    5  503    0  0.45286593646E+01 -0.11048980293E+03 -0.14740069847E+02  0.11156063359E+03  0.00000000000E+00 0. -1.
         -4    1    5    5    0  503  0.65929978185E+02 -0.22475963294E+03  0.69874810873E+02  0.24443024325E+03  0.00000000000E+00 0.  1.
         -3    1    6    6    0  502  0.74548115171E+02  0.28479998591E+03  0.16133184345E+03  0.33570287035E+03  0.00000000000E+00 0.  1.
<mgrwt>
<rscale>  0 0.18362491E+04</rscale>
<asrwt>0</asrwt>
<pdfrwt beam="1">  1        2 0.37225279E+00 0.18362491E+04</pdfrwt>
<pdfrwt beam="2">  1       -2 0.53596756E-01 0.18362491E+04</pdfrwt>
<totfact> 0.11970541E+01</totfact>
</mgrwt>
</event>
<event>
12    1  0.1979221E-007  0.1451693E+04  0.7818608E-02  0.8917228E-01
          2   -1    0    0  501    0  0.00000000000E+00  0.00000000000E+00  0.24159824812E+04  0.24159824812E+04  0.00000000000E+00 0. -1.
         -2   -1    0    0    0  501 -0.00000000000E+00 -0.00000000000E+00 -0.21806980656E+03  0.21806980656E+03  0.00000000000E+00 0.  1.
         23    2    1    2    0    0  0.34166367720E+03 -0.23169487513E+03  0.39481778460E+03  0.57845269954E+03  0.91158428524E+02 0.  0.
        254    2    1    2    0    0 -0.34166367720E+03  0.23169487513E+03  0.18030948901E+04  0.20555995882E+04  0.89661691992E+03 0.  0.
        -24    2    4    4    0    0  0.11208930195E+03 -0.21544531217E+03  0.18668772601E+03  0.31636596895E+03  0.79084923480E+02 0.  0.
         24    2    4    4    0    0 -0.45375297915E+03  0.44714018730E+03  0.16164071640E+04  0.17392336193E+04  0.79594907009E+02 0.  0.
         13    1    3    3    0    0  0.79270819841E+02 -0.30292407900E+02  0.12751608921E+03  0.15317260154E+03  0.00000000000E+00 0. -1.
        -13    1    3    3    0    0  0.26239285736E+03 -0.20140246723E+03  0.26730169539E+03  0.42528009801E+03  0.00000000000E+00 0.  1.
          4    1    6    6  502    0 -0.45044289560E+03  0.44995776219E+03  0.16113023739E+04  0.17325288252E+04  0.00000000000E+00 0. -1.
          3    1    5    5  503    0  0.11373881290E+03 -0.20429086683E+03  0.14955061668E+03  0.27755479239E+03  0.00000000000E+00 0. -1.
         -4    1    5    5    0  503 -0.16495109431E+01 -0.11154445340E+02  0.37137109324E+02  0.38811176562E+02  0.00000000000E+00 0.  1.
         -3    1    6    6    0  502 -0.33100835512E+01 -0.28175748821E+01  0.51047901557E+01  0.67047940958E+01  0.00000000000E+00 0.  1.
<mgrwt>
<rscale>  0 0.14516926E+04</rscale>
<asrwt>0</asrwt>
<pdfrwt beam="1">  1        2 0.37168959E+00 0.14516926E+04</pdfrwt>
<pdfrwt beam="2">  1       -2 0.33549203E-01 0.14516926E+04</pdfrwt>
<totfact> 0.31428998E+01</totfact>
</mgrwt>
</event>
<event>
12    1  0.1489233E-007  0.3370990E+04  0.7818608E-02  0.8145063E-01
         -2   -1    0    0    0  501 -0.00000000000E+00  0.00000000000E+00  0.10819294710E+04  0.10819294710E+04  0.00000000000E+00 0.  1.
          2   -1    0    0  501    0  0.00000000000E+00 -0.00000000000E+00 -0.26257655248E+04  0.26257655248E+04  0.00000000000E+00 0. -1.
         23    2    1    2    0    0 -0.70658769076E+03  0.66585186038E+03 -0.20652419752E+04  0.22838835062E+04  0.90964768273E+02 0.  0.
        254    2    1    2    0    0  0.70658769076E+03 -0.66585186038E+03  0.52140592145E+03  0.14238114896E+04  0.90152657106E+03 0.  0.
        -24    2    4    4    0    0  0.44916807833E+03 -0.36996519796E+03 -0.18029842426E+03  0.61493834000E+03  0.83758163294E+02 0.  0.
         24    2    4    4    0    0  0.25741961243E+03 -0.29588666242E+03  0.70170434570E+03  0.80887314961E+03  0.89849927830E+02 0.  0.
         13    1    3    3    0    0 -0.65565476418E+03  0.58797810727E+03 -0.18293168037E+04  0.20302712608E+04  0.00000000000E+00 0. -1.
        -13    1    3    3    0    0 -0.50932926578E+02  0.77873753109E+02 -0.23592517155E+03  0.25361224537E+03  0.00000000000E+00 0.  1.
          4    1    6    6  502    0  0.67648529316E+02 -0.13842001941E+03  0.23446018766E+03  0.28054946960E+03  0.00000000000E+00 0. -1.
          3    1    5    5  503    0  0.21122689058E+03 -0.12687326184E+03 -0.55244734020E+02  0.25251852311E+03  0.00000000000E+00 0. -1.
         -4    1    5    5    0  503  0.23794118775E+03 -0.24309193613E+03 -0.12505369024E+03  0.36241981689E+03  0.00000000000E+00 0.  1.
         -3    1    6    6    0  502  0.18977108311E+03 -0.15746664301E+03  0.46724415804E+03  0.52832368002E+03  0.00000000000E+00 0.  1.
<mgrwt>
<rscale>  0 0.33709898E+04</rscale>
<asrwt>0</asrwt>
<pdfrwt beam="1">  1        2 0.40396393E+00 0.33709898E+04</pdfrwt>
<pdfrwt beam="2">  1       -2 0.16645069E+00 0.33709898E+04</pdfrwt>
<totfact> 0.55134829E-01</totfact>
</mgrwt>
</event>
<event>
12    1  0.1489233E-007  0.3451104E+04  0.7818608E-02  0.8125477E-01
          1   -1    0    0  501    0  0.00000000000E+00  0.00000000000E+00  0.36496076743E+04  0.36496076743E+04  0.00000000000E+00 0. -1.
         -1   -1    0    0    0  501 -0.00000000000E+00 -0.00000000000E+00 -0.81584902013E+03  0.81584902013E+03  0.00000000000E+00 0.  1.
         23    2    1    2    0    0  0.42339160248E+03  0.10499617235E+04  0.27965074488E+04  0.30185616733E+04  0.97880509932E+02 0.  0.
        254    2    1    2    0    0 -0.42339160248E+03 -0.10499617235E+04  0.37251205380E+02  0.14468950212E+04  0.90024301171E+03 0.  0.
        -24    2    4    4    0    0 -0.20051369425E+03  0.44789405646E+02  0.22085193139E+03  0.31203972239E+03  0.79883542156E+02 0.  0.
         24    2    4    4    0    0 -0.22287790823E+03 -0.10947511292E+04 -0.18360072601E+03  0.11348552988E+04  0.77670624112E+02 0.  0.
         13    1    3    3    0    0  0.37707926105E+03  0.84069675722E+03  0.22288541854E+04  0.24117941012E+04  0.00000000000E+00 0. -1.
        -13    1    3    3    0    0  0.46312341431E+02  0.20926496629E+03  0.56765326338E+03  0.60676757206E+03  0.00000000000E+00 0.  1.
          2    1    6    6  502    0 -0.81374193155E+01 -0.16325514475E+02  0.56378448282E+01  0.19092545935E+02  0.00000000000E+00 0. -1.
          3    1    5    5  503    0 -0.44563110226E+02 -0.23037318790E+02  0.44693653369E+02  0.67187137917E+02  0.00000000000E+00 0. -1.
         -4    1    5    5    0  503 -0.15595058403E+03  0.67826724436E+02  0.17615827802E+03  0.24485258447E+03  0.00000000000E+00 0.  1.
         -1    1    6    6    0  502 -0.21474048891E+03 -0.10784256147E+04 -0.18923857084E+03  0.11157627529E+04  0.00000000000E+00 0.  1.
<mgrwt>
<rscale>  0 0.34511035E+04</rscale>
<asrwt>0</asrwt>
<pdfrwt beam="1">  1        1 0.56147810E+00 0.34511035E+04</pdfrwt>
<pdfrwt beam="2">  1       -1 0.12551524E+00 0.34511035E+04</pdfrwt>
<totfact> 0.85917308E-02</totfact>
</mgrwt>
</event>
<event>
12    1  0.1489233E-007  0.2692452E+04  0.7818608E-02  0.8337458E-01
         -2   -1    0    0    0  501 -0.00000000000E+00  0.00000000000E+00  0.68156957366E+03  0.68156957366E+03  0.00000000000E+00 0.  1.
          2   -1    0    0  501    0  0.00000000000E+00 -0.00000000000E+00 -0.26590460477E+04  0.26590460477E+04  0.00000000000E+00 0. -1.
         23    2    1    2    0    0  0.10072727939E+04 -0.51219532635E+02 -0.16808491535E+04  0.19619492778E+04  0.82274965847E+02 0.  0.
        254    2    1    2    0    0 -0.10072727939E+04  0.51219532635E+02 -0.29662732061E+03  0.13786663436E+04  0.89191434450E+03 0.  0.
        -24    2    4    4    0    0 -0.11283498429E+04 -0.45639110612E+02 -0.36984919479E+03  0.11907974044E+04  0.77160450238E+02 0.  0.
         24    2    4    4    0    0  0.12107704902E+03  0.96858643247E+02  0.73221874187E+02  0.18786893923E+03  0.76759669727E+02 0.  0.
         11    1    3    3    0    0  0.35862591497E+03 -0.51867571050E+02 -0.64298274010E+03  0.73805798951E+03  0.00000000000E+00 0.  1.
        -11    1    3    3    0    0  0.64864687890E+03  0.64803841477E+00 -0.10378664134E+04  0.12238912882E+04  0.00000000000E+00 0. -1.
          4    1    6    6  502    0  0.34263226186E+02  0.75970215445E+02  0.41586132735E+02  0.93138868037E+02  0.00000000000E+00 0. -1.
          1    1    5    5  503    0 -0.75550995407E+03 -0.45242870974E+02 -0.28246102057E+03  0.80785297933E+03  0.00000000000E+00 0. -1.
         -2    1    5    5    0  503 -0.37283988882E+03 -0.39623963808E+00 -0.87388174225E+02  0.38294442507E+03  0.00000000000E+00 0.  1.
         -3    1    6    6    0  502  0.86813822829E+02  0.20888427802E+02  0.31635741452E+02  0.94730071189E+02  0.00000000000E+00 0.  1.
<mgrwt>
<rscale>  0 0.26924523E+04</rscale>
<asrwt>0</asrwt>
<pdfrwt beam="1">  1        2 0.40908401E+00 0.26924523E+04</pdfrwt>
<pdfrwt beam="2">  1       -2 0.10485686E+00 0.26924523E+04</pdfrwt>
<totfact> 0.18177604E+00</totfact>
</mgrwt>
</event>
<event>
12    1  0.1489233E-007  0.1727334E+04  0.7818608E-02  0.8745926E-01
          2   -1    0    0  501    0  0.00000000000E+00  0.00000000000E+00  0.10825212026E+04  0.10825212026E+04  0.00000000000E+00 0. -1.
         -2   -1    0    0    0  501 -0.00000000000E+00 -0.00000000000E+00 -0.68905904593E+03  0.68905904593E+03  0.00000000000E+00 0.  1.
         23    2    1    2    0    0 -0.30260795434E+02 -0.24302923090E+03 -0.43902782354E+03  0.51078653363E+03  0.90435227006E+02 0.  0.
        254    2    1    2    0    0  0.30260795434E+02  0.24302923090E+03  0.83248998019E+03  0.12607937149E+04  0.91464873125E+03 0.  0.
        -24    2    4    4    0    0 -0.18136631814E+03 -0.29653195569E+03  0.25160222205E+03  0.43637433657E+03  0.79334364392E+02 0.  0.
         24    2    4    4    0    0  0.21162711358E+03  0.53956118659E+03  0.58088775814E+03  0.82441937832E+03  0.79526187614E+02 0.  0.
         13    1    3    3    0    0 -0.29391779247E+02 -0.24957289847E+03 -0.43659452202E+03  0.50375121339E+03  0.00000000000E+00 0.  1.
        -13    1    3    3    0    0 -0.86901618735E+00  0.65436675764E+01 -0.24333015182E+01  0.70353202317E+01  0.00000000000E+00 0. -1.
          2    1    6    6  502    0  0.21658170094E+03  0.50939571840E+03  0.53935146749E+03  0.77284645085E+03  0.00000000000E+00 0. -1.
          1    1    5    5  503    0 -0.16248964983E+03 -0.19845158950E+03  0.17499206593E+03  0.31049660677E+03  0.00000000000E+00 0. -1.
         -2    1    5    5    0  503 -0.18876668311E+02 -0.98080366187E+02  0.76610156122E+02  0.12587772980E+03  0.00000000000E+00 0.  1.
         -1    1    6    6    0  502 -0.49545873575E+01  0.30165468182E+02  0.41536290650E+02  0.51572927467E+02  0.00000000000E+00 0.  1.
<mgrwt>
<rscale>  0 0.17273344E+04</rscale>
<asrwt>0</asrwt>
<pdfrwt beam="1">  1        2 0.16654172E+00 0.17273344E+04</pdfrwt>
<pdfrwt beam="2">  1       -2 0.10600908E+00 0.17273344E+04</pdfrwt>
<totfact> 0.15238361E+01</totfact>
</mgrwt>
</event>
<event>
12    1  0.1489233E-007  0.3310693E+04  0.7818608E-02  0.8160180E-01
          2   -1    0    0  501    0  0.00000000000E+00  0.00000000000E+00  0.13474398343E+04  0.13474398343E+04  0.00000000000E+00 0. -1.
         -2   -1    0    0    0  501 -0.00000000000E+00 -0.00000000000E+00 -0.20336136793E+04  0.20336136793E+04  0.00000000000E+00 0.  1.
         23    2    1    2    0    0 -0.61905681939E+03 -0.11796565282E+04  0.46026545552E+03  0.14124741361E+04  0.91749798143E+02 0.  0.
        254    2    1    2    0    0  0.61905681939E+03  0.11796565282E+04 -0.11464393005E+04  0.19685793775E+04  0.88665710717E+03 0.  0.
        -24    2    4    4    0    0  0.67050427941E+03  0.66989913754E+03 -0.10908070369E+04  0.14472360112E+04  0.79317320680E+02 0.  0.
         24    2    4    4    0    0 -0.51447460018E+02  0.50975739062E+03 -0.55632263689E+02  0.52134336629E+03  0.78768765222E+02 0.  0.
         13    1    3    3    0    0 -0.43302877658E+02 -0.11953748216E+03  0.66368752534E+02  0.14341952506E+03  0.00000000000E+00 0. -1.
        -13    1    3    3    0    0 -0.57575394174E+03 -0.10601190460E+04  0.39389670299E+03  0.12690546110E+04  0.00000000000E+00 0.  1.
          4    1    6    6  502    0 -0.40315548046E+02  0.46723672014E+03 -0.71946882618E+02  0.47445953460E+03  0.00000000000E+00 0. -1.
          3    1    5    5  503    0  0.49175135176E+03  0.48764715534E+03 -0.84872068456E+03  0.10954204400E+04  0.00000000000E+00 0. -1.
         -4    1    5    5    0  503  0.17875292765E+03  0.18225198220E+03 -0.24208635229E+03  0.35181557118E+03  0.00000000000E+00 0.  1.
         -3    1    6    6    0  502 -0.11131911972E+02  0.42520670487E+02  0.16314618929E+02  0.46883831686E+02  0.00000000000E+00 0.  1.
<mgrwt>
<rscale>  0 0.33106930E+04</rscale>
<asrwt>0</asrwt>
<pdfrwt beam="1">  1        2 0.20729844E+00 0.33106930E+04</pdfrwt>
<pdfrwt beam="2">  1       -2 0.31286364E+00 0.33106930E+04</pdfrwt>
<totfact> 0.34300190E-01</totfact>
</mgrwt>
</event>
<event>
12    1  0.1489233E-007  0.1705061E+04  0.7818608E-02  0.8758483E-01
         -1   -1    0    0    0  501 -0.00000000000E+00  0.00000000000E+00  0.61976225479E+03  0.61976225479E+03  0.00000000000E+00 0.  1.
          1   -1    0    0  501    0  0.00000000000E+00 -0.00000000000E+00 -0.11727212764E+04  0.11727212764E+04  0.00000000000E+00 0. -1.
         23    2    1    2    0    0 -0.15381142549E+03 -0.14024849984E+03 -0.80846426997E+03  0.83983188905E+03  0.91517920214E+02 0.  0.
        254    2    1    2    0    0  0.15381142549E+03  0.14024849984E+03  0.25550524840E+03  0.95265164212E+03  0.89383142871E+03 0.  0.
        -24    2    4    4    0    0 -0.59546670397E+02  0.46528654026E+03 -0.10932783284E+02  0.47461262665E+03  0.71416028473E+02 0.  0.
         24    2    4    4    0    0  0.21335809589E+03 -0.32503804041E+03  0.26643803168E+03  0.47803901547E+03  0.79753813606E+02 0.  0.
         11    1    3    3    0    0  0.17160164194E+01 -0.22162918483E+02 -0.30545299760E+02  0.37777705137E+02  0.00000000000E+00 0.  1.
        -11    1    3    3    0    0 -0.15552744191E+03 -0.11808558136E+03 -0.77791897021E+03  0.80205418391E+03  0.00000000000E+00 0. -1.
          2    1    6    6  502    0  0.11107918109E+03 -0.20234767589E+03  0.19856812262E+03  0.30448721768E+03  0.00000000000E+00 0. -1.
          1    1    5    5  503    0  0.10171911255E+02  0.91103213466E+02 -0.20234691306E+02  0.93876014055E+02  0.00000000000E+00 0. -1.
         -4    1    5    5    0  503 -0.69718581653E+02  0.37418332679E+03  0.93019080221E+01  0.38073661260E+03  0.00000000000E+00 0.  1.
         -1    1    6    6    0  502  0.10227891479E+03 -0.12269036452E+03  0.67869909063E+02  0.17355179779E+03  0.00000000000E+00 0.  1.
<mgrwt>
<rscale>  0 0.17050612E+04</rscale>
<asrwt>0</asrwt>
<pdfrwt beam="1">  1        1 0.18041865E+00 0.17050612E+04</pdfrwt>
<pdfrwt beam="2">  1       -1 0.95348041E-01 0.17050612E+04</pdfrwt>
<totfact> 0.11305725E+01</totfact>
</mgrwt>
</event>
<event>
12    1  0.1489233E-007  0.2273339E+04  0.7818608E-02  0.8488508E-01
          2   -1    0    0  501    0  0.00000000000E+00  0.00000000000E+00  0.33811175232E+04  0.33811175232E+04  0.00000000000E+00 0. -1.
         -2   -1    0    0    0  501 -0.00000000000E+00 -0.00000000000E+00 -0.38212750715E+03  0.38212750715E+03  0.00000000000E+00 0.  1.
         23    2    1    2    0    0 -0.24286330853E+02 -0.95410415811E+03  0.11754539407E+04  0.15168747394E+04  0.91172572307E+02 0.  0.
        254    2    1    2    0    0  0.24286330853E+02  0.95410415811E+03  0.18235360753E+04  0.22463702909E+04  0.89999505304E+03 0.  0.
        -24    2    4    4    0    0  0.33806730622E+03  0.22471492230E+03  0.25439842341E+03  0.48593072865E+03  0.81386825535E+02 0.  0.
         24    2    4    4    0    0 -0.31378097537E+03  0.72938923581E+03  0.15691376519E+04  0.17604395623E+04  0.80543925401E+02 0.  0.
         11    1    3    3    0    0 -0.39012058592E+01 -0.43724638831E+03  0.60986188541E+03  0.75042064389E+03  0.00000000000E+00 0.  1.
        -11    1    3    3    0    0 -0.20385124993E+02 -0.51685776980E+03  0.56559205528E+03  0.76645409551E+03  0.00000000000E+00 0. -1.
          2    1    6    6  502    0 -0.25931397741E+03  0.55340278192E+03  0.11413988824E+04  0.12947161027E+04  0.00000000000E+00 0. -1.
          3    1    5    5  503    0  0.31842897759E+03  0.18151330974E+03  0.22331021602E+03  0.42919872782E+03  0.00000000000E+00 0. -1.
         -4    1    5    5    0  503  0.19638328629E+02  0.43201612562E+02  0.31088207394E+02  0.56732000831E+02  0.00000000000E+00 0.  1.
         -1    1    6    6    0  502 -0.54466997955E+02  0.17598645389E+03  0.42773876951E+03  0.46572345954E+03  0.00000000000E+00 0.  1.
<mgrwt>
<rscale>  0 0.22733394E+04</rscale>
<asrwt>0</asrwt>
<pdfrwt beam="1">  1        2 0.52017190E+00 0.22733394E+04</pdfrwt>
<pdfrwt beam="2">  1       -2 0.58788850E-01 0.22733394E+04</pdfrwt>
<totfact> 0.24183970E+00</totfact>
</mgrwt>
</event>
<event>
12    1  0.1489233E-007  0.2392598E+04  0.7818608E-02  0.8442280E-01
          2   -1    0    0  501    0  0.00000000000E+00  0.00000000000E+00  0.11861030168E+04  0.11861030168E+04  0.00000000000E+00 0. -1.
         -2   -1    0    0    0  501 -0.00000000000E+00 -0.00000000000E+00 -0.12065830499E+04  0.12065830499E+04  0.00000000000E+00 0.  1.
         23    2    1    2    0    0 -0.10464599996E+03 -0.89270673692E+03  0.49650508876E+03  0.10308425752E+04  0.90791013619E+02 0.  0.
        254    2    1    2    0    0  0.10464599996E+03  0.89270673692E+03 -0.51698512188E+03  0.13618434916E+04  0.88287483591E+03 0.  0.
        -24    2    4    4    0    0 -0.21412015893E+03  0.38848051522E+03  0.13821821235E+03  0.47194703096E+03  0.82856337355E+02 0.  0.
         24    2    4    4    0    0  0.31876615889E+03  0.50422622170E+03 -0.65520333423E+03  0.88989646063E+03  0.82270011270E+02 0.  0.
         11    1    3    3    0    0 -0.44027524064E+02 -0.53617108615E+03  0.25039911760E+03  0.59339495666E+03  0.00000000000E+00 0. -1.
        -11    1    3    3    0    0 -0.60618475898E+02 -0.35653565077E+03  0.24610597116E+03  0.43744761850E+03  0.00000000000E+00 0.  1.
          4    1    6    6  502    0  0.11336076914E+03  0.22551720412E+03 -0.22917995560E+03  0.34092832881E+03  0.00000000000E+00 0. -1.
          1    1    5    5  503    0 -0.30818440493E+02  0.48323960045E+02 -0.98354384286E+01  0.58152534235E+02  0.00000000000E+00 0. -1.
         -2    1    5    5    0  503 -0.18330171844E+03  0.34015655517E+03  0.14805365077E+03  0.41379449672E+03  0.00000000000E+00 0.  1.
         -3    1    6    6    0  502  0.20540538975E+03  0.27870901757E+03 -0.42602337863E+03  0.54896813182E+03  0.00000000000E+00 0.  1.
<mgrwt>
<rscale>  0 0.23925984E+04</rscale>
<asrwt>0</asrwt>
<pdfrwt beam="1">  1        2 0.18247739E+00 0.23925984E+04</pdfrwt>
<pdfrwt beam="2">  1       -2 0.18562816E+00 0.23925984E+04</pdfrwt>
<totfact> 0.28822649E+00</totfact>
</mgrwt>
</event>
<event>
12    1  0.1489233E-007  0.2007912E+04  0.7818608E-02  0.8602931E-01
          1   -1    0    0  501    0  0.00000000000E+00  0.00000000000E+00  0.55575169106E+03  0.55575169106E+03  0.00000000000E+00 0.  1.
         -1   -1    0    0    0  501 -0.00000000000E+00 -0.00000000000E+00 -0.18136289225E+04  0.18136289225E+04  0.00000000000E+00 0. -1.
         23    2    1    2    0    0  0.19515811082E+03  0.70129078012E+03 -0.11996330281E+03  0.74336683326E+03  0.91146082069E+02 0.  0.
        254    2    1    2    0    0 -0.19515811082E+03 -0.70129078012E+03 -0.11379139286E+04  0.16260137803E+04  0.90508411666E+03 0.  0.
        -24    2    4    4    0    0 -0.43723812129E+03 -0.70311765532E+03 -0.10840555950E+04  0.13663655766E+04  0.78909720086E+02 0.  0.
         24    2    4    4    0    0  0.24208001047E+03  0.18268751970E+01 -0.53858333667E+02  0.25964820373E+03  0.76879130149E+02 0.  0.
         11    1    3    3    0    0  0.70004534925E+02  0.25692386813E+03 -0.88618996862E+02  0.28064895427E+03  0.00000000000E+00 0. -1.
        -11    1    3    3    0    0  0.12515357589E+03  0.44436691199E+03 -0.31344305946E+02  0.46271787900E+03  0.00000000000E+00 0.  1.
          2    1    6    6  502    0  0.85730498814E+02  0.25869699050E+02  0.77583987405E+01  0.89884105975E+02  0.00000000000E+00 0. -1.
          1    1    5    5  503    0 -0.34997951446E+03 -0.59483531731E+03 -0.93981512495E+03  0.11660047960E+04  0.00000000000E+00 0. -1.
         -2    1    5    5    0  503 -0.87258606830E+02 -0.10828233801E+03 -0.14424047001E+03  0.20036078054E+03  0.00000000000E+00 0.  1.
         -1    1    6    6    0  502  0.15634951166E+03 -0.24042823853E+02 -0.61616732408E+02  0.16976409776E+03  0.00000000000E+00 0.  1.
<mgrwt>
<rscale>  0 0.20079117E+04</rscale>
<asrwt>0</asrwt>
<pdfrwt beam="1">  1        1 0.85500261E-01 0.20079117E+04</pdfrwt>
<pdfrwt beam="2">  1       -1 0.27901983E+00 0.20079117E+04</pdfrwt>
<totfact> 0.16007873E+00</totfact>
</mgrwt>
</event>
<event>
12    1  0.1489233E-007  0.4307119E+04  0.7818608E-02  0.7945303E-01
         -2   -1    0    0    0  501 -0.00000000000E+00  0.00000000000E+00  0.19285938594E+04  0.19285938594E+04  0.00000000000E+00 0. -1.
          2   -1    0    0  501    0  0.00000000000E+00 -0.00000000000E+00 -0.24047669686E+04  0.24047669686E+04  0.00000000000E+00 0.  1.
         23    2    1    2    0    0 -0.98996196642E+03 -0.13397910719E+04 -0.14431789525E+04  0.22059264273E+04  0.91000563257E+02 0.  0.
        254    2    1    2    0    0  0.98996196642E+03  0.13397910719E+04  0.96700584332E+03  0.21274344006E+04  0.90322312675E+03 0.  0.
        -24    2    4    4    0    0  0.28348377368E+03  0.18739106576E+03  0.64873671879E+03  0.73655624081E+03  0.78595827550E+02 0.  0.
         24    2    4    4    0    0  0.70647819274E+03  0.11524000061E+04  0.31826912453E+03  0.13908781598E+04  0.78163987246E+02 0.  0.
         13    1    3    3    0    0 -0.89649871436E+02 -0.12406802511E+03 -0.16914587834E+03  0.22812343690E+03  0.00000000000E+00 0. -1.
        -13    1    3    3    0    0 -0.90031209498E+03 -0.12157230468E+04 -0.12740330742E+04  0.19778029904E+04  0.00000000000E+00 0.  1.
          4    1    6    6  502    0  0.37906231852E+03  0.58856251324E+03  0.20157822432E+03  0.72851070949E+03  0.00000000000E+00 0. -1.
          3    1    5    5  503    0  0.81474198371E+02  0.36274152839E+02  0.24226793581E+03  0.25816198769E+03  0.00000000000E+00 0. -1.
         -4    1    5    5    0  503  0.20200957531E+03  0.15111691293E+03  0.40646878297E+03  0.47839425312E+03  0.00000000000E+00 0.  1.
         -3    1    6    6    0  502  0.32741587422E+03  0.56383749287E+03  0.11669090022E+03  0.66236745033E+03  0.00000000000E+00 0.  1.
<mgrwt>
<rscale>  0 0.43071191E+04</rscale>
<asrwt>0</asrwt>
<pdfrwt beam="1">  1        2 0.36996415E+00 0.43071191E+04</pdfrwt>
<pdfrwt beam="2">  1       -2 0.29670675E+00 0.43071191E+04</pdfrwt>
<totfact> 0.10122497E-01</totfact>
</mgrwt>
</event>
<event>
12    1  0.1489233E-007  0.1290927E+04  0.7818608E-02  0.9036791E-01
          2   -1    0    0  501    0  0.00000000000E+00  0.00000000000E+00  0.75275112151E+03  0.75275112151E+03  0.00000000000E+00 0. -1.
         -2   -1    0    0    0  501 -0.00000000000E+00 -0.00000000000E+00 -0.55346757346E+03  0.55346757346E+03  0.00000000000E+00 0.  1.
         23    2    1    2    0    0 -0.12751050374E+03  0.29441825331E+03  0.85697270211E+02  0.34873908559E+03  0.10646074981E+03 0.  0.
        254    2    1    2    0    0  0.12751050374E+03 -0.29441825331E+03  0.11358627784E+03  0.95747960939E+03  0.89494375434E+03 0.  0.
        -24    2    4    4    0    0 -0.31534470917E+03 -0.36133562840E+03 -0.78028493572E+01  0.48644731489E+03  0.81020884704E+02 0.  0.
         24    2    4    4    0    0  0.44285521290E+03  0.66917375090E+02  0.12138912719E+03  0.47103229449E+03  0.80854360247E+02 0.  0.
         11    1    3    3    0    0 -0.61183070265E+02  0.17480226294E+03  0.10127104471E+03  0.21108060951E+03  0.00000000000E+00 0. -1.
        -11    1    3    3    0    0 -0.66327433470E+02  0.11961599037E+03 -0.15573774501E+02  0.13765847608E+03  0.00000000000E+00 0.  1.
          2    1    6    6  502    0  0.44240716030E+03  0.71253389399E+02  0.11388458185E+03  0.46235358652E+03  0.00000000000E+00 0. -1.
          1    1    5    5  503    0 -0.22454747960E+03 -0.26115086108E+03 -0.42043949327E+02  0.34697123297E+03  0.00000000000E+00 0. -1.
         -2    1    5    5    0  503 -0.90797229570E+02 -0.10018476732E+03  0.34241099970E+02  0.13947608192E+03  0.00000000000E+00 0.  1.
         -1    1    6    6    0  502  0.44805260138E+00 -0.43360143088E+01  0.75045453453E+01  0.86787079718E+01  0.00000000000E+00 0.  1.
<mgrwt>
<rscale>  0 0.12909273E+04</rscale>
<asrwt>0</asrwt>
<pdfrwt beam="1">  1        2 0.11580786E+00 0.12909273E+04</pdfrwt>
<pdfrwt beam="2">  1       -2 0.85148857E-01 0.12909273E+04</pdfrwt>
<totfact> 0.43948045E+01</totfact>
</mgrwt>
</event>
<event>
12    1  0.1489233E-007  0.1276325E+04  0.7818608E-02  0.9048553E-01
          1   -1    0    0  501    0  0.00000000000E+00  0.00000000000E+00  0.22874630470E+03  0.22874630470E+03  0.00000000000E+00 0. -1.
         -1   -1    0    0    0  501 -0.00000000000E+00 -0.00000000000E+00 -0.17803632873E+04  0.17803632873E+04  0.00000000000E+00 0.  1.
         23    2    1    2    0    0 -0.26141709466E+03  0.13515107940E+03 -0.55231232307E+03  0.63262830403E+03  0.92547053955E+02 0.  0.
        254    2    1    2    0    0  0.26141709466E+03 -0.13515107940E+03 -0.99930465953E+03  0.13764812880E+04  0.89971452247E+03 0.  0.
        -24    2    4    4    0    0  0.36547358593E+03 -0.34242671248E+03 -0.10103890945E+04  0.11305401385E+04  0.80049278629E+02 0.  0.
         24    2    4    4    0    0 -0.10405649127E+03  0.20727563308E+03  0.11084434934E+02  0.24594114952E+03  0.81075538145E+02 0.  0.
         13    1    3    3    0    0 -0.26820864906E+03  0.12501587446E+03 -0.53599239165E+03  0.61225214757E+03  0.00000000000E+00 0.  1.
        -13    1    3    3    0    0  0.67915544012E+01  0.10135204938E+02 -0.16319931427E+02  0.20376156460E+02  0.00000000000E+00 0. -1.
          2    1    6    6  502    0 -0.57473871156E+02  0.14809497948E+03  0.42334440348E+02  0.16440064980E+03  0.00000000000E+00 0. -1.
          3    1    5    5  503    0  0.35470020997E+03 -0.34371979147E+03 -0.10008620850E+04  0.11161005542E+04  0.00000000000E+00 0. -1.
         -4    1    5    5    0  503  0.10773375964E+02  0.12930789966E+01 -0.95270095049E+01  0.14439584242E+02  0.00000000000E+00 0.  1.
         -1    1    6    6    0  502 -0.46582620117E+02  0.59180653593E+02 -0.31250005413E+02  0.81540499722E+02  0.00000000000E+00 0.  1.
<mgrwt>
<rscale>  0 0.12763252E+04</rscale>
<asrwt>0</asrwt>
<pdfrwt beam="1">  1        1 0.35191739E-01 0.12763252E+04</pdfrwt>
<pdfrwt beam="2">  1       -1 0.27390205E+00 0.12763252E+04</pdfrwt>
<totfact> 0.60095513E+00</totfact>
</mgrwt>
</event>
<event>
12    1  0.1489233E-007  0.1315976E+04  0.7818608E-02  0.9016991E-01
          2   -1    0    0  501    0  0.00000000000E+00  0.00000000000E+00  0.16600009889E+04  0.16600009889E+04  0.00000000000E+00 0. -1.
         -2   -1    0    0    0  501 -0.00000000000E+00 -0.00000000000E+00 -0.26081202751E+03  0.26081202751E+03  0.00000000000E+00 0.  1.
         23    2    1    2    0    0 -0.20286585620E+02  0.51850822893E+02 -0.11349745147E+03  0.15391971352E+03  0.87804062146E+02 0.  0.
        254    2    1    2    0    0  0.20286585620E+02 -0.51850822893E+02  0.15126864128E+04  0.17668933029E+04  0.91136804133E+03 0.  0.
        -24    2    4    4    0    0  0.32552208839E+03 -0.16006690311E+03  0.21911521096E+03  0.43113304341E+03  0.79234979280E+02 0.  0.
         24    2    4    4    0    0 -0.30523550277E+03  0.10821608021E+03  0.12935712019E+04  0.13357602595E+04  0.77779073404E+02 0.  0.
         13    1    3    3    0    0 -0.99375964353E+01  0.74670897035E+02 -0.65710396865E+02  0.99961767407E+02  0.00000000000E+00 0.  1.
        -13    1    3    3    0    0 -0.10348989185E+02 -0.22820074142E+02 -0.47787054608E+02  0.53957946117E+02  0.00000000000E+00 0. -1.
          4    1    6    6  502    0 -0.17964612888E+03  0.41874353603E+02  0.59669224395E+03  0.62455410262E+03  0.00000000000E+00 0. -1.
          1    1    5    5  503    0  0.10119329322E+03 -0.14221953503E+02  0.78533381419E+02  0.12887916259E+03  0.00000000000E+00 0. -1.
         -4    1    5    5    0  503  0.22432879518E+03 -0.14584494960E+03  0.14058182954E+03  0.30225388081E+03  0.00000000000E+00 0.  1.
         -3    1    6    6    0  502 -0.12558937389E+03  0.66341726611E+02  0.69687895794E+03  0.71120615685E+03  0.00000000000E+00 0.  1.
<mgrwt>
<rscale>  0 0.13159760E+04</rscale>
<asrwt>0</asrwt>
<pdfrwt beam="1">  1        2 0.25538476E+00 0.13159760E+04</pdfrwt>
<pdfrwt beam="2">  1       -2 0.40124928E-01 0.13159760E+04</pdfrwt>
<totfact> 0.59401382E+01</totfact>
</mgrwt>
</event>
<event>
12    1  0.1489233E-007  0.1814600E+04  0.7818608E-02  0.8698574E-01
         -2   -1    0    0    0  501 -0.00000000000E+00  0.00000000000E+00  0.84663195008E+03  0.84663195008E+03  0.00000000000E+00 0. -1.
          2   -1    0    0  501    0  0.00000000000E+00 -0.00000000000E+00 -0.97231536343E+03  0.97231536343E+03  0.00000000000E+00 0.  1.
         23    2    1    2    0    0  0.60662212062E+03 -0.31916153547E+03 -0.63814153226E+02  0.69472008772E+03  0.93323476058E+02 0.  0.
        254    2    1    2    0    0 -0.60662212062E+03  0.31916153547E+03 -0.61869260126E+02  0.11242272258E+04  0.88893451215E+03 0.  0.
        -24    2    4    4    0    0  0.14616541038E+03  0.30926485671E+03 -0.98461691579E+02  0.36620340120E+03  0.86029922407E+02 0.  0.
         24    2    4    4    0    0 -0.75278753100E+03  0.98966787517E+01  0.36592431453E+02  0.75802382459E+03  0.80461801625E+02 0.  0.
         11    1    3    3    0    0  0.45452597194E+03 -0.23227630591E+03 -0.67030315154E+01  0.51048121619E+03  0.00000000000E+00 0.  1.
        -11    1    3    3    0    0  0.15209614868E+03 -0.86885229555E+02 -0.57111121711E+02  0.18423887153E+03  0.00000000000E+00 0. -1.
          2    1    6    6  502    0 -0.46890349188E+03 -0.25280726876E+02 -0.41489772033E+00  0.46958468032E+03  0.00000000000E+00 0. -1.
          3    1    5    5  503    0  0.11239058013E+03  0.28002971919E+03 -0.10807055652E+03  0.32051135911E+03  0.00000000000E+00 0. -1.
         -4    1    5    5    0  503  0.33774830249E+02  0.29235137522E+02  0.96088649437E+01  0.45692042084E+02  0.00000000000E+00 0.  1.
         -3    1    6    6    0  502 -0.28388403912E+03  0.35177405628E+02  0.37007329174E+02  0.28843914427E+03  0.00000000000E+00 0.  1.
<mgrwt>
<rscale>  0 0.18146000E+04</rscale>
<asrwt>0</asrwt>
<pdfrwt beam="1">  1        2 0.14958698E+00 0.18146000E+04</pdfrwt>
<pdfrwt beam="2">  1       -2 0.13025107E+00 0.18146000E+04</pdfrwt>
<totfact> 0.10697747E+01</totfact>
</mgrwt>
</event>
<event>
12    1  0.1489233E-007  0.2354713E+04  0.7818608E-02  0.8456655E-01
         -2   -1    0    0    0  501 -0.00000000000E+00  0.00000000000E+00  0.44532907887E+03  0.44532907887E+03  0.00000000000E+00 0.  1.
          2   -1    0    0  501    0  0.00000000000E+00 -0.00000000000E+00 -0.31126842800E+04  0.31126842800E+04  0.00000000000E+00 0. -1.
         23    2    1    2    0    0 -0.29763214238E+03 -0.53771556823E+03 -0.23446780745E+04  0.24252950696E+04  0.82571043012E+02 0.  0.
        254    2    1    2    0    0  0.29763214238E+03  0.53771556823E+03 -0.32267712660E+03  0.11327182892E+04  0.89510182117E+03 0.  0.
        -24    2    4    4    0    0  0.18213680999E+03  0.63784214549E+03 -0.53711677417E+03  0.85723631124E+03  0.79644485696E+02 0.  0.
         24    2    4    4    0    0  0.11549533239E+03 -0.10012657726E+03  0.21443964757E+03  0.27548197800E+03  0.80879258636E+02 0.  0.
         11    1    3    3    0    0 -0.28366991136E+03 -0.46542656885E+03 -0.20081032260E+04  0.20807616576E+04  0.00000000000E+00 0. -1.
        -11    1    3    3    0    0 -0.13962231019E+02 -0.72288999375E+02 -0.33657484853E+03  0.34453341201E+03  0.00000000000E+00 0.  1.
          4    1    6    6  502    0  0.82050002478E+02 -0.33019550545E+02  0.16001796060E+03  0.18283391736E+03  0.00000000000E+00 0. -1.
          3    1    5    5  503    0  0.91493937046E+02  0.34719385168E+03 -0.34039483099E+03  0.49475585102E+03  0.00000000000E+00 0. -1.
         -4    1    5    5    0  503  0.90642872941E+02  0.29064829381E+03 -0.19672194318E+03  0.36248046021E+03  0.00000000000E+00 0.  1.
         -3    1    6    6    0  502  0.33445329914E+02 -0.67107026714E+02  0.54421686970E+02  0.92648060638E+02  0.00000000000E+00 0.  1.
<mgrwt>
<rscale>  0 0.23547134E+04</rscale>
<asrwt>0</asrwt>
<pdfrwt beam="1">  1        2 0.47887451E+00 0.23547134E+04</pdfrwt>
<pdfrwt beam="2">  1       -2 0.68512166E-01 0.23547134E+04</pdfrwt>
<totfact> 0.25992970E+00</totfact>
</mgrwt>
</event>
<event>
12    1  0.1489233E-007  0.1794475E+04  0.7818608E-02  0.8709243E-01
         -2   -1    0    0    0  501 -0.00000000000E+00  0.00000000000E+00  0.26609380348E+03  0.26609380348E+03  0.00000000000E+00 0.  1.
          2   -1    0    0  501    0  0.00000000000E+00 -0.00000000000E+00 -0.30253814084E+04  0.30253814084E+04  0.00000000000E+00 0. -1.
         23    2    1    2    0    0 -0.41324596028E+03 -0.40937305950E+03 -0.14989201694E+04  0.16094043582E+04  0.71149059000E+02 0.  0.
        254    2    1    2    0    0  0.41324596028E+03  0.40937305950E+03 -0.12603674355E+04  0.16820708536E+04  0.94998829390E+03 0.  0.
        -24    2    4    4    0    0 -0.24041428505E+03 -0.43869342753E+02 -0.10606935236E+03  0.27799447808E+03  0.79414574494E+02 0.  0.
         24    2    4    4    0    0  0.65366024532E+03  0.45324240226E+03 -0.11542980831E+04  0.14040763755E+04  0.79536231120E+02 0.  0.
         13    1    3    3    0    0 -0.69069712107E+02 -0.94967159620E+02 -0.36413847204E+03  0.38260451298E+03  0.00000000000E+00 0.  1.
        -13    1    3    3    0    0 -0.34417624817E+03 -0.31440589988E+03 -0.11347816974E+04  0.12267998453E+04  0.00000000000E+00 0. -1.
          2    1    6    6  502    0  0.27856931878E+03  0.24105096464E+03 -0.52361156301E+03  0.64021519963E+03  0.00000000000E+00 0. -1.
          3    1    5    5  503    0 -0.36313314341E+02 -0.34183467714E+01  0.12444999864E+02  0.38538551019E+02  0.00000000000E+00 0. -1.
         -4    1    5    5    0  503 -0.20410097071E+03 -0.40450995982E+02 -0.11851435222E+03  0.23945592706E+03  0.00000000000E+00 0.  1.
         -1    1    6    6    0  502  0.37509092655E+03  0.21219143761E+03 -0.63068652012E+03  0.76386117589E+03  0.00000000000E+00 0.  1.
<mgrwt>
<rscale>  0 0.17944751E+04</rscale>
<asrwt>0</asrwt>
<pdfrwt beam="1">  1        2 0.46544330E+00 0.17944751E+04</pdfrwt>
<pdfrwt beam="2">  1       -2 0.40937508E-01 0.17944751E+04</pdfrwt>
<totfact> 0.89946059E+00</totfact>
</mgrwt>
</event>
<event>
12    1  0.1489233E-007  0.1698838E+04  0.7818608E-02  0.8762027E-01
          2   -1    0    0  501    0  0.00000000000E+00  0.00000000000E+00  0.28629257074E+04  0.28629257074E+04  0.00000000000E+00 0. -1.
         -2   -1    0    0    0  501 -0.00000000000E+00 -0.00000000000E+00 -0.25201933525E+03  0.25201933525E+03  0.00000000000E+00 0.  1.
         23    2    1    2    0    0 -0.41442189659E+03  0.43126810605E+03  0.11475634001E+04  0.12974109166E+04  0.92928153738E+02 0.  0.
        254    2    1    2    0    0  0.41442189659E+03 -0.43126810605E+03  0.14633429721E+04  0.18175341260E+04  0.89683886936E+03 0.  0.
        -24    2    4    4    0    0  0.38352457926E+03 -0.69446347190E+03  0.10167482574E+04  0.12920319540E+04  0.78733313151E+02 0.  0.
         24    2    4    4    0    0  0.30897317333E+02  0.26319536585E+03  0.44659471471E+03  0.52550217200E+03  0.80493780847E+02 0.  0.
         13    1    3    3    0    0 -0.97260740459E+02  0.58741537747E+02  0.17374950587E+03  0.20760325306E+03  0.00000000000E+00 0.  1.
        -13    1    3    3    0    0 -0.31716115613E+03  0.37252656830E+03  0.97381389419E+03  0.10898076636E+04  0.00000000000E+00 0. -1.
          4    1    6    6  502    0  0.43598688198E+01  0.21891602148E+03  0.39977276280E+03  0.45580861641E+03  0.00000000000E+00 0. -1.
          1    1    5    5  503    0  0.29086475207E+03 -0.52447493213E+03  0.71121477983E+03  0.93032398737E+03  0.00000000000E+00 0. -1.
         -2    1    5    5    0  503  0.92659827194E+02 -0.16998853977E+03  0.30553347753E+03  0.36170796663E+03  0.00000000000E+00 0.  1.
         -3    1    6    6    0  502  0.26537448513E+02  0.44279344364E+02  0.46821951911E+02  0.69693555596E+02  0.00000000000E+00 0.  1.
<mgrwt>
<rscale>  0 0.16988380E+04</rscale>
<asrwt>0</asrwt>
<pdfrwt beam="1">  1        2 0.44045009E+00 0.16988380E+04</pdfrwt>
<pdfrwt beam="2">  1       -2 0.38772207E-01 0.16988380E+04</pdfrwt>
<totfact> 0.12713069E+01</totfact>
</mgrwt>
</event>
<event>
12    1  0.1489233E-007  0.1691311E+04  0.7818608E-02  0.8766336E-01
         -1   -1    0    0    0  501 -0.00000000000E+00  0.00000000000E+00  0.24760330262E+03  0.24760330262E+03  0.00000000000E+00 0.  1.
          1   -1    0    0  501    0  0.00000000000E+00 -0.00000000000E+00 -0.28882205934E+04  0.28882205934E+04  0.00000000000E+00 0. -1.
         23    2    1    2    0    0  0.32102914698E+03 -0.17696989362E+03 -0.18518973485E+04  0.18907139064E+04  0.10438979757E+03 0.  0.
        254    2    1    2    0    0 -0.32102914698E+03  0.17696989362E+03 -0.78871994226E+03  0.12451099896E+04  0.89097793606E+03 0.  0.
        -24    2    4    4    0    0  0.37211483649E+02  0.36044752815E+02  0.17771650978E+03  0.20166025325E+03  0.79998632320E+02 0.  0.
         24    2    4    4    0    0 -0.35824063062E+03  0.14092514080E+03 -0.96643645204E+03  0.10434497364E+04  0.81189234585E+02 0.  0.
         13    1    3    3    0    0  0.22489568949E+03 -0.72108533407E+02 -0.12616985577E+04  0.12836124657E+04  0.00000000000E+00 0. -1.
        -13    1    3    3    0    0  0.96133457486E+02 -0.10486136021E+03 -0.59019879088E+03  0.60710144067E+03  0.00000000000E+00 0.  1.
          2    1    6    6  502    0 -0.14853415235E+03  0.20447951864E+02 -0.32444853598E+03  0.35741763478E+03  0.00000000000E+00 0. -1.
          1    1    5    5  503    0  0.30428558576E+01 -0.35058006981E+01  0.13240823678E+03  0.13248958743E+03  0.00000000000E+00 0. -1.
         -2    1    5    5    0  503  0.34168627792E+02  0.39550553513E+02  0.45308273003E+02  0.69170665826E+02  0.00000000000E+00 0.  1.
         -3    1    6    6    0  502 -0.20970647827E+03  0.12047718894E+03 -0.64198791606E+03  0.68603210162E+03  0.00000000000E+00 0.  1.
<mgrwt>
<rscale>  0 0.16913107E+04</rscale>
<asrwt>0</asrwt>
<pdfrwt beam="1">  1        1 0.44434165E+00 0.16913107E+04</pdfrwt>
<pdfrwt beam="2">  1       -1 0.38092814E-01 0.16913107E+04</pdfrwt>
<totfact> 0.45842172E+00</totfact>
</mgrwt>
</event>
<event>
12    1  0.1489233E-007  0.1978261E+04  0.7818608E-02  0.8616852E-01
          2   -1    0    0  501    0  0.00000000000E+00  0.00000000000E+00  0.27390573788E+04  0.27390573788E+04  0.00000000000E+00 0.  1.
         -2   -1    0    0    0  501 -0.00000000000E+00 -0.00000000000E+00 -0.35719542534E+03  0.35719542534E+03  0.00000000000E+00 0. -1.
         23    2    1    2    0    0  0.39633895505E+03 -0.25214092504E+03 -0.36698830699E+02  0.48038062554E+03  0.93590212373E+02 0.  0.
        254    2    1    2    0    0 -0.39633895505E+03  0.25214092504E+03  0.24185607841E+04  0.26158721786E+04  0.87902865411E+03 0.  0.
        -24    2    4    4    0    0  0.10513666780E+03  0.39405511608E+03  0.66026639845E+03  0.78019178203E+03  0.80089614751E+02 0.  0.
         24    2    4    4    0    0 -0.50147562284E+03 -0.14191419104E+03  0.17582943857E+04  0.18356803965E+04  0.80659368012E+02 0.  0.
         13    1    3    3    0    0  0.31575211400E+03 -0.23673907706E+03 -0.12508454646E+02  0.39484332278E+03  0.00000000000E+00 0. -1.
        -13    1    3    3    0    0  0.80586841045E+02 -0.15401847986E+02 -0.24190376053E+02  0.85537302767E+02  0.00000000000E+00 0.  1.
          2    1    6    6  502    0 -0.12750061033E+03 -0.73327902986E+02  0.50480503514E+03  0.52579607311E+03  0.00000000000E+00 0. -1.
          1    1    5    5  503    0  0.87901315044E+01  0.23952689767E+01  0.41364387220E+01  0.10005690913E+02  0.00000000000E+00 0. -1.
         -2    1    5    5    0  503  0.96346536292E+02  0.39165984710E+03  0.65612995973E+03  0.77018609111E+03  0.00000000000E+00 0.  1.
         -1    1    6    6    0  502 -0.37397501251E+03 -0.68586288050E+02  0.12534893505E+04  0.13098843234E+04  0.00000000000E+00 0.  1.
<mgrwt>
<rscale>  0 0.19782606E+04</rscale>
<asrwt>0</asrwt>
<pdfrwt beam="1">  1        2 0.42139343E+00 0.19782606E+04</pdfrwt>
<pdfrwt beam="2">  1       -2 0.54953144E-01 0.19782606E+04</pdfrwt>
<totfact> 0.73043643E+00</totfact>
</mgrwt>
</event>
<event>
12    1  0.1489233E-007  0.1539636E+04  0.7818608E-02  0.8858515E-01
          1   -1    0    0  501    0  0.00000000000E+00  0.00000000000E+00  0.14028947999E+04  0.14028947999E+04  0.00000000000E+00 0. -1.
         -1   -1    0    0    0  501 -0.00000000000E+00 -0.00000000000E+00 -0.42242663031E+03  0.42242663031E+03  0.00000000000E+00 0.  1.
         23    2    1    2    0    0  0.18159498404E+03  0.40157873057E+03  0.60435983417E+03  0.75352681917E+03  0.91157243153E+02 0.  0.
        254    2    1    2    0    0 -0.18159498404E+03 -0.40157873057E+03  0.37610833543E+03  0.10717946110E+04  0.90168952152E+03 0.  0.
        -24    2    4    4    0    0  0.24143072628E+03 -0.48036103836E+03  0.93702272478E+02  0.55135070352E+03  0.78561820511E+02 0.  0.
         24    2    4    4    0    0 -0.42302571032E+03  0.78782307790E+02  0.28240606295E+03  0.52044390753E+03  0.77144493487E+02 0.  0.
         11    1    3    3    0    0  0.63898839071E+02  0.13145051890E+03  0.13280847393E+03  0.19748516729E+03  0.00000000000E+00 0. -1.
        -11    1    3    3    0    0  0.11769614497E+03  0.27012821167E+03  0.47155136024E+03  0.55604165188E+03  0.00000000000E+00 0.  1.
          4    1    6    6  502    0 -0.17009333650E+03  0.70383955798E+02  0.12042250134E+03  0.21997095987E+03  0.00000000000E+00 0. -1.
          3    1    5    5  503    0  0.26345287801E+02 -0.10106250191E+03  0.40753934189E+02  0.11210970803E+03  0.00000000000E+00 0. -1.
         -4    1    5    5    0  503  0.21508543847E+03 -0.37929853645E+03  0.52948338289E+02  0.43924099549E+03  0.00000000000E+00 0.  1.
         -3    1    6    6    0  502 -0.25293237382E+03  0.83983519926E+01  0.16198356161E+03  0.30047294766E+03  0.00000000000E+00 0.  1.
<mgrwt>
<rscale>  0 0.15396365E+04</rscale>
<asrwt>0</asrwt>
<pdfrwt beam="1">  1        1 0.21582997E+00 0.15396365E+04</pdfrwt>
<pdfrwt beam="2">  1       -1 0.64988713E-01 0.15396365E+04</pdfrwt>
<totfact> 0.17699733E+01</totfact>
</mgrwt>
</event>
<event>
12    1  0.1489233E-007  0.1207257E+04  0.7818608E-02  0.9106528E-01
         -2   -1    0    0    0  501 -0.00000000000E+00  0.00000000000E+00  0.15205526699E+04  0.15205526699E+04  0.00000000000E+00 0.  1.
          2   -1    0    0  501    0  0.00000000000E+00 -0.00000000000E+00 -0.23962809351E+03  0.23962809351E+03  0.00000000000E+00 0. -1.
         23    2    1    2    0    0  0.49379745460E+02 -0.22389067178E+03  0.46261495256E+03  0.52460891305E+03  0.92932906696E+02 0.  0.
        254    2    1    2    0    0 -0.49379745460E+02  0.22389067178E+03  0.81830962385E+03  0.12355718504E+04  0.89690677598E+03 0.  0.
        -24    2    4    4    0    0 -0.28071794909E+03  0.80380755440E+02 -0.63448646541E+02  0.30969398712E+03  0.81369540522E+02 0.  0.
         24    2    4    4    0    0  0.23133820363E+03  0.14350991634E+03  0.88175827039E+03  0.92587786326E+03  0.75098000899E+02 0.  0.
         13    1    3    3    0    0 -0.19591312045E+02 -0.47470088146E+02  0.55677242375E+02  0.75744201723E+02  0.00000000000E+00 0. -1.
        -13    1    3    3    0    0  0.68971057505E+02 -0.17642058364E+03  0.40693771019E+03  0.44886471133E+03  0.00000000000E+00 0.  1.
          2    1    6    6  502    0  0.90721220157E+02  0.84493454436E+02  0.49117812410E+03  0.50658210906E+03  0.00000000000E+00 0. -1.
          1    1    5    5  503    0 -0.54288135279E+02  0.40528481579E+02 -0.39793273782E+02  0.78570122116E+02  0.00000000000E+00 0. -1.
         -2    1    5    5    0  503 -0.22642981381E+03  0.39852273861E+02 -0.23655372759E+02  0.23112386500E+03  0.00000000000E+00 0.  1.
         -1    1    6    6    0  502  0.14061698347E+03  0.59016461906E+02  0.39058014629E+03  0.41929575420E+03  0.00000000000E+00 0.  1.
<mgrwt>
<rscale>  0 0.12072566E+04</rscale>
<asrwt>0</asrwt>
<pdfrwt beam="1">  1        2 0.36865861E-01 0.12072566E+04</pdfrwt>
<pdfrwt beam="2">  1       -2 0.23393117E+00 0.12072566E+04</pdfrwt>
<totfact> 0.11262848E+01</totfact>
</mgrwt>
</event>
<event>
12    1  0.1489233E-007  0.1234964E+04  0.7818608E-02  0.9082791E-01
          1   -1    0    0  501    0  0.00000000000E+00  0.00000000000E+00  0.64786834016E+03  0.64786834016E+03  0.00000000000E+00 0. -1.
         -1   -1    0    0    0  501 -0.00000000000E+00 -0.00000000000E+00 -0.58852073650E+03  0.58852073650E+03  0.00000000000E+00 0.  1.
         23    2    1    2    0    0 -0.20747969625E+03 -0.88494464963E+02 -0.15056509178E+03  0.28824254872E+03  0.97646430264E+02 0.  0.
        254    2    1    2    0    0  0.20747969625E+03  0.88494464963E+02  0.20991269544E+03  0.94814652794E+03  0.89668244326E+03 0.  0.
        -24    2    4    4    0    0  0.49720578131E+03  0.20374445084E+03  0.28988240295E+03  0.61572145965E+03  0.79722757816E+02 0.  0.
         24    2    4    4    0    0 -0.28972608506E+03 -0.11524998588E+03 -0.79969707513E+02  0.33242506830E+03  0.82991013411E+02 0.  0.
         11    1    3    3    0    0 -0.21361749527E+02 -0.51828453256E+02 -0.32201516873E+02  0.64648670510E+02  0.00000000000E+00 0. -1.
        -11    1    3    3    0    0 -0.18611794673E+03 -0.36666011707E+02 -0.11836357491E+03  0.22359387821E+03  0.00000000000E+00 0.  1.
          2    1    6    6  502    0 -0.29346751697E+03 -0.11593970988E+03 -0.72082404907E+02  0.32366815250E+03  0.00000000000E+00 0. -1.
          3    1    5    5  503    0  0.45803206100E+03  0.16541245529E+03  0.27343277383E+03  0.55849810301E+03  0.00000000000E+00 0. -1.
         -4    1    5    5    0  503  0.39173720308E+02  0.38331995553E+02  0.16449629124E+02  0.57223356632E+02  0.00000000000E+00 0.  1.
         -1    1    6    6    0  502  0.37414319133E+01  0.68972400354E+00 -0.78873026061E+01  0.87569158020E+01  0.00000000000E+00 0.  1.
<mgrwt>
<rscale>  0 0.12349639E+04</rscale>
<asrwt>0</asrwt>
<pdfrwt beam="1">  1        1 0.99672052E-01 0.12349639E+04</pdfrwt>
<pdfrwt beam="2">  1       -1 0.90541652E-01 0.12349639E+04</pdfrwt>
<totfact> 0.36036084E+01</totfact>
</mgrwt>
</event>
<event>
12    1  0.1489233E-007  0.1590557E+04  0.7818608E-02  0.8826370E-01
          2   -1    0    0  501    0  0.00000000000E+00  0.00000000000E+00  0.69058722743E+03  0.69058722743E+03  0.00000000000E+00 0.  1.
         -2   -1    0    0    0  501 -0.00000000000E+00 -0.00000000000E+00 -0.91584044135E+03  0.91584044135E+03  0.00000000000E+00 0. -1.
         23    2    1    2    0    0 -0.17388325735E+03 -0.29065235071E+03 -0.50215842678E+03  0.61257795677E+03  0.91512247099E+02 0.  0.
        254    2    1    2    0    0  0.17388325735E+03  0.29065235071E+03  0.27690521286E+03  0.99384971201E+03  0.89238252840E+03 0.  0.
        -24    2    4    4    0    0  0.44827740560E+01  0.47086302818E+03  0.46962480721E+03  0.66992887929E+03  0.80778445083E+02 0.  0.
         24    2    4    4    0    0  0.16940048330E+03 -0.18021067747E+03 -0.19271959435E+03  0.32392083272E+03  0.81310834518E+02 0.  0.
         13    1    3    3    0    0 -0.16867109646E+03 -0.28938861063E+03 -0.45436709783E+03  0.56448663964E+03  0.00000000000E+00 0. -1.
        -13    1    3    3    0    0 -0.52121608969E+01 -0.12637400853E+01 -0.47791328958E+02  0.48091317135E+02  0.00000000000E+00 0.  1.
          4    1    6    6  502    0  0.45573024436E+02 -0.92259543882E+01 -0.17911924211E+02  0.49828263260E+02  0.00000000000E+00 0. -1.
          3    1    5    5  503    0 -0.19223981125E+02  0.27213531152E+02  0.37341346894E+02  0.50045118802E+02  0.00000000000E+00 0. -1.
         -4    1    5    5    0  503  0.23706755180E+02  0.44364949703E+03  0.43228346032E+03  0.61988376049E+03  0.00000000000E+00 0.  1.
         -3    1    6    6    0  502  0.12382745886E+03 -0.17098472308E+03 -0.17480767014E+03  0.27409256946E+03  0.00000000000E+00 0.  1.
<mgrwt>
<rscale>  0 0.15905568E+04</rscale>
<asrwt>0</asrwt>
<pdfrwt beam="1">  1        2 0.10624419E+00 0.15905568E+04</pdfrwt>
<pdfrwt beam="2">  1       -2 0.14089853E+00 0.15905568E+04</pdfrwt>
<totfact> 0.14121885E+01</totfact>
</mgrwt>
</event>
<event>
12    1  0.1489233E-007  0.1401974E+04  0.7818608E-02  0.8952391E-01
          1   -1    0    0  501    0  0.00000000000E+00  0.00000000000E+00  0.53278175355E+03  0.53278175355E+03  0.00000000000E+00 0. -1.
         -1   -1    0    0    0  501 -0.00000000000E+00 -0.00000000000E+00 -0.92229593545E+03  0.92229593545E+03  0.00000000000E+00 0.  1.
         23    2    1    2    0    0  0.34637938257E+03 -0.19228156905E+03 -0.32487413279E+02  0.40774673539E+03  0.90835509227E+02 0.  0.
        254    2    1    2    0    0 -0.34637938257E+03  0.19228156905E+03 -0.35702676863E+03  0.10473309536E+04  0.90137846347E+03 0.  0.
        -24    2    4    4    0    0 -0.20708712432E+03  0.43067704135E+03  0.11231575173E+03  0.49745393456E+03  0.80484768227E+02 0.  0.
         24    2    4    4    0    0 -0.13929225824E+03 -0.23839547230E+03 -0.46934252036E+03  0.54987701904E+03  0.76469603307E+02 0.  0.
         13    1    3    3    0    0  0.62451350624E+01 -0.32030531635E+01 -0.16877036785E+02  0.18278283075E+02  0.00000000000E+00 0. -1.
        -13    1    3    3    0    0  0.34013424750E+03 -0.18907851589E+03 -0.15610376494E+02  0.38946845232E+03  0.00000000000E+00 0.  1.
          2    1    6    6  502    0 -0.15097336035E+01  0.58323113887E+01 -0.83118795618E+01  0.10265597573E+02  0.00000000000E+00 0. -1.
          1    1    5    5  503    0 -0.15475151299E+03  0.23708444616E+03  0.81018586770E+02  0.29448442537E+03  0.00000000000E+00 0. -1.
         -2    1    5    5    0  503 -0.52335611330E+02  0.19359259519E+03  0.31297164965E+02  0.20296950919E+03  0.00000000000E+00 0.  1.
         -3    1    6    6    0  502 -0.13778252464E+03 -0.24422778369E+03 -0.46103064080E+03  0.53961142147E+03  0.00000000000E+00 0.  1.
<mgrwt>
<rscale>  0 0.14019735E+04</rscale>
<asrwt>0</asrwt>
<pdfrwt beam="1">  1        1 0.81966424E-01 0.14019735E+04</pdfrwt>
<pdfrwt beam="2">  1       -1 0.14189168E+00 0.14019735E+04</pdfrwt>
<totfact> 0.16006462E+01</totfact>
</mgrwt>
</event>
<event>
12    1  0.1489233E-007  0.1200562E+04  0.7818608E-02  0.9112365E-01
          1   -1    0    0  501    0  0.00000000000E+00  0.00000000000E+00  0.13030209591E+04  0.13030209591E+04  0.00000000000E+00 0. -1.
         -1   -1    0    0    0  501 -0.00000000000E+00 -0.00000000000E+00 -0.27653995054E+03  0.27653995054E+03  0.00000000000E+00 0.  1.
         23    2    1    2    0    0  0.14176174553E+03 -0.19363006724E+03  0.26451932090E+03  0.36860396594E+03  0.91156004438E+02 0.  0.
        254    2    1    2    0    0 -0.14176174553E+03  0.19363006724E+03  0.76196168769E+03  0.12109569437E+04  0.91007807940E+03 0.  0.
        -24    2    4    4    0    0 -0.27685941410E+01 -0.16625084062E+03 -0.13693960054E+03  0.22945232991E+03  0.79050049864E+02 0.  0.
         24    2    4    4    0    0 -0.13899315139E+03  0.35988090785E+03  0.89890128824E+03  0.98150461382E+03  0.80587945622E+02 0.  0.
         11    1    3    3    0    0  0.15129258025E+03 -0.17386140868E+03  0.25746704159E+03  0.34555247325E+03  0.00000000000E+00 0. -1.
        -11    1    3    3    0    0 -0.95308347162E+01 -0.19768658562E+02  0.70522793026E+01  0.23051492687E+02  0.00000000000E+00 0.  1.
          4    1    6    6  502    0 -0.14799865693E+03  0.34355749612E+03  0.87117571889E+03  0.94809413498E+03  0.00000000000E+00 0. -1.
          1    1    5    5  503    0 -0.34483597990E+02 -0.10791550323E+03 -0.10964915289E+03  0.15766360105E+03  0.00000000000E+00 0. -1.
         -2    1    5    5    0  503  0.31715003849E+02 -0.58335337389E+02 -0.27290447652E+02  0.71788728854E+02  0.00000000000E+00 0.  1.
         -3    1    6    6    0  502  0.90055055440E+01  0.16323411729E+02  0.27725569344E+02  0.33410478836E+02  0.00000000000E+00 0.  1.
<mgrwt>
<rscale>  0 0.12005621E+04</rscale>
<asrwt>0</asrwt>
<pdfrwt beam="1">  1        1 0.20046476E+00 0.12005621E+04</pdfrwt>
<pdfrwt beam="2">  1       -1 0.42544608E-01 0.12005621E+04</pdfrwt>
<totfact> 0.48407861E+01</totfact>
</mgrwt>
</event>
<event>
12    1  0.1489233E-007  0.1448231E+04  0.7818608E-02  0.8919628E-01
          2   -1    0    0  501    0  0.00000000000E+00  0.00000000000E+00  0.18397897280E+04  0.18397897280E+04  0.00000000000E+00 0. -1.
         -2   -1    0    0    0  501 -0.00000000000E+00 -0.00000000000E+00 -0.28500178064E+03  0.28500178064E+03  0.00000000000E+00 0.  1.
         23    2    1    2    0    0  0.14879106670E+03  0.32596001492E+03  0.11446437625E+03  0.38685947690E+03  0.90385001957E+02 0.  0.
        254    2    1    2    0    0 -0.14879106670E+03 -0.32596001492E+03  0.14403235711E+04  0.17379320317E+04  0.90414990164E+03 0.  0.
        -24    2    4    4    0    0  0.10777796185E+03 -0.46944531098E+03  0.13249862713E+04  0.14120665580E+04  0.79676571474E+02 0.  0.
         24    2    4    4    0    0 -0.25656902854E+03  0.14348529606E+03  0.11533729985E+03  0.32586547378E+03  0.80435798454E+02 0.  0.
         13    1    3    3    0    0  0.90356852630E+02  0.17881671925E+03  0.10981154065E+03  0.22846959176E+03  0.00000000000E+00 0. -1.
        -13    1    3    3    0    0  0.58434214067E+02  0.14714329567E+03  0.46528356084E+01  0.15838988514E+03  0.00000000000E+00 0.  1.
          4    1    6    6  502    0 -0.20900081427E+02  0.37416159966E+02  0.34684226350E+02  0.55134181664E+02  0.00000000000E+00 0. -1.
          1    1    5    5  503    0  0.12384444780E+02 -0.22756664865E+03  0.64326282156E+03  0.68244194746E+03  0.00000000000E+00 0. -1.
         -2    1    5    5    0  503  0.95393517066E+02 -0.24187866233E+03  0.68172344969E+03  0.72962461050E+03  0.00000000000E+00 0.  1.
         -3    1    6    6    0  502 -0.23566894712E+03  0.10606913609E+03  0.80653073498E+02  0.27073129212E+03  0.00000000000E+00 0.  1.
<mgrwt>
<rscale>  0 0.14482311E+04</rscale>
<asrwt>0</asrwt>
<pdfrwt beam="1">  1        2 0.28304457E+00 0.14482311E+04</pdfrwt>
<pdfrwt beam="2">  1       -2 0.43846429E-01 0.14482311E+04</pdfrwt>
<totfact> 0.39237441E+01</totfact>
</mgrwt>
</event>
<event>
12    1  0.1489233E-007  0.2676110E+04  0.7818608E-02  0.8342798E-01
         -2   -1    0    0    0  501 -0.00000000000E+00  0.00000000000E+00  0.12020301620E+04  0.12020301620E+04  0.00000000000E+00 0.  1.
          2   -1    0    0  501    0  0.00000000000E+00 -0.00000000000E+00 -0.14894722895E+04  0.14894722895E+04  0.00000000000E+00 0. -1.
         23    2    1    2    0    0 -0.97358788303E+02  0.37272096855E+03  0.97900221022E+03  0.10559302272E+04  0.90242246365E+02 0.  0.
        254    2    1    2    0    0  0.97358788303E+02 -0.37272096855E+03 -0.12664443377E+04  0.16355722242E+04  0.96063290911E+03 0.  0.
        -24    2    4    4    0    0 -0.12894515218E+02 -0.50055452422E+03 -0.18911654800E+03  0.54210557003E+03  0.85978369862E+02 0.  0.
         24    2    4    4    0    0  0.11025330352E+03  0.12783355567E+03 -0.10773277897E+04  0.10934666542E+04  0.80851397394E+02 0.  0.
         11    1    3    3    0    0 -0.43990170415E+02  0.25207596220E+03  0.73919166359E+03  0.78222870143E+03  0.00000000000E+00 0.  1.
        -11    1    3    3    0    0 -0.53368617888E+02  0.12064500636E+03  0.23981054662E+03  0.27370152576E+03  0.00000000000E+00 0. -1.
          4    1    6    6  502    0  0.11637518363E+03  0.12844316434E+03 -0.93016538824E+03  0.94617571271E+03  0.00000000000E+00 0. -1.
          1    1    5    5  503    0 -0.26243090234E+02 -0.42963029296E+03 -0.13245325383E+03  0.45034958961E+03  0.00000000000E+00 0. -1.
         -2    1    5    5    0  503  0.13348575015E+02 -0.70924231262E+02 -0.56663294178E+02  0.91755980416E+02  0.00000000000E+00 0.  1.
         -3    1    6    6    0  502 -0.61218801037E+01 -0.60960867252E+00 -0.14716240149E+03  0.14729094151E+03  0.00000000000E+00 0.  1.
<mgrwt>
<rscale>  0 0.26761096E+04</rscale>
<asrwt>0</asrwt>
<pdfrwt beam="1">  1        2 0.22914958E+00 0.26761096E+04</pdfrwt>
<pdfrwt beam="2">  1       -2 0.18492772E+00 0.26761096E+04</pdfrwt>
<totfact> 0.18977710E+00</totfact>
</mgrwt>
</event>
<event>
12    1  0.1489233E-007  0.1058371E+04  0.7818608E-02  0.9246744E-01
         -1   -1    0    0    0  501 -0.00000000000E+00  0.00000000000E+00  0.31985068217E+03  0.31985068217E+03  0.00000000000E+00 0.  1.
          1   -1    0    0  501    0  0.00000000000E+00 -0.00000000000E+00 -0.87552429790E+03  0.87552429790E+03  0.00000000000E+00 0. -1.
         23    2    1    2    0    0 -0.28721150017E+02 -0.98114276389E+02 -0.12572072916E+02  0.13676418718E+03  0.89972607993E+02 0.  0.
        254    2    1    2    0    0  0.28721150017E+02  0.98114276389E+02 -0.54310154282E+03  0.10586107929E+04  0.90290985670E+03 0.  0.
        -24    2    4    4    0    0 -0.20672874622E+03  0.18526937461E+03  0.14421519347E+03  0.32247898047E+03  0.78314463131E+02 0.  0.
         24    2    4    4    0    0  0.23544989624E+03 -0.87155098221E+02 -0.68731673629E+03  0.73613181242E+03  0.80331092903E+02 0.  0.
         13    1    3    3    0    0 -0.30500987034E+02 -0.36868248720E+02  0.34924149799E+02  0.59239127382E+02  0.00000000000E+00 0.  1.
        -13    1    3    3    0    0  0.17798370174E+01 -0.61246027668E+02 -0.47496222716E+02  0.77525059801E+02  0.00000000000E+00 0. -1.
          2    1    6    6  502    0  0.15015797698E+02  0.13665861296E+02 -0.38721982874E+02  0.43722098568E+02  0.00000000000E+00 0. -1.
          3    1    5    5  503    0 -0.11731620193E+02 -0.37811826910E+01 -0.41447953132E+01  0.13004137153E+02  0.00000000000E+00 0. -1.
         -4    1    5    5    0  503 -0.19499712603E+03  0.18905055730E+03  0.14835998879E+03  0.30947484332E+03  0.00000000000E+00 0.  1.
         -1    1    6    6    0  502  0.22043409854E+03 -0.10082095952E+03 -0.64859475342E+03  0.69240971385E+03  0.00000000000E+00 0.  1.
<mgrwt>
<rscale>  0 0.10583705E+04</rscale>
<asrwt>0</asrwt>
<pdfrwt beam="1">  1        1 0.13469605E+00 0.10583705E+04</pdfrwt>
<pdfrwt beam="2">  1       -1 0.49207797E-01 0.10583705E+04</pdfrwt>
<totfact> 0.78785144E+01</totfact>
</mgrwt>
</event>
<event>
12    1  0.1489233E-007  0.1360646E+04  0.7818608E-02  0.8982808E-01
          2   -1    0    0  501    0  0.00000000000E+00  0.00000000000E+00  0.40489084297E+03  0.40489084297E+03  0.00000000000E+00 0. -1.
         -2   -1    0    0    0  501 -0.00000000000E+00 -0.00000000000E+00 -0.11431221900E+04  0.11431221900E+04  0.00000000000E+00 0.  1.
         23    2    1    2    0    0 -0.20912729091E+03  0.88205102682E+02 -0.54148981127E+03  0.59421635141E+03  0.91473999742E+02 0.  0.
        254    2    1    2    0    0  0.20912729091E+03 -0.88205102682E+02 -0.19674153572E+03  0.95379668153E+03  0.90526599068E+03 0.  0.
        -24    2    4    4    0    0  0.35462036164E+03 -0.84286343669E+01  0.26939360526E+03  0.45269174869E+03  0.80810036611E+02 0.  0.
         24    2    4    4    0    0 -0.14549307073E+03 -0.79776468315E+02 -0.46613514098E+03  0.50110493284E+03  0.79320019759E+02 0.  0.
         11    1    3    3    0    0 -0.12316774567E+03  0.92334852288E+02 -0.28863852475E+03  0.32712110371E+03  0.00000000000E+00 0.  1.
        -11    1    3    3    0    0 -0.85959545239E+02 -0.41297496062E+01 -0.25285128652E+03  0.26709524770E+03  0.00000000000E+00 0. -1.
          4    1    6    6  502    0 -0.90638215481E+02 -0.45471038901E+02 -0.38047841553E+03  0.39375973152E+03  0.00000000000E+00 0. -1.
          3    1    5    5  503    0  0.29045619830E+03  0.12730822524E+02  0.24706781627E+03  0.38153555903E+03  0.00000000000E+00 0. -1.
         -4    1    5    5    0  503  0.64164163337E+02 -0.21159456891E+02  0.22325788988E+02  0.71156189657E+02  0.00000000000E+00 0.  1.
         -3    1    6    6    0  502 -0.54854855247E+02 -0.34305429414E+02 -0.85656725452E+02  0.10734520132E+03  0.00000000000E+00 0.  1.
<mgrwt>
<rscale>  0 0.13606465E+04</rscale>
<asrwt>0</asrwt>
<pdfrwt beam="1">  1        2 0.62290900E-01 0.13606465E+04</pdfrwt>
<pdfrwt beam="2">  1       -2 0.17586495E+00 0.13606465E+04</pdfrwt>
<totfact> 0.14814982E+01</totfact>
</mgrwt>
</event>
<event>
12    1  0.1489233E-007  0.1387253E+04  0.7818608E-02  0.8963097E-01
          2   -1    0    0  501    0  0.00000000000E+00  0.00000000000E+00  0.71174184139E+03  0.71174184139E+03  0.00000000000E+00 0. -1.
         -2   -1    0    0    0  501 -0.00000000000E+00 -0.00000000000E+00 -0.67597252254E+03  0.67597252254E+03  0.00000000000E+00 0.  1.
         23    2    1    2    0    0  0.79754213247E+02  0.29132105222E+03  0.26978106608E+03  0.41490818222E+03  0.90212449553E+02 0.  0.
        254    2    1    2    0    0 -0.79754213247E+02 -0.29132105222E+03 -0.23401174724E+03  0.97280618171E+03  0.89462935305E+03 0.  0.
        -24    2    4    4    0    0  0.35613185453E+03 -0.12751911618E+03  0.93950374854E+02  0.39792373514E+03  0.80159860610E+02 0.  0.
         24    2    4    4    0    0 -0.43588606777E+03 -0.16380193604E+03 -0.32796212209E+03  0.57488244657E+03  0.78121287254E+02 0.  0.
         13    1    3    3    0    0  0.31965444651E+02  0.10063497466E+03  0.41001598977E+02  0.11327099759E+03  0.00000000000E+00 0.  1.
        -13    1    3    3    0    0  0.47788768596E+02  0.19068607757E+03  0.22877946711E+03  0.30163718463E+03  0.00000000000E+00 0. -1.
          2    1    6    6  502    0 -0.36970275739E+02 -0.41876887730E+01 -0.53050192604E+02  0.64797075249E+02  0.00000000000E+00 0. -1.
          1    1    5    5  503    0  0.46150653675E+02 -0.43318867897E+02  0.15569559173E+00  0.63296377398E+02  0.00000000000E+00 0. -1.
         -2    1    5    5    0  503  0.30998120085E+03 -0.84200248286E+02  0.93794679262E+02  0.33462735774E+03  0.00000000000E+00 0.  1.
         -1    1    6    6    0  502 -0.39891579203E+03 -0.15961424727E+03 -0.27491192949E+03  0.51008537132E+03  0.00000000000E+00 0.  1.
<mgrwt>
<rscale>  0 0.13872533E+04</rscale>
<asrwt>0</asrwt>
<pdfrwt beam="1">  1        2 0.10949875E+00 0.13872533E+04</pdfrwt>
<pdfrwt beam="2">  1       -2 0.10399577E+00 0.13872533E+04</pdfrwt>
<totfact> 0.29402419E+01</totfact>
</mgrwt>
</event>
<event>
12    1  0.1489233E-007  0.2007649E+04  0.7818608E-02  0.8603053E-01
         -1   -1    0    0    0  501 -0.00000000000E+00  0.00000000000E+00  0.95135562764E+03  0.95135562764E+03  0.00000000000E+00 0.  1.
          1   -1    0    0  501    0  0.00000000000E+00 -0.00000000000E+00 -0.10591870547E+04  0.10591870547E+04  0.00000000000E+00 0. -1.
         23    2    1    2    0    0  0.30801952828E+03 -0.62002844980E+02 -0.77701489990E+03  0.84352816076E+03  0.95221955088E+02 0.  0.
        254    2    1    2    0    0 -0.30801952828E+03  0.62002844980E+02  0.66918347288E+03  0.11670145216E+04  0.90299279652E+03 0.  0.
        -24    2    4    4    0    0 -0.40051942882E+03  0.84659070520E+02 -0.65405773682E+02  0.42196401844E+03  0.78694005784E+02 0.  0.
         24    2    4    4    0    0  0.92499900539E+02 -0.22656225541E+02  0.73458924656E+03  0.74505050312E+03  0.80058446644E+02 0.  0.
         11    1    3    3    0    0  0.21978862709E+03 -0.63191706789E+01 -0.46135403795E+03  0.51107193315E+03  0.00000000000E+00 0. -1.
        -11    1    3    3    0    0  0.88230901189E+02 -0.55683674301E+02 -0.31566086195E+03  0.33245622761E+03  0.00000000000E+00 0.  1.
          4    1    6    6  502    0  0.66353074755E+02  0.81408690455E+01  0.61910422119E+03  0.62270301185E+03  0.00000000000E+00 0. -1.
          1    1    5    5  503    0 -0.21379440038E+03  0.12478240472E+02 -0.56920752113E+02  0.22159360130E+03  0.00000000000E+00 0. -1.
         -2    1    5    5    0  503 -0.18672502844E+03  0.72180830048E+02 -0.84850215686E+01  0.20037041714E+03  0.00000000000E+00 0.  1.
         -3    1    6    6    0  502  0.26146825784E+02 -0.30797094586E+02  0.11548502537E+03  0.12234749126E+03  0.00000000000E+00 0.  1.
<mgrwt>
<rscale>  0 0.20076489E+04</rscale>
<asrwt>0</asrwt>
<pdfrwt beam="1">  1        1 0.16295186E+00 0.20076489E+04</pdfrwt>
<pdfrwt beam="2">  1       -1 0.14636240E+00 0.20076489E+04</pdfrwt>
<totfact> 0.47047826E+00</totfact>
</mgrwt>
</event>
<event>
12    1  0.1489233E-007  0.1261381E+04  0.7818608E-02  0.9060764E-01
          1   -1    0    0  501    0  0.00000000000E+00  0.00000000000E+00  0.54360694276E+03  0.54360694276E+03  0.00000000000E+00 0. -1.
         -1   -1    0    0    0  501 -0.00000000000E+00 -0.00000000000E+00 -0.73172423712E+03  0.73172423712E+03  0.00000000000E+00 0.  1.
         23    2    1    2    0    0 -0.27611854042E+03  0.78966557892E+02 -0.16821706920E+01  0.30088507669E+03  0.89732012383E+02 0.  0.
        254    2    1    2    0    0  0.27611854042E+03 -0.78966557892E+02 -0.18643512367E+03  0.97444610319E+03  0.91231024715E+03 0.  0.
        -24    2    4    4    0    0 -0.71485717161E+02 -0.36387723202E+03  0.14963504443E+03  0.40766302976E+03  0.79256870847E+02 0.  0.
         24    2    4    4    0    0  0.34760425758E+03  0.28491067412E+03 -0.33607016810E+03  0.56678307342E+03  0.79354157539E+02 0.  0.
         11    1    3    3    0    0 -0.63244582805E+01  0.18780024248E+02 -0.13874093675E+02  0.24190464208E+02  0.00000000000E+00 0.  1.
        -11    1    3    3    0    0 -0.26979408214E+03  0.60186533644E+02  0.12191922983E+02  0.27669461248E+03  0.00000000000E+00 0. -1.
          2    1    6    6  502    0  0.18267760136E+03  0.11208254036E+03 -0.19241636467E+03  0.28802371306E+03  0.00000000000E+00 0. -1.
          3    1    5    5  503    0 -0.38105818991E+02 -0.32557839134E+03  0.12153310365E+03  0.34960497370E+03  0.00000000000E+00 0. -1.
         -4    1    5    5    0  503 -0.33379898169E+02 -0.38298840672E+02  0.28101940774E+02  0.58058056064E+02  0.00000000000E+00 0.  1.
         -1    1    6    6    0  502  0.16492665622E+03  0.17282813376E+03 -0.14365380342E+03  0.27875936036E+03  0.00000000000E+00 0.  1.
<mgrwt>
<rscale>  0 0.12613808E+04</rscale>
<asrwt>0</asrwt>
<pdfrwt beam="1">  1        1 0.83631838E-01 0.12613808E+04</pdfrwt>
<pdfrwt beam="2">  1       -1 0.11257296E+00 0.12613808E+04</pdfrwt>
<totfact> 0.28083489E+01</totfact>
</mgrwt>
</event>
<event>
12    1  0.1489233E-007  0.1885679E+04  0.7818608E-02  0.8662018E-01
          2   -1    0    0  501    0  0.00000000000E+00  0.00000000000E+00  0.90797912589E+03  0.90797912589E+03  0.00000000000E+00 0.  1.
         -2   -1    0    0    0  501 -0.00000000000E+00 -0.00000000000E+00 -0.97903875847E+03  0.97903875847E+03  0.00000000000E+00 0. -1.
         23    2    1    2    0    0 -0.43188293367E+02 -0.14910657453E+02 -0.74749495355E+03  0.75469738212E+03  0.93444510861E+02 0.  0.
        254    2    1    2    0    0  0.43188293367E+02  0.14910657453E+02  0.67643532098E+03  0.11323205022E+04  0.90691643493E+03 0.  0.
        -24    2    4    4    0    0 -0.61248346142E+02  0.18802370963E+03 -0.16039189679E+03  0.26754042140E+03  0.82146462091E+02 0.  0.
         24    2    4    4    0    0  0.10443663951E+03 -0.17311305218E+03  0.83682721777E+03  0.86478008085E+03  0.81790313119E+02 0.  0.
         13    1    3    3    0    0  0.28835515327E+02 -0.82914837126E+01 -0.16233944467E+03  0.16508885771E+03  0.00000000000E+00 0.  1.
        -13    1    3    3    0    0 -0.72023808694E+02 -0.66191737399E+01 -0.58515550888E+03  0.58960852441E+03  0.00000000000E+00 0. -1.
          2    1    6    6  502    0  0.85143650781E+00 -0.21536240440E+02  0.22424521531E+03  0.22527860792E+03  0.00000000000E+00 0. -1.
          3    1    5    5  503    0  0.99639061073E+01  0.41763122309E+02 -0.61626506827E+01  0.43375293352E+02  0.00000000000E+00 0. -1.
         -4    1    5    5    0  503 -0.71212252249E+02  0.14626058732E+03 -0.15422924611E+03  0.22416512804E+03  0.00000000000E+00 0.  1.
         -1    1    6    6    0  502  0.10358520300E+03 -0.15157681174E+03  0.61258200246E+03  0.63950147293E+03  0.00000000000E+00 0.  1.
<mgrwt>
<rscale>  0 0.18856795E+04</rscale>
<asrwt>0</asrwt>
<pdfrwt beam="1">  1        2 0.13968910E+00 0.18856795E+04</pdfrwt>
<pdfrwt beam="2">  1       -2 0.15062135E+00 0.18856795E+04</pdfrwt>
<totfact> 0.80450338E+00</totfact>
</mgrwt>
</event>
<event>
12    1  0.1489233E-007  0.1328824E+04  0.7818608E-02  0.9007015E-01
          1   -1    0    0  501    0  0.00000000000E+00  0.00000000000E+00  0.12219876993E+04  0.12219876993E+04  0.00000000000E+00 0. -1.
         -1   -1    0    0    0  501 -0.00000000000E+00 -0.00000000000E+00 -0.36125007383E+03  0.36125007383E+03  0.00000000000E+00 0.  1.
         23    2    1    2    0    0  0.36062709246E+03  0.45890253313E+01  0.18823564797E+03  0.41705785479E+03  0.91823940796E+02 0.  0.
        254    2    1    2    0    0 -0.36062709246E+03 -0.45890253313E+01  0.67250197745E+03  0.11661799183E+04  0.88184110428E+03 0.  0.
        -24    2    4    4    0    0 -0.29607356063E+03 -0.14218143294E+03  0.85191112912E+03  0.91709248397E+03  0.86202894724E+02 0.  0.
         24    2    4    4    0    0 -0.64553531830E+02  0.13759240760E+03 -0.17940915167E+03  0.24908743432E+03  0.82207524791E+02 0.  0.
         11    1    3    3    0    0  0.25178444379E+03 -0.23885435909E+02  0.16557464516E+03  0.30229271130E+03  0.00000000000E+00 0. -1.
        -11    1    3    3    0    0  0.10884264867E+03  0.28474461240E+02  0.22661002814E+02  0.11476514349E+03  0.00000000000E+00 0.  1.
          4    1    6    6  502    0  0.18932608132E+02  0.40704272005E+02 -0.47373635423E+02  0.65265172514E+02  0.00000000000E+00 0. -1.
          3    1    5    5  503    0 -0.15965510718E+03 -0.29049972571E+02  0.39818184446E+03  0.42997957558E+03  0.00000000000E+00 0. -1.
         -4    1    5    5    0  503 -0.13641845346E+03 -0.11313146036E+03  0.45372928466E+03  0.48711290840E+03  0.00000000000E+00 0.  1.
         -3    1    6    6    0  502 -0.83486139961E+02  0.96888135599E+02 -0.13203551625E+03  0.18382226181E+03  0.00000000000E+00 0.  1.
<mgrwt>
<rscale>  0 0.13288238E+04</rscale>
<asrwt>0</asrwt>
<pdfrwt beam="1">  1        1 0.18799811E+00 0.13288238E+04</pdfrwt>
<pdfrwt beam="2">  1       -1 0.55576935E-01 0.13288238E+04</pdfrwt>
<totfact> 0.33049776E+01</totfact>
</mgrwt>
</event>
<event>
12    1  0.1489233E-007  0.1996746E+04  0.7818608E-02  0.8608143E-01
         -2   -1    0    0    0  501 -0.00000000000E+00  0.00000000000E+00  0.34520606124E+03  0.34520606124E+03  0.00000000000E+00 0.  1.
          2   -1    0    0  501    0  0.00000000000E+00 -0.00000000000E+00 -0.28874028063E+04  0.28874028063E+04  0.00000000000E+00 0. -1.
         23    2    1    2    0    0 -0.39089396075E+03  0.68724482990E+03 -0.10771731931E+04  0.13391872682E+04  0.89537179626E+02 0.  0.
        254    2    1    2    0    0  0.39089396075E+03 -0.68724482990E+03 -0.14650235520E+04  0.18934215994E+04  0.90202427928E+03 0.  0.
        -24    2    4    4    0    0  0.30726575725E+03  0.14965419849E+03 -0.49998743648E+03  0.61081316371E+03  0.79351494131E+02 0.  0.
         24    2    4    4    0    0  0.83628203498E+02 -0.83689902839E+03 -0.96503611554E+03  0.12826084357E+04  0.79975214328E+02 0.  0.
         11    1    3    3    0    0  0.20827227492E+01  0.51055368992E+01 -0.22123763259E+02  0.22800551349E+02  0.00000000000E+00 0.  1.
        -11    1    3    3    0    0 -0.39297668350E+03  0.68213929300E+03 -0.10550494298E+04  0.13163867168E+04  0.00000000000E+00 0. -1.
          4    1    6    6  502    0  0.59031217151E+02 -0.24049638512E+03 -0.29908154847E+03  0.38829495038E+03  0.00000000000E+00 0. -1.
          1    1    5    5  503    0 -0.48981993130E+01  0.42784430191E+01 -0.88407979135E+01  0.10975296758E+02  0.00000000000E+00 0. -1.
         -2    1    5    5    0  503  0.31216395656E+03  0.14537575547E+03 -0.49114663857E+03  0.59983786695E+03  0.00000000000E+00 0.  1.
         -3    1    6    6    0  502  0.24596986347E+02 -0.59640264328E+03 -0.66595456707E+03  0.89431348533E+03  0.00000000000E+00 0.  1.
<mgrwt>
<rscale>  0 0.19967463E+04</rscale>
<asrwt>0</asrwt>
<pdfrwt beam="1">  1        2 0.44421583E+00 0.19967463E+04</pdfrwt>
<pdfrwt beam="2">  1       -2 0.53108623E-01 0.19967463E+04</pdfrwt>
<totfact> 0.63660025E+00</totfact>
</mgrwt>
</event>
<event>
12    1  0.1489233E-007  0.1788479E+04  0.7818608E-02  0.8712450E-01
          2   -1    0    0  501    0  0.00000000000E+00  0.00000000000E+00  0.52549603125E+03  0.52549603125E+03  0.00000000000E+00 0.  1.
         -2   -1    0    0    0  501 -0.00000000000E+00 -0.00000000000E+00 -0.15217322297E+04  0.15217322297E+04  0.00000000000E+00 0. -1.
         23    2    1    2    0    0  0.42708297353E+03 -0.11333121362E+03  0.19763462029E+03  0.49302163014E+03  0.93632549849E+02 0.  0.
        254    2    1    2    0    0 -0.42708297353E+03  0.11333121362E+03 -0.11938708187E+04  0.15542066308E+04  0.89162037278E+03 0.  0.
        -24    2    4    4    0    0  0.25702607404E+03  0.13140724162E+03 -0.44726325281E+03  0.53836203721E+03  0.80367903454E+02 0.  0.
         24    2    4    4    0    0 -0.68410904757E+03 -0.18076028001E+02 -0.74660756589E+03  0.10158445936E+04  0.78647626114E+02 0.  0.
         11    1    3    3    0    0  0.19501451065E+03 -0.97627447685E+02  0.11195176502E+03  0.24514276575E+03  0.00000000000E+00 0.  1.
        -11    1    3    3    0    0  0.23206846288E+03 -0.15703765936E+02  0.85682855262E+02  0.24787886439E+03  0.00000000000E+00 0. -1.
          2    1    6    6  502    0 -0.59326840370E+03 -0.76241610950E+01 -0.60578641277E+03  0.84794027181E+03  0.00000000000E+00 0. -1.
          1    1    5    5  503    0  0.23788105643E+03  0.12940787886E+03 -0.44207723924E+03  0.51842654404E+03  0.00000000000E+00 0. -1.
         -2    1    5    5    0  503  0.19145017614E+02  0.19993627628E+01 -0.51860135710E+01  0.19935493163E+02  0.00000000000E+00 0.  1.
         -1    1    6    6    0  502 -0.90840643865E+02 -0.10451866906E+02 -0.14082115312E+03  0.16790432176E+03  0.00000000000E+00 0.  1.
<mgrwt>
<rscale>  0 0.17884790E+04</rscale>
<asrwt>0</asrwt>
<pdfrwt beam="1">  1        2 0.80845544E-01 0.17884790E+04</pdfrwt>
<pdfrwt beam="2">  1       -2 0.23411265E+00 0.17884790E+04</pdfrwt>
<totfact> 0.44220871E+00</totfact>
</mgrwt>
</event>
<event>
12    1  0.1632702E-007  0.2075273E+04  0.7818608E-02  0.8572215E-01
          2   -1    0    0  501    0  0.00000000000E+00  0.00000000000E+00  0.16146228185E+04  0.16146228185E+04  0.00000000000E+00 0. -1.
         -2   -1    0    0    0  501 -0.00000000000E+00 -0.00000000000E+00 -0.66683671957E+03  0.66683671957E+03  0.00000000000E+00 0.  1.
         23    2    1    2    0    0  0.15829523874E+03  0.10065113464E+03  0.11961313913E+04  0.12143854327E+04  0.93880990928E+02 0.  0.
        254    2    1    2    0    0 -0.15829523874E+03 -0.10065113464E+03 -0.24834529240E+03  0.10670741053E+04  0.10206780729E+04 0.  0.
        -24    2    4    4    0    0  0.27756666260E+03  0.10290137674E+02  0.25580230694E+03  0.38588467903E+03  0.79517458194E+02 0.  0.
         24    2    4    4    0    0 -0.43586190133E+03 -0.11094127232E+03 -0.50414759934E+03  0.68118942628E+03  0.87009594947E+02 0.  0.
         13    1    3    3    0    0  0.12801800398E+03  0.11116840926E+03  0.11015171286E+04  0.11144895734E+04  0.00000000000E+00 0. -1.
        -13    1    3    3    0    0  0.30277234753E+02 -0.10517274618E+02  0.94614262695E+02  0.99895859349E+02  0.00000000000E+00 0.  1.
          2    1    6    6  502    0 -0.27583586627E+03 -0.87870099578E+02 -0.37799320527E+03  0.47611494699E+03  0.00000000000E+00 0. -1.
          3    1    5    5  503    0  0.15489459251E+03  0.21743431493E+02  0.19035819605E+03  0.24637644856E+03  0.00000000000E+00 0. -1.
         -4    1    5    5    0  503  0.12267207009E+03 -0.11453293819E+02  0.65444110884E+02  0.13950823047E+03  0.00000000000E+00 0.  1.
         -1    1    6    6    0  502 -0.16002603506E+03 -0.23071172739E+02 -0.12615439407E+03  0.20507447928E+03  0.00000000000E+00 0.  1.
<mgrwt>
<rscale>  0 0.20752733E+04</rscale>
<asrwt>0</asrwt>
<pdfrwt beam="1">  1        2 0.24840351E+00 0.20752733E+04</pdfrwt>
<pdfrwt beam="2">  1       -2 0.10259027E+00 0.20752733E+04</pdfrwt>
<totfact> 0.78541782E+00</totfact>
</mgrwt>
</event>
<event>
12    1  0.1489233E-007  0.2436416E+04  0.7818608E-02  0.8425995E-01
         -1   -1    0    0    0  501 -0.00000000000E+00  0.00000000000E+00  0.88300726916E+03  0.88300726916E+03  0.00000000000E+00 0.  1.
          1   -1    0    0  501    0  0.00000000000E+00 -0.00000000000E+00 -0.16806546408E+04  0.16806546408E+04  0.00000000000E+00 0. -1.
         23    2    1    2    0    0  0.71586018478E+03  0.69190440373E+03 -0.70080522146E+03  0.12209575979E+04  0.91771397363E+02 0.  0.
        254    2    1    2    0    0 -0.71586018478E+03 -0.69190440373E+03 -0.96842150207E+02  0.13427043121E+04  0.89570584436E+03 0.  0.
        -24    2    4    4    0    0 -0.50275768045E+03  0.88380904374E+02 -0.11898517371E+03  0.52966919699E+03  0.76259538229E+02 0.  0.
         24    2    4    4    0    0 -0.21310250433E+03 -0.78028530810E+03  0.22143023498E+02  0.81303511510E+03  0.79233487324E+02 0.  0.
         11    1    3    3    0    0  0.26492750526E+03  0.19665391473E+03 -0.22402895181E+03  0.39880862136E+03  0.00000000000E+00 0.  1.
        -11    1    3    3    0    0  0.45093267952E+03  0.49525048900E+03 -0.47677626965E+03  0.82214897653E+03  0.00000000000E+00 0. -1.
          2    1    6    6  502    0 -0.11758781514E+03 -0.56411067025E+03  0.83272190745E+01  0.57629600479E+03  0.00000000000E+00 0. -1.
          1    1    5    5  503    0 -0.48322831109E+03  0.68223405617E+02 -0.11092105512E+03  0.50046729581E+03  0.00000000000E+00 0. -1.
         -2    1    5    5    0  503 -0.19529369363E+02  0.20157498757E+02 -0.80641185898E+01  0.29201901179E+02  0.00000000000E+00 0.  1.
         -1    1    6    6    0  502 -0.95514689186E+02 -0.21617463785E+03  0.13815804423E+02  0.23673911032E+03  0.00000000000E+00 0.  1.
<mgrwt>
<rscale>  0 0.24364156E+04</rscale>
<asrwt>0</asrwt>
<pdfrwt beam="1">  1        1 0.25856225E+00 0.24364156E+04</pdfrwt>
<pdfrwt beam="2">  1       -1 0.13584728E+00 0.24364156E+04</pdfrwt>
<totfact> 0.19894582E+00</totfact>
</mgrwt>
</event>
<event>
12    1  0.1489233E-007  0.2218433E+04  0.7818608E-02  0.8510795E-01
         -1   -1    0    0    0  501 -0.00000000000E+00  0.00000000000E+00  0.65689733128E+03  0.65689733128E+03  0.00000000000E+00 0.  1.
          1   -1    0    0  501    0  0.00000000000E+00 -0.00000000000E+00 -0.18729891629E+04  0.18729891629E+04  0.00000000000E+00 0. -1.
         23    2    1    2    0    0  0.70933144588E+03  0.46862332959E+03 -0.89850998331E+03  0.12403293748E+04  0.91311789140E+02 0.  0.
        254    2    1    2    0    0 -0.70933144588E+03 -0.46862332959E+03 -0.31758184835E+03  0.12895571194E+04  0.91615523170E+03 0.  0.
        -24    2    4    4    0    0 -0.66499344245E+03 -0.76543483862E+02 -0.50779552859E+03  0.84374047029E+03  0.77243115701E+02 0.  0.
         24    2    4    4    0    0 -0.44338003432E+02 -0.39207984573E+03  0.19021368024E+03  0.44581664908E+03  0.82938389606E+02 0.  0.
         11    1    3    3    0    0  0.58894623772E+03  0.41689510881E+03 -0.72474416723E+03  0.10226990323E+04  0.00000000000E+00 0. -1.
        -11    1    3    3    0    0  0.12038520816E+03  0.51728220779E+02 -0.17376581609E+03  0.21763034258E+03  0.00000000000E+00 0.  1.
          4    1    6    6  502    0 -0.61293604511E+02 -0.34691554491E+03  0.18317183888E+03  0.39706324913E+03  0.00000000000E+00 0. -1.
          1    1    5    5  503    0 -0.34025095953E+03 -0.14632718864E+01 -0.24472191549E+03  0.41912011709E+03  0.00000000000E+00 0. -1.
         -2    1    5    5    0  503 -0.32474248291E+03 -0.75080211976E+02 -0.26307361310E+03  0.42462035320E+03  0.00000000000E+00 0.  1.
         -3    1    6    6    0  502  0.16955601079E+02 -0.45164300823E+02  0.70418413596E+01  0.48753399948E+02  0.00000000000E+00 0.  1.
<mgrwt>
<rscale>  0 0.22184333E+04</rscale>
<asrwt>0</asrwt>
<pdfrwt beam="1">  1        1 0.28815218E+00 0.22184333E+04</pdfrwt>
<pdfrwt beam="2">  1       -1 0.10106113E+00 0.22184333E+04</pdfrwt>
<totfact> 0.30770648E+00</totfact>
</mgrwt>
</event>
<event>
12    1  0.1489233E-007  0.1649711E+04  0.7818608E-02  0.8790578E-01
         -2   -1    0    0    0  501 -0.00000000000E+00  0.00000000000E+00  0.14448431580E+04  0.14448431580E+04  0.00000000000E+00 0.  1.
          2   -1    0    0  501    0  0.00000000000E+00 -0.00000000000E+00 -0.47090677433E+03  0.47090677433E+03  0.00000000000E+00 0. -1.
         23    2    1    2    0    0  0.47920022168E+03 -0.17023462260E+03  0.66711417752E+02  0.52750293939E+03  0.12327310579E+03 0.  0.
        254    2    1    2    0    0 -0.47920022168E+03  0.17023462260E+03  0.90722496595E+03  0.13882469930E+04  0.91954330810E+03 0.  0.
        -24    2    4    4    0    0 -0.22020907319E+03  0.39215495571E+02 -0.15553181315E+03  0.28356246562E+03  0.78661528076E+02 0.  0.
         24    2    4    4    0    0 -0.25899114850E+03  0.13101912703E+03  0.10627567791E+04  0.11046845274E+04  0.81446343213E+02 0.  0.
         11    1    3    3    0    0  0.48671706630E+03 -0.16842889092E+03  0.68491645802E+02  0.51956991778E+03  0.00000000000E+00 0. -1.
        -11    1    3    3    0    0 -0.75168446141E+01 -0.18057316831E+01 -0.17802280499E+01  0.79330216043E+01  0.00000000000E+00 0.  1.
          4    1    6    6  502    0 -0.43607555862E+02  0.46728941845E+02  0.14939919266E+03  0.16249717444E+03  0.00000000000E+00 0. -1.
          1    1    5    5  503    0 -0.96754123403E+02  0.20886910165E+01 -0.11078171898E+03  0.14709966786E+03  0.00000000000E+00 0. -1.
         -2    1    5    5    0  503 -0.12345494978E+03  0.37126804554E+02 -0.44750094167E+02  0.13646279775E+03  0.00000000000E+00 0.  1.
         -1    1    6    6    0  502 -0.21538359263E+03  0.84290185187E+02  0.91335758644E+03  0.94218735292E+03  0.00000000000E+00 0.  1.
<mgrwt>
<rscale>  0 0.16497108E+04</rscale>
<asrwt>0</asrwt>
<pdfrwt beam="1">  1        2 0.72447197E-01 0.16497108E+04</pdfrwt>
<pdfrwt beam="2">  1       -2 0.22228356E+00 0.16497108E+04</pdfrwt>
<totfact> 0.60245067E+00</totfact>
</mgrwt>
</event>
<event>
12    1  0.1489233E-007  0.1747472E+04  0.7818608E-02  0.8734743E-01
          1   -1    0    0  501    0  0.00000000000E+00  0.00000000000E+00  0.38772975169E+03  0.38772975169E+03  0.00000000000E+00 0. -1.
         -1   -1    0    0    0  501 -0.00000000000E+00 -0.00000000000E+00 -0.19689342611E+04  0.19689342611E+04  0.00000000000E+00 0.  1.
         23    2    1    2    0    0 -0.35045904184E+03 -0.44522387208E+03 -0.98841818383E+03  0.11431407616E+04  0.93565263394E+02 0.  0.
        254    2    1    2    0    0  0.35045904184E+03  0.44522387208E+03 -0.59278632559E+03  0.12135232512E+04  0.89453743187E+03 0.  0.
        -24    2    4    4    0    0  0.41110448735E+03  0.50135091024E+03 -0.76551480298E+03  0.10063065838E+04  0.79248925637E+02 0.  0.
         24    2    4    4    0    0 -0.60645445516E+02 -0.56127038160E+02  0.17272847739E+03  0.20721666740E+03  0.79218090555E+02 0.  0.
         11    1    3    3    0    0 -0.19673755387E+03 -0.25695597864E+03 -0.47083034799E+03  0.57132587605E+03  0.00000000000E+00 0. -1.
        -11    1    3    3    0    0 -0.15372148797E+03 -0.18826789344E+03 -0.51758783584E+03  0.57181488559E+03  0.00000000000E+00 0.  1.
          2    1    6    6  502    0  0.16028895980E+02 -0.39033678476E+01  0.54464495964E+02  0.56908198948E+02  0.00000000000E+00 0. -1.
          3    1    5    5  503    0  0.16086556402E+03  0.25839623117E+03 -0.35284325755E+03  0.46598788221E+03  0.00000000000E+00 0. -1.
         -4    1    5    5    0  503  0.25023892334E+03  0.24295467907E+03 -0.41267154543E+03  0.54031870155E+03  0.00000000000E+00 0.  1.
         -1    1    6    6    0  502 -0.76674341496E+02 -0.52223670312E+02  0.11826398143E+03  0.15030846845E+03  0.00000000000E+00 0.  1.
<mgrwt>
<rscale>  0 0.17474718E+04</rscale>
<asrwt>0</asrwt>
<pdfrwt beam="1">  1        1 0.59650731E-01 0.17474718E+04</pdfrwt>
<pdfrwt beam="2">  1       -1 0.30291297E+00 0.17474718E+04</pdfrwt>
<totfact> 0.18769340E+00</totfact>
</mgrwt>
</event>
<event>
12    1  0.1489233E-007  0.2243842E+04  0.7818608E-02  0.8500399E-01
         -2   -1    0    0    0  501 -0.00000000000E+00  0.00000000000E+00  0.66004535154E+03  0.66004535154E+03  0.00000000000E+00 0.  1.
          2   -1    0    0  501    0  0.00000000000E+00 -0.00000000000E+00 -0.19070004019E+04  0.19070004019E+04  0.00000000000E+00 0. -1.
         23    2    1    2    0    0  0.66357160173E+03 -0.42479993529E+03 -0.11035293445E+04  0.13593209866E+04  0.95886781602E+02 0.  0.
        254    2    1    2    0    0 -0.66357160173E+03  0.42479993529E+03 -0.14342570588E+03  0.12077247668E+04  0.90401655056E+03 0.  0.
        -24    2    4    4    0    0 -0.16235093381E+03  0.21322858516E+02 -0.45359480340E+03  0.48900519175E+03  0.81026797295E+02 0.  0.
         24    2    4    4    0    0 -0.50122066792E+03  0.40347707677E+03  0.31016909753E+03  0.71871957509E+03  0.79605584750E+02 0.  0.
         11    1    3    3    0    0  0.43924699809E+03 -0.22607808291E+03 -0.69030427648E+03  0.84886348668E+03  0.00000000000E+00 0. -1.
        -11    1    3    3    0    0  0.22432460363E+03 -0.19872185238E+03 -0.41322506802E+03  0.51045749994E+03  0.00000000000E+00 0.  1.
          2    1    6    6  502    0 -0.45331119415E+03  0.33371506734E+03  0.28151978352E+03  0.62937284134E+03  0.00000000000E+00 0. -1.
          3    1    5    5  503    0 -0.12441772267E+03  0.51001039369E+02 -0.33974359823E+03  0.36538553374E+03  0.00000000000E+00 0. -1.
         -4    1    5    5    0  503 -0.37933211137E+02 -0.29678180853E+02 -0.11385120518E+03  0.12361965801E+03  0.00000000000E+00 0.  1.
         -1    1    6    6    0  502 -0.47909473769E+02  0.69762009436E+02  0.28649314002E+02  0.89346733741E+02  0.00000000000E+00 0.  1.
<mgrwt>
<rscale>  0 0.22438420E+04</rscale>
<asrwt>0</asrwt>
<pdfrwt beam="1">  1        2 0.29338468E+00 0.22438420E+04</pdfrwt>
<pdfrwt beam="2">  1       -2 0.10154544E+00 0.22438420E+04</pdfrwt>
<totfact> 0.54585076E+00</totfact>
</mgrwt>
</event>
<event>
12    1  0.1489233E-007  0.1356568E+04  0.7818608E-02  0.8985871E-01
          2   -1    0    0  501    0  0.00000000000E+00  0.00000000000E+00  0.17382965315E+04  0.17382965315E+04  0.00000000000E+00 0. -1.
         -2   -1    0    0    0  501 -0.00000000000E+00 -0.00000000000E+00 -0.26466687621E+03  0.26466687621E+03  0.00000000000E+00 0.  1.
         23    2    1    2    0    0  0.14639973277E+03  0.15870734806E+03 -0.34071612289E+02  0.23691918758E+03  0.91372438929E+02 0.  0.
        254    2    1    2    0    0 -0.14639973277E+03 -0.15870734806E+03  0.15077012676E+04  0.17660442202E+04  0.89393969100E+03 0.  0.
        -24    2    4    4    0    0 -0.35731635848E+03 -0.22473758114E+03  0.27298898988E+03  0.50918750370E+03  0.81036812100E+02 0.  0.
         24    2    4    4    0    0  0.21091662571E+03  0.66030233083E+02  0.12347122777E+04  0.12568567165E+04  0.79552386852E+02 0.  0.
         13    1    3    3    0    0  0.11886279766E+03  0.15374794694E+03 -0.55009598416E+02  0.20197240350E+03  0.00000000000E+00 0.  1.
        -13    1    3    3    0    0  0.27536935106E+02  0.49594011177E+01  0.20937986127E+02  0.34946784080E+02  0.00000000000E+00 0. -1.
          4    1    6    6  502    0  0.14614343038E+02 -0.83044889561E+01  0.33923014717E+02  0.37859140069E+02  0.00000000000E+00 0. -1.
          3    1    5    5  503    0 -0.33443817639E+02 -0.52431160505E+02  0.50731315931E+02  0.80256974441E+02  0.00000000000E+00 0. -1.
         -4    1    5    5    0  503 -0.32387254084E+03 -0.17230642064E+03  0.22225767395E+03  0.42893052926E+03  0.00000000000E+00 0.  1.
         -3    1    6    6    0  502  0.19630228268E+03  0.74334722040E+02  0.12007892630E+04  0.12189975764E+04  0.00000000000E+00 0.  1.
<mgrwt>
<rscale>  0 0.13565685E+04</rscale>
<asrwt>0</asrwt>
<pdfrwt beam="1">  1        2 0.26743023E+00 0.13565685E+04</pdfrwt>
<pdfrwt beam="2">  1       -2 0.40717982E-01 0.13565685E+04</pdfrwt>
<totfact> 0.52061779E+01</totfact>
</mgrwt>
</event>
<event>
12    1  0.1489233E-007  0.2506453E+04  0.7818608E-02  0.8400690E-01
         -2   -1    0    0    0  501 -0.00000000000E+00  0.00000000000E+00  0.13106816174E+04  0.13106816174E+04  0.00000000000E+00 0.  1.
          2   -1    0    0  501    0  0.00000000000E+00 -0.00000000000E+00 -0.11982897572E+04  0.11982897572E+04  0.00000000000E+00 0. -1.
         23    2    1    2    0    0  0.71978342821E+02 -0.89881903964E+02  0.11483876414E+04  0.11576733258E+04  0.90297927176E+02 0.  0.
        254    2    1    2    0    0 -0.71978342821E+02  0.89881903964E+02 -0.10359957812E+04  0.13512980489E+04  0.85991832150E+03 0.  0.
        -24    2    4    4    0    0  0.64545956564E+02  0.18138141251E+03  0.77964885333E+02  0.22244830311E+03  0.79619890099E+02 0.  0.
         24    2    4    4    0    0 -0.13652429939E+03 -0.91499508546E+02 -0.11139606666E+04  0.11288497458E+04  0.79889532838E+02 0.  0.
         11    1    3    3    0    0 -0.31455449823E+01 -0.59375211513E+02  0.65218567180E+03  0.65489041884E+03  0.00000000000E+00 0.  1.
        -11    1    3    3    0    0  0.75123887803E+02 -0.30506692451E+02  0.49620196965E+03  0.50278290692E+03  0.00000000000E+00 0. -1.
          4    1    6    6  502    0 -0.10066565980E+03 -0.10208901940E+03 -0.94395904145E+03  0.95478500977E+03  0.00000000000E+00 0. -1.
          1    1    5    5  503    0  0.11558455197E+02  0.13531053138E+03  0.35409635589E+02  0.14034379245E+03  0.00000000000E+00 0. -1.
         -2    1    5    5    0  503  0.52987501367E+02  0.46070881135E+02  0.42555249744E+02  0.82104510659E+02  0.00000000000E+00 0.  1.
         -3    1    6    6    0  502 -0.35858639586E+02  0.10589510855E+02 -0.17000162512E+03  0.17406473600E+03  0.00000000000E+00 0.  1.
<mgrwt>
<rscale>  0 0.25064528E+04</rscale>
<asrwt>0</asrwt>
<pdfrwt beam="1">  1        2 0.18435227E+00 0.25064528E+04</pdfrwt>
<pdfrwt beam="2">  1       -2 0.20164333E+00 0.25064528E+04</pdfrwt>
<totfact> 0.21956137E+00</totfact>
</mgrwt>
</event>
<event>
12    1  0.1489233E-007  0.2269247E+04  0.7818608E-02  0.8490146E-01
          1   -1    0    0  501    0  0.00000000000E+00  0.00000000000E+00  0.68700115246E+03  0.68700115246E+03  0.00000000000E+00 0. -1.
         -1   -1    0    0    0  501 -0.00000000000E+00 -0.00000000000E+00 -0.18738979079E+04  0.18738979079E+04  0.00000000000E+00 0.  1.
         23    2    1    2    0    0 -0.81880680661E+00  0.40358675801E+02  0.57354740059E+03  0.58204056500E+03  0.90471572487E+02 0.  0.
        254    2    1    2    0    0  0.81880680661E+00 -0.40358675801E+02 -0.17604441560E+04  0.19788584953E+04  0.90282214470E+03 0.  0.
        -24    2    4    4    0    0 -0.16224573888E+03  0.22271097182E+03 -0.12761988163E+03  0.31506552933E+03  0.83997600130E+02 0.  0.
         24    2    4    4    0    0  0.16306454569E+03 -0.26306964762E+03 -0.16328242744E+04  0.16637929660E+04  0.79348832125E+02 0.  0.
         13    1    3    3    0    0 -0.11940139515E+02  0.99604039926E+00  0.67164835950E+01  0.13735726410E+02  0.00000000000E+00 0.  1.
        -13    1    3    3    0    0  0.11121332709E+02  0.39362635402E+02  0.56683091700E+03  0.56830483859E+03  0.00000000000E+00 0. -1.
          2    1    6    6  502    0  0.10014024179E+03 -0.16155638850E+03 -0.11927358922E+04  0.12077861744E+04  0.00000000000E+00 0. -1.
          1    1    5    5  503    0 -0.49415370434E+02  0.79088582072E+02 -0.17894771552E+01  0.93274245522E+02  0.00000000000E+00 0. -1.
         -2    1    5    5    0  503 -0.11283036845E+03  0.14362238975E+03 -0.12583040447E+03  0.22179128380E+03  0.00000000000E+00 0.  1.
         -1    1    6    6    0  502  0.62924303899E+02 -0.10151325912E+03 -0.44008838221E+03  0.45600679156E+03  0.00000000000E+00 0.  1.
<mgrwt>
<rscale>  0 0.22692466E+04</rscale>
<asrwt>0</asrwt>
<pdfrwt beam="1">  1        1 0.10569249E+00 0.22692466E+04</pdfrwt>
<pdfrwt beam="2">  1       -1 0.28829198E+00 0.22692466E+04</pdfrwt>
<totfact> 0.99931027E-01</totfact>
</mgrwt>
</event>
<event>
12    1  0.1489233E-007  0.2601968E+04  0.7818608E-02  0.8367533E-01
         -2   -1    0    0    0  501 -0.00000000000E+00  0.00000000000E+00  0.13542291314E+04  0.13542291314E+04  0.00000000000E+00 0.  1.
          2   -1    0    0  501    0  0.00000000000E+00 -0.00000000000E+00 -0.12498319852E+04  0.12498319852E+04  0.00000000000E+00 0. -1.
         23    2    1    2    0    0 -0.61682779353E+03 -0.50844390511E+03 -0.77695209995E+03  0.11183407087E+04  0.89664060055E+02 0.  0.
        254    2    1    2    0    0  0.61682779353E+03  0.50844390511E+03  0.88134924611E+03  0.14857204079E+04  0.88971731764E+03 0.  0.
        -24    2    4    4    0    0 -0.55610734423E+02 -0.99605877502E+02 -0.84498173419E+02  0.15866046637E+03  0.70847142933E+02 0.  0.
         24    2    4    4    0    0  0.67243852795E+03  0.60804978262E+03  0.96584741953E+03  0.13270599415E+04  0.79553369415E+02 0.  0.
         11    1    3    3    0    0 -0.46128443388E+03 -0.42626567037E+03 -0.59245558957E+03  0.86341726661E+03  0.00000000000E+00 0. -1.
        -11    1    3    3    0    0 -0.15554335965E+03 -0.82178234743E+02 -0.18449651038E+03  0.25492344212E+03  0.00000000000E+00 0.  1.
          2    1    6    6  502    0  0.36451418805E+03  0.34109168326E+03  0.47504022776E+03  0.68911345051E+03  0.00000000000E+00 0. -1.
          3    1    5    5  503    0 -0.47374022595E+02 -0.27402268857E+02 -0.12038145049E+02  0.56036588864E+02  0.00000000000E+00 0. -1.
         -4    1    5    5    0  503 -0.82367118285E+01 -0.72203608646E+02 -0.72460028370E+02  0.10262387751E+03  0.00000000000E+00 0.  1.
         -3    1    6    6    0  502  0.30792433991E+03  0.26695809936E+03  0.49080719177E+03  0.63794649103E+03  0.00000000000E+00 0.  1.
<mgrwt>
<rscale>  0 0.26019676E+04</rscale>
<asrwt>0</asrwt>
<pdfrwt beam="1">  1        2 0.19228184E+00 0.26019676E+04</pdfrwt>
<pdfrwt beam="2">  1       -2 0.20834294E+00 0.26019676E+04</pdfrwt>
<totfact> 0.18363267E+00</totfact>
</mgrwt>
</event>
<event>
12    1  0.1489233E-007  0.1790147E+04  0.7818608E-02  0.8711557E-01
          1   -1    0    0  501    0  0.00000000000E+00  0.00000000000E+00  0.32815107724E+04  0.32815107724E+04  0.00000000000E+00 0. -1.
         -1   -1    0    0    0  501 -0.00000000000E+00 -0.00000000000E+00 -0.24414255317E+03  0.24414255317E+03  0.00000000000E+00 0.  1.
         23    2    1    2    0    0  0.56899180161E+03  0.29551378440E+03  0.13384533148E+04  0.14871346282E+04  0.95037148197E+02 0.  0.
        254    2    1    2    0    0 -0.56899180161E+03 -0.29551378440E+03  0.16989149044E+04  0.20385186973E+04  0.92637279740E+03 0.  0.
        -24    2    4    4    0    0 -0.26559827293E+03 -0.48484837282E+03  0.39489822910E+03  0.68391994603E+03  0.78622477800E+02 0.  0.
         24    2    4    4    0    0 -0.30339352868E+03  0.18933458842E+03  0.13040166753E+04  0.13545987513E+04  0.81136106970E+02 0.  0.
         11    1    3    3    0    0  0.47477858846E+03  0.27550209128E+03  0.10839478410E+04  0.12150140050E+04  0.00000000000E+00 0.  1.
        -11    1    3    3    0    0  0.94213213151E+02  0.20011693117E+02  0.25450547375E+03  0.27212062318E+03  0.00000000000E+00 0. -1.
          4    1    6    6  502    0 -0.72349437251E+02  0.10453615109E+02  0.31160669769E+03  0.32006632623E+03  0.00000000000E+00 0. -1.
          1    1    5    5  503    0 -0.19596345036E+03 -0.32925951641E+03  0.23078450549E+03  0.44729743012E+03  0.00000000000E+00 0. -1.
         -2    1    5    5    0  503 -0.69634822569E+02 -0.15558885641E+03  0.16411372361E+03  0.23662251590E+03  0.00000000000E+00 0.  1.
         -3    1    6    6    0  502 -0.23104409143E+03  0.17888097331E+03  0.99240997763E+03  0.10345324251E+04  0.00000000000E+00 0.  1.
<mgrwt>
<rscale>  0 0.17901468E+04</rscale>
<asrwt>0</asrwt>
<pdfrwt beam="1">  1        1 0.50484778E+00 0.17901468E+04</pdfrwt>
<pdfrwt beam="2">  1       -1 0.37560395E-01 0.17901468E+04</pdfrwt>
<totfact> 0.23918896E+00</totfact>
</mgrwt>
</event>
<event>
12    1  0.1489233E-007  0.1908728E+04  0.7818608E-02  0.8650524E-01
         -2   -1    0    0    0  501 -0.00000000000E+00  0.00000000000E+00  0.76189937133E+03  0.76189937133E+03  0.00000000000E+00 0.  1.
          2   -1    0    0  501    0  0.00000000000E+00 -0.00000000000E+00 -0.11954474647E+04  0.11954474647E+04  0.00000000000E+00 0. -1.
         23    2    1    2    0    0  0.20768801791E+03 -0.66332913507E+03 -0.43346943499E+03  0.82398637062E+03  0.88982771807E+02 0.  0.
        254    2    1    2    0    0 -0.20768801791E+03  0.66332913507E+03 -0.78658414897E-01  0.11333604654E+04  0.89519052957E+03 0.  0.
        -24    2    4    4    0    0  0.15418208194E+03  0.67259301071E+03 -0.18671229670E+03  0.71918747439E+03  0.78839515024E+02 0.  0.
         24    2    4    4    0    0 -0.36187009985E+03 -0.92638756409E+01  0.18663363828E+03  0.41417299106E+03  0.75308452552E+02 0.  0.
         13    1    3    3    0    0  0.24958147557E+01 -0.11756253933E+03 -0.78016468398E+02  0.14111608372E+03  0.00000000000E+00 0. -1.
        -13    1    3    3    0    0  0.20519220316E+03 -0.54576659574E+03 -0.35545296659E+03  0.68287028689E+03  0.00000000000E+00 0.  1.
          4    1    6    6  502    0 -0.35680459171E+03 -0.65197944399E+01  0.19289825658E+03  0.40566212761E+03  0.00000000000E+00 0. -1.
          1    1    5    5  503    0  0.12834659651E+03  0.62203789850E+03 -0.18805953181E+03  0.66239745132E+03  0.00000000000E+00 0. -1.
         -2    1    5    5    0  503  0.25835485430E+02  0.50555112205E+02  0.13472351080E+01  0.56790023067E+02  0.00000000000E+00 0.  1.
         -3    1    6    6    0  502 -0.50655081422E+01 -0.27440812010E+01 -0.62646182917E+01  0.85108634531E+01  0.00000000000E+00 0.  1.
<mgrwt>
<rscale>  0 0.19087280E+04</rscale>
<asrwt>0</asrwt>
<pdfrwt beam="1">  1        2 0.18391499E+00 0.19087280E+04</pdfrwt>
<pdfrwt beam="2">  1       -2 0.11721529E+00 0.19087280E+04</pdfrwt>
<totfact> 0.10040031E+01</totfact>
</mgrwt>
</event>
<event>
12    1  0.1489233E-007  0.3454732E+04  0.7818608E-02  0.8124602E-01
         -1   -1    0    0    0  501 -0.00000000000E+00  0.00000000000E+00  0.26340022804E+04  0.26340022804E+04  0.00000000000E+00 0.  1.
          1   -1    0    0  501    0  0.00000000000E+00 -0.00000000000E+00 -0.11327984458E+04  0.11327984458E+04  0.00000000000E+00 0. -1.
         23    2    1    2    0    0 -0.55833699481E+03  0.14180064187E+04  0.12601807117E+04  0.19796368222E+04  0.91782997529E+02 0.  0.
        254    2    1    2    0    0  0.55833699481E+03 -0.14180064187E+04  0.24102312290E+03  0.17871639039E+04  0.90187597287E+03 0.  0.
        -24    2    4    4    0    0  0.45789651893E+03 -0.38732554702E+03 -0.22863672232E+03  0.64730773053E+03  0.83918089733E+02 0.  0.
         24    2    4    4    0    0  0.10044047587E+03 -0.10306808717E+04  0.46965984522E+03  0.11398561734E+04  0.79374916392E+02 0.  0.
         11    1    3    3    0    0 -0.55075003702E+03  0.14107819602E+04  0.12582906787E+04  0.19689913090E+04  0.00000000000E+00 0.  1.
        -11    1    3    3    0    0 -0.75869577879E+01  0.72244584647E+01  0.18900329749E+01  0.10645513291E+02  0.00000000000E+00 0. -1.
          4    1    6    6  502    0  0.46239404717E+02 -0.18449534781E+03  0.99591570107E+02  0.21469768687E+03  0.00000000000E+00 0. -1.
          3    1    5    5  503    0  0.82314083976E+02 -0.87484026954E+02 -0.79745287324E+02  0.14418174033E+03  0.00000000000E+00 0. -1.
         -4    1    5    5    0  503  0.37558243495E+03 -0.29984152006E+03 -0.14889143500E+03  0.50312599020E+03  0.00000000000E+00 0.  1.
         -3    1    6    6    0  502  0.54201071158E+02 -0.84618552386E+03  0.37006827511E+03  0.92515848650E+03  0.00000000000E+00 0.  1.
<mgrwt>
<rscale>  0 0.34547322E+04</rscale>
<asrwt>0</asrwt>
<pdfrwt beam="1">  1        1 0.17427669E+00 0.34547322E+04</pdfrwt>
<pdfrwt beam="2">  1       -1 0.40523112E+00 0.34547322E+04</pdfrwt>
<totfact> 0.64572232E-02</totfact>
</mgrwt>
</event>
<event>
12    1  0.1489233E-007  0.1775050E+04  0.7818608E-02  0.8719681E-01
         -1   -1    0    0    0  501 -0.00000000000E+00  0.00000000000E+00  0.12320654430E+04  0.12320654430E+04  0.00000000000E+00 0.  1.
          1   -1    0    0  501    0  0.00000000000E+00 -0.00000000000E+00 -0.63933344417E+03  0.63933344417E+03  0.00000000000E+00 0. -1.
         23    2    1    2    0    0  0.29598783885E+03  0.34198053317E+03 -0.25417774602E+03  0.52667731360E+03  0.90681752701E+02 0.  0.
        254    2    1    2    0    0 -0.29598783885E+03 -0.34198053317E+03  0.84690974485E+03  0.13447215736E+04  0.94152031771E+03 0.  0.
        -24    2    4    4    0    0 -0.23427845897E+02 -0.77888353945E+02 -0.19831123589E+03  0.22980667302E+03  0.82875213660E+02 0.  0.
         24    2    4    4    0    0 -0.27255999295E+03 -0.26409217923E+03  0.10452209807E+04  0.11149149005E+04  0.80713741033E+02 0.  0.
         11    1    3    3    0    0 -0.67574586512E+01  0.62164013398E+01 -0.47474985036E+01  0.10336616230E+02  0.00000000000E+00 0.  1.
        -11    1    3    3    0    0  0.30274529750E+03  0.33576413183E+03 -0.24943024752E+03  0.51634069737E+03  0.00000000000E+00 0. -1.
          4    1    6    6  502    0 -0.10253771054E+03 -0.68747070887E+02  0.43097587608E+03  0.44830831756E+03  0.00000000000E+00 0. -1.
          1    1    5    5  503    0 -0.42387922249E+02 -0.75933535861E+02 -0.11408382362E+03  0.14344949157E+03  0.00000000000E+00 0. -1.
         -2    1    5    5    0  503  0.18960076353E+02 -0.19548180838E+01 -0.84227412272E+02  0.86357181445E+02  0.00000000000E+00 0.  1.
         -3    1    6    6    0  502 -0.17002228241E+03 -0.19534510834E+03  0.61424510466E+03  0.66660658298E+03  0.00000000000E+00 0.  1.
<mgrwt>
<rscale>  0 0.17750500E+04</rscale>
<asrwt>0</asrwt>
<pdfrwt beam="1">  1        1 0.98358992E-01 0.17750500E+04</pdfrwt>
<pdfrwt beam="2">  1       -1 0.18954853E+00 0.17750500E+04</pdfrwt>
<totfact> 0.52526021E+00</totfact>
</mgrwt>
</event>
<event>
12    1  0.1489233E-007  0.1048732E+04  0.7818608E-02  0.9256654E-01
         -1   -1    0    0    0  501 -0.00000000000E+00  0.00000000000E+00  0.18431595512E+03  0.18431595512E+03  0.00000000000E+00 0.  1.
          1   -1    0    0  501    0  0.00000000000E+00 -0.00000000000E+00 -0.14917852953E+04  0.14917852953E+04  0.00000000000E+00 0. -1.
         23    2    1    2    0    0 -0.30774764048E+02  0.10619219573E+03 -0.17010229912E+03  0.22265619279E+03  0.91744860829E+02 0.  0.
        254    2    1    2    0    0  0.30774764048E+02 -0.10619219573E+03 -0.11373670410E+04  0.14534450576E+04  0.89815081188E+03 0.  0.
        -24    2    4    4    0    0  0.20432520867E+03  0.21585065416E+03 -0.10131947107E+04  0.10589540357E+04  0.80497405451E+02 0.  0.
         24    2    4    4    0    0 -0.17355044462E+03 -0.32204284989E+03 -0.12417233037E+03  0.39449102186E+03  0.79831351628E+02 0.  0.
         13    1    3    3    0    0 -0.32500323468E+02  0.80438571330E+02 -0.17596311436E+03  0.19618779880E+03  0.00000000000E+00 0. -1.
        -13    1    3    3    0    0  0.17255594207E+01  0.25753624404E+02  0.58608152447E+01  0.26468393994E+02  0.00000000000E+00 0.  1.
          2    1    6    6  502    0 -0.37192397629E+02 -0.51725372364E+02 -0.54443886791E+02  0.83802896111E+02  0.00000000000E+00 0. -1.
          3    1    5    5  503    0  0.18453001992E+02  0.63737395621E+02 -0.26343871092E+03  0.27166693449E+03  0.00000000000E+00 0. -1.
         -4    1    5    5    0  503  0.18587220668E+03  0.15211325854E+03 -0.74975599973E+03  0.78728710124E+03  0.00000000000E+00 0.  1.
         -3    1    6    6    0  502 -0.13635804699E+03 -0.27031747753E+03 -0.69728443577E+02  0.31068812575E+03  0.00000000000E+00 0.  1.
<mgrwt>
<rscale>  0 0.10487322E+04</rscale>
<asrwt>0</asrwt>
<pdfrwt beam="1">  1        1 0.22950543E+00 0.10487322E+04</pdfrwt>
<pdfrwt beam="2">  1       -1 0.28356301E-01 0.10487322E+04</pdfrwt>
<totfact> 0.74609874E+01</totfact>
</mgrwt>
</event>
<event>
12    1  0.1489233E-007  0.1941925E+04  0.7818608E-02  0.8634264E-01
          1   -1    0    0  501    0  0.00000000000E+00  0.00000000000E+00  0.23952572961E+04  0.23952572961E+04  0.00000000000E+00 0. -1.
         -1   -1    0    0    0  501 -0.00000000000E+00 -0.00000000000E+00 -0.39359798374E+03  0.39359798374E+03  0.00000000000E+00 0.  1.
         23    2    1    2    0    0  0.12763868637E+02  0.24278186068E+03 -0.24496412872E+03  0.35743374592E+03  0.92981235470E+02 0.  0.
        254    2    1    2    0    0 -0.12763868637E+02 -0.24278186068E+03  0.22466234410E+04  0.24314215339E+04  0.89743403178E+03 0.  0.
        -24    2    4    4    0    0 -0.34751866593E+03  0.52448438779E+02  0.16099948271E+04  0.16495756447E+04  0.74137724823E+02 0.  0.
         24    2    4    4    0    0  0.33475479730E+03 -0.29523029946E+03  0.63662861388E+03  0.78184588917E+03  0.82251433882E+02 0.  0.
         13    1    3    3    0    0 -0.22677188558E+01  0.20592793711E+03 -0.15093844149E+03  0.25533090480E+03  0.00000000000E+00 0.  1.
        -13    1    3    3    0    0  0.15031587492E+02  0.36853923571E+02 -0.94025687233E+02  0.10210284112E+03  0.00000000000E+00 0. -1.
          2    1    6    6  502    0  0.69227163799E+02 -0.10781047829E+03  0.20035616359E+03  0.23781945195E+03  0.00000000000E+00 0. -1.
          1    1    5    5  503    0 -0.20572362529E+03  0.52629929931E+02  0.82583893331E+03  0.85270279892E+03  0.00000000000E+00 0. -1.
         -2    1    5    5    0  503 -0.14179504065E+03 -0.18149115128E+00  0.78415589384E+03  0.79687284578E+03  0.00000000000E+00 0.  1.
         -1    1    6    6    0  502  0.26552763350E+03 -0.18741982117E+03  0.43627245028E+03  0.54402643722E+03  0.00000000000E+00 0.  1.
<mgrwt>
<rscale>  0 0.19419253E+04</rscale>
<asrwt>0</asrwt>
<pdfrwt beam="1">  1        1 0.36850111E+00 0.19419253E+04</pdfrwt>
<pdfrwt beam="2">  1       -1 0.60553537E-01 0.19419253E+04</pdfrwt>
<totfact> 0.41289701E+00</totfact>
</mgrwt>
</event>
<event>
12    1  0.1489233E-007  0.2014610E+04  0.7818608E-02  0.8599820E-01
          1   -1    0    0  501    0  0.00000000000E+00  0.00000000000E+00  0.14619114947E+04  0.14619114947E+04  0.00000000000E+00 0. -1.
         -1   -1    0    0    0  501 -0.00000000000E+00 -0.00000000000E+00 -0.69406601327E+03  0.69406601327E+03  0.00000000000E+00 0.  1.
         23    2    1    2    0    0 -0.73501753689E+03 -0.17086435185E+03  0.60096839845E+03  0.96902988631E+03  0.91708769272E+02 0.  0.
        254    2    1    2    0    0  0.73501753689E+03  0.17086435185E+03  0.16687708294E+03  0.11869476216E+04  0.90086141521E+03 0.  0.
        -24    2    4    4    0    0  0.81534278177E+03 -0.12651131856E+03  0.71534799900E+01  0.82943120722E+03  0.84356325947E+02 0.  0.
         24    2    4    4    0    0 -0.80325244888E+02  0.29737567041E+03  0.15972360295E+03  0.35751641440E+03  0.86150582758E+02 0.  0.
         11    1    3    3    0    0 -0.64209183470E+03 -0.17281721306E+03  0.55060701465E+03  0.86331674252E+03  0.00000000000E+00 0. -1.
        -11    1    3    3    0    0 -0.92925702182E+02  0.19528612046E+01  0.50361383798E+02  0.10571314379E+03  0.00000000000E+00 0.  1.
          4    1    6    6  502    0  0.18405679220E+02  0.36751160273E+02  0.18379830473E+02  0.45024826232E+02  0.00000000000E+00 0. -1.
          1    1    5    5  503    0  0.10994356322E+03 -0.43840349744E+02  0.13873546796E+02  0.11917230660E+03  0.00000000000E+00 0. -1.
         -2    1    5    5    0  503  0.70539921855E+03 -0.82670968815E+02 -0.67200668055E+01  0.71025890063E+03  0.00000000000E+00 0.  1.
         -3    1    6    6    0  502 -0.98730924109E+02  0.26062451014E+03  0.14134377248E+03  0.31249158817E+03  0.00000000000E+00 0.  1.
<mgrwt>
<rscale>  0 0.20146097E+04</rscale>
<asrwt>0</asrwt>
<pdfrwt beam="1">  1        1 0.22490946E+00 0.20146097E+04</pdfrwt>
<pdfrwt beam="2">  1       -1 0.10677939E+00 0.20146097E+04</pdfrwt>
<totfact> 0.52729446E+00</totfact>
</mgrwt>
</event>
<event>
12    1  0.1489233E-007  0.1602691E+04  0.7818608E-02  0.8818897E-01
          1   -1    0    0  501    0  0.00000000000E+00  0.00000000000E+00  0.60965167999E+03  0.60965167999E+03  0.00000000000E+00 0. -1.
         -1   -1    0    0    0  501 -0.00000000000E+00 -0.00000000000E+00 -0.10533137640E+04  0.10533137640E+04  0.00000000000E+00 0.  1.
         23    2    1    2    0    0  0.33291832861E+03 -0.30476890534E+03 -0.40940262649E+03  0.61519388208E+03  0.84464802040E+02 0.  0.
        254    2    1    2    0    0 -0.33291832861E+03  0.30476890534E+03 -0.34259457494E+02  0.10477715619E+04  0.94495123487E+03 0.  0.
        -24    2    4    4    0    0 -0.51923998991E+01  0.48653946400E+03 -0.30439672707E+03  0.57939762309E+03  0.79351289514E+02 0.  0.
         24    2    4    4    0    0 -0.32772592871E+03 -0.18177055866E+03  0.27013726958E+03  0.46837393879E+03  0.77169824298E+02 0.  0.
         11    1    3    3    0    0  0.15180297525E+03 -0.17452699866E+03 -0.16399618184E+03  0.28354640575E+03  0.00000000000E+00 0. -1.
        -11    1    3    3    0    0  0.18111535336E+03 -0.13024190668E+03 -0.24540644465E+03  0.33164747633E+03  0.00000000000E+00 0.  1.
          4    1    6    6  502    0 -0.25782124910E+03 -0.16273078050E+03  0.24680838422E+03  0.39225945741E+03  0.00000000000E+00 0. -1.
          1    1    5    5  503    0 -0.15580555647E+02  0.40885651798E+03 -0.22128131649E+03  0.46515785174E+03  0.00000000000E+00 0. -1.
         -2    1    5    5    0  503  0.10388155748E+02  0.77682946018E+02 -0.83115410583E+02  0.11423977135E+03  0.00000000000E+00 0.  1.
         -3    1    6    6    0  502 -0.69904679610E+02 -0.19039778153E+02  0.23328885362E+02  0.76114481380E+02  0.00000000000E+00 0.  1.
<mgrwt>
<rscale>  0 0.16026909E+04</rscale>
<asrwt>0</asrwt>
<pdfrwt beam="1">  1        1 0.93792567E-01 0.16026909E+04</pdfrwt>
<pdfrwt beam="2">  1       -1 0.16204827E+00 0.16026909E+04</pdfrwt>
<totfact> 0.90529040E+00</totfact>
</mgrwt>
</event>
<event>
12    1  0.1489233E-007  0.1181801E+04  0.7818608E-02  0.9128937E-01
          1   -1    0    0  501    0  0.00000000000E+00  0.00000000000E+00  0.89170825235E+03  0.89170825235E+03  0.00000000000E+00 0. -1.
         -1   -1    0    0    0  501 -0.00000000000E+00 -0.00000000000E+00 -0.39156704108E+03  0.39156704108E+03  0.00000000000E+00 0.  1.
         23    2    1    2    0    0  0.14266510384E+03 -0.16316213301E+03  0.51354971485E+01  0.23522003182E+03  0.91251720740E+02 0.  0.
        254    2    1    2    0    0 -0.14266510384E+03  0.16316213301E+03  0.49500571411E+03  0.10480552616E+04  0.89800554613E+03 0.  0.
        -24    2    4    4    0    0 -0.22591092534E+03  0.50689657014E+03  0.31030589886E+03  0.64044490033E+03  0.76811721064E+02 0.  0.
         24    2    4    4    0    0  0.83245821502E+02 -0.34373443713E+03  0.18469981526E+03  0.40761036128E+03  0.83360391044E+02 0.  0.
         13    1    3    3    0    0  0.83947439560E+02 -0.70944404384E+02  0.45122302383E+02  0.11881205029E+03  0.00000000000E+00 0.  1.
        -13    1    3    3    0    0  0.58717664277E+02 -0.92217728621E+02 -0.39986805235E+02  0.11640798153E+03  0.00000000000E+00 0. -1.
          2    1    6    6  502    0  0.46619382559E+02 -0.64549146217E+02  0.22877647483E+02  0.82845312854E+02  0.00000000000E+00 0. -1.
          3    1    5    5  503    0 -0.81362733616E+02  0.11391736816E+03  0.98755902538E+02  0.17131780257E+03  0.00000000000E+00 0. -1.
         -4    1    5    5    0  503 -0.14454819172E+03  0.39297920198E+03  0.21154999632E+03  0.46912709777E+03  0.00000000000E+00 0.  1.
         -1    1    6    6    0  502  0.36626438943E+02 -0.27918529092E+03  0.16182216778E+03  0.32476504842E+03  0.00000000000E+00 0.  1.
<mgrwt>
<rscale>  0 0.11818013E+04</rscale>
<asrwt>0</asrwt>
<pdfrwt beam="1">  1        1 0.13718588E+00 0.11818013E+04</pdfrwt>
<pdfrwt beam="2">  1       -1 0.60241084E-01 0.11818013E+04</pdfrwt>
<totfact> 0.51187855E+01</totfact>
</mgrwt>
</event>
<event>
12    1  0.1489233E-007  0.1688317E+04  0.7818608E-02  0.8768056E-01
          1   -1    0    0  501    0  0.00000000000E+00  0.00000000000E+00  0.85375832598E+03  0.85375832598E+03  0.00000000000E+00 0. -1.
         -1   -1    0    0    0  501 -0.00000000000E+00 -0.00000000000E+00 -0.83466628675E+03  0.83466628675E+03  0.00000000000E+00 0.  1.
         23    2    1    2    0    0  0.11437649482E+03  0.78280231711E+02  0.61672156856E+03  0.63967360949E+03  0.98117563714E+02 0.  0.
        254    2    1    2    0    0 -0.11437649482E+03 -0.78280231711E+02 -0.59762952932E+03  0.10487510032E+04  0.85059263767E+03 0.  0.
        -24    2    4    4    0    0 -0.41865564771E+03 -0.51172941211E+02 -0.71651033171E+02  0.43560398772E+03  0.82010623080E+02 0.  0.
         24    2    4    4    0    0  0.30427915288E+03 -0.27107290499E+02 -0.52597849615E+03  0.61314701552E+03  0.77299910462E+02 0.  0.
         11    1    3    3    0    0  0.22927437362E+02  0.11173711306E+02  0.20400398944E+02  0.32660304430E+02  0.00000000000E+00 0.  1.
        -11    1    3    3    0    0  0.91449057461E+02  0.67106520404E+02  0.59632116961E+03  0.60701330506E+03  0.00000000000E+00 0. -1.
          4    1    6    6  502    0  0.25869211596E+03 -0.73735215504E+01 -0.48067441949E+03  0.54591563197E+03  0.00000000000E+00 0. -1.
          1    1    5    5  503    0 -0.26816716258E+03  0.67135247558E+01 -0.50879628424E+02  0.27303376181E+03  0.00000000000E+00 0. -1.
         -2    1    5    5    0  503 -0.15048848513E+03 -0.57886465967E+02 -0.20771404746E+02  0.16257022591E+03  0.00000000000E+00 0.  1.
         -3    1    6    6    0  502  0.45587036923E+02 -0.19733768949E+02 -0.45304076660E+02  0.67231383552E+02  0.00000000000E+00 0.  1.
<mgrwt>
<rscale>  0 0.16883167E+04</rscale>
<asrwt>0</asrwt>
<pdfrwt beam="1">  1        1 0.13134743E+00 0.16883167E+04</pdfrwt>
<pdfrwt beam="2">  1       -1 0.12841020E+00 0.16883167E+04</pdfrwt>
<totfact> 0.99094326E+00</totfact>
</mgrwt>
</event>
<event>
12    1  0.1489233E-007  0.2093850E+04  0.7818608E-02  0.8563957E-01
         -2   -1    0    0    0  501 -0.00000000000E+00  0.00000000000E+00  0.30081997029E+03  0.30081997029E+03  0.00000000000E+00 0.  1.
          2   -1    0    0  501    0  0.00000000000E+00 -0.00000000000E+00 -0.36435485114E+04  0.36435485114E+04  0.00000000000E+00 0. -1.
         23    2    1    2    0    0 -0.24169644943E+03  0.41682757455E+03 -0.49114909418E+02  0.49307175161E+03  0.92439587476E+02 0.  0.
        254    2    1    2    0    0  0.24169644943E+03 -0.41682757455E+03 -0.32936136317E+04  0.34512967301E+04  0.91180917060E+03 0.  0.
        -24    2    4    4    0    0  0.23913533974E+03 -0.39153581233E+03 -0.33284129305E+04  0.33607647106E+04  0.76946743050E+02 0.  0.
         24    2    4    4    0    0  0.25611096836E+01 -0.25291762218E+02  0.34799298817E+02  0.90532019432E+02  0.79616724533E+02 0.  0.
         11    1    3    3    0    0 -0.69461012703E+02  0.16060340533E+03  0.21701234486E+02  0.17632138177E+03  0.00000000000E+00 0.  1.
        -11    1    3    3    0    0 -0.17223543673E+03  0.25622416922E+03 -0.70816143904E+02  0.31675036984E+03  0.00000000000E+00 0. -1.
          2    1    6    6  502    0  0.34709121134E+02 -0.13200303682E+02  0.41338473633E+02  0.55568340892E+02  0.00000000000E+00 0. -1.
          3    1    5    5  503    0  0.20116615949E+03 -0.36698979350E+03 -0.30751892438E+04  0.31035364050E+04  0.00000000000E+00 0. -1.
         -4    1    5    5    0  503  0.37969180258E+02 -0.24546018827E+02 -0.25322368670E+03  0.25722830559E+03  0.00000000000E+00 0.  1.
         -1    1    6    6    0  502 -0.32148011451E+02 -0.12091458537E+02 -0.65391748154E+01  0.34963678540E+02  0.00000000000E+00 0.  1.
<mgrwt>
<rscale>  0 0.20938502E+04</rscale>
<asrwt>0</asrwt>
<pdfrwt beam="1">  1        2 0.56054588E+00 0.20938502E+04</pdfrwt>
<pdfrwt beam="2">  1       -2 0.46279999E-01 0.20938502E+04</pdfrwt>
<totfact> 0.26355709E+00</totfact>
</mgrwt>
</event>
<event>
12    1  0.1489233E-007  0.2341319E+04  0.7818608E-02  0.8461806E-01
          2   -1    0    0  501    0  0.00000000000E+00  0.00000000000E+00  0.12258123670E+04  0.12258123670E+04  0.00000000000E+00 0. -1.
         -2   -1    0    0    0  501 -0.00000000000E+00 -0.00000000000E+00 -0.11179877277E+04  0.11179877277E+04  0.00000000000E+00 0.  1.
         23    2    1    2    0    0 -0.53755094704E+03  0.22602479377E+03  0.85140448098E+03  0.10361613212E+04  0.93233391171E+02 0.  0.
        254    2    1    2    0    0  0.53755094704E+03 -0.22602479377E+03 -0.74357984172E+03  0.13076387736E+04  0.90385837000E+03 0.  0.
        -24    2    4    4    0    0 -0.68497116249E+02 -0.33004262032E+02  0.16346533198E+03  0.19691409890E+03  0.79202975568E+02 0.  0.
         24    2    4    4    0    0  0.60604806329E+03 -0.19302053174E+03 -0.90704517370E+03  0.11107246746E+04  0.80169664169E+02 0.  0.
         11    1    3    3    0    0 -0.49181094038E+03  0.23189526004E+03  0.79746077515E+03  0.96519277899E+03  0.00000000000E+00 0. -1.
        -11    1    3    3    0    0 -0.45740006660E+02 -0.58704662671E+01  0.53943705836E+02  0.70968542206E+02  0.00000000000E+00 0.  1.
          4    1    6    6  502    0  0.29200136394E+03 -0.51282024125E+02 -0.42676592092E+03  0.51963813736E+03  0.00000000000E+00 0. -1.
          3    1    5    5  503    0 -0.19752551406E+02  0.24536935771E+02  0.70432716971E+02  0.77155635725E+02  0.00000000000E+00 0. -1.
         -4    1    5    5    0  503 -0.48744564843E+02 -0.57541197804E+02  0.93032615012E+02  0.11975846318E+03  0.00000000000E+00 0.  1.
         -3    1    6    6    0  502  0.31404669935E+03 -0.14173850761E+03 -0.48027925278E+03  0.59108653729E+03  0.00000000000E+00 0.  1.
<mgrwt>
<rscale>  0 0.23413186E+04</rscale>
<asrwt>0</asrwt>
<pdfrwt beam="1">  1        2 0.18858652E+00 0.23413186E+04</pdfrwt>
<pdfrwt beam="2">  1       -2 0.17199811E+00 0.23413186E+04</pdfrwt>
<totfact> 0.34076132E+00</totfact>
</mgrwt>
</event>
<event>
12    1  0.1489233E-007  0.1663699E+04  0.7818608E-02  0.8782343E-01
          1   -1    0    0  501    0  0.00000000000E+00  0.00000000000E+00  0.58952455785E+03  0.58952455785E+03  0.00000000000E+00 0. -1.
         -1   -1    0    0    0  501 -0.00000000000E+00 -0.00000000000E+00 -0.11737821066E+04  0.11737821066E+04  0.00000000000E+00 0.  1.
         23    2    1    2    0    0  0.45968646720E+03 -0.11695701215E+03  0.17082363059E+03  0.51126236400E+03  0.84958232390E+02 0.  0.
        254    2    1    2    0    0 -0.45968646720E+03  0.11695701215E+03 -0.75508117934E+03  0.12520443005E+04  0.87890656619E+03 0.  0.
        -24    2    4    4    0    0 -0.46564798154E+03 -0.11269058654E+03 -0.29502006905E+02  0.48629854138E+03  0.78030070686E+02 0.  0.
         24    2    4    4    0    0  0.59615143410E+01  0.22964759869E+03 -0.72557917243E+03  0.76574575907E+03  0.84426730543E+02 0.  0.
         11    1    3    3    0    0  0.44127863619E+03 -0.11024468808E+03  0.18057658556E+03  0.48937575468E+03  0.00000000000E+00 0. -1.
        -11    1    3    3    0    0  0.18407831008E+02 -0.67123240682E+01 -0.97529549722E+01  0.21886609320E+02  0.00000000000E+00 0.  1.
          2    1    6    6  502    0  0.18821736551E+02  0.22588894539E+03 -0.70942918716E+03  0.74476160281E+03  0.00000000000E+00 0. -1.
          3    1    5    5  503    0 -0.31474614379E+03 -0.86978418120E+02  0.14990342075E+02  0.32688696916E+03  0.00000000000E+00 0. -1.
         -4    1    5    5    0  503 -0.15090183775E+03 -0.25712168419E+02 -0.44492348980E+02  0.15941157222E+03  0.00000000000E+00 0.  1.
         -1    1    6    6    0  502 -0.12860222210E+02  0.37586532980E+01 -0.16149985268E+02  0.20984156263E+02  0.00000000000E+00 0.  1.
<mgrwt>
<rscale>  0 0.16636987E+04</rscale>
<asrwt>0</asrwt>
<pdfrwt beam="1">  1        1 0.90696088E-01 0.16636987E+04</pdfrwt>
<pdfrwt beam="2">  1       -1 0.18058186E+00 0.16636987E+04</pdfrwt>
<totfact> 0.69107223E+00</totfact>
</mgrwt>
</event>
<event>
12    1  0.1497455E-007  0.1999326E+04  0.7818608E-02  0.8606936E-01
         -1   -1    0    0    0  501 -0.00000000000E+00  0.00000000000E+00  0.11537369205E+04  0.11537369205E+04  0.00000000000E+00 0.  1.
          1   -1    0    0  501    0  0.00000000000E+00 -0.00000000000E+00 -0.86616504218E+03  0.86616504218E+03  0.00000000000E+00 0. -1.
         23    2    1    2    0    0 -0.73953647981E+03 -0.31934612772E+02  0.18658692967E+03  0.76881541453E+03  0.91260258735E+02 0.  0.
        254    2    1    2    0    0  0.73953647981E+03  0.31934612772E+02  0.10098494868E+03  0.12510865482E+04  0.10035365298E+04 0.  0.
        -24    2    4    4    0    0  0.24406035454E+03  0.45155818754E+03 -0.16456947426E+03  0.54493055157E+03  0.79974625873E+02 0.  0.
         24    2    4    4    0    0  0.49547612527E+03 -0.41962357477E+03  0.26555442294E+03  0.70615599660E+03  0.80972864425E+02 0.  0.
         11    1    3    3    0    0 -0.18583182458E+03 -0.19957150243E+02  0.86761822455E+02  0.20605671236E+03  0.00000000000E+00 0.  1.
        -11    1    3    3    0    0 -0.55370465524E+03 -0.11977462529E+02  0.99825107215E+02  0.56275870217E+03  0.00000000000E+00 0. -1.
          2    1    6    6  502    0  0.67118834684E+02 -0.44659256061E+02  0.61516356257E+02  0.10140832909E+03  0.00000000000E+00 0. -1.
          3    1    5    5  503    0 -0.19373494050E+01 -0.24442030311E+01 -0.86173998236E+00  0.32357451957E+01  0.00000000000E+00 0. -1.
         -4    1    5    5    0  503  0.24599770394E+03  0.45400239057E+03 -0.16370773428E+03  0.54169480638E+03  0.00000000000E+00 0.  1.
         -1    1    6    6    0  502  0.42835729059E+03 -0.37496431871E+03  0.20403806668E+03  0.60474766751E+03  0.00000000000E+00 0.  1.
<mgrwt>
<rscale>  0 0.19993265E+04</rscale>
<asrwt>0</asrwt>
<pdfrwt beam="1">  1        1 0.13325616E+00 0.19993265E+04</pdfrwt>
<pdfrwt beam="2">  1       -1 0.17749799E+00 0.19993265E+04</pdfrwt>
<totfact> 0.39063830E+00</totfact>
</mgrwt>
</event>
<event>
12    1  0.1489233E-007  0.1949257E+04  0.7818608E-02  0.8630719E-01
          2   -1    0    0  501    0  0.00000000000E+00  0.00000000000E+00  0.23569778165E+04  0.23569778165E+04  0.00000000000E+00 0. -1.
         -2   -1    0    0    0  501 -0.00000000000E+00 -0.00000000000E+00 -0.40301625025E+03  0.40301625025E+03  0.00000000000E+00 0.  1.
         23    2    1    2    0    0  0.39603100515E+03 -0.55056778780E+02 -0.15086880299E+03  0.43692268228E+03  0.90929800647E+02 0.  0.
        254    2    1    2    0    0 -0.39603100515E+03  0.55056778780E+02  0.21048303692E+04  0.23230713844E+04  0.89804118400E+03 0.  0.
        -24    2    4    4    0    0 -0.61500104143E+03 -0.12798460481E+03  0.17500816590E+04  0.18611887880E+04  0.81434337120E+02 0.  0.
         24    2    4    4    0    0  0.21897003628E+03  0.18304138359E+03  0.35474871017E+03  0.46188259644E+03  0.77697236985E+02 0.  0.
         13    1    3    3    0    0  0.23419004634E+03 -0.27718769964E+02 -0.13572229422E+03  0.27209161906E+03  0.00000000000E+00 0.  1.
        -13    1    3    3    0    0  0.16184095881E+03 -0.27338008816E+02 -0.15146508763E+02  0.16483106322E+03  0.00000000000E+00 0. -1.
          4    1    6    6  502    0 -0.43401394250E+01  0.12243045708E+02  0.27771766509E+02  0.30659419327E+02  0.00000000000E+00 0. -1.
          1    1    5    5  503    0 -0.32181811882E+03 -0.10764995000E+03  0.91446115135E+03  0.97539459229E+03  0.00000000000E+00 0. -1.
         -2    1    5    5    0  503 -0.29318292261E+03 -0.20334654814E+02  0.83562050767E+03  0.88579419570E+03  0.00000000000E+00 0.  1.
         -3    1    6    6    0  502  0.22331017570E+03  0.17079833788E+03  0.32697694366E+03  0.43122317712E+03  0.00000000000E+00 0.  1.
<mgrwt>
<rscale>  0 0.19492566E+04</rscale>
<asrwt>0</asrwt>
<pdfrwt beam="1">  1        2 0.36261196E+00 0.19492566E+04</pdfrwt>
<pdfrwt beam="2">  1       -2 0.62002502E-01 0.19492566E+04</pdfrwt>
<totfact> 0.94837117E+00</totfact>
</mgrwt>
</event>
<event>
12    1  0.2957255E-007  0.2532475E+04  0.7818608E-02  0.8391507E-01
          2   -1    0    0  501    0  0.00000000000E+00  0.00000000000E+00  0.11299717732E+04  0.11299717732E+04  0.00000000000E+00 0. -1.
         -2   -1    0    0    0  501 -0.00000000000E+00 -0.00000000000E+00 -0.14189355591E+04  0.14189355591E+04  0.00000000000E+00 0.  1.
         23    2    1    2    0    0 -0.53197253420E+03 -0.37209086143E+02 -0.11059646144E+04  0.12315018610E+04  0.95183045103E+02 0.  0.
        254    2    1    2    0    0  0.53197253420E+03  0.37209086143E+02  0.81700082849E+03  0.13174054713E+04  0.88526127713E+03 0.  0.
        -24    2    4    4    0    0 -0.10117862252E+03 -0.25522197938E+03  0.42734570836E+03  0.51426403536E+03  0.80422454551E+02 0.  0.
         24    2    4    4    0    0  0.63315115673E+03  0.29243106552E+03  0.38965512013E+03  0.80314143593E+03  0.82515078104E+02 0.  0.
         13    1    3    3    0    0 -0.54085651205E+02  0.56600931280E+01 -0.61454270301E+02  0.82060475618E+02  0.00000000000E+00 0. -1.
        -13    1    3    3    0    0 -0.47788688300E+03 -0.42869179271E+02 -0.10445103441E+04  0.11494413853E+04  0.00000000000E+00 0.  1.
          2    1    6    6  502    0 -0.22699476370E+01 -0.75493487358E+00  0.21563297477E+01  0.32206128173E+01  0.00000000000E+00 0. -1.
          1    1    5    5  503    0  0.74004422066E+01 -0.83819423608E+01  0.45130379271E+02  0.46494888275E+02  0.00000000000E+00 0. -1.
         -2    1    5    5    0  503 -0.10857906473E+03 -0.24684003702E+03  0.38221532909E+03  0.46776914708E+03  0.00000000000E+00 0.  1.
         -1    1    6    6    0  502  0.63542110436E+03  0.29318600039E+03  0.38749879038E+03  0.79992082311E+03  0.00000000000E+00 0.  1.
<mgrwt>
<rscale>  0 0.25324748E+04</rscale>
<asrwt>0</asrwt>
<pdfrwt beam="1">  1        2 0.17384181E+00 0.25324748E+04</pdfrwt>
<pdfrwt beam="2">  1       -2 0.21829778E+00 0.25324748E+04</pdfrwt>
<totfact> 0.18818375E+00</totfact>
</mgrwt>
</event>
<event>
12    1  0.1489233E-007  0.2694989E+04  0.7818608E-02  0.8336633E-01
         -1   -1    0    0    0  501 -0.00000000000E+00  0.00000000000E+00  0.46505120033E+03  0.46505120033E+03  0.00000000000E+00 0.  1.
          1   -1    0    0  501    0  0.00000000000E+00 -0.00000000000E+00 -0.39043899496E+04  0.39043899496E+04  0.00000000000E+00 0. -1.
         23    2    1    2    0    0  0.53334806302E+02 -0.71881335685E+03  0.18230524050E+02  0.72673465815E+03  0.90959704196E+02 0.  0.
        254    2    1    2    0    0 -0.53334806302E+02  0.71881335685E+03 -0.34575692733E+04  0.36427064918E+04  0.89162103048E+03 0.  0.
        -24    2    4    4    0    0 -0.28694705899E+03  0.65903646534E+03 -0.32004775488E+04  0.32811638575E+04  0.79448361885E+02 0.  0.
         24    2    4    4    0    0  0.23361225268E+03  0.59776891512E+02 -0.25709172453E+03  0.36154263428E+03  0.80429846578E+02 0.  0.
         11    1    3    3    0    0  0.16467479607E+02 -0.49387710196E+03  0.49659496705E+02  0.49664054943E+03  0.00000000000E+00 0.  1.
        -11    1    3    3    0    0  0.36867326695E+02 -0.22493625489E+03 -0.31428972655E+02  0.23009410872E+03  0.00000000000E+00 0. -1.
          2    1    6    6  502    0  0.13832234367E+03 -0.58103337679E+01 -0.14440744659E+03  0.20005084695E+03  0.00000000000E+00 0. -1.
          3    1    5    5  503    0 -0.19834225190E+03  0.51157844683E+03 -0.23154363532E+04  0.23795582914E+04  0.00000000000E+00 0. -1.
         -4    1    5    5    0  503 -0.88604807091E+02  0.14745801851E+03 -0.88504119556E+03  0.90160556614E+03  0.00000000000E+00 0.  1.
         -1    1    6    6    0  502  0.95289909011E+02  0.65587225280E+02 -0.11268427795E+03  0.16149178733E+03  0.00000000000E+00 0.  1.
<mgrwt>
<rscale>  0 0.26949889E+04</rscale>
<asrwt>0</asrwt>
<pdfrwt beam="1">  1        1 0.60067538E+00 0.26949889E+04</pdfrwt>
<pdfrwt beam="2">  1       -1 0.71546338E-01 0.26949889E+04</pdfrwt>
<totfact> 0.20036619E-01</totfact>
</mgrwt>
</event>
<event>
12    1  0.1489233E-007  0.2208982E+04  0.7818608E-02  0.8514699E-01
          2   -1    0    0  501    0  0.00000000000E+00  0.00000000000E+00  0.14632702153E+04  0.14632702153E+04  0.00000000000E+00 0.  1.
         -2   -1    0    0    0  501 -0.00000000000E+00 -0.00000000000E+00 -0.83368119495E+03  0.83368119495E+03  0.00000000000E+00 0. -1.
         23    2    1    2    0    0  0.10440675713E+03  0.29878166550E+03 -0.62849765958E+03  0.70966716257E+03  0.91907121356E+02 0.  0.
        254    2    1    2    0    0 -0.10440675713E+03 -0.29878166550E+03  0.12580866799E+04  0.15872842476E+04  0.91461354360E+03 0.  0.
        -24    2    4    4    0    0 -0.22100128147E+03 -0.55714107886E+02  0.12814441605E+04  0.13036823068E+04  0.74449932168E+02 0.  0.
         24    2    4    4    0    0  0.11659452434E+03 -0.24306755762E+03 -0.23357480636E+02  0.28360194080E+03  0.84902109818E+02 0.  0.
         11    1    3    3    0    0  0.14760588219E+02  0.82981683952E+02 -0.26002397293E+03  0.27334282748E+03  0.00000000000E+00 0.  1.
        -11    1    3    3    0    0  0.89646168911E+02  0.21579998155E+03 -0.36847368665E+03  0.43632433509E+03  0.00000000000E+00 0. -1.
          2    1    6    6  502    0  0.10960988300E+03 -0.20244327828E+03 -0.48573224091E+02  0.23528061006E+03  0.00000000000E+00 0. -1.
          1    1    5    5  503    0 -0.14557083642E+03 -0.15185909382E+02  0.63843979597E+03  0.65500141476E+03  0.00000000000E+00 0. -1.
         -2    1    5    5    0  503 -0.75430445048E+02 -0.40528198504E+02  0.64300436457E+03  0.64868089209E+03  0.00000000000E+00 0.  1.
         -1    1    6    6    0  502  0.69846413376E+01 -0.40624279340E+02  0.25215743455E+02  0.48321330740E+02  0.00000000000E+00 0.  1.
<mgrwt>
<rscale>  0 0.22089824E+04</rscale>
<asrwt>0</asrwt>
<pdfrwt beam="1">  1        2 0.22511849E+00 0.22089824E+04</pdfrwt>
<pdfrwt beam="2">  1       -2 0.12825865E+00 0.22089824E+04</pdfrwt>
<totfact> 0.54668481E+00</totfact>
</mgrwt>
</event>
<event>
12    1  0.1489233E-007  0.1281237E+04  0.7818608E-02  0.9044579E-01
          2   -1    0    0  501    0  0.00000000000E+00  0.00000000000E+00  0.13683915893E+04  0.13683915893E+04  0.00000000000E+00 0. -1.
         -2   -1    0    0    0  501 -0.00000000000E+00 -0.00000000000E+00 -0.29990811542E+03  0.29990811542E+03  0.00000000000E+00 0.  1.
         23    2    1    2    0    0 -0.17126446739E+03  0.21585306839E+03  0.96178749878E+02  0.31039448795E+03  0.10568974073E+03 0.  0.
        254    2    1    2    0    0  0.17126446739E+03 -0.21585306839E+03  0.97230472399E+03  0.13579052168E+04  0.90697631528E+03 0.  0.
        -24    2    4    4    0    0  0.22693889313E+02 -0.34585416460E+03  0.10670842552E+04  0.11247353586E+04  0.78934805000E+02 0.  0.
         24    2    4    4    0    0  0.14857057807E+03  0.13000109621E+03 -0.94779531176E+02  0.23316985817E+03  0.80071977280E+02 0.  0.
         13    1    3    3    0    0 -0.59102385329E+02  0.15596916118E+03  0.40792461146E+02  0.17170758888E+03  0.00000000000E+00 0.  1.
        -13    1    3    3    0    0 -0.11216208206E+03  0.59883907212E+02  0.55386288732E+02  0.13868689907E+03  0.00000000000E+00 0. -1.
          2    1    6    6  502    0  0.41267044959E+02  0.81862717306E+02 -0.63353674124E+02  0.11143680500E+03  0.00000000000E+00 0. -1.
          1    1    5    5  503    0  0.45979477502E+02 -0.15000526540E+03  0.42457550269E+03  0.45263677434E+03  0.00000000000E+00 0. -1.
         -2    1    5    5    0  503 -0.23285588189E+02 -0.19584889920E+03  0.64250875248E+03  0.67209858425E+03  0.00000000000E+00 0.  1.
         -1    1    6    6    0  502  0.10730353312E+03  0.48138378903E+02 -0.31425857052E+02  0.12173305317E+03  0.00000000000E+00 0.  1.
<mgrwt>
<rscale>  0 0.12812365E+04</rscale>
<asrwt>0</asrwt>
<pdfrwt beam="1">  1        2 0.21052178E+00 0.12812365E+04</pdfrwt>
<pdfrwt beam="2">  1       -2 0.46139711E-01 0.12812365E+04</pdfrwt>
<totfact> 0.65929106E+01</totfact>
</mgrwt>
</event>
<event>
12    1  0.1489233E-007  0.1884259E+04  0.7818608E-02  0.8662732E-01
          2   -1    0    0  501    0  0.00000000000E+00  0.00000000000E+00  0.32715342011E+04  0.32715342011E+04  0.00000000000E+00 0.  1.
         -2   -1    0    0    0  501 -0.00000000000E+00 -0.00000000000E+00 -0.27131239649E+03  0.27131239649E+03  0.00000000000E+00 0. -1.
         23    2    1    2    0    0 -0.66466955076E+03 -0.10807372505E+03  0.16216676796E+04  0.17582608111E+04  0.90606152923E+02 0.  0.
        254    2    1    2    0    0  0.66466955076E+03  0.10807372505E+03  0.13785541250E+04  0.17845857865E+04  0.91152038489E+03 0.  0.
        -24    2    4    4    0    0  0.79762619636E+03  0.32113889552E+03  0.98920760802E+03  0.13131876664E+04  0.81193695344E+02 0.  0.
         24    2    4    4    0    0 -0.13295664559E+03 -0.21306517046E+03  0.38934651699E+03  0.47139812008E+03  0.86897875979E+02 0.  0.
         13    1    3    3    0    0 -0.16374336096E+02  0.11154105926E+02  0.59673934637E+02  0.62876954734E+02  0.00000000000E+00 0. -1.
        -13    1    3    3    0    0 -0.64829521467E+03 -0.11922783098E+03  0.15619937450E+04  0.16953838564E+04  0.00000000000E+00 0.  1.
          2    1    6    6  502    0 -0.24810723691E+02 -0.22884425654E+01  0.17311033969E+02  0.30339427756E+02  0.00000000000E+00 0. -1.
          1    1    5    5  503    0  0.93034388925E+02  0.55814540193E+02  0.94751864846E+02  0.14404366113E+03  0.00000000000E+00 0. -1.
         -2    1    5    5    0  503  0.70459180743E+03  0.26532435532E+03  0.89445574317E+03  0.11691440053E+04  0.00000000000E+00 0.  1.
         -1    1    6    6    0  502 -0.10814592190E+03 -0.21077672790E+03  0.37203548302E+03  0.44105869232E+03  0.00000000000E+00 0.  1.
<mgrwt>
<rscale>  0 0.18842588E+04</rscale>
<asrwt>0</asrwt>
<pdfrwt beam="1">  1        2 0.50331293E+00 0.18842588E+04</pdfrwt>
<pdfrwt beam="2">  1       -2 0.41740371E-01 0.18842588E+04</pdfrwt>
<totfact> 0.59642612E+00</totfact>
</mgrwt>
</event>
<event>
12    1  0.1489233E-007  0.3202874E+04  0.7818608E-02  0.8188058E-01
         -1   -1    0    0    0  501 -0.00000000000E+00  0.00000000000E+00  0.11052609995E+04  0.11052609995E+04  0.00000000000E+00 0.  1.
          1   -1    0    0  501    0  0.00000000000E+00 -0.00000000000E+00 -0.23203578127E+04  0.23203578127E+04  0.00000000000E+00 0. -1.
         23    2    1    2    0    0 -0.12312384352E+04 -0.17633062935E+03  0.28071641815E+03  0.12784045156E+04  0.92064231904E+02 0.  0.
        254    2    1    2    0    0  0.12312384352E+04  0.17633062935E+03 -0.14958132314E+04  0.21472142967E+04  0.90886271650E+03 0.  0.
        -24    2    4    4    0    0 -0.68113361067E+02 -0.50532858350E+02 -0.44636673024E+03  0.45979226975E+03  0.70517187448E+02 0.  0.
         24    2    4    4    0    0  0.12993517963E+04  0.22686348770E+03 -0.10494465011E+04  0.16874220269E+04  0.79202308245E+02 0.  0.
         11    1    3    3    0    0 -0.55232133727E+02 -0.27850099472E+02  0.14654149394E+02  0.63568551431E+02  0.00000000000E+00 0. -1.
        -11    1    3    3    0    0 -0.11760063015E+04 -0.14848052988E+03  0.26606226875E+03  0.12148359641E+04  0.00000000000E+00 0.  1.
          2    1    6    6  502    0  0.73873172030E+03  0.15106473578E+03 -0.64104079559E+03  0.98968601616E+03  0.00000000000E+00 0. -1.
          1    1    5    5  503    0 -0.49043710220E+02 -0.57680211694E+02 -0.41840753557E+03  0.42520249077E+03  0.00000000000E+00 0. -1.
         -2    1    5    5    0  503 -0.19069650847E+02  0.71473533448E+01 -0.27959194670E+02  0.34589778980E+02  0.00000000000E+00 0.  1.
         -1    1    6    6    0  502  0.56062007598E+03  0.75798751919E+02 -0.40840570556E+03  0.69773601076E+03  0.00000000000E+00 0.  1.
<mgrwt>
<rscale>  0 0.32028743E+04</rscale>
<asrwt>0</asrwt>
<pdfrwt beam="1">  1        1 0.35697813E+00 0.32028743E+04</pdfrwt>
<pdfrwt beam="2">  1       -1 0.17004015E+00 0.32028743E+04</pdfrwt>
<totfact> 0.37063110E-01</totfact>
</mgrwt>
</event>
<event>
12    1  0.1489233E-007  0.2604476E+04  0.7818608E-02  0.8366682E-01
          1   -1    0    0  501    0  0.00000000000E+00  0.00000000000E+00  0.16946150702E+04  0.16946150702E+04  0.00000000000E+00 0. -1.
         -1   -1    0    0    0  501 -0.00000000000E+00 -0.00000000000E+00 -0.10007136233E+04  0.10007136233E+04  0.00000000000E+00 0.  1.
         23    2    1    2    0    0  0.47947183033E+03 -0.51742659182E+03 -0.62751724068E+03  0.94870618406E+03  0.92962478030E+02 0.  0.
        254    2    1    2    0    0 -0.47947183033E+03  0.51742659182E+03  0.13214186876E+04  0.17466225095E+04  0.89828688558E+03 0.  0.
        -24    2    4    4    0    0 -0.31934417169E+03  0.75782780191E+03  0.10904717386E+04  0.13681749895E+04  0.80563714292E+02 0.  0.
         24    2    4    4    0    0 -0.16012765865E+03 -0.24040121009E+03  0.23094694900E+03  0.37844751995E+03  0.80326976947E+02 0.  0.
         11    1    3    3    0    0  0.12452705178E+03 -0.15981407866E+03 -0.23303906061E+03  0.30879561223E+03  0.00000000000E+00 0. -1.
        -11    1    3    3    0    0  0.35494477855E+03 -0.35761251316E+03 -0.39447818007E+03  0.63991057183E+03  0.00000000000E+00 0.  1.
          4    1    6    6  502    0 -0.48763325119E+02 -0.14562699813E+03  0.11905355534E+03  0.19431632330E+03  0.00000000000E+00 0. -1.
          1    1    5    5  503    0 -0.77412753286E+02  0.12944382432E+03  0.16332965306E+03  0.22231737132E+03  0.00000000000E+00 0. -1.
         -2    1    5    5    0  503 -0.24193141840E+03  0.62838397759E+03  0.92714208551E+03  0.11458576182E+04  0.00000000000E+00 0.  1.
         -3    1    6    6    0  502 -0.11136433353E+03 -0.94774211959E+02  0.11189339366E+03  0.18413119665E+03  0.00000000000E+00 0.  1.
<mgrwt>
<rscale>  0 0.26044764E+04</rscale>
<asrwt>0</asrwt>
<pdfrwt beam="1">  1        1 0.26071001E+00 0.26044764E+04</pdfrwt>
<pdfrwt beam="2">  1       -1 0.15395594E+00 0.26044764E+04</pdfrwt>
<totfact> 0.13756506E+00</totfact>
</mgrwt>
</event>
<event>
12    1  0.1489233E-007  0.1922085E+04  0.7818608E-02  0.8643941E-01
          2   -1    0    0  501    0  0.00000000000E+00  0.00000000000E+00  0.19077695979E+04  0.19077695979E+04  0.00000000000E+00 0. -1.
         -2   -1    0    0    0  501 -0.00000000000E+00 -0.00000000000E+00 -0.48412696982E+03  0.48412696982E+03  0.00000000000E+00 0.  1.
         23    2    1    2    0    0  0.23327781972E+03 -0.68941252090E+03  0.59675480961E+03  0.94510370882E+03  0.86003212068E+02 0.  0.
        254    2    1    2    0    0 -0.23327781972E+03  0.68941252090E+03  0.82688781844E+03  0.14467928589E+04  0.93795412845E+03 0.  0.
        -24    2    4    4    0    0 -0.50096750897E+03  0.16705867328E+03  0.16514597028E+03  0.55868257932E+03  0.77304512010E+02 0.  0.
         24    2    4    4    0    0  0.26768968925E+03  0.52235384762E+03  0.66174184816E+03  0.88811027955E+03  0.79537935547E+02 0.  0.
         13    1    3    3    0    0  0.18334606920E+01 -0.93695042363E+02  0.80512856809E+02  0.12354935311E+03  0.00000000000E+00 0.  1.
        -13    1    3    3    0    0  0.23144435903E+03 -0.59571747854E+03  0.51624195280E+03  0.82155435571E+03  0.00000000000E+00 0. -1.
          4    1    6    6  502    0  0.65201939780E+02  0.20790835559E+03  0.25988066052E+03  0.33913881374E+03  0.00000000000E+00 0. -1.
          3    1    5    5  503    0 -0.86654499459E+02  0.42383228366E+01  0.10325076365E+02  0.87370320240E+02  0.00000000000E+00 0. -1.
         -4    1    5    5    0  503 -0.41431300951E+03  0.16282035044E+03  0.15482089392E+03  0.47131225908E+03  0.00000000000E+00 0.  1.
         -3    1    6    6    0  502  0.20248774947E+03  0.31444549203E+03  0.40186118763E+03  0.54897146581E+03  0.00000000000E+00 0.  1.
<mgrwt>
<rscale>  0 0.19220850E+04</rscale>
<asrwt>0</asrwt>
<pdfrwt beam="1">  1        2 0.29350301E+00 0.19220850E+04</pdfrwt>
<pdfrwt beam="2">  1       -2 0.74481073E-01 0.19220850E+04</pdfrwt>
<totfact> 0.11397095E+01</totfact>
</mgrwt>
</event>
<event>
12    1  0.1489233E-007  0.1823258E+04  0.7818608E-02  0.8694028E-01
         -2   -1    0    0    0  501 -0.00000000000E+00  0.00000000000E+00  0.31446188680E+03  0.31446188680E+03  0.00000000000E+00 0.  1.
          2   -1    0    0  501    0  0.00000000000E+00 -0.00000000000E+00 -0.26428253195E+04  0.26428253195E+04  0.00000000000E+00 0. -1.
         23    2    1    2    0    0  0.32154838325E+02  0.33390441985E+03 -0.18562082427E+04  0.18885471421E+04  0.92602227337E+02 0.  0.
        254    2    1    2    0    0 -0.32154838325E+02 -0.33390441985E+03 -0.47215519005E+03  0.10687400642E+04  0.89819190943E+03 0.  0.
        -24    2    4    4    0    0 -0.18747767374E+03  0.18232628735E+03 -0.44605460032E+03  0.52301694110E+03  0.78684566458E+02 0.  0.
         24    2    4    4    0    0  0.15532283542E+03 -0.51623070720E+03 -0.26100589730E+02  0.54572312313E+03  0.80704151522E+02 0.  0.
         13    1    3    3    0    0  0.62502493520E+01 -0.47391643084E+01 -0.28990090249E+02  0.30032492870E+02  0.00000000000E+00 0.  1.
        -13    1    3    3    0    0  0.25904588973E+02  0.33864358416E+03 -0.18272181524E+04  0.18585146492E+04  0.00000000000E+00 0. -1.
          2    1    6    6  502    0  0.39439926583E+01 -0.11525557353E+03 -0.20233306009E+02  0.11708453775E+03  0.00000000000E+00 0. -1.
          1    1    5    5  503    0 -0.28321696717E+02  0.75623696260E+02 -0.11527518651E+03  0.14074597886E+03  0.00000000000E+00 0. -1.
         -2    1    5    5    0  503 -0.15915597703E+03  0.10670259109E+03 -0.33077941381E+03  0.38227096224E+03  0.00000000000E+00 0.  1.
         -1    1    6    6    0  502  0.15137884276E+03 -0.40097513367E+03 -0.58672837218E+01  0.42863858538E+03  0.00000000000E+00 0.  1.
<mgrwt>
<rscale>  0 0.18232584E+04</rscale>
<asrwt>0</asrwt>
<pdfrwt beam="1">  1        2 0.40658850E+00 0.18232584E+04</pdfrwt>
<pdfrwt beam="2">  1       -2 0.48378753E-01 0.18232584E+04</pdfrwt>
<totfact> 0.10968516E+01</totfact>
</mgrwt>
</event>
<event>
12    1  0.1489233E-007  0.1814947E+04  0.7818608E-02  0.8698391E-01
          1   -1    0    0  501    0  0.00000000000E+00  0.00000000000E+00  0.70029998492E+03  0.70029998492E+03  0.00000000000E+00 0. -1.
         -1   -1    0    0    0  501 -0.00000000000E+00 -0.00000000000E+00 -0.11759362027E+04  0.11759362027E+04  0.00000000000E+00 0.  1.
         23    2    1    2    0    0  0.41500071206E+03  0.34784468386E+03  0.24262248993E+03  0.60057223329E+03  0.92735212756E+02 0.  0.
        254    2    1    2    0    0 -0.41500071206E+03 -0.34784468386E+03 -0.71825870769E+03  0.12756639543E+04  0.90454487895E+03 0.  0.
        -24    2    4    4    0    0 -0.35691449238E+03  0.22618152443E+03 -0.48463916321E+03  0.64781540448E+03  0.79016725414E+02 0.  0.
         24    2    4    4    0    0 -0.58086219675E+02 -0.57402620829E+03 -0.23361954449E+03  0.62784854983E+03  0.82070781890E+02 0.  0.
         13    1    3    3    0    0  0.21971368870E+03  0.13607159095E+03  0.84166313646E+02  0.27179689332E+03  0.00000000000E+00 0.  1.
        -13    1    3    3    0    0  0.19528702336E+03  0.21177309291E+03  0.15845617628E+03  0.32877533998E+03  0.00000000000E+00 0. -1.
          4    1    6    6  502    0 -0.26464330673E+02 -0.11529398561E+03 -0.16822783870E+02  0.11948250907E+03  0.00000000000E+00 0. -1.
          3    1    5    5  503    0 -0.84865216994E+02  0.96454121343E+02 -0.14554290997E+03  0.19413459563E+03  0.00000000000E+00 0. -1.
         -4    1    5    5    0  503 -0.27204927539E+03  0.12972740309E+03 -0.33909625324E+03  0.45368080884E+03  0.00000000000E+00 0.  1.
         -3    1    6    6    0  502 -0.31621889002E+02 -0.45873222268E+03 -0.21679676062E+03  0.50836604076E+03  0.00000000000E+00 0.  1.
<mgrwt>
<rscale>  0 0.18149469E+04</rscale>
<asrwt>0</asrwt>
<pdfrwt beam="1">  1        1 0.10773846E+00 0.18149469E+04</pdfrwt>
<pdfrwt beam="2">  1       -1 0.18091326E+00 0.18149469E+04</pdfrwt>
<totfact> 0.52591946E+00</totfact>
</mgrwt>
</event>
<event>
12    1  0.1489233E-007  0.2195672E+04  0.7818608E-02  0.8520232E-01
          1   -1    0    0  501    0  0.00000000000E+00  0.00000000000E+00  0.20287401001E+04  0.20287401001E+04  0.00000000000E+00 0. -1.
         -1   -1    0    0    0  501 -0.00000000000E+00 -0.00000000000E+00 -0.59408490151E+03  0.59408490151E+03  0.00000000000E+00 0.  1.
         23    2    1    2    0    0 -0.68095911311E+03  0.19190428027E+03  0.12834008476E+04  0.14681492996E+04  0.88385879292E+02 0.  0.
        254    2    1    2    0    0  0.68095911311E+03 -0.19190428027E+03  0.15125435096E+03  0.11546757020E+04  0.89992529226E+03 0.  0.
        -24    2    4    4    0    0  0.58705735486E+03 -0.40347537450E+03  0.38706387486E+03  0.81460001651E+03  0.79536330969E+02 0.  0.
         24    2    4    4    0    0  0.93901758243E+02  0.21157109422E+03 -0.23580952390E+03  0.34007568552E+03  0.80408160055E+02 0.  0.
         11    1    3    3    0    0 -0.99610754700E+02  0.15357191012E+02  0.24730638086E+03  0.26705540957E+03  0.00000000000E+00 0. -1.
        -11    1    3    3    0    0 -0.58134835841E+03  0.17654708926E+03  0.10360944667E+04  0.12010938900E+04  0.00000000000E+00 0.  1.
          4    1    6    6  502    0 -0.31651953432E+01  0.30096303319E+02 -0.68350365602E+02  0.74750106441E+02  0.00000000000E+00 0. -1.
          3    1    5    5  503    0  0.83089926710E+02 -0.61504780204E+02  0.89591845329E+02  0.13679719536E+03  0.00000000000E+00 0. -1.
         -4    1    5    5    0  503  0.50396742815E+03 -0.34197059429E+03  0.29747202953E+03  0.67780282115E+03  0.00000000000E+00 0.  1.
         -3    1    6    6    0  502  0.97066953586E+02  0.18147479091E+03 -0.16745915830E+03  0.26532557908E+03  0.00000000000E+00 0.  1.
<mgrwt>
<rscale>  0 0.21956720E+04</rscale>
<asrwt>0</asrwt>
<pdfrwt beam="1">  1        1 0.31211386E+00 0.21956720E+04</pdfrwt>
<pdfrwt beam="2">  1       -1 0.91397678E-01 0.21956720E+04</pdfrwt>
<totfact> 0.30329849E+00</totfact>
</mgrwt>
</event>
<event>
12    1  0.1489233E-007  0.1442991E+04  0.7818608E-02  0.8923274E-01
         -2   -1    0    0    0  501 -0.00000000000E+00  0.00000000000E+00  0.25658682453E+04  0.25658682453E+04  0.00000000000E+00 0.  1.
          2   -1    0    0  501    0  0.00000000000E+00 -0.00000000000E+00 -0.20287709831E+03  0.20287709831E+03  0.00000000000E+00 0. -1.
         23    2    1    2    0    0  0.32165713444E+03  0.26273052627E+03  0.48861629721E+03  0.64699241381E+03  0.85805920923E+02 0.  0.
        254    2    1    2    0    0 -0.32165713444E+03 -0.26273052627E+03  0.18743748498E+04  0.21217529298E+04  0.90336248320E+03 0.  0.
        -24    2    4    4    0    0 -0.35041546459E+03 -0.12182872490E+03  0.19143718453E+04  0.19516352915E+04  0.80171771852E+02 0.  0.
         24    2    4    4    0    0  0.28758330149E+02 -0.14090180137E+03 -0.39996995454E+02  0.17011763834E+03  0.81608161640E+02 0.  0.
         13    1    3    3    0    0  0.31271283397E+03  0.26952704344E+03  0.47461903140E+03  0.62904480655E+03  0.00000000000E+00 0. -1.
        -13    1    3    3    0    0  0.89443004760E+01 -0.67965171708E+01  0.13997265803E+02  0.17947607267E+02  0.00000000000E+00 0.  1.
          2    1    6    6  502    0  0.16666215645E+02 -0.99880939860E+02 -0.65239058860E+02  0.12045787518E+03  0.00000000000E+00 0. -1.
          3    1    5    5  503    0 -0.21053194375E+03 -0.11074809845E+03  0.11229575818E+04  0.11478774200E+04  0.00000000000E+00 0. -1.
         -4    1    5    5    0  503 -0.13988352084E+03 -0.11080626452E+02  0.79141426343E+03  0.80375787153E+03  0.00000000000E+00 0.  1.
         -1    1    6    6    0  502  0.12092114504E+02 -0.41020861510E+02  0.25242063407E+02  0.49659763162E+02  0.00000000000E+00 0.  1.
<mgrwt>
<rscale>  0 0.14429912E+04</rscale>
<asrwt>0</asrwt>
<pdfrwt beam="1">  1        2 0.31211863E-01 0.14429912E+04</pdfrwt>
<pdfrwt beam="2">  1       -2 0.39474894E+00 0.14429912E+04</pdfrwt>
<totfact> 0.13412177E+00</totfact>
</mgrwt>
</event>
<event>
12    1  0.1489233E-007  0.1835781E+04  0.7818608E-02  0.8687500E-01
         -2   -1    0    0    0  501 -0.00000000000E+00  0.00000000000E+00  0.54356237264E+03  0.54356237264E+03  0.00000000000E+00 0.  1.
          2   -1    0    0  501    0  0.00000000000E+00 -0.00000000000E+00 -0.15500024057E+04  0.15500024057E+04  0.00000000000E+00 0. -1.
         23    2    1    2    0    0  0.39837688185E+03  0.19470695271E+03  0.21625076446E+03  0.50158933743E+03  0.90623026115E+02 0.  0.
        254    2    1    2    0    0 -0.39837688185E+03 -0.19470695271E+03 -0.12226907975E+04  0.15919754409E+04  0.91804034808E+03 0.  0.
        -24    2    4    4    0    0 -0.40426156525E+03  0.12363255427E+03 -0.12773723396E+03  0.44855719638E+03  0.78576942378E+02 0.  0.
         24    2    4    4    0    0  0.58846833970E+01 -0.31833950697E+03 -0.10949535635E+04  0.11434182445E+04  0.84304830127E+02 0.  0.
         11    1    3    3    0    0  0.60785099025E+02  0.99819177765E+01  0.60800663795E+02  0.86551647379E+02  0.00000000000E+00 0. -1.
        -11    1    3    3    0    0  0.33759178283E+03  0.18472503493E+03  0.15545010067E+03  0.41503769005E+03  0.00000000000E+00 0.  1.
          2    1    6    6  502    0 -0.21538377290E+02 -0.19580635442E+03 -0.77668022095E+03  0.80127161172E+03  0.00000000000E+00 0. -1.
          3    1    5    5  503    0 -0.36038205158E+03  0.82241503628E+02 -0.10844596955E+03  0.38522644812E+03  0.00000000000E+00 0. -1.
         -4    1    5    5    0  503 -0.43879513670E+02  0.41391050638E+02 -0.19291264405E+02  0.63330748260E+02  0.00000000000E+00 0.  1.
         -1    1    6    6    0  502  0.27423060687E+02 -0.12253315255E+03 -0.31827334257E+03  0.34214663278E+03  0.00000000000E+00 0.  1.
<mgrwt>
<rscale>  0 0.18357810E+04</rscale>
<asrwt>0</asrwt>
<pdfrwt beam="1">  1        2 0.23846190E+00 0.18357810E+04</pdfrwt>
<pdfrwt beam="2">  1       -2 0.83624982E-01 0.18357810E+04</pdfrwt>
<totfact> 0.14003367E+01</totfact>
</mgrwt>
</event>
<event>
12    1  0.1489233E-007  0.2397150E+04  0.7818608E-02  0.8440571E-01
          2   -1    0    0  501    0  0.00000000000E+00  0.00000000000E+00  0.94353913147E+03  0.94353913147E+03  0.00000000000E+00 0. -1.
         -2   -1    0    0    0  501 -0.00000000000E+00 -0.00000000000E+00 -0.15225465026E+04  0.15225465026E+04  0.00000000000E+00 0.  1.
         23    2    1    2    0    0 -0.84439838584E+03 -0.58525375684E+03 -0.31572579212E+03  0.10783927331E+04  0.87849400131E+02 0.  0.
        254    2    1    2    0    0  0.84439838584E+03  0.58525375684E+03 -0.26328157897E+03  0.13876929009E+04  0.89489876720E+03 0.  0.
        -24    2    4    4    0    0  0.71329962554E+03  0.74820105033E+03  0.86475111152E+01  0.10369496406E+04  0.81170253707E+02 0.  0.
         24    2    4    4    0    0  0.13109876030E+03 -0.16294729350E+03 -0.27192909008E+03  0.35074326036E+03  0.73052715531E+02 0.  0.
         11    1    3    3    0    0 -0.57353301808E+03 -0.38520155382E+03 -0.17007351499E+03  0.71150921315E+03  0.00000000000E+00 0.  1.
        -11    1    3    3    0    0 -0.27086536776E+03 -0.20005220302E+03 -0.14565227712E+03  0.36688351995E+03  0.00000000000E+00 0. -1.
          2    1    6    6  502    0  0.88315765944E+01  0.75585988063E+01 -0.12116877466E+02  0.16791303719E+02  0.00000000000E+00 0. -1.
          1    1    5    5  503    0  0.28238705862E+03  0.27824824366E+03 -0.34156858411E+02  0.39790856607E+03  0.00000000000E+00 0. -1.
         -2    1    5    5    0  503  0.43091256692E+03  0.46995280668E+03  0.42804369526E+02  0.63904107449E+03  0.00000000000E+00 0.  1.
         -1    1    6    6    0  502  0.12226718371E+03 -0.17050589230E+03 -0.25981221262E+03  0.33395195664E+03  0.00000000000E+00 0.  1.
<mgrwt>
<rscale>  0 0.23971501E+04</rscale>
<asrwt>0</asrwt>
<pdfrwt beam="1">  1        2 0.14515987E+00 0.23971501E+04</pdfrwt>
<pdfrwt beam="2">  1       -2 0.23423792E+00 0.23971501E+04</pdfrwt>
<totfact> 0.19833609E+00</totfact>
</mgrwt>
</event>
<event>
12    1  0.1489233E-007  0.1789080E+04  0.7818608E-02  0.8712128E-01
          2   -1    0    0  501    0  0.00000000000E+00  0.00000000000E+00  0.13614533908E+04  0.13614533908E+04  0.00000000000E+00 0. -1.
         -2   -1    0    0    0  501 -0.00000000000E+00 -0.00000000000E+00 -0.58775547248E+03  0.58775547248E+03  0.00000000000E+00 0.  1.
         23    2    1    2    0    0  0.52539064345E+03 -0.38876226569E+03  0.17788481969E+03  0.68332237565E+03  0.90083475406E+02 0.  0.
        254    2    1    2    0    0 -0.52539064345E+03  0.38876226569E+03  0.59581309857E+03  0.12658864876E+04  0.90570631198E+03 0.  0.
        -24    2    4    4    0    0 -0.69902343075E+03  0.11754847793E+03  0.18203983447E+03  0.73603106740E+03  0.78433598950E+02 0.  0.
         24    2    4    4    0    0  0.17363278729E+03  0.27121378776E+03  0.41377326410E+03  0.52985542018E+03  0.76375314857E+02 0.  0.
         11    1    3    3    0    0  0.89505772068E+02 -0.41391749844E+02  0.12092064974E+01  0.98620598097E+02  0.00000000000E+00 0.  1.
        -11    1    3    3    0    0  0.43588487138E+03 -0.34737051585E+03  0.17667561320E+03  0.58470177756E+03  0.00000000000E+00 0. -1.
          2    1    6    6  502    0  0.13944742409E+02  0.82182418770E+02  0.11141136766E+03  0.13914344627E+03  0.00000000000E+00 0. -1.
          1    1    5    5  503    0 -0.34460368313E+03  0.94857221063E+02  0.76241264331E+02  0.36546179172E+03  0.00000000000E+00 0. -1.
         -2    1    5    5    0  503 -0.35441974761E+03  0.22691256870E+02  0.10579857014E+03  0.37056927568E+03  0.00000000000E+00 0.  1.
         -1    1    6    6    0  502  0.15968804489E+03  0.18903136899E+03  0.30236189645E+03  0.39071197392E+03  0.00000000000E+00 0.  1.
<mgrwt>
<rscale>  0 0.17890799E+04</rscale>
<asrwt>0</asrwt>
<pdfrwt beam="1">  1        2 0.20945437E+00 0.17890799E+04</pdfrwt>
<pdfrwt beam="2">  1       -2 0.90423919E-01 0.17890799E+04</pdfrwt>
<totfact> 0.15043713E+01</totfact>
</mgrwt>
</event>
<event>
12    1  0.1489233E-007  0.3028344E+04  0.7818608E-02  0.8235683E-01
          2   -1    0    0  501    0  0.00000000000E+00  0.00000000000E+00  0.23050112131E+04  0.23050112131E+04  0.00000000000E+00 0. -1.
         -2   -1    0    0    0  501 -0.00000000000E+00 -0.00000000000E+00 -0.99466654495E+03  0.99466654495E+03  0.00000000000E+00 0.  1.
         23    2    1    2    0    0  0.13472403445E+03  0.13272521961E+04  0.97977724766E+03  0.16573840996E+04  0.84909604724E+02 0.  0.
        254    2    1    2    0    0 -0.13472403445E+03 -0.13272521961E+04  0.33056742050E+03  0.16422936585E+04  0.89894642979E+03 0.  0.
        -24    2    4    4    0    0 -0.26395053572E+03 -0.13336611217E+04  0.46607119607E+03  0.14393688028E+04  0.78983022963E+02 0.  0.
         24    2    4    4    0    0  0.12922650127E+03  0.64089256048E+01 -0.13550377557E+03  0.20292485563E+03  0.77952940156E+02 0.  0.
         11    1    3    3    0    0  0.13016093048E+03  0.12969694340E+04  0.97139772891E+03  0.16256337620E+04  0.00000000000E+00 0.  1.
        -11    1    3    3    0    0  0.45631039775E+01  0.30282762158E+02  0.83795187446E+01  0.31750337576E+02  0.00000000000E+00 0. -1.
          2    1    6    6  502    0  0.67716878354E+02  0.42178246499E+02 -0.75678956527E+02  0.10996310542E+03  0.00000000000E+00 0. -1.
          1    1    5    5  503    0 -0.23891329729E+03 -0.12203380269E+04  0.40239141968E+03  0.13069901753E+04  0.00000000000E+00 0. -1.
         -4    1    5    5    0  503 -0.25037238439E+02 -0.11332309477E+03  0.63679776391E+02  0.13237862757E+03  0.00000000000E+00 0.  1.
         -1    1    6    6    0  502  0.61509622917E+02 -0.35769320894E+02 -0.59824819047E+02  0.92961750213E+02  0.00000000000E+00 0.  1.
<mgrwt>
<rscale>  0 0.30283445E+04</rscale>
<asrwt>0</asrwt>
<pdfrwt beam="1">  1        2 0.35461711E+00 0.30283445E+04</pdfrwt>
<pdfrwt beam="2">  1       -2 0.15302562E+00 0.30283445E+04</pdfrwt>
<totfact> 0.10927398E+00</totfact>
</mgrwt>
</event>
<event>
12    1  0.1489233E-007  0.1036846E+04  0.7818608E-02  0.9269031E-01
         -1   -1    0    0    0  501 -0.00000000000E+00  0.00000000000E+00  0.23602387945E+03  0.23602387945E+03  0.00000000000E+00 0.  1.
          1   -1    0    0  501    0  0.00000000000E+00 -0.00000000000E+00 -0.11387091874E+04  0.11387091874E+04  0.00000000000E+00 0. -1.
         23    2    1    2    0    0 -0.74829027384E+02 -0.11742548759E+02 -0.20086704295E+03  0.23130276599E+03  0.86116954323E+02 0.  0.
        254    2    1    2    0    0  0.74829027384E+02  0.11742548759E+02 -0.70181826499E+03  0.11434303009E+04  0.89952582233E+03 0.  0.
        -24    2    4    4    0    0  0.24858516150E+03 -0.17635096091E+03  0.73015662622E+02  0.32343430716E+03  0.79901314923E+02 0.  0.
         24    2    4    4    0    0 -0.17375613412E+03  0.18809350966E+03 -0.77483392761E+03  0.81999599370E+03  0.80345826130E+02 0.  0.
         13    1    3    3    0    0 -0.85037451233E+02  0.13943762223E+02 -0.13904028655E+03  0.16357872081E+03  0.00000000000E+00 0.  1.
        -13    1    3    3    0    0  0.10208423849E+02 -0.25686310982E+02 -0.61826756394E+02  0.67724045180E+02  0.00000000000E+00 0. -1.
          2    1    6    6  502    0 -0.16433557565E+03  0.19586899668E+03 -0.74859205572E+03  0.79105051114E+03  0.00000000000E+00 0. -1.
          3    1    5    5  503    0  0.25280134826E+03 -0.16392545844E+03  0.74077347491E+02  0.31027009365E+03  0.00000000000E+00 0. -1.
         -4    1    5    5    0  503 -0.42161867564E+01 -0.12425502468E+02 -0.10616848699E+01  0.13164213502E+02  0.00000000000E+00 0.  1.
         -1    1    6    6    0  502 -0.94205584650E+01 -0.77754870135E+01 -0.26241871896E+02  0.28945482561E+02  0.00000000000E+00 0.  1.
<mgrwt>
<rscale>  0 0.10368463E+04</rscale>
<asrwt>0</asrwt>
<pdfrwt beam="1">  1        1 0.17518602E+00 0.10368463E+04</pdfrwt>
<pdfrwt beam="2">  1       -1 0.36311367E-01 0.10368463E+04</pdfrwt>
<totfact> 0.86085101E+01</totfact>
</mgrwt>
</event>
<event>
12    1  0.1489233E-007  0.1785015E+04  0.7818608E-02  0.8714309E-01
          1   -1    0    0  501    0  0.00000000000E+00  0.00000000000E+00  0.13546151265E+04  0.13546151265E+04  0.00000000000E+00 0. -1.
         -1   -1    0    0    0  501 -0.00000000000E+00 -0.00000000000E+00 -0.58804122869E+03  0.58804122869E+03  0.00000000000E+00 0.  1.
         23    2    1    2    0    0  0.18199190541E+03 -0.13699232575E+03  0.96493658424E+03  0.99550728215E+03  0.89689387645E+02 0.  0.
        254    2    1    2    0    0 -0.18199190541E+03  0.13699232575E+03 -0.19836268638E+03  0.94714907309E+03  0.89769463647E+03 0.  0.
        -24    2    4    4    0    0 -0.50514162156E+03 -0.40773820207E+02  0.15331611365E+02  0.51335345267E+03  0.80412354856E+02 0.  0.
         24    2    4    4    0    0  0.32314971615E+03  0.17776614596E+03 -0.21369429775E+03  0.43379562042E+03  0.80540956706E+02 0.  0.
         11    1    3    3    0    0  0.19758195423E+02  0.27317273028E+01  0.20550104620E+03  0.20646677362E+03  0.00000000000E+00 0.  1.
        -11    1    3    3    0    0  0.16223370998E+03 -0.13972405305E+03  0.75943553804E+03  0.78904050853E+03  0.00000000000E+00 0. -1.
          2    1    6    6  502    0  0.20517679519E+02  0.35522812203E+02 -0.38628289702E+02  0.56347050721E+02  0.00000000000E+00 0. -1.
          3    1    5    5  503    0 -0.12910524677E+01  0.57174565340E+01  0.42519548031E+01  0.72412184983E+01  0.00000000000E+00 0. -1.
         -4    1    5    5    0  503 -0.50385056909E+03 -0.46491276741E+02  0.11079656562E+02  0.50611223417E+03  0.00000000000E+00 0.  1.
         -1    1    6    6    0  502  0.30263203663E+03  0.14224333375E+03 -0.17506600805E+03  0.37744856970E+03  0.00000000000E+00 0.  1.
<mgrwt>
<rscale>  0 0.17850149E+04</rscale>
<asrwt>0</asrwt>
<pdfrwt beam="1">  1        1 0.20840233E+00 0.17850149E+04</pdfrwt>
<pdfrwt beam="2">  1       -1 0.90467882E-01 0.17850149E+04</pdfrwt>
<totfact> 0.93319687E+00</totfact>
</mgrwt>
</event>
<event>
12    1  0.1489233E-007  0.1756045E+04  0.7818608E-02  0.8730030E-01
         -1   -1    0    0    0  501 -0.00000000000E+00  0.00000000000E+00  0.89949658883E+03  0.89949658883E+03  0.00000000000E+00 0.  1.
          1   -1    0    0  501    0  0.00000000000E+00 -0.00000000000E+00 -0.85706153984E+03  0.85706153984E+03  0.00000000000E+00 0. -1.
         23    2    1    2    0    0  0.48028292379E+03 -0.40859633969E+03 -0.10864328240E+03  0.64637762449E+03  0.91531496983E+02 0.  0.
        254    2    1    2    0    0 -0.48028292379E+03  0.40859633969E+03  0.15107833139E+03  0.11101805042E+04  0.90114007455E+03 0.  0.
        -24    2    4    4    0    0 -0.49995487887E+03 -0.33461554793E+02  0.35206992417E+03  0.61755272382E+03  0.79646585821E+02 0.  0.
         24    2    4    4    0    0  0.19671955082E+02  0.44205789448E+03 -0.20099159278E+03  0.49262778036E+03  0.80512991041E+02 0.  0.
         11    1    3    3    0    0  0.29767963039E+03 -0.29939411027E+03 -0.97570483038E+02  0.43332435285E+03  0.00000000000E+00 0. -1.
        -11    1    3    3    0    0  0.18260329340E+03 -0.10920222941E+03 -0.11072799366E+02  0.21305327163E+03  0.00000000000E+00 0.  1.
          4    1    6    6  502    0  0.45869255116E+02  0.21303421893E+03 -0.11658810513E+03  0.24714439759E+03  0.00000000000E+00 0. -1.
          3    1    5    5  503    0 -0.11412222245E+03  0.17590047845E+02  0.54789470084E+02  0.12780914471E+03  0.00000000000E+00 0. -1.
         -4    1    5    5    0  503 -0.38583265642E+03 -0.51051602637E+02  0.29728045409E+03  0.48974357911E+03  0.00000000000E+00 0.  1.
         -3    1    6    6    0  502 -0.26197300034E+02  0.22902367555E+03 -0.84403487649E+02  0.24548338277E+03  0.00000000000E+00 0.  1.
<mgrwt>
<rscale>  0 0.17560455E+04</rscale>
<asrwt>0</asrwt>
<pdfrwt beam="1">  1        1 0.13185562E+00 0.17560455E+04</pdfrwt>
<pdfrwt beam="2">  1       -1 0.13838409E+00 0.17560455E+04</pdfrwt>
<totfact> 0.80854508E+00</totfact>
</mgrwt>
</event>
<event>
12    1  0.1489233E-007  0.2408414E+04  0.7818608E-02  0.8436360E-01
          3   -1    0    0  501    0  0.00000000000E+00  0.00000000000E+00  0.21351288926E+04  0.21351288926E+04  0.00000000000E+00 0. -1.
         -3   -1    0    0    0  501 -0.00000000000E+00 -0.00000000000E+00 -0.67916966080E+03  0.67916966080E+03  0.00000000000E+00 0.  1.
         23    2    1    2    0    0 -0.64265403700E+03  0.68658204176E+03  0.11297262094E+04  0.14727731116E+04  0.91543534308E+02 0.  0.
        254    2    1    2    0    0  0.64265403700E+03 -0.68658204176E+03  0.32623302242E+03  0.13415254418E+04  0.89936834213E+03 0.  0.
        -24    2    4    4    0    0  0.16291658825E+03 -0.46950182802E+03 -0.24606904898E+03  0.55962759456E+03  0.75228229314E+02 0.  0.
         24    2    4    4    0    0  0.47973744876E+03 -0.21708021374E+03  0.57230207140E+03  0.78189784728E+03  0.81010762923E+02 0.  0.
         13    1    3    3    0    0 -0.90829335646E+02  0.61197036192E+02  0.15723162302E+03  0.19161635820E+03  0.00000000000E+00 0. -1.
        -13    1    3    3    0    0 -0.55182470136E+03  0.62538500557E+03  0.97249458638E+03  0.12811567534E+04  0.00000000000E+00 0.  1.
          4    1    6    6  502    0  0.45839098702E+03 -0.21859620919E+03  0.52741381954E+03  0.73216933608E+03  0.00000000000E+00 0. -1.
          3    1    5    5  503    0  0.10857712607E+03 -0.20157930775E+03 -0.10274221284E+03  0.25095651399E+03  0.00000000000E+00 0. -1.
         -4    1    5    5    0  503  0.54339462181E+02 -0.26792252028E+03 -0.14332683614E+03  0.30867108057E+03  0.00000000000E+00 0.  1.
         -3    1    6    6    0  502  0.21346461740E+02  0.15159954490E+01  0.44888251861E+02  0.49728511200E+02  0.00000000000E+00 0.  1.
<mgrwt>
<rscale>  0 0.24084142E+04</rscale>
<asrwt>0</asrwt>
<pdfrwt beam="1">  1        3 0.32848137E+00 0.24084142E+04</pdfrwt>
<pdfrwt beam="2">  1       -3 0.10448764E+00 0.24084142E+04</pdfrwt>
<totfact> 0.49848057E-02</totfact>
</mgrwt>
</event>
<event>
12    1  0.1489233E-007  0.1805011E+04  0.7818608E-02  0.8703639E-01
          1   -1    0    0  501    0  0.00000000000E+00  0.00000000000E+00  0.51875085239E+03  0.51875085239E+03  0.00000000000E+00 0. -1.
         -1   -1    0    0    0  501 -0.00000000000E+00 -0.00000000000E+00 -0.15701482632E+04  0.15701482632E+04  0.00000000000E+00 0.  1.
         23    2    1    2    0    0 -0.10937253681E+02 -0.21851439706E+03 -0.11342827114E+04  0.11590219343E+04  0.94161614452E+02 0.  0.
        254    2    1    2    0    0  0.10937253681E+02  0.21851439706E+03  0.82885300579E+02  0.92987718126E+03  0.89996301810E+03 0.  0.
        -24    2    4    4    0    0  0.13913347992E+03  0.54267755345E+03  0.86314599978E+02  0.57243397500E+03  0.79833535003E+02 0.  0.
         24    2    4    4    0    0 -0.12819622624E+03 -0.32416315639E+03 -0.34292993997E+01  0.35744320627E+03  0.78980131860E+02 0.  0.
         13    1    3    3    0    0 -0.50753113057E+02 -0.88069399288E+02 -0.46366334662E+03  0.47467441112E+03  0.00000000000E+00 0.  1.
        -13    1    3    3    0    0  0.39815859376E+02 -0.13044499777E+03 -0.67061936478E+03  0.68434752321E+03  0.00000000000E+00 0. -1.
          4    1    6    6  502    0 -0.83824277505E+02 -0.13928293982E+03 -0.30491804371E+02  0.16539648412E+03  0.00000000000E+00 0. -1.
          1    1    5    5  503    0  0.12682774756E+03  0.47330113893E+03  0.48300412270E+02  0.49237401992E+03  0.00000000000E+00 0. -1.
         -2    1    5    5    0  503  0.12305732357E+02  0.69376414514E+02  0.38014187709E+02  0.80059955076E+02  0.00000000000E+00 0.  1.
         -3    1    6    6    0  502 -0.44371948734E+02 -0.18488021657E+03  0.27062504971E+02  0.19204672215E+03  0.00000000000E+00 0.  1.
<mgrwt>
<rscale>  0 0.18050105E+04</rscale>
<asrwt>0</asrwt>
<pdfrwt beam="1">  1        1 0.79807824E-01 0.18050105E+04</pdfrwt>
<pdfrwt beam="2">  1       -1 0.24156127E+00 0.18050105E+04</pdfrwt>
<totfact> 0.31451691E+00</totfact>
</mgrwt>
</event>
<event>
12    1  0.1489233E-007  0.1667619E+04  0.7818608E-02  0.8780051E-01
          2   -1    0    0  501    0  0.00000000000E+00  0.00000000000E+00  0.62419171977E+03  0.62419171977E+03  0.00000000000E+00 0. -1.
         -2   -1    0    0    0  501 -0.00000000000E+00 -0.00000000000E+00 -0.11138214961E+04  0.11138214961E+04  0.00000000000E+00 0.  1.
         23    2    1    2    0    0 -0.27829353736E+01  0.56206376425E+03 -0.93784026447E+01  0.56944217707E+03  0.90846126949E+02 0.  0.
        254    2    1    2    0    0  0.27829353736E+01 -0.56206376425E+03 -0.48025137366E+03  0.11685710388E+04  0.90498258047E+03 0.  0.
        -24    2    4    4    0    0 -0.23403544820E+03 -0.29801445173E+03  0.17043507358E+03  0.42350564372E+03  0.81998240853E+02 0.  0.
         24    2    4    4    0    0  0.23681838357E+03 -0.26404931252E+03 -0.65068644725E+03  0.74506539506E+03  0.76971449517E+02 0.  0.
         11    1    3    3    0    0 -0.45413541659E+02  0.27144451639E+03  0.63707186660E+01  0.27529093937E+03  0.00000000000E+00 0. -1.
        -11    1    3    3    0    0  0.42630606285E+02  0.29061924786E+03 -0.15749121311E+02  0.29415123770E+03  0.00000000000E+00 0.  1.
          2    1    6    6  502    0  0.28982246514E+01 -0.11455778625E+01 -0.40929404952E+02  0.41047877466E+02  0.00000000000E+00 0. -1.
          1    1    5    5  503    0 -0.52439532230E+02 -0.10045007863E+03  0.85792746860E+02  0.14212852722E+03  0.00000000000E+00 0. -1.
         -2    1    5    5    0  503 -0.18159591597E+03 -0.19756437310E+03  0.84642326723E+02  0.28137711650E+03  0.00000000000E+00 0.  1.
         -1    1    6    6    0  502  0.23392015892E+03 -0.26290373466E+03 -0.60975704229E+03  0.70401751759E+03  0.00000000000E+00 0.  1.
<mgrwt>
<rscale>  0 0.16676188E+04</rscale>
<asrwt>0</asrwt>
<pdfrwt beam="1">  1        2 0.96029496E-01 0.16676188E+04</pdfrwt>
<pdfrwt beam="2">  1       -2 0.17135715E+00 0.16676188E+04</pdfrwt>
<totfact> 0.93906903E+00</totfact>
</mgrwt>
</event>
<event>
12    1  0.1489233E-007  0.1765036E+04  0.7818608E-02  0.8725117E-01
         -2   -1    0    0    0  501 -0.00000000000E+00  0.00000000000E+00  0.55230958416E+03  0.55230958416E+03  0.00000000000E+00 0.  1.
          2   -1    0    0  501    0  0.00000000000E+00 -0.00000000000E+00 -0.14101473084E+04  0.14101473084E+04  0.00000000000E+00 0. -1.
         23    2    1    2    0    0  0.62310985951E+03 -0.20228800800E+03 -0.29683208221E+03  0.72489988068E+03  0.90466661174E+02 0.  0.
        254    2    1    2    0    0 -0.62310985951E+03  0.20228800800E+03 -0.56100564206E+03  0.12375570119E+04  0.88748729123E+03 0.  0.
        -24    2    4    4    0    0 -0.84595584106E+00  0.33007590018E+03 -0.48411525456E+03  0.59145428289E+03  0.80621172962E+02 0.  0.
         24    2    4    4    0    0 -0.62226390367E+03 -0.12778789218E+03 -0.76890387498E+02  0.64610272902E+03  0.89411931857E+02 0.  0.
         13    1    3    3    0    0  0.27845163087E+03 -0.89581834703E+02 -0.18212356012E+03  0.34457104781E+03  0.00000000000E+00 0. -1.
        -13    1    3    3    0    0  0.34465822864E+03 -0.11270617330E+03 -0.11470852209E+03  0.38032883287E+03  0.00000000000E+00 0.  1.
          2    1    6    6  502    0 -0.61299346251E+01  0.16704789215E+01  0.86478931299E+01  0.10730920460E+02  0.00000000000E+00 0. -1.
          1    1    5    5  503    0 -0.32286092595E+02  0.63640784696E+02 -0.10860608682E+03  0.12995315828E+03  0.00000000000E+00 0. -1.
         -2    1    5    5    0  503  0.31440136754E+02  0.26643511548E+03 -0.37550916774E+03  0.46150112461E+03  0.00000000000E+00 0.  1.
         -1    1    6    6    0  502 -0.61613396904E+03 -0.12945837110E+03 -0.85538280628E+02  0.63537180856E+03  0.00000000000E+00 0.  1.
<mgrwt>
<rscale>  0 0.17650358E+04</rscale>
<asrwt>0</asrwt>
<pdfrwt beam="1">  1        2 0.21694574E+00 0.17650358E+04</pdfrwt>
<pdfrwt beam="2">  1       -2 0.84970705E-01 0.17650358E+04</pdfrwt>
<totfact> 0.16300677E+01</totfact>
</mgrwt>
</event>
<event>
12    1  0.1489233E-007  0.1728804E+04  0.7818608E-02  0.8745105E-01
          1   -1    0    0  501    0  0.00000000000E+00  0.00000000000E+00  0.27567972301E+04  0.27567972301E+04  0.00000000000E+00 0. -1.
         -1   -1    0    0    0  501 -0.00000000000E+00 -0.00000000000E+00 -0.27103593198E+03  0.27103593198E+03  0.00000000000E+00 0.  1.
         23    2    1    2    0    0  0.10922033527E+03  0.24799124647E+03 -0.80862563270E+02  0.29761328235E+03  0.92769454722E+02 0.  0.
        254    2    1    2    0    0 -0.10922033527E+03 -0.24799124647E+03  0.25666238614E+04  0.27302198798E+04  0.89056937177E+03 0.  0.
        -24    2    4    4    0    0  0.24106627850E+03  0.20299333128E+02  0.19548720225E+04  0.19715287932E+04  0.82922520911E+02 0.  0.
         24    2    4    4    0    0 -0.35028661377E+03 -0.26829057959E+03  0.61175183887E+03  0.75869108653E+03  0.81800400607E+02 0.  0.
         13    1    3    3    0    0 -0.16565119636E+02  0.32995412446E+02 -0.51870982106E+01  0.37282789849E+02  0.00000000000E+00 0. -1.
        -13    1    3    3    0    0  0.12578545490E+03  0.21499583402E+03 -0.75675465060E+02  0.26033049250E+03  0.00000000000E+00 0.  1.
          2    1    6    6  502    0 -0.28513794452E+03 -0.22970232689E+03  0.45038690367E+03  0.58044394163E+03  0.00000000000E+00 0. -1.
          1    1    5    5  503    0  0.23038247153E+03  0.38961847784E+02  0.18234487006E+04  0.18383577651E+04  0.00000000000E+00 0. -1.
         -2    1    5    5    0  503  0.10683806971E+02 -0.18662514656E+02  0.13142332193E+03  0.13317102812E+03  0.00000000000E+00 0.  1.
         -1    1    6    6    0  502 -0.65148669243E+02 -0.38588252704E+02  0.16136493520E+03  0.17824714490E+03  0.00000000000E+00 0.  1.
<mgrwt>
<rscale>  0 0.17288043E+04</rscale>
<asrwt>0</asrwt>
<pdfrwt beam="1">  1        1 0.42412263E+00 0.17288043E+04</pdfrwt>
<pdfrwt beam="2">  1       -1 0.41697838E-01 0.17288043E+04</pdfrwt>
<totfact> 0.48033908E+00</totfact>
</mgrwt>
</event>
<event>
12    1  0.1489233E-007  0.2312271E+04  0.7818608E-02  0.8473098E-01
          1   -1    0    0  501    0  0.00000000000E+00  0.00000000000E+00  0.26824158715E+04  0.26824158715E+04  0.00000000000E+00 0. -1.
         -1   -1    0    0    0  501 -0.00000000000E+00 -0.00000000000E+00 -0.49830065508E+03  0.49830065508E+03  0.00000000000E+00 0.  1.
         23    2    1    2    0    0  0.10029577386E+03 -0.83033995806E+03  0.16242212526E+04  0.18292726481E+04  0.92844254823E+02 0.  0.
        254    2    1    2    0    0 -0.10029577386E+03  0.83033995806E+03  0.55989396381E+03  0.13514438784E+04  0.90188448130E+03 0.  0.
        -24    2    4    4    0    0  0.33163719383E+03  0.66008818907E+02  0.18449828375E+03  0.39312616072E+03  0.78537691781E+02 0.  0.
         24    2    4    4    0    0 -0.43193296769E+03  0.76433113916E+03  0.37539568006E+03  0.95831771770E+03  0.81748104470E+02 0.  0.
         11    1    3    3    0    0  0.99572649097E+01 -0.25789820809E+03  0.42209531152E+03  0.49474749606E+03  0.00000000000E+00 0.  1.
        -11    1    3    3    0    0  0.90338508950E+02 -0.57244174998E+03  0.12021259411E+04  0.13345251521E+04  0.00000000000E+00 0. -1.
          4    1    6    6  502    0 -0.15115063231E+03  0.32349576328E+03  0.12080742535E+03  0.37694887787E+03  0.00000000000E+00 0. -1.
          3    1    5    5  503    0  0.14646068207E+03 -0.78564072029E+01  0.93795640196E+02  0.17409789386E+03  0.00000000000E+00 0. -1.
         -4    1    5    5    0  503  0.18517651176E+03  0.73865226110E+02  0.90702643552E+02  0.21902826686E+03  0.00000000000E+00 0.  1.
         -3    1    6    6    0  502 -0.28078233538E+03  0.44083537587E+03  0.25458825472E+03  0.58136883983E+03  0.00000000000E+00 0.  1.
<mgrwt>
<rscale>  0 0.23122713E+04</rscale>
<asrwt>0</asrwt>
<pdfrwt beam="1">  1        1 0.41267936E+00 0.23122713E+04</pdfrwt>
<pdfrwt beam="2">  1       -1 0.76661641E-01 0.23122713E+04</pdfrwt>
<totfact> 0.15569039E+00</totfact>
</mgrwt>
</event>
<event>
12    1  0.1489233E-007  0.1207699E+04  0.7818608E-02  0.9106145E-01
         -2   -1    0    0    0  501 -0.00000000000E+00  0.00000000000E+00  0.22428817075E+03  0.22428817075E+03  0.00000000000E+00 0. -1.
          2   -1    0    0  501    0  0.00000000000E+00 -0.00000000000E+00 -0.16257388447E+04  0.16257388447E+04  0.00000000000E+00 0.  1.
         23    2    1    2    0    0  0.14840603791E+02 -0.10136900355E+03  0.45411646219E+02  0.14559545515E+03  0.92951065327E+02 0.  0.
        254    2    1    2    0    0 -0.14840603791E+02  0.10136900355E+03 -0.14468623202E+04  0.17044315603E+04  0.89508684038E+03 0.  0.
        -24    2    4    4    0    0 -0.15554533445E+03 -0.26513737849E+03 -0.15762504586E+03  0.35439975958E+03  0.79128717726E+02 0.  0.
         24    2    4    4    0    0  0.14070473066E+03  0.36650638204E+03 -0.12892372743E+04  0.13500318007E+04  0.79551016135E+02 0.  0.
         13    1    3    3    0    0  0.33269275845E+02 -0.14940652099E+02 -0.14048816878E+02  0.39082439229E+02  0.00000000000E+00 0.  1.
        -13    1    3    3    0    0 -0.18428672053E+02 -0.86428351455E+02  0.59460463097E+02  0.10651301592E+03  0.00000000000E+00 0. -1.
          2    1    6    6  502    0  0.18323504817E+01  0.33663000103E+02 -0.58271930009E+02  0.67321414953E+02  0.00000000000E+00 0. -1.
          1    1    5    5  503    0 -0.85638431630E+02 -0.13169109866E+03 -0.12378386771E+03  0.19999733084E+03  0.00000000000E+00 0. -1.
         -2    1    5    5    0  503 -0.69906902824E+02 -0.13344627983E+03 -0.33841178144E+02  0.15440242874E+03  0.00000000000E+00 0.  1.
         -1    1    6    6    0  502  0.13887238018E+03  0.33284338194E+03 -0.12309653443E+04  0.12827103858E+04  0.00000000000E+00 0.  1.
<mgrwt>
<rscale>  0 0.12076986E+04</rscale>
<asrwt>0</asrwt>
<pdfrwt beam="1">  1        2 0.25011366E+00 0.12076986E+04</pdfrwt>
<pdfrwt beam="2">  1       -2 0.34505873E-01 0.12076986E+04</pdfrwt>
<totfact> 0.83728514E+01</totfact>
</mgrwt>
</event>
<event>
12    1  0.1489233E-007  0.1639160E+04  0.7818608E-02  0.8796845E-01
         -2   -1    0    0    0  501 -0.00000000000E+00  0.00000000000E+00  0.30787390605E+03  0.30787390605E+03  0.00000000000E+00 0.  1.
          2   -1    0    0  501    0  0.00000000000E+00 -0.00000000000E+00 -0.21817739398E+04  0.21817739398E+04  0.00000000000E+00 0. -1.
         23    2    1    2    0    0 -0.59284155431E+02  0.55631532821E+03 -0.60335723685E+03  0.82793265990E+03  0.91821449434E+02 0.  0.
        254    2    1    2    0    0  0.59284155431E+02 -0.55631532821E+03 -0.12705427969E+04  0.16617151860E+04  0.91324531480E+03 0.  0.
        -24    2    4    4    0    0  0.15298123669E+03 -0.32970599098E+03 -0.71072706402E+01  0.37218721320E+03  0.79771605939E+02 0.  0.
         24    2    4    4    0    0 -0.93697081255E+02 -0.22660933724E+03 -0.12634355263E+04  0.12895279728E+04  0.80511668422E+02 0.  0.
         13    1    3    3    0    0 -0.15224238617E+02  0.86654903795E+01 -0.17678290764E+02  0.24887549685E+02  0.00000000000E+00 0. -1.
        -13    1    3    3    0    0 -0.44059916814E+02  0.54764983783E+03 -0.58567894609E+03  0.80304511021E+03  0.00000000000E+00 0.  1.
          4    1    6    6  502    0 -0.73455368591E+02 -0.80428171219E+02 -0.46692507411E+03  0.47946158004E+03  0.00000000000E+00 0. -1.
          1    1    5    5  503    0  0.12362178477E+03 -0.20314000377E+03 -0.31860902814E+02  0.23992357936E+03  0.00000000000E+00 0. -1.
         -2    1    5    5    0  503  0.29359451917E+02 -0.12656598720E+03  0.24753632174E+02  0.13226363385E+03  0.00000000000E+00 0.  1.
         -3    1    6    6    0  502 -0.20241712663E+02 -0.14618116602E+03 -0.79651045215E+03  0.81006639272E+03  0.00000000000E+00 0.  1.
<mgrwt>
<rscale>  0 0.16391599E+04</rscale>
<asrwt>0</asrwt>
<pdfrwt beam="1">  1        2 0.33565751E+00 0.16391599E+04</pdfrwt>
<pdfrwt beam="2">  1       -2 0.47365220E-01 0.16391599E+04</pdfrwt>
<totfact> 0.21366902E+01</totfact>
</mgrwt>
</event>
<event>
12    1  0.1489233E-007  0.1411847E+04  0.7818608E-02  0.8945287E-01
          4   -1    0    0  501    0  0.00000000000E+00  0.00000000000E+00  0.34720588348E+03  0.34720588348E+03  0.00000000000E+00 0. -1.
         -4   -1    0    0    0  501 -0.00000000000E+00 -0.00000000000E+00 -0.14352523230E+04  0.14352523230E+04  0.00000000000E+00 0.  1.
         23    2    1    2    0    0  0.29892590143E+03  0.22678249445E+03 -0.10673510418E+03  0.40006561663E+03  0.88730608076E+02 0.  0.
        254    2    1    2    0    0 -0.29892590143E+03 -0.22678249445E+03 -0.98131133536E+03  0.13823925899E+04  0.89847111323E+03 0.  0.
        -24    2    4    4    0    0 -0.49351908785E+02  0.50582000043E+02  0.15236782013E+03  0.18618123678E+03  0.80332749790E+02 0.  0.
         24    2    4    4    0    0 -0.24957399264E+03 -0.27736449450E+03 -0.11336791555E+04  0.11962113531E+04  0.80466968905E+02 0.  0.
         13    1    3    3    0    0  0.39661978719E+02  0.18530578482E+02  0.14490514142E+02  0.46113229066E+02  0.00000000000E+00 0.  1.
        -13    1    3    3    0    0  0.25926392271E+03  0.20825191597E+03 -0.12122561832E+03  0.35395238756E+03  0.00000000000E+00 0. -1.
          2    1    6    6  502    0 -0.72554194811E+02 -0.36916908408E+02 -0.19926507779E+03  0.21525227186E+03  0.00000000000E+00 0. -1.
          1    1    5    5  503    0  0.11006699899E+02 -0.56781650038E+01 -0.57689448762E+00  0.12398459893E+02  0.00000000000E+00 0. -1.
         -2    1    5    5    0  503 -0.60358608684E+02  0.56260165047E+02  0.15294471461E+03  0.17378277689E+03  0.00000000000E+00 0.  1.
         -1    1    6    6    0  502 -0.17701979783E+03 -0.24044758609E+03 -0.93441407770E+03  0.98095908124E+03  0.00000000000E+00 0.  1.
<mgrwt>
<rscale>  0 0.14118471E+04</rscale>
<asrwt>0</asrwt>
<pdfrwt beam="1">  1        4 0.53416290E-01 0.14118471E+04</pdfrwt>
<pdfrwt beam="2">  1       -4 0.22080805E+00 0.14118471E+04</pdfrwt>
<totfact> 0.63029225E-01</totfact>
</mgrwt>
</event>
<event>
12    1  0.1489233E-007  0.2466615E+04  0.7818608E-02  0.8414976E-01
          1   -1    0    0  501    0  0.00000000000E+00  0.00000000000E+00  0.91423036700E+03  0.91423036700E+03  0.00000000000E+00 0.  1.
         -1   -1    0    0    0  501 -0.00000000000E+00 -0.00000000000E+00 -0.16637464715E+04  0.16637464715E+04  0.00000000000E+00 0. -1.
         23    2    1    2    0    0  0.15804320074E+03 -0.66477765437E+03  0.52970251164E+03  0.86939342661E+03  0.91395822343E+02 0.  0.
        254    2    1    2    0    0 -0.15804320074E+03  0.66477765437E+03 -0.12792186161E+04  0.17085834119E+04  0.90329952090E+03 0.  0.
        -24    2    4    4    0    0 -0.34253573003E+03 -0.76505362807E+02 -0.33664456227E+03  0.49270951899E+03  0.79052589521E+02 0.  0.
         24    2    4    4    0    0  0.18449252930E+03  0.74128301717E+03 -0.94257405388E+03  0.12158738929E+04  0.79783904923E+02 0.  0.
         11    1    3    3    0    0  0.14834898032E+03 -0.56644915459E+03  0.48761533004E+03  0.76199788372E+03  0.00000000000E+00 0.  1.
        -11    1    3    3    0    0  0.96942204192E+01 -0.98328499772E+02  0.42087181605E+02  0.10739554289E+03  0.00000000000E+00 0. -1.
          2    1    6    6  502    0  0.11654317618E+03  0.41992390791E+03 -0.47708502940E+03  0.64616447258E+03  0.00000000000E+00 0. -1.
          3    1    5    5  503    0 -0.10304876718E+03  0.33092597442E+01 -0.13354094592E+03  0.16871035491E+03  0.00000000000E+00 0. -1.
         -4    1    5    5    0  503 -0.23948696285E+03 -0.79814622551E+02 -0.20310361635E+03  0.32399916408E+03  0.00000000000E+00 0.  1.
         -1    1    6    6    0  502  0.67949353118E+02  0.32135910927E+03 -0.46548902447E+03  0.56970942032E+03  0.00000000000E+00 0.  1.
<mgrwt>
<rscale>  0 0.24666151E+04</rscale>
<asrwt>0</asrwt>
<pdfrwt beam="1">  1        1 0.14065083E+00 0.24666151E+04</pdfrwt>
<pdfrwt beam="2">  1       -1 0.25596099E+00 0.24666151E+04</pdfrwt>
<totfact> 0.10061022E+00</totfact>
</mgrwt>
</event>
<event>
12    1  0.1489233E-007  0.3530768E+04  0.7818608E-02  0.8106537E-01
          1   -1    0    0  501    0  0.00000000000E+00  0.00000000000E+00  0.18765290165E+04  0.18765290165E+04  0.00000000000E+00 0. -1.
         -1   -1    0    0    0  501 -0.00000000000E+00 -0.00000000000E+00 -0.16608220922E+04  0.16608220922E+04  0.00000000000E+00 0.  1.
         23    2    1    2    0    0 -0.91452712762E+03 -0.13367216175E+04 -0.32209600759E+03  0.16538451596E+04  0.90958363835E+02 0.  0.
        254    2    1    2    0    0  0.91452712762E+03  0.13367216175E+04  0.53780293186E+03  0.18835059491E+04  0.79698062533E+03 0.  0.
        -24    2    4    4    0    0  0.25448741346E+03  0.34529124315E+03  0.53323030074E+03  0.68976950261E+03  0.86356973622E+02 0.  0.
         24    2    4    4    0    0  0.66003971415E+03  0.99143037434E+03  0.45726311167E+01  0.11937364465E+04  0.79994896174E+02 0.  0.
         11    1    3    3    0    0 -0.23191408651E+03 -0.30018730244E+03 -0.10789154758E+03  0.39438197995E+03  0.00000000000E+00 0. -1.
        -11    1    3    3    0    0 -0.68261304110E+03 -0.10365343150E+04 -0.21420446002E+03  0.12594631796E+04  0.00000000000E+00 0.  1.
          2    1    6    6  502    0  0.56325521181E+03  0.81908054280E+03 -0.21950102511E+02  0.99429933935E+03  0.00000000000E+00 0. -1.
          1    1    5    5  503    0  0.77763473016E+02  0.17196302244E+03  0.20473743619E+03  0.27845261105E+03  0.00000000000E+00 0. -1.
         -2    1    5    5    0  503  0.17672394045E+03  0.17332822071E+03  0.32849286455E+03  0.41131689156E+03  0.00000000000E+00 0.  1.
         -1    1    6    6    0  502  0.96784502343E+02  0.17234983154E+03  0.26522733628E+02  0.19943710719E+03  0.00000000000E+00 0.  1.
<mgrwt>
<rscale>  0 0.35307681E+04</rscale>
<asrwt>0</asrwt>
<pdfrwt beam="1">  1        1 0.28869677E+00 0.35307681E+04</pdfrwt>
<pdfrwt beam="2">  1       -1 0.25551109E+00 0.35307681E+04</pdfrwt>
<totfact> 0.18876341E-01</totfact>
</mgrwt>
</event>
<event>
12    1  0.1489233E-007  0.1205290E+04  0.7818608E-02  0.9108239E-01
         -1   -1    0    0    0  501 -0.00000000000E+00  0.00000000000E+00  0.13121202119E+04  0.13121202119E+04  0.00000000000E+00 0.  1.
          1   -1    0    0  501    0  0.00000000000E+00 -0.00000000000E+00 -0.27678948089E+03  0.27678948089E+03  0.00000000000E+00 0. -1.
         23    2    1    2    0    0 -0.93240707775E+02  0.14093337940E+03  0.40725479874E+03  0.45045132786E+03  0.92162251784E+02 0.  0.
        254    2    1    2    0    0  0.93240707775E+02 -0.14093337940E+03  0.62807593225E+03  0.11384583649E+04  0.93437253007E+03 0.  0.
        -24    2    4    4    0    0 -0.28413815874E+02 -0.39558970281E+03 -0.41903461031E+02  0.40697690056E+03  0.81090934389E+02 0.  0.
         24    2    4    4    0    0  0.12165452365E+03  0.25465632341E+03  0.66997939328E+03  0.73148146435E+03  0.80889301528E+02 0.  0.
         11    1    3    3    0    0  0.40018592625E+01  0.12547850332E+02  0.12330307965E+03  0.12400448732E+03  0.00000000000E+00 0. -1.
        -11    1    3    3    0    0 -0.97242567038E+02  0.12838552907E+03  0.28395171910E+03  0.32644684054E+03  0.00000000000E+00 0.  1.
          2    1    6    6  502    0  0.59388435975E+02  0.20071301314E+03  0.44154739912E+03  0.48864793630E+03  0.00000000000E+00 0. -1.
          1    1    5    5  503    0 -0.13989885071E+02 -0.58071167344E+02 -0.34686188847E+02  0.69073215198E+02  0.00000000000E+00 0. -1.
         -2    1    5    5    0  503 -0.14423930803E+02 -0.33751853546E+03 -0.72172721839E+01  0.33790368536E+03  0.00000000000E+00 0.  1.
         -1    1    6    6    0  502  0.62266087674E+02  0.53943310264E+02  0.22843199415E+03  0.24283352806E+03  0.00000000000E+00 0.  1.
<mgrwt>
<rscale>  0 0.12052901E+04</rscale>
<asrwt>0</asrwt>
<pdfrwt beam="1">  1        1 0.42582998E-01 0.12052901E+04</pdfrwt>
<pdfrwt beam="2">  1       -1 0.20186464E+00 0.12052901E+04</pdfrwt>
<totfact> 0.14083841E+01</totfact>
</mgrwt>
</event>
<event>
12    1  0.1489233E-007  0.1178384E+04  0.7818608E-02  0.9131990E-01
         -1   -1    0    0    0  501 -0.00000000000E+00  0.00000000000E+00  0.14633940842E+03  0.14633940842E+03  0.00000000000E+00 0.  1.
          1   -1    0    0  501    0  0.00000000000E+00 -0.00000000000E+00 -0.23722052305E+04  0.23722052305E+04  0.00000000000E+00 0. -1.
         23    2    1    2    0    0 -0.21907215737E+03  0.10314907043E+02 -0.30952115162E+03  0.39049098013E+03  0.92632903547E+02 0.  0.
        254    2    1    2    0    0  0.21907215737E+03 -0.10314907043E+02 -0.19163446704E+04  0.21280536588E+04  0.89896411007E+03 0.  0.
        -24    2    4    4    0    0 -0.19876904596E+03 -0.32900049191E+03 -0.84506648909E+03  0.93216743587E+03  0.83954155355E+02 0.  0.
         24    2    4    4    0    0  0.41784120333E+03  0.31868558487E+03 -0.10712781814E+04  0.11958862229E+04  0.79719151156E+02 0.  0.
         11    1    3    3    0    0 -0.77295574937E+02  0.97779013599E+01 -0.18893034636E+03  0.20436459829E+03  0.00000000000E+00 0. -1.
        -11    1    3    3    0    0 -0.14177658244E+03  0.53700568338E+00 -0.12059080526E+03  0.18612638184E+03  0.00000000000E+00 0.  1.
          2    1    6    6  502    0  0.55790729846E+02  0.40370409537E+02 -0.21043793629E+03  0.22141928672E+03  0.00000000000E+00 0. -1.
          3    1    5    5  503    0 -0.82907975771E+02 -0.85803941111E+02 -0.19660204678E+03  0.22997481070E+03  0.00000000000E+00 0. -1.
         -2    1    5    5    0  503 -0.11586107019E+03 -0.24319655080E+03 -0.64846444231E+03  0.70219262517E+03  0.00000000000E+00 0.  1.
         -1    1    6    6    0  502  0.36205047349E+03  0.27831517533E+03 -0.86084024506E+03  0.97446693617E+03  0.00000000000E+00 0.  1.
<mgrwt>
<rscale>  0 0.11783838E+04</rscale>
<asrwt>0</asrwt>
<pdfrwt beam="1">  1        1 0.36495463E+00 0.11783838E+04</pdfrwt>
<pdfrwt beam="2">  1       -1 0.22513756E-01 0.11783838E+04</pdfrwt>
<totfact> 0.27717055E+01</totfact>
</mgrwt>
</event>
<event>
12    1  0.1489233E-007  0.1113450E+04  0.7818608E-02  0.9192181E-01
          1   -1    0    0  501    0  0.00000000000E+00  0.00000000000E+00  0.55838634722E+03  0.55838634722E+03  0.00000000000E+00 0. -1.
         -1   -1    0    0    0  501 -0.00000000000E+00 -0.00000000000E+00 -0.55506852269E+03  0.55506852269E+03  0.00000000000E+00 0.  1.
         23    2    1    2    0    0 -0.66457966297E+02  0.10199834669E+03  0.12915103890E+03  0.19887425155E+03  0.89725431551E+02 0.  0.
        254    2    1    2    0    0  0.66457966297E+02 -0.10199834669E+03 -0.12583321438E+03  0.91458061836E+03  0.89766551991E+03 0.  0.
        -24    2    4    4    0    0  0.35043907520E+03  0.18679988586E+03  0.13369099644E+03  0.42694976197E+03  0.81921144601E+02 0.  0.
         24    2    4    4    0    0 -0.28398110891E+03 -0.28879823255E+03 -0.25952421081E+03  0.48763085639E+03  0.79883332200E+02 0.  0.
         13    1    3    3    0    0  0.56848813227E+01  0.99497533327E+01 -0.11308781362E+02  0.16099813754E+02  0.00000000000E+00 0.  1.
        -13    1    3    3    0    0 -0.72142847620E+02  0.92048593358E+02  0.14045982026E+03  0.18277443779E+03  0.00000000000E+00 0. -1.
          2    1    6    6  502    0 -0.88829102687E+02 -0.59088586379E+02 -0.36800777075E+02  0.11285551700E+03  0.00000000000E+00 0. -1.
          3    1    5    5  503    0  0.13538632782E+03  0.94908213864E+02  0.92601536526E+02  0.18950480571E+03  0.00000000000E+00 0. -1.
         -4    1    5    5    0  503  0.21505274738E+03  0.91891671999E+02  0.41089459910E+02  0.23744495626E+03  0.00000000000E+00 0.  1.
         -1    1    6    6    0  502 -0.19515200622E+03 -0.22970964618E+03 -0.22272343374E+03  0.37477533939E+03  0.00000000000E+00 0.  1.
<mgrwt>
<rscale>  0 0.11134499E+04</rscale>
<asrwt>0</asrwt>
<pdfrwt beam="1">  1        1 0.85905592E-01 0.11134499E+04</pdfrwt>
<pdfrwt beam="2">  1       -1 0.85395157E-01 0.11134499E+04</pdfrwt>
<totfact> 0.51263300E+01</totfact>
</mgrwt>
</event>
<event>
12    1  0.1489233E-007  0.1472576E+04  0.7818608E-02  0.8902897E-01
         -2   -1    0    0    0  501 -0.00000000000E+00  0.00000000000E+00  0.24986428012E+03  0.24986428012E+03  0.00000000000E+00 0.  1.
          2   -1    0    0  501    0  0.00000000000E+00 -0.00000000000E+00 -0.21696572405E+04  0.21696572405E+04  0.00000000000E+00 0. -1.
         23    2    1    2    0    0  0.34015511242E+02 -0.23067653000E+03 -0.11999660118E+04  0.12258856097E+04  0.92240891307E+02 0.  0.
        254    2    1    2    0    0 -0.34015511242E+02  0.23067653000E+03 -0.71982694856E+03  0.11936359109E+04  0.92317232166E+03 0.  0.
        -24    2    4    4    0    0 -0.34630496988E+03  0.57643772974E+02 -0.74498729523E+03  0.82721898587E+03  0.77686831579E+02 0.  0.
         24    2    4    4    0    0  0.31228945864E+03  0.17303275702E+03  0.25160346672E+02  0.36641692505E+03  0.78506553489E+02 0.  0.
         13    1    3    3    0    0  0.17847020758E+02 -0.19556325317E+03 -0.11197684679E+04  0.11368574774E+04  0.00000000000E+00 0. -1.
        -13    1    3    3    0    0  0.16168490484E+02 -0.35113276827E+02 -0.80197543888E+02  0.89028132294E+02  0.00000000000E+00 0.  1.
          2    1    6    6  502    0  0.31714015270E+03  0.17079555396E+03  0.24601611169E+02  0.36104603167E+03  0.00000000000E+00 0. -1.
          3    1    5    5  503    0 -0.16384059688E+03 -0.10874915677E+02 -0.31997502943E+03  0.35964708317E+03  0.00000000000E+00 0. -1.
         -4    1    5    5    0  503 -0.18246437300E+03  0.68518688651E+02 -0.42501226581E+03  0.46757190270E+03  0.00000000000E+00 0.  1.
         -1    1    6    6    0  502 -0.48506940628E+01  0.22372030638E+01  0.55873550278E+00  0.53708933895E+01  0.00000000000E+00 0.  1.
<mgrwt>
<rscale>  0 0.14725758E+04</rscale>
<asrwt>0</asrwt>
<pdfrwt beam="1">  1        2 0.33379342E+00 0.14725758E+04</pdfrwt>
<pdfrwt beam="2">  1       -2 0.38440659E-01 0.14725758E+04</pdfrwt>
<totfact> 0.33272359E+01</totfact>
</mgrwt>
</event>
<event>
12    1  0.1489233E-007  0.1523548E+04  0.7818608E-02  0.8868943E-01
          2   -1    0    0  501    0  0.00000000000E+00  0.00000000000E+00  0.11432280689E+04  0.11432280689E+04  0.00000000000E+00 0. -1.
         -2   -1    0    0    0  501 -0.00000000000E+00 -0.00000000000E+00 -0.50759760107E+03  0.50759760107E+03  0.00000000000E+00 0.  1.
         23    2    1    2    0    0 -0.18006074736E+03  0.44072451102E+03  0.70411975296E+02  0.49190880539E+03  0.10176669007E+03 0.  0.
        254    2    1    2    0    0  0.18006074736E+03 -0.44072451102E+03  0.56521849252E+03  0.11589168646E+04  0.89272413843E+03 0.  0.
        -24    2    4    4    0    0 -0.35343756959E+03 -0.14488140965E+03  0.15620724101E+03  0.42004228619E+03  0.78269288855E+02 0.  0.
         24    2    4    4    0    0  0.53349831695E+03 -0.29584310136E+03  0.40901125151E+03  0.73887457837E+03  0.80634012023E+02 0.  0.
         13    1    3    3    0    0  0.69689938583E+01  0.11467078582E+02  0.15446005292E+02  0.20460690264E+02  0.00000000000E+00 0. -1.
        -13    1    3    3    0    0 -0.18702974121E+03  0.42925743243E+03  0.54965970004E+02  0.47144811513E+03  0.00000000000E+00 0.  1.
          2    1    6    6  502    0  0.13594903682E+03 -0.41041579136E+02  0.11391106754E+03  0.18205022147E+03  0.00000000000E+00 0. -1.
          3    1    5    5  503    0 -0.34223548419E+03 -0.13428118430E+03  0.13059100832E+03  0.39014173648E+03  0.00000000000E+00 0. -1.
         -4    1    5    5    0  503 -0.11202085407E+02 -0.10600225355E+02  0.25616232698E+02  0.29900549705E+02  0.00000000000E+00 0.  1.
         -1    1    6    6    0  502  0.39754928013E+03 -0.25480152223E+03  0.29510018397E+03  0.55682435691E+03  0.00000000000E+00 0.  1.
<mgrwt>
<rscale>  0 0.15235483E+04</rscale>
<asrwt>0</asrwt>
<pdfrwt beam="1">  1        2 0.17588124E+00 0.15235483E+04</pdfrwt>
<pdfrwt beam="2">  1       -2 0.78091939E-01 0.15235483E+04</pdfrwt>
<totfact> 0.28851740E+01</totfact>
</mgrwt>
</event>
<event>
12    1  0.1489233E-007  0.3951823E+04  0.7818608E-02  0.8014336E-01
          1   -1    0    0  501    0  0.00000000000E+00  0.00000000000E+00  0.20231713835E+04  0.20231713835E+04  0.00000000000E+00 0. -1.
         -1   -1    0    0    0  501 -0.00000000000E+00 -0.00000000000E+00 -0.19297560090E+04  0.19297560090E+04  0.00000000000E+00 0.  1.
         23    2    1    2    0    0  0.12662972746E+04  0.13696358381E+04  0.23844097912E+03  0.18826976276E+04  0.91022743369E+02 0.  0.
        254    2    1    2    0    0 -0.12662972746E+04 -0.13696358381E+04 -0.14502560458E+03  0.20702297649E+04  0.88623232665E+03 0.  0.
        -24    2    4    4    0    0  0.79558713889E+02 -0.17419315614E+03 -0.17000506246E+03  0.26816699810E+03  0.79617667664E+02 0.  0.
         24    2    4    4    0    0 -0.13458559885E+04 -0.11954426820E+04  0.24979457878E+02  0.18020627668E+04  0.79966834000E+02 0.  0.
         11    1    3    3    0    0  0.11617523676E+04  0.12253083089E+04  0.19919633487E+03  0.17002141616E+04  0.00000000000E+00 0. -1.
        -11    1    3    3    0    0  0.10454490704E+03  0.14432752922E+03  0.39244644246E+02  0.18248346605E+03  0.00000000000E+00 0.  1.
          4    1    6    6  502    0 -0.69925913066E+02 -0.58694156353E+02  0.18719043953E+02  0.93193561552E+02  0.00000000000E+00 0. -1.
          3    1    5    5  503    0  0.11659088679E+02 -0.48078339672E+02 -0.50860129640E+01  0.49732571040E+02  0.00000000000E+00 0. -1.
         -4    1    5    5    0  503  0.67899625210E+02 -0.12611481647E+03 -0.16491904950E+03  0.21843442706E+03  0.00000000000E+00 0.  1.
         -3    1    6    6    0  502 -0.12759300755E+04 -0.11367485256E+04  0.62604139252E+01  0.17088692053E+04  0.00000000000E+00 0.  1.
<mgrwt>
<rscale>  0 0.39518234E+04</rscale>
<asrwt>0</asrwt>
<pdfrwt beam="1">  1        1 0.31125714E+00 0.39518234E+04</pdfrwt>
<pdfrwt beam="2">  1       -1 0.29688554E+00 0.39518234E+04</pdfrwt>
<totfact> 0.78124760E-02</totfact>
</mgrwt>
</event>
<event>
12    1  0.1489233E-007  0.4700211E+04  0.7818608E-02  0.7876493E-01
         -2   -1    0    0    0  501 -0.00000000000E+00  0.00000000000E+00  0.21303540260E+04  0.21303540260E+04  0.00000000000E+00 0. -1.
          2   -1    0    0  501    0  0.00000000000E+00 -0.00000000000E+00 -0.25925250363E+04  0.25925250363E+04  0.00000000000E+00 0.  1.
         23    2    1    2    0    0  0.10820621522E+03 -0.22636367208E+04 -0.13422604068E+03  0.22720546970E+04  0.91957202555E+02 0.  0.
        254    2    1    2    0    0 -0.10820621522E+03  0.22636367208E+04 -0.32794496960E+03  0.24508243653E+04  0.87363171726E+03 0.  0.
        -24    2    4    4    0    0  0.32001418217E+03  0.12600790772E+04 -0.37645049281E+03  0.13557726188E+04  0.78715073779E+02 0.  0.
         24    2    4    4    0    0 -0.42822039739E+03  0.10035576436E+04  0.48505523217E+02  0.10950517464E+04  0.79277290366E+02 0.  0.
         11    1    3    3    0    0  0.10788307984E+03 -0.21802682015E+04 -0.14621937173E+03  0.21878272999E+04  0.00000000000E+00 0. -1.
        -11    1    3    3    0    0  0.32313537938E+00 -0.83368519361E+02  0.11993331049E+02  0.84227397126E+02  0.00000000000E+00 0.  1.
          4    1    6    6  502    0 -0.26479599810E+03  0.54881619683E+03 -0.50183096015E+00  0.60935735849E+03  0.00000000000E+00 0. -1.
          1    1    5    5  503    0  0.11889249233E+03  0.45132744754E+03 -0.96258512728E+02  0.47654757466E+03  0.00000000000E+00 0. -1.
         -2    1    5    5    0  503  0.20112168984E+03  0.80875162968E+03 -0.28019198008E+03  0.87922504419E+03  0.00000000000E+00 0.  1.
         -1    1    6    6    0  502 -0.16342439929E+03  0.45474144680E+03  0.49007354177E+02  0.48569438795E+03  0.00000000000E+00 0.  1.
<mgrwt>
<rscale>  0 0.47002111E+04</rscale>
<asrwt>0</asrwt>
<pdfrwt beam="1">  1        2 0.39885000E+00 0.47002111E+04</pdfrwt>
<pdfrwt beam="2">  1       -2 0.32774678E+00 0.47002111E+04</pdfrwt>
<totfact> 0.49136030E-02</totfact>
</mgrwt>
</event>
<event>
12    1  0.1489233E-007  0.2258480E+04  0.7818608E-02  0.8494474E-01
         -2   -1    0    0    0  501 -0.00000000000E+00  0.00000000000E+00  0.27260289198E+03  0.27260289198E+03  0.00000000000E+00 0.  1.
          2   -1    0    0  501    0  0.00000000000E+00 -0.00000000000E+00 -0.46778057483E+04  0.46778057483E+04  0.00000000000E+00 0. -1.
         23    2    1    2    0    0  0.29174715247E+03 -0.81100080988E+03 -0.10131569026E+04  0.13333901497E+04  0.92755956079E+02 0.  0.
        254    2    1    2    0    0 -0.29174715247E+03  0.81100080988E+03 -0.33920459538E+04  0.36170184906E+04  0.91324054578E+03 0.  0.
        -24    2    4    4    0    0 -0.43218660373E+03  0.66580088506E+02 -0.79856831856E+03  0.91404646034E+03  0.80940741378E+02 0.  0.
         24    2    4    4    0    0  0.14043945126E+03  0.74442072138E+03 -0.25934776352E+04  0.27029720303E+04  0.77756686733E+02 0.  0.
         11    1    3    3    0    0  0.16124263142E+03 -0.39929313872E+03 -0.57247017818E+03  0.71634928751E+03  0.00000000000E+00 0. -1.
        -11    1    3    3    0    0  0.13050452106E+03 -0.41170767116E+03 -0.44068672440E+03  0.61704086216E+03  0.00000000000E+00 0.  1.
          4    1    6    6  502    0  0.41421269784E+02  0.42243198996E+03 -0.14769582609E+04  0.15367401251E+04  0.00000000000E+00 0. -1.
          1    1    5    5  503    0 -0.54072048701E+02 -0.13020795345E+02 -0.70524238424E+02  0.89816455994E+02  0.00000000000E+00 0. -1.
         -2    1    5    5    0  503 -0.37811455503E+03  0.79600883851E+02 -0.72804408014E+03  0.82423000434E+03  0.00000000000E+00 0.  1.
         -3    1    6    6    0  502  0.99018181472E+02  0.32198873142E+03 -0.11165193743E+04  0.11662319052E+04  0.00000000000E+00 0.  1.
<mgrwt>
<rscale>  0 0.22584804E+04</rscale>
<asrwt>0</asrwt>
<pdfrwt beam="1">  1        2 0.71966239E+00 0.22584804E+04</pdfrwt>
<pdfrwt beam="2">  1       -2 0.41938909E-01 0.22584804E+04</pdfrwt>
<totfact> 0.40213963E-01</totfact>
</mgrwt>
</event>
<event>
12    1  0.1489233E-007  0.1479537E+04  0.7818608E-02  0.8898176E-01
         -1   -1    0    0    0  501 -0.00000000000E+00  0.00000000000E+00  0.45934660458E+03  0.45934660458E+03  0.00000000000E+00 0.  1.
          1   -1    0    0  501    0  0.00000000000E+00 -0.00000000000E+00 -0.11913825623E+04  0.11913825623E+04  0.00000000000E+00 0. -1.
         23    2    1    2    0    0  0.34516226712E+03 -0.79988826077E+02  0.10252850022E+03  0.37536031465E+03  0.69628079953E+02 0.  0.
        254    2    1    2    0    0 -0.34516226712E+03  0.79988826077E+02 -0.83456445795E+03  0.12753688522E+04  0.89695745265E+03 0.  0.
        -24    2    4    4    0    0  0.20598141294E+03 -0.37351269572E+02  0.43749445619E+02  0.22877021075E+03  0.81230139219E+02 0.  0.
         24    2    4    4    0    0 -0.55114368006E+03  0.11734009565E+03 -0.87831390357E+03  0.10465986415E+04  0.80033424644E+02 0.  0.
         11    1    3    3    0    0  0.48274044051E+01 -0.12720058654E+02  0.80413608011E+01  0.15804025088E+02  0.00000000000E+00 0. -1.
        -11    1    3    3    0    0  0.34033486271E+03 -0.67268767423E+02  0.94487139420E+02  0.35955628956E+03  0.00000000000E+00 0.  1.
          4    1    6    6  502    0 -0.51940725334E+03  0.10882595500E+03 -0.78397874173E+03  0.94670462700E+03  0.00000000000E+00 0. -1.
          1    1    5    5  503    0  0.82847808713E+02 -0.54461880906E+02  0.82712326647E+01  0.99490045583E+02  0.00000000000E+00 0. -1.
         -2    1    5    5    0  503  0.12313360423E+03  0.17110611334E+02  0.35478212955E+02  0.12928016516E+03  0.00000000000E+00 0.  1.
         -3    1    6    6    0  502 -0.31736426716E+02  0.85141406501E+01 -0.94335161845E+02  0.99894014496E+02  0.00000000000E+00 0.  1.
<mgrwt>
<rscale>  0 0.14795371E+04</rscale>
<asrwt>0</asrwt>
<pdfrwt beam="1">  1        1 0.18328962E+00 0.14795371E+04</pdfrwt>
<pdfrwt beam="2">  1       -1 0.70668709E-01 0.14795371E+04</pdfrwt>
<totfact> 0.21256256E+01</totfact>
</mgrwt>
</event>
<event>
12    1  0.1489233E-007  0.1480728E+04  0.7818608E-02  0.8897371E-01
          1   -1    0    0  501    0  0.00000000000E+00  0.00000000000E+00  0.99360875780E+03  0.99360875780E+03  0.00000000000E+00 0. -1.
         -1   -1    0    0    0  501 -0.00000000000E+00 -0.00000000000E+00 -0.55166466675E+03  0.55166466675E+03  0.00000000000E+00 0.  1.
         23    2    1    2    0    0 -0.50782679888E+02 -0.19185861613E+02  0.61885067476E+03  0.62795114749E+03  0.91648830431E+02 0.  0.
        254    2    1    2    0    0  0.50782679888E+02  0.19185861613E+02 -0.17690658371E+03  0.91732227706E+03  0.89846382385E+03 0.  0.
        -24    2    4    4    0    0  0.46039871342E+03  0.61915422548E+01 -0.17677377819E+03  0.49911232566E+03  0.76543023564E+02 0.  0.
         24    2    4    4    0    0 -0.40961603353E+03  0.12994319358E+02 -0.13280552727E+00  0.41820995140E+03  0.83339057763E+02 0.  0.
         11    1    3    3    0    0 -0.17652335518E+02  0.18850133054E+02  0.44969071763E+02  0.51857013803E+02  0.00000000000E+00 0.  1.
        -11    1    3    3    0    0 -0.33130344370E+02 -0.38035994667E+02  0.57388160300E+03  0.57609413369E+03  0.00000000000E+00 0. -1.
          2    1    6    6  502    0 -0.31994947006E+03  0.44693479560E+02 -0.27891945933E+01  0.32306802707E+03  0.00000000000E+00 0. -1.
          3    1    5    5  503    0  0.31362067685E+03 -0.75074385844E+01 -0.83380293968E+02  0.32460216266E+03  0.00000000000E+00 0. -1.
         -4    1    5    5    0  503  0.14677803657E+03  0.13698980839E+02 -0.93393484219E+02  0.17451016300E+03  0.00000000000E+00 0.  1.
         -1    1    6    6    0  502 -0.89666563469E+02 -0.31699160202E+02  0.26563890660E+01  0.95141924327E+02  0.00000000000E+00 0.  1.
<mgrwt>
<rscale>  0 0.14807280E+04</rscale>
<asrwt>0</asrwt>
<pdfrwt beam="1">  1        1 0.15286289E+00 0.14807280E+04</pdfrwt>
<pdfrwt beam="2">  1       -1 0.84871487E-01 0.14807280E+04</pdfrwt>
<totfact> 0.20375257E+01</totfact>
</mgrwt>
</event>
<event>
12    1  0.1489233E-007  0.1885436E+04  0.7818608E-02  0.8662140E-01
          2   -1    0    0  501    0  0.00000000000E+00  0.00000000000E+00  0.45562916891E+03  0.45562916891E+03  0.00000000000E+00 0. -1.
         -2   -1    0    0    0  501 -0.00000000000E+00 -0.00000000000E+00 -0.19505283547E+04  0.19505283547E+04  0.00000000000E+00 0.  1.
         23    2    1    2    0    0 -0.53216168065E+03  0.24442548115E+03 -0.11264374537E+04  0.12730176203E+04  0.93662448521E+02 0.  0.
        254    2    1    2    0    0  0.53216168065E+03 -0.24442548115E+03 -0.36846173212E+03  0.11331399034E+04  0.89738627265E+03 0.  0.
        -24    2    4    4    0    0  0.69272606108E+03 -0.11953415199E+03 -0.33487849919E+01  0.70706839144E+03  0.76004517097E+02 0.  0.
         24    2    4    4    0    0 -0.16056438043E+03 -0.12489132916E+03 -0.36511294713E+03  0.42607151192E+03  0.82768984191E+02 0.  0.
         11    1    3    3    0    0 -0.58454741909E+02  0.26553313637E+02 -0.70439630131E+02  0.95308849588E+02  0.00000000000E+00 0. -1.
        -11    1    3    3    0    0 -0.47370693874E+03  0.21787216752E+03 -0.10559978236E+04  0.11777087707E+04  0.00000000000E+00 0.  1.
          2    1    6    6  502    0  0.62374166806E+01 -0.22713783291E+02 -0.48275744254E+02  0.53715629025E+02  0.00000000000E+00 0. -1.
          3    1    5    5  503    0  0.13660907282E+03 -0.63389653931E+01  0.24196093942E+02  0.13888006416E+03  0.00000000000E+00 0. -1.
         -4    1    5    5    0  503  0.55611698825E+03 -0.11319518660E+03 -0.27544878934E+02  0.56818832727E+03  0.00000000000E+00 0.  1.
         -1    1    6    6    0  502 -0.16680179711E+03 -0.10217754587E+03 -0.31683720288E+03  0.37235588289E+03  0.00000000000E+00 0.  1.
<mgrwt>
<rscale>  0 0.18854364E+04</rscale>
<asrwt>0</asrwt>
<pdfrwt beam="1">  1        2 0.70096795E-01 0.18854364E+04</pdfrwt>
<pdfrwt beam="2">  1       -2 0.30008129E+00 0.18854364E+04</pdfrwt>
<totfact> 0.20438244E+00</totfact>
</mgrwt>
</event>
<event>
12    1  0.1489233E-007  0.1405181E+04  0.7818608E-02  0.8950077E-01
          1   -1    0    0  501    0  0.00000000000E+00  0.00000000000E+00  0.11531531582E+04  0.11531531582E+04  0.00000000000E+00 0. -1.
         -1   -1    0    0    0  501 -0.00000000000E+00 -0.00000000000E+00 -0.42807251514E+03  0.42807251514E+03  0.00000000000E+00 0.  1.
         23    2    1    2    0    0 -0.13964179732E+03 -0.28997170522E+03  0.49260119927E+03  0.59532573904E+03  0.90406706933E+02 0.  0.
        254    2    1    2    0    0  0.13964179732E+03  0.28997170522E+03  0.23247944376E+03  0.98589993427E+03  0.90242371824E+03 0.  0.
        -24    2    4    4    0    0  0.17990903883E+03 -0.87042554445E+02  0.48019065202E+03  0.52605498559E+03  0.78785258979E+02 0.  0.
         24    2    4    4    0    0 -0.40267241507E+02  0.37701425966E+03 -0.24771120826E+03  0.45984494869E+03  0.79594795104E+02 0.  0.
         13    1    3    3    0    0 -0.59387289126E+01  0.66443544495E+01  0.11864036572E+02  0.14838170741E+02  0.00000000000E+00 0.  1.
        -13    1    3    3    0    0 -0.13370306841E+03 -0.29661605966E+03  0.48073716269E+03  0.58048756830E+03  0.00000000000E+00 0. -1.
          4    1    6    6  502    0 -0.63683750885E+02  0.24268610453E+03 -0.16689568455E+03  0.30134089497E+03  0.00000000000E+00 0. -1.
          3    1    5    5  503    0  0.12645096705E+03 -0.48553389295E+02  0.22613838814E+03  0.26360168678E+03  0.00000000000E+00 0. -1.
         -4    1    5    5    0  503  0.53458071775E+02 -0.38489165150E+02  0.25405226388E+03  0.26245329881E+03  0.00000000000E+00 0.  1.
         -3    1    6    6    0  502  0.23416509378E+02  0.13432815513E+03 -0.80815523709E+02  0.15850405371E+03  0.00000000000E+00 0.  1.
<mgrwt>
<rscale>  0 0.14051807E+04</rscale>
<asrwt>0</asrwt>
<pdfrwt beam="1">  1        1 0.17740818E+00 0.14051807E+04</pdfrwt>
<pdfrwt beam="2">  1       -1 0.65857311E-01 0.14051807E+04</pdfrwt>
<totfact> 0.26353700E+01</totfact>
</mgrwt>
</event>
<event>
12    1  0.1489233E-007  0.1702277E+04  0.7818608E-02  0.8760067E-01
          2   -1    0    0  501    0  0.00000000000E+00  0.00000000000E+00  0.62719236662E+03  0.62719236662E+03  0.00000000000E+00 0. -1.
         -2   -1    0    0    0  501 -0.00000000000E+00 -0.00000000000E+00 -0.11550476606E+04  0.11550476606E+04  0.00000000000E+00 0.  1.
         23    2    1    2    0    0  0.47831577240E+03  0.37955639191E+03 -0.19188083543E+03  0.64648812232E+03  0.90992332245E+02 0.  0.
        254    2    1    2    0    0 -0.47831577240E+03 -0.37955639191E+03 -0.33597445858E+03  0.11357519049E+04  0.89677450899E+03 0.  0.
        -24    2    4    4    0    0 -0.38960102009E+03 -0.13883125520E+03  0.25064415606E+03  0.49049344751E+03  0.81842878745E+02 0.  0.
         24    2    4    4    0    0 -0.88714752308E+02 -0.24072513671E+03 -0.58661861464E+03  0.64525845743E+03  0.80113538939E+02 0.  0.
         13    1    3    3    0    0  0.30737544945E+02  0.56922539335E+02 -0.95051852912E+01  0.65385936569E+02  0.00000000000E+00 0.  1.
        -13    1    3    3    0    0  0.44757822746E+03  0.32263385257E+03 -0.18237565014E+03  0.58110218575E+03  0.00000000000E+00 0. -1.
          4    1    6    6  502    0 -0.53534168535E+02 -0.10323031248E+03 -0.17729279286E+03  0.21202626963E+03  0.00000000000E+00 0. -1.
          3    1    5    5  503    0 -0.32897119053E+03 -0.11759234086E+03  0.24352639417E+03  0.42585808374E+03  0.00000000000E+00 0. -1.
         -4    1    5    5    0  503 -0.60629829561E+02 -0.21238914340E+02  0.71177618910E+01  0.64635363767E+02  0.00000000000E+00 0.  1.
         -3    1    6    6    0  502 -0.35180583773E+02 -0.13749482423E+03 -0.40932582178E+03  0.43323218779E+03  0.00000000000E+00 0.  1.
<mgrwt>
<rscale>  0 0.17022774E+04</rscale>
<asrwt>0</asrwt>
<pdfrwt beam="1">  1        2 0.96491134E-01 0.17022774E+04</pdfrwt>
<pdfrwt beam="2">  1       -2 0.17769964E+00 0.17022774E+04</pdfrwt>
<totfact> 0.84020720E+00</totfact>
</mgrwt>
</event>
<event>
12    1  0.1489233E-007  0.1611535E+04  0.7818608E-02  0.8813493E-01
         -1   -1    0    0    0  501 -0.00000000000E+00  0.00000000000E+00  0.83119229455E+03  0.83119229455E+03  0.00000000000E+00 0.  1.
          1   -1    0    0  501    0  0.00000000000E+00 -0.00000000000E+00 -0.78112030730E+03  0.78112030730E+03  0.00000000000E+00 0. -1.
         23    2    1    2    0    0  0.23046074081E+03  0.18603536299E+01 -0.48343923395E+03  0.54332520375E+03  0.91505027919E+02 0.  0.
        254    2    1    2    0    0 -0.23046074081E+03 -0.18603536299E+01  0.53351122120E+03  0.10689873981E+04  0.89720912846E+03 0.  0.
        -24    2    4    4    0    0  0.24276410292E+03 -0.25260497745E+03  0.97528194145E+02  0.37382965596E+03  0.86563148767E+02 0.  0.
         24    2    4    4    0    0 -0.47322484373E+03  0.25074462382E+03  0.43598302706E+03  0.69515774215E+03  0.79677270841E+02 0.  0.
         11    1    3    3    0    0  0.34539745154E+02 -0.33891094421E+02 -0.10759677285E+03  0.11797739531E+03  0.00000000000E+00 0.  1.
        -11    1    3    3    0    0  0.19592099566E+03  0.35751448051E+02 -0.37584246109E+03  0.42534780843E+03  0.00000000000E+00 0. -1.
          4    1    6    6  502    0 -0.75275995860E+02  0.38690873229E+02  0.34481663332E+02  0.91391708213E+02  0.00000000000E+00 0. -1.
          1    1    5    5  503    0  0.10946530407E+03 -0.10499345975E+03 -0.14191919622E+01  0.15168484925E+03  0.00000000000E+00 0. -1.
         -2    1    5    5    0  503  0.13329879884E+03 -0.14761151770E+03  0.98947386107E+02  0.22214480671E+03  0.00000000000E+00 0.  1.
         -3    1    6    6    0  502 -0.39794884787E+03  0.21205375059E+03  0.40150136372E+03  0.60376603393E+03  0.00000000000E+00 0.  1.
<mgrwt>
<rscale>  0 0.16115349E+04</rscale>
<asrwt>0</asrwt>
<pdfrwt beam="1">  1        1 0.12017236E+00 0.16115349E+04</pdfrwt>
<pdfrwt beam="2">  1       -1 0.12787574E+00 0.16115349E+04</pdfrwt>
<totfact> 0.11643952E+01</totfact>
</mgrwt>
</event>
<event>
12    1  0.1489233E-007  0.1831842E+04  0.7818608E-02  0.8689547E-01
         -2   -1    0    0    0  501 -0.00000000000E+00  0.00000000000E+00  0.38870423926E+03  0.38870423926E+03  0.00000000000E+00 0. -1.
          2   -1    0    0  501    0  0.00000000000E+00 -0.00000000000E+00 -0.21582242962E+04  0.21582242962E+04  0.00000000000E+00 0.  1.
         23    2    1    2    0    0  0.66393625584E+03 -0.18843675060E+03 -0.71005723867E+03  0.99477661284E+03  0.95286234441E+02 0.  0.
        254    2    1    2    0    0 -0.66393625584E+03  0.18843675060E+03 -0.10594628182E+04  0.15521519226E+04  0.90021906599E+03 0.  0.
        -24    2    4    4    0    0 -0.65551677419E+03  0.28654017751E+03 -0.11762459893E+04  0.13789797329E+04  0.78885751807E+02 0.  0.
         24    2    4    4    0    0 -0.84194816530E+01 -0.98103426901E+02  0.11678317109E+03  0.17317218966E+03  0.81578968996E+02 0.  0.
         11    1    3    3    0    0  0.17622338713E+03 -0.50436182233E+02 -0.13145418829E+03  0.22556306052E+03  0.00000000000E+00 0. -1.
        -11    1    3    3    0    0  0.48771286871E+03 -0.13800056837E+03 -0.57860305037E+03  0.76921355232E+03  0.00000000000E+00 0.  1.
          2    1    6    6  502    0 -0.41303345327E+02 -0.35603536954E+02  0.68805624802E+02  0.87794032731E+02  0.00000000000E+00 0. -1.
          1    1    5    5  503    0 -0.19828564501E+03  0.12498980918E+03 -0.40558385863E+03  0.46844200900E+03  0.00000000000E+00 0. -1.
         -2    1    5    5    0  503 -0.45723112917E+03  0.16155036833E+03 -0.77066213070E+03  0.91053772392E+03  0.00000000000E+00 0.  1.
         -1    1    6    6    0  502  0.32883863674E+02 -0.62499889947E+02  0.47977546286E+02  0.85378156932E+02  0.00000000000E+00 0.  1.
<mgrwt>
<rscale>  0 0.18318416E+04</rscale>
<asrwt>0</asrwt>
<pdfrwt beam="1">  1        2 0.33203451E+00 0.18318416E+04</pdfrwt>
<pdfrwt beam="2">  1       -2 0.59800652E-01 0.18318416E+04</pdfrwt>
<totfact> 0.13389673E+01</totfact>
</mgrwt>
</event>
<event>
12    1  0.1489233E-007  0.1262828E+04  0.7818608E-02  0.9059574E-01
         -1   -1    0    0    0  501 -0.00000000000E+00  0.00000000000E+00  0.21586714718E+03  0.21586714718E+03  0.00000000000E+00 0.  1.
          1   -1    0    0  501    0  0.00000000000E+00 -0.00000000000E+00 -0.18468921079E+04  0.18468921079E+04  0.00000000000E+00 0. -1.
         23    2    1    2    0    0 -0.16721848793E+03  0.17658468394E+03 -0.12352857095E+03  0.28788008942E+03  0.92040560269E+02 0.  0.
        254    2    1    2    0    0  0.16721848793E+03 -0.17658468394E+03 -0.15074963897E+04  0.17748791656E+04  0.90471349839E+03 0.  0.
        -24    2    4    4    0    0 -0.16954055030E+03 -0.26477140145E+03 -0.12598337564E+03  0.34786659652E+03  0.79318754494E+02 0.  0.
         24    2    4    4    0    0  0.33675903824E+03  0.88186717515E+02 -0.13815130141E+04  0.14270125691E+04  0.81259567226E+02 0.  0.
         13    1    3    3    0    0 -0.19081564739E+02  0.19482564706E+02  0.15205556773E+02  0.31223154824E+02  0.00000000000E+00 0. -1.
        -13    1    3    3    0    0 -0.14813692319E+03  0.15710211923E+03 -0.13873412772E+03  0.25665693459E+03  0.00000000000E+00 0.  1.
          4    1    6    6  502    0  0.96554799019E+02  0.24426157169E+02 -0.55792016215E+03  0.56674012890E+03  0.00000000000E+00 0. -1.
          1    1    5    5  503    0 -0.29589675905E+02 -0.11694538849E+03 -0.43755240353E+02  0.12832105777E+03  0.00000000000E+00 0. -1.
         -2    1    5    5    0  503 -0.13995087440E+03 -0.14782601297E+03 -0.82228135289E+02  0.21954553876E+03  0.00000000000E+00 0.  1.
         -3    1    6    6    0  502  0.24020423922E+03  0.63760560345E+02 -0.82359285194E+03  0.86027244020E+03  0.00000000000E+00 0.  1.
<mgrwt>
<rscale>  0 0.12628275E+04</rscale>
<asrwt>0</asrwt>
<pdfrwt beam="1">  1        1 0.28413726E+00 0.12628275E+04</pdfrwt>
<pdfrwt beam="2">  1       -1 0.33210329E-01 0.12628275E+04</pdfrwt>
<totfact> 0.31814991E+01</totfact>
</mgrwt>
</event>
<event>
12    1  0.1489233E-007  0.2138675E+04  0.7818608E-02  0.8544396E-01
          2   -1    0    0  501    0  0.00000000000E+00  0.00000000000E+00  0.19185910698E+04  0.19185910698E+04  0.00000000000E+00 0. -1.
         -2   -1    0    0    0  501 -0.00000000000E+00 -0.00000000000E+00 -0.59600106484E+03  0.59600106484E+03  0.00000000000E+00 0.  1.
         23    2    1    2    0    0 -0.63777064269E+03  0.52736172342E+02 -0.16137697982E+03  0.66549434128E+03  0.85485040241E+02 0.  0.
        254    2    1    2    0    0  0.63777064269E+03 -0.52736172342E+02  0.14839669848E+04  0.18490977934E+04  0.89859453646E+03 0.  0.
        -24    2    4    4    0    0 -0.18611796833E+03 -0.14757438718E+03  0.21077432721E+03  0.32746240769E+03  0.79923172785E+02 0.  0.
         24    2    4    4    0    0  0.82388861102E+03  0.94838214841E+02  0.12731926576E+04  0.15216353857E+04  0.81043033617E+02 0.  0.
         13    1    3    3    0    0 -0.30062158236E+03 -0.17724406415E+02 -0.79606346740E+02  0.31148781807E+03  0.00000000000E+00 0. -1.
        -13    1    3    3    0    0 -0.33714906033E+03  0.70460578757E+02 -0.81770633083E+02  0.35400652321E+03  0.00000000000E+00 0.  1.
          2    1    6    6  502    0  0.77654735051E+03  0.76127555763E+02  0.12185329963E+04  0.14469429344E+04  0.00000000000E+00 0. -1.
          1    1    5    5  503    0 -0.30927778593E+02 -0.23710707891E+02  0.15282884456E+01  0.39000779773E+02  0.00000000000E+00 0. -1.
         -2    1    5    5    0  503 -0.15519018974E+03 -0.12386367929E+03  0.20924603877E+03  0.28846162791E+03  0.00000000000E+00 0.  1.
         -1    1    6    6    0  502  0.47341260506E+02  0.18710659079E+02  0.54659661360E+02  0.74692451355E+02  0.00000000000E+00 0.  1.
<mgrwt>
<rscale>  0 0.21386747E+04</rscale>
<asrwt>0</asrwt>
<pdfrwt beam="1">  1        2 0.29516785E+00 0.21386747E+04</pdfrwt>
<pdfrwt beam="2">  1       -2 0.91692472E-01 0.21386747E+04</pdfrwt>
<totfact> 0.68945178E+00</totfact>
</mgrwt>
</event>
<event>
12    1  0.1489233E-007  0.1496500E+04  0.7818608E-02  0.8886784E-01
         -3   -1    0    0    0  501 -0.00000000000E+00  0.00000000000E+00  0.91030357762E+03  0.91030357762E+03  0.00000000000E+00 0.  1.
          3   -1    0    0  501    0  0.00000000000E+00 -0.00000000000E+00 -0.61504509479E+03  0.61504509479E+03  0.00000000000E+00 0. -1.
         23    2    1    2    0    0 -0.34407125758E+03  0.16410026294E+03  0.44051602438E+03  0.58923623656E+03  0.88493209665E+02 0.  0.
        254    2    1    2    0    0  0.34407125758E+03 -0.16410026294E+03 -0.14525754155E+03  0.93611243584E+03  0.84255137088E+03 0.  0.
        -24    2    4    4    0    0  0.51997706025E+03 -0.19785173580E+03 -0.34181578988E+03  0.65791797725E+03  0.80601352618E+02 0.  0.
         24    2    4    4    0    0 -0.17590580267E+03  0.33751472859E+02  0.19655824832E+03  0.27819445859E+03  0.81700663836E+02 0.  0.
         13    1    3    3    0    0 -0.32098105597E+03  0.14365888646E+03  0.36110332830E+03  0.50404595788E+03  0.00000000000E+00 0.  1.
        -13    1    3    3    0    0 -0.23090201608E+02  0.20441376478E+02  0.79412696084E+02  0.85190278683E+02  0.00000000000E+00 0. -1.
          2    1    6    6  502    0 -0.44642288706E+02  0.43038058732E+02  0.40513901018E+02  0.74071483150E+02  0.00000000000E+00 0. -1.
          1    1    5    5  503    0  0.91956010482E+02 -0.31149684728E+02 -0.26079585706E+02  0.10053037110E+03  0.00000000000E+00 0. -1.
         -2    1    5    5    0  503  0.42802104976E+03 -0.16670205107E+03 -0.31573620417E+03  0.55738760616E+03  0.00000000000E+00 0.  1.
         -1    1    6    6    0  502 -0.13126351396E+03 -0.92865858721E+01  0.15604434731E+03  0.20412297544E+03  0.00000000000E+00 0.  1.
<mgrwt>
<rscale>  0 0.14964996E+04</rscale>
<asrwt>0</asrwt>
<pdfrwt beam="1">  1        3 0.94622322E-01 0.14964996E+04</pdfrwt>
<pdfrwt beam="2">  1       -3 0.14004670E+00 0.14964996E+04</pdfrwt>
<totfact> 0.96889254E-01</totfact>
</mgrwt>
</event>
<event>
12    1  0.1793126E-007  0.1767643E+04  0.7818608E-02  0.8723698E-01
          1   -1    0    0  501    0  0.00000000000E+00  0.00000000000E+00  0.18248869772E+04  0.18248869772E+04  0.00000000000E+00 0. -1.
         -1   -1    0    0    0  501 -0.00000000000E+00 -0.00000000000E+00 -0.42804854325E+03  0.42804854325E+03  0.00000000000E+00 0.  1.
         23    2    1    2    0    0 -0.59927781420E+03  0.22683925454E+03  0.37053143735E+03  0.74584725752E+03  0.91676820907E+02 0.  0.
        254    2    1    2    0    0  0.59927781420E+03 -0.22683925454E+03  0.10263069966E+04  0.15070882630E+04  0.89856498654E+03 0.  0.
        -24    2    4    4    0    0  0.30389284027E+03  0.29335526412E+03  0.69853209084E+03  0.82046266727E+03  0.82484768894E+02 0.  0.
         24    2    4    4    0    0  0.29538497393E+03 -0.52019451866E+03  0.32777490579E+03  0.68662559569E+03  0.78509233370E+02 0.  0.
         11    1    3    3    0    0 -0.23192129316E+01 -0.41527287622E+01  0.10315803961E+02  0.11359564963E+02  0.00000000000E+00 0. -1.
        -11    1    3    3    0    0 -0.59695860127E+03  0.23099198330E+03  0.36021563339E+03  0.73448769256E+03  0.00000000000E+00 0.  1.
          2    1    6    6  502    0  0.43407123833E+00 -0.13099311303E+01 -0.36662717304E+01  0.39173825199E+01  0.00000000000E+00 0. -1.
          3    1    5    5  503    0  0.45109876709E+02  0.91584813612E+02  0.15745576508E+03  0.18765659332E+03  0.00000000000E+00 0. -1.
         -4    1    5    5    0  503  0.25878296356E+03  0.20177045051E+03  0.54107632576E+03  0.63280607395E+03  0.00000000000E+00 0.  1.
         -3    1    6    6    0  502  0.29495090269E+03 -0.51888458753E+03  0.33144117752E+03  0.68270821317E+03  0.00000000000E+00 0.  1.
<mgrwt>
<rscale>  0 0.17676427E+04</rscale>
<asrwt>0</asrwt>
<pdfrwt beam="1">  1        1 0.28075184E+00 0.17676427E+04</pdfrwt>
<pdfrwt beam="2">  1       -1 0.65853623E-01 0.17676427E+04</pdfrwt>
<totfact> 0.86652420E+00</totfact>
</mgrwt>
</event>
<event>
12    1  0.1489233E-007  0.1037277E+04  0.7818608E-02  0.9268580E-01
          1   -1    0    0  501    0  0.00000000000E+00  0.00000000000E+00  0.74684368408E+03  0.74684368408E+03  0.00000000000E+00 0. -1.
         -1   -1    0    0    0  501 -0.00000000000E+00 -0.00000000000E+00 -0.36016329882E+03  0.36016329882E+03  0.00000000000E+00 0.  1.
         23    2    1    2    0    0 -0.41266225419E+01 -0.82035524677E+02  0.10387399527E+03  0.16009839648E+03  0.89971291748E+02 0.  0.
        254    2    1    2    0    0  0.41266225419E+01  0.82035524677E+02  0.28280638999E+03  0.94690858643E+03  0.89994975444E+03 0.  0.
        -24    2    4    4    0    0  0.16310815039E+03  0.97965650926E+02  0.57104217419E+03  0.60751953704E+03  0.82397121856E+02 0.  0.
         24    2    4    4    0    0 -0.15898152785E+03 -0.15930126249E+02 -0.28823578420E+03  0.33938904939E+03  0.81093553577E+02 0.  0.
         11    1    3    3    0    0 -0.25571261038E+02 -0.92637823994E+02  0.71203968313E+02  0.11960627462E+03  0.00000000000E+00 0.  1.
        -11    1    3    3    0    0  0.21444638496E+02  0.10602299316E+02  0.32670026957E+02  0.40492121856E+02  0.00000000000E+00 0. -1.
          4    1    6    6  502    0 -0.24441194829E+01  0.18607282289E+02 -0.33985506523E+02  0.38822922711E+02  0.00000000000E+00 0. -1.
          3    1    5    5  503    0  0.65290977583E+02  0.50761167854E+02  0.13640877276E+03  0.15952103686E+03  0.00000000000E+00 0. -1.
         -4    1    5    5    0  503  0.97817172811E+02  0.47204483073E+02  0.43463340144E+03  0.44799850018E+03  0.00000000000E+00 0.  1.
         -3    1    6    6    0  502 -0.15653740837E+03 -0.34537408538E+02 -0.25425027768E+03  0.30056612668E+03  0.00000000000E+00 0.  1.
<mgrwt>
<rscale>  0 0.10372766E+04</rscale>
<asrwt>0</asrwt>
<pdfrwt beam="1">  1        1 0.11489903E+00 0.10372766E+04</pdfrwt>
<pdfrwt beam="2">  1       -1 0.55409738E-01 0.10372766E+04</pdfrwt>
<totfact> 0.81219652E+01</totfact>
</mgrwt>
</event>
<event>
12    1  0.1489233E-007  0.2383517E+04  0.7818608E-02  0.8445700E-01
         -2   -1    0    0    0  501 -0.00000000000E+00  0.00000000000E+00  0.14884138390E+04  0.14884138390E+04  0.00000000000E+00 0.  1.
          2   -1    0    0  501    0  0.00000000000E+00 -0.00000000000E+00 -0.95422956944E+03  0.95422956944E+03  0.00000000000E+00 0. -1.
         23    2    1    2    0    0  0.42073751318E+03  0.26514411010E+03 -0.68231442171E+03  0.84927960661E+03  0.91659293112E+02 0.  0.
        254    2    1    2    0    0 -0.42073751318E+03 -0.26514411010E+03  0.12164986913E+04  0.15933638019E+04  0.90089826563E+03 0.  0.
        -24    2    4    4    0    0  0.27637799224E+03 -0.11497582524E+03  0.40261104181E+03  0.50859273429E+03  0.83466660436E+02 0.  0.
         24    2    4    4    0    0 -0.69711550542E+03 -0.15016828486E+03  0.81388764948E+03  0.10847710676E+04  0.76122410320E+02 0.  0.
         11    1    3    3    0    0  0.21892109452E+03  0.18969186188E+03 -0.37141472294E+03  0.47101841207E+03  0.00000000000E+00 0. -1.
        -11    1    3    3    0    0  0.20181641865E+03  0.75452248215E+02 -0.31089969877E+03  0.37826119454E+03  0.00000000000E+00 0.  1.
          4    1    6    6  502    0 -0.18334308137E+02 -0.84176776613E+01  0.82168649341E+01  0.21783503424E+02  0.00000000000E+00 0. -1.
          3    1    5    5  503    0  0.63528675125E+02 -0.38804176282E+02  0.16285675875E+03  0.17906417992E+03  0.00000000000E+00 0. -1.
         -4    1    5    5    0  503  0.21284931712E+03 -0.76171648956E+02  0.23975428306E+03  0.32952855437E+03  0.00000000000E+00 0.  1.
         -3    1    6    6    0  502 -0.67878119728E+03 -0.14175060720E+03  0.80567078455E+03  0.10629875641E+04  0.00000000000E+00 0.  1.
<mgrwt>
<rscale>  0 0.23835171E+04</rscale>
<asrwt>0</asrwt>
<pdfrwt beam="1">  1        2 0.14680455E+00 0.23835171E+04</pdfrwt>
<pdfrwt beam="2">  1       -2 0.22898674E+00 0.23835171E+04</pdfrwt>
<totfact> 0.21069646E+00</totfact>
</mgrwt>
</event>
<event>
12    1  0.1489233E-007  0.1677786E+04  0.7818608E-02  0.8774136E-01
         -1   -1    0    0    0  501 -0.00000000000E+00  0.00000000000E+00  0.21242777332E+03  0.21242777332E+03  0.00000000000E+00 0. -1.
          1   -1    0    0  501    0  0.00000000000E+00 -0.00000000000E+00 -0.33128493613E+04  0.33128493613E+04  0.00000000000E+00 0.  1.
         23    2    1    2    0    0 -0.12443106814E+02 -0.57576329066E+03 -0.83711409140E+03  0.10201347857E+04  0.90866831936E+02 0.  0.
        254    2    1    2    0    0  0.12443106814E+02  0.57576329066E+03 -0.22633074966E+04  0.25051423489E+04  0.90637694509E+03 0.  0.
        -24    2    4    4    0    0  0.13777701480E+03 -0.31229398295E+02 -0.15428760294E+04  0.15512849256E+04  0.77850480513E+02 0.  0.
         24    2    4    4    0    0 -0.12533390799E+03  0.60699268896E+03 -0.72043146717E+03  0.95385742329E+03  0.81693158399E+02 0.  0.
         11    1    3    3    0    0  0.10775919745E+02 -0.38883215086E+03 -0.62782654320E+03  0.73856125700E+03  0.00000000000E+00 0.  1.
        -11    1    3    3    0    0 -0.23219026559E+02 -0.18693113980E+03 -0.20928754820E+03  0.28157352868E+03  0.00000000000E+00 0. -1.
          4    1    6    6  502    0 -0.33170635129E+02  0.30622584965E+03 -0.39965420859E+03  0.50457709864E+03  0.00000000000E+00 0. -1.
          3    1    5    5  503    0  0.61913951438E+02 -0.50902880765E+02 -0.63649847067E+03  0.64152532594E+03  0.00000000000E+00 0. -1.
         -4    1    5    5    0  503  0.75863063365E+02  0.19673482470E+02 -0.90637755871E+03  0.90975959969E+03  0.00000000000E+00 0.  1.
         -3    1    6    6    0  502 -0.92163272861E+02  0.30076683931E+03 -0.32077725858E+03  0.44928032465E+03  0.00000000000E+00 0.  1.
<mgrwt>
<rscale>  0 0.16777857E+04</rscale>
<asrwt>0</asrwt>
<pdfrwt beam="1">  1        1 0.50966910E+00 0.16777857E+04</pdfrwt>
<pdfrwt beam="2">  1       -1 0.32681198E-01 0.16777857E+04</pdfrwt>
<totfact> 0.29389236E+00</totfact>
</mgrwt>
</event>
<event>
12    1  0.1489233E-007  0.1388274E+04  0.7818608E-02  0.8962351E-01
          1   -1    0    0  501    0  0.00000000000E+00  0.00000000000E+00  0.58149937861E+03  0.58149937861E+03  0.00000000000E+00 0. -1.
         -1   -1    0    0    0  501 -0.00000000000E+00 -0.00000000000E+00 -0.82859235053E+03  0.82859235053E+03  0.00000000000E+00 0.  1.
         23    2    1    2    0    0 -0.29405427801E+03 -0.95706786168E+02  0.17009224534E+03  0.36474481111E+03  0.92085275544E+02 0.  0.
        254    2    1    2    0    0  0.29405427801E+03  0.95706786168E+02 -0.41718521726E+03  0.10453469180E+04  0.90723699561E+03 0.  0.
        -24    2    4    4    0    0 -0.15759506009E+03 -0.18189447826E+03 -0.44234611018E+03  0.50968873420E+03  0.78681131105E+02 0.  0.
         24    2    4    4    0    0  0.45164933810E+03  0.27760126443E+03  0.25160892912E+02  0.53565818384E+03  0.72436404936E+02 0.  0.
         13    1    3    3    0    0 -0.24284530555E+03 -0.11338107104E+03  0.14872662199E+03  0.30651055086E+03  0.00000000000E+00 0. -1.
        -13    1    3    3    0    0 -0.51208972460E+02  0.17674284870E+02  0.21365623343E+02  0.58234260251E+02  0.00000000000E+00 0.  1.
          2    1    6    6  502    0  0.34011976819E+03  0.23389796380E+03 -0.21902755622E+01  0.41278870078E+03  0.00000000000E+00 0. -1.
          3    1    5    5  503    0 -0.88311213582E+02 -0.14815360852E+03 -0.26329560564E+03  0.31475853937E+03  0.00000000000E+00 0. -1.
         -4    1    5    5    0  503 -0.69283846507E+02 -0.33740869746E+02 -0.17905050454E+03  0.19493019482E+03  0.00000000000E+00 0.  1.
         -1    1    6    6    0  502  0.11152956991E+03  0.43703300633E+02  0.27351168474E+02  0.12286948306E+03  0.00000000000E+00 0.  1.
<mgrwt>
<rscale>  0 0.13882737E+04</rscale>
<asrwt>0</asrwt>
<pdfrwt beam="1">  1        1 0.89461443E-01 0.13882737E+04</pdfrwt>
<pdfrwt beam="2">  1       -1 0.12747575E+00 0.13882737E+04</pdfrwt>
<totfact> 0.18638296E+01</totfact>
</mgrwt>
</event>
<event>
12    1  0.1489233E-007  0.3588696E+04  0.7818608E-02  0.8093086E-01
          2   -1    0    0  501    0  0.00000000000E+00  0.00000000000E+00  0.19431925620E+04  0.19431925620E+04  0.00000000000E+00 0. -1.
         -2   -1    0    0    0  501 -0.00000000000E+00 -0.00000000000E+00 -0.16569050494E+04  0.16569050494E+04  0.00000000000E+00 0.  1.
         23    2    1    2    0    0 -0.81195607608E+02  0.81976273781E+03  0.16003745723E+04  0.18021469385E+04  0.89056966322E+02 0.  0.
        254    2    1    2    0    0  0.81195607608E+02 -0.81976273781E+03 -0.13140870598E+04  0.17979506729E+04  0.90950434227E+03 0.  0.
        -24    2    4    4    0    0 -0.19759731422E+03  0.10682055774E+03 -0.14768756810E+03  0.28034622127E+03  0.79542792676E+02 0.  0.
         24    2    4    4    0    0  0.27879292183E+03 -0.92658329555E+03 -0.11663994917E+04  0.15176044516E+04  0.79708221944E+02 0.  0.
         13    1    3    3    0    0  0.16111862094E+02  0.73523032011E+02  0.12462756279E+03  0.14559278053E+03  0.00000000000E+00 0.  1.
        -13    1    3    3    0    0 -0.97307469703E+02  0.74623970580E+03  0.14757470095E+04  0.16565541580E+04  0.00000000000E+00 0. -1.
          2    1    6    6  502    0  0.19637486647E+03 -0.57577588525E+03 -0.68254825523E+03  0.91430469699E+03  0.00000000000E+00 0. -1.
          3    1    5    5  503    0 -0.17129515256E+03  0.11946492587E+03 -0.12509246419E+03  0.24343792310E+03  0.00000000000E+00 0. -1.
         -4    1    5    5    0  503 -0.26302161659E+02 -0.12644368132E+02 -0.22595103913E+02  0.36908298176E+02  0.00000000000E+00 0.  1.
         -1    1    6    6    0  502  0.82418055357E+02 -0.35080741030E+03 -0.48385123644E+03  0.60329975466E+03  0.00000000000E+00 0.  1.
<mgrwt>
<rscale>  0 0.35886965E+04</rscale>
<asrwt>0</asrwt>
<pdfrwt beam="1">  1        2 0.29895270E+00 0.35886965E+04</pdfrwt>
<pdfrwt beam="2">  1       -2 0.25490847E+00 0.35886965E+04</pdfrwt>
<totfact> 0.35142553E-01</totfact>
</mgrwt>
</event>
<event>
12    1  0.1555083E-007  0.1884069E+04  0.7818608E-02  0.8662827E-01
         -2   -1    0    0    0  501 -0.00000000000E+00  0.00000000000E+00  0.74178534056E+03  0.74178534056E+03  0.00000000000E+00 0.  1.
          2   -1    0    0  501    0  0.00000000000E+00 -0.00000000000E+00 -0.11963419802E+04  0.11963419802E+04  0.00000000000E+00 0. -1.
         23    2    1    2    0    0 -0.38694728221E+03  0.72162389769E+02  0.44948063113E+03  0.60377780032E+03  0.87058513072E+02 0.  0.
        254    2    1    2    0    0  0.38694728221E+03 -0.72162389769E+02 -0.90403727077E+03  0.13343495204E+04  0.89903817831E+03 0.  0.
        -24    2    4    4    0    0  0.57043126197E+03 -0.30320067714E+03 -0.46860872146E+03  0.80235317931E+03  0.82788980383E+02 0.  0.
         24    2    4    4    0    0 -0.18348397976E+03  0.23103828737E+03 -0.43542854931E+03  0.53199634113E+03  0.79856273167E+02 0.  0.
         13    1    3    3    0    0 -0.89413314304E+01  0.11233511784E+02  0.43131975385E+02  0.45458843973E+02  0.00000000000E+00 0. -1.
        -13    1    3    3    0    0 -0.37800595078E+03  0.60928877986E+02  0.40634865574E+03  0.55831895635E+03  0.00000000000E+00 0.  1.
          2    1    6    6  502    0 -0.63947383737E+02  0.87486596934E+02 -0.97015589992E+02  0.14544826307E+03  0.00000000000E+00 0. -1.
          1    1    5    5  503    0  0.15745158956E+03 -0.11295934710E+03 -0.17499670882E+03  0.26110278675E+03  0.00000000000E+00 0. -1.
         -2    1    5    5    0  503  0.41297967241E+03 -0.19024133004E+03 -0.29361201264E+03  0.54125039256E+03  0.00000000000E+00 0.  1.
         -3    1    6    6    0  502 -0.11953659603E+03  0.14355169044E+03 -0.33841295931E+03  0.38654807805E+03  0.00000000000E+00 0.  1.
<mgrwt>
<rscale>  0 0.18840689E+04</rscale>
<asrwt>0</asrwt>
<pdfrwt beam="1">  1        2 0.18405261E+00 0.18840689E+04</pdfrwt>
<pdfrwt beam="2">  1       -2 0.11412082E+00 0.18840689E+04</pdfrwt>
<totfact> 0.10727215E+01</totfact>
</mgrwt>
</event>
<event>
12    1  0.1489233E-007  0.1984011E+04  0.7818608E-02  0.8614133E-01
          2   -1    0    0  501    0  0.00000000000E+00  0.00000000000E+00  0.21465608737E+04  0.21465608737E+04  0.00000000000E+00 0. -1.
         -2   -1    0    0    0  501 -0.00000000000E+00 -0.00000000000E+00 -0.45844268394E+03  0.45844268394E+03  0.00000000000E+00 0.  1.
         23    2    1    2    0    0 -0.28101991759E+01 -0.69601396403E+03  0.11583759607E+04  0.13545501672E+04  0.92346921271E+02 0.  0.
        254    2    1    2    0    0  0.28101991759E+01  0.69601396403E+03  0.52974222908E+03  0.12504533904E+04  0.89362381180E+03 0.  0.
        -24    2    4    4    0    0 -0.38862089223E+03  0.53773119315E+03  0.16932783445E+03  0.68939280863E+03  0.80059322479E+02 0.  0.
         24    2    4    4    0    0  0.39143109141E+03  0.15828277088E+03  0.36041439464E+03  0.56106058180E+03  0.81355428248E+02 0.  0.
         11    1    3    3    0    0 -0.29074387300E+01 -0.23764919224E+00 -0.38942087007E+00  0.29430130345E+01  0.00000000000E+00 0.  1.
        -11    1    3    3    0    0  0.97239554125E-01 -0.69577631484E+03  0.11587653815E+04  0.13516071542E+04  0.00000000000E+00 0. -1.
          2    1    6    6  502    0  0.18550119254E+03  0.65305735886E+02  0.21978039410E+03  0.29492194425E+03  0.00000000000E+00 0. -1.
          1    1    5    5  503    0 -0.20590310880E+03  0.34007575701E+03  0.77861037884E+02  0.40510486536E+03  0.00000000000E+00 0. -1.
         -4    1    5    5    0  503 -0.18271778343E+03  0.19765543614E+03  0.91466796563E+02  0.28428794327E+03  0.00000000000E+00 0.  1.
         -1    1    6    6    0  502  0.20592989887E+03  0.92977034998E+02  0.14063400054E+03  0.26613863754E+03  0.00000000000E+00 0.  1.
<mgrwt>
<rscale>  0 0.19840112E+04</rscale>
<asrwt>0</asrwt>
<pdfrwt beam="1">  1        2 0.33024013E+00 0.19840112E+04</pdfrwt>
<pdfrwt beam="2">  1       -2 0.70529645E-01 0.19840112E+04</pdfrwt>
<totfact> 0.94123064E+00</totfact>
</mgrwt>
</event>
<event>
12    1  0.1489233E-007  0.2953607E+04  0.7818608E-02  0.8257104E-01
         -2   -1    0    0    0  501 -0.00000000000E+00  0.00000000000E+00  0.71589573336E+03  0.71589573336E+03  0.00000000000E+00 0.  1.
          2   -1    0    0  501    0  0.00000000000E+00 -0.00000000000E+00 -0.30464615891E+04  0.30464615891E+04  0.00000000000E+00 0. -1.
         23    2    1    2    0    0  0.95594613498E+03 -0.60695309599E+03 -0.19757189035E+04  0.22790211774E+04  0.90814468260E+02 0.  0.
        254    2    1    2    0    0 -0.95594613498E+03  0.60695309599E+03 -0.35484695215E+03  0.14833361450E+04  0.89002510404E+03 0.  0.
        -24    2    4    4    0    0  0.14550875595E+03  0.20776652981E+03 -0.53934609665E+02  0.27116786678E+03  0.79267527320E+02 0.  0.
         24    2    4    4    0    0 -0.11014548909E+04  0.39918656618E+03 -0.30091234249E+03  0.12121682782E+04  0.79062667781E+02 0.  0.
         11    1    3    3    0    0  0.58139682001E+03 -0.38191848512E+03 -0.11260956310E+04  0.13236220616E+04  0.00000000000E+00 0.  1.
        -11    1    3    3    0    0  0.37454931497E+03 -0.22503461087E+03 -0.84962327249E+03  0.95539911587E+03  0.00000000000E+00 0. -1.
          4    1    6    6  502    0 -0.19916468342E+03  0.66457424388E+02 -0.23495267419E+02  0.21127041432E+03  0.00000000000E+00 0. -1.
          1    1    5    5  503    0  0.48769922436E+02  0.65407590907E+02  0.19744074979E+02  0.83943354588E+02  0.00000000000E+00 0. -1.
         -2    1    5    5    0  503  0.96738833512E+02  0.14235893890E+03 -0.73678684643E+02  0.18722451219E+03  0.00000000000E+00 0.  1.
         -3    1    6    6    0  502 -0.90229020751E+03  0.33272914179E+03 -0.27741707507E+03  0.10008978639E+04  0.00000000000E+00 0.  1.
<mgrwt>
<rscale>  0 0.29536072E+04</rscale>
<asrwt>0</asrwt>
<pdfrwt beam="1">  1        2 0.46868640E+00 0.29536072E+04</pdfrwt>
<pdfrwt beam="2">  1       -2 0.11013781E+00 0.29536072E+04</pdfrwt>
<totfact> 0.91557936E-01</totfact>
</mgrwt>
</event>
<event>
12    1  0.1489233E-007  0.1149464E+04  0.7818608E-02  0.9158278E-01
          1   -1    0    0  501    0  0.00000000000E+00  0.00000000000E+00  0.21672183515E+04  0.21672183515E+04  0.00000000000E+00 0. -1.
         -1   -1    0    0    0  501 -0.00000000000E+00 -0.00000000000E+00 -0.15241522508E+03  0.15241522508E+03  0.00000000000E+00 0.  1.
         23    2    1    2    0    0  0.82070480895E+02 -0.83038728654E+02  0.11962447260E+03  0.20521614966E+03  0.11904897876E+03 0.  0.
        254    2    1    2    0    0 -0.82070480895E+02  0.83038728654E+02  0.18951786538E+04  0.21144174269E+04  0.93028379064E+03 0.  0.
        -24    2    4    4    0    0  0.10792233068E+03 -0.39373939963E+03  0.78542773432E+03  0.88903723875E+03  0.82538123126E+02 0.  0.
         24    2    4    4    0    0 -0.18999281158E+03  0.47677812828E+03  0.11097509195E+04  0.12253801882E+04  0.81208683006E+02 0.  0.
         11    1    3    3    0    0  0.13157311079E+02  0.99445512236E+01 -0.18650844978E+02  0.24897047059E+02  0.00000000000E+00 0. -1.
        -11    1    3    3    0    0  0.68913169816E+02 -0.92983279877E+02  0.13827531758E+03  0.18031910260E+03  0.00000000000E+00 0.  1.
          2    1    6    6  502    0 -0.19727908133E+03  0.45031041588E+03  0.10626165052E+04  0.11708340377E+04  0.00000000000E+00 0. -1.
          3    1    5    5  503    0  0.10356349239E+03 -0.31319724035E+03  0.68447584868E+03  0.75981912041E+03  0.00000000000E+00 0. -1.
         -4    1    5    5    0  503  0.43588382902E+01 -0.80542159281E+02  0.10095188563E+03  0.12921811834E+03  0.00000000000E+00 0.  1.
         -1    1    6    6    0  502  0.72862697582E+01  0.26467712402E+02  0.47134414263E+02  0.54546150503E+02  0.00000000000E+00 0.  1.
<mgrwt>
<rscale>  0 0.11494643E+04</rscale>
<asrwt>0</asrwt>
<pdfrwt beam="1">  1        1 0.33341819E+00 0.11494643E+04</pdfrwt>
<pdfrwt beam="2">  1       -1 0.23448498E-01 0.11494643E+04</pdfrwt>
<totfact> 0.35743065E+01</totfact>
</mgrwt>
</event>
<event>
12    1  0.1489233E-007  0.1895086E+04  0.7818608E-02  0.8657306E-01
         -1   -1    0    0    0  501 -0.00000000000E+00  0.00000000000E+00  0.23695528405E+04  0.23695528405E+04  0.00000000000E+00 0.  1.
          1   -1    0    0  501    0  0.00000000000E+00 -0.00000000000E+00 -0.37890603272E+03  0.37890603272E+03  0.00000000000E+00 0. -1.
         23    2    1    2    0    0 -0.40415641298E+03  0.76882876904E+02 -0.10550360886E+03  0.43444704879E+03  0.91432181470E+02 0.  0.
        254    2    1    2    0    0  0.40415641298E+03 -0.76882876904E+02  0.20961504166E+04  0.23140118244E+04  0.88969139116E+03 0.  0.
        -24    2    4    4    0    0 -0.81091887312E+02 -0.36859067144E+03  0.10976516359E+04  0.11634118529E+04  0.79076220179E+02 0.  0.
         24    2    4    4    0    0  0.48524830029E+03  0.29170779454E+03  0.99849878074E+03  0.11505999715E+04  0.79505527078E+02 0.  0.
         11    1    3    3    0    0 -0.40511981551E+03  0.68336378194E+02 -0.10916620904E+03  0.42509903164E+03  0.00000000000E+00 0. -1.
        -11    1    3    3    0    0  0.96340253078E+00  0.85464987093E+01  0.36626001801E+01  0.93480171536E+01  0.00000000000E+00 0.  1.
          4    1    6    6  502    0  0.39993800090E+03  0.23083228013E+03  0.86838271459E+03  0.98352553861E+03  0.00000000000E+00 0. -1.
          1    1    5    5  503    0 -0.43932018326E+02 -0.28933861745E+03  0.75442206011E+03  0.80919682560E+03  0.00000000000E+00 0. -1.
         -2    1    5    5    0  503 -0.37159868985E+02 -0.79252053994E+02  0.34322957574E+03  0.35421502733E+03  0.00000000000E+00 0.  1.
         -3    1    6    6    0  502  0.85310299395E+02  0.60875514408E+02  0.13011606615E+03  0.16707443284E+03  0.00000000000E+00 0.  1.
<mgrwt>
<rscale>  0 0.18950861E+04</rscale>
<asrwt>0</asrwt>
<pdfrwt beam="1">  1        1 0.58293237E-01 0.18950861E+04</pdfrwt>
<pdfrwt beam="2">  1       -1 0.36454658E+00 0.18950861E+04</pdfrwt>
<totfact> 0.75189429E-01</totfact>
</mgrwt>
</event>
<event>
12    1  0.1489233E-007  0.1776123E+04  0.7818608E-02  0.8719101E-01
         -2   -1    0    0    0  501 -0.00000000000E+00  0.00000000000E+00  0.35725732620E+03  0.35725732620E+03  0.00000000000E+00 0.  1.
          2   -1    0    0  501    0  0.00000000000E+00 -0.00000000000E+00 -0.22075216879E+04  0.22075216879E+04  0.00000000000E+00 0. -1.
         23    2    1    2    0    0 -0.34980039684E+03 -0.55393459645E+03 -0.57276255241E+03  0.87485355132E+03  0.90044100574E+02 0.  0.
        254    2    1    2    0    0  0.34980039684E+03  0.55393459645E+03 -0.12775018093E+04  0.16899254628E+04  0.89142208980E+03 0.  0.
        -24    2    4    4    0    0  0.51726532120E+03  0.57524761918E+03 -0.12868466419E+04  0.15036602149E+04  0.80910607446E+02 0.  0.
         24    2    4    4    0    0 -0.16746492436E+03 -0.21313022733E+02  0.93448325734E+01  0.18626524783E+03  0.78157986328E+02 0.  0.
         13    1    3    3    0    0 -0.59865613714E+02 -0.11005783047E+03 -0.15841259359E+03  0.20196823403E+03  0.00000000000E+00 0.  1.
        -13    1    3    3    0    0 -0.28993478313E+03 -0.44387676599E+03 -0.41434995882E+03  0.67288531729E+03  0.00000000000E+00 0. -1.
          2    1    6    6  502    0 -0.90251606987E+02  0.12564513456E+01 -0.32067179089E+02  0.95787448074E+02  0.00000000000E+00 0. -1.
          1    1    5    5  503    0  0.46866378462E+03  0.48898591553E+03 -0.11521431458E+04  0.13364829954E+04  0.00000000000E+00 0. -1.
         -2    1    5    5    0  503  0.48601536581E+02  0.86261703655E+02 -0.13470349605E+03  0.16717721951E+03  0.00000000000E+00 0.  1.
         -1    1    6    6    0  502 -0.77213317370E+02 -0.22569474079E+02  0.41412011663E+02  0.90477799760E+02  0.00000000000E+00 0.  1.
<mgrwt>
<rscale>  0 0.17761231E+04</rscale>
<asrwt>0</asrwt>
<pdfrwt beam="1">  1        2 0.33961873E+00 0.17761231E+04</pdfrwt>
<pdfrwt beam="2">  1       -2 0.54962664E-01 0.17761231E+04</pdfrwt>
<totfact> 0.15064367E+01</totfact>
</mgrwt>
</event>
<event>
12    1  0.1489233E-007  0.1253903E+04  0.7818608E-02  0.9066941E-01
          1   -1    0    0  501    0  0.00000000000E+00  0.00000000000E+00  0.37323334343E+03  0.37323334343E+03  0.00000000000E+00 0. -1.
         -1   -1    0    0    0  501 -0.00000000000E+00 -0.00000000000E+00 -0.10531439055E+04  0.10531439055E+04  0.00000000000E+00 0.  1.
         23    2    1    2    0    0  0.23539487567E+03  0.97536011076E+02 -0.33899136052E+03  0.43384760329E+03  0.91567349095E+02 0.  0.
        254    2    1    2    0    0 -0.23539487567E+03 -0.97536011076E+02 -0.34091920153E+03  0.99252964562E+03  0.89664105110E+03 0.  0.
        -24    2    4    4    0    0  0.68357225908E+02 -0.26577102897E+03  0.19780620091E+03  0.34723098893E+03  0.78326983723E+02 0.  0.
         24    2    4    4    0    0 -0.30375210158E+03  0.16823501789E+03 -0.53872540244E+03  0.64529865670E+03  0.74946224990E+02 0.  0.
         11    1    3    3    0    0  0.10548125700E+03  0.55381709156E+02 -0.23032013539E+03  0.25930829924E+03  0.00000000000E+00 0.  1.
        -11    1    3    3    0    0  0.12991361867E+03  0.42154301920E+02 -0.10867122513E+03  0.17453930405E+03  0.00000000000E+00 0. -1.
          2    1    6    6  502    0 -0.28652707858E+03  0.17580904865E+03 -0.51521542275E+03  0.61518576072E+03  0.00000000000E+00 0. -1.
          3    1    5    5  503    0  0.44958835377E+02 -0.23553271478E+03  0.19468893996E+03  0.30887010207E+03  0.00000000000E+00 0. -1.
         -4    1    5    5    0  503  0.23398390531E+02 -0.30238314186E+02  0.31172609479E+01  0.38360886853E+02  0.00000000000E+00 0.  1.
         -1    1    6    6    0  502 -0.17225022996E+02 -0.75740307613E+01 -0.23509979690E+02  0.30112895979E+02  0.00000000000E+00 0.  1.
<mgrwt>
<rscale>  0 0.12539034E+04</rscale>
<asrwt>0</asrwt>
<pdfrwt beam="1">  1        1 0.57420514E-01 0.12539034E+04</pdfrwt>
<pdfrwt beam="2">  1       -1 0.16202214E+00 0.12539034E+04</pdfrwt>
<totfact> 0.18297680E+01</totfact>
</mgrwt>
</event>
<event>
12    1  0.1489233E-007  0.1514145E+04  0.7818608E-02  0.8875101E-01
         -1   -1    0    0    0  501 -0.00000000000E+00  0.00000000000E+00  0.33039553655E+03  0.33039553655E+03  0.00000000000E+00 0.  1.
          1   -1    0    0  501    0  0.00000000000E+00 -0.00000000000E+00 -0.17347662058E+04  0.17347662058E+04  0.00000000000E+00 0. -1.
         23    2    1    2    0    0  0.42084577933E+03 -0.13718924606E+03 -0.73398585164E+03  0.86273451887E+03  0.98201631537E+02 0.  0.
        254    2    1    2    0    0 -0.42084577933E+03  0.13718924606E+03 -0.67038481765E+03  0.12024272235E+04  0.89469735940E+03 0.  0.
        -24    2    4    4    0    0 -0.55543544302E+03  0.20731790761E+03 -0.99208370878E+02  0.60630422916E+03  0.79203985167E+02 0.  0.
         24    2    4    4    0    0  0.13458966369E+03 -0.70128661547E+02 -0.57117644678E+03  0.59612299437E+03  0.78023613871E+02 0.  0.
         11    1    3    3    0    0  0.76660071274E+01 -0.90942967448E+01 -0.64963487634E+02  0.66043384408E+02  0.00000000000E+00 0.  1.
        -11    1    3    3    0    0  0.41317977220E+03 -0.12809494931E+03 -0.66902236401E+03  0.79669113447E+03  0.00000000000E+00 0. -1.
          2    1    6    6  502    0  0.68652602623E+02 -0.18441783361E+01 -0.15972539839E+03  0.17386426813E+03  0.00000000000E+00 0. -1.
          3    1    5    5  503    0 -0.23843129512E+03  0.47534309745E+02 -0.38383146935E+02  0.24613463605E+03  0.00000000000E+00 0. -1.
         -4    1    5    5    0  503 -0.31700414790E+03  0.15978359786E+03 -0.60825223942E+02  0.36016959311E+03  0.00000000000E+00 0.  1.
         -1    1    6    6    0  502  0.65937061067E+02 -0.68284483210E+02 -0.41145104838E+03  0.42225872624E+03  0.00000000000E+00 0.  1.
<mgrwt>
<rscale>  0 0.15141453E+04</rscale>
<asrwt>0</asrwt>
<pdfrwt beam="1">  1        1 0.26688711E+00 0.15141453E+04</pdfrwt>
<pdfrwt beam="2">  1       -1 0.50830082E-01 0.15141453E+04</pdfrwt>
<totfact> 0.16961723E+01</totfact>
</mgrwt>
</event>
<event>
12    1  0.1489233E-007  0.1282090E+04  0.7818608E-02  0.9043890E-01
          2   -1    0    0  501    0  0.00000000000E+00  0.00000000000E+00  0.30133385347E+04  0.30133385347E+04  0.00000000000E+00 0.  1.
         -2   -1    0    0    0  501 -0.00000000000E+00 -0.00000000000E+00 -0.13637315882E+03  0.13637315882E+03  0.00000000000E+00 0. -1.
         23    2    1    2    0    0  0.10273545963E+03 -0.30513535030E+03  0.56301753747E+03  0.65532105701E+03  0.93780507542E+02 0.  0.
        254    2    1    2    0    0 -0.10273545963E+03  0.30513535030E+03  0.23139478384E+04  0.24943906365E+04  0.87405256818E+03 0.  0.
        -24    2    4    4    0    0 -0.13077901732E+03  0.39452264588E+03  0.23321117784E+04  0.23702002301E+04  0.79702663461E+02 0.  0.
         24    2    4    4    0    0  0.28043557688E+02 -0.89387295585E+02 -0.18163939955E+02  0.12419040639E+03  0.79478290026E+02 0.  0.
         13    1    3    3    0    0  0.58911462675E+02 -0.56578601352E+02  0.16331922320E+03  0.18260576999E+03  0.00000000000E+00 0. -1.
        -13    1    3    3    0    0  0.43823996953E+02 -0.24855674895E+03  0.39969831427E+03  0.47271528702E+03  0.00000000000E+00 0.  1.
          4    1    6    6  502    0  0.40069915267E+02 -0.95392268491E+01 -0.13346819222E+02  0.43298181737E+02  0.00000000000E+00 0. -1.
          3    1    5    5  503    0  0.81987743166E+01  0.47116064148E+02  0.32641538388E+03  0.32990020647E+03  0.00000000000E+00 0. -1.
         -4    1    5    5    0  503 -0.13897779163E+03  0.34740658174E+03  0.20056963945E+04  0.20403000237E+04  0.00000000000E+00 0.  1.
         -3    1    6    6    0  502 -0.12026357580E+02 -0.79848068736E+02 -0.48171207324E+01  0.80892224655E+02  0.00000000000E+00 0.  1.
<mgrwt>
<rscale>  0 0.12820897E+04</rscale>
<asrwt>0</asrwt>
<pdfrwt beam="1">  1        2 0.46359049E+00 0.12820897E+04</pdfrwt>
<pdfrwt beam="2">  1       -2 0.20980488E-01 0.12820897E+04</pdfrwt>
<totfact> 0.33325461E+01</totfact>
</mgrwt>
</event>
<event>
12    1  0.1489233E-007  0.1567770E+04  0.7818608E-02  0.8840597E-01
          2   -1    0    0  501    0  0.00000000000E+00  0.00000000000E+00  0.31393488609E+04  0.31393488609E+04  0.00000000000E+00 0. -1.
         -2   -1    0    0    0  501 -0.00000000000E+00 -0.00000000000E+00 -0.19573347112E+03  0.19573347112E+03  0.00000000000E+00 0.  1.
         23    2    1    2    0    0  0.19708407305E+03  0.47938880934E+03  0.93873735035E+03  0.10762065441E+04  0.91306901978E+02 0.  0.
        254    2    1    2    0    0 -0.19708407305E+03 -0.47938880934E+03  0.20048780395E+04  0.22588757879E+04  0.90240130191E+03 0.  0.
        -24    2    4    4    0    0  0.59495869181E+02  0.18716126200E+02  0.14911543161E+04  0.14945834850E+04  0.79677771661E+02 0.  0.
         24    2    4    4    0    0 -0.25657994223E+03 -0.49810493554E+03  0.51372372334E+03  0.76429230291E+03  0.79302375754E+02 0.  0.
         11    1    3    3    0    0  0.10534983770E+02  0.55462490698E+02  0.16555499742E+03  0.17491578238E+03  0.00000000000E+00 0. -1.
        -11    1    3    3    0    0  0.18654908928E+03  0.42392631864E+03  0.77318235293E+03  0.90129076176E+03  0.00000000000E+00 0.  1.
          4    1    6    6  502    0 -0.21989672284E+03 -0.42529088811E+03  0.47352325243E+03  0.67338783685E+03  0.00000000000E+00 0. -1.
          3    1    5    5  503    0  0.57685641055E+02  0.35292641798E+02  0.14154458849E+04  0.14170604281E+04  0.00000000000E+00 0. -1.
         -2    1    5    5    0  503  0.18102281262E+01 -0.16576515598E+02  0.75708431236E+02  0.77523056928E+02  0.00000000000E+00 0.  1.
         -3    1    6    6    0  502 -0.36683219395E+02 -0.72814047433E+02  0.40200470908E+02  0.90904466061E+02  0.00000000000E+00 0.  1.
<mgrwt>
<rscale>  0 0.15677699E+04</rscale>
<asrwt>0</asrwt>
<pdfrwt beam="1">  1        2 0.48297671E+00 0.15677699E+04</pdfrwt>
<pdfrwt beam="2">  1       -2 0.30112844E-01 0.15677699E+04</pdfrwt>
<totfact> 0.14007426E+01</totfact>
</mgrwt>
</event>
<event>
12    1  0.1489233E-007  0.1718556E+04  0.7818608E-02  0.8750851E-01
         -2   -1    0    0    0  501 -0.00000000000E+00  0.00000000000E+00  0.36215074559E+03  0.36215074559E+03  0.00000000000E+00 0.  1.
          2   -1    0    0  501    0  0.00000000000E+00 -0.00000000000E+00 -0.20388167053E+04  0.20388167053E+04  0.00000000000E+00 0. -1.
         23    2    1    2    0    0  0.42617963929E+03 -0.28601365180E+03 -0.12402827481E+03  0.53594012046E+03  0.91738246105E+02 0.  0.
        254    2    1    2    0    0 -0.42617963929E+03  0.28601365180E+03 -0.15526376849E+04  0.18650273304E+04  0.89677771421E+03 0.  0.
        -24    2    4    4    0    0 -0.29629684609E+02  0.53039562660E+03 -0.10202691257E+04  0.11532059282E+04  0.82081575685E+02 0.  0.
         24    2    4    4    0    0 -0.39654995469E+03 -0.24438197480E+03 -0.53236855915E+03  0.71182140217E+03  0.79366300487E+02 0.  0.
         13    1    3    3    0    0  0.19136133029E+03 -0.80770018882E+02 -0.71525341405E+02  0.21967892285E+03  0.00000000000E+00 0.  1.
        -13    1    3    3    0    0  0.23481830900E+03 -0.20524363292E+03 -0.52502933403E+02  0.31626119761E+03  0.00000000000E+00 0. -1.
          2    1    6    6  502    0 -0.39521754565E+03 -0.22838598940E+03 -0.51366582836E+03  0.68717512452E+03  0.00000000000E+00 0. -1.
          3    1    5    5  503    0  0.14265689615E+02  0.33298051974E+03 -0.68228820587E+03  0.75933966859E+03  0.00000000000E+00 0. -1.
         -4    1    5    5    0  503 -0.43895374224E+02  0.19741510686E+03 -0.33798091986E+03  0.39386625965E+03  0.00000000000E+00 0.  1.
         -1    1    6    6    0  502 -0.13324090350E+01 -0.15995985405E+02 -0.18702730791E+02  0.24646277649E+02  0.00000000000E+00 0.  1.
<mgrwt>
<rscale>  0 0.17185564E+04</rscale>
<asrwt>0</asrwt>
<pdfrwt beam="1">  1        2 0.31366411E+00 0.17185564E+04</pdfrwt>
<pdfrwt beam="2">  1       -2 0.55715499E-01 0.17185564E+04</pdfrwt>
<totfact> 0.18281494E+01</totfact>
</mgrwt>
</event>
<event>
12    1  0.1489233E-007  0.1521789E+04  0.7818608E-02  0.8870092E-01
         -2   -1    0    0    0  501 -0.00000000000E+00  0.00000000000E+00  0.21673281055E+04  0.21673281055E+04  0.00000000000E+00 0.  1.
          2   -1    0    0  501    0  0.00000000000E+00 -0.00000000000E+00 -0.26713090185E+03  0.26713090185E+03  0.00000000000E+00 0. -1.
         23    2    1    2    0    0 -0.12995259079E+03  0.38169194851E+03  0.16830830301E+03  0.44674326583E+03  0.93142048973E+02 0.  0.
        254    2    1    2    0    0  0.12995259079E+03 -0.38169194851E+03  0.17318889006E+04  0.19877157415E+04  0.88825575458E+03 0.  0.
        -24    2    4    4    0    0 -0.27550018971E+03  0.82573326283E+02  0.28155957557E+03  0.40978081222E+03  0.76979287636E+02 0.  0.
         24    2    4    4    0    0  0.40545278050E+03 -0.46426527479E+03  0.14503293250E+04  0.15779349293E+04  0.80556113260E+02 0.  0.
         11    1    3    3    0    0 -0.65448324146E+02  0.28107598898E+03  0.15182380072E+03  0.32609455865E+03  0.00000000000E+00 0.  1.
        -11    1    3    3    0    0 -0.64504266648E+02  0.10061595953E+03  0.16484502290E+02  0.12064870718E+03  0.00000000000E+00 0. -1.
          2    1    6    6  502    0  0.38162323902E+03 -0.43302695110E+03  0.13982544744E+04  0.15127009659E+04  0.00000000000E+00 0. -1.
          1    1    5    5  503    0 -0.25873711885E+03  0.56056085959E+02  0.26378408288E+03  0.37372345903E+03  0.00000000000E+00 0. -1.
         -2    1    5    5    0  503 -0.16763070860E+02  0.26517240324E+02  0.17775492683E+02  0.36057353192E+02  0.00000000000E+00 0.  1.
         -1    1    6    6    0  502  0.23829541479E+02 -0.31238323693E+02  0.52074850635E+02  0.65233963416E+02  0.00000000000E+00 0.  1.
<mgrwt>
<rscale>  0 0.15217888E+04</rscale>
<asrwt>0</asrwt>
<pdfrwt beam="1">  1        2 0.41097063E-01 0.15217888E+04</pdfrwt>
<pdfrwt beam="2">  1       -2 0.33343508E+00 0.15217888E+04</pdfrwt>
<totfact> 0.23960480E+00</totfact>
</mgrwt>
</event>
<event>
12    1  0.1489233E-007  0.3250782E+04  0.7818608E-02  0.8175533E-01
         -1   -1    0    0    0  501 -0.00000000000E+00  0.00000000000E+00  0.20571472180E+04  0.20571472180E+04  0.00000000000E+00 0.  1.
          1   -1    0    0  501    0  0.00000000000E+00 -0.00000000000E+00 -0.12842523687E+04  0.12842523687E+04  0.00000000000E+00 0. -1.
         23    2    1    2    0    0  0.14698504987E+04  0.27322030991E+03  0.28233606086E+03  0.15242813202E+04  0.92790439423E+02 0.  0.
        254    2    1    2    0    0 -0.14698504987E+04 -0.27322030991E+03  0.49055878843E+03  0.18171182665E+04  0.90893401489E+03 0.  0.
        -24    2    4    4    0    0 -0.14538537842E+04 -0.47182186377E+03  0.47610963277E+03  0.16029798385E+04  0.80977055704E+02 0.  0.
         24    2    4    4    0    0 -0.15996714511E+02  0.19860155386E+03  0.14449155662E+02  0.21413842796E+03  0.77123382702E+02 0.  0.
         13    1    3    3    0    0  0.58395715823E+03  0.64722474148E+02  0.12501468767E+03  0.60068596907E+03  0.00000000000E+00 0.  1.
        -13    1    3    3    0    0  0.88589334043E+03  0.20849783576E+03  0.15732137319E+03  0.92359535112E+03  0.00000000000E+00 0. -1.
          2    1    6    6  502    0 -0.47518762408E+01  0.19980196150E+03  0.58715806956E+01  0.19994469137E+03  0.00000000000E+00 0. -1.
          3    1    5    5  503    0 -0.13112391840E+04 -0.44983123343E+03  0.43625123094E+03  0.14532761171E+04  0.00000000000E+00 0. -1.
         -4    1    5    5    0  503 -0.14261460018E+03 -0.21990630346E+02  0.39858401823E+02  0.14970372140E+03  0.00000000000E+00 0.  1.
         -1    1    6    6    0  502 -0.11244838270E+02 -0.12004076362E+01  0.85775749667E+01  0.14193736595E+02  0.00000000000E+00 0.  1.
<mgrwt>
<rscale>  0 0.32507822E+04</rscale>
<asrwt>0</asrwt>
<pdfrwt beam="1">  1        1 0.19757729E+00 0.32507822E+04</pdfrwt>
<pdfrwt beam="2">  1       -1 0.31648419E+00 0.32507822E+04</pdfrwt>
<totfact> 0.19950794E-01</totfact>
</mgrwt>
</event>
<event>
12    1  0.1489233E-007  0.1627737E+04  0.7818608E-02  0.8803687E-01
          2   -1    0    0  501    0  0.00000000000E+00  0.00000000000E+00  0.18258967414E+04  0.18258967414E+04  0.00000000000E+00 0. -1.
         -2   -1    0    0    0  501 -0.00000000000E+00 -0.00000000000E+00 -0.36277093346E+03  0.36277093346E+03  0.00000000000E+00 0.  1.
         23    2    1    2    0    0 -0.36973567168E+03  0.27123842109E+02  0.10929377726E+04  0.11604660329E+04  0.12136008011E+03 0.  0.
        254    2    1    2    0    0  0.36973567168E+03 -0.27123842109E+02  0.37018803533E+03  0.10282016419E+04  0.88471422802E+03 0.  0.
        -24    2    4    4    0    0  0.45543990897E+03  0.31986871320E+03  0.34803068770E+03  0.66136303258E+03  0.80834379577E+02 0.  0.
         24    2    4    4    0    0 -0.85704237282E+02 -0.34699255531E+03  0.22157347626E+02  0.36683860936E+03  0.79564863670E+02 0.  0.
         13    1    3    3    0    0 -0.34535868703E+03  0.16486250082E+02  0.10727010237E+04  0.11270456536E+04  0.00000000000E+00 0. -1.
        -13    1    3    3    0    0 -0.24376984653E+02  0.10637592026E+02  0.20236748914E+02  0.33420379284E+02  0.00000000000E+00 0.  1.
          4    1    6    6  502    0 -0.10687106447E+02 -0.57253503861E+02  0.33762426840E+02  0.67320720545E+02  0.00000000000E+00 0. -1.
          3    1    5    5  503    0  0.25736160533E+03  0.21679263551E+03  0.17784236602E+03  0.38060734342E+03  0.00000000000E+00 0. -1.
         -4    1    5    5    0  503  0.19807830364E+03  0.10307607769E+03  0.17018832168E+03  0.28075568917E+03  0.00000000000E+00 0.  1.
         -3    1    6    6    0  502 -0.75017130835E+02 -0.28973905145E+03 -0.11605079214E+02  0.29951788881E+03  0.00000000000E+00 0.  1.
<mgrwt>
<rscale>  0 0.16277374E+04</rscale>
<asrwt>0</asrwt>
<pdfrwt beam="1">  1        2 0.28090719E+00 0.16277374E+04</pdfrwt>
<pdfrwt beam="2">  1       -2 0.55810914E-01 0.16277374E+04</pdfrwt>
<totfact> 0.24087104E+01</totfact>
</mgrwt>
</event>
<event>
12    1  0.1489233E-007  0.1114518E+04  0.7818608E-02  0.9191156E-01
         -2   -1    0    0    0  501 -0.00000000000E+00  0.00000000000E+00  0.29214153029E+03  0.29214153029E+03  0.00000000000E+00 0.  1.
          2   -1    0    0  501    0  0.00000000000E+00 -0.00000000000E+00 -0.10629689692E+04  0.10629689692E+04  0.00000000000E+00 0. -1.
         23    2    1    2    0    0  0.46687416441E+02  0.19421361717E+02 -0.34920007104E+03  0.36295608444E+03  0.85085401038E+02 0.  0.
        254    2    1    2    0    0 -0.46687416441E+02 -0.19421361717E+02 -0.42162736785E+03  0.99215441503E+03  0.89668491779E+03 0.  0.
        -24    2    4    4    0    0 -0.42680217864E+03  0.45052110100E+02 -0.40775932137E+03  0.59813978045E+03  0.85520409649E+02 0.  0.
         24    2    4    4    0    0  0.38011476220E+03 -0.64473471817E+02 -0.13868046475E+02  0.39401463458E+03  0.80069648036E+02 0.  0.
         11    1    3    3    0    0  0.75133050850E+01  0.33357005880E+02 -0.28105839100E+03  0.28313063901E+03  0.00000000000E+00 0. -1.
        -11    1    3    3    0    0  0.39174111356E+02 -0.13935644163E+02 -0.68141680039E+02  0.79825445425E+02  0.00000000000E+00 0.  1.
          2    1    6    6  502    0  0.34126006481E+03 -0.81955561293E+02 -0.16274157323E+02  0.35134028243E+03  0.00000000000E+00 0. -1.
          3    1    5    5  503    0 -0.27105946850E+03  0.22277324947E+02 -0.31199803863E+03  0.41389888956E+03  0.00000000000E+00 0. -1.
         -4    1    5    5    0  503 -0.15574271015E+03  0.22774785153E+02 -0.95761282742E+02  0.18424089089E+03  0.00000000000E+00 0.  1.
         -1    1    6    6    0  502  0.38854697389E+02  0.17482089476E+02  0.24061108484E+01  0.42674352146E+02  0.00000000000E+00 0.  1.
<mgrwt>
<rscale>  0 0.11145176E+04</rscale>
<asrwt>0</asrwt>
<pdfrwt beam="1">  1        2 0.16353369E+00 0.11145176E+04</pdfrwt>
<pdfrwt beam="2">  1       -2 0.44944850E-01 0.11145176E+04</pdfrwt>
<totfact> 0.10693900E+02</totfact>
</mgrwt>
</event>
<event>
12    1  0.1489233E-007  0.1442155E+04  0.7818608E-02  0.8923858E-01
         -1   -1    0    0    0  501 -0.00000000000E+00  0.00000000000E+00  0.45794751562E+03  0.45794751562E+03  0.00000000000E+00 0.  1.
          1   -1    0    0  501    0  0.00000000000E+00 -0.00000000000E+00 -0.11353975476E+04  0.11353975476E+04  0.00000000000E+00 0. -1.
         23    2    1    2    0    0  0.28797562020E+03 -0.24617955758E+03 -0.42665465381E+03  0.57755014466E+03  0.89418362613E+02 0.  0.
        254    2    1    2    0    0 -0.28797562020E+03  0.24617955758E+03 -0.25079537820E+03  0.10157949186E+04  0.90851893899E+03 0.  0.
        -24    2    4    4    0    0 -0.22936784586E+03  0.54342207676E+03 -0.34659797835E+03  0.68841083919E+03  0.76564761445E+02 0.  0.
         24    2    4    4    0    0 -0.58607774344E+02 -0.29724251917E+03  0.95802600151E+02  0.32738407940E+03  0.78830265970E+02 0.  0.
         13    1    3    3    0    0  0.14667648352E+03 -0.15359692397E+03 -0.29438246622E+03  0.36299730342E+03  0.00000000000E+00 0. -1.
        -13    1    3    3    0    0  0.14129913668E+03 -0.92582633612E+02 -0.13227218759E+03  0.21455284124E+03  0.00000000000E+00 0.  1.
          4    1    6    6  502    0 -0.13612108897E+02 -0.63832743889E+02 -0.12020693674E+02  0.66365697295E+02  0.00000000000E+00 0. -1.
          1    1    5    5  503    0 -0.44404139146E+02  0.81069994315E+02 -0.86519932844E+02  0.12660872928E+03  0.00000000000E+00 0. -1.
         -4    1    5    5    0  503 -0.18496370671E+03  0.46235208244E+03 -0.26007804551E+03  0.56180210991E+03  0.00000000000E+00 0.  1.
         -3    1    6    6    0  502 -0.44995665447E+02 -0.23340977529E+03  0.10782329382E+03  0.26101838211E+03  0.00000000000E+00 0.  1.
<mgrwt>
<rscale>  0 0.14421546E+04</rscale>
<asrwt>0</asrwt>
<pdfrwt beam="1">  1        1 0.17467654E+00 0.14421546E+04</pdfrwt>
<pdfrwt beam="2">  1       -1 0.70453464E-01 0.14421546E+04</pdfrwt>
<totfact> 0.23601409E+01</totfact>
</mgrwt>
</event>
<event>
12    1  0.1489233E-007  0.2953074E+04  0.7818608E-02  0.8257259E-01
          3   -1    0    0  501    0  0.00000000000E+00  0.00000000000E+00  0.10220654191E+04  0.10220654191E+04  0.00000000000E+00 0. -1.
         -3   -1    0    0    0  501 -0.00000000000E+00 -0.00000000000E+00 -0.21330939138E+04  0.21330939138E+04  0.00000000000E+00 0.  1.
         23    2    1    2    0    0 -0.33262031504E+03 -0.13872170325E+03  0.87262202366E+03  0.94855782495E+03  0.91721132598E+02 0.  0.
        254    2    1    2    0    0  0.33262031504E+03  0.13872170325E+03 -0.19836505184E+04  0.22066015080E+04  0.89685051753E+03 0.  0.
        -24    2    4    4    0    0 -0.14761315787E+03  0.33610419548E+03 -0.12432357456E+04  0.12987964130E+04  0.80506699890E+02 0.  0.
         24    2    4    4    0    0  0.48023347292E+03 -0.19738249223E+03 -0.74041477280E+03  0.90780509494E+03  0.79448208660E+02 0.  0.
         13    1    3    3    0    0 -0.32646617168E+03 -0.12384938940E+03  0.85974883505E+03  0.92794767733E+03  0.00000000000E+00 0. -1.
        -13    1    3    3    0    0 -0.61541433661E+01 -0.14872313843E+02  0.12873188611E+02  0.20610147613E+02  0.00000000000E+00 0.  1.
          2    1    6    6  502    0  0.40896744513E+03 -0.19436197702E+03 -0.61809072711E+03  0.76620303851E+03  0.00000000000E+00 0. -1.
          1    1    5    5  503    0 -0.15390874199E+03  0.33319054758E+03 -0.12327338890E+04  0.12862102017E+04  0.00000000000E+00 0. -1.
         -2    1    5    5    0  503  0.62955841172E+01  0.29136478926E+01 -0.10501856645E+02  0.12586211361E+02  0.00000000000E+00 0.  1.
         -1    1    6    6    0  502  0.71266027791E+02 -0.30205152097E+01 -0.12232404570E+03  0.14160205643E+03  0.00000000000E+00 0.  1.
<mgrwt>
<rscale>  0 0.29530740E+04</rscale>
<asrwt>0</asrwt>
<pdfrwt beam="1">  1        3 0.15724084E+00 0.29530740E+04</pdfrwt>
<pdfrwt beam="2">  1       -3 0.32816829E+00 0.29530740E+04</pdfrwt>
<totfact> 0.16878527E-02</totfact>
</mgrwt>
</event>
<event>
12    1  0.1489233E-007  0.2328267E+04  0.7818608E-02  0.8466858E-01
          1   -1    0    0  501    0  0.00000000000E+00  0.00000000000E+00  0.14794890575E+04  0.14794890575E+04  0.00000000000E+00 0. -1.
         -1   -1    0    0    0  501 -0.00000000000E+00 -0.00000000000E+00 -0.91599653267E+03  0.91599653267E+03  0.00000000000E+00 0.  1.
         23    2    1    2    0    0 -0.64643519543E+03 -0.29130359058E+03 -0.46226420058E+03  0.85440764519E+03  0.11656753086E+03 0.  0.
        254    2    1    2    0    0  0.64643519543E+03  0.29130359058E+03  0.10257567254E+04  0.15410779449E+04  0.90554300227E+03 0.  0.
        -24    2    4    4    0    0  0.80765673217E+03  0.83669924602E+02  0.95621690804E+03  0.12568805801E+04  0.78025406712E+02 0.  0.
         24    2    4    4    0    0 -0.16122153673E+03  0.20763366598E+03  0.69539817342E+02  0.28419736486E+03  0.82633121938E+02 0.  0.
         13    1    3    3    0    0 -0.49425722349E+03 -0.24819718116E+03 -0.40766755269E+03  0.68708433051E+03  0.00000000000E+00 0.  1.
        -13    1    3    3    0    0 -0.15217797194E+03 -0.43106409415E+02 -0.54596647881E+02  0.16732331468E+03  0.00000000000E+00 0. -1.
          4    1    6    6  502    0 -0.18454725449E+02  0.79691909907E+02  0.36873151338E+02  0.89727402089E+02  0.00000000000E+00 0. -1.
          1    1    5    5  503    0  0.27585630488E+02 -0.36372503285E+01  0.16069509811E+02  0.32131382555E+02  0.00000000000E+00 0. -1.
         -2    1    5    5    0  503  0.78007110168E+03  0.87307174931E+02  0.94014739822E+03  0.12247491975E+04  0.00000000000E+00 0.  1.
         -3    1    6    6    0  502 -0.14276681129E+03  0.12794175607E+03  0.32666666004E+02  0.19446996277E+03  0.00000000000E+00 0.  1.
<mgrwt>
<rscale>  0 0.23282670E+04</rscale>
<asrwt>0</asrwt>
<pdfrwt beam="1">  1        1 0.22761370E+00 0.23282670E+04</pdfrwt>
<pdfrwt beam="2">  1       -1 0.14092254E+00 0.23282670E+04</pdfrwt>
<totfact> 0.25113486E+00</totfact>
</mgrwt>
</event>
<event>
12    1  0.1489233E-007  0.1471266E+04  0.7818608E-02  0.8903789E-01
          1   -1    0    0  501    0  0.00000000000E+00  0.00000000000E+00  0.86502760815E+03  0.86502760815E+03  0.00000000000E+00 0. -1.
         -1   -1    0    0    0  501 -0.00000000000E+00 -0.00000000000E+00 -0.62559376737E+03  0.62559376737E+03  0.00000000000E+00 0.  1.
         23    2    1    2    0    0 -0.36860919160E+03  0.22978890454E+02  0.33633114167E+03  0.50787355018E+03  0.91739525686E+02 0.  0.
        254    2    1    2    0    0  0.36860919160E+03 -0.22978890454E+02 -0.96897300896E+02  0.98274782534E+03  0.90554041089E+03 0.  0.
        -24    2    4    4    0    0  0.40765814391E+03  0.31721268924E+03 -0.27231866028E+03  0.58962675051E+03  0.81811977513E+02 0.  0.
         24    2    4    4    0    0 -0.39048952315E+02 -0.34019157969E+03  0.17542135938E+03  0.39312107484E+03  0.80724188348E+02 0.  0.
         11    1    3    3    0    0 -0.10849845714E+03 -0.54560731836E+00  0.47414710843E+02  0.11840763360E+03  0.00000000000E+00 0.  1.
        -11    1    3    3    0    0 -0.26011073446E+03  0.23524497772E+02  0.28891643083E+03  0.38946591658E+03  0.00000000000E+00 0. -1.
          2    1    6    6  502    0  0.77040418289E+01 -0.10638766795E+03  0.90919756646E+02  0.14015737691E+03  0.00000000000E+00 0. -1.
          1    1    5    5  503    0  0.25706499282E+03  0.23288123929E+03 -0.21337817352E+03  0.40724234441E+03  0.00000000000E+00 0. -1.
         -2    1    5    5    0  503  0.15059315110E+03  0.84331449943E+02 -0.58940486753E+02  0.18238440609E+03  0.00000000000E+00 0.  1.
         -1    1    6    6    0  502 -0.46752994144E+02 -0.23380391174E+03  0.84501602735E+02  0.25296369793E+03  0.00000000000E+00 0.  1.
<mgrwt>
<rscale>  0 0.14712660E+04</rscale>
<asrwt>0</asrwt>
<pdfrwt beam="1">  1        1 0.13308117E+00 0.14712660E+04</pdfrwt>
<pdfrwt beam="2">  1       -1 0.96245195E-01 0.14712660E+04</pdfrwt>
<totfact> 0.19618845E+01</totfact>
</mgrwt>
</event>
<event>
12    1  0.1529656E-007  0.1849508E+04  0.7818608E-02  0.8680406E-01
         -2   -1    0    0    0  501 -0.00000000000E+00  0.00000000000E+00  0.47412747127E+03  0.47412747127E+03  0.00000000000E+00 0.  1.
          2   -1    0    0  501    0  0.00000000000E+00 -0.00000000000E+00 -0.18036708411E+04  0.18036708411E+04  0.00000000000E+00 0. -1.
         23    2    1    2    0    0  0.36000419031E+02  0.47682771267E+03  0.12705857372E+03  0.50315938359E+03  0.91459206179E+02 0.  0.
        254    2    1    2    0    0 -0.36000419031E+02 -0.47682771267E+03 -0.14566019435E+04  0.17746389288E+04  0.89386431174E+03 0.  0.
        -24    2    4    4    0    0 -0.31213608841E+03  0.12579612870E+03 -0.49538141719E+03  0.60427018152E+03  0.80536327816E+02 0.  0.
         24    2    4    4    0    0  0.27613566937E+03 -0.60262384137E+03 -0.96122052634E+03  0.11703687472E+04  0.80073104989E+02 0.  0.
         11    1    3    3    0    0  0.60999917584E+02  0.40701048813E+03  0.11984870367E+03  0.42865165246E+03  0.00000000000E+00 0.  1.
        -11    1    3    3    0    0 -0.24999498553E+02  0.69817224550E+02  0.72098700581E+01  0.74507731129E+02  0.00000000000E+00 0. -1.
          4    1    6    6  502    0  0.24058235156E+03 -0.52958952133E+03 -0.79191137079E+03  0.98258259102E+03  0.00000000000E+00 0. -1.
          1    1    5    5  503    0 -0.30456485810E+03  0.13568229222E+03 -0.48077746377E+03  0.58507812032E+03  0.00000000000E+00 0. -1.
         -2    1    5    5    0  503 -0.75712303056E+01 -0.98861635228E+01 -0.14603953421E+02  0.19192061199E+02  0.00000000000E+00 0.  1.
         -3    1    6    6    0  502  0.35553317815E+02 -0.73034320042E+02 -0.16930915555E+03  0.18778615621E+03  0.00000000000E+00 0.  1.
<mgrwt>
<rscale>  0 0.18495079E+04</rscale>
<asrwt>0</asrwt>
<pdfrwt beam="1">  1        2 0.27748782E+00 0.18495079E+04</pdfrwt>
<pdfrwt beam="2">  1       -2 0.72942688E-01 0.18495079E+04</pdfrwt>
<totfact> 0.13713061E+01</totfact>
</mgrwt>
</event>
<event>
12    1  0.1489233E-007  0.1430053E+04  0.7818608E-02  0.8932347E-01
          1   -1    0    0  501    0  0.00000000000E+00  0.00000000000E+00  0.39482888958E+03  0.39482888958E+03  0.00000000000E+00 0. -1.
         -1   -1    0    0    0  501 -0.00000000000E+00 -0.00000000000E+00 -0.12948974269E+04  0.12948974269E+04  0.00000000000E+00 0.  1.
         23    2    1    2    0    0  0.36205004147E+03 -0.39574797495E+02 -0.72779801242E+01  0.37593587514E+03  0.92889267913E+02 0.  0.
        254    2    1    2    0    0 -0.36205004147E+03  0.39574797495E+02 -0.89279055720E+03  0.13137904413E+04  0.89236984912E+03 0.  0.
        -24    2    4    4    0    0 -0.36630051776E+03  0.42090470189E+03 -0.43366175306E+03  0.71104234246E+03  0.78624800921E+02 0.  0.
         24    2    4    4    0    0  0.42504762862E+01 -0.38132990439E+03 -0.45912880413E+03  0.60274809889E+03  0.84115690516E+02 0.  0.
         13    1    3    3    0    0  0.25082239911E+03 -0.54978862288E+02  0.27842893800E+02  0.25828236086E+03  0.00000000000E+00 0. -1.
        -13    1    3    3    0    0  0.11122764236E+03  0.15404064793E+02 -0.35120873924E+02  0.11765351428E+03  0.00000000000E+00 0.  1.
          4    1    6    6  502    0  0.22398880140E+02 -0.54046820655E+02 -0.40945702596E+02  0.71409517681E+02  0.00000000000E+00 0. -1.
          1    1    5    5  503    0 -0.21387295279E+03  0.21642505688E+03 -0.27866517634E+03  0.41259632291E+03  0.00000000000E+00 0. -1.
         -2    1    5    5    0  503 -0.15242756497E+03  0.20447964501E+03 -0.15499657672E+03  0.29844601955E+03  0.00000000000E+00 0.  1.
         -3    1    6    6    0  502 -0.18148403854E+02 -0.32728308374E+03 -0.41818310154E+03  0.53133858120E+03  0.00000000000E+00 0.  1.
<mgrwt>
<rscale>  0 0.14300530E+04</rscale>
<asrwt>0</asrwt>
<pdfrwt beam="1">  1        1 0.60742905E-01 0.14300530E+04</pdfrwt>
<pdfrwt beam="2">  1       -1 0.19921499E+00 0.14300530E+04</pdfrwt>
<totfact> 0.90489748E+00</totfact>
</mgrwt>
</event>
<event>
12    1  0.1489233E-007  0.4122233E+04  0.7818608E-02  0.7980332E-01
         -1   -1    0    0    0  501 -0.00000000000E+00  0.00000000000E+00  0.11909659474E+04  0.11909659474E+04  0.00000000000E+00 0.  1.
          1   -1    0    0  501    0  0.00000000000E+00 -0.00000000000E+00 -0.35670218862E+04  0.35670218862E+04  0.00000000000E+00 0. -1.
         23    2    1    2    0    0 -0.68663997723E+03 -0.75631615123E+03 -0.30660800210E+04  0.32330408806E+04  0.90653526265E+02 0.  0.
        254    2    1    2    0    0  0.68663997723E+03  0.75631615123E+03  0.69002408208E+03  0.15249469530E+04  0.89768669182E+03 0.  0.
        -24    2    4    4    0    0  0.13884020443E+03  0.55625498836E+03  0.73383114508E+03  0.93465678692E+03  0.79868300397E+02 0.  0.
         24    2    4    4    0    0  0.54779977280E+03  0.20006116287E+03 -0.43807062999E+02  0.59029016608E+03  0.80089708644E+02 0.  0.
         11    1    3    3    0    0 -0.63843248862E+03 -0.67982311770E+03 -0.28533588090E+04  0.30019013986E+04  0.00000000000E+00 0. -1.
        -11    1    3    3    0    0 -0.48207488607E+02 -0.76493033528E+02 -0.21272121197E+03  0.23113948204E+03  0.00000000000E+00 0.  1.
          2    1    6    6  502    0  0.20164472730E+03  0.37836963990E+02  0.27545247984E+01  0.20518240494E+03  0.00000000000E+00 0. -1.
          3    1    5    5  503    0  0.10139256496E+03  0.31103002923E+03  0.36481556258E+03  0.49001074071E+03  0.00000000000E+00 0. -1.
         -4    1    5    5    0  503  0.37447639467E+02  0.24522495913E+03  0.36901558251E+03  0.44464604621E+03  0.00000000000E+00 0.  1.
         -1    1    6    6    0  502  0.34615504550E+03  0.16222419888E+03 -0.46561587797E+02  0.38510776114E+03  0.00000000000E+00 0.  1.
<mgrwt>
<rscale>  0 0.41222332E+04</rscale>
<asrwt>0</asrwt>
<pdfrwt beam="1">  1        1 0.54877258E+00 0.41222332E+04</pdfrwt>
<pdfrwt beam="2">  1       -1 0.18322553E+00 0.41222332E+04</pdfrwt>
<totfact> 0.33745445E-02</totfact>
</mgrwt>
</event>
<event>
12    1  0.1489233E-007  0.1601623E+04  0.7818608E-02  0.8819551E-01
          1   -1    0    0  501    0  0.00000000000E+00  0.00000000000E+00  0.11368118301E+04  0.11368118301E+04  0.00000000000E+00 0. -1.
         -1   -1    0    0    0  501 -0.00000000000E+00 -0.00000000000E+00 -0.56412082731E+03  0.56412082731E+03  0.00000000000E+00 0.  1.
         23    2    1    2    0    0  0.39337752151E+03  0.36897598141E+03  0.17937557577E+03  0.57589144048E+03  0.92661776138E+02 0.  0.
        254    2    1    2    0    0 -0.39337752151E+03 -0.36897598141E+03  0.39331542697E+03  0.11250412169E+04  0.90561115569E+03 0.  0.
        -24    2    4    4    0    0 -0.59313137342E+03 -0.40934270673E+03  0.61255235266E+02  0.72776406539E+03  0.80759230643E+02 0.  0.
         24    2    4    4    0    0  0.19975385192E+03  0.40366725317E+02  0.33206019171E+03  0.39727715150E+03  0.77679407307E+02 0.  0.
         11    1    3    3    0    0  0.21694975057E+03  0.19848856533E+03  0.49145203607E+02  0.29812775093E+03  0.00000000000E+00 0. -1.
        -11    1    3    3    0    0  0.17642777094E+03  0.17048741608E+03  0.13023037217E+03  0.27776368955E+03  0.00000000000E+00 0.  1.
          2    1    6    6  502    0  0.39068352941E+02  0.25920912794E+01  0.19349065769E+02  0.43674265705E+02  0.00000000000E+00 0. -1.
          1    1    5    5  503    0 -0.10313856658E+03 -0.99057355705E+02  0.34853754396E+02  0.14718936045E+03  0.00000000000E+00 0. -1.
         -2    1    5    5    0  503 -0.48999280684E+03 -0.31028535102E+03  0.26401480870E+02  0.58057470494E+03  0.00000000000E+00 0.  1.
         -1    1    6    6    0  502  0.16068549897E+03  0.37774634038E+02  0.31271112594E+03  0.35360288579E+03  0.00000000000E+00 0.  1.
<mgrwt>
<rscale>  0 0.16016232E+04</rscale>
<asrwt>0</asrwt>
<pdfrwt beam="1">  1        1 0.17489413E+00 0.16016232E+04</pdfrwt>
<pdfrwt beam="2">  1       -1 0.86787820E-01 0.16016232E+04</pdfrwt>
<totfact> 0.14937538E+01</totfact>
</mgrwt>
</event>
<event>
12    1  0.1598506E-007  0.2454872E+04  0.7818608E-02  0.8419241E-01
         -2   -1    0    0    0  501 -0.00000000000E+00  0.00000000000E+00  0.71546352067E+03  0.71546352067E+03  0.00000000000E+00 0.  1.
          2   -1    0    0  501    0  0.00000000000E+00 -0.00000000000E+00 -0.21057673386E+04  0.21057673386E+04  0.00000000000E+00 0. -1.
         23    2    1    2    0    0  0.91749797895E+03 -0.45888454835E+03 -0.90158956730E+03  0.13687634225E+04  0.90950474187E+02 0.  0.
        254    2    1    2    0    0 -0.91749797895E+03  0.45888454835E+03 -0.48871425062E+03  0.14524674368E+04  0.90467810080E+03 0.  0.
        -24    2    4    4    0    0 -0.39458409145E+03  0.62908848459E+03 -0.49558333051E+03  0.89644833358E+03  0.81042276786E+02 0.  0.
         24    2    4    4    0    0 -0.52291388750E+03 -0.17020393623E+03  0.68690798928E+01  0.55601910321E+03  0.81864187686E+02 0.  0.
         13    1    3    3    0    0  0.66602620001E+03 -0.33300322906E+03 -0.70682174557E+03  0.10266835100E+04  0.00000000000E+00 0.  1.
        -13    1    3    3    0    0  0.25147177893E+03 -0.12588131929E+03 -0.19476782173E+03  0.34207991249E+03  0.00000000000E+00 0. -1.
          4    1    6    6  502    0 -0.50712702861E+03 -0.17616449171E+03 -0.22078514022E+01  0.53685810592E+03  0.00000000000E+00 0. -1.
          1    1    5    5  503    0 -0.39298417194E+03  0.61436887416E+03 -0.47238122764E+03  0.86892444848E+03  0.00000000000E+00 0. -1.
         -2    1    5    5    0  503 -0.15999195137E+01  0.14719610425E+02 -0.23202102866E+02  0.27523885099E+02  0.00000000000E+00 0.  1.
         -3    1    6    6    0  502 -0.15786858888E+02  0.59605554809E+01  0.90769312951E+01  0.19160997284E+02  0.00000000000E+00 0.  1.
<mgrwt>
<rscale>  0 0.24548725E+04</rscale>
<asrwt>0</asrwt>
<pdfrwt beam="1">  1        2 0.32396421E+00 0.24548725E+04</pdfrwt>
<pdfrwt beam="2">  1       -2 0.11007131E+00 0.24548725E+04</pdfrwt>
<totfact> 0.34247095E+00</totfact>
</mgrwt>
</event>
<event>
12    1  0.1489233E-007  0.2956397E+04  0.7818608E-02  0.8256293E-01
         -1   -1    0    0    0  501 -0.00000000000E+00  0.00000000000E+00  0.16923287352E+04  0.16923287352E+04  0.00000000000E+00 0.  1.
          1   -1    0    0  501    0  0.00000000000E+00 -0.00000000000E+00 -0.12911617884E+04  0.12911617884E+04  0.00000000000E+00 0. -1.
         23    2    1    2    0    0  0.98747418209E+03  0.58421338848E+03 -0.51545389891E+03  0.12610730023E+04  0.90564074268E+02 0.  0.
        254    2    1    2    0    0 -0.98747418209E+03 -0.58421338848E+03  0.91662084571E+03  0.17224175213E+04  0.90006544173E+03 0.  0.
        -24    2    4    4    0    0 -0.36625906320E+03  0.21111951205E+03  0.16116769762E+03  0.45929624377E+03  0.79125615598E+02 0.  0.
         24    2    4    4    0    0 -0.62121511889E+03 -0.79533290053E+03  0.75545314809E+03  0.12631212775E+04  0.79393049102E+02 0.  0.
         13    1    3    3    0    0  0.84335052457E+03  0.52376326660E+03 -0.46942963530E+03  0.10981494658E+04  0.00000000000E+00 0.  1.
        -13    1    3    3    0    0  0.14412365751E+03  0.60450121876E+02 -0.46024263611E+02  0.16292353645E+03  0.00000000000E+00 0. -1.
          2    1    6    6  502    0 -0.55003625544E+03 -0.69511906385E+03  0.69353649930E+03  0.11254880146E+04  0.00000000000E+00 0. -1.
          1    1    5    5  503    0 -0.30611052067E+03  0.15149197670E+03  0.15286803226E+03  0.37419527677E+03  0.00000000000E+00 0. -1.
         -2    1    5    5    0  503 -0.60148542532E+02  0.59627535345E+02  0.82996653637E+01  0.85100967005E+02  0.00000000000E+00 0.  1.
         -1    1    6    6    0  502 -0.71178863445E+02 -0.10021383667E+03  0.61916648787E+02  0.13763326291E+03  0.00000000000E+00 0.  1.
<mgrwt>
<rscale>  0 0.29563966E+04</rscale>
<asrwt>0</asrwt>
<pdfrwt beam="1">  1        1 0.19864028E+00 0.29563966E+04</pdfrwt>
<pdfrwt beam="2">  1       -1 0.26035827E+00 0.29563966E+04</pdfrwt>
<totfact> 0.46790953E-01</totfact>
</mgrwt>
</event>
<event>
12    1  0.1489233E-007  0.2188195E+04  0.7818608E-02  0.8523358E-01
         -2   -1    0    0    0  501 -0.00000000000E+00  0.00000000000E+00  0.17766390662E+04  0.17766390662E+04  0.00000000000E+00 0.  1.
          2   -1    0    0  501    0  0.00000000000E+00 -0.00000000000E+00 -0.67377186085E+03  0.67377186085E+03  0.00000000000E+00 0. -1.
         23    2    1    2    0    0  0.49983336639E+03  0.58588487638E+03  0.99553687982E+03  0.12633477562E+04  0.10890083373E+03 0.  0.
        254    2    1    2    0    0 -0.49983336639E+03 -0.58588487638E+03  0.10733032556E+03  0.11870631708E+04  0.89694185444E+03 0.  0.
        -24    2    4    4    0    0 -0.34753561980E+02  0.82272667205E+02 -0.26303116965E+03  0.28918202173E+03  0.80400520167E+02 0.  0.
         24    2    4    4    0    0 -0.46507980441E+03 -0.66815754359E+03  0.37036149520E+03  0.89788114912E+03  0.79304434198E+02 0.  0.
         11    1    3    3    0    0  0.83362449298E+02  0.62607112626E+02  0.18665425121E+03  0.21379606638E+03  0.00000000000E+00 0. -1.
        -11    1    3    3    0    0  0.41647091709E+03  0.52327776376E+03  0.80888262861E+03  0.10495516899E+04  0.00000000000E+00 0.  1.
          4    1    6    6  502    0 -0.35287783877E+03 -0.48035072973E+03  0.23544774621E+03  0.64085508022E+03  0.00000000000E+00 0. -1.
          3    1    5    5  503    0  0.20574509231E+02  0.53863772619E+02 -0.11610567778E+03  0.12963465911E+03  0.00000000000E+00 0. -1.
         -4    1    5    5    0  503 -0.55328071211E+02  0.28408894587E+02 -0.14692549187E+03  0.15954736261E+03  0.00000000000E+00 0.  1.
         -3    1    6    6    0  502 -0.11220196564E+03 -0.18780681386E+03  0.13491374899E+03  0.25702606890E+03  0.00000000000E+00 0.  1.
<mgrwt>
<rscale>  0 0.21881951E+04</rscale>
<asrwt>0</asrwt>
<pdfrwt beam="1">  1        2 0.10365721E+00 0.21881951E+04</pdfrwt>
<pdfrwt beam="2">  1       -2 0.27332908E+00 0.21881951E+04</pdfrwt>
<totfact> 0.18195197E+00</totfact>
</mgrwt>
</event>
<event>
12    1  0.1489233E-007  0.1943207E+04  0.7818608E-02  0.8633643E-01
          2   -1    0    0  501    0  0.00000000000E+00  0.00000000000E+00  0.26058753416E+04  0.26058753416E+04  0.00000000000E+00 0. -1.
         -2   -1    0    0    0  501 -0.00000000000E+00 -0.00000000000E+00 -0.36226357886E+03  0.36226357886E+03  0.00000000000E+00 0.  1.
         23    2    1    2    0    0 -0.51037826354E+03 -0.11248191839E+02  0.17726629942E+04  0.18470081580E+04  0.92155038510E+02 0.  0.
        254    2    1    2    0    0  0.51037826354E+03  0.11248191839E+02  0.47094876855E+03  0.11211307624E+04  0.88007326409E+03 0.  0.
        -24    2    4    4    0    0  0.21609631070E+03  0.28491357425E+03 -0.13420045776E+03  0.39013742522E+03  0.79524130942E+02 0.  0.
         24    2    4    4    0    0  0.29428195284E+03 -0.27366538241E+03  0.60514922630E+03  0.73099333722E+03  0.81554053695E+02 0.  0.
         11    1    3    3    0    0 -0.22350610702E+02  0.19475831372E+02  0.11066671960E+03  0.11456867213E+03  0.00000000000E+00 0.  1.
        -11    1    3    3    0    0 -0.48802765284E+03 -0.30724023211E+02  0.16619962746E+04  0.17324394859E+04  0.00000000000E+00 0. -1.
          4    1    6    6  502    0  0.24395054741E+03 -0.18885477402E+03  0.41890429411E+03  0.52024878940E+03  0.00000000000E+00 0. -1.
          3    1    5    5  503    0  0.17314280392E+02  0.72358458461E+02 -0.38578501363E+02  0.83808302594E+02  0.00000000000E+00 0. -1.
         -4    1    5    5    0  503  0.19878203031E+03  0.21255511579E+03 -0.95621956393E+02  0.30632912262E+03  0.00000000000E+00 0.  1.
         -3    1    6    6    0  502  0.50331405424E+02 -0.84810608393E+02  0.18624493220E+03  0.21074454782E+03  0.00000000000E+00 0.  1.
<mgrwt>
<rscale>  0 0.19432074E+04</rscale>
<asrwt>0</asrwt>
<pdfrwt beam="1">  1        2 0.40090389E+00 0.19432074E+04</pdfrwt>
<pdfrwt beam="2">  1       -2 0.55732860E-01 0.19432074E+04</pdfrwt>
<totfact> 0.85309368E+00</totfact>
</mgrwt>
</event>
<event>
12    1  0.1489233E-007  0.1960574E+04  0.7818608E-02  0.8625279E-01
          1   -1    0    0  501    0  0.00000000000E+00  0.00000000000E+00  0.15860936424E+04  0.15860936424E+04  0.00000000000E+00 0. -1.
         -1   -1    0    0    0  501 -0.00000000000E+00 -0.00000000000E+00 -0.60586740055E+03  0.60586740055E+03  0.00000000000E+00 0.  1.
         23    2    1    2    0    0  0.23145803700E+03  0.60546533473E+02  0.12058621892E+04  0.12327856547E+04  0.91750451649E+02 0.  0.
        254    2    1    2    0    0 -0.23145803700E+03 -0.60546533473E+02 -0.22563594734E+03  0.95917538830E+03  0.90103670246E+03 0.  0.
        -24    2    4    4    0    0 -0.25814249917E+03  0.34426655706E+03 -0.31153478201E+03  0.53715311976E+03  0.79514410492E+02 0.  0.
         24    2    4    4    0    0  0.26684462168E+02 -0.40481309054E+03  0.85898834678E+02  0.42202226854E+03  0.78348494269E+02 0.  0.
         13    1    3    3    0    0  0.86623845992E+02 -0.13179860654E+02  0.30307158462E+03  0.31548341451E+03  0.00000000000E+00 0.  1.
        -13    1    3    3    0    0  0.14483419101E+03  0.73726394127E+02  0.90279060461E+03  0.91730224019E+03  0.00000000000E+00 0. -1.
          2    1    6    6  502    0  0.47039814306E+02 -0.31972374931E+03  0.48138677828E+02  0.32673131516E+03  0.00000000000E+00 0. -1.
          3    1    5    5  503    0 -0.20963909251E+03  0.32186176965E+03 -0.27590078166E+03  0.47293211901E+03  0.00000000000E+00 0. -1.
         -4    1    5    5    0  503 -0.48503406655E+02  0.22404787415E+02 -0.35634000354E+02  0.64221000752E+02  0.00000000000E+00 0.  1.
         -3    1    6    6    0  502 -0.20355352138E+02 -0.85089341229E+02  0.37760156849E+02  0.95290953383E+02  0.00000000000E+00 0.  1.
<mgrwt>
<rscale>  0 0.19605738E+04</rscale>
<asrwt>0</asrwt>
<pdfrwt beam="1">  1        1 0.24401440E+00 0.19605738E+04</pdfrwt>
<pdfrwt beam="2">  1       -1 0.93210370E-01 0.19605738E+04</pdfrwt>
<totfact> 0.59325456E+00</totfact>
</mgrwt>
</event>
<event>
12    1  0.1489233E-007  0.1798465E+04  0.7818608E-02  0.8707116E-01
         -2   -1    0    0    0  501 -0.00000000000E+00  0.00000000000E+00  0.87338445981E+03  0.87338445981E+03  0.00000000000E+00 0.  1.
          2   -1    0    0  501    0  0.00000000000E+00 -0.00000000000E+00 -0.92584566263E+03  0.92584566263E+03  0.00000000000E+00 0. -1.
         23    2    1    2    0    0  0.38876203055E+03  0.53293677377E+03 -0.13484494881E+03  0.67949097373E+03  0.91472957396E+02 0.  0.
        254    2    1    2    0    0 -0.38876203055E+03 -0.53293677377E+03  0.82383745999E+02  0.11197391487E+04  0.90103893275E+03 0.  0.
        -24    2    4    4    0    0  0.23328207606E+03 -0.42873712574E+01 -0.11987645946E+03  0.27495129364E+03  0.82395022791E+02 0.  0.
         24    2    4    4    0    0 -0.62204410660E+03 -0.52864940251E+03  0.20226020545E+03  0.84478785507E+03  0.79676019219E+02 0.  0.
         13    1    3    3    0    0  0.14067695146E+03  0.16311252723E+03 -0.84297033396E+02  0.23130432562E+03  0.00000000000E+00 0. -1.
        -13    1    3    3    0    0  0.24808507908E+03  0.36982424653E+03 -0.50547915414E+02  0.44818664811E+03  0.00000000000E+00 0.  1.
          4    1    6    6  502    0 -0.11460964665E+03 -0.98136203393E+02  0.69932257844E+02  0.16630275467E+03  0.00000000000E+00 0. -1.
          3    1    5    5  503    0  0.13905168114E+03 -0.41668227861E+02 -0.82086199365E+02  0.16676257184E+03  0.00000000000E+00 0. -1.
         -4    1    5    5    0  503  0.94230394918E+02  0.37380856603E+02 -0.37790260090E+02  0.10818872180E+03  0.00000000000E+00 0.  1.
         -3    1    6    6    0  502 -0.50743445995E+03 -0.43051319912E+03  0.13232794761E+03  0.67848510041E+03  0.00000000000E+00 0.  1.
<mgrwt>
<rscale>  0 0.17984651E+04</rscale>
<asrwt>0</asrwt>
<pdfrwt beam="1">  1        2 0.14243779E+00 0.17984651E+04</pdfrwt>
<pdfrwt beam="2">  1       -2 0.13436684E+00 0.17984651E+04</pdfrwt>
<totfact> 0.10619270E+01</totfact>
</mgrwt>
</event>
<event>
12    1  0.1489233E-007  0.2269882E+04  0.7818608E-02  0.8489892E-01
          1   -1    0    0  501    0  0.00000000000E+00  0.00000000000E+00  0.26350711932E+04  0.26350711932E+04  0.00000000000E+00 0. -1.
         -1   -1    0    0    0  501 -0.00000000000E+00 -0.00000000000E+00 -0.48882603538E+03  0.48882603538E+03  0.00000000000E+00 0.  1.
         23    2    1    2    0    0  0.27707335236E+03 -0.65989627649E+03  0.36253280070E+02  0.72257832892E+03  0.92587271217E+02 0.  0.
        254    2    1    2    0    0 -0.27707335236E+03  0.65989627649E+03  0.21099918777E+04  0.24013188997E+04  0.89556350719E+03 0.  0.
        -24    2    4    4    0    0 -0.47601512090E+03  0.56782849629E+03  0.89781997256E+03  0.11668482920E+04  0.80216188129E+02 0.  0.
         24    2    4    4    0    0  0.19894176855E+03  0.92067780200E+02  0.12121719052E+04  0.12344706077E+04  0.80639010942E+02 0.  0.
         11    1    3    3    0    0  0.17943700455E+03 -0.34525074096E+03 -0.13859278028E+02  0.38934276971E+03  0.00000000000E+00 0.  1.
        -11    1    3    3    0    0  0.97636347803E+02 -0.31464553553E+03  0.50112558098E+02  0.33323555921E+03  0.00000000000E+00 0. -1.
          2    1    6    6  502    0 -0.53600808247E+00  0.22212255678E+02  0.11522492706E+03  0.11734758379E+03  0.00000000000E+00 0. -1.
          3    1    5    5  503    0 -0.16659532826E+02  0.43690842257E+02  0.39518177300E+02  0.61221859398E+02  0.00000000000E+00 0. -1.
         -4    1    5    5    0  503 -0.45935558808E+03  0.52413765404E+03  0.85830179526E+03  0.11056264326E+04  0.00000000000E+00 0.  1.
         -1    1    6    6    0  502  0.19947777663E+03  0.69855524522E+02  0.10969469781E+04  0.11171230239E+04  0.00000000000E+00 0.  1.
<mgrwt>
<rscale>  0 0.22698823E+04</rscale>
<asrwt>0</asrwt>
<pdfrwt beam="1">  1        1 0.40539556E+00 0.22698823E+04</pdfrwt>
<pdfrwt beam="2">  1       -1 0.75204007E-01 0.22698823E+04</pdfrwt>
<totfact> 0.17566937E+00</totfact>
</mgrwt>
</event>
<event>
12    1  0.1489233E-007  0.1699585E+04  0.7818608E-02  0.8761601E-01
          2   -1    0    0  501    0  0.00000000000E+00  0.00000000000E+00  0.13529307058E+04  0.13529307058E+04  0.00000000000E+00 0. -1.
         -2   -1    0    0    0  501 -0.00000000000E+00 -0.00000000000E+00 -0.53376529876E+03  0.53376529876E+03  0.00000000000E+00 0.  1.
         23    2    1    2    0    0  0.50338604961E+03 -0.63320169489E+02  0.65441995362E+03  0.83344792401E+03  0.94673161674E+02 0.  0.
        254    2    1    2    0    0 -0.50338604961E+03  0.63320169489E+02  0.16474545344E+03  0.10532480806E+04  0.90817591688E+03 0.  0.
        -24    2    4    4    0    0 -0.39765718367E+03  0.46342870288E+03  0.13680903719E+03  0.63091065984E+03  0.80213151437E+02 0.  0.
         24    2    4    4    0    0 -0.10572886594E+03 -0.40010853339E+03  0.27936416245E+02  0.42233742073E+03  0.79517432112E+02 0.  0.
         13    1    3    3    0    0  0.48324599598E+03 -0.67574376314E+02  0.64934876261E+03  0.81224799443E+03  0.00000000000E+00 0. -1.
        -13    1    3    3    0    0  0.20140053630E+02  0.42542068253E+01  0.50711910161E+01  0.21199929581E+02  0.00000000000E+00 0.  1.
          2    1    6    6  502    0  0.12877071191E+02 -0.49978262081E+02  0.68472466129E+01  0.52062754722E+02  0.00000000000E+00 0. -1.
          1    1    5    5  503    0 -0.32354442863E+03  0.33552629941E+03  0.82084653786E+02  0.47328298647E+03  0.00000000000E+00 0. -1.
         -2    1    5    5    0  503 -0.74112755038E+02  0.12790240347E+03  0.54724383404E+02  0.15762767337E+03  0.00000000000E+00 0.  1.
         -1    1    6    6    0  502 -0.11860593713E+03 -0.35013027131E+03  0.21089169632E+02  0.37027466601E+03  0.00000000000E+00 0.  1.
<mgrwt>
<rscale>  0 0.16995852E+04</rscale>
<asrwt>0</asrwt>
<pdfrwt beam="1">  1        2 0.20814318E+00 0.16995852E+04</pdfrwt>
<pdfrwt beam="2">  1       -2 0.82117739E-01 0.16995852E+04</pdfrwt>
<totfact> 0.19099708E+01</totfact>
</mgrwt>
</event>
<event>
12    1  0.1489233E-007  0.1371558E+04  0.7818608E-02  0.8974668E-01
          1   -1    0    0  501    0  0.00000000000E+00  0.00000000000E+00  0.60788850301E+03  0.60788850301E+03  0.00000000000E+00 0. -1.
         -1   -1    0    0    0  501 -0.00000000000E+00 -0.00000000000E+00 -0.77364934635E+03  0.77364934635E+03  0.00000000000E+00 0.  1.
         23    2    1    2    0    0 -0.16284426834E+03 -0.26855296280E+03  0.13900464153E+03  0.35530322574E+03  0.90989792282E+02 0.  0.
        254    2    1    2    0    0  0.16284426834E+03  0.26855296280E+03 -0.30476548487E+03  0.10262346236E+04  0.92824380008E+03 0.  0.
        -24    2    4    4    0    0 -0.25362136347E+03 -0.20379786478E+03 -0.17647957486E+03  0.37830229627E+03  0.78167904690E+02 0.  0.
         24    2    4    4    0    0  0.41646563181E+03  0.47235082757E+03 -0.12828591001E+03  0.64793232735E+03  0.82462714747E+02 0.  0.
         13    1    3    3    0    0 -0.72759465463E+02 -0.11850653396E+03  0.11129063329E+03  0.17811048106E+03  0.00000000000E+00 0. -1.
        -13    1    3    3    0    0 -0.90084802874E+02 -0.15004642884E+03  0.27714008239E+02  0.17719274468E+03  0.00000000000E+00 0.  1.
          4    1    6    6  502    0  0.14512028592E+03  0.22566552825E+03 -0.59527832486E+02  0.27482429089E+03  0.00000000000E+00 0. -1.
          3    1    5    5  503    0 -0.25737060846E+03 -0.20300297107E+03 -0.17922051350E+03  0.37359045601E+03  0.00000000000E+00 0. -1.
         -4    1    5    5    0  503  0.37492449890E+01 -0.79489371081E+00  0.27409386426E+01  0.47118402607E+01  0.00000000000E+00 0.  1.
         -3    1    6    6    0  502  0.27134534589E+03  0.24668529933E+03 -0.68758077522E+02  0.37310803645E+03  0.00000000000E+00 0.  1.
<mgrwt>
<rscale>  0 0.13715576E+04</rscale>
<asrwt>0</asrwt>
<pdfrwt beam="1">  1        1 0.93521308E-01 0.13715576E+04</pdfrwt>
<pdfrwt beam="2">  1       -1 0.11902298E+00 0.13715576E+04</pdfrwt>
<totfact> 0.20749484E+01</totfact>
</mgrwt>
</event>
<event>
12    1  0.1489233E-007  0.1553654E+04  0.7818608E-02  0.8849537E-01
          1   -1    0    0  501    0  0.00000000000E+00  0.00000000000E+00  0.22113858550E+04  0.22113858550E+04  0.00000000000E+00 0. -1.
         -1   -1    0    0    0  501 -0.00000000000E+00 -0.00000000000E+00 -0.27288783399E+03  0.27288783399E+03  0.00000000000E+00 0.  1.
         23    2    1    2    0    0  0.13563028367E+03 -0.12094140431E+03 -0.11330522940E+03  0.23287731319E+03  0.91495195850E+02 0.  0.
        254    2    1    2    0    0 -0.13563028367E+03  0.12094140431E+03  0.20518032504E+04  0.22513963758E+04  0.90877206464E+03 0.  0.
        -24    2    4    4    0    0 -0.12623387419E+03  0.48346446328E+03  0.15248756770E+04  0.16066816481E+04  0.80667277827E+02 0.  0.
         24    2    4    4    0    0 -0.93964094770E+01 -0.36252305897E+03  0.52692757337E+03  0.64471472769E+03  0.80580095119E+02 0.  0.
         13    1    3    3    0    0  0.11425196892E+03 -0.11641321467E+03 -0.57507121865E+02  0.17295264675E+03  0.00000000000E+00 0.  1.
        -13    1    3    3    0    0  0.21378314743E+02 -0.45281896368E+01 -0.55798107537E+02  0.59924666434E+02  0.00000000000E+00 0. -1.
          2    1    6    6  502    0  0.12932296457E+02 -0.88633742686E+01  0.35881017372E+02  0.39156750410E+02  0.00000000000E+00 0. -1.
          1    1    5    5  503    0 -0.32501243686E+02  0.50400210134E+02  0.13100546212E+03  0.14407964161E+03  0.00000000000E+00 0. -1.
         -2    1    5    5    0  503 -0.93732630504E+02  0.43306425315E+03  0.13938702149E+04  0.14626020065E+04  0.00000000000E+00 0.  1.
         -1    1    6    6    0  502 -0.22328705934E+02 -0.35365968470E+03  0.49104655600E+03  0.60555797728E+03  0.00000000000E+00 0.  1.
<mgrwt>
<rscale>  0 0.15536541E+04</rscale>
<asrwt>0</asrwt>
<pdfrwt beam="1">  1        1 0.34021320E+00 0.15536541E+04</pdfrwt>
<pdfrwt beam="2">  1       -1 0.41982745E-01 0.15536541E+04</pdfrwt>
<totfact> 0.11496815E+01</totfact>
</mgrwt>
</event>
<event>
12    1  0.1489233E-007  0.2076872E+04  0.7818608E-02  0.8571501E-01
          2   -1    0    0  501    0  0.00000000000E+00  0.00000000000E+00  0.18772619094E+04  0.18772619094E+04  0.00000000000E+00 0.  1.
         -2   -1    0    0    0  501 -0.00000000000E+00 -0.00000000000E+00 -0.57442654210E+03  0.57442654210E+03  0.00000000000E+00 0. -1.
         23    2    1    2    0    0  0.27148570463E+03 -0.42861029010E+03 -0.26304976137E+03  0.57891070952E+03  0.92364300696E+02 0.  0.
        254    2    1    2    0    0 -0.27148570463E+03  0.42861029010E+03  0.15658851287E+04  0.18727777420E+04  0.89324630761E+03 0.  0.
        -24    2    4    4    0    0 -0.31311855496E+03  0.67211056010E+03  0.13167564276E+04  0.15132454786E+04  0.79300405654E+02 0.  0.
         24    2    4    4    0    0  0.41632850330E+02 -0.24350027000E+03  0.24912870103E+03  0.35953226337E+03  0.78566296912E+02 0.  0.
         11    1    3    3    0    0  0.13671080213E+03 -0.20740877831E+03 -0.77276505578E+02  0.26015361434E+03  0.00000000000E+00 0.  1.
        -11    1    3    3    0    0  0.13477490251E+03 -0.22120151179E+03 -0.18577325579E+03  0.31875709519E+03  0.00000000000E+00 0. -1.
          4    1    6    6  502    0  0.60792977047E+02 -0.18347095513E+03  0.16313973466E+03  0.25292676897E+03  0.00000000000E+00 0. -1.
          3    1    5    5  503    0 -0.29168450645E+03  0.65190556262E+03  0.12390264151E+04  0.14301213834E+04  0.00000000000E+00 0. -1.
         -4    1    5    5    0  503 -0.21434048510E+02  0.20204997483E+02  0.77730012521E+02  0.83124095215E+02  0.00000000000E+00 0.  1.
         -3    1    6    6    0  502 -0.19160126717E+02 -0.60029314866E+02  0.85988966374E+02  0.10660549440E+03  0.00000000000E+00 0.  1.
<mgrwt>
<rscale>  0 0.20768718E+04</rscale>
<asrwt>0</asrwt>
<pdfrwt beam="1">  1        2 0.28880952E+00 0.20768718E+04</pdfrwt>
<pdfrwt beam="2">  1       -2 0.88373315E-01 0.20768718E+04</pdfrwt>
<totfact> 0.79547457E+00</totfact>
</mgrwt>
</event>
<event>
12    1  0.1489233E-007  0.1704730E+04  0.7818608E-02  0.8758671E-01
         -2   -1    0    0    0  501 -0.00000000000E+00  0.00000000000E+00  0.15558170636E+04  0.15558170636E+04  0.00000000000E+00 0. -1.
          2   -1    0    0  501    0  0.00000000000E+00 -0.00000000000E+00 -0.46697384411E+03  0.46697384411E+03  0.00000000000E+00 0.  1.
         23    2    1    2    0    0 -0.35128761736E+03 -0.63250447132E+02  0.10376227409E+04  0.11011325413E+04  0.91805838237E+02 0.  0.
        254    2    1    2    0    0  0.35128761736E+03  0.63250447132E+02  0.51220478578E+02  0.92165836639E+03  0.84819042540E+03 0.  0.
        -24    2    4    4    0    0  0.10680857586E+03 -0.34132224518E+03  0.20260651317E+03  0.41878311200E+03  0.80130822921E+02 0.  0.
         24    2    4    4    0    0  0.24447904150E+03  0.40457269232E+03 -0.15138603459E+03  0.50287525440E+03  0.80726234361E+02 0.  0.
         13    1    3    3    0    0 -0.20901997761E+03 -0.35722926163E+02  0.47562395610E+03  0.52075294153E+03  0.00000000000E+00 0.  1.
        -13    1    3    3    0    0 -0.14226763975E+03 -0.27527520969E+02  0.56199878478E+03  0.58037959977E+03  0.00000000000E+00 0. -1.
          2    1    6    6  502    0  0.96171582684E+02  0.17955745863E+03 -0.10588207396E+03  0.22956669587E+03  0.00000000000E+00 0. -1.
          1    1    5    5  503    0  0.10973255874E+03 -0.26044063853E+03  0.17878067344E+03  0.33441454789E+03  0.00000000000E+00 0. -1.
         -2    1    5    5    0  503 -0.29239828775E+01 -0.80881606652E+02  0.23825839724E+02  0.84368564104E+02  0.00000000000E+00 0.  1.
         -1    1    6    6    0  502  0.14830745882E+03  0.22501523368E+03 -0.45503960626E+02  0.27330855852E+03  0.00000000000E+00 0.  1.
<mgrwt>
<rscale>  0 0.17047297E+04</rscale>
<asrwt>0</asrwt>
<pdfrwt beam="1">  1        2 0.71842130E-01 0.17047297E+04</pdfrwt>
<pdfrwt beam="2">  1       -2 0.23935647E+00 0.17047297E+04</pdfrwt>
<totfact> 0.47384060E+00</totfact>
</mgrwt>
</event>
<event>
12    1  0.1489233E-007  0.1478677E+04  0.7818608E-02  0.8898758E-01
         -2   -1    0    0    0  501 -0.00000000000E+00  0.00000000000E+00  0.40004158542E+03  0.40004158542E+03  0.00000000000E+00 0.  1.
          2   -1    0    0  501    0  0.00000000000E+00 -0.00000000000E+00 -0.13664115168E+04  0.13664115168E+04  0.00000000000E+00 0. -1.
         23    2    1    2    0    0  0.26649940477E+03  0.13008899933E+03  0.11489355982E+03  0.32975886265E+03  0.87151000694E+02 0.  0.
        254    2    1    2    0    0 -0.26649940477E+03 -0.13008899933E+03 -0.10812634912E+04  0.14366942396E+04  0.89833986893E+03 0.  0.
        -24    2    4    4    0    0  0.16001028572E+03 -0.39684647443E+03 -0.53776111658E+03  0.69185156340E+03  0.79882109844E+02 0.  0.
         24    2    4    4    0    0 -0.42650969049E+03  0.26675747510E+03 -0.54350237465E+03  0.74484267618E+03  0.79534359952E+02 0.  0.
         11    1    3    3    0    0  0.90887427908E+02  0.61794898022E+02  0.16387647273E+01  0.10991733040E+03  0.00000000000E+00 0. -1.
        -11    1    3    3    0    0  0.17561197686E+03  0.68294101311E+02  0.11325479510E+03  0.21984153225E+03  0.00000000000E+00 0.  1.
          4    1    6    6  502    0 -0.20531552489E+03  0.16679018037E+03 -0.24998748363E+03  0.36396039757E+03  0.00000000000E+00 0. -1.
          3    1    5    5  503    0  0.21643423084E+02 -0.93509132503E+01 -0.24122438723E+02  0.33730837395E+02  0.00000000000E+00 0. -1.
         -4    1    5    5    0  503  0.13836686264E+03 -0.38749556118E+03 -0.51363867785E+03  0.65812072601E+03  0.00000000000E+00 0.  1.
         -3    1    6    6    0  502 -0.22119416560E+03  0.99967294729E+02 -0.29351489103E+03  0.38088227862E+03  0.00000000000E+00 0.  1.
<mgrwt>
<rscale>  0 0.14786770E+04</rscale>
<asrwt>0</asrwt>
<pdfrwt beam="1">  1        2 0.21021716E+00 0.14786770E+04</pdfrwt>
<pdfrwt beam="2">  1       -2 0.61544860E-01 0.14786770E+04</pdfrwt>
<totfact> 0.35922261E+01</totfact>
</mgrwt>
</event>
<event>
12    1  0.1489233E-007  0.1384510E+04  0.7818608E-02  0.8965108E-01
         -1   -1    0    0    0  501 -0.00000000000E+00  0.00000000000E+00  0.11770831444E+04  0.11770831444E+04  0.00000000000E+00 0.  1.
          1   -1    0    0  501    0  0.00000000000E+00 -0.00000000000E+00 -0.40712221072E+03  0.40712221072E+03  0.00000000000E+00 0. -1.
         23    2    1    2    0    0 -0.15494755238E+03 -0.35445625057E+03  0.26020725918E+03  0.47570997967E+03  0.94573725045E+02 0.  0.
        254    2    1    2    0    0  0.15494755238E+03  0.35445625057E+03  0.50975367453E+03  0.11084953755E+04  0.90513270364E+03 0.  0.
        -24    2    4    4    0    0 -0.26149093831E+03  0.47948054880E+02 -0.10900611596E+03  0.29822889401E+03  0.79884999335E+02 0.  0.
         24    2    4    4    0    0  0.41643849069E+03  0.30650819569E+03  0.61875979049E+03  0.81026648147E+03  0.79371292732E+02 0.  0.
         13    1    3    3    0    0 -0.14898934295E+03 -0.27065876172E+03  0.17079277713E+03  0.35302147573E+03  0.00000000000E+00 0. -1.
        -13    1    3    3    0    0 -0.59582094268E+01 -0.83797488850E+02  0.89414482054E+02  0.12268850394E+03  0.00000000000E+00 0.  1.
          2    1    6    6  502    0  0.25423749736E+03  0.13969801795E+03  0.32808938242E+03  0.43794392808E+03  0.00000000000E+00 0. -1.
          3    1    5    5  503    0 -0.25159162489E+03  0.32515902549E+02 -0.84016190066E+02  0.26723463441E+03  0.00000000000E+00 0. -1.
         -4    1    5    5    0  503 -0.98993134176E+01  0.15432152331E+02 -0.24989925898E+02  0.30994259599E+02  0.00000000000E+00 0.  1.
         -1    1    6    6    0  502  0.16220099332E+03  0.16681017774E+03  0.29067040808E+03  0.37232255339E+03  0.00000000000E+00 0.  1.
<mgrwt>
<rscale>  0 0.13845096E+04</rscale>
<asrwt>0</asrwt>
<pdfrwt beam="1">  1        1 0.62634187E-01 0.13845096E+04</pdfrwt>
<pdfrwt beam="2">  1       -1 0.18108971E+00 0.13845096E+04</pdfrwt>
<totfact> 0.11691091E+01</totfact>
</mgrwt>
</event>
<event>
12    1  0.1489233E-007  0.2941152E+04  0.7818608E-02  0.8260738E-01
          1   -1    0    0  501    0  0.00000000000E+00  0.00000000000E+00  0.25723849316E+04  0.25723849316E+04  0.00000000000E+00 0. -1.
         -1   -1    0    0    0  501 -0.00000000000E+00 -0.00000000000E+00 -0.84069627650E+03  0.84069627650E+03  0.00000000000E+00 0.  1.
         23    2    1    2    0    0  0.43637738405E+03  0.77363841323E+03  0.19191732675E+04  0.21167263586E+04  0.91448513871E+02 0.  0.
        254    2    1    2    0    0 -0.43637738405E+03 -0.77363841323E+03 -0.18748461245E+03  0.12963548495E+04  0.92544248882E+03 0.  0.
        -24    2    4    4    0    0 -0.18084859300E+03 -0.94250589601E+03 -0.17910449470E+03  0.97965743693E+03  0.81404521369E+02 0.  0.
         24    2    4    4    0    0 -0.25552879105E+03  0.16886748278E+03 -0.83801177447E+01  0.31669741254E+03  0.80098907248E+02 0.  0.
         13    1    3    3    0    0  0.20101544831E+03  0.44052053952E+03  0.10869166647E+04  0.11898963788E+04  0.00000000000E+00 0. -1.
        -13    1    3    3    0    0  0.23536193573E+03  0.33311787372E+03  0.83225660282E+03  0.92682997983E+03  0.00000000000E+00 0.  1.
          4    1    6    6  502    0 -0.19306448540E+03  0.12191677373E+03  0.28827922499E+02  0.23014917848E+03  0.00000000000E+00 0. -1.
          1    1    5    5  503    0 -0.17007768934E+03 -0.70062983419E+03 -0.13852171294E+03  0.73416404837E+03  0.00000000000E+00 0. -1.
         -2    1    5    5    0  503 -0.10770903656E+02 -0.24187606183E+03 -0.40582781760E+02  0.24549338856E+03  0.00000000000E+00 0.  1.
         -3    1    6    6    0  502 -0.62464305647E+02  0.46950709055E+02 -0.37208040244E+02  0.86548234063E+02  0.00000000000E+00 0.  1.
<mgrwt>
<rscale>  0 0.29411525E+04</rscale>
<asrwt>0</asrwt>
<pdfrwt beam="1">  1        1 0.39575152E+00 0.29411525E+04</pdfrwt>
<pdfrwt beam="2">  1       -1 0.12933789E+00 0.29411525E+04</pdfrwt>
<totfact> 0.52982079E-01</totfact>
</mgrwt>
</event>
<event>
12    1  0.1489233E-007  0.2439379E+04  0.7818608E-02  0.8424906E-01
         -2   -1    0    0    0  501 -0.00000000000E+00  0.00000000000E+00  0.25157228636E+04  0.25157228636E+04  0.00000000000E+00 0.  1.
          2   -1    0    0  501    0  0.00000000000E+00 -0.00000000000E+00 -0.59133799094E+03  0.59133799094E+03  0.00000000000E+00 0. -1.
         23    2    1    2    0    0 -0.60571086466E+03 -0.86120380044E+03  0.87699150302E+03  0.13734349284E+04  0.93014883936E+02 0.  0.
        254    2    1    2    0    0  0.60571086466E+03  0.86120380044E+03  0.10473933696E+04  0.17336259262E+04  0.89435358986E+03 0.  0.
        -24    2    4    4    0    0  0.78801820639E+03  0.68784930599E+03  0.58478454904E+03  0.12010041392E+04  0.79552574868E+02 0.  0.
         24    2    4    4    0    0 -0.18230734173E+03  0.17335449445E+03  0.46260882060E+03  0.53262178700E+03  0.79945603350E+02 0.  0.
         13    1    3    3    0    0 -0.59937668127E+02 -0.88202934274E+02  0.54881515933E+02  0.11993440902E+03  0.00000000000E+00 0. -1.
        -13    1    3    3    0    0 -0.54577319653E+03 -0.77300086616E+03  0.82210998709E+03  0.12535005194E+04  0.00000000000E+00 0.  1.
          2    1    6    6  502    0 -0.38329251010E+02  0.73225700754E+02  0.99266737913E+02  0.12917050743E+03  0.00000000000E+00 0. -1.
          1    1    5    5  503    0  0.32594972946E+03  0.23331583092E+03  0.22622738467E+03  0.46028071073E+03  0.00000000000E+00 0. -1.
         -2    1    5    5    0  503  0.46206847693E+03  0.45453347507E+03  0.35855716437E+03  0.74072342845E+03  0.00000000000E+00 0.  1.
         -1    1    6    6    0  502 -0.14397809072E+03  0.10012879369E+03  0.36334208269E+03  0.40345127957E+03  0.00000000000E+00 0.  1.
<mgrwt>
<rscale>  0 0.24393790E+04</rscale>
<asrwt>0</asrwt>
<pdfrwt beam="1">  1        2 0.90975077E-01 0.24393790E+04</pdfrwt>
<pdfrwt beam="2">  1       -2 0.38703428E+00 0.24393790E+04</pdfrwt>
<totfact> 0.40818411E-01</totfact>
</mgrwt>
</event>
<event>
12    1  0.1489233E-007  0.2280176E+04  0.7818608E-02  0.8485779E-01
          2   -1    0    0  501    0  0.00000000000E+00  0.00000000000E+00  0.21118043278E+04  0.21118043278E+04  0.00000000000E+00 0.  1.
         -2   -1    0    0    0  501 -0.00000000000E+00 -0.00000000000E+00 -0.61549271172E+03  0.61549271172E+03  0.00000000000E+00 0. -1.
         23    2    1    2    0    0 -0.14168048799E+03  0.31653969496E+03  0.17061826487E+04  0.17434631086E+04  0.91288778409E+02 0.  0.
        254    2    1    2    0    0  0.14168048799E+03 -0.31653969496E+03 -0.20987103261E+03  0.98383393096E+03  0.89644442896E+03 0.  0.
        -24    2    4    4    0    0  0.45315236752E+03 -0.88559848133E+01  0.59389639342E+02  0.46378364415E+03  0.78375013004E+02 0.  0.
         24    2    4    4    0    0 -0.31147187952E+03 -0.30768371015E+03 -0.26926067195E+03  0.52005028682E+03  0.79164348860E+02 0.  0.
         11    1    3    3    0    0 -0.13235346379E+01 -0.47594615114E+01  0.75542601899E+01  0.90261323297E+01  0.00000000000E+00 0. -1.
        -11    1    3    3    0    0 -0.14035695335E+03  0.32129915647E+03  0.16986283885E+04  0.17344369762E+04  0.00000000000E+00 0.  1.
          2    1    6    6  502    0 -0.14339395622E+03 -0.14945535360E+03 -0.81823061465E+02  0.22269652621E+03  0.00000000000E+00 0. -1.
          1    1    5    5  503    0  0.42449486808E+03 -0.59803264346E+01  0.34884200131E+02  0.42596779779E+03  0.00000000000E+00 0. -1.
         -4    1    5    5    0  503  0.28657499433E+02 -0.28756583787E+01  0.24505439211E+02  0.37815846359E+02  0.00000000000E+00 0.  1.
         -1    1    6    6    0  502 -0.16807792331E+03 -0.15822835655E+03 -0.18743761049E+03  0.29735376060E+03  0.00000000000E+00 0.  1.
<mgrwt>
<rscale>  0 0.22801756E+04</rscale>
<asrwt>0</asrwt>
<pdfrwt beam="1">  1        2 0.32489297E+00 0.22801756E+04</pdfrwt>
<pdfrwt beam="2">  1       -2 0.94691187E-01 0.22801756E+04</pdfrwt>
<totfact> 0.49348034E+00</totfact>
</mgrwt>
</event>
<event>
12    1  0.1489233E-007  0.1541222E+04  0.7818608E-02  0.8857494E-01
          1   -1    0    0  501    0  0.00000000000E+00  0.00000000000E+00  0.14924967397E+04  0.14924967397E+04  0.00000000000E+00 0. -1.
         -1   -1    0    0    0  501 -0.00000000000E+00 -0.00000000000E+00 -0.39788455780E+03  0.39788455780E+03  0.00000000000E+00 0.  1.
         23    2    1    2    0    0  0.10148136318E+03  0.11572536700E+03  0.95012519704E+03  0.96713652893E+03  0.94468766809E+02 0.  0.
        254    2    1    2    0    0 -0.10148136318E+03 -0.11572536700E+03  0.14448698490E+03  0.92324476860E+03  0.89878450493E+03 0.  0.
        -24    2    4    4    0    0  0.90291819969E+02 -0.39055808135E+03 -0.18272695010E+03  0.44736759442E+03  0.77848561846E+02 0.  0.
         24    2    4    4    0    0 -0.19177318315E+03  0.27483271435E+03  0.32721393501E+03  0.47587717418E+03  0.84143633120E+02 0.  0.
         13    1    3    3    0    0  0.88715538992E+02  0.56594120997E+02  0.76923302146E+03  0.77639730982E+03  0.00000000000E+00 0.  1.
        -13    1    3    3    0    0  0.12765824184E+02  0.59131246007E+02  0.18089217558E+03  0.19073921912E+03  0.00000000000E+00 0. -1.
          4    1    6    6  502    0 -0.10796058452E+03  0.85587099720E+02  0.11521839868E+03  0.17959932863E+03  0.00000000000E+00 0. -1.
          3    1    5    5  503    0 -0.63484993768E+01 -0.12533222526E+03 -0.67260680675E+02  0.14238142188E+03  0.00000000000E+00 0. -1.
         -4    1    5    5    0  503  0.96640319345E+02 -0.26522585610E+03 -0.11546626943E+03  0.30498617254E+03  0.00000000000E+00 0.  1.
         -3    1    6    6    0  502 -0.83812598623E+02  0.18924561463E+03  0.21199553632E+03  0.29627784555E+03  0.00000000000E+00 0.  1.
<mgrwt>
<rscale>  0 0.15412221E+04</rscale>
<asrwt>0</asrwt>
<pdfrwt beam="1">  1        1 0.22961488E+00 0.15412221E+04</pdfrwt>
<pdfrwt beam="2">  1       -1 0.61213010E-01 0.15412221E+04</pdfrwt>
<totfact> 0.17276267E+01</totfact>
</mgrwt>
</event>
<event>
12    1  0.1489233E-007  0.1350891E+04  0.7818608E-02  0.8990154E-01
         -1   -1    0    0    0  501 -0.00000000000E+00  0.00000000000E+00  0.16567597412E+03  0.16567597412E+03  0.00000000000E+00 0.  1.
          1   -1    0    0  501    0  0.00000000000E+00 -0.00000000000E+00 -0.27537267082E+04  0.27537267082E+04  0.00000000000E+00 0. -1.
         23    2    1    2    0    0 -0.13970335733E+03  0.30345095332E+03 -0.61770603342E+03  0.70833570388E+03  0.92624060264E+02 0.  0.
        254    2    1    2    0    0  0.13970335733E+03 -0.30345095332E+03 -0.19703447006E+04  0.22110669784E+04  0.94602295670E+03 0.  0.
        -24    2    4    4    0    0  0.13693011817E+03  0.28708338288E+03 -0.32426049541E+03  0.46045497116E+03  0.75545917124E+02 0.  0.
         24    2    4    4    0    0  0.27732391652E+01 -0.59053433620E+03 -0.16460842052E+04  0.17506120073E+04  0.79439890375E+02 0.  0.
         13    1    3    3    0    0 -0.83023302681E+02  0.17003226269E+03 -0.25342512766E+03  0.31627224740E+03  0.00000000000E+00 0.  1.
        -13    1    3    3    0    0 -0.56680054653E+02  0.13341869063E+03 -0.36428090576E+03  0.39206345648E+03  0.00000000000E+00 0. -1.
          4    1    6    6  502    0 -0.28059672276E+02 -0.96113062096E+02 -0.29995546269E+03  0.31622515003E+03  0.00000000000E+00 0. -1.
          3    1    5    5  503    0  0.12085868759E+03  0.16947402595E+03 -0.21069038514E+03  0.29617343944E+03  0.00000000000E+00 0. -1.
         -4    1    5    5    0  503  0.16071430579E+02  0.11760935693E+03 -0.11357011026E+03  0.16428153172E+03  0.00000000000E+00 0.  1.
         -3    1    6    6    0  502  0.30832911441E+02 -0.49442127411E+03 -0.13461287425E+04  0.14343868572E+04  0.00000000000E+00 0.  1.
<mgrwt>
<rscale>  0 0.13508906E+04</rscale>
<asrwt>0</asrwt>
<pdfrwt beam="1">  1        1 0.42365022E+00 0.13508906E+04</pdfrwt>
<pdfrwt beam="2">  1       -1 0.25488614E-01 0.13508906E+04</pdfrwt>
<totfact> 0.11997065E+01</totfact>
</mgrwt>
</event>
<event>
12    1  0.1489233E-007  0.1295526E+04  0.7818608E-02  0.9033121E-01
         -1   -1    0    0    0  501 -0.00000000000E+00  0.00000000000E+00  0.62112653624E+03  0.62112653624E+03  0.00000000000E+00 0.  1.
          1   -1    0    0  501    0  0.00000000000E+00 -0.00000000000E+00 -0.67554183721E+03  0.67554183721E+03  0.00000000000E+00 0. -1.
         23    2    1    2    0    0 -0.25069683091E+03  0.12676694109E+03  0.13187849998E+03  0.32388259740E+03  0.92678151480E+02 0.  0.
        254    2    1    2    0    0  0.25069683091E+03 -0.12676694109E+03 -0.18629380095E+03  0.97278577605E+03  0.91251741212E+03 0.  0.
        -24    2    4    4    0    0  0.31142222513E+02 -0.23348163941E+02 -0.53445280936E+03  0.54100448156E+03  0.74371156112E+02 0.  0.
         24    2    4    4    0    0  0.21955460839E+03 -0.10341877715E+03  0.34815900841E+03  0.43178129448E+03  0.79502965946E+02 0.  0.
         11    1    3    3    0    0 -0.17991312678E+03  0.81818102960E+02  0.13602836707E+03  0.23993051454E+03  0.00000000000E+00 0.  1.
        -11    1    3    3    0    0 -0.70783704130E+02  0.44948838132E+02 -0.41498670950E+01  0.83952082861E+02  0.00000000000E+00 0. -1.
          4    1    6    6  502    0 -0.24113625208E+01 -0.71865270128E+01 -0.28387577331E+00  0.75856064469E+01  0.00000000000E+00 0. -1.
          3    1    5    5  503    0  0.39947796955E+02  0.37606283030E+01 -0.14321110757E+03  0.14872588926E+03  0.00000000000E+00 0. -1.
         -4    1    5    5    0  503 -0.88055744426E+01 -0.27108792244E+02 -0.39124170179E+03  0.39227859230E+03  0.00000000000E+00 0.  1.
         -3    1    6    6    0  502  0.22196597091E+03 -0.96232250139E+02  0.34844288418E+03  0.42419568803E+03  0.00000000000E+00 0.  1.
<mgrwt>
<rscale>  0 0.12955261E+04</rscale>
<asrwt>0</asrwt>
<pdfrwt beam="1">  1        1 0.10392951E+00 0.12955261E+04</pdfrwt>
<pdfrwt beam="2">  1       -1 0.95557930E-01 0.12955261E+04</pdfrwt>
<totfact> 0.29876856E+01</totfact>
</mgrwt>
</event>
<event>
12    1  0.1489233E-007  0.1562907E+04  0.7818608E-02  0.8843666E-01
         -2   -1    0    0    0  501 -0.00000000000E+00  0.00000000000E+00  0.24186662370E+04  0.24186662370E+04  0.00000000000E+00 0.  1.
          2   -1    0    0  501    0  0.00000000000E+00 -0.00000000000E+00 -0.25248180344E+03  0.25248180344E+03  0.00000000000E+00 0. -1.
         23    2    1    2    0    0 -0.28350355982E+03  0.42473238231E+03  0.80881220658E+03  0.96086360454E+03  0.91158192181E+02 0.  0.
        254    2    1    2    0    0  0.28350355982E+03 -0.42473238231E+03  0.13573722270E+04  0.17102844359E+04  0.90655481032E+03 0.  0.
        -24    2    4    4    0    0 -0.31072206298E+03 -0.22457173483E+03  0.67422293584E+03  0.77947272400E+03  0.77591853559E+02 0.  0.
         24    2    4    4    0    0  0.59422562281E+03 -0.20016064748E+03  0.68314929115E+03  0.93081171192E+03  0.80926592915E+02 0.  0.
         13    1    3    3    0    0 -0.60663660630E+02  0.36174319286E+02  0.11898929271E+03  0.13837309304E+03  0.00000000000E+00 0.  1.
        -13    1    3    3    0    0 -0.22283989919E+03  0.38855806303E+03  0.68982291387E+03  0.82249051150E+03  0.00000000000E+00 0. -1.
          2    1    6    6  502    0  0.31995023818E+03 -0.93214454497E+02  0.30653656311E+03  0.45279327951E+03  0.00000000000E+00 0. -1.
          3    1    5    5  503    0 -0.24418079589E+03 -0.19068508656E+03  0.59356690538E+03  0.66955711816E+03  0.00000000000E+00 0. -1.
         -2    1    5    5    0  503 -0.66541267096E+02 -0.33886648274E+02  0.80656030463E+02  0.10991560584E+03  0.00000000000E+00 0.  1.
         -1    1    6    6    0  502  0.27427538463E+03 -0.10694619298E+03  0.37661272804E+03  0.47801843241E+03  0.00000000000E+00 0.  1.
<mgrwt>
<rscale>  0 0.15629065E+04</rscale>
<asrwt>0</asrwt>
<pdfrwt beam="1">  1        2 0.38843356E-01 0.15629065E+04</pdfrwt>
<pdfrwt beam="2">  1       -2 0.37210248E+00 0.15629065E+04</pdfrwt>
<totfact> 0.14513145E+00</totfact>
</mgrwt>
</event>
<event>
12    1  0.1489233E-007  0.1468590E+04  0.7818608E-02  0.8905613E-01
          2   -1    0    0  501    0  0.00000000000E+00  0.00000000000E+00  0.13509105029E+04  0.13509105029E+04  0.00000000000E+00 0. -1.
         -2   -1    0    0    0  501 -0.00000000000E+00 -0.00000000000E+00 -0.39913033548E+03  0.39913033548E+03  0.00000000000E+00 0.  1.
         23    2    1    2    0    0 -0.32290948952E+03 -0.22067599899E+03  0.24988925241E+02  0.40263917291E+03  0.92333213036E+02 0.  0.
        254    2    1    2    0    0  0.32290948952E+03  0.22067599899E+03  0.92679124222E+03  0.13474016655E+04  0.89642668779E+03 0.  0.
        -24    2    4    4    0    0 -0.29089316997E+03  0.17658483909E+03  0.24918363178E+03  0.42875015248E+03  0.77027067770E+02 0.  0.
         24    2    4    4    0    0  0.61380265949E+03  0.44091159904E+02  0.67760761044E+03  0.91865151303E+03  0.77915296887E+02 0.  0.
         11    1    3    3    0    0 -0.14618751308E+03 -0.67990329504E+02  0.47326818307E+02  0.16802768110E+03  0.00000000000E+00 0. -1.
        -11    1    3    3    0    0 -0.17672197644E+03 -0.15268566949E+03 -0.22337893066E+02  0.23461149181E+03  0.00000000000E+00 0.  1.
          4    1    6    6  502    0  0.10727729550E+03 -0.20589138717E+02  0.10676908978E+03  0.15274805823E+03  0.00000000000E+00 0. -1.
          1    1    5    5  503    0 -0.13522725157E+03  0.98454567595E+02  0.16626449759E+03  0.23584654885E+03  0.00000000000E+00 0. -1.
         -2    1    5    5    0  503 -0.15566591840E+03  0.78130271491E+02  0.82919134192E+02  0.19290360362E+03  0.00000000000E+00 0.  1.
         -3    1    6    6    0  502  0.50652536399E+03  0.64680298621E+02  0.57083852066E+03  0.76590345479E+03  0.00000000000E+00 0.  1.
<mgrwt>
<rscale>  0 0.14685903E+04</rscale>
<asrwt>0</asrwt>
<pdfrwt beam="1">  1        2 0.20783238E+00 0.14685903E+04</pdfrwt>
<pdfrwt beam="2">  1       -2 0.61404667E-01 0.14685903E+04</pdfrwt>
<totfact> 0.36876070E+01</totfact>
</mgrwt>
</event>
<event>
12    1  0.1489233E-007  0.1623108E+04  0.7818608E-02  0.8806476E-01
          1   -1    0    0  501    0  0.00000000000E+00  0.00000000000E+00  0.10128896167E+04  0.10128896167E+04  0.00000000000E+00 0. -1.
         -1   -1    0    0    0  501 -0.00000000000E+00 -0.00000000000E+00 -0.65023851018E+03  0.65023851018E+03  0.00000000000E+00 0.  1.
         23    2    1    2    0    0  0.13016009715E+03  0.15702324420E+03  0.65652487655E+03  0.69378912193E+03  0.93383521334E+02 0.  0.
        254    2    1    2    0    0 -0.13016009715E+03 -0.15702324420E+03 -0.29387377008E+03  0.96933900491E+03  0.90092084203E+03 0.  0.
        -24    2    4    4    0    0 -0.34455854320E+03 -0.42089244532E+03 -0.28723517851E+03  0.62032118843E+03  0.80145422942E+02 0.  0.
         24    2    4    4    0    0  0.21439844604E+03  0.26386920112E+03 -0.66385915626E+01  0.34901781648E+03  0.78585726175E+02 0.  0.
         13    1    3    3    0    0 -0.13919263238E+02  0.12838178123E+02  0.82589562065E+02  0.84732523087E+02  0.00000000000E+00 0.  1.
        -13    1    3    3    0    0  0.14407936039E+03  0.14418506608E+03  0.57393531449E+03  0.60905659884E+03  0.00000000000E+00 0. -1.
          4    1    6    6  502    0  0.70806621559E+02  0.73393727531E+02  0.33048343092E+02  0.10720265798E+03  0.00000000000E+00 0. -1.
          3    1    5    5  503    0 -0.13891273493E+03 -0.11229262328E+03 -0.10376296636E+03  0.20657476699E+03  0.00000000000E+00 0. -1.
         -4    1    5    5    0  503 -0.20564580827E+03 -0.30859982204E+03 -0.18347221215E+03  0.41374642144E+03  0.00000000000E+00 0.  1.
         -3    1    6    6    0  502  0.14359182448E+03  0.19047547359E+03 -0.39686934654E+02  0.24181515850E+03  0.00000000000E+00 0.  1.
<mgrwt>
<rscale>  0 0.16231079E+04</rscale>
<asrwt>0</asrwt>
<pdfrwt beam="1">  1        1 0.15582917E+00 0.16231079E+04</pdfrwt>
<pdfrwt beam="2">  1       -1 0.10003669E+00 0.16231079E+04</pdfrwt>
<totfact> 0.13487178E+01</totfact>
</mgrwt>
</event>
<event>
12    1  0.1489233E-007  0.1159165E+04  0.7818608E-02  0.9149370E-01
          1   -1    0    0  501    0  0.00000000000E+00  0.00000000000E+00  0.54439713273E+03  0.54439713273E+03  0.00000000000E+00 0. -1.
         -1   -1    0    0    0  501 -0.00000000000E+00 -0.00000000000E+00 -0.61704232031E+03  0.61704232031E+03  0.00000000000E+00 0.  1.
         23    2    1    2    0    0  0.23222475807E+02 -0.21250783376E+03 -0.72956769541E+02  0.24266534738E+03  0.88684371808E+02 0.  0.
        254    2    1    2    0    0 -0.23222475807E+02  0.21250783376E+03  0.31158196419E+00  0.91877410567E+03  0.89355855845E+03 0.  0.
        -24    2    4    4    0    0  0.25819671368E+03 -0.11198629841E+03 -0.27504019706E+03  0.40190499012E+03  0.81694780129E+02 0.  0.
         24    2    4    4    0    0 -0.28141918948E+03  0.32449413217E+03  0.27535177903E+03  0.51686911555E+03  0.82715647697E+02 0.  0.
         13    1    3    3    0    0 -0.20864253051E+02 -0.15384796902E+02  0.45375162137E+01  0.26317258301E+02  0.00000000000E+00 0. -1.
        -13    1    3    3    0    0  0.44086728858E+02 -0.19712303686E+03 -0.77494285754E+02  0.21634808907E+03  0.00000000000E+00 0.  1.
          4    1    6    6  502    0 -0.21742120168E+03  0.25671055250E+03  0.25320530715E+03  0.42105250774E+03  0.00000000000E+00 0. -1.
          3    1    5    5  503    0  0.21307247040E+03 -0.61541196434E+02 -0.23561872509E+03  0.32357901680E+03  0.00000000000E+00 0. -1.
         -4    1    5    5    0  503  0.45124243276E+02 -0.50445101971E+02 -0.39421471975E+02  0.78325973322E+02  0.00000000000E+00 0.  1.
         -3    1    6    6    0  502 -0.63997987807E+02  0.67783579662E+02  0.22146471877E+02  0.95816607808E+02  0.00000000000E+00 0.  1.
<mgrwt>
<rscale>  0 0.11591653E+04</rscale>
<asrwt>0</asrwt>
<pdfrwt beam="1">  1        1 0.83753405E-01 0.11591653E+04</pdfrwt>
<pdfrwt beam="2">  1       -1 0.94929587E-01 0.11591653E+04</pdfrwt>
<totfact> 0.41921143E+01</totfact>
</mgrwt>
</event>
<event>
12    1  0.1489233E-007  0.1052915E+04  0.7818608E-02  0.9252340E-01
          2   -1    0    0  501    0  0.00000000000E+00  0.00000000000E+00  0.21442154853E+04  0.21442154853E+04  0.00000000000E+00 0.  1.
         -2   -1    0    0    0  501 -0.00000000000E+00 -0.00000000000E+00 -0.12925818532E+03  0.12925818532E+03  0.00000000000E+00 0. -1.
         23    2    1    2    0    0 -0.20680603501E+00 -0.62916064622E+02  0.76524938693E+02  0.13462533982E+03  0.91156140357E+02 0.  0.
        254    2    1    2    0    0  0.20680603501E+00  0.62916064622E+02  0.19384323613E+04  0.21388483308E+04  0.90177252612E+03 0.  0.
        -24    2    4    4    0    0  0.28819948516E+03  0.30359461303E+03  0.14854927976E+04  0.15454134514E+04  0.79907770286E+02 0.  0.
         24    2    4    4    0    0 -0.28799267912E+03 -0.24067854841E+03  0.45293956371E+03  0.59343487940E+03  0.78388524864E+02 0.  0.
         13    1    3    3    0    0  0.23144614604E+02 -0.43279817619E+02 -0.32778962420E+01  0.49189027253E+02  0.00000000000E+00 0. -1.
        -13    1    3    3    0    0 -0.23351420639E+02 -0.19636247003E+02  0.79802834935E+02  0.85436312572E+02  0.00000000000E+00 0.  1.
          2    1    6    6  502    0 -0.16891593264E+03 -0.14827828087E+03  0.32821580202E+03  0.39779976568E+03  0.00000000000E+00 0. -1.
          3    1    5    5  503    0  0.27439240065E+02  0.21650418804E+01  0.89272310582E+02  0.93419188277E+02  0.00000000000E+00 0. -1.
         -4    1    5    5    0  503  0.26076024509E+03  0.30142957115E+03  0.13962204870E+04  0.14519942631E+04  0.00000000000E+00 0.  1.
         -1    1    6    6    0  502 -0.11907674648E+03 -0.92400267535E+02  0.12472376169E+03  0.19563511372E+03  0.00000000000E+00 0.  1.
<mgrwt>
<rscale>  0 0.10529148E+04</rscale>
<asrwt>0</asrwt>
<pdfrwt beam="1">  1        2 0.32987928E+00 0.10529148E+04</pdfrwt>
<pdfrwt beam="2">  1       -2 0.19885876E-01 0.10529148E+04</pdfrwt>
<totfact> 0.11984563E+02</totfact>
</mgrwt>
</event>
<event>
12    1  0.1489233E-007  0.1253566E+04  0.7818608E-02  0.9067221E-01
         -1   -1    0    0    0  501 -0.00000000000E+00  0.00000000000E+00  0.68766458526E+03  0.68766458526E+03  0.00000000000E+00 0.  1.
          1   -1    0    0  501    0  0.00000000000E+00 -0.00000000000E+00 -0.57129138586E+03  0.57129138586E+03  0.00000000000E+00 0. -1.
         23    2    1    2    0    0 -0.69764806891E+02  0.27716951491E+03  0.10631290544E+03  0.31810377669E+03  0.90540104929E+02 0.  0.
        254    2    1    2    0    0  0.69764806891E+02 -0.27716951491E+03  0.10060293961E+02  0.94085219443E+03  0.89633228993E+03 0.  0.
        -24    2    4    4    0    0  0.41684989738E+03  0.10278615566E+02 -0.15930135898E+03  0.45296474681E+03  0.77010726481E+02 0.  0.
         24    2    4    4    0    0 -0.34708509049E+03 -0.28744813048E+03  0.16936165294E+03  0.48788744763E+03  0.79096803419E+02 0.  0.
         13    1    3    3    0    0 -0.11021151961E+02  0.75789707968E+02 -0.11603775423E+02  0.77460914199E+02  0.00000000000E+00 0. -1.
        -13    1    3    3    0    0 -0.58743654930E+02  0.20137980695E+03  0.11791668087E+03  0.24064286249E+03  0.00000000000E+00 0.  1.
          4    1    6    6  502    0 -0.23694406923E+03 -0.17567302900E+03  0.73435691688E+02  0.30396760662E+03  0.00000000000E+00 0. -1.
          3    1    5    5  503    0  0.24462580113E+03  0.68565510153E+01 -0.52517856306E+02  0.25029366772E+03  0.00000000000E+00 0. -1.
         -4    1    5    5    0  503  0.17222409625E+03  0.34220645502E+01 -0.10678350267E+03  0.20267107909E+03  0.00000000000E+00 0.  1.
         -3    1    6    6    0  502 -0.11014102126E+03 -0.11177510148E+03  0.95925961248E+02  0.18391984101E+03  0.00000000000E+00 0.  1.
<mgrwt>
<rscale>  0 0.12535659E+04</rscale>
<asrwt>0</asrwt>
<pdfrwt beam="1">  1        1 0.87890982E-01 0.12535659E+04</pdfrwt>
<pdfrwt beam="2">  1       -1 0.10579455E+00 0.12535659E+04</pdfrwt>
<totfact> 0.30324779E+01</totfact>
</mgrwt>
</event>
<event>
12    1  0.1489233E-007  0.2274934E+04  0.7818608E-02  0.8487870E-01
          2   -1    0    0  501    0  0.00000000000E+00  0.00000000000E+00  0.18222082691E+04  0.18222082691E+04  0.00000000000E+00 0. -1.
         -2   -1    0    0    0  501 -0.00000000000E+00 -0.00000000000E+00 -0.71003474907E+03  0.71003474907E+03  0.00000000000E+00 0.  1.
         23    2    1    2    0    0  0.50653248284E+03  0.14223722166E+03  0.13551511462E+04  0.14568805245E+04  0.96227076862E+02 0.  0.
        254    2    1    2    0    0 -0.50653248284E+03 -0.14223722166E+03 -0.24297762616E+03  0.10753624936E+04  0.90584754928E+03 0.  0.
        -24    2    4    4    0    0 -0.14068838393E+03  0.78559747686E+02 -0.52726187705E+03  0.55704747123E+03  0.79573506176E+02 0.  0.
         24    2    4    4    0    0 -0.36584409891E+03 -0.22079696935E+03  0.28428425089E+03  0.51831502242E+03  0.72385915642E+02 0.  0.
         13    1    3    3    0    0  0.32013300815E+03  0.48561261639E+02  0.75492745106E+03  0.82143703070E+03  0.00000000000E+00 0.  1.
        -13    1    3    3    0    0  0.18639947469E+03  0.93675960023E+02  0.60022369511E+03  0.63544349381E+03  0.00000000000E+00 0. -1.
          2    1    6    6  502    0 -0.21735472496E+03 -0.94953476136E+02  0.13415404915E+03  0.27250054679E+03  0.00000000000E+00 0. -1.
          3    1    5    5  503    0 -0.10908940730E+03  0.81167095658E+02 -0.48795990085E+03  0.50655055132E+03  0.00000000000E+00 0. -1.
         -2    1    5    5    0  503 -0.31598976629E+02 -0.26073479716E+01 -0.39301976198E+02  0.50496919911E+02  0.00000000000E+00 0.  1.
         -1    1    6    6    0  502 -0.14848937395E+03 -0.12584349321E+03  0.15013020173E+03  0.24581447563E+03  0.00000000000E+00 0.  1.
<mgrwt>
<rscale>  0 0.22749340E+04</rscale>
<asrwt>0</asrwt>
<pdfrwt beam="1">  1        2 0.28033973E+00 0.22749340E+04</pdfrwt>
<pdfrwt beam="2">  1       -2 0.10923612E+00 0.22749340E+04</pdfrwt>
<totfact> 0.50915814E+00</totfact>
</mgrwt>
</event>
<event>
12    1  0.1489233E-007  0.1839310E+04  0.7818608E-02  0.8685670E-01
          2   -1    0    0  501    0  0.00000000000E+00  0.00000000000E+00  0.14660291126E+04  0.14660291126E+04  0.00000000000E+00 0. -1.
         -2   -1    0    0    0  501 -0.00000000000E+00 -0.00000000000E+00 -0.57690907949E+03  0.57690907949E+03  0.00000000000E+00 0.  1.
         23    2    1    2    0    0 -0.65010351772E+03  0.22219395550E+03  0.40621916161E+03  0.80362368383E+03  0.93767160201E+02 0.  0.
        254    2    1    2    0    0  0.65010351772E+03 -0.22219395550E+03  0.48290087145E+03  0.12393145082E+04  0.91142880195E+03 0.  0.
        -24    2    4    4    0    0  0.47777526360E+03  0.66454049914E+02 -0.15548315919E+03  0.51320896480E+03  0.80765620837E+02 0.  0.
         24    2    4    4    0    0  0.17232825413E+03 -0.28864800542E+03  0.63838403064E+03  0.72610554342E+03  0.81733661424E+02 0.  0.
         11    1    3    3    0    0 -0.15993091648E+03  0.91944405167E+02  0.13396940600E+03  0.22799007310E+03  0.00000000000E+00 0. -1.
        -11    1    3    3    0    0 -0.49017260124E+03  0.13024955034E+03  0.27224975562E+03  0.57563361073E+03  0.00000000000E+00 0.  1.
          2    1    6    6  502    0  0.15982212081E+03 -0.21555130786E+03  0.53901002406E+03  0.60211068971E+03  0.00000000000E+00 0. -1.
          1    1    5    5  503    0  0.36812532113E+03  0.39702676904E+02 -0.15212459839E+03  0.40029295278E+03  0.00000000000E+00 0. -1.
         -2    1    5    5    0  503  0.10964994247E+03  0.26751373010E+02 -0.33585608016E+01  0.11291601203E+03  0.00000000000E+00 0.  1.
         -1    1    6    6    0  502  0.12506133312E+02 -0.73096697555E+02  0.99374006582E+02  0.12399485372E+03  0.00000000000E+00 0.  1.
<mgrwt>
<rscale>  0 0.18393102E+04</rscale>
<asrwt>0</asrwt>
<pdfrwt beam="1">  1        2 0.22554294E+00 0.18393102E+04</pdfrwt>
<pdfrwt beam="2">  1       -2 0.88755244E-01 0.18393102E+04</pdfrwt>
<totfact> 0.13628280E+01</totfact>
</mgrwt>
</event>
<event>
12    1  0.1489233E-007  0.2499630E+04  0.7818608E-02  0.8403117E-01
          2   -1    0    0  501    0  0.00000000000E+00  0.00000000000E+00  0.17620899881E+04  0.17620899881E+04  0.00000000000E+00 0.  1.
         -2   -1    0    0    0  501 -0.00000000000E+00 -0.00000000000E+00 -0.88646872331E+03  0.88646872331E+03  0.00000000000E+00 0. -1.
         23    2    1    2    0    0 -0.59551481534E+03 -0.15436361254E+03 -0.56413396389E+03  0.83974110005E+03  0.91934573137E+02 0.  0.
        254    2    1    2    0    0  0.59551481534E+03  0.15436361254E+03  0.14397552287E+04  0.18088176114E+04  0.90579247760E+03 0.  0.
        -24    2    4    4    0    0  0.21575749832E+03 -0.35503267624E+03  0.79432538397E+03  0.89983173185E+03  0.78388970764E+02 0.  0.
         24    2    4    4    0    0  0.37975731702E+03  0.50939628879E+03  0.64542984476E+03  0.90898587955E+03  0.77301008089E+02 0.  0.
         11    1    3    3    0    0 -0.51091814163E+03 -0.13497988670E+03 -0.52372530354E+03  0.74400612284E+03  0.00000000000E+00 0. -1.
        -11    1    3    3    0    0 -0.84596673708E+02 -0.19383725839E+02 -0.40408660353E+02  0.95734977210E+02  0.00000000000E+00 0.  1.
          4    1    6    6  502    0  0.12565147480E+03  0.23148876296E+03  0.25773306089E+03  0.36851278292E+03  0.00000000000E+00 0. -1.
          3    1    5    5  503    0  0.15713852280E+03 -0.21169499223E+03  0.43662217012E+03  0.51004529654E+03  0.00000000000E+00 0. -1.
         -4    1    5    5    0  503  0.58618975517E+02 -0.14333768402E+03  0.35770321386E+03  0.38978643531E+03  0.00000000000E+00 0.  1.
         -3    1    6    6    0  502  0.25410584221E+03  0.27790752582E+03  0.38769678387E+03  0.54047309663E+03  0.00000000000E+00 0.  1.
<mgrwt>
<rscale>  0 0.24996301E+04</rscale>
<asrwt>0</asrwt>
<pdfrwt beam="1">  1        2 0.27109077E+00 0.24996301E+04</pdfrwt>
<pdfrwt beam="2">  1       -2 0.13637980E+00 0.24996301E+04</pdfrwt>
<totfact> 0.31055086E+00</totfact>
</mgrwt>
</event>
<event>
12    1  0.1489233E-007  0.1783710E+04  0.7818608E-02  0.8715010E-01
         -2   -1    0    0    0  501 -0.00000000000E+00  0.00000000000E+00  0.14290180017E+04  0.14290180017E+04  0.00000000000E+00 0.  1.
          2   -1    0    0  501    0  0.00000000000E+00 -0.00000000000E+00 -0.55660985445E+03  0.55660985445E+03  0.00000000000E+00 0. -1.
         23    2    1    2    0    0  0.36811612489E+03  0.55234936201E+03  0.35572891179E+03  0.75864690739E+03  0.91666636816E+02 0.  0.
        254    2    1    2    0    0 -0.36811612489E+03 -0.55234936201E+03  0.51667923543E+03  0.12269809487E+04  0.89326676703E+03 0.  0.
        -24    2    4    4    0    0  0.19585803037E+03 -0.39172430153E+03  0.61039905728E+01  0.44532692009E+03  0.80439484006E+02 0.  0.
         24    2    4    4    0    0 -0.56397415526E+03 -0.16062506048E+03  0.51057524486E+03  0.78165402863E+03  0.80179061828E+02 0.  0.
         11    1    3    3    0    0  0.21637527129E+03  0.38857633426E+03  0.26448570394E+03  0.51745774045E+03  0.00000000000E+00 0.  1.
        -11    1    3    3    0    0  0.15174085360E+03  0.16377302775E+03  0.91243207850E+02  0.24118916694E+03  0.00000000000E+00 0. -1.
          4    1    6    6  502    0 -0.94792686772E+02 -0.57847043378E+02  0.10872781046E+03  0.15541451238E+03  0.00000000000E+00 0. -1.
          3    1    5    5  503    0  0.54025060810E+02 -0.45286473740E+02 -0.62854328048E+01  0.70774844153E+02  0.00000000000E+00 0. -1.
         -4    1    5    5    0  503  0.14183296956E+03 -0.34643782779E+03  0.12389423378E+02  0.37455207594E+03  0.00000000000E+00 0.  1.
         -3    1    6    6    0  502 -0.46918146849E+03 -0.10277801710E+03  0.40184743441E+03  0.62623951625E+03  0.00000000000E+00 0.  1.
<mgrwt>
<rscale>  0 0.17837102E+04</rscale>
<asrwt>0</asrwt>
<pdfrwt beam="1">  1        2 0.85632286E-01 0.17837102E+04</pdfrwt>
<pdfrwt beam="2">  1       -2 0.21984892E+00 0.17837102E+04</pdfrwt>
<totfact> 0.50785631E+00</totfact>
</mgrwt>
</event>
<event>
12    1  0.1489233E-007  0.2130893E+04  0.7818608E-02  0.8547756E-01
         -1   -1    0    0    0  501 -0.00000000000E+00  0.00000000000E+00  0.37773328125E+03  0.37773328125E+03  0.00000000000E+00 0.  1.
          1   -1    0    0  501    0  0.00000000000E+00 -0.00000000000E+00 -0.30052308568E+04  0.30052308568E+04  0.00000000000E+00 0. -1.
         23    2    1    2    0    0 -0.19230120140E+03  0.69217764214E+03 -0.18615985610E+04  0.19975909961E+04  0.93439526608E+02 0.  0.
        254    2    1    2    0    0  0.19230120140E+03 -0.69217764214E+03 -0.76589901460E+03  0.13853731420E+04  0.90364141205E+03 0.  0.
        -24    2    4    4    0    0  0.29906925705E+02  0.20573848491E+03 -0.24371178742E+03  0.33109309495E+03  0.83692615066E+02 0.  0.
         24    2    4    4    0    0  0.16239427569E+03 -0.89791612705E+03 -0.52218722718E+03  0.10542800470E+04  0.78750525824E+02 0.  0.
         13    1    3    3    0    0 -0.19420268879E+03  0.67340728196E+03 -0.18397531378E+04  0.19687264055E+04  0.00000000000E+00 0. -1.
        -13    1    3    3    0    0  0.19014873951E+01  0.18770360180E+02 -0.21845423155E+02  0.28864590564E+02  0.00000000000E+00 0.  1.
          2    1    6    6  502    0  0.15746128722E+02 -0.19812088464E+02 -0.10143943399E+02  0.27264610885E+02  0.00000000000E+00 0. -1.
          3    1    5    5  503    0  0.24543363675E+02  0.56426008323E+02 -0.25442717454E+02  0.66585306091E+02  0.00000000000E+00 0. -1.
         -4    1    5    5    0  503  0.53635620298E+01  0.14931247658E+03 -0.21826906997E+03  0.26450778886E+03  0.00000000000E+00 0.  1.
         -1    1    6    6    0  502  0.14664814697E+03 -0.87810403859E+03 -0.51204328378E+03  0.10270154361E+04  0.00000000000E+00 0.  1.
<mgrwt>
<rscale>  0 0.21308925E+04</rscale>
<asrwt>0</asrwt>
<pdfrwt beam="1">  1        1 0.46234323E+00 0.21308925E+04</pdfrwt>
<pdfrwt beam="2">  1       -1 0.58112810E-01 0.21308925E+04</pdfrwt>
<totfact> 0.16324568E+00</totfact>
</mgrwt>
</event>
<event>
12    1  0.1489233E-007  0.1409398E+04  0.7818608E-02  0.8947044E-01
         -1   -1    0    0    0  501 -0.00000000000E+00  0.00000000000E+00  0.28636942675E+03  0.28636942675E+03  0.00000000000E+00 0.  1.
          1   -1    0    0  501    0  0.00000000000E+00 -0.00000000000E+00 -0.17341260911E+04  0.17341260911E+04  0.00000000000E+00 0. -1.
         23    2    1    2    0    0 -0.36635257438E+03 -0.20777956331E+03 -0.43690691911E+03  0.61208863024E+03  0.79864132219E+02 0.  0.
        254    2    1    2    0    0  0.36635257438E+03  0.20777956331E+03 -0.10108497452E+04  0.14084068876E+04  0.88566709203E+03 0.  0.
        -24    2    4    4    0    0  0.40818957380E+03  0.69522059429E+02 -0.40232809268E+02  0.42387363492E+03  0.81228902070E+02 0.  0.
         24    2    4    4    0    0 -0.41836999418E+02  0.13825750388E+03 -0.97061693597E+03  0.98453325268E+03  0.79643062111E+02 0.  0.
         11    1    3    3    0    0 -0.34059195654E+03 -0.20074065647E+03 -0.43076513658E+03  0.58468649284E+03  0.00000000000E+00 0.  1.
        -11    1    3    3    0    0 -0.25760617843E+02 -0.70389068410E+01 -0.61417825268E+01  0.27402137394E+02  0.00000000000E+00 0. -1.
          2    1    6    6  502    0 -0.26648951050E+02  0.24494500943E+02 -0.44811186600E+03  0.44957134208E+03  0.00000000000E+00 0. -1.
          1    1    5    5  503    0  0.16517142190E+03 -0.12037687099E+02 -0.17297503832E+02  0.16651038454E+03  0.00000000000E+00 0. -1.
         -2    1    5    5    0  503  0.24301815190E+03  0.81559746528E+02 -0.22935305435E+02  0.25736325038E+03  0.00000000000E+00 0.  1.
         -1    1    6    6    0  502 -0.15188048368E+02  0.11376300293E+03 -0.52250506997E+03  0.53496191060E+03  0.00000000000E+00 0.  1.
<mgrwt>
<rscale>  0 0.14093980E+04</rscale>
<asrwt>0</asrwt>
<pdfrwt beam="1">  1        1 0.26678863E+00 0.14093980E+04</pdfrwt>
<pdfrwt beam="2">  1       -1 0.44056835E-01 0.14093980E+04</pdfrwt>
<totfact> 0.22428900E+01</totfact>
</mgrwt>
</event>
<event>
12    1  0.1489233E-007  0.1450017E+04  0.7818608E-02  0.8918389E-01
          2   -1    0    0  501    0  0.00000000000E+00  0.00000000000E+00  0.95568831087E+03  0.95568831087E+03  0.00000000000E+00 0. -1.
         -2   -1    0    0    0  501 -0.00000000000E+00 -0.00000000000E+00 -0.55000917037E+03  0.55000917037E+03  0.00000000000E+00 0.  1.
         23    2    1    2    0    0  0.25788623825E+03 -0.30904602838E+01  0.49448700957E+03  0.56563990755E+03  0.94425841598E+02 0.  0.
        254    2    1    2    0    0 -0.25788623825E+03  0.30904602838E+01 -0.88807869066E+02  0.94005757369E+03  0.89961466274E+03 0.  0.
        -24    2    4    4    0    0 -0.20517168683E+03  0.29177050339E+03 -0.37386645627E+03  0.52299919504E+03  0.80787271049E+02 0.  0.
         24    2    4    4    0    0 -0.52714551421E+02 -0.28868004311E+03  0.28505858721E+03  0.41705837865E+03  0.81020379160E+02 0.  0.
         11    1    3    3    0    0  0.24383119403E+02 -0.30821327024E+02  0.78696930596E+02  0.87964183601E+02  0.00000000000E+00 0.  1.
        -11    1    3    3    0    0  0.23350311885E+03  0.27730866740E+02  0.41579007897E+03  0.47767572395E+03  0.00000000000E+00 0. -1.
          4    1    6    6  502    0 -0.53999080837E+01 -0.21922074448E+03  0.22150189047E+03  0.31168891751E+03  0.00000000000E+00 0. -1.
          3    1    5    5  503    0 -0.42917341062E+02  0.36775159840E+02 -0.26113508413E+02  0.62259343610E+02  0.00000000000E+00 0. -1.
         -4    1    5    5    0  503 -0.16225434577E+03  0.25499534355E+03 -0.34775294786E+03  0.46073985143E+03  0.00000000000E+00 0.  1.
         -3    1    6    6    0  502 -0.47314643337E+02 -0.69459298623E+02  0.63556696740E+02  0.10536946113E+03  0.00000000000E+00 0.  1.
<mgrwt>
<rscale>  0 0.14500170E+04</rscale>
<asrwt>0</asrwt>
<pdfrwt beam="1">  1        2 0.14702897E+00 0.14500170E+04</pdfrwt>
<pdfrwt beam="2">  1       -2 0.84616795E-01 0.14500170E+04</pdfrwt>
<totfact> 0.31786296E+01</totfact>
</mgrwt>
</event>
<event>
12    1  0.1489233E-007  0.2197912E+04  0.7818608E-02  0.8519298E-01
          2   -1    0    0  501    0  0.00000000000E+00  0.00000000000E+00  0.10478206357E+04  0.10478206357E+04  0.00000000000E+00 0.  1.
         -2   -1    0    0    0  501 -0.00000000000E+00 -0.00000000000E+00 -0.11525871107E+04  0.11525871107E+04  0.00000000000E+00 0. -1.
         23    2    1    2    0    0 -0.64827684799E+03 -0.47835272919E+03 -0.47305464323E+03  0.93880599177E+03  0.92150906337E+02 0.  0.
        254    2    1    2    0    0  0.64827684799E+03  0.47835272919E+03  0.36828816821E+03  0.12616017546E+04  0.89828648388E+03 0.  0.
        -24    2    4    4    0    0  0.29695364585E+03 -0.23711380104E+03  0.23983669761E+02  0.38955806216E+03  0.82315520718E+02 0.  0.
         24    2    4    4    0    0  0.35132320213E+03  0.71546653023E+03  0.34430449845E+03  0.87204369240E+03  0.81205083362E+02 0.  0.
         13    1    3    3    0    0 -0.23316087402E+03 -0.19868859365E+03 -0.22561593565E+03  0.38045196916E+03  0.00000000000E+00 0. -1.
        -13    1    3    3    0    0 -0.41511597397E+03 -0.27966413553E+03 -0.24743870758E+03  0.55835402260E+03  0.00000000000E+00 0.  1.
          4    1    6    6  502    0  0.22817393889E+03  0.53289151074E+03  0.27131171097E+03  0.64003652483E+03  0.00000000000E+00 0. -1.
          3    1    5    5  503    0  0.27837104685E+03 -0.24080116121E+03  0.14460067298E+02  0.36835408577E+03  0.00000000000E+00 0. -1.
         -4    1    5    5    0  503  0.18582599008E+02  0.36873601634E+01  0.95236024631E+01  0.21203976390E+02  0.00000000000E+00 0.  1.
         -3    1    6    6    0  502  0.12314926325E+03  0.18257501949E+03  0.72992787484E+02  0.23200716757E+03  0.00000000000E+00 0.  1.
<mgrwt>
<rscale>  0 0.21979122E+04</rscale>
<asrwt>0</asrwt>
<pdfrwt beam="1">  1        2 0.16120317E+00 0.21979122E+04</pdfrwt>
<pdfrwt beam="2">  1       -2 0.17732109E+00 0.21979122E+04</pdfrwt>
<totfact> 0.40624842E+00</totfact>
</mgrwt>
</event>
<event>
12    1  0.1489233E-007  0.1414211E+04  0.7818608E-02  0.8943596E-01
          1   -1    0    0  501    0  0.00000000000E+00  0.00000000000E+00  0.34902546430E+03  0.34902546430E+03  0.00000000000E+00 0. -1.
         -1   -1    0    0    0  501 -0.00000000000E+00 -0.00000000000E+00 -0.14325546881E+04  0.14325546881E+04  0.00000000000E+00 0.  1.
         23    2    1    2    0    0 -0.34100652528E+03  0.25321551714E+03 -0.35492385899E+03  0.56075299760E+03  0.89830007398E+02 0.  0.
        254    2    1    2    0    0  0.34100652528E+03 -0.25321551714E+03 -0.72860536479E+03  0.12208271548E+04  0.88269452012E+03 0.  0.
        -24    2    4    4    0    0  0.41000499499E+03 -0.11934169376E+03 -0.88759774188E+03  0.98822370670E+03  0.80061272198E+02 0.  0.
         24    2    4    4    0    0 -0.68998469713E+02 -0.13387382338E+03  0.15899237709E+03  0.23260344808E+03  0.78376008293E+02 0.  0.
         11    1    3    3    0    0 -0.22603649640E+03  0.17396449234E+03 -0.28998860711E+03  0.40675488264E+03  0.00000000000E+00 0.  1.
        -11    1    3    3    0    0 -0.11497002888E+03  0.79251024808E+02 -0.64935251877E+02  0.15399811495E+03  0.00000000000E+00 0. -1.
          2    1    6    6  502    0 -0.48174984136E+02 -0.12798904110E+03  0.16056147582E+03  0.21090758938E+03  0.00000000000E+00 0. -1.
          1    1    5    5  503    0  0.34238551221E+03 -0.84593733065E+02 -0.78446186658E+03  0.86009555211E+03  0.00000000000E+00 0. -1.
         -2    1    5    5    0  503  0.67619482785E+02 -0.34747960698E+02 -0.10313587531E+03  0.12812815460E+03  0.00000000000E+00 0.  1.
         -1    1    6    6    0  502 -0.20823485577E+02 -0.58847822790E+01 -0.15690987292E+01  0.21695858704E+02  0.00000000000E+00 0.  1.
<mgrwt>
<rscale>  0 0.14142108E+04</rscale>
<asrwt>0</asrwt>
<pdfrwt beam="1">  1        1 0.53696226E-01 0.14142108E+04</pdfrwt>
<pdfrwt beam="2">  1       -1 0.22039303E+00 0.14142108E+04</pdfrwt>
<totfact> 0.76595701E+00</totfact>
</mgrwt>
</event>
<event>
12    1  0.1489233E-007  0.1230107E+04  0.7818608E-02  0.9086905E-01
          1   -1    0    0  501    0  0.00000000000E+00  0.00000000000E+00  0.21678395630E+04  0.21678395630E+04  0.00000000000E+00 0. -1.
         -1   -1    0    0    0  501 -0.00000000000E+00 -0.00000000000E+00 -0.17450131070E+03  0.17450131070E+03  0.00000000000E+00 0.  1.
         23    2    1    2    0    0 -0.13130771105E+03 -0.14221037048E+03  0.84137305429E+03  0.86816367071E+03  0.91290953556E+02 0.  0.
        254    2    1    2    0    0  0.13130771105E+03  0.14221037048E+03  0.11519651980E+04  0.14741772030E+04  0.89928254958E+03 0.  0.
        -24    2    4    4    0    0 -0.34788272933E+03  0.22964319170E+03  0.55728406351E+03  0.70096375565E+03  0.83822851526E+02 0.  0.
         24    2    4    4    0    0  0.47919044038E+03 -0.87432821223E+02  0.59468113454E+03  0.77321344738E+03  0.83339108801E+02 0.  0.
         13    1    3    3    0    0 -0.10806259647E+03 -0.11111472300E+03  0.47294395990E+03  0.49769468113E+03  0.00000000000E+00 0. -1.
        -13    1    3    3    0    0 -0.23245114586E+02 -0.31095647477E+02  0.36842909439E+03  0.37046898958E+03  0.00000000000E+00 0.  1.
          2    1    6    6  502    0  0.28102757723E+03 -0.85308736262E+02  0.39121307835E+03  0.48918478341E+03  0.00000000000E+00 0. -1.
          3    1    5    5  503    0 -0.27211477993E+02  0.47471910047E+02  0.94506950014E+02  0.10920444304E+03  0.00000000000E+00 0. -1.
         -4    1    5    5    0  503 -0.32067125134E+03  0.18217128166E+03  0.46277711349E+03  0.59175931262E+03  0.00000000000E+00 0.  1.
         -1    1    6    6    0  502  0.19816286315E+03 -0.21240849613E+01  0.20346805619E+03  0.28402866397E+03  0.00000000000E+00 0.  1.
<mgrwt>
<rscale>  0 0.12301071E+04</rscale>
<asrwt>0</asrwt>
<pdfrwt beam="1">  1        1 0.33351376E+00 0.12301071E+04</pdfrwt>
<pdfrwt beam="2">  1       -1 0.26846357E-01 0.12301071E+04</pdfrwt>
<totfact> 0.28109195E+01</totfact>
</mgrwt>
</event>
<event>
12    1  0.1489233E-007  0.3021871E+04  0.7818608E-02  0.8237513E-01
         -2   -1    0    0    0  501 -0.00000000000E+00  0.00000000000E+00  0.87180009397E+03  0.87180009397E+03  0.00000000000E+00 0.  1.
          2   -1    0    0  501    0  0.00000000000E+00 -0.00000000000E+00 -0.26186339646E+04  0.26186339646E+04  0.00000000000E+00 0. -1.
         23    2    1    2    0    0 -0.13285753422E+04 -0.85891295817E+02 -0.11907918474E+04  0.17885715721E+04  0.92267492400E+02 0.  0.
        254    2    1    2    0    0  0.13285753422E+04  0.85891295817E+02 -0.55604202320E+03  0.17018624865E+04  0.90258707984E+03 0.  0.
        -24    2    4    4    0    0 -0.80293601407E+02 -0.94358272161E+02 -0.17600428335E+03  0.22939229846E+03  0.79326999721E+02 0.  0.
         24    2    4    4    0    0  0.14088689436E+04  0.18024956798E+03 -0.38003773985E+03  0.14724701880E+04  0.79612586036E+02 0.  0.
         13    1    3    3    0    0 -0.11910574059E+04 -0.74139559424E+02 -0.11027636166E+04  0.16248698448E+04  0.00000000000E+00 0. -1.
        -13    1    3    3    0    0 -0.13751793624E+03 -0.11751736393E+02 -0.88028230788E+02  0.16370172728E+03  0.00000000000E+00 0.  1.
          2    1    6    6  502    0  0.12006162934E+04  0.17969479876E+03 -0.31295087561E+03  0.12536777717E+04  0.00000000000E+00 0. -1.
          3    1    5    5  503    0 -0.87005552846E+02 -0.74344356463E+02 -0.10498651341E+03  0.15530363023E+03  0.00000000000E+00 0. -1.
         -4    1    5    5    0  503  0.67119514385E+01 -0.20013915698E+02 -0.71017769941E+02  0.74088668237E+02  0.00000000000E+00 0.  1.
         -3    1    6    6    0  502  0.20825265019E+03  0.55476922030E+00 -0.67086864246E+02  0.21879241631E+03  0.00000000000E+00 0.  1.
<mgrwt>
<rscale>  0 0.30218705E+04</rscale>
<asrwt>0</asrwt>
<pdfrwt beam="1">  1        2 0.40286676E+00 0.30218705E+04</pdfrwt>
<pdfrwt beam="2">  1       -2 0.13412309E+00 0.30218705E+04</pdfrwt>
<totfact> 0.10168026E+00</totfact>
</mgrwt>
</event>
<event>
12    1  0.1489233E-007  0.1848981E+04  0.7818608E-02  0.8680677E-01
         -1   -1    0    0    0  501 -0.00000000000E+00  0.00000000000E+00  0.50882588786E+03  0.50882588786E+03  0.00000000000E+00 0.  1.
          1   -1    0    0  501    0  0.00000000000E+00 -0.00000000000E+00 -0.16797147878E+04  0.16797147878E+04  0.00000000000E+00 0. -1.
         23    2    1    2    0    0  0.13911274703E+03 -0.61667133981E+03 -0.80060874777E+02  0.64365452597E+03  0.90804776302E+02 0.  0.
        254    2    1    2    0    0 -0.13911274703E+03  0.61667133981E+03 -0.10908280252E+04  0.15448861497E+04  0.89282223165E+03 0.  0.
        -24    2    4    4    0    0  0.22199307909E+02  0.79644924365E+03 -0.98566373933E+03  0.12698667655E+04  0.78767938014E+02 0.  0.
         24    2    4    4    0    0 -0.16131205494E+03 -0.17977790384E+03 -0.10516428587E+03  0.27501938425E+03  0.78958602510E+02 0.  0.
         13    1    3    3    0    0  0.96797233069E+02 -0.55620933155E+03 -0.76960143127E+02  0.56979065319E+03  0.00000000000E+00 0. -1.
        -13    1    3    3    0    0  0.42315513966E+02 -0.60462008260E+02 -0.31007316499E+01  0.73863872778E+02  0.00000000000E+00 0.  1.
          4    1    6    6  502    0 -0.27618032292E+01 -0.31206099877E+02 -0.34344921274E+02  0.46486792145E+02  0.00000000000E+00 0. -1.
          3    1    5    5  503    0  0.36555869109E+02  0.29164438957E+03 -0.32320328435E+03  0.43686742216E+03  0.00000000000E+00 0. -1.
         -4    1    5    5    0  503 -0.14356561200E+02  0.50480485408E+03 -0.66246045498E+03  0.83299934332E+03  0.00000000000E+00 0.  1.
         -3    1    6    6    0  502 -0.15855025171E+03 -0.14857180396E+03 -0.70819364595E+02  0.22853259210E+03  0.00000000000E+00 0.  1.
<mgrwt>
<rscale>  0 0.18489807E+04</rscale>
<asrwt>0</asrwt>
<pdfrwt beam="1">  1        1 0.25841766E+00 0.18489807E+04</pdfrwt>
<pdfrwt beam="2">  1       -1 0.78280905E-01 0.18489807E+04</pdfrwt>
<totfact> 0.75528406E+00</totfact>
</mgrwt>
</event>
<event>
12    1  0.1489233E-007  0.1780083E+04  0.7818608E-02  0.8716963E-01
          1   -1    0    0  501    0  0.00000000000E+00  0.00000000000E+00  0.58894187311E+03  0.58894187311E+03  0.00000000000E+00 0. -1.
         -1   -1    0    0    0  501 -0.00000000000E+00 -0.00000000000E+00 -0.13450800402E+04  0.13450800402E+04  0.00000000000E+00 0.  1.
         23    2    1    2    0    0 -0.18643444405E+03  0.59093994897E+03 -0.51792158764E+03  0.80948865050E+03  0.55328827319E+02 0.  0.
        254    2    1    2    0    0  0.18643444405E+03 -0.59093994897E+03 -0.23821657948E+03  0.11245332628E+04  0.90766739242E+03 0.  0.
        -24    2    4    4    0    0 -0.32279115055E+03 -0.11676143251E+03  0.71459207304E+02  0.35878037713E+03  0.76089300874E+02 0.  0.
         24    2    4    4    0    0  0.50922559460E+03 -0.47417851646E+03 -0.30967578679E+03  0.76575288571E+03  0.79513630104E+02 0.  0.
         13    1    3    3    0    0 -0.65578378184E+02  0.29614550881E+03 -0.24257584336E+03  0.38838862735E+03  0.00000000000E+00 0. -1.
        -13    1    3    3    0    0 -0.12085606586E+03  0.29479444016E+03 -0.27534574428E+03  0.42110002315E+03  0.00000000000E+00 0.  1.
          2    1    6    6  502    0  0.17446121215E+03 -0.12756420060E+03 -0.12519822823E+03  0.24976776447E+03  0.00000000000E+00 0. -1.
          3    1    5    5  503    0 -0.10450919379E+03 -0.19265845809E+01  0.29316897910E+02  0.10856041552E+03  0.00000000000E+00 0. -1.
         -4    1    5    5    0  503 -0.21828195676E+03 -0.11483484793E+03  0.42142309395E+02  0.25021996161E+03  0.00000000000E+00 0.  1.
         -1    1    6    6    0  502  0.33476438245E+03 -0.34661431587E+03 -0.18447755856E+03  0.51598512123E+03  0.00000000000E+00 0.  1.
<mgrwt>
<rscale>  0 0.17800831E+04</rscale>
<asrwt>0</asrwt>
<pdfrwt beam="1">  1        1 0.90606442E-01 0.17800831E+04</pdfrwt>
<pdfrwt beam="2">  1       -1 0.20693539E+00 0.17800831E+04</pdfrwt>
<totfact> 0.44845407E+00</totfact>
</mgrwt>
</event>
<event>
12    1  0.1489233E-007  0.2243485E+04  0.7818608E-02  0.8500544E-01
          2   -1    0    0  501    0  0.00000000000E+00  0.00000000000E+00  0.45256650104E+04  0.45256650104E+04  0.00000000000E+00 0. -1.
         -2   -1    0    0    0  501 -0.00000000000E+00 -0.00000000000E+00 -0.27803775534E+03  0.27803775534E+03  0.00000000000E+00 0.  1.
         23    2    1    2    0    0  0.16812510207E+03 -0.90531918168E+03  0.14210913725E+04  0.16957397108E+04  0.90352681574E+02 0.  0.
        254    2    1    2    0    0 -0.16812510207E+03  0.90531918168E+03  0.28265358826E+04  0.31079630550E+04  0.90678574367E+03 0.  0.
        -24    2    4    4    0    0  0.23822668594E+03 -0.63868697558E+01  0.31133725133E+03  0.40076104811E+03  0.82980646051E+02 0.  0.
         24    2    4    4    0    0 -0.40635178801E+03  0.91170605143E+03  0.25151986313E+04  0.27072020069E+04  0.79930291493E+02 0.  0.
         13    1    3    3    0    0 -0.52282770328E+01 -0.13060780161E+02  0.10071353837E+02  0.17301763703E+02  0.00000000000E+00 0. -1.
        -13    1    3    3    0    0  0.17335337910E+03 -0.89225840152E+03  0.14110200187E+04  0.16784379471E+04  0.00000000000E+00 0.  1.
          2    1    6    6  502    0 -0.15206960315E+03  0.32298453012E+03  0.10032937601E+04  0.10649143346E+04  0.00000000000E+00 0. -1.
          3    1    5    5  503    0  0.24311528125E+03 -0.79640543731E+00  0.30856666620E+03  0.39283464934E+03  0.00000000000E+00 0. -1.
         -4    1    5    5    0  503 -0.48885953108E+01 -0.55904643185E+01  0.27705851321E+01  0.79263987651E+01  0.00000000000E+00 0.  1.
         -1    1    6    6    0  502 -0.25428218486E+03  0.58872152131E+03  0.15119048711E+04  0.16422876723E+04  0.00000000000E+00 0.  1.
<mgrwt>
<rscale>  0 0.22434846E+04</rscale>
<asrwt>0</asrwt>
<pdfrwt beam="1">  1        2 0.69625610E+00 0.22434846E+04</pdfrwt>
<pdfrwt beam="2">  1       -2 0.42775042E-01 0.22434846E+04</pdfrwt>
<totfact> 0.55399188E-01</totfact>
</mgrwt>
</event>
<event>
12    1  0.1489233E-007  0.2138596E+04  0.7818608E-02  0.8544429E-01
          1   -1    0    0  501    0  0.00000000000E+00  0.00000000000E+00  0.11469224312E+04  0.11469224312E+04  0.00000000000E+00 0. -1.
         -1   -1    0    0    0  501 -0.00000000000E+00 -0.00000000000E+00 -0.99692762097E+03  0.99692762097E+03  0.00000000000E+00 0.  1.
         23    2    1    2    0    0 -0.70219917123E+03  0.27895889262E+03  0.55239622880E+03  0.94032032700E+03  0.90327094109E+02 0.  0.
        254    2    1    2    0    0  0.70219917123E+03 -0.27895889262E+03 -0.40240141859E+03  0.12035297252E+04  0.84596404050E+03 0.  0.
        -24    2    4    4    0    0  0.39962752557E+03 -0.26779429393E+03  0.19814318022E+03  0.52634691664E+03  0.79777275841E+02 0.  0.
         24    2    4    4    0    0  0.30257164566E+03 -0.11164598691E+02 -0.60054459881E+03  0.67718280852E+03  0.79047403272E+02 0.  0.
         11    1    3    3    0    0 -0.15678960160E+03  0.51023052826E+02  0.78124239099E+02  0.18245472815E+03  0.00000000000E+00 0.  1.
        -11    1    3    3    0    0 -0.54540956963E+03  0.22793583979E+03  0.47427198970E+03  0.75786559885E+03  0.00000000000E+00 0. -1.
          2    1    6    6  502    0  0.25768041315E+02  0.11796176169E+02 -0.23672684863E+02  0.36926111819E+02  0.00000000000E+00 0. -1.
          3    1    5    5  503    0  0.65434420546E+02 -0.33650941654E+02  0.61883288101E+02  0.96143593716E+02  0.00000000000E+00 0. -1.
         -4    1    5    5    0  503  0.33419310502E+03 -0.23414335227E+03  0.13625989212E+03  0.43020332293E+03  0.00000000000E+00 0.  1.
         -1    1    6    6    0  502  0.27680360434E+03 -0.22960774860E+02 -0.57687191395E+03  0.64025669670E+03  0.00000000000E+00 0.  1.
<mgrwt>
<rscale>  0 0.21385964E+04</rscale>
<asrwt>0</asrwt>
<pdfrwt beam="1">  1        1 0.17644960E+00 0.21385964E+04</pdfrwt>
<pdfrwt beam="2">  1       -1 0.15337348E+00 0.21385964E+04</pdfrwt>
<totfact> 0.35209518E+00</totfact>
</mgrwt>
</event>
<event>
12    1  0.1489233E-007  0.1516845E+04  0.7818608E-02  0.8873328E-01
          1   -1    0    0  501    0  0.00000000000E+00  0.00000000000E+00  0.86026773130E+03  0.86026773130E+03  0.00000000000E+00 0. -1.
         -1   -1    0    0    0  501 -0.00000000000E+00 -0.00000000000E+00 -0.66863408126E+03  0.66863408126E+03  0.00000000000E+00 0.  1.
         23    2    1    2    0    0  0.30711213976E+03 -0.29004255557E+03 -0.17687023029E+03  0.46630101754E+03  0.87812357662E+02 0.  0.
        254    2    1    2    0    0 -0.30711213976E+03  0.29004255557E+03  0.36850388034E+03  0.10626007950E+04  0.90270858493E+03 0.  0.
        -24    2    4    4    0    0  0.18046722935E+03 -0.57546320955E+02 -0.15998654482E+03  0.25992611513E+03  0.78012120055E+02 0.  0.
         24    2    4    4    0    0 -0.48757936912E+03  0.34758887653E+03  0.52849042516E+03  0.80267467989E+03  0.80205012153E+02 0.  0.
         13    1    3    3    0    0  0.24085348291E+03 -0.24603415483E+03 -0.17617285306E+03  0.38675583994E+03  0.00000000000E+00 0.  1.
        -13    1    3    3    0    0  0.66258656854E+02 -0.44008400740E+02 -0.69737723716E+00  0.79545177596E+02  0.00000000000E+00 0. -1.
          4    1    6    6  502    0 -0.46189167177E+03  0.34446317414E+03  0.49043139762E+03  0.75665167056E+03  0.00000000000E+00 0. -1.
          3    1    5    5  503    0  0.14169839348E+03 -0.18429997094E+02 -0.14332771258E+03  0.20238807450E+03  0.00000000000E+00 0. -1.
         -4    1    5    5    0  503  0.38768835870E+02 -0.39116323861E+02 -0.16658832244E+02  0.57538040624E+02  0.00000000000E+00 0.  1.
         -1    1    6    6    0  502 -0.25687697352E+02  0.31257023860E+01  0.38059027539E+02  0.46023009331E+02  0.00000000000E+00 0.  1.
<mgrwt>
<rscale>  0 0.15168445E+04</rscale>
<asrwt>0</asrwt>
<pdfrwt beam="1">  1        1 0.13234888E+00 0.15168445E+04</pdfrwt>
<pdfrwt beam="2">  1       -1 0.10286678E+00 0.15168445E+04</pdfrwt>
<totfact> 0.16941775E+01</totfact>
</mgrwt>
</event>
<event>
12    1  0.1489233E-007  0.1375684E+04  0.7818608E-02  0.8971610E-01
         -1   -1    0    0    0  501 -0.00000000000E+00  0.00000000000E+00  0.31270376259E+03  0.31270376259E+03  0.00000000000E+00 0.  1.
          1   -1    0    0  501    0  0.00000000000E+00 -0.00000000000E+00 -0.15130187359E+04  0.15130187359E+04  0.00000000000E+00 0. -1.
         23    2    1    2    0    0  0.19309984011E+03 -0.97159342571E+02 -0.76273453084E+03  0.79813154933E+03  0.92317492434E+02 0.  0.
        254    2    1    2    0    0 -0.19309984011E+03  0.97159342571E+02 -0.43758044245E+03  0.10275909491E+04  0.90428923970E+03 0.  0.
        -24    2    4    4    0    0 -0.12549418540E+02  0.37335546015E+03 -0.55023682942E+03  0.66978984512E+03  0.79410834540E+02 0.  0.
         24    2    4    4    0    0 -0.18055042157E+03 -0.27619611757E+03  0.11265638697E+03  0.35780110402E+03  0.80295818190E+02 0.  0.
         11    1    3    3    0    0  0.16432618284E+03 -0.11305033511E+03 -0.69126356604E+03  0.71946423842E+03  0.00000000000E+00 0. -1.
        -11    1    3    3    0    0  0.28773657266E+02  0.15890992544E+02 -0.71470964800E+02  0.78667310911E+02  0.00000000000E+00 0.  1.
          2    1    6    6  502    0 -0.14570412679E+02 -0.58621448395E+00 -0.47223960411E+01  0.15327804716E+02  0.00000000000E+00 0. -1.
          3    1    5    5  503    0  0.11178326780E+02  0.21463524996E+03 -0.25275835782E+03  0.33178311133E+03  0.00000000000E+00 0. -1.
         -2    1    5    5    0  503 -0.23727745320E+02  0.15872021019E+03 -0.29747847160E+03  0.33800673379E+03  0.00000000000E+00 0.  1.
         -1    1    6    6    0  502 -0.16598000889E+03 -0.27560990309E+03  0.11737878302E+03  0.34247329930E+03  0.00000000000E+00 0.  1.
<mgrwt>
<rscale>  0 0.13756841E+04</rscale>
<asrwt>0</asrwt>
<pdfrwt beam="1">  1        1 0.23277211E+00 0.13756841E+04</pdfrwt>
<pdfrwt beam="2">  1       -1 0.48108271E-01 0.13756841E+04</pdfrwt>
<totfact> 0.27031085E+01</totfact>
</mgrwt>
</event>
<event>
12    1  0.1489233E-007  0.2459858E+04  0.7818608E-02  0.8417427E-01
          2   -1    0    0  501    0  0.00000000000E+00  0.00000000000E+00  0.15077560236E+04  0.15077560236E+04  0.00000000000E+00 0. -1.
         -2   -1    0    0    0  501 -0.00000000000E+00 -0.00000000000E+00 -0.10032960466E+04  0.10032960466E+04  0.00000000000E+00 0.  1.
         23    2    1    2    0    0 -0.14632664610E+03  0.19737283112E+03  0.12788775336E+04  0.13051304861E+04  0.86431002000E+02 0.  0.
        254    2    1    2    0    0  0.14632664610E+03 -0.19737283112E+03 -0.77441755647E+03  0.12059215841E+04  0.89115475277E+03 0.  0.
        -24    2    4    4    0    0  0.42778005759E+03 -0.12559149561E+03 -0.95230748201E+02  0.46292525494E+03  0.80385911789E+02 0.  0.
         24    2    4    4    0    0 -0.28145341149E+03 -0.71781335505E+02 -0.67918680827E+03  0.74299632915E+03  0.79876414813E+02 0.  0.
         13    1    3    3    0    0 -0.83385492881E+02  0.14755650034E+03  0.10233935537E+04  0.10373333249E+04  0.00000000000E+00 0. -1.
        -13    1    3    3    0    0 -0.62941153217E+02  0.49816330775E+02  0.25548397981E+03  0.26779716115E+03  0.00000000000E+00 0.  1.
          4    1    6    6  502    0 -0.10143947066E+03 -0.36961930644E+02 -0.16581877023E+03  0.19786868142E+03  0.00000000000E+00 0. -1.
          3    1    5    5  503    0  0.87961844562E+02 -0.45699435244E+02  0.64506446604E+01  0.99334461779E+02  0.00000000000E+00 0. -1.
         -4    1    5    5    0  503  0.33981821303E+03 -0.79892060368E+02 -0.10168139286E+03  0.36359079316E+03  0.00000000000E+00 0.  1.
         -3    1    6    6    0  502 -0.18001394083E+03 -0.34819404861E+02 -0.51336803803E+03  0.54512764773E+03  0.00000000000E+00 0.  1.
<mgrwt>
<rscale>  0 0.24598583E+04</rscale>
<asrwt>0</asrwt>
<pdfrwt beam="1">  1        2 0.23196247E+00 0.24598583E+04</pdfrwt>
<pdfrwt beam="2">  1       -2 0.15435324E+00 0.24598583E+04</pdfrwt>
<totfact> 0.31222563E+00</totfact>
</mgrwt>
</event>
<event>
12    1  0.1489233E-007  0.1610906E+04  0.7818608E-02  0.8813876E-01
         -1   -1    0    0    0  501 -0.00000000000E+00  0.00000000000E+00  0.51148482682E+03  0.51148482682E+03  0.00000000000E+00 0.  1.
          1   -1    0    0  501    0  0.00000000000E+00 -0.00000000000E+00 -0.12683756039E+04  0.12683756039E+04  0.00000000000E+00 0. -1.
         23    2    1    2    0    0 -0.31791741451E+02  0.15000186440E+03  0.31913416020E+03  0.36539771531E+03  0.90319455279E+02 0.  0.
        254    2    1    2    0    0  0.31791741451E+02 -0.15000186440E+03 -0.10760249372E+04  0.14144627154E+04  0.90518718145E+03 0.  0.
        -24    2    4    4    0    0 -0.27925706760E+03  0.41514881562E+02 -0.98685050723E+03  0.10297925891E+04  0.83011190901E+02 0.  0.
         24    2    4    4    0    0  0.31104880905E+03 -0.19151674597E+03 -0.89174430001E+02  0.38467012623E+03  0.81172664434E+02 0.  0.
         11    1    3    3    0    0 -0.58138241575E+02  0.68753625009E+02  0.19419195173E+03  0.21405053189E+03  0.00000000000E+00 0.  1.
        -11    1    3    3    0    0  0.26346500124E+02  0.81248239395E+02  0.12494220846E+03  0.15134718342E+03  0.00000000000E+00 0. -1.
          2    1    6    6  502    0  0.29620287684E+02 -0.42490937315E+02 -0.32689280299E+02  0.61248920340E+02  0.00000000000E+00 0. -1.
          1    1    5    5  503    0 -0.37745304668E+02 -0.21766588106E+02 -0.17996158020E+03  0.18516118041E+03  0.00000000000E+00 0. -1.
         -2    1    5    5    0  503 -0.24151176293E+03  0.63281469667E+02 -0.80688892703E+03  0.84463140873E+03  0.00000000000E+00 0.  1.
         -1    1    6    6    0  502  0.28142852137E+03 -0.14902580865E+03 -0.56485149702E+02  0.32342120589E+03  0.00000000000E+00 0.  1.
<mgrwt>
<rscale>  0 0.16109064E+04</rscale>
<asrwt>0</asrwt>
<pdfrwt beam="1">  1        1 0.19513471E+00 0.16109064E+04</pdfrwt>
<pdfrwt beam="2">  1       -1 0.78689974E-01 0.16109064E+04</pdfrwt>
<totfact> 0.14763687E+01</totfact>
</mgrwt>
</event>
<event>
12    1  0.1489233E-007  0.1347288E+04  0.7818608E-02  0.8992883E-01
          2   -1    0    0  501    0  0.00000000000E+00  0.00000000000E+00  0.88621727591E+03  0.88621727591E+03  0.00000000000E+00 0. -1.
         -2   -1    0    0    0  501 -0.00000000000E+00 -0.00000000000E+00 -0.51206013866E+03  0.51206013866E+03  0.00000000000E+00 0.  1.
         23    2    1    2    0    0 -0.15778890801E+03 -0.14745524775E+03 -0.19988806203E+03  0.30753570363E+03  0.89345296930E+02 0.  0.
        254    2    1    2    0    0  0.15778890801E+03  0.14745524775E+03  0.57404519928E+03  0.10907417109E+04  0.90196962233E+03 0.  0.
        -24    2    4    4    0    0 -0.46128977033E+02 -0.31931247438E+03  0.16412284124E+02  0.33126785611E+03  0.73353190814E+02 0.  0.
         24    2    4    4    0    0  0.20391788504E+03  0.46676772214E+03  0.55763291515E+03  0.75947385483E+03  0.79946593688E+02 0.  0.
         11    1    3    3    0    0 -0.16415542910E+03 -0.14968371174E+03 -0.20221040990E+03  0.30040184476E+03  0.00000000000E+00 0.  1.
        -11    1    3    3    0    0  0.63665210966E+01  0.22284639916E+01  0.23223478710E+01  0.71338588625E+01  0.00000000000E+00 0. -1.
          2    1    6    6  502    0  0.18750976360E+03  0.35407908149E+03  0.45381793783E+03  0.60537808689E+03  0.00000000000E+00 0. -1.
          3    1    5    5  503    0 -0.63494913260E+02 -0.26124823471E+03  0.15133130879E+01  0.26885783281E+03  0.00000000000E+00 0. -1.
         -4    1    5    5    0  503  0.17365936227E+02 -0.58064239677E+02  0.14898971036E+02  0.62410023299E+02  0.00000000000E+00 0.  1.
         -1    1    6    6    0  502  0.16408121444E+02  0.11268864065E+03  0.10381497732E+03  0.15409576794E+03  0.00000000000E+00 0.  1.
<mgrwt>
<rscale>  0 0.13472884E+04</rscale>
<asrwt>0</asrwt>
<pdfrwt beam="1">  1        2 0.13634112E+00 0.13472884E+04</pdfrwt>
<pdfrwt beam="2">  1       -2 0.78778483E-01 0.13472884E+04</pdfrwt>
<totfact> 0.41900034E+01</totfact>
</mgrwt>
</event>
<event>
12    1  0.1489233E-007  0.1534633E+04  0.7818608E-02  0.8861743E-01
         -2   -1    0    0    0  501 -0.00000000000E+00  0.00000000000E+00  0.18026030166E+03  0.18026030166E+03  0.00000000000E+00 0.  1.
          2   -1    0    0  501    0  0.00000000000E+00 -0.00000000000E+00 -0.32662488010E+04  0.32662488010E+04  0.00000000000E+00 0. -1.
         23    2    1    2    0    0 -0.23532787685E+03  0.11882326133E+02 -0.32912112477E+02  0.25286053359E+03  0.85643697961E+02 0.  0.
        254    2    1    2    0    0  0.23532787685E+03 -0.11882326133E+02 -0.30530763869E+04  0.31936485691E+04  0.90697042915E+03 0.  0.
        -24    2    4    4    0    0  0.53579943704E+03 -0.19302953243E+03 -0.19876261525E+04  0.20691136032E+04  0.78942660707E+02 0.  0.
         24    2    4    4    0    0 -0.30047156018E+03  0.18114720630E+03 -0.10654502344E+04  0.11245349659E+04  0.79355017093E+02 0.  0.
         13    1    3    3    0    0 -0.21285040730E+03  0.28329858757E+02 -0.49613319343E+02  0.22038456898E+03  0.00000000000E+00 0.  1.
        -13    1    3    3    0    0 -0.22477469551E+02 -0.16447532624E+02  0.16701206866E+02  0.32475964614E+02  0.00000000000E+00 0. -1.
          2    1    6    6  502    0 -0.22970061130E+02 -0.45062766812E+01 -0.43089933968E+02  0.49037461672E+02  0.00000000000E+00 0. -1.
          1    1    5    5  503    0  0.24077908537E+03 -0.64797143783E+02 -0.74990160952E+03  0.79026936026E+03  0.00000000000E+00 0. -1.
         -2    1    5    5    0  503  0.29502035167E+03 -0.12823238865E+03 -0.12377245430E+04  0.12788442429E+04  0.00000000000E+00 0.  1.
         -1    1    6    6    0  502 -0.27750149905E+03  0.18565348298E+03 -0.10223603004E+04  0.10754975042E+04  0.00000000000E+00 0.  1.
<mgrwt>
<rscale>  0 0.15346335E+04</rscale>
<asrwt>0</asrwt>
<pdfrwt beam="1">  1        2 0.50249980E+00 0.15346335E+04</pdfrwt>
<pdfrwt beam="2">  1       -2 0.27732355E-01 0.15346335E+04</pdfrwt>
<totfact> 0.13546881E+01</totfact>
</mgrwt>
</event>
<event>
12    1  0.1489233E-007  0.3734638E+04  0.7818608E-02  0.8060329E-01
         -2   -1    0    0    0  501 -0.00000000000E+00  0.00000000000E+00  0.18072163403E+04  0.18072163403E+04  0.00000000000E+00 0.  1.
          2   -1    0    0  501    0  0.00000000000E+00 -0.00000000000E+00 -0.19294204462E+04  0.19294204462E+04  0.00000000000E+00 0. -1.
         23    2    1    2    0    0  0.89353658039E+03 -0.12457197373E+04  0.70671388204E+03  0.16910085992E+04  0.99198220561E+02 0.  0.
        254    2    1    2    0    0 -0.89353658039E+03  0.12457197373E+04 -0.82891798791E+03  0.20456281873E+04  0.10711042739E+04 0.  0.
        -24    2    4    4    0    0 -0.12741605587E+02  0.87574537305E+03 -0.58689975761E+03  0.10569720172E+04  0.75141285167E+02 0.  0.
         24    2    4    4    0    0 -0.88079497481E+03  0.36997436428E+03 -0.24201823031E+03  0.98865617012E+03  0.78659907497E+02 0.  0.
         13    1    3    3    0    0  0.42110945716E+03 -0.51652092584E+03  0.27717452458E+03  0.72177057215E+03  0.00000000000E+00 0. -1.
        -13    1    3    3    0    0  0.47242712324E+03 -0.72919881149E+03  0.42953935746E+03  0.96923802704E+03  0.00000000000E+00 0.  1.
          2    1    6    6  502    0 -0.61003126205E+02  0.29414319795E+02 -0.38525050213E+02  0.77915101936E+02  0.00000000000E+00 0. -1.
          3    1    5    5  503    0 -0.27889465764E+02  0.14300290262E+03 -0.11024208045E+03  0.18270459425E+03  0.00000000000E+00 0. -1.
         -4    1    5    5    0  503  0.15147860177E+02  0.73274247044E+03 -0.47665767715E+03  0.87426742296E+03  0.00000000000E+00 0.  1.
         -1    1    6    6    0  502 -0.81979184860E+03  0.34056004448E+03 -0.20349318009E+03  0.91074106818E+03  0.00000000000E+00 0.  1.
<mgrwt>
<rscale>  0 0.37346380E+04</rscale>
<asrwt>0</asrwt>
<pdfrwt beam="1">  1        2 0.29683392E+00 0.37346380E+04</pdfrwt>
<pdfrwt beam="2">  1       -2 0.27803328E+00 0.37346380E+04</pdfrwt>
<totfact> 0.25522433E-01</totfact>
</mgrwt>
</event>
<event>
12    1  0.1489233E-007  0.1839455E+04  0.7818608E-02  0.8685595E-01
         -1   -1    0    0    0  501 -0.00000000000E+00  0.00000000000E+00  0.70327644132E+03  0.70327644132E+03  0.00000000000E+00 0.  1.
          1   -1    0    0  501    0  0.00000000000E+00 -0.00000000000E+00 -0.12027966073E+04  0.12027966073E+04  0.00000000000E+00 0. -1.
         23    2    1    2    0    0  0.38302641616E+03 -0.51456106535E+03  0.89363281630E+02  0.65426755428E+03  0.92724921319E+02 0.  0.
        254    2    1    2    0    0 -0.38302641616E+03  0.51456106535E+03 -0.58888344759E+03  0.12518054943E+04  0.89930581857E+03 0.  0.
        -24    2    4    4    0    0 -0.16755919164E+03  0.11789736008E+03 -0.73690665333E+03  0.76901064772E+03  0.79812845897E+02 0.  0.
         24    2    4    4    0    0 -0.21546722452E+03  0.39666370527E+03  0.14802320574E+03  0.48279484660E+03  0.86091663617E+02 0.  0.
         11    1    3    3    0    0  0.38344915941E+03 -0.49330784621E+03  0.95678309542E+02  0.63209194576E+03  0.00000000000E+00 0.  1.
        -11    1    3    3    0    0 -0.42274324889E+00 -0.21253219137E+02 -0.63150279119E+01  0.22175608517E+02  0.00000000000E+00 0. -1.
          2    1    6    6  502    0 -0.11876373294E+03  0.17097563853E+03  0.29858032237E+02  0.21030690745E+03  0.00000000000E+00 0. -1.
          3    1    5    5  503    0 -0.41701157798E+02  0.48429209979E+02 -0.12435324159E+03  0.13981453299E+03  0.00000000000E+00 0. -1.
         -4    1    5    5    0  503 -0.12585803384E+03  0.69468150103E+02 -0.61255341174E+03  0.62919611473E+03  0.00000000000E+00 0.  1.
         -1    1    6    6    0  502 -0.96703491584E+02  0.22568806674E+03  0.11816517350E+03  0.27248793915E+03  0.00000000000E+00 0.  1.
<mgrwt>
<rscale>  0 0.18394548E+04</rscale>
<asrwt>0</asrwt>
<pdfrwt beam="1">  1        1 0.18504563E+00 0.18394548E+04</pdfrwt>
<pdfrwt beam="2">  1       -1 0.10819638E+00 0.18394548E+04</pdfrwt>
<totfact> 0.79380298E+00</totfact>
</mgrwt>
</event>
<event>
12    1  0.1489233E-007  0.1323070E+04  0.7818608E-02  0.9011468E-01
          2   -1    0    0  501    0  0.00000000000E+00  0.00000000000E+00  0.11527575404E+04  0.11527575404E+04  0.00000000000E+00 0. -1.
         -2   -1    0    0    0  501 -0.00000000000E+00 -0.00000000000E+00 -0.37963618994E+03  0.37963618994E+03  0.00000000000E+00 0.  1.
         23    2    1    2    0    0 -0.49247414745E+02  0.13833103469E+03 -0.15538654264E+03  0.23250626854E+03  0.91396959788E+02 0.  0.
        254    2    1    2    0    0  0.49247414745E+02 -0.13833103469E+03  0.92850789308E+03  0.12998874618E+04  0.89778601168E+03 0.  0.
        -24    2    4    4    0    0 -0.41781609980E+02 -0.30874320538E+03 -0.26084945042E+02  0.32268739446E+03  0.79866516029E+02 0.  0.
         24    2    4    4    0    0  0.91029024725E+02  0.17041217069E+03  0.95459283812E+03  0.97720006733E+03  0.79661118080E+02 0.  0.
         13    1    3    3    0    0  0.25869103679E+02  0.21413600920E+02 -0.36783845750E+02  0.49807671475E+02  0.00000000000E+00 0. -1.
        -13    1    3    3    0    0 -0.75116518424E+02  0.11691743377E+03 -0.11860269689E+03  0.18269859707E+03  0.00000000000E+00 0.  1.
          2    1    6    6  502    0 -0.62157006198E+01  0.29219868201E+02  0.26227868168E+03  0.26397451107E+03  0.00000000000E+00 0. -1.
          3    1    5    5  503    0 -0.76903938584E+01  0.15407571663E+01 -0.60288531977E+01  0.98925811203E+01  0.00000000000E+00 0. -1.
         -4    1    5    5    0  503 -0.34091216121E+02 -0.31028396254E+03 -0.20056091844E+02  0.31279481333E+03  0.00000000000E+00 0.  1.
         -1    1    6    6    0  502  0.97244725345E+02  0.14119230248E+03  0.69231415645E+03  0.71322555626E+03  0.00000000000E+00 0.  1.
<mgrwt>
<rscale>  0 0.13230699E+04</rscale>
<asrwt>0</asrwt>
<pdfrwt beam="1">  1        2 0.17734731E+00 0.13230699E+04</pdfrwt>
<pdfrwt beam="2">  1       -2 0.58405568E-01 0.13230699E+04</pdfrwt>
<totfact> 0.54258195E+01</totfact>
</mgrwt>
</event>
<event>
12    1  0.1489233E-007  0.1136683E+04  0.7818608E-02  0.9170158E-01
          2   -1    0    0  501    0  0.00000000000E+00  0.00000000000E+00  0.15585855499E+04  0.15585855499E+04  0.00000000000E+00 0. -1.
         -2   -1    0    0    0  501 -0.00000000000E+00 -0.00000000000E+00 -0.20724684142E+03  0.20724684142E+03  0.00000000000E+00 0.  1.
         23    2    1    2    0    0  0.58677860914E+01  0.43312374123E+02  0.53211985359E+03  0.54237017404E+03  0.95412129397E+02 0.  0.
        254    2    1    2    0    0 -0.58677860914E+01 -0.43312374123E+02  0.81921885489E+03  0.12234622173E+04  0.90765074353E+03 0.  0.
        -24    2    4    4    0    0  0.64529770508E+01  0.26919979021E+02  0.10051725384E+04  0.10087453294E+04  0.80180929098E+02 0.  0.
         24    2    4    4    0    0 -0.12320763142E+02 -0.70232353144E+02 -0.18595368355E+03  0.21471688786E+03  0.80250762443E+02 0.  0.
         13    1    3    3    0    0 -0.40434581147E+02  0.50722390505E+01  0.29322537683E+03  0.29604358561E+03  0.00000000000E+00 0. -1.
        -13    1    3    3    0    0  0.46302367238E+02  0.38240135072E+02  0.23889447676E+03  0.24632658843E+03  0.00000000000E+00 0.  1.
          2    1    6    6  502    0 -0.44277909388E+02 -0.24767101951E+02 -0.73894485455E+02  0.89634466470E+02  0.00000000000E+00 0. -1.
          3    1    5    5  503    0  0.31240784424E+02  0.28257399116E+02  0.28027797227E+03  0.28342584384E+03  0.00000000000E+00 0. -1.
         -4    1    5    5    0  503 -0.24787807374E+02 -0.13374200950E+01  0.72489456618E+03  0.72531948558E+03  0.00000000000E+00 0.  1.
         -1    1    6    6    0  502  0.31957146245E+02 -0.45465251193E+02 -0.11205919810E+03  0.12508242139E+03  0.00000000000E+00 0.  1.
<mgrwt>
<rscale>  0 0.11366828E+04</rscale>
<asrwt>0</asrwt>
<pdfrwt beam="1">  1        2 0.23978239E+00 0.11366828E+04</pdfrwt>
<pdfrwt beam="2">  1       -2 0.31884130E-01 0.11366828E+04</pdfrwt>
<totfact> 0.10654071E+02</totfact>
</mgrwt>
</event>
<event>
12    1  0.1489233E-007  0.1372339E+04  0.7818608E-02  0.8974088E-01
         -1   -1    0    0    0  501 -0.00000000000E+00  0.00000000000E+00  0.77064643969E+03  0.77064643969E+03  0.00000000000E+00 0.  1.
          1   -1    0    0  501    0  0.00000000000E+00 -0.00000000000E+00 -0.61095314096E+03  0.61095314096E+03  0.00000000000E+00 0. -1.
         23    2    1    2    0    0  0.21859362866E+03 -0.29299339932E+03  0.13389150086E+03  0.39963250964E+03  0.90282347244E+02 0.  0.
        254    2    1    2    0    0 -0.21859362866E+03  0.29299339932E+03  0.25801797866E+02  0.98196707101E+03  0.91102430772E+03 0.  0.
        -24    2    4    4    0    0 -0.48946917402E+03 -0.63930179857E+02  0.12567950590E+03  0.51602701202E+03  0.82591759370E+02 0.  0.
         24    2    4    4    0    0  0.27087554537E+03  0.35692357918E+03 -0.99877708034E+02  0.46594005899E+03  0.79728160408E+02 0.  0.
         11    1    3    3    0    0  0.20240419913E+03 -0.27512856776E+03  0.14738741031E+03  0.37200300717E+03  0.00000000000E+00 0.  1.
        -11    1    3    3    0    0  0.16189429529E+02 -0.17864831558E+02 -0.13495909449E+02  0.27629502473E+02  0.00000000000E+00 0. -1.
          4    1    6    6  502    0  0.25467388267E+03  0.28921385603E+03 -0.80613922433E+02  0.39370299151E+03  0.00000000000E+00 0. -1.
          1    1    5    5  503    0 -0.28642149902E+03  0.23113831264E+01  0.83128692494E+02  0.29824989037E+03  0.00000000000E+00 0. -1.
         -2    1    5    5    0  503 -0.20304767501E+03 -0.66241562984E+02  0.42550813406E+02  0.21777712165E+03  0.00000000000E+00 0.  1.
         -3    1    6    6    0  502  0.16201662698E+02  0.67709723152E+02 -0.19263785600E+02  0.72237067488E+02  0.00000000000E+00 0.  1.
<mgrwt>
<rscale>  0 0.13723394E+04</rscale>
<asrwt>0</asrwt>
<pdfrwt beam="1">  1        1 0.93992791E-01 0.13723394E+04</pdfrwt>
<pdfrwt beam="2">  1       -1 0.11856099E+00 0.13723394E+04</pdfrwt>
<totfact> 0.20793798E+01</totfact>
</mgrwt>
</event>
<event>
12    1  0.1489233E-007  0.2496849E+04  0.7818608E-02  0.8404109E-01
          1   -1    0    0  501    0  0.00000000000E+00  0.00000000000E+00  0.65563480348E+03  0.65563480348E+03  0.00000000000E+00 0. -1.
         -1   -1    0    0    0  501 -0.00000000000E+00 -0.00000000000E+00 -0.23771819677E+04  0.23771819677E+04  0.00000000000E+00 0.  1.
         23    2    1    2    0    0 -0.10481164043E+04  0.88917624448E+02 -0.10580201524E+04  0.14946435784E+04  0.89991347515E+02 0.  0.
        254    2    1    2    0    0  0.10481164043E+04 -0.88917624448E+02 -0.66352701188E+03  0.15381731929E+04  0.90512669549E+03 0.  0.
        -24    2    4    4    0    0  0.19282529986E+03  0.29733072966E+03 -0.43911668402E+03  0.56989506518E+03  0.79810801698E+02 0.  0.
         24    2    4    4    0    0  0.85529110441E+03 -0.38624835411E+03 -0.22441032785E+03  0.96827812767E+03  0.80572159827E+02 0.  0.
         11    1    3    3    0    0 -0.39385061779E+03  0.18604894657E+02 -0.45531359079E+03  0.60230799197E+03  0.00000000000E+00 0.  1.
        -11    1    3    3    0    0 -0.65426578649E+03  0.70312729791E+02 -0.60270656158E+03  0.89233558638E+03  0.00000000000E+00 0. -1.
          2    1    6    6  502    0  0.42541904377E+03 -0.23076071988E+03 -0.95325021338E+02  0.49327348635E+03  0.00000000000E+00 0. -1.
          3    1    5    5  503    0  0.84916719024E+02  0.64561573552E+02 -0.13174844553E+03  0.16951902209E+03  0.00000000000E+00 0. -1.
         -4    1    5    5    0  503  0.10790858084E+03  0.23276915611E+03 -0.30736823849E+03  0.40037604310E+03  0.00000000000E+00 0.  1.
         -1    1    6    6    0  502  0.42987206065E+03 -0.15548763423E+03 -0.12908530652E+03  0.47500464133E+03  0.00000000000E+00 0.  1.
<mgrwt>
<rscale>  0 0.24968486E+04</rscale>
<asrwt>0</asrwt>
<pdfrwt beam="1">  1        1 0.10086689E+00 0.24968486E+04</pdfrwt>
<pdfrwt beam="2">  1       -1 0.36572030E+00 0.24968486E+04</pdfrwt>
<totfact> 0.32625654E-01</totfact>
</mgrwt>
</event>
<event>
12    1  0.1489233E-007  0.1558989E+04  0.7818608E-02  0.8846146E-01
          1   -1    0    0  501    0  0.00000000000E+00  0.00000000000E+00  0.64750686979E+03  0.64750686979E+03  0.00000000000E+00 0. -1.
         -1   -1    0    0    0  501 -0.00000000000E+00 -0.00000000000E+00 -0.93838638094E+03  0.93838638094E+03  0.00000000000E+00 0.  1.
         23    2    1    2    0    0 -0.15630801633E+03  0.47324562757E+03  0.47360128619E+02  0.50894049390E+03  0.91563227117E+02 0.  0.
        254    2    1    2    0    0  0.15630801633E+03 -0.47324562757E+03 -0.33823963977E+03  0.10769527568E+04  0.89276400385E+03 0.  0.
        -24    2    4    4    0    0  0.12695705513E+03  0.12118519498E+03  0.19497992616E+03  0.27376491177E+03  0.78269470293E+02 0.  0.
         24    2    4    4    0    0  0.29350961210E+02 -0.59443082255E+03 -0.53321956593E+03  0.80318784507E+03  0.81105654879E+02 0.  0.
         13    1    3    3    0    0 -0.46026950893E+02  0.10847719189E+03 -0.26483045491E+02  0.12077720425E+03  0.00000000000E+00 0.  1.
        -13    1    3    3    0    0 -0.11028106544E+03  0.36476843568E+03  0.73843174110E+02  0.38816328964E+03  0.00000000000E+00 0. -1.
          4    1    6    6  502    0  0.38771138657E+00 -0.60064484972E+01  0.28525968500E+01  0.66607096061E+01  0.00000000000E+00 0. -1.
          3    1    5    5  503    0  0.41063607529E+02  0.86457712432E+02  0.12613213296E+03  0.15833657464E+03  0.00000000000E+00 0. -1.
         -4    1    5    5    0  503  0.85893447596E+02  0.34727482551E+02  0.68847793202E+02  0.11542833713E+03  0.00000000000E+00 0.  1.
         -3    1    6    6    0  502  0.28963249823E+02 -0.58842437406E+03 -0.53607216278E+03  0.79652713547E+03  0.00000000000E+00 0.  1.
<mgrwt>
<rscale>  0 0.15589889E+04</rscale>
<asrwt>0</asrwt>
<pdfrwt beam="1">  1        1 0.99616442E-01 0.15589889E+04</pdfrwt>
<pdfrwt beam="2">  1       -1 0.14436713E+00 0.15589889E+04</pdfrwt>
<totfact> 0.11400500E+01</totfact>
</mgrwt>
</event>
<event>
12    1  0.1489233E-007  0.1422214E+04  0.7818608E-02  0.8937894E-01
          2   -1    0    0  501    0  0.00000000000E+00  0.00000000000E+00  0.15800963815E+04  0.15800963815E+04  0.00000000000E+00 0. -1.
         -2   -1    0    0    0  501 -0.00000000000E+00 -0.00000000000E+00 -0.32002663739E+03  0.32002663739E+03  0.00000000000E+00 0.  1.
         23    2    1    2    0    0 -0.41173495742E+03  0.59101542757E+02  0.49152577472E+03  0.65019581716E+03  0.90212781350E+02 0.  0.
        254    2    1    2    0    0  0.41173495742E+03 -0.59101542757E+02  0.76854396942E+03  0.12499272018E+04  0.89366632993E+03 0.  0.
        -24    2    4    4    0    0 -0.23134101747E+02  0.33516702086E+03  0.11093693174E+03  0.36489459951E+03  0.89268960990E+02 0.  0.
         24    2    4    4    0    0  0.43486905917E+03 -0.39426856361E+03  0.65760703768E+03  0.88503260225E+03  0.79226839872E+02 0.  0.
         13    1    3    3    0    0 -0.14909091724E+03  0.13094999941E+01  0.11911338967E+03  0.19083452516E+03  0.00000000000E+00 0.  1.
        -13    1    3    3    0    0 -0.26264404017E+03  0.57792042763E+02  0.37241238505E+03  0.45936129200E+03  0.00000000000E+00 0. -1.
          4    1    6    6  502    0  0.26720294671E+03 -0.20583348130E+03  0.41828492184E+03  0.53733333471E+03  0.00000000000E+00 0. -1.
          1    1    5    5  503    0 -0.43570406300E+02  0.18469796095E+03  0.94975251868E+02  0.21220748232E+03  0.00000000000E+00 0. -1.
         -2    1    5    5    0  503  0.20436304553E+02  0.15046905990E+03  0.15961679869E+02  0.15268711719E+03  0.00000000000E+00 0.  1.
         -3    1    6    6    0  502  0.16766611246E+03 -0.18843508231E+03  0.23932211584E+03  0.34769926753E+03  0.00000000000E+00 0.  1.
<mgrwt>
<rscale>  0 0.14222137E+04</rscale>
<asrwt>0</asrwt>
<pdfrwt beam="1">  1        2 0.24309175E+00 0.14222137E+04</pdfrwt>
<pdfrwt beam="2">  1       -2 0.49234868E-01 0.14222137E+04</pdfrwt>
<totfact> 0.43412161E+01</totfact>
</mgrwt>
</event>
<event>
12    1  0.1489233E-007  0.1915375E+04  0.7818608E-02  0.8647241E-01
         -3   -1    0    0    0  501 -0.00000000000E+00  0.00000000000E+00  0.24115631559E+04  0.24115631559E+04  0.00000000000E+00 0.  1.
          3   -1    0    0  501    0  0.00000000000E+00 -0.00000000000E+00 -0.38031982733E+03  0.38031982733E+03  0.00000000000E+00 0. -1.
         23    2    1    2    0    0 -0.67427787580E+03 -0.22918677612E+03  0.51031137658E+03  0.88091034643E+03  0.91695720950E+02 0.  0.
        254    2    1    2    0    0  0.67427787580E+03  0.22918677612E+03  0.15209319520E+04  0.19109726368E+04  0.91181422661E+03 0.  0.
        -24    2    4    4    0    0  0.33958428128E+03 -0.16063489200E+03  0.12833509537E+04  0.13395675348E+04  0.79564171690E+02 0.  0.
         24    2    4    4    0    0  0.33469359452E+03  0.38982166813E+03  0.23758099829E+03  0.57140510195E+03  0.77963611006E+02 0.  0.
         13    1    3    3    0    0 -0.45597152976E+03 -0.12116142387E+03  0.37197641619E+03  0.60079662181E+03  0.00000000000E+00 0.  1.
        -13    1    3    3    0    0 -0.21830634604E+03 -0.10802535226E+03  0.13833496039E+03  0.28011372462E+03  0.00000000000E+00 0. -1.
          4    1    6    6  502    0  0.61589687863E+01  0.35940602126E+02  0.11568914651E+02  0.38255712827E+02  0.00000000000E+00 0. -1.
          3    1    5    5  503    0  0.49296144673E+02  0.23364755090E+01  0.12708331746E+03  0.13632952202E+03  0.00000000000E+00 0. -1.
         -2    1    5    5    0  503  0.29028813661E+03 -0.16297136751E+03  0.11562676362E+04  0.12032380128E+04  0.00000000000E+00 0.  1.
         -3    1    6    6    0  502  0.32853462573E+03  0.35388106600E+03  0.22601208363E+03  0.53314938913E+03  0.00000000000E+00 0.  1.
<mgrwt>
<rscale>  0 0.19153749E+04</rscale>
<asrwt>0</asrwt>
<pdfrwt beam="1">  1        3 0.58510744E-01 0.19153749E+04</pdfrwt>
<pdfrwt beam="2">  1       -3 0.37100971E+00 0.19153749E+04</pdfrwt>
<totfact> 0.10752408E-01</totfact>
</mgrwt>
</event>
<event>
12    1  0.1489233E-007  0.2440977E+04  0.7818608E-02  0.8424320E-01
         -1   -1    0    0    0  501 -0.00000000000E+00  0.00000000000E+00  0.12817489200E+04  0.12817489200E+04  0.00000000000E+00 0.  1.
          1   -1    0    0  501    0  0.00000000000E+00 -0.00000000000E+00 -0.11621556073E+04  0.11621556073E+04  0.00000000000E+00 0. -1.
         23    2    1    2    0    0  0.65990123201E+03 -0.78550229313E+03  0.25994748215E+03  0.10622632530E+04  0.91362118748E+02 0.  0.
        254    2    1    2    0    0 -0.65990123201E+03  0.78550229313E+03 -0.14035416950E+03  0.13816412743E+04  0.91474030705E+03 0.  0.
        -24    2    4    4    0    0 -0.25964313926E+03  0.15664926897E+03 -0.46768946308E+03  0.56361846880E+03  0.83539160066E+02 0.  0.
         24    2    4    4    0    0 -0.40025809275E+03  0.62885302416E+03  0.32733529359E+03  0.81802280546E+03  0.79688449765E+02 0.  0.
         11    1    3    3    0    0  0.24146548585E+02 -0.63583486574E+02  0.17460438651E+02  0.70219530697E+02  0.00000000000E+00 0. -1.
        -11    1    3    3    0    0  0.63575468342E+03 -0.72191880656E+03  0.24248704350E+03  0.99204372233E+03  0.00000000000E+00 0.  1.
          4    1    6    6  502    0 -0.31689068604E+03  0.44459236799E+03  0.21586104544E+03  0.58709289853E+03  0.00000000000E+00 0. -1.
          1    1    5    5  503    0 -0.25152893412E+03  0.15077986388E+03 -0.46938137099E+03  0.55346205243E+03  0.00000000000E+00 0. -1.
         -2    1    5    5    0  503 -0.81142051365E+01  0.58694050908E+01  0.16919079064E+01  0.10156416370E+02  0.00000000000E+00 0.  1.
         -3    1    6    6    0  502 -0.83367406709E+02  0.18426065617E+03  0.11147424815E+03  0.23092990693E+03  0.00000000000E+00 0.  1.
<mgrwt>
<rscale>  0 0.24409766E+04</rscale>
<asrwt>0</asrwt>
<pdfrwt beam="1">  1        1 0.17879317E+00 0.24409766E+04</pdfrwt>
<pdfrwt beam="2">  1       -1 0.19719214E+00 0.24409766E+04</pdfrwt>
<totfact> 0.16013286E+00</totfact>
</mgrwt>
</event>
<event>
12    1  0.1489233E-007  0.1891959E+04  0.7818608E-02  0.8658870E-01
          2   -1    0    0  501    0  0.00000000000E+00  0.00000000000E+00  0.15761552619E+04  0.15761552619E+04  0.00000000000E+00 0. -1.
         -2   -1    0    0    0  501 -0.00000000000E+00 -0.00000000000E+00 -0.56775926751E+03  0.56775926751E+03  0.00000000000E+00 0.  1.
         23    2    1    2    0    0 -0.75998381127E+02  0.71865218876E+03  0.55836366958E+03  0.91762114228E+03  0.89564786118E+02 0.  0.
        254    2    1    2    0    0  0.75998381127E+02 -0.71865218876E+03  0.45003232476E+03  0.12262933871E+04  0.88262656628E+03 0.  0.
        -24    2    4    4    0    0  0.28500852382E+03  0.67400938074E+02  0.22692864233E+03  0.37920407649E+03  0.80786000086E+02 0.  0.
         24    2    4    4    0    0 -0.20901014270E+03 -0.78605312684E+03  0.22310368244E+03  0.84708931059E+03  0.78868809035E+02 0.  0.
         13    1    3    3    0    0 -0.58854750044E+02  0.26326060796E+03  0.16988226854E+03  0.31879462742E+03  0.00000000000E+00 0.  1.
        -13    1    3    3    0    0 -0.17143631083E+02  0.45539158080E+03  0.38848140104E+03  0.59882651486E+03  0.00000000000E+00 0. -1.
          4    1    6    6  502    0 -0.61959218984E+02 -0.32556045523E+03  0.59156602121E+02  0.33664233008E+03  0.00000000000E+00 0. -1.
          3    1    5    5  503    0  0.21785031294E+03  0.57596414469E+02  0.21268288649E+03  0.30985499191E+03  0.00000000000E+00 0. -1.
         -4    1    5    5    0  503  0.67158210880E+02  0.98045236051E+01  0.14245755842E+02  0.69349084573E+02  0.00000000000E+00 0.  1.
         -3    1    6    6    0  502 -0.14705092371E+03 -0.46049267161E+03  0.16394708032E+03  0.51044698051E+03  0.00000000000E+00 0.  1.
<mgrwt>
<rscale>  0 0.18919585E+04</rscale>
<asrwt>0</asrwt>
<pdfrwt beam="1">  1        2 0.24248542E+00 0.18919585E+04</pdfrwt>
<pdfrwt beam="2">  1       -2 0.87347580E-01 0.18919585E+04</pdfrwt>
<totfact> 0.12202090E+01</totfact>
</mgrwt>
</event>
<event>
12    1  0.1489233E-007  0.1433836E+04  0.7818608E-02  0.8929684E-01
         -2   -1    0    0    0  501 -0.00000000000E+00  0.00000000000E+00  0.23557174254E+03  0.23557174254E+03  0.00000000000E+00 0. -1.
          2   -1    0    0  501    0  0.00000000000E+00 -0.00000000000E+00 -0.21818054009E+04  0.21818054009E+04  0.00000000000E+00 0.  1.
         23    2    1    2    0    0  0.30732410738E+03  0.18103259645E+03 -0.99193547507E+03  0.10580636106E+04  0.91332959466E+02 0.  0.
        254    2    1    2    0    0 -0.30732410738E+03 -0.18103259645E+03 -0.95429818326E+03  0.13593135328E+04  0.89990407815E+03 0.  0.
        -24    2    4    4    0    0 -0.61224036528E+03 -0.58889457153E+02 -0.52158661855E+03  0.81054767125E+03  0.81416789899E+02 0.  0.
         24    2    4    4    0    0  0.30491625789E+03 -0.12214313930E+03 -0.43271156471E+03  0.54876586153E+03  0.77535809412E+02 0.  0.
         11    1    3    3    0    0 -0.56195281908E+01  0.94612506643E+01 -0.23169497687E+02  0.25649950961E+02  0.00000000000E+00 0. -1.
        -11    1    3    3    0    0  0.31294363557E+03  0.17157134579E+03 -0.96876597738E+03  0.10324136597E+04  0.00000000000E+00 0.  1.
          4    1    6    6  502    0  0.26496761060E+03 -0.90402536436E+02 -0.39969393484E+03  0.48799149051E+03  0.00000000000E+00 0. -1.
          1    1    5    5  503    0 -0.59193149418E+03 -0.50212156340E+02 -0.51798607237E+03  0.78817112712E+03  0.00000000000E+00 0. -1.
         -2    1    5    5    0  503 -0.20308871093E+02 -0.86773008137E+01 -0.36005461802E+01  0.22376544132E+02  0.00000000000E+00 0.  1.
         -3    1    6    6    0  502  0.39948647296E+02 -0.31740602863E+02 -0.33017629869E+02  0.60774371021E+02  0.00000000000E+00 0.  1.
<mgrwt>
<rscale>  0 0.14338364E+04</rscale>
<asrwt>0</asrwt>
<pdfrwt beam="1">  1        2 0.33566237E+00 0.14338364E+04</pdfrwt>
<pdfrwt beam="2">  1       -2 0.36241807E-01 0.14338364E+04</pdfrwt>
<totfact> 0.36824207E+01</totfact>
</mgrwt>
</event>
<event>
12    1  0.1489233E-007  0.1505928E+04  0.7818608E-02  0.8880520E-01
         -1   -1    0    0    0  501 -0.00000000000E+00  0.00000000000E+00  0.11242358255E+04  0.11242358255E+04  0.00000000000E+00 0.  1.
          1   -1    0    0  501    0  0.00000000000E+00 -0.00000000000E+00 -0.50430255454E+03  0.50430255454E+03  0.00000000000E+00 0. -1.
         23    2    1    2    0    0 -0.43841592516E+03  0.25104557864E+02  0.50302171766E+01  0.44819322879E+03  0.89515948268E+02 0.  0.
        254    2    1    2    0    0  0.43841592516E+03 -0.25104557864E+02  0.61490305381E+03  0.11803451513E+04  0.90679112715E+03 0.  0.
        -24    2    4    4    0    0  0.33673485431E+03 -0.37692295035E+03  0.65658755384E+02  0.51562889829E+03  0.78107720392E+02 0.  0.
         24    2    4    4    0    0  0.10168107084E+03  0.35181839249E+03  0.54924429842E+03  0.66471625297E+03  0.77866399364E+02 0.  0.
         11    1    3    3    0    0 -0.29587061845E+03  0.35054174589E+02 -0.34508470266E+02  0.29993174647E+03  0.00000000000E+00 0. -1.
        -11    1    3    3    0    0 -0.14254530670E+03 -0.99496167248E+01  0.39538687442E+02  0.14826148232E+03  0.00000000000E+00 0.  1.
          4    1    6    6  502    0  0.38861287344E+02  0.46046991259E+02  0.11616910538E+03  0.13086552680E+03  0.00000000000E+00 0. -1.
          1    1    5    5  503    0  0.23435499922E+02 -0.52326244738E+01  0.11117435561E+02  0.26461299835E+02  0.00000000000E+00 0. -1.
         -2    1    5    5    0  503  0.31329935439E+03 -0.37169032588E+03  0.54541319823E+02  0.48916759846E+03  0.00000000000E+00 0.  1.
         -3    1    6    6    0  502  0.62819783499E+02  0.30577140123E+03  0.43307519304E+03  0.53385072617E+03  0.00000000000E+00 0.  1.
<mgrwt>
<rscale>  0 0.15059283E+04</rscale>
<asrwt>0</asrwt>
<pdfrwt beam="1">  1        1 0.77585009E-01 0.15059283E+04</pdfrwt>
<pdfrwt beam="2">  1       -1 0.17295936E+00 0.15059283E+04</pdfrwt>
<totfact> 0.99118000E+00</totfact>
</mgrwt>
</event>
<event>
12    1  0.1489233E-007  0.2664879E+04  0.7818608E-02  0.8346491E-01
         -2   -1    0    0    0  501 -0.00000000000E+00  0.00000000000E+00  0.11059108387E+04  0.11059108387E+04  0.00000000000E+00 0.  1.
          2   -1    0    0  501    0  0.00000000000E+00 -0.00000000000E+00 -0.16053694223E+04  0.16053694223E+04  0.00000000000E+00 0. -1.
         23    2    1    2    0    0  0.22262973071E+03  0.58239452352E+03  0.79698233399E+03  0.10163360917E+04  0.94925405464E+02 0.  0.
        254    2    1    2    0    0 -0.22262973071E+03 -0.58239452352E+03 -0.12964409176E+04  0.16949441694E+04  0.89628639759E+03 0.  0.
        -24    2    4    4    0    0 -0.37633086400E+03 -0.55803938733E+03 -0.13504530519E+04  0.15110739643E+04  0.81167747788E+02 0.  0.
         24    2    4    4    0    0  0.15370113329E+03 -0.24355136187E+02  0.54012134342E+02  0.18387020503E+03  0.81692904275E+02 0.  0.
         11    1    3    3    0    0 -0.36143397998E+01  0.71278336079E+02  0.10148005746E+03  0.12406396217E+03  0.00000000000E+00 0. -1.
        -11    1    3    3    0    0  0.22624407051E+03  0.51111618744E+03  0.69550227653E+03  0.89227212954E+03  0.00000000000E+00 0.  1.
          4    1    6    6  502    0 -0.93237250645E+01 -0.30710435406E+00 -0.25042955116E+01  0.96590712893E+01  0.00000000000E+00 0. -1.
          1    1    5    5  503    0 -0.29790927590E+03 -0.41353599027E+03 -0.10865377960E+04  0.12001359648E+04  0.00000000000E+00 0. -1.
         -2    1    5    5    0  503 -0.78421588106E+02 -0.14450339707E+03 -0.26391525588E+03  0.31093799950E+03  0.00000000000E+00 0.  1.
         -3    1    6    6    0  502  0.16302485835E+03 -0.24048031833E+02  0.56516429853E+02  0.17421113374E+03  0.00000000000E+00 0.  1.
<mgrwt>
<rscale>  0 0.26648793E+04</rscale>
<asrwt>0</asrwt>
<pdfrwt beam="1">  1        2 0.24697991E+00 0.26648793E+04</pdfrwt>
<pdfrwt beam="2">  1       -2 0.17014013E+00 0.26648793E+04</pdfrwt>
<totfact> 0.20723755E+00</totfact>
</mgrwt>
</event>
<event>
12    1  0.1489233E-007  0.1511783E+04  0.7818608E-02  0.8876655E-01
          2   -1    0    0  501    0  0.00000000000E+00  0.00000000000E+00  0.25165026287E+04  0.25165026287E+04  0.00000000000E+00 0. -1.
         -2   -1    0    0    0  501 -0.00000000000E+00 -0.00000000000E+00 -0.22704994462E+03  0.22704994462E+03  0.00000000000E+00 0.  1.
         23    2    1    2    0    0  0.26400473422E+03  0.82931888086E+02  0.14640105314E+04  0.14926416142E+04  0.89866316405E+02 0.  0.
        254    2    1    2    0    0 -0.26400473422E+03 -0.82931888086E+02  0.82544215274E+03  0.12509109591E+04  0.89824678256E+03 0.  0.
        -24    2    4    4    0    0 -0.13698031090E+03 -0.40396963141E+03  0.78077878466E+03  0.89358299216E+03  0.83186444917E+02 0.  0.
         24    2    4    4    0    0 -0.12702442332E+03  0.32103774333E+03  0.44663368085E+02  0.35732796697E+03  0.80548263602E+02 0.  0.
         13    1    3    3    0    0  0.21383541184E+03  0.26857636878E+02  0.11085281093E+04  0.11292836159E+04  0.00000000000E+00 0. -1.
        -13    1    3    3    0    0  0.50169322380E+02  0.56074251209E+02  0.35548242205E+03  0.36335799832E+03  0.00000000000E+00 0.  1.
          4    1    6    6  502    0 -0.71855889712E+02  0.81576289290E+02  0.10181936493E+02  0.10918622482E+03  0.00000000000E+00 0. -1.
          1    1    5    5  503    0 -0.15848809643E+02 -0.11588962838E+03  0.15574804510E+03  0.19477947604E+03  0.00000000000E+00 0. -1.
         -2    1    5    5    0  503 -0.12113150126E+03 -0.28808000303E+03  0.62503073956E+03  0.69880351612E+03  0.00000000000E+00 0.  1.
         -3    1    6    6    0  502 -0.55168533608E+02  0.23946145404E+03  0.34481431592E+02  0.24814174215E+03  0.00000000000E+00 0.  1.
<mgrwt>
<rscale>  0 0.15117828E+04</rscale>
<asrwt>0</asrwt>
<pdfrwt beam="1">  1        2 0.38715423E+00 0.15117828E+04</pdfrwt>
<pdfrwt beam="2">  1       -2 0.34930762E-01 0.15117828E+04</pdfrwt>
<totfact> 0.25349006E+01</totfact>
</mgrwt>
</event>
<event>
12    1  0.1489233E-007  0.1850318E+04  0.7818608E-02  0.8679989E-01
          2   -1    0    0  501    0  0.00000000000E+00  0.00000000000E+00  0.22084383001E+04  0.22084383001E+04  0.00000000000E+00 0. -1.
         -2   -1    0    0    0  501 -0.00000000000E+00 -0.00000000000E+00 -0.38756754191E+03  0.38756754191E+03  0.00000000000E+00 0.  1.
         23    2    1    2    0    0  0.43805213833E+03  0.39548443591E+03  0.12194418673E+04  0.13576617587E+04  0.88934628844E+02 0.  0.
        254    2    1    2    0    0 -0.43805213833E+03 -0.39548443591E+03  0.60142889088E+03  0.12383440834E+04  0.90745894843E+03 0.  0.
        -24    2    4    4    0    0  0.22371061273E+03 -0.33441134323E+03  0.18369053976E+03  0.44946841847E+03  0.80014124225E+02 0.  0.
         24    2    4    4    0    0 -0.66176275106E+03 -0.61073092688E+02  0.41773835112E+03  0.78887566490E+03  0.78483267846E+02 0.  0.
         13    1    3    3    0    0  0.15534392363E+03  0.12930089325E+03  0.51586499806E+03  0.55404616399E+03  0.00000000000E+00 0.  1.
        -13    1    3    3    0    0  0.28270821470E+03  0.26618354267E+03  0.70357686927E+03  0.80361559469E+03  0.00000000000E+00 0. -1.
          4    1    6    6  502    0 -0.47964466539E+03 -0.50616819269E+02  0.26117159346E+03  0.54848123820E+03  0.00000000000E+00 0. -1.
          1    1    5    5  503    0  0.10236584798E+03 -0.21121462845E+03  0.13048883804E+03  0.26854743149E+03  0.00000000000E+00 0. -1.
         -2    1    5    5    0  503  0.12134476475E+03 -0.12319671477E+03  0.53201701715E+02  0.18092098698E+03  0.00000000000E+00 0.  1.
         -3    1    6    6    0  502 -0.18211808567E+03 -0.10456273419E+02  0.15656675767E+03  0.24039442670E+03  0.00000000000E+00 0.  1.
<mgrwt>
<rscale>  0 0.18503178E+04</rscale>
<asrwt>0</asrwt>
<pdfrwt beam="1">  1        2 0.33975973E+00 0.18503178E+04</pdfrwt>
<pdfrwt beam="2">  1       -2 0.59625777E-01 0.18503178E+04</pdfrwt>
<totfact> 0.12606918E+01</totfact>
</mgrwt>
</event>
<event>
12    1  0.1489233E-007  0.1403827E+04  0.7818608E-02  0.8951053E-01
          2   -1    0    0  501    0  0.00000000000E+00  0.00000000000E+00  0.35607173197E+04  0.35607173197E+04  0.00000000000E+00 0. -1.
         -2   -1    0    0    0  501 -0.00000000000E+00 -0.00000000000E+00 -0.13836601959E+03  0.13836601959E+03  0.00000000000E+00 0.  1.
         23    2    1    2    0    0 -0.35358921398E+03 -0.17635013615E+03  0.13294679485E+04  0.13899403920E+04  0.91239051190E+02 0.  0.
        254    2    1    2    0    0  0.35358921398E+03  0.17635013615E+03  0.20928833516E+04  0.23091429472E+04  0.89210746260E+03 0.  0.
        -24    2    4    4    0    0  0.27142338687E+03  0.51522106806E+03  0.10081031013E+04  0.11668947896E+04  0.79045450340E+02 0.  0.
         24    2    4    4    0    0  0.82165827106E+02 -0.33887093190E+03  0.10847802503E+04  0.11422481577E+04  0.79987065659E+02 0.  0.
         11    1    3    3    0    0 -0.32736906470E+02 -0.46525962467E+02  0.24769828665E+03  0.25414722394E+03  0.00000000000E+00 0.  1.
        -11    1    3    3    0    0 -0.32085230751E+03 -0.12982417369E+03  0.10817696619E+04  0.11357931681E+04  0.00000000000E+00 0. -1.
          2    1    6    6  502    0  0.45545179164E+02 -0.24429766811E+03  0.65223754711E+03  0.69797530891E+03  0.00000000000E+00 0. -1.
          1    1    5    5  503    0  0.24845610541E+03  0.46427815227E+03  0.95065226960E+03  0.10867494544E+04  0.00000000000E+00 0. -1.
         -2    1    5    5    0  503  0.22967281462E+02  0.50942915783E+02  0.57450831688E+02  0.80145335159E+02  0.00000000000E+00 0.  1.
         -1    1    6    6    0  502  0.36620647942E+02 -0.94573263793E+02  0.43254270316E+03  0.44427284875E+03  0.00000000000E+00 0.  1.
<mgrwt>
<rscale>  0 0.14038266E+04</rscale>
<asrwt>0</asrwt>
<pdfrwt beam="1">  1        2 0.54780259E+00 0.14038266E+04</pdfrwt>
<pdfrwt beam="2">  1       -2 0.21287083E-01 0.14038266E+04</pdfrwt>
<totfact> 0.13973994E+01</totfact>
</mgrwt>
</event>
<event>
12    1  0.1489233E-007  0.3890710E+04  0.7818608E-02  0.8026964E-01
         -1   -1    0    0    0  501 -0.00000000000E+00  0.00000000000E+00  0.10002949975E+04  0.10002949975E+04  0.00000000000E+00 0.  1.
          1   -1    0    0  501    0  0.00000000000E+00 -0.00000000000E+00 -0.37832896408E+04  0.37832896408E+04  0.00000000000E+00 0. -1.
         23    2    1    2    0    0  0.12353667936E+04 -0.74611605441E+03 -0.27093951612E+04  0.30715440888E+04  0.10363719563E+03 0.  0.
        254    2    1    2    0    0 -0.12353667936E+04  0.74611605441E+03 -0.73599482089E+02  0.17120405495E+04  0.91806627100E+03 0.  0.
        -24    2    4    4    0    0 -0.78470887508E+03  0.48434825174E+03  0.39533009362E+03  0.10065176691E+04  0.80191568539E+02 0.  0.
         24    2    4    4    0    0 -0.45065791857E+03  0.26176780267E+03 -0.46892957571E+03  0.70552288044E+03  0.79073673020E+02 0.  0.
         11    1    3    3    0    0  0.11640301627E+04 -0.67473221698E+03 -0.25410229576E+04  0.28752438949E+04  0.00000000000E+00 0. -1.
        -11    1    3    3    0    0  0.71336630991E+02 -0.71383837439E+02 -0.16837220363E+03  0.19630019390E+03  0.00000000000E+00 0.  1.
          4    1    6    6  502    0 -0.41132243663E+03  0.24587306092E+03 -0.45516661484E+03  0.66092083961E+03  0.00000000000E+00 0. -1.
          3    1    5    5  503    0 -0.73714580043E+03  0.47377200543E+03  0.38263659705E+03  0.95616662231E+03  0.00000000000E+00 0. -1.
         -4    1    5    5    0  503 -0.47563074653E+02  0.10576246318E+02  0.12693496573E+02  0.50351046780E+02  0.00000000000E+00 0.  1.
         -3    1    6    6    0  502 -0.39335481935E+02  0.15894741747E+02 -0.13762960870E+02  0.44602040830E+02  0.00000000000E+00 0.  1.
<mgrwt>
<rscale>  0 0.38907098E+04</rscale>
<asrwt>0</asrwt>
<pdfrwt beam="1">  1        1 0.58204457E+00 0.38907098E+04</pdfrwt>
<pdfrwt beam="2">  1       -1 0.15389154E+00 0.38907098E+04</pdfrwt>
<totfact> 0.37737747E-02</totfact>
</mgrwt>
</event>
<event>
12    1  0.1489233E-007  0.1184658E+04  0.7818608E-02  0.9126392E-01
          1   -1    0    0  501    0  0.00000000000E+00  0.00000000000E+00  0.21451265799E+04  0.21451265799E+04  0.00000000000E+00 0. -1.
         -1   -1    0    0    0  501 -0.00000000000E+00 -0.00000000000E+00 -0.16355853702E+03  0.16355853702E+03  0.00000000000E+00 0.  1.
         23    2    1    2    0    0  0.47149219682E+02 -0.23179798792E+03  0.49832427068E+03  0.55911444643E+03  0.91260776584E+02 0.  0.
        254    2    1    2    0    0 -0.47149219682E+02  0.23179798792E+03  0.14832437722E+04  0.17495706705E+04  0.89723580354E+03 0.  0.
        -24    2    4    4    0    0 -0.18627116124E+03  0.68304577447E+02 -0.32358826403E+02  0.21675661540E+03  0.81079441689E+02 0.  0.
         24    2    4    4    0    0  0.13912194155E+03  0.16349341047E+03  0.15156025986E+04  0.15328140551E+04  0.79891681093E+02 0.  0.
         11    1    3    3    0    0  0.51347836652E+02 -0.51979634468E+02  0.16198022416E+03  0.17769658339E+03  0.00000000000E+00 0. -1.
        -11    1    3    3    0    0 -0.41986169699E+01 -0.17981835345E+03  0.33634404652E+03  0.38141786305E+03  0.00000000000E+00 0.  1.
          4    1    6    6  502    0  0.13085149952E+02  0.44155057581E+02  0.17246980074E+03  0.17851252737E+03  0.00000000000E+00 0. -1.
          1    1    5    5  503    0 -0.82243040819E+02 -0.33870479942E+01  0.11304274952E+02  0.83085356648E+02  0.00000000000E+00 0. -1.
         -2    1    5    5    0  503 -0.10402812042E+03  0.71691625441E+02 -0.43663101356E+02  0.13367125875E+03  0.00000000000E+00 0.  1.
         -3    1    6    6    0  502  0.12603679160E+03  0.11933835289E+03  0.13431327978E+04  0.13543015277E+04  0.00000000000E+00 0.  1.
<mgrwt>
<rscale>  0 0.11846582E+04</rscale>
<asrwt>0</asrwt>
<pdfrwt beam="1">  1        1 0.33001945E+00 0.11846582E+04</pdfrwt>
<pdfrwt beam="2">  1       -1 0.25162853E-01 0.11846582E+04</pdfrwt>
<totfact> 0.32690135E+01</totfact>
</mgrwt>
</event>
<event>
12    1  0.1489233E-007  0.1210872E+04  0.7818608E-02  0.9103393E-01
         -1   -1    0    0    0  501 -0.00000000000E+00  0.00000000000E+00  0.40377624432E+03  0.40377624432E+03  0.00000000000E+00 0.  1.
          1   -1    0    0  501    0  0.00000000000E+00 -0.00000000000E+00 -0.90781219762E+03  0.90781219762E+03  0.00000000000E+00 0. -1.
         23    2    1    2    0    0 -0.90816333799E+02 -0.11678430330E+03 -0.34396074697E+03  0.38762114543E+03  0.10027450795E+03 0.  0.
        254    2    1    2    0    0  0.90816333799E+02  0.11678430330E+03 -0.16007520633E+03  0.92396729650E+03  0.89788936587E+03 0.  0.
        -24    2    4    4    0    0  0.19625299467E+03  0.26332310183E+03 -0.45620700989E+03  0.56789555981E+03  0.80785129188E+02 0.  0.
         24    2    4    4    0    0 -0.10543666087E+03 -0.14653879852E+03  0.29613180356E+03  0.35607173670E+03  0.80638251868E+02 0.  0.
         13    1    3    3    0    0 -0.98087978353E+02 -0.10063745719E+03 -0.34206957344E+03  0.36981176612E+03  0.00000000000E+00 0. -1.
        -13    1    3    3    0    0  0.72716445534E+01 -0.16146846113E+02 -0.18911735248E+01  0.17809379304E+02  0.00000000000E+00 0.  1.
          4    1    6    6  502    0 -0.83493507105E+02 -0.51531035040E+02  0.12266418475E+03  0.15707678225E+03  0.00000000000E+00 0. -1.
          1    1    5    5  503    0  0.19675750397E+03  0.24934165251E+03 -0.45346598467E+03  0.55363902888E+03  0.00000000000E+00 0. -1.
         -2    1    5    5    0  503 -0.50450930268E+00  0.13981449322E+02 -0.27410252209E+01  0.14256530926E+02  0.00000000000E+00 0.  1.
         -3    1    6    6    0  502 -0.21943153765E+02 -0.95007763484E+02  0.17346761881E+03  0.19899495445E+03  0.00000000000E+00 0.  1.
<mgrwt>
<rscale>  0 0.12108724E+04</rscale>
<asrwt>0</asrwt>
<pdfrwt beam="1">  1        1 0.13966341E+00 0.12108724E+04</pdfrwt>
<pdfrwt beam="2">  1       -1 0.62119423E-01 0.12108724E+04</pdfrwt>
<totfact> 0.46613053E+01</totfact>
</mgrwt>
</event>
<event>
12    1  0.1489233E-007  0.1177965E+04  0.7818608E-02  0.9132366E-01
         -2   -1    0    0    0  501 -0.00000000000E+00  0.00000000000E+00  0.22489375220E+03  0.22489375220E+03  0.00000000000E+00 0. -1.
          2   -1    0    0  501    0  0.00000000000E+00 -0.00000000000E+00 -0.15425070185E+04  0.15425070185E+04  0.00000000000E+00 0.  1.
         23    2    1    2    0    0 -0.15772547818E+03  0.13595152795E+03 -0.13069203789E+03  0.26267805428E+03  0.92515982473E+02 0.  0.
        254    2    1    2    0    0  0.15772547818E+03 -0.13595152795E+03 -0.11869212284E+04  0.15047227164E+04  0.90113722952E+03 0.  0.
        -24    2    4    4    0    0  0.19443561079E+03 -0.45208220927E+03 -0.10220025307E+04  0.11373698758E+04  0.83291841598E+02 0.  0.
         24    2    4    4    0    0 -0.36710132610E+02  0.31613068131E+03 -0.16491869768E+03  0.36735284062E+03  0.80397084292E+02 0.  0.
         11    1    3    3    0    0 -0.21079143330E+02  0.29329375420E+02  0.12121260494E+02  0.38098129902E+02  0.00000000000E+00 0. -1.
        -11    1    3    3    0    0 -0.13664633485E+03  0.10662215253E+03 -0.14281329838E+03  0.22457992438E+03  0.00000000000E+00 0.  1.
          4    1    6    6  502    0 -0.18497626396E+02  0.11506258265E+03 -0.10472087412E+03  0.15667808266E+03  0.00000000000E+00 0. -1.
          3    1    5    5  503    0  0.19370561954E+03 -0.45080199393E+03 -0.98598552137E+03  0.11013227289E+04  0.00000000000E+00 0. -1.
         -4    1    5    5    0  503  0.72999125292E+00 -0.12802153413E+01 -0.36017009378E+02  0.36047146948E+02  0.00000000000E+00 0.  1.
         -1    1    6    6    0  502 -0.18212506214E+02  0.20106809866E+03 -0.60197823567E+02  0.21067475796E+03  0.00000000000E+00 0.  1.
<mgrwt>
<rscale>  0 0.11779647E+04</rscale>
<asrwt>0</asrwt>
<pdfrwt beam="1">  1        2 0.23730877E+00 0.11779647E+04</pdfrwt>
<pdfrwt beam="2">  1       -2 0.34599039E-01 0.11779647E+04</pdfrwt>
<totfact> 0.92907135E+01</totfact>
</mgrwt>
</event>
<event>
12    1  0.1489233E-007  0.1592454E+04  0.7818608E-02  0.8825198E-01
         -1   -1    0    0    0  501 -0.00000000000E+00  0.00000000000E+00  0.36102872301E+03  0.36102872301E+03  0.00000000000E+00 0.  1.
          1   -1    0    0  501    0  0.00000000000E+00 -0.00000000000E+00 -0.17560295692E+04  0.17560295692E+04  0.00000000000E+00 0. -1.
         23    2    1    2    0    0  0.23037217190E+03 -0.24119329065E+03 -0.10419240786E+04  0.10976633356E+04  0.89517996465E+02 0.  0.
        254    2    1    2    0    0 -0.23037217190E+03  0.24119329065E+03 -0.35307676760E+03  0.10193949566E+04  0.89624624559E+03 0.  0.
        -24    2    4    4    0    0  0.87766369969E+02 -0.12861339989E+03  0.20798515893E+03  0.27164044355E+03  0.79286580878E+02 0.  0.
         24    2    4    4    0    0 -0.31813854187E+03  0.36980669054E+03 -0.56106192653E+03  0.74775451307E+03  0.79857411821E+02 0.  0.
         13    1    3    3    0    0 -0.17931694099E-01 -0.18435548782E+02 -0.22690960396E+02  0.29236098647E+02  0.00000000000E+00 0.  1.
        -13    1    3    3    0    0  0.23039010359E+03 -0.22275774187E+03 -0.10192331182E+04  0.10684272369E+04  0.00000000000E+00 0. -1.
          2    1    6    6  502    0 -0.85455403713E+02  0.83313200741E+02 -0.19013981960E+03  0.22449246410E+03  0.00000000000E+00 0. -1.
          1    1    5    5  503    0  0.62067939820E+01 -0.35479160709E+02  0.10368391278E+03  0.10976178253E+03  0.00000000000E+00 0. -1.
         -2    1    5    5    0  503  0.81559575987E+02 -0.93134239183E+02  0.10430124616E+03  0.16187866102E+03  0.00000000000E+00 0.  1.
         -1    1    6    6    0  502 -0.23268313815E+03  0.28649348980E+03 -0.37092210694E+03  0.52326204897E+03  0.00000000000E+00 0.  1.
<mgrwt>
<rscale>  0 0.15924536E+04</rscale>
<asrwt>0</asrwt>
<pdfrwt beam="1">  1        1 0.27015840E+00 0.15924536E+04</pdfrwt>
<pdfrwt beam="2">  1       -1 0.55542880E-01 0.15924536E+04</pdfrwt>
<totfact> 0.13737051E+01</totfact>
</mgrwt>
</event>
<event>
12    1  0.1489233E-007  0.1151065E+04  0.7818608E-02  0.9156801E-01
         -2   -1    0    0    0  501 -0.00000000000E+00  0.00000000000E+00  0.42513314957E+03  0.42513314957E+03  0.00000000000E+00 0.  1.
          2   -1    0    0  501    0  0.00000000000E+00 -0.00000000000E+00 -0.77913913315E+03  0.77913913315E+03  0.00000000000E+00 0. -1.
         23    2    1    2    0    0 -0.56977659420E+02 -0.19375235292E+03 -0.65391524650E+02  0.23275840639E+03  0.95467252573E+02 0.  0.
        254    2    1    2    0    0  0.56977659420E+02  0.19375235292E+03 -0.28861445893E+03  0.97151387633E+03  0.90540293686E+03 0.  0.
        -24    2    4    4    0    0  0.30203200957E+03 -0.25772300438E+03 -0.88046575513E+02  0.41431683898E+03  0.79131294734E+02 0.  0.
         24    2    4    4    0    0 -0.24505435015E+03  0.45147535731E+03 -0.20056788341E+03  0.55719703736E+03  0.79746033110E+02 0.  0.
         11    1    3    3    0    0 -0.69094488062E+02 -0.17534339089E+03 -0.29672259908E+02  0.19078730570E+03  0.00000000000E+00 0.  1.
        -11    1    3    3    0    0  0.12116828642E+02 -0.18408962037E+02 -0.35719264742E+02  0.41971100692E+02  0.00000000000E+00 0. -1.
          4    1    6    6  502    0 -0.42759757143E+02  0.13414220759E+03 -0.80484829325E+02  0.16217378469E+03  0.00000000000E+00 0. -1.
          3    1    5    5  503    0  0.18702427424E+03 -0.12571522796E+03 -0.19123755836E+02  0.22615949180E+03  0.00000000000E+00 0. -1.
         -2    1    5    5    0  503  0.11500773533E+03 -0.13200777643E+03 -0.68922819677E+02  0.18815734717E+03  0.00000000000E+00 0.  1.
         -3    1    6    6    0  502 -0.20229459301E+03  0.31733314971E+03 -0.12008305409E+03  0.39502325267E+03  0.00000000000E+00 0.  1.
<mgrwt>
<rscale>  0 0.11510654E+04</rscale>
<asrwt>0</asrwt>
<pdfrwt beam="1">  1        2 0.11986756E+00 0.11510654E+04</pdfrwt>
<pdfrwt beam="2">  1       -2 0.65405101E-01 0.11510654E+04</pdfrwt>
<totfact> 0.76097550E+01</totfact>
</mgrwt>
</event>
<event>
12    1  0.1489233E-007  0.1317571E+04  0.7818608E-02  0.9015746E-01
         -1   -1    0    0    0  501 -0.00000000000E+00  0.00000000000E+00  0.25358579346E+03  0.25358579346E+03  0.00000000000E+00 0.  1.
          1   -1    0    0  501    0  0.00000000000E+00 -0.00000000000E+00 -0.17114453183E+04  0.17114453183E+04  0.00000000000E+00 0. -1.
         23    2    1    2    0    0  0.27002914618E+03  0.15402875684E+03 -0.61640904811E+03  0.69641136889E+03  0.91586475050E+02 0.  0.
        254    2    1    2    0    0 -0.27002914618E+03 -0.15402875684E+03 -0.84145047673E+03  0.12686197429E+04  0.89705994754E+03 0.  0.
        -24    2    4    4    0    0 -0.46903544397E+03 -0.33964199366E+03 -0.78554025058E+03  0.97912266800E+03  0.79099823948E+02 0.  0.
         24    2    4    4    0    0  0.19900629779E+03  0.18561323682E+03 -0.55910226145E+02  0.28949707486E+03  0.81405299123E+02 0.  0.
         11    1    3    3    0    0  0.17903714268E+03  0.69508251799E+02 -0.44559842681E+03  0.48522536362E+03  0.00000000000E+00 0.  1.
        -11    1    3    3    0    0  0.90992003499E+02  0.84520505040E+02 -0.17081062129E+03  0.21118600526E+03  0.00000000000E+00 0. -1.
          4    1    6    6  502    0  0.32649058372E+02  0.27800964482E+02  0.20858035740E+02  0.47685556447E+02  0.00000000000E+00 0. -1.
          3    1    5    5  503    0 -0.10373189467E+03 -0.81151774620E+02 -0.23759770831E+03  0.27165895437E+03  0.00000000000E+00 0. -1.
         -4    1    5    5    0  503 -0.36530354930E+03 -0.25849021904E+03 -0.54794254228E+03  0.70746371363E+03  0.00000000000E+00 0.  1.
         -3    1    6    6    0  502  0.16635723942E+03  0.15781227234E+03 -0.76768261884E+02  0.24181151842E+03  0.00000000000E+00 0.  1.
<mgrwt>
<rscale>  0 0.13175708E+04</rscale>
<asrwt>0</asrwt>
<pdfrwt beam="1">  1        1 0.26329929E+00 0.13175708E+04</pdfrwt>
<pdfrwt beam="2">  1       -1 0.39013197E-01 0.13175708E+04</pdfrwt>
<totfact> 0.29291012E+01</totfact>
</mgrwt>
</event>
<event>
12    1  0.1489233E-007  0.1122989E+04  0.7818608E-02  0.9183070E-01
          1   -1    0    0  501    0  0.00000000000E+00  0.00000000000E+00  0.77744038167E+03  0.77744038167E+03  0.00000000000E+00 0. -1.
         -1   -1    0    0    0  501 -0.00000000000E+00 -0.00000000000E+00 -0.40553094813E+03  0.40553094813E+03  0.00000000000E+00 0.  1.
         23    2    1    2    0    0 -0.63428759825E+02 -0.57429529044E+02 -0.93101494468E+02  0.15663661564E+03  0.92443402734E+02 0.  0.
        254    2    1    2    0    0  0.63428759825E+02  0.57429529044E+02  0.46501092800E+03  0.10263347142E+04  0.91093711306E+03 0.  0.
        -24    2    4    4    0    0  0.28275279376E+03 -0.24116322636E+03  0.52051115320E+03  0.64451730755E+03  0.79761237408E+02 0.  0.
         24    2    4    4    0    0 -0.21932403394E+03  0.29859275541E+03 -0.55500225198E+02  0.38181740661E+03  0.73780699048E+02 0.  0.
         11    1    3    3    0    0 -0.39240083096E+02 -0.72437774152E+02 -0.30466555413E+02  0.87836360604E+02  0.00000000000E+00 0. -1.
        -11    1    3    3    0    0 -0.24188676730E+02  0.15008245108E+02 -0.62634939055E+02  0.68800255040E+02  0.00000000000E+00 0.  1.
          2    1    6    6  502    0 -0.45767134338E+02  0.82722148428E+02 -0.44817118761E+02  0.10462389096E+03  0.00000000000E+00 0. -1.
          3    1    5    5  503    0  0.24670903993E+02 -0.67037345954E+01  0.72073624912E+02  0.76473531168E+02  0.00000000000E+00 0. -1.
         -4    1    5    5    0  503  0.25808188977E+03 -0.23445949177E+03  0.44843752829E+03  0.56804377638E+03  0.00000000000E+00 0.  1.
         -1    1    6    6    0  502 -0.17355689960E+03  0.21587060698E+03 -0.10683106437E+02  0.27719351565E+03  0.00000000000E+00 0.  1.
<mgrwt>
<rscale>  0 0.11229891E+04</rscale>
<asrwt>0</asrwt>
<pdfrwt beam="1">  1        1 0.11960621E+00 0.11229891E+04</pdfrwt>
<pdfrwt beam="2">  1       -1 0.62389377E-01 0.11229891E+04</pdfrwt>
<totfact> 0.60015327E+01</totfact>
</mgrwt>
</event>
<event>
12    1  0.1489233E-007  0.1433272E+04  0.7818608E-02  0.8930081E-01
          2   -1    0    0  501    0  0.00000000000E+00  0.00000000000E+00  0.20275001621E+04  0.20275001621E+04  0.00000000000E+00 0. -1.
         -2   -1    0    0    0  501 -0.00000000000E+00 -0.00000000000E+00 -0.25330061912E+03  0.25330061912E+03  0.00000000000E+00 0.  1.
         23    2    1    2    0    0  0.28228707467E+03  0.31407999507E+03  0.72663128161E+03  0.84556724087E+03  0.93052155195E+02 0.  0.
        254    2    1    2    0    0 -0.28228707467E+03 -0.31407999507E+03  0.10475682614E+04  0.14352335403E+04  0.88553024640E+03 0.  0.
        -24    2    4    4    0    0 -0.50077035508E+03 -0.33852011445E+03  0.10362411843E+04  0.12022812141E+04  0.79482762315E+02 0.  0.
         24    2    4    4    0    0  0.21848328041E+03  0.24440119380E+02  0.11327077084E+02  0.23295232619E+03  0.76198558705E+02 0.  0.
         11    1    3    3    0    0  0.24625522196E+03  0.27490420684E+03  0.56034253059E+03  0.67096774056E+03  0.00000000000E+00 0.  1.
        -11    1    3    3    0    0  0.36031852712E+02  0.39175788230E+02  0.16628875102E+03  0.17459950031E+03  0.00000000000E+00 0. -1.
          2    1    6    6  502    0  0.19638931329E+03  0.35927267767E+02  0.29916063886E+02  0.20187744258E+03  0.00000000000E+00 0. -1.
          3    1    5    5  503    0 -0.45930754282E+03 -0.31178502574E+03  0.90061348351E+03  0.10579593413E+04  0.00000000000E+00 0. -1.
         -4    1    5    5    0  503 -0.41462812258E+02 -0.26735088708E+02  0.13562770076E+03  0.14432187285E+03  0.00000000000E+00 0.  1.
         -1    1    6    6    0  502  0.22093967115E+02 -0.11487148388E+02 -0.18588986801E+02  0.31074883608E+02  0.00000000000E+00 0.  1.
<mgrwt>
<rscale>  0 0.14332718E+04</rscale>
<asrwt>0</asrwt>
<pdfrwt beam="1">  1        2 0.31192309E+00 0.14332718E+04</pdfrwt>
<pdfrwt beam="2">  1       -2 0.38969327E-01 0.14332718E+04</pdfrwt>
<totfact> 0.39002368E+01</totfact>
</mgrwt>
</event>
<event>
12    1  0.1489233E-007  0.1474090E+04  0.7818608E-02  0.8901868E-01
          2   -1    0    0  501    0  0.00000000000E+00  0.00000000000E+00  0.24779873968E+04  0.24779873968E+04  0.00000000000E+00 0. -1.
         -2   -1    0    0    0  501 -0.00000000000E+00 -0.00000000000E+00 -0.21922442491E+03  0.21922442491E+03  0.00000000000E+00 0.  1.
         23    2    1    2    0    0 -0.16105997009E+03  0.30044288354E+02 -0.69183531177E+02  0.19466195552E+03  0.79145073845E+02 0.  0.
        254    2    1    2    0    0  0.16105997009E+03 -0.30044288354E+02  0.23279465031E+04  0.25025498662E+04  0.90364702088E+03 0.  0.
        -24    2    4    4    0    0  0.16873090404E+03 -0.25647537591E+03  0.22124633252E+04  0.22351244637E+04  0.80855835815E+02 0.  0.
         24    2    4    4    0    0 -0.76709339539E+01  0.22643108755E+03  0.11548317784E+03  0.26742540251E+03  0.82765336378E+02 0.  0.
         11    1    3    3    0    0 -0.21722889969E+02  0.36186997443E+02 -0.11613751915E+02  0.43775129538E+02  0.00000000000E+00 0. -1.
        -11    1    3    3    0    0 -0.13933708012E+03 -0.61427090890E+01 -0.57569779262E+02  0.15088682599E+03  0.00000000000E+00 0.  1.
          4    1    6    6  502    0 -0.18947423299E+02  0.21886596346E+03  0.12313350477E+03  0.25183958150E+03  0.00000000000E+00 0. -1.
          1    1    5    5  503    0  0.16855300910E+03 -0.20346585025E+03  0.18086541792E+04  0.18278507623E+04  0.00000000000E+00 0. -1.
         -2    1    5    5    0  503  0.17789494132E+00 -0.53009525657E+02  0.40380914602E+03  0.40727370142E+03  0.00000000000E+00 0.  1.
         -3    1    6    6    0  502  0.11276489345E+02  0.75651240896E+01 -0.76503269319E+01  0.15585821011E+02  0.00000000000E+00 0.  1.
<mgrwt>
<rscale>  0 0.14740900E+04</rscale>
<asrwt>0</asrwt>
<pdfrwt beam="1">  1        2 0.38122881E+00 0.14740900E+04</pdfrwt>
<pdfrwt beam="2">  1       -2 0.33726836E-01 0.14740900E+04</pdfrwt>
<totfact> 0.28616564E+01</totfact>
</mgrwt>
</event>
<event>
12    1  0.1489233E-007  0.1628593E+04  0.7818608E-02  0.8803172E-01
          2   -1    0    0  501    0  0.00000000000E+00  0.00000000000E+00  0.64834068108E+03  0.64834068108E+03  0.00000000000E+00 0. -1.
         -2   -1    0    0    0  501 -0.00000000000E+00 -0.00000000000E+00 -0.10227315698E+04  0.10227315698E+04  0.00000000000E+00 0.  1.
         23    2    1    2    0    0 -0.50073673906E+03 -0.20191824094E+03  0.36501943800E+02  0.54883041999E+03  0.91510546573E+02 0.  0.
        254    2    1    2    0    0  0.50073673906E+03  0.20191824094E+03 -0.41089283255E+03  0.11222418309E+04  0.89391585139E+03 0.  0.
        -24    2    4    4    0    0  0.30236869557E+03  0.49007213214E+02  0.25438781829E+03  0.40682317326E+03  0.83446972381E+02 0.  0.
         24    2    4    4    0    0  0.19836804349E+03  0.15291102772E+03 -0.66528065084E+03  0.71541865766E+03  0.80584417004E+02 0.  0.
         13    1    3    3    0    0 -0.95982349716E+02 -0.89109448094E+01  0.27819761579E+02  0.10032923566E+03  0.00000000000E+00 0.  1.
        -13    1    3    3    0    0 -0.40475438934E+03 -0.19300729613E+03  0.86821822212E+01  0.44850118432E+03  0.00000000000E+00 0. -1.
          2    1    6    6  502    0  0.47610263504E+02  0.29927618361E+02 -0.25794776490E+03  0.26400653202E+03  0.00000000000E+00 0. -1.
          3    1    5    5  503    0  0.17588116661E+03  0.31039747978E+02  0.94171756709E+02  0.20190584559E+03  0.00000000000E+00 0. -1.
         -4    1    5    5    0  503  0.12648752895E+03  0.17967465236E+02  0.16021606159E+03  0.20491732767E+03  0.00000000000E+00 0.  1.
         -1    1    6    6    0  502  0.15075777999E+03  0.12298340936E+03 -0.40733288594E+03  0.45141212564E+03  0.00000000000E+00 0.  1.
<mgrwt>
<rscale>  0 0.16285926E+04</rscale>
<asrwt>0</asrwt>
<pdfrwt beam="1">  1        2 0.99744720E-01 0.16285926E+04</pdfrwt>
<pdfrwt beam="2">  1       -2 0.15734332E+00 0.16285926E+04</pdfrwt>
<totfact> 0.11369056E+01</totfact>
</mgrwt>
</event>
<event>
12    1  0.1489233E-007  0.1453815E+04  0.7818608E-02  0.8915760E-01
          2   -1    0    0  501    0  0.00000000000E+00  0.00000000000E+00  0.15466444787E+04  0.15466444787E+04  0.00000000000E+00 0.  1.
         -2   -1    0    0    0  501 -0.00000000000E+00 -0.00000000000E+00 -0.34163939939E+03  0.34163939939E+03  0.00000000000E+00 0. -1.
         23    2    1    2    0    0  0.32359185025E+03  0.12911990433E+03  0.72432920190E+03  0.80853531066E+03  0.87709296091E+02 0.  0.
        254    2    1    2    0    0 -0.32359185025E+03 -0.12911990433E+03  0.48067587745E+03  0.10797485675E+04  0.90190023535E+03 0.  0.
        -24    2    4    4    0    0 -0.49165538612E+03  0.19753888431E+03  0.10009828025E+03  0.54507280943E+03  0.79612011424E+02 0.  0.
         24    2    4    4    0    0  0.16806353587E+03 -0.32665878864E+03  0.38057759719E+03  0.53467575803E+03  0.78022704726E+02 0.  0.
         13    1    3    3    0    0  0.17040167684E+03  0.11453450028E+03  0.42205378044E+03  0.46934451824E+03  0.00000000000E+00 0.  1.
        -13    1    3    3    0    0  0.15319017341E+03  0.14585404045E+02  0.30227542146E+03  0.33919079242E+03  0.00000000000E+00 0. -1.
          4    1    6    6  502    0  0.13207034634E+03 -0.20846870289E+03  0.29381865318E+03  0.38370715060E+03  0.00000000000E+00 0. -1.
          1    1    5    5  503    0 -0.48733612740E+03  0.18379551361E+03  0.93261179860E+02  0.52912658179E+03  0.00000000000E+00 0. -1.
         -2    1    5    5    0  503 -0.43192587148E+01  0.13743370703E+02  0.68371003945E+01  0.15946227640E+02  0.00000000000E+00 0.  1.
         -3    1    6    6    0  502  0.35993189531E+02 -0.11819008575E+03  0.86758944015E+02  0.15096860743E+03  0.00000000000E+00 0.  1.
<mgrwt>
<rscale>  0 0.14538152E+04</rscale>
<asrwt>0</asrwt>
<pdfrwt beam="1">  1        2 0.23794530E+00 0.14538152E+04</pdfrwt>
<pdfrwt beam="2">  1       -2 0.52559909E-01 0.14538152E+04</pdfrwt>
<totfact> 0.39556795E+01</totfact>
</mgrwt>
</event>
<event>
12    1  0.1489233E-007  0.1464263E+04  0.7818608E-02  0.8908572E-01
         -1   -1    0    0    0  501 -0.00000000000E+00  0.00000000000E+00  0.70406002612E+03  0.70406002612E+03  0.00000000000E+00 0.  1.
          1   -1    0    0  501    0  0.00000000000E+00 -0.00000000000E+00 -0.76132223399E+03  0.76132223399E+03  0.00000000000E+00 0. -1.
         23    2    1    2    0    0  0.94184624587E+02 -0.57822277590E+01  0.41478704685E+03  0.43510346614E+03  0.91447002935E+02 0.  0.
        254    2    1    2    0    0 -0.94184624587E+02  0.57822277590E+01 -0.47204925472E+03  0.10302787940E+04  0.91090049772E+03 0.  0.
        -24    2    4    4    0    0  0.27529859689E+03  0.13332096320E+03  0.10061208045E+03  0.33237525210E+03  0.82381556168E+02 0.  0.
         24    2    4    4    0    0 -0.36948322147E+03 -0.12753873544E+03 -0.57266133517E+03  0.69790354187E+03  0.79651547166E+02 0.  0.
         11    1    3    3    0    0  0.91397265873E+02 -0.32492434431E+02  0.37319158287E+03  0.38559198129E+03  0.00000000000E+00 0.  1.
        -11    1    3    3    0    0  0.27873587135E+01  0.26710206672E+02  0.41595463980E+02  0.49511484857E+02  0.00000000000E+00 0. -1.
          2    1    6    6  502    0 -0.58489259721E+02 -0.50675811010E+02 -0.91278653491E+02  0.11966964489E+03  0.00000000000E+00 0. -1.
          1    1    5    5  503    0 -0.16358067351E+01  0.15865195585E+02  0.58695523341E+01  0.16995056317E+02  0.00000000000E+00 0. -1.
         -2    1    5    5    0  503  0.27693440362E+03  0.11745576762E+03  0.94742528116E+02  0.31538019578E+03  0.00000000000E+00 0.  1.
         -1    1    6    6    0  502 -0.31099396175E+03 -0.76862924435E+02 -0.48138268168E+03  0.57823389699E+03  0.00000000000E+00 0.  1.
<mgrwt>
<rscale>  0 0.14642630E+04</rscale>
<asrwt>0</asrwt>
<pdfrwt beam="1">  1        1 0.11712650E+00 0.14642630E+04</pdfrwt>
<pdfrwt beam="2">  1       -1 0.10831693E+00 0.14642630E+04</pdfrwt>
<totfact> 0.18376716E+01</totfact>
</mgrwt>
</event>
<event>
12    1  0.1489233E-007  0.1904603E+04  0.7818608E-02  0.8652569E-01
         -1   -1    0    0    0  501 -0.00000000000E+00  0.00000000000E+00  0.43248053888E+03  0.43248053888E+03  0.00000000000E+00 0.  1.
          1   -1    0    0  501    0  0.00000000000E+00 -0.00000000000E+00 -0.20969224899E+04  0.20969224899E+04  0.00000000000E+00 0. -1.
         23    2    1    2    0    0 -0.51976577171E+03  0.31473265402E+03 -0.14386301965E+03  0.63140953451E+03  0.93639366185E+02 0.  0.
        254    2    1    2    0    0  0.51976577171E+03 -0.31473265402E+03 -0.15205789314E+04  0.18979934943E+04  0.95969053184E+03 0.  0.
        -24    2    4    4    0    0  0.39998350618E+02 -0.42995828834E+03 -0.19207229236E+03  0.47825383308E+03  0.73286871958E+02 0.  0.
         24    2    4    4    0    0  0.47976742109E+03  0.11522563432E+03 -0.13285066391E+04  0.14197396612E+04  0.85305864818E+02 0.  0.
         11    1    3    3    0    0 -0.46139740095E+03  0.25915766095E+03 -0.96487006927E+02  0.53792192495E+03  0.00000000000E+00 0.  1.
        -11    1    3    3    0    0 -0.58368370754E+02  0.55574993070E+02 -0.47376012727E+02  0.93487609560E+02  0.00000000000E+00 0. -1.
          4    1    6    6  502    0  0.63632501121E+02  0.11626765058E+02 -0.10576283472E+03  0.12397602217E+03  0.00000000000E+00 0. -1.
          3    1    5    5  503    0  0.25711684403E+02 -0.22895506806E+03 -0.14191706809E+03  0.27059558037E+03  0.00000000000E+00 0. -1.
         -4    1    5    5    0  503  0.14286666215E+02 -0.20100322028E+03 -0.50155224268E+02  0.20765825270E+03  0.00000000000E+00 0.  1.
         -3    1    6    6    0  502  0.41613491997E+03  0.10359886926E+03 -0.12227438043E+04  0.12957636391E+04  0.00000000000E+00 0.  1.
<mgrwt>
<rscale>  0 0.19046030E+04</rscale>
<asrwt>0</asrwt>
<pdfrwt beam="1">  1        1 0.32260345E+00 0.19046030E+04</pdfrwt>
<pdfrwt beam="2">  1       -1 0.66535469E-01 0.19046030E+04</pdfrwt>
<totfact> 0.54821101E+00</totfact>
</mgrwt>
</event>
<event>
12    1  0.1489233E-007  0.1507400E+04  0.7818608E-02  0.8879547E-01
         -1   -1    0    0    0  501 -0.00000000000E+00  0.00000000000E+00  0.23767792263E+03  0.23767792263E+03  0.00000000000E+00 0.  1.
          1   -1    0    0  501    0  0.00000000000E+00 -0.00000000000E+00 -0.23900552586E+04  0.23900552586E+04  0.00000000000E+00 0. -1.
         23    2    1    2    0    0  0.17759168877E+03 -0.11273798588E+03 -0.14391387325E+04  0.14572826490E+04  0.91125004187E+02 0.  0.
        254    2    1    2    0    0 -0.17759168877E+03  0.11273798588E+03 -0.71323860345E+03  0.11704505322E+04  0.90387857673E+03 0.  0.
        -24    2    4    4    0    0 -0.21473343575E+03 -0.30324803260E+03 -0.51355313656E+02  0.38370039380E+03  0.80739124728E+02 0.  0.
         24    2    4    4    0    0  0.37141746981E+02  0.41598601848E+03 -0.66188328979E+03  0.78675013838E+03  0.80389141081E+02 0.  0.
         11    1    3    3    0    0  0.89896006137E+02 -0.47315135910E+01 -0.54478243251E+03  0.55216988139E+03  0.00000000000E+00 0.  1.
        -11    1    3    3    0    0  0.87695682636E+02 -0.10800647229E+03 -0.89435630001E+03  0.90511276765E+03  0.00000000000E+00 0. -1.
          2    1    6    6  502    0 -0.48279764809E+01  0.55508629199E+02 -0.14367560080E+03  0.15410125093E+03  0.00000000000E+00 0. -1.
          3    1    5    5  503    0 -0.14907995446E+03 -0.23411953770E+03 -0.47831742318E+01  0.27759623468E+03  0.00000000000E+00 0. -1.
         -4    1    5    5    0  503 -0.65653481294E+02 -0.69128494899E+02 -0.46572139424E+02  0.10610415912E+03  0.00000000000E+00 0.  1.
         -1    1    6    6    0  502  0.41969723462E+02  0.36047738928E+03 -0.51820768899E+03  0.63264888746E+03  0.00000000000E+00 0.  1.
<mgrwt>
<rscale>  0 0.15073996E+04</rscale>
<asrwt>0</asrwt>
<pdfrwt beam="1">  1        1 0.36770081E+00 0.15073996E+04</pdfrwt>
<pdfrwt beam="2">  1       -1 0.36565834E-01 0.15073996E+04</pdfrwt>
<totfact> 0.11212909E+01</totfact>
</mgrwt>
</event>
<event>
12    1  0.2021479E-007  0.2014102E+04  0.7818608E-02  0.8600056E-01
          1   -1    0    0  501    0  0.00000000000E+00  0.00000000000E+00  0.80549373845E+03  0.80549373845E+03  0.00000000000E+00 0. -1.
         -1   -1    0    0    0  501 -0.00000000000E+00 -0.00000000000E+00 -0.12590439772E+04  0.12590439772E+04  0.00000000000E+00 0.  1.
         23    2    1    2    0    0 -0.15318737596E+03 -0.72029184880E+03  0.14962838842E+03  0.75652739688E+03  0.87511873504E+02 0.  0.
        254    2    1    2    0    0  0.15318737596E+03  0.72029184880E+03 -0.60317862713E+03  0.13080103187E+04  0.89709521125E+03 0.  0.
        -24    2    4    4    0    0 -0.20445576517E+03  0.38482626654E+03  0.93716194140E+02  0.45224585902E+03  0.76486447352E+02 0.  0.
         24    2    4    4    0    0  0.35764314113E+03  0.33546558226E+03 -0.69689482127E+03  0.85576445970E+03  0.78896421284E+02 0.  0.
         11    1    3    3    0    0 -0.86302634779E+01 -0.21766403721E+01  0.35567788496E+01  0.95848780270E+01  0.00000000000E+00 0. -1.
        -11    1    3    3    0    0 -0.14455711248E+03 -0.71811520843E+03  0.14607160958E+03  0.74694251885E+03  0.00000000000E+00 0.  1.
          4    1    6    6  502    0  0.10682503878E+03  0.54501995464E+02 -0.17587797697E+03  0.21287348168E+03  0.00000000000E+00 0. -1.
          1    1    5    5  503    0 -0.12655762887E+02  0.59329318439E+02 -0.74816672859E+01  0.61123740936E+02  0.00000000000E+00 0. -1.
         -2    1    5    5    0  503 -0.19180000228E+03  0.32549694810E+03  0.10119786143E+03  0.39112211808E+03  0.00000000000E+00 0.  1.
         -3    1    6    6    0  502  0.25081810235E+03  0.28096358680E+03 -0.52101684429E+03  0.64289097801E+03  0.00000000000E+00 0.  1.
<mgrwt>
<rscale>  0 0.20141023E+04</rscale>
<asrwt>0</asrwt>
<pdfrwt beam="1">  1        1 0.12392211E+00 0.20141023E+04</pdfrwt>
<pdfrwt beam="2">  1       -1 0.19369907E+00 0.20141023E+04</pdfrwt>
<totfact> 0.33722565E+00</totfact>
</mgrwt>
</event>
<event>
12    1  0.1489233E-007  0.2108079E+04  0.7818608E-02  0.8557693E-01
          1   -1    0    0  501    0  0.00000000000E+00  0.00000000000E+00  0.21733757588E+04  0.21733757588E+04  0.00000000000E+00 0. -1.
         -1   -1    0    0    0  501 -0.00000000000E+00 -0.00000000000E+00 -0.51118588118E+03  0.51118588118E+03  0.00000000000E+00 0.  1.
         23    2    1    2    0    0  0.45014917884E+02  0.67275057846E+03  0.50452234886E+02  0.68201940630E+03  0.89360835397E+02 0.  0.
        254    2    1    2    0    0 -0.45014917884E+02 -0.67275057846E+03  0.16117376427E+04  0.20025422337E+04  0.97870193881E+03 0.  0.
        -24    2    4    4    0    0 -0.15711022443E+03  0.22164993876E+03  0.34553775182E+03  0.44632295155E+03  0.77430750803E+02 0.  0.
         24    2    4    4    0    0  0.11209530655E+03 -0.89440051723E+03  0.12661998909E+04  0.15562192821E+04  0.77708734310E+02 0.  0.
         13    1    3    3    0    0  0.16785716339E+02  0.20239560388E+03 -0.25679078983E+02  0.20470748848E+03  0.00000000000E+00 0. -1.
        -13    1    3    3    0    0  0.28229201545E+02  0.47035497459E+03  0.76131313870E+02  0.47731191782E+03  0.00000000000E+00 0.  1.
          4    1    6    6  502    0  0.29038067358E+02 -0.18266118774E+03  0.31546841780E+03  0.36568926904E+03  0.00000000000E+00 0. -1.
          1    1    5    5  503    0 -0.47977823074E+02  0.17619214057E+02  0.61201194281E+02  0.79736405690E+02  0.00000000000E+00 0. -1.
         -2    1    5    5    0  503 -0.10913240136E+03  0.20403072470E+03  0.28433655754E+03  0.36658654586E+03  0.00000000000E+00 0.  1.
         -3    1    6    6    0  502  0.83057239189E+02 -0.71173932949E+03  0.95073147311E+03  0.11905300131E+04  0.00000000000E+00 0.  1.
<mgrwt>
<rscale>  0 0.21080787E+04</rscale>
<asrwt>0</asrwt>
<pdfrwt beam="1">  1        1 0.33436550E+00 0.21080787E+04</pdfrwt>
<pdfrwt beam="2">  1       -1 0.78643983E-01 0.21080787E+04</pdfrwt>
<totfact> 0.33768740E+00</totfact>
</mgrwt>
</event>
<event>
12    1  0.1489233E-007  0.1231858E+04  0.7818608E-02  0.9085420E-01
         -2   -1    0    0    0  501 -0.00000000000E+00  0.00000000000E+00  0.22207794430E+03  0.22207794430E+03  0.00000000000E+00 0.  1.
          2   -1    0    0  501    0  0.00000000000E+00 -0.00000000000E+00 -0.17082670844E+04  0.17082670844E+04  0.00000000000E+00 0. -1.
         23    2    1    2    0    0  0.14037012634E+03  0.14571096831E+03 -0.62349970769E+03  0.66384184830E+03  0.10487447455E+03 0.  0.
        254    2    1    2    0    0 -0.14037012634E+03 -0.14571096831E+03 -0.86268943246E+03  0.12665031804E+04  0.90490982454E+03 0.  0.
        -24    2    4    4    0    0 -0.21039065184E+03 -0.25798766094E+03 -0.10013957030E+04  0.10581447595E+04  0.77814642471E+02 0.  0.
         24    2    4    4    0    0  0.70020525494E+02  0.11227669263E+03  0.13870627052E+03  0.20835842092E+03  0.81638669677E+02 0.  0.
         11    1    3    3    0    0  0.31708799629E+02 -0.13852879588E+02 -0.10614547753E+03  0.11164323825E+03  0.00000000000E+00 0. -1.
        -11    1    3    3    0    0  0.10866132671E+03  0.15956384790E+03 -0.51735423015E+03  0.55219861005E+03  0.00000000000E+00 0.  1.
          4    1    6    6  502    0  0.32556654135E+02 -0.60911453223E+00  0.51275241863E+02  0.60740902011E+02  0.00000000000E+00 0. -1.
          1    1    5    5  503    0 -0.17636317344E+03 -0.18929955736E+03 -0.84915251511E+03  0.88769267501E+03  0.00000000000E+00 0. -1.
         -2    1    5    5    0  503 -0.34027478392E+02 -0.68688103585E+02 -0.15224318788E+03  0.17045208452E+03  0.00000000000E+00 0.  1.
         -3    1    6    6    0  502  0.37463871359E+02  0.11288580716E+03  0.87431028661E+02  0.14761751891E+03  0.00000000000E+00 0.  1.
<mgrwt>
<rscale>  0 0.12318579E+04</rscale>
<asrwt>0</asrwt>
<pdfrwt beam="1">  1        2 0.26281032E+00 0.12318579E+04</pdfrwt>
<pdfrwt beam="2">  1       -2 0.34165837E-01 0.12318579E+04</pdfrwt>
<totfact> 0.76642803E+01</totfact>
</mgrwt>
</event>
<event>
12    1  0.1489233E-007  0.1879488E+04  0.7818608E-02  0.8665134E-01
          2   -1    0    0  501    0  0.00000000000E+00  0.00000000000E+00  0.18266338657E+04  0.18266338657E+04  0.00000000000E+00 0. -1.
         -2   -1    0    0    0  501 -0.00000000000E+00 -0.00000000000E+00 -0.48346788807E+03  0.48346788807E+03  0.00000000000E+00 0.  1.
         23    2    1    2    0    0  0.23019622547E+03 -0.66975688141E+02 -0.32719952851E+03  0.41615717637E+03  0.93011929147E+02 0.  0.
        254    2    1    2    0    0 -0.23019622547E+03  0.66975688141E+02  0.16703655061E+04  0.18939445774E+04  0.85990062981E+03 0.  0.
        -24    2    4    4    0    0 -0.72423868110E+02 -0.37745908638E+03  0.96348419289E+03  0.10405078603E+04  0.81450837570E+02 0.  0.
         24    2    4    4    0    0 -0.15777235736E+03  0.44443477452E+03  0.70688131325E+03  0.85343671705E+03  0.79111651749E+02 0.  0.
         13    1    3    3    0    0  0.22191371747E+03 -0.52809681748E+02 -0.25510166334E+03  0.34221545717E+03  0.00000000000E+00 0.  1.
        -13    1    3    3    0    0  0.82825080011E+01 -0.14166006394E+02 -0.72097865173E+02  0.73941719201E+02  0.00000000000E+00 0. -1.
          4    1    6    6  502    0 -0.15004548767E+03  0.43941824881E+03  0.70477825648E+03  0.84398722536E+03  0.00000000000E+00 0. -1.
          1    1    5    5  503    0 -0.17119605283E+02 -0.25252599540E+03  0.68619320285E+03  0.73138469418E+03  0.00000000000E+00 0. -1.
         -2    1    5    5    0  503 -0.55304262827E+02 -0.12493309098E+03  0.27729099004E+03  0.30912316617E+03  0.00000000000E+00 0.  1.
         -3    1    6    6    0  502 -0.77268696953E+01  0.50165257119E+01  0.21030567631E+01  0.94494916930E+01  0.00000000000E+00 0.  1.
<mgrwt>
<rscale>  0 0.18794880E+04</rscale>
<asrwt>0</asrwt>
<pdfrwt beam="1">  1        2 0.28102059E+00 0.18794880E+04</pdfrwt>
<pdfrwt beam="2">  1       -2 0.74379676E-01 0.18794880E+04</pdfrwt>
<totfact> 0.12723932E+01</totfact>
</mgrwt>
</event>
<event>
12    1  0.1489233E-007  0.1551568E+04  0.7818608E-02  0.8850866E-01
          2   -1    0    0  501    0  0.00000000000E+00  0.00000000000E+00  0.14479275038E+04  0.14479275038E+04  0.00000000000E+00 0. -1.
         -2   -1    0    0    0  501 -0.00000000000E+00 -0.00000000000E+00 -0.41565699867E+03  0.41565699867E+03  0.00000000000E+00 0.  1.
         23    2    1    2    0    0 -0.12061825533E+03 -0.43827826065E+03  0.60492592120E+03  0.76216424191E+03  0.91226992870E+02 0.  0.
        254    2    1    2    0    0  0.12061825533E+03  0.43827826065E+03  0.42734458397E+03  0.11014202606E+04  0.90767097547E+03 0.  0.
        -24    2    4    4    0    0 -0.37837313244E+03  0.11306057025E+03  0.93514302026E+02  0.41407542051E+03  0.82247244899E+02 0.  0.
         24    2    4    4    0    0  0.49899138777E+03  0.32521769040E+03  0.33383028194E+03  0.68734484007E+03  0.79002030478E+02 0.  0.
         11    1    3    3    0    0  0.24512104370E+01  0.30446387303E+00  0.23096806258E+02  0.23228508135E+02  0.00000000000E+00 0.  1.
        -11    1    3    3    0    0 -0.12306946577E+03 -0.43858272452E+03  0.58182911495E+03  0.73893573378E+03  0.00000000000E+00 0. -1.
          4    1    6    6  502    0  0.34040425998E+03  0.26271352212E+03  0.22794008835E+03  0.48667251699E+03  0.00000000000E+00 0. -1.
          1    1    5    5  503    0 -0.32717458919E+03  0.69632501362E+02  0.63236162829E+02  0.34042724531E+03  0.00000000000E+00 0. -1.
         -2    1    5    5    0  503 -0.51198543246E+02  0.43428068885E+02  0.30278139198E+02  0.73648175204E+02  0.00000000000E+00 0.  1.
         -3    1    6    6    0  502  0.15858712779E+03  0.62504168276E+02  0.10589019359E+03  0.20067232308E+03  0.00000000000E+00 0.  1.
<mgrwt>
<rscale>  0 0.15515685E+04</rscale>
<asrwt>0</asrwt>
<pdfrwt beam="1">  1        2 0.22275808E+00 0.15515685E+04</pdfrwt>
<pdfrwt beam="2">  1       -2 0.63947231E-01 0.15515685E+04</pdfrwt>
<totfact> 0.29565672E+01</totfact>
</mgrwt>
</event>
<event>
12    1  0.1489233E-007  0.2819761E+04  0.7818608E-02  0.8297160E-01
         -1   -1    0    0    0  501 -0.00000000000E+00  0.00000000000E+00  0.13276383705E+04  0.13276383705E+04  0.00000000000E+00 0.  1.
          1   -1    0    0  501    0  0.00000000000E+00 -0.00000000000E+00 -0.14972167785E+04  0.14972167785E+04  0.00000000000E+00 0. -1.
         23    2    1    2    0    0  0.16286279475E+03 -0.38979411799E+03 -0.12694686428E+04  0.13411910697E+04  0.93696883547E+02 0.  0.
        254    2    1    2    0    0 -0.16286279475E+03  0.38979411799E+03  0.10998902348E+04  0.14836640793E+04  0.90168554778E+03 0.  0.
        -24    2    4    4    0    0  0.36238546230E+02 -0.19589412324E+03  0.72449986392E+03  0.75564099930E+03  0.80034537775E+02 0.  0.
         24    2    4    4    0    0 -0.19910134098E+03  0.58568824123E+03  0.37539037090E+03  0.72802307996E+03  0.80172404810E+02 0.  0.
         11    1    3    3    0    0  0.12815854477E+03 -0.19427808124E+03 -0.63092293757E+03  0.67248222177E+03  0.00000000000E+00 0. -1.
        -11    1    3    3    0    0  0.34704249979E+02 -0.19551603675E+03 -0.63854570524E+03  0.66870884791E+03  0.00000000000E+00 0.  1.
          2    1    6    6  502    0 -0.45036273134E+02  0.65095842820E+02  0.66552898993E+02  0.10341674436E+03  0.00000000000E+00 0. -1.
          3    1    5    5  503    0  0.41230704874E+02 -0.42978083359E+02  0.25405142003E+03  0.26093909384E+03  0.00000000000E+00 0. -1.
         -4    1    5    5    0  503 -0.49921586436E+01 -0.15291603988E+03  0.47044844389E+03  0.49470190545E+03  0.00000000000E+00 0.  1.
         -1    1    6    6    0  502 -0.15406506785E+03  0.52059239841E+03  0.30883747191E+03  0.62460633560E+03  0.00000000000E+00 0.  1.
<mgrwt>
<rscale>  0 0.28197606E+04</rscale>
<asrwt>0</asrwt>
<pdfrwt beam="1">  1        1 0.23034104E+00 0.28197606E+04</pdfrwt>
<pdfrwt beam="2">  1       -1 0.20425206E+00 0.28197606E+04</pdfrwt>
<totfact> 0.79907895E-01</totfact>
</mgrwt>
</event>
<event>
12    1  0.1489233E-007  0.1554194E+04  0.7818608E-02  0.8849193E-01
          1   -1    0    0  501    0  0.00000000000E+00  0.00000000000E+00  0.10359835320E+04  0.10359835320E+04  0.00000000000E+00 0. -1.
         -1   -1    0    0    0  501 -0.00000000000E+00 -0.00000000000E+00 -0.58290491500E+03  0.58290491500E+03  0.00000000000E+00 0.  1.
         23    2    1    2    0    0 -0.21339445163E+03 -0.38997234323E+03  0.41789910264E+03  0.61678158961E+03  0.90356232866E+02 0.  0.
        254    2    1    2    0    0  0.21339445163E+03  0.38997234323E+03  0.35179514380E+02  0.10021068574E+04  0.89742126951E+03 0.  0.
        -24    2    4    4    0    0  0.21330073676E+03  0.26399762720E+03 -0.40664191156E+03  0.53563954068E+03  0.79750372024E+02 0.  0.
         24    2    4    4    0    0  0.93714869736E-01  0.12597471603E+03  0.44182142594E+03  0.46646731673E+03  0.80721417862E+02 0.  0.
         11    1    3    3    0    0 -0.19557263092E+03 -0.37373322797E+03  0.41625367867E+03  0.59261480294E+03  0.00000000000E+00 0. -1.
        -11    1    3    3    0    0 -0.17821820714E+02 -0.16239115254E+02  0.16454239732E+01  0.24166786668E+02  0.00000000000E+00 0.  1.
          4    1    6    6  502    0  0.25600521756E+02  0.92622096211E+02  0.21091531794E+03  0.23177469828E+03  0.00000000000E+00 0. -1.
          3    1    5    5  503    0  0.39132646107E+02  0.13669748240E+02 -0.70461047973E+02  0.81749527765E+02  0.00000000000E+00 0. -1.
         -4    1    5    5    0  503  0.17416809065E+03  0.25032787896E+03 -0.33618086358E+03  0.45389001292E+03  0.00000000000E+00 0.  1.
         -3    1    6    6    0  502 -0.25506806886E+02  0.33352619819E+02  0.23090610800E+03  0.23469261845E+03  0.00000000000E+00 0.  1.
<mgrwt>
<rscale>  0 0.15541942E+04</rscale>
<asrwt>0</asrwt>
<pdfrwt beam="1">  1        1 0.15938208E+00 0.15541942E+04</pdfrwt>
<pdfrwt beam="2">  1       -1 0.89677679E-01 0.15541942E+04</pdfrwt>
<totfact> 0.16640362E+01</totfact>
</mgrwt>
</event>
<event>
12    1  0.1489233E-007  0.1316448E+04  0.7818608E-02  0.9016623E-01
         -2   -1    0    0    0  501 -0.00000000000E+00  0.00000000000E+00  0.39018695252E+03  0.39018695252E+03  0.00000000000E+00 0.  1.
          2   -1    0    0  501    0  0.00000000000E+00 -0.00000000000E+00 -0.11103870889E+04  0.11103870889E+04  0.00000000000E+00 0. -1.
         23    2    1    2    0    0 -0.23053197176E+03  0.17201156435E+03 -0.40971191335E+03  0.50869930670E+03  0.90433204197E+02 0.  0.
        254    2    1    2    0    0  0.23053197176E+03 -0.17201156435E+03 -0.31048822300E+03  0.99187473468E+03  0.89703934384E+03 0.  0.
        -24    2    4    4    0    0  0.36015264225E+03 -0.42843485283E+03 -0.38590841070E+03  0.68397489385E+03  0.75033360083E+02 0.  0.
         24    2    4    4    0    0 -0.12962067048E+03  0.25642328848E+03  0.75420187704E+02  0.30789984083E+03  0.80991889602E+02 0.  0.
         13    1    3    3    0    0 -0.12004544289E+02  0.20418835274E+02 -0.88791917439E+02  0.91896912462E+02  0.00000000000E+00 0.  1.
        -13    1    3    3    0    0 -0.21852742747E+03  0.15159272908E+03 -0.32091999591E+03  0.41680239424E+03  0.00000000000E+00 0. -1.
          2    1    6    6  502    0 -0.24072531286E+02  0.75169427489E+02  0.56973457706E+02  0.97344257532E+02  0.00000000000E+00 0. -1.
          1    1    5    5  503    0  0.20930326161E+03 -0.27693229794E+03 -0.19980484637E+03  0.40052631574E+03  0.00000000000E+00 0. -1.
         -2    1    5    5    0  503  0.15084938064E+03 -0.15150255489E+03 -0.18610356433E+03  0.28344857811E+03  0.00000000000E+00 0.  1.
         -1    1    6    6    0  502 -0.10554813920E+03  0.18125386099E+03  0.18446729998E+02  0.21055558330E+03  0.00000000000E+00 0.  1.
<mgrwt>
<rscale>  0 0.13164476E+04</rscale>
<asrwt>0</asrwt>
<pdfrwt beam="1">  1        2 0.17082878E+00 0.13164476E+04</pdfrwt>
<pdfrwt beam="2">  1       -2 0.60028763E-01 0.13164476E+04</pdfrwt>
<totfact> 0.54381586E+01</totfact>
</mgrwt>
</event>
<event>
12    1  0.1489233E-007  0.1325467E+04  0.7818608E-02  0.9009610E-01
         -2   -1    0    0    0  501 -0.00000000000E+00  0.00000000000E+00  0.25006884593E+03  0.25006884593E+03  0.00000000000E+00 0.  1.
          2   -1    0    0  501    0  0.00000000000E+00 -0.00000000000E+00 -0.17563797629E+04  0.17563797629E+04  0.00000000000E+00 0. -1.
         23    2    1    2    0    0  0.12215735040E+03  0.18767333354E+02  0.48736220007E+02  0.16407036974E+03  0.96276871715E+02 0.  0.
        254    2    1    2    0    0 -0.12215735040E+03 -0.18767333354E+02 -0.15550471370E+04  0.18423782391E+04  0.98026085643E+03 0.  0.
        -24    2    4    4    0    0  0.11683194238E+03 -0.30608436392E+03 -0.11796277485E+03  0.35528494459E+03  0.70532510280E+02 0.  0.
         24    2    4    4    0    0 -0.23898929278E+03  0.28731703057E+03 -0.14370843622E+04  0.14870932945E+04  0.81043473416E+02 0.  0.
         13    1    3    3    0    0  0.60781823946E+02  0.55295050774E+02  0.98803786195E+01  0.82762277905E+02  0.00000000000E+00 0. -1.
        -13    1    3    3    0    0  0.61375526453E+02 -0.36527717421E+02  0.38855841387E+02  0.81308091832E+02  0.00000000000E+00 0.  1.
          4    1    6    6  502    0 -0.19307494194E+03  0.20795394737E+03 -0.95083802973E+03  0.99227805388E+03  0.00000000000E+00 0. -1.
          3    1    5    5  503    0  0.89351135169E+01 -0.25770506430E+02 -0.33644875481E+02  0.43312041067E+02  0.00000000000E+00 0. -1.
         -4    1    5    5    0  503  0.10789682886E+03 -0.28031385749E+03 -0.84317899367E+02  0.31197290352E+03  0.00000000000E+00 0.  1.
         -3    1    6    6    0  502 -0.45914350843E+02  0.79363083196E+02 -0.48624633243E+03  0.49481524066E+03  0.00000000000E+00 0.  1.
<mgrwt>
<rscale>  0 0.13254673E+04</rscale>
<asrwt>0</asrwt>
<pdfrwt beam="1">  1        2 0.27021228E+00 0.13254673E+04</pdfrwt>
<pdfrwt beam="2">  1       -2 0.38472129E-01 0.13254673E+04</pdfrwt>
<totfact> 0.56970262E+01</totfact>
</mgrwt>
</event>
<event>
12    1  0.1489233E-007  0.1895044E+04  0.7818608E-02  0.8657327E-01
          2   -1    0    0  501    0  0.00000000000E+00  0.00000000000E+00  0.14592141005E+04  0.14592141005E+04  0.00000000000E+00 0. -1.
         -2   -1    0    0    0  501 -0.00000000000E+00 -0.00000000000E+00 -0.61526129497E+03  0.61526129497E+03  0.00000000000E+00 0.  1.
         23    2    1    2    0    0  0.70202577829E+03 -0.25126979031E+02  0.54278912788E+03  0.89240175833E+03  0.91045606589E+02 0.  0.
        254    2    1    2    0    0 -0.70202577829E+03  0.25126979031E+02  0.30116367760E+03  0.11820736371E+04  0.90173552905E+03 0.  0.
        -24    2    4    4    0    0 -0.50516496341E+03 -0.17768229639E+03  0.56847803651E+03  0.78508703921E+03  0.80198144865E+02 0.  0.
         24    2    4    4    0    0 -0.19686081488E+03  0.20280927542E+03 -0.26731435891E+03  0.39698659788E+03  0.79092412983E+02 0.  0.
         13    1    3    3    0    0  0.15101189215E+02  0.13447413990E+02  0.18362387781E+02  0.27314028333E+02  0.00000000000E+00 0.  1.
        -13    1    3    3    0    0  0.68692458907E+03 -0.38574393021E+02  0.52442674010E+03  0.86508773000E+03  0.00000000000E+00 0. -1.
          4    1    6    6  502    0 -0.55279357735E+01  0.39027627289E+02 -0.20821549391E+02  0.44578589982E+02  0.00000000000E+00 0. -1.
          3    1    5    5  503    0 -0.61851460170E+00 -0.64515233768E+01  0.17332904546E+02  0.18504980254E+02  0.00000000000E+00 0. -1.
         -4    1    5    5    0  503 -0.50454644880E+03 -0.17123077301E+03  0.55114513196E+03  0.76658205895E+03  0.00000000000E+00 0.  1.
         -1    1    6    6    0  502 -0.19133287911E+03  0.16378164813E+03 -0.24649280952E+03  0.35240800790E+03  0.00000000000E+00 0.  1.
<mgrwt>
<rscale>  0 0.18950440E+04</rscale>
<asrwt>0</asrwt>
<pdfrwt beam="1">  1        2 0.22449448E+00 0.18950440E+04</pdfrwt>
<pdfrwt beam="2">  1       -2 0.94655584E-01 0.18950440E+04</pdfrwt>
<totfact> 0.11791305E+01</totfact>
</mgrwt>
</event>
<event>
12    1  0.1489233E-007  0.2062223E+04  0.7818608E-02  0.8578069E-01
         -2   -1    0    0    0  501 -0.00000000000E+00  0.00000000000E+00  0.42710681330E+03  0.42710681330E+03  0.00000000000E+00 0.  1.
          2   -1    0    0  501    0  0.00000000000E+00 -0.00000000000E+00 -0.24892863941E+04  0.24892863941E+04  0.00000000000E+00 0. -1.
         23    2    1    2    0    0 -0.27816270070E+03 -0.31766430773E+03  0.17034680578E+03  0.46453467500E+03  0.92137557881E+02 0.  0.
        254    2    1    2    0    0  0.27816270070E+03  0.31766430773E+03 -0.22325263866E+04  0.24518585324E+04  0.92149394768E+03 0.  0.
        -24    2    4    4    0    0 -0.32239692555E+03  0.91421656556E+02 -0.10352870622E+04  0.10912260512E+04  0.81592259709E+02 0.  0.
         24    2    4    4    0    0  0.60055962625E+03  0.22624265117E+03 -0.11972393244E+04  0.13606324811E+04  0.77981709703E+02 0.  0.
         13    1    3    3    0    0 -0.18867958597E+03 -0.27140165897E+03  0.14303198417E+03  0.36016245661E+03  0.00000000000E+00 0.  1.
        -13    1    3    3    0    0 -0.89483114734E+02 -0.46262648752E+02  0.27314821609E+02  0.10437221839E+03  0.00000000000E+00 0. -1.
          2    1    6    6  502    0  0.17596827228E+03  0.31405242013E+02 -0.30618883024E+03  0.35454579653E+03  0.00000000000E+00 0. -1.
          3    1    5    5  503    0 -0.15891524774E+03  0.87344442589E+02 -0.55143084625E+03  0.58048177044E+03  0.00000000000E+00 0. -1.
         -4    1    5    5    0  503 -0.16348167781E+03  0.40772139667E+01 -0.48385621595E+03  0.51074428080E+03  0.00000000000E+00 0.  1.
         -1    1    6    6    0  502  0.42459135397E+03  0.19483740916E+03 -0.89105049411E+03  0.10060866846E+04  0.00000000000E+00 0.  1.
<mgrwt>
<rscale>  0 0.20622232E+04</rscale>
<asrwt>0</asrwt>
<pdfrwt beam="1">  1        2 0.38296715E+00 0.20622232E+04</pdfrwt>
<pdfrwt beam="2">  1       -2 0.65708739E-01 0.20622232E+04</pdfrwt>
<totfact> 0.69643349E+00</totfact>
</mgrwt>
</event>
<event>
12    1  0.1489233E-007  0.1158412E+04  0.7818608E-02  0.9150058E-01
         -2   -1    0    0    0  501 -0.00000000000E+00  0.00000000000E+00  0.26020028930E+03  0.26020028930E+03  0.00000000000E+00 0.  1.
          2   -1    0    0  501    0  0.00000000000E+00 -0.00000000000E+00 -0.12893136818E+04  0.12893136818E+04  0.00000000000E+00 0. -1.
         23    2    1    2    0    0 -0.12559905998E+03  0.15806982364E+03 -0.27525696249E+03  0.35379180124E+03  0.92957249392E+02 0.  0.
        254    2    1    2    0    0  0.12559905998E+03 -0.15806982364E+03 -0.75385643005E+03  0.11957221699E+04  0.90591986260E+03 0.  0.
        -24    2    4    4    0    0 -0.26481402047E+03 -0.11913417367E+03 -0.73505232290E+03  0.79451806135E+03  0.81471563391E+02 0.  0.
         24    2    4    4    0    0  0.39041308045E+03 -0.38935649972E+02 -0.18804107148E+02  0.40120410855E+03  0.81687110648E+02 0.  0.
         13    1    3    3    0    0 -0.86761353500E+01 -0.11471316844E+02 -0.31849201154E+02  0.34946216517E+02  0.00000000000E+00 0.  1.
        -13    1    3    3    0    0 -0.11692292463E+03  0.16954114049E+03 -0.24340776133E+03  0.31884558472E+03  0.00000000000E+00 0. -1.
          4    1    6    6  502    0  0.14820683606E+03 -0.52584716796E+02  0.58222801900E+01  0.15736682510E+03  0.00000000000E+00 0. -1.
          3    1    5    5  503    0 -0.23166986200E+03 -0.80272775697E+02 -0.65680747248E+03  0.70107824056E+03  0.00000000000E+00 0. -1.
         -4    1    5    5    0  503 -0.33144158468E+02 -0.38861397973E+02 -0.78244850424E+02  0.93439820798E+02  0.00000000000E+00 0.  1.
         -3    1    6    6    0  502  0.24220624439E+03  0.13649066824E+02 -0.24626387338E+02  0.24383728345E+03  0.00000000000E+00 0.  1.
<mgrwt>
<rscale>  0 0.11584123E+04</rscale>
<asrwt>0</asrwt>
<pdfrwt beam="1">  1        2 0.19835595E+00 0.11584123E+04</pdfrwt>
<pdfrwt beam="2">  1       -2 0.40030814E-01 0.11584123E+04</pdfrwt>
<totfact> 0.97915281E+01</totfact>
</mgrwt>
</event>
<event>
12    1  0.1489233E-007  0.2372249E+04  0.7818608E-02  0.8449967E-01
          2   -1    0    0  501    0  0.00000000000E+00  0.00000000000E+00  0.16741967123E+04  0.16741967123E+04  0.00000000000E+00 0. -1.
         -2   -1    0    0    0  501 -0.00000000000E+00 -0.00000000000E+00 -0.84033796720E+03  0.84033796720E+03  0.00000000000E+00 0.  1.
         23    2    1    2    0    0 -0.82541838653E+03 -0.49880323723E+03  0.68422627658E+03  0.11847279457E+04  0.72763489528E+02 0.  0.
        254    2    1    2    0    0  0.82541838653E+03  0.49880323723E+03  0.14963246852E+03  0.13298067338E+04  0.90325848536E+03 0.  0.
        -24    2    4    4    0    0  0.78708728505E+03  0.19255021314E+03  0.41613137534E+03  0.91438571956E+03  0.79711628594E+02 0.  0.
         24    2    4    4    0    0  0.38331101485E+02  0.30625302409E+03 -0.26649890682E+03  0.41542101426E+03  0.79326941483E+02 0.  0.
         11    1    3    3    0    0 -0.38336986104E+03 -0.24863181998E+03  0.28332087848E+03  0.53764388999E+03  0.00000000000E+00 0.  1.
        -11    1    3    3    0    0 -0.44204852549E+03 -0.25017141725E+03  0.40090539810E+03  0.64708405569E+03  0.00000000000E+00 0. -1.
          4    1    6    6  502    0  0.42205242301E+02  0.82415852883E+02 -0.10098480076E+03  0.13700943496E+03  0.00000000000E+00 0. -1.
          1    1    5    5  503    0  0.41062286836E+03  0.11316484249E+03  0.26104233630E+03  0.49956032962E+03  0.00000000000E+00 0. -1.
         -2    1    5    5    0  503  0.37646441669E+03  0.79385370653E+02  0.15508903904E+03  0.41482538994E+03  0.00000000000E+00 0.  1.
         -3    1    6    6    0  502 -0.38741408160E+01  0.22383717121E+03 -0.16551410606E+03  0.27841157930E+03  0.00000000000E+00 0.  1.
<mgrwt>
<rscale>  0 0.23722488E+04</rscale>
<asrwt>0</asrwt>
<pdfrwt beam="1">  1        2 0.25756872E+00 0.23722488E+04</pdfrwt>
<pdfrwt beam="2">  1       -2 0.12928277E+00 0.23722488E+04</pdfrwt>
<totfact> 0.40244111E+00</totfact>
</mgrwt>
</event>
<event>
12    1  0.1489233E-007  0.1636716E+04  0.7818608E-02  0.8798304E-01
         -2   -1    0    0    0  501 -0.00000000000E+00  0.00000000000E+00  0.69249203954E+03  0.69249203954E+03  0.00000000000E+00 0.  1.
          2   -1    0    0  501    0  0.00000000000E+00 -0.00000000000E+00 -0.96710072750E+03  0.96710072750E+03  0.00000000000E+00 0. -1.
         23    2    1    2    0    0  0.52338756967E+01  0.52613993217E+03  0.11220799499E+03  0.54568572045E+03  0.91277870690E+02 0.  0.
        254    2    1    2    0    0 -0.52338756967E+01 -0.52613993217E+03 -0.38681668296E+03  0.11139070466E+04  0.90239189964E+03 0.  0.
        -24    2    4    4    0    0 -0.40939231979E+03 -0.45523515034E+03 -0.15234434817E+03  0.63479741889E+03  0.70127377000E+02 0.  0.
         24    2    4    4    0    0  0.40415844409E+03 -0.70904781834E+02 -0.23447233479E+03  0.47910962770E+03  0.78722446327E+02 0.  0.
         13    1    3    3    0    0 -0.11795629462E+01  0.46781487563E+03  0.12782704734E+03  0.48496587845E+03  0.00000000000E+00 0.  1.
        -13    1    3    3    0    0  0.64134386429E+01  0.58325056541E+02 -0.15619052345E+02  0.60719841995E+02  0.00000000000E+00 0. -1.
          4    1    6    6  502    0  0.11348556174E+03 -0.53843622335E+02 -0.55459379617E+02  0.13730932662E+03  0.00000000000E+00 0. -1.
          1    1    5    5  503    0 -0.23495071498E+03 -0.21809400212E+03 -0.58952437980E+02  0.32594818940E+03  0.00000000000E+00 0. -1.
         -2    1    5    5    0  503 -0.17444160481E+03 -0.23714114822E+03 -0.93391910190E+02  0.30884922949E+03  0.00000000000E+00 0.  1.
         -3    1    6    6    0  502  0.29067288236E+03 -0.17061159499E+02 -0.17901295517E+03  0.34180030108E+03  0.00000000000E+00 0.  1.
<mgrwt>
<rscale>  0 0.16367157E+04</rscale>
<asrwt>0</asrwt>
<pdfrwt beam="1">  1        2 0.14878473E+00 0.16367157E+04</pdfrwt>
<pdfrwt beam="2">  1       -2 0.10653724E+00 0.16367157E+04</pdfrwt>
<totfact> 0.17960586E+01</totfact>
</mgrwt>
</event>
<event>
12    1  0.1489233E-007  0.2286072E+04  0.7818608E-02  0.8483433E-01
          1   -1    0    0  501    0  0.00000000000E+00  0.00000000000E+00  0.12653515918E+04  0.12653515918E+04  0.00000000000E+00 0. -1.
         -1   -1    0    0    0  501 -0.00000000000E+00 -0.00000000000E+00 -0.10325437672E+04  0.10325437672E+04  0.00000000000E+00 0.  1.
         23    2    1    2    0    0 -0.19492424781E+03  0.15668786353E+03 -0.83071101647E+03  0.87239774583E+03  0.91926519955E+02 0.  0.
        254    2    1    2    0    0  0.19492424781E+03 -0.15668786353E+03  0.10635188411E+04  0.14254976132E+04  0.91565526854E+03 0.  0.
        -24    2    4    4    0    0  0.10545749859E+03  0.22273322925E+02  0.11750342666E+04  0.11827932887E+04  0.81713225997E+02 0.  0.
         24    2    4    4    0    0  0.89466749219E+02 -0.17896118645E+03 -0.11151542547E+03  0.24270432444E+03  0.80238977499E+02 0.  0.
         11    1    3    3    0    0 -0.95958371349E+02  0.11232258232E+03 -0.59282810286E+03  0.61095787995E+03  0.00000000000E+00 0.  1.
        -11    1    3    3    0    0 -0.98965876464E+02  0.44365281207E+02 -0.23788291361E+03  0.26143986587E+03  0.00000000000E+00 0. -1.
          4    1    6    6  502    0  0.77378236462E+02 -0.16150704274E+03 -0.12423033860E+03  0.21795663184E+03  0.00000000000E+00 0. -1.
          3    1    5    5  503    0  0.58962049589E+02 -0.48444059806E+01  0.93172766989E+03  0.93360400728E+03  0.00000000000E+00 0. -1.
         -4    1    5    5    0  503  0.46495449006E+02  0.27117728905E+02  0.24330659671E+03  0.24918928147E+03  0.00000000000E+00 0.  1.
         -3    1    6    6    0  502  0.12088512756E+02 -0.17454143709E+02  0.12714913124E+02  0.24747692601E+02  0.00000000000E+00 0.  1.
<mgrwt>
<rscale>  0 0.22860717E+04</rscale>
<asrwt>0</asrwt>
<pdfrwt beam="1">  1        1 0.19466948E+00 0.22860717E+04</pdfrwt>
<pdfrwt beam="2">  1       -1 0.15885289E+00 0.22860717E+04</pdfrwt>
<totfact> 0.25849338E+00</totfact>
</mgrwt>
</event>
<event>
12    1  0.1489233E-007  0.2073403E+04  0.7818608E-02  0.8573051E-01
          2   -1    0    0  501    0  0.00000000000E+00  0.00000000000E+00  0.28907984252E+04  0.28907984252E+04  0.00000000000E+00 0. -1.
         -2   -1    0    0    0  501 -0.00000000000E+00 -0.00000000000E+00 -0.37178326072E+03  0.37178326072E+03  0.00000000000E+00 0.  1.
         23    2    1    2    0    0 -0.55570162568E+03 -0.50436110821E+03  0.15800752544E+04  0.17517071429E+04  0.93035910402E+02 0.  0.
        254    2    1    2    0    0  0.55570162568E+03  0.50436110821E+03  0.93893991005E+03  0.15108745430E+04  0.91539570992E+03 0.  0.
        -24    2    4    4    0    0 -0.13011427559E+03 -0.13251574881E+03  0.35610930345E+02  0.20752990431E+03  0.85500727633E+02 0.  0.
         24    2    4    4    0    0  0.68581590127E+03  0.63687685702E+03  0.90332897971E+03  0.13033446387E+04  0.82148768643E+02 0.  0.
         11    1    3    3    0    0 -0.55752092933E+03 -0.49177136125E+03  0.15504374174E+04  0.17194548100E+04  0.00000000000E+00 0.  1.
        -11    1    3    3    0    0  0.18193036475E+01 -0.12589746960E+02  0.29637837009E+02  0.32252332890E+02  0.00000000000E+00 0. -1.
          4    1    6    6  502    0  0.21763980516E+03  0.16710467798E+03  0.22739813147E+03  0.35637195230E+03  0.00000000000E+00 0. -1.
          1    1    5    5  503    0 -0.75461189634E+02 -0.12169528748E+03  0.35224857489E+01  0.14323596630E+03  0.00000000000E+00 0. -1.
         -4    1    5    5    0  503 -0.54653085956E+02 -0.10820461334E+02  0.32088444596E+02  0.64293938008E+02  0.00000000000E+00 0.  1.
         -3    1    6    6    0  502  0.46817609611E+03  0.46977217904E+03  0.67593084824E+03  0.94697268639E+03  0.00000000000E+00 0.  1.
<mgrwt>
<rscale>  0 0.20734034E+04</rscale>
<asrwt>0</asrwt>
<pdfrwt beam="1">  1        2 0.44473820E+00 0.20734034E+04</pdfrwt>
<pdfrwt beam="2">  1       -2 0.57197427E-01 0.20734034E+04</pdfrwt>
<totfact> 0.53929759E+00</totfact>
</mgrwt>
</event>
<event>
12    1  0.1489233E-007  0.5486329E+04  0.7818608E-02  0.7757573E-01
          2   -1    0    0  501    0  0.00000000000E+00  0.00000000000E+00  0.29408900814E+04  0.29408900814E+04  0.00000000000E+00 0. -1.
         -2   -1    0    0    0  501 -0.00000000000E+00 -0.00000000000E+00 -0.25587329001E+04  0.25587329001E+04  0.00000000000E+00 0.  1.
         23    2    1    2    0    0 -0.23596327969E+04 -0.36212076987E+03  0.13599060252E+04  0.27490533890E+04  0.94613688647E+02 0.  0.
        254    2    1    2    0    0  0.23596327969E+04  0.36212076987E+03 -0.97774884400E+03  0.27505695925E+04  0.95427558562E+03 0.  0.
        -24    2    4    4    0    0  0.41481682473E+03  0.41640368531E+03 -0.41525361308E+03  0.72374923775E+03  0.76891928974E+02 0.  0.
         24    2    4    4    0    0  0.19448159721E+04 -0.54282915438E+02 -0.56249523092E+03  0.20268203548E+04  0.79649641112E+02 0.  0.
         13    1    3    3    0    0 -0.15447525477E+04 -0.20215407188E+03  0.85359261007E+03  0.17764422440E+04  0.00000000000E+00 0. -1.
        -13    1    3    3    0    0 -0.81488024918E+03 -0.15996669799E+03  0.50631341514E+03  0.97261114497E+03  0.00000000000E+00 0.  1.
          2    1    6    6  502    0  0.40997949135E+03 -0.28605336942E+01 -0.15140336616E+03  0.43705187938E+03  0.00000000000E+00 0. -1.
          3    1    5    5  503    0  0.19610042312E+02  0.23032258711E+01 -0.83381908961E+01  0.21433246052E+02  0.00000000000E+00 0. -1.
         -4    1    5    5    0  503  0.39520678242E+03  0.41410045944E+03 -0.40691542219E+03  0.70231599169E+03  0.00000000000E+00 0.  1.
         -1    1    6    6    0  502  0.15348364808E+04 -0.51422381744E+02 -0.41109186475E+03  0.15897684754E+04  0.00000000000E+00 0.  1.
<mgrwt>
<rscale>  0 0.54863293E+04</rscale>
<asrwt>0</asrwt>
<pdfrwt beam="1">  1        2 0.45244463E+00 0.54863293E+04</pdfrwt>
<pdfrwt beam="2">  1       -2 0.39365122E+00 0.54863293E+04</pdfrwt>
<totfact> 0.10848624E-02</totfact>
</mgrwt>
</event>
<event>
12    1  0.1489233E-007  0.1263404E+04  0.7818608E-02  0.9059100E-01
          1   -1    0    0  501    0  0.00000000000E+00  0.00000000000E+00  0.20604922370E+04  0.20604922370E+04  0.00000000000E+00 0. -1.
         -1   -1    0    0    0  501 -0.00000000000E+00 -0.00000000000E+00 -0.19366614442E+03  0.19366614442E+03  0.00000000000E+00 0.  1.
         23    2    1    2    0    0  0.75258108015E+02  0.29325726501E+03  0.45459820687E+03  0.55372896107E+03  0.91063858575E+02 0.  0.
        254    2    1    2    0    0 -0.75258108015E+02 -0.29325726501E+03  0.14122278857E+04  0.17004294204E+04  0.89744582349E+03 0.  0.
        -24    2    4    4    0    0 -0.23338492691E+03 -0.38293053325E+03  0.14305302216E+04  0.15012999713E+04  0.79878480596E+02 0.  0.
         24    2    4    4    0    0  0.15812681890E+03  0.89673268239E+02 -0.18302335871E+02  0.19912944901E+03  0.79197071113E+02 0.  0.
         11    1    3    3    0    0  0.70749649134E+02  0.16367099785E+03  0.32321431090E+03  0.36913574625E+03  0.00000000000E+00 0. -1.
        -11    1    3    3    0    0  0.45084588811E+01  0.12958626716E+03  0.13138389597E+03  0.18459321482E+03  0.00000000000E+00 0.  1.
          4    1    6    6  502    0  0.15844000003E+03  0.82403496351E+02  0.90498609105E+00  0.17859000202E+03  0.00000000000E+00 0. -1.
          1    1    5    5  503    0 -0.12199436737E+03 -0.26435974844E+03  0.85467459792E+03  0.90290496210E+03  0.00000000000E+00 0. -1.
         -2    1    5    5    0  503 -0.11139055954E+03 -0.11857078481E+03  0.57585562368E+03  0.59839500925E+03  0.00000000000E+00 0.  1.
         -3    1    6    6    0  502 -0.31318113435E+00  0.72697718883E+01 -0.19207321962E+02  0.20539446991E+02  0.00000000000E+00 0.  1.
<mgrwt>
<rscale>  0 0.12634043E+04</rscale>
<asrwt>0</asrwt>
<pdfrwt beam="1">  1        1 0.31699879E+00 0.12634043E+04</pdfrwt>
<pdfrwt beam="2">  1       -1 0.29794793E-01 0.12634043E+04</pdfrwt>
<totfact> 0.27633383E+01</totfact>
</mgrwt>
</event>
<event>
12    1  0.1489233E-007  0.1912284E+04  0.7818608E-02  0.8648766E-01
         -2   -1    0    0    0  501 -0.00000000000E+00  0.00000000000E+00  0.42303700469E+03  0.42303700469E+03  0.00000000000E+00 0.  1.
          2   -1    0    0  501    0  0.00000000000E+00 -0.00000000000E+00 -0.21610590599E+04  0.21610590599E+04  0.00000000000E+00 0. -1.
         23    2    1    2    0    0 -0.15335827047E+02 -0.17826926296E+03 -0.16183688206E+04  0.16309669401E+04  0.94447881304E+02 0.  0.
        254    2    1    2    0    0  0.15335827047E+02  0.17826926296E+03 -0.11965323463E+03  0.95312912458E+03  0.92850585020E+03 0.  0.
        -24    2    4    4    0    0  0.37059083225E+03 -0.12734129389E+03 -0.23518851094E+03  0.46412274209E+03  0.80888280804E+02 0.  0.
         24    2    4    4    0    0 -0.35525500520E+03  0.30561055685E+03  0.11553527631E+03  0.48900638249E+03  0.78580601046E+02 0.  0.
         11    1    3    3    0    0 -0.45811964883E+02 -0.14547257155E+03 -0.13824555010E+04  0.13908429881E+04  0.00000000000E+00 0. -1.
        -11    1    3    3    0    0  0.30476137836E+02 -0.32796691410E+02 -0.23591331960E+03  0.24012395197E+03  0.00000000000E+00 0.  1.
          2    1    6    6  502    0 -0.11296261323E+03  0.56065314045E+02  0.46444914567E+02  0.13439122559E+03  0.00000000000E+00 0. -1.
          3    1    5    5  503    0  0.32062082273E+03 -0.78463794782E+02 -0.19866618443E+03  0.38525644952E+03  0.00000000000E+00 0. -1.
         -4    1    5    5    0  503  0.49970009515E+02 -0.48877499107E+02 -0.36522326510E+02  0.78866292569E+02  0.00000000000E+00 0.  1.
         -1    1    6    6    0  502 -0.24229239197E+03  0.24954524281E+03  0.69090361744E+02  0.35461515690E+03  0.00000000000E+00 0.  1.
<mgrwt>
<rscale>  0 0.19122844E+04</rscale>
<asrwt>0</asrwt>
<pdfrwt beam="1">  1        2 0.33247062E+00 0.19122844E+04</pdfrwt>
<pdfrwt beam="2">  1       -2 0.65082617E-01 0.19122844E+04</pdfrwt>
<totfact> 0.11063661E+01</totfact>
</mgrwt>
</event>
<event>
12    1  0.1489233E-007  0.2969053E+04  0.7818608E-02  0.8252623E-01
         -2   -1    0    0    0  501 -0.00000000000E+00  0.00000000000E+00  0.86382407938E+03  0.86382407938E+03  0.00000000000E+00 0.  1.
          2   -1    0    0  501    0  0.00000000000E+00 -0.00000000000E+00 -0.25512364476E+04  0.25512364476E+04  0.00000000000E+00 0. -1.
         23    2    1    2    0    0 -0.18615094549E+03  0.12609291434E+03 -0.22886588719E+04  0.23018448532E+04  0.99893435913E+02 0.  0.
        254    2    1    2    0    0  0.18615094549E+03 -0.12609291434E+03  0.60124650365E+03  0.11132156739E+04  0.90950545947E+03 0.  0.
        -24    2    4    4    0    0 -0.80373723729E+02 -0.22552493269E+03 -0.15862818149E+03  0.29805365652E+03  0.79697248797E+02 0.  0.
         24    2    4    4    0    0  0.26652466922E+03  0.99432018357E+02  0.75987468515E+03  0.81516201734E+03  0.78469432314E+02 0.  0.
         13    1    3    3    0    0  0.83526687297E+01  0.25316950661E+02 -0.28652401724E+03  0.28776158103E+03  0.00000000000E+00 0.  1.
        -13    1    3    3    0    0 -0.19450361422E+03  0.10077596368E+03 -0.20021348547E+04  0.20140832721E+04  0.00000000000E+00 0. -1.
          4    1    6    6  502    0  0.20826375850E+03  0.72105469056E+02  0.66460743961E+03  0.70019714407E+03  0.00000000000E+00 0. -1.
          3    1    5    5  503    0 -0.90265593381E+02 -0.14362662785E+03 -0.10104063847E+03  0.19744795820E+03  0.00000000000E+00 0. -1.
         -4    1    5    5    0  503  0.98918696517E+01 -0.81898304846E+02 -0.57587543027E+02  0.10060569832E+03  0.00000000000E+00 0.  1.
         -1    1    6    6    0  502  0.58260910718E+02  0.27326549301E+02  0.95267245533E+02  0.11496487327E+03  0.00000000000E+00 0.  1.
<mgrwt>
<rscale>  0 0.29690534E+04</rscale>
<asrwt>0</asrwt>
<pdfrwt beam="1">  1        2 0.39249791E+00 0.29690534E+04</pdfrwt>
<pdfrwt beam="2">  1       -2 0.13289601E+00 0.29690534E+04</pdfrwt>
<totfact> 0.11451185E+00</totfact>
</mgrwt>
</event>
<event>
12    1  0.1489233E-007  0.2526045E+04  0.7818608E-02  0.8393765E-01
          1   -1    0    0  501    0  0.00000000000E+00  0.00000000000E+00  0.22560874681E+04  0.22560874681E+04  0.00000000000E+00 0. -1.
         -1   -1    0    0    0  501 -0.00000000000E+00 -0.00000000000E+00 -0.70707596265E+03  0.70707596265E+03  0.00000000000E+00 0.  1.
         23    2    1    2    0    0 -0.19117024442E+02 -0.67769742630E+03 -0.33019950982E+03  0.75967790828E+03  0.91867000664E+02 0.  0.
        254    2    1    2    0    0  0.19117024442E+02  0.67769742630E+03  0.18792110153E+04  0.22034855225E+04  0.92966399608E+03 0.  0.
        -24    2    4    4    0    0  0.16822699743E+03  0.38168100423E+03  0.18052355612E+04  0.18544519039E+04  0.78330841440E+02 0.  0.
         24    2    4    4    0    0 -0.14910997298E+03  0.29601642207E+03  0.73975454104E+02  0.34903361863E+03  0.80576627770E+02 0.  0.
         11    1    3    3    0    0  0.26301534452E+02 -0.25766973974E+03 -0.93203855745E+02  0.27526791352E+03  0.00000000000E+00 0. -1.
        -11    1    3    3    0    0 -0.45418558894E+02 -0.42002768656E+03 -0.23699565407E+03  0.48440999476E+03  0.00000000000E+00 0.  1.
          2    1    6    6  502    0 -0.63184790384E+02  0.19626803234E+03  0.21497170740E+02  0.20730553925E+03  0.00000000000E+00 0. -1.
          3    1    5    5  503    0  0.11981754509E+03  0.33676491563E+03  0.15653804187E+04  0.16056720424E+04  0.00000000000E+00 0. -1.
         -4    1    5    5    0  503  0.48409452337E+02  0.44916088603E+02  0.23985514248E+03  0.24877986145E+03  0.00000000000E+00 0.  1.
         -1    1    6    6    0  502 -0.85925182600E+02  0.99748389733E+02  0.52478283364E+02  0.14172807938E+03  0.00000000000E+00 0.  1.
<mgrwt>
<rscale>  0 0.25260445E+04</rscale>
<asrwt>0</asrwt>
<pdfrwt beam="1">  1        1 0.34709038E+00 0.25260445E+04</pdfrwt>
<pdfrwt beam="2">  1       -1 0.10878092E+00 0.25260445E+04</pdfrwt>
<totfact> 0.13849069E+00</totfact>
</mgrwt>
</event>
<event>
12    1  0.1489233E-007  0.1277831E+04  0.7818608E-02  0.9047333E-01
          1   -1    0    0  501    0  0.00000000000E+00  0.00000000000E+00  0.76821161526E+03  0.76821161526E+03  0.00000000000E+00 0. -1.
         -1   -1    0    0    0  501 -0.00000000000E+00 -0.00000000000E+00 -0.53138074198E+03  0.53138074198E+03  0.00000000000E+00 0.  1.
         23    2    1    2    0    0  0.20037221895E+03 -0.14331724999E+03  0.29391250003E+03  0.39458475855E+03  0.92863952816E+02 0.  0.
        254    2    1    2    0    0 -0.20037221895E+03  0.14331724999E+03 -0.57081626754E+02  0.90500759870E+03  0.86896005738E+03 0.  0.
        -24    2    4    4    0    0  0.22444626827E+03 -0.22217717070E+03 -0.90455370380E+02  0.33798528651E+03  0.79454750314E+02 0.  0.
         24    2    4    4    0    0 -0.42481848722E+03  0.36549442068E+03  0.33373743626E+02  0.56702231219E+03  0.79646576329E+02 0.  0.
         11    1    3    3    0    0  0.15105153635E+03 -0.12602893356E+03  0.16962018653E+03  0.25975154746E+03  0.00000000000E+00 0. -1.
        -11    1    3    3    0    0  0.49320682600E+02 -0.17288316423E+02  0.12429231350E+03  0.13483321109E+03  0.00000000000E+00 0.  1.
          2    1    6    6  502    0 -0.10502621584E+02  0.30321915699E+02 -0.60367071777E+01  0.32652189288E+02  0.00000000000E+00 0. -1.
          1    1    5    5  503    0 -0.28748905148E+01 -0.88989057244E+01  0.66795148728E+01  0.11492233791E+02  0.00000000000E+00 0. -1.
         -2    1    5    5    0  503  0.22732115879E+03 -0.21327826497E+03 -0.97134885253E+02  0.32649305272E+03  0.00000000000E+00 0.  1.
         -1    1    6    6    0  502 -0.41431586564E+03  0.33517250498E+03  0.39410450804E+02  0.53437012290E+03  0.00000000000E+00 0.  1.
<mgrwt>
<rscale>  0 0.12778308E+04</rscale>
<asrwt>0</asrwt>
<pdfrwt beam="1">  1        1 0.11818640E+00 0.12778308E+04</pdfrwt>
<pdfrwt beam="2">  1       -1 0.81750884E-01 0.12778308E+04</pdfrwt>
<totfact> 0.34584985E+01</totfact>
</mgrwt>
</event>
<event>
12    1  0.1489233E-007  0.1420310E+04  0.7818608E-02  0.8939247E-01
         -2   -1    0    0    0  501 -0.00000000000E+00  0.00000000000E+00  0.13580213953E+03  0.13580213953E+03  0.00000000000E+00 0.  1.
          2   -1    0    0  501    0  0.00000000000E+00 -0.00000000000E+00 -0.37136392275E+04  0.37136392275E+04  0.00000000000E+00 0. -1.
         23    2    1    2    0    0 -0.13681318605E+03 -0.20531690001E+03 -0.16653544626E+03  0.31074872901E+03  0.89206728556E+02 0.  0.
        254    2    1    2    0    0  0.13681318605E+03  0.20531690001E+03 -0.34113016418E+04  0.35386926380E+04  0.90801641959E+03 0.  0.
        -24    2    4    4    0    0  0.17822238307E+03  0.53946415083E+03 -0.24738878542E+04  0.25395461137E+04  0.79928470705E+02 0.  0.
         24    2    4    4    0    0 -0.41409197025E+02 -0.33414725082E+03 -0.93741378757E+03  0.99914652439E+03  0.78613365646E+02 0.  0.
         13    1    3    3    0    0 -0.11657187716E+03 -0.18123986476E+03 -0.10085696214E+03  0.23792649692E+03  0.00000000000E+00 0.  1.
        -13    1    3    3    0    0 -0.20241308884E+02 -0.24077035244E+02 -0.65678484116E+02  0.72822232095E+02  0.00000000000E+00 0. -1.
          2    1    6    6  502    0 -0.11655612707E+02 -0.10783791213E+03 -0.20412650499E+03  0.23115470715E+03  0.00000000000E+00 0. -1.
          3    1    5    5  503    0  0.91740742840E+02  0.18476691907E+03 -0.10065311306E+04  0.10274532083E+04  0.00000000000E+00 0. -1.
         -4    1    5    5    0  503  0.86481640230E+02  0.35469723176E+03 -0.14673567236E+04  0.15120929054E+04  0.00000000000E+00 0.  1.
         -1    1    6    6    0  502 -0.29753584318E+02 -0.22630933869E+03 -0.73328728258E+03  0.76799181724E+03  0.00000000000E+00 0.  1.
<mgrwt>
<rscale>  0 0.14203100E+04</rscale>
<asrwt>0</asrwt>
<pdfrwt beam="1">  1        2 0.57132912E+00 0.14203100E+04</pdfrwt>
<pdfrwt beam="2">  1       -2 0.20892637E-01 0.14203100E+04</pdfrwt>
<totfact> 0.11198637E+01</totfact>
</mgrwt>
</event>
<event>
12    1  0.1489233E-007  0.1538908E+04  0.7818608E-02  0.8858984E-01
          1   -1    0    0  501    0  0.00000000000E+00  0.00000000000E+00  0.57382096296E+03  0.57382096296E+03  0.00000000000E+00 0. -1.
         -1   -1    0    0    0  501 -0.00000000000E+00 -0.00000000000E+00 -0.10317838184E+04  0.10317838184E+04  0.00000000000E+00 0.  1.
         23    2    1    2    0    0  0.47572519831E+03 -0.51387025912E+02  0.39363092108E+01  0.48605137829E+03  0.85295703693E+02 0.  0.
        254    2    1    2    0    0 -0.47572519831E+03  0.51387025912E+02 -0.46189916464E+03  0.11195534030E+04  0.90060751342E+03 0.  0.
        -24    2    4    4    0    0  0.92977413522E+02  0.17336873837E+03 -0.48775232038E+03  0.53182577291E+03  0.78960799314E+02 0.  0.
         24    2    4    4    0    0 -0.56870261184E+03 -0.12198171245E+03  0.25853155739E+02  0.58772763014E+03  0.80331704078E+02 0.  0.
         13    1    3    3    0    0  0.19861845914E+03 -0.32953562003E+02  0.42199839928E+02  0.20570866790E+03  0.00000000000E+00 0.  1.
        -13    1    3    3    0    0  0.27710673917E+03 -0.18433463909E+02 -0.38263530717E+02  0.28034271039E+03  0.00000000000E+00 0. -1.
          2    1    6    6  502    0 -0.46788726055E+03 -0.13080919770E+03  0.16739480289E+02  0.48611700750E+03  0.00000000000E+00 0. -1.
          1    1    5    5  503    0  0.70409788946E+02  0.13299386521E+03 -0.44138708383E+03  0.46633406946E+03  0.00000000000E+00 0. -1.
         -2    1    5    5    0  503  0.22567624576E+02  0.40374873152E+02 -0.46365236551E+02  0.65491703455E+02  0.00000000000E+00 0.  1.
         -1    1    6    6    0  502 -0.10081535129E+03  0.88274852429E+01  0.91136754496E+01  0.10161062263E+03  0.00000000000E+00 0.  1.
<mgrwt>
<rscale>  0 0.15389076E+04</rscale>
<asrwt>0</asrwt>
<pdfrwt beam="1">  1        1 0.88280149E-01 0.15389076E+04</pdfrwt>
<pdfrwt beam="2">  1       -1 0.15873597E+00 0.15389076E+04</pdfrwt>
<totfact> 0.10521819E+01</totfact>
</mgrwt>
</event>
<event>
12    1  0.1489233E-007  0.1808728E+04  0.7818608E-02  0.8701672E-01
         -4   -1    0    0    0  501 -0.00000000000E+00  0.00000000000E+00  0.11420901036E+04  0.11420901036E+04  0.00000000000E+00 0.  1.
          4   -1    0    0  501    0  0.00000000000E+00 -0.00000000000E+00 -0.71612060519E+03  0.71612060519E+03  0.00000000000E+00 0. -1.
         23    2    1    2    0    0 -0.59965574149E+03  0.10697604900E+03  0.44976224708E+03  0.76381929437E+03  0.10051344286E+03 0.  0.
        254    2    1    2    0    0  0.59965574149E+03 -0.10697604900E+03 -0.23792748634E+02  0.10943914145E+04  0.90889800847E+03 0.  0.
        -24    2    4    4    0    0  0.26373379174E+03 -0.25634355916E+03 -0.40904399152E+03  0.55606930695E+03  0.81415931505E+02 0.  0.
         24    2    4    4    0    0  0.33592194975E+03  0.14936751016E+03  0.38525124289E+03  0.53832210751E+03  0.78854054278E+02 0.  0.
         11    1    3    3    0    0 -0.56751043847E+03  0.82884411206E+02  0.39710670493E+03  0.69758989277E+03  0.00000000000E+00 0. -1.
        -11    1    3    3    0    0 -0.32145303019E+02  0.24091637792E+02  0.52655542143E+02  0.66229401598E+02  0.00000000000E+00 0.  1.
          4    1    6    6  502    0  0.12425569708E+02 -0.69894865674E+01  0.29158028283E+02  0.32456714534E+02  0.00000000000E+00 0. -1.
          1    1    5    5  503    0  0.60828045430E+02 -0.19699689898E+02 -0.85830852692E+02  0.10702833348E+03  0.00000000000E+00 0. -1.
         -2    1    5    5    0  503  0.20290574631E+03 -0.23664386927E+03 -0.32321313883E+03  0.44904097347E+03  0.00000000000E+00 0.  1.
         -3    1    6    6    0  502  0.32349638004E+03  0.15635699673E+03  0.35609321461E+03  0.50586539298E+03  0.00000000000E+00 0.  1.
<mgrwt>
<rscale>  0 0.18087280E+04</rscale>
<asrwt>0</asrwt>
<pdfrwt beam="1">  1        4 0.11017240E+00 0.18087280E+04</pdfrwt>
<pdfrwt beam="2">  1       -4 0.17570617E+00 0.18087280E+04</pdfrwt>
<totfact> 0.23756900E-01</totfact>
</mgrwt>
</event>
<event>
12    1  0.1489233E-007  0.1687998E+04  0.7818608E-02  0.8768239E-01
          1   -1    0    0  501    0  0.00000000000E+00  0.00000000000E+00  0.24930052867E+03  0.24930052867E+03  0.00000000000E+00 0. -1.
         -1   -1    0    0    0  501 -0.00000000000E+00 -0.00000000000E+00 -0.28573305871E+04  0.28573305871E+04  0.00000000000E+00 0.  1.
         23    2    1    2    0    0 -0.30464774782E+03 -0.18603924904E+03 -0.18211795655E+04  0.18598125448E+04  0.12160114972E+03 0.  0.
        254    2    1    2    0    0  0.30464774782E+03  0.18603924904E+03 -0.78685049295E+03  0.12468185710E+04  0.89888931367E+03 0.  0.
        -24    2    4    4    0    0  0.20618253439E+02  0.36231951597E+03 -0.82193060406E+03  0.90162519517E+03  0.75216558323E+02 0.  0.
         24    2    4    4    0    0  0.28402949438E+03 -0.17628026693E+03  0.35080111105E+02  0.34519337581E+03  0.78615305890E+02 0.  0.
         13    1    3    3    0    0 -0.21246610565E+03 -0.18964220687E+03 -0.13610379020E+04  0.13905143593E+04  0.00000000000E+00 0.  1.
        -13    1    3    3    0    0 -0.92181642173E+02  0.36029578279E+01 -0.46014166351E+03  0.46929818555E+03  0.00000000000E+00 0. -1.
          2    1    6    6  502    0  0.19722323411E+03 -0.14580194153E+03  0.54303158026E+02  0.25120518147E+03  0.00000000000E+00 0. -1.
          1    1    5    5  503    0  0.40076048641E+02  0.19636647309E+03 -0.38952307531E+03  0.43805719675E+03  0.00000000000E+00 0. -1.
         -2    1    5    5    0  503 -0.19457795202E+02  0.16595304288E+03 -0.43240752875E+03  0.46356799841E+03  0.00000000000E+00 0.  1.
         -1    1    6    6    0  502  0.86806260275E+02 -0.30478325393E+02 -0.19223046922E+02  0.93988194337E+02  0.00000000000E+00 0.  1.
<mgrwt>
<rscale>  0 0.16879977E+04</rscale>
<asrwt>0</asrwt>
<pdfrwt beam="1">  1        1 0.38353930E-01 0.16879977E+04</pdfrwt>
<pdfrwt beam="2">  1       -1 0.43958930E+00 0.16879977E+04</pdfrwt>
<totfact> 0.40747782E-01</totfact>
</mgrwt>
</event>
<event>
12    1  0.1489233E-007  0.1683258E+04  0.7818608E-02  0.8770971E-01
          2   -1    0    0  501    0  0.00000000000E+00  0.00000000000E+00  0.69262682313E+03  0.69262682313E+03  0.00000000000E+00 0. -1.
         -2   -1    0    0    0  501 -0.00000000000E+00 -0.00000000000E+00 -0.10226860097E+04  0.10226860097E+04  0.00000000000E+00 0.  1.
         23    2    1    2    0    0  0.21249315139E+03 -0.12758916989E+03 -0.66789262933E+03  0.71831496219E+03  0.91997200661E+02 0.  0.
        254    2    1    2    0    0 -0.21249315139E+03  0.12758916989E+03  0.33783344280E+03  0.99699787061E+03  0.90467728128E+03 0.  0.
        -24    2    4    4    0    0 -0.51937466404E+03  0.25470735885E+03  0.28852005890E+03  0.65182613735E+03  0.83711460632E+02 0.  0.
         24    2    4    4    0    0  0.30688151266E+03 -0.12711818896E+03  0.49313383900E+02  0.34517173326E+03  0.79852481691E+02 0.  0.
         11    1    3    3    0    0  0.66416760077E+00 -0.16688593214E+02 -0.11118246642E+03  0.11242993863E+03  0.00000000000E+00 0. -1.
        -11    1    3    3    0    0  0.21182898379E+03 -0.11090057668E+03 -0.55671016291E+03  0.60588502356E+03  0.00000000000E+00 0.  1.
          4    1    6    6  502    0  0.20892872023E+03 -0.45063855174E+02  0.26471466848E+02  0.21536643131E+03  0.00000000000E+00 0. -1.
          3    1    5    5  503    0 -0.45316901708E+03  0.19312469468E+03  0.26003922077E+03  0.55702755953E+03  0.00000000000E+00 0. -1.
         -4    1    5    5    0  503 -0.66205646962E+02  0.61582664169E+02  0.28480838131E+02  0.94798577819E+02  0.00000000000E+00 0.  1.
         -3    1    6    6    0  502  0.97952792426E+02 -0.82054333789E+02  0.22841917052E+02  0.12980530194E+03  0.00000000000E+00 0.  1.
<mgrwt>
<rscale>  0 0.16832585E+04</rscale>
<asrwt>0</asrwt>
<pdfrwt beam="1">  1        2 0.10655797E+00 0.16832585E+04</pdfrwt>
<pdfrwt beam="2">  1       -2 0.15733631E+00 0.16832585E+04</pdfrwt>
<totfact> 0.10424884E+01</totfact>
</mgrwt>
</event>
<event>
12    1  0.1489233E-007  0.1620251E+04  0.7818608E-02  0.8808203E-01
         -2   -1    0    0    0  501 -0.00000000000E+00  0.00000000000E+00  0.58249443696E+03  0.58249443696E+03  0.00000000000E+00 0. -1.
          2   -1    0    0  501    0  0.00000000000E+00 -0.00000000000E+00 -0.11267113689E+04  0.11267113689E+04  0.00000000000E+00 0.  1.
         23    2    1    2    0    0 -0.20351807797E+03 -0.49436922530E+03 -0.35449146408E+03  0.64770900083E+03  0.89678384627E+02 0.  0.
        254    2    1    2    0    0  0.20351807797E+03  0.49436922530E+03 -0.18972546786E+03  0.10614968050E+04  0.89719517105E+03 0.  0.
        -24    2    4    4    0    0  0.39680270377E+03  0.65260821338E+03 -0.65952372071E+02  0.77067401922E+03  0.78986471216E+02 0.  0.
         24    2    4    4    0    0 -0.19328462580E+03 -0.15823898807E+03 -0.12377309579E+03  0.29082278581E+03  0.82822639339E+02 0.  0.
         11    1    3    3    0    0 -0.18152158972E+02 -0.13748497051E+03 -0.11058577550E+03  0.17737201508E+03  0.00000000000E+00 0. -1.
        -11    1    3    3    0    0 -0.18536591900E+03 -0.35688425480E+03 -0.24390568858E+03  0.47033698576E+03  0.00000000000E+00 0.  1.
          4    1    6    6  502    0 -0.19044417821E+03 -0.16647152314E+03 -0.12479201779E+03  0.28205460594E+03  0.00000000000E+00 0. -1.
          3    1    5    5  503    0  0.13460670373E+03  0.29488945927E+03 -0.35834427197E+02  0.32613319986E+03  0.00000000000E+00 0. -1.
         -4    1    5    5    0  503  0.26219600004E+03  0.35771875411E+03 -0.30117944874E+02  0.44454081936E+03  0.00000000000E+00 0.  1.
         -3    1    6    6    0  502 -0.28404475952E+01  0.82325350673E+01  0.10189219961E+01  0.87681798687E+01  0.00000000000E+00 0.  1.
<mgrwt>
<rscale>  0 0.16202507E+04</rscale>
<asrwt>0</asrwt>
<pdfrwt beam="1">  1        2 0.17334021E+00 0.16202507E+04</pdfrwt>
<pdfrwt beam="2">  1       -2 0.89614529E-01 0.16202507E+04</pdfrwt>
<totfact> 0.21441043E+01</totfact>
</mgrwt>
</event>
<event>
12    1  0.1489233E-007  0.1110261E+04  0.7818608E-02  0.9195248E-01
          1   -1    0    0  501    0  0.00000000000E+00  0.00000000000E+00  0.19980312464E+04  0.19980312464E+04  0.00000000000E+00 0. -1.
         -1   -1    0    0    0  501 -0.00000000000E+00 -0.00000000000E+00 -0.15423668218E+03  0.15423668218E+03  0.00000000000E+00 0.  1.
         23    2    1    2    0    0 -0.66019390864E+02  0.11778631301E+03  0.54851474909E+03  0.57235380126E+03  0.92131798771E+02 0.  0.
        254    2    1    2    0    0  0.66019390864E+02 -0.11778631301E+03  0.12952798151E+04  0.15799141273E+04  0.89450918088E+03 0.  0.
        -24    2    4    4    0    0  0.46210479032E+03 -0.25299144119E+02  0.85304387608E+03  0.97383245973E+03  0.80529008275E+02 0.  0.
         24    2    4    4    0    0 -0.39608539946E+03 -0.92487168893E+02  0.44223593903E+03  0.60608166756E+03  0.79528874706E+02 0.  0.
         11    1    3    3    0    0 -0.54016179955E+02  0.11877985168E+03  0.54409723883E+03  0.55952498260E+03  0.00000000000E+00 0. -1.
        -11    1    3    3    0    0 -0.12003210909E+02 -0.99353866374E+00  0.44175102668E+01  0.12828818658E+02  0.00000000000E+00 0.  1.
          4    1    6    6  502    0 -0.36082882522E+03 -0.86184485531E+02  0.36255209692E+03  0.51871883486E+03  0.00000000000E+00 0. -1.
          1    1    5    5  503    0  0.33595815896E+03 -0.53348777692E+02  0.63483245538E+03  0.72022650816E+03  0.00000000000E+00 0. -1.
         -2    1    5    5    0  503  0.12614663136E+03  0.28049633573E+02  0.21821142071E+03  0.25360595158E+03  0.00000000000E+00 0.  1.
         -3    1    6    6    0  502 -0.35256574235E+02 -0.63026833622E+01  0.79683842109E+02  0.87362832702E+02  0.00000000000E+00 0.  1.
<mgrwt>
<rscale>  0 0.11102607E+04</rscale>
<asrwt>0</asrwt>
<pdfrwt beam="1">  1        1 0.30738940E+00 0.11102607E+04</pdfrwt>
<pdfrwt beam="2">  1       -1 0.23728722E-01 0.11102607E+04</pdfrwt>
<totfact> 0.45720948E+01</totfact>
</mgrwt>
</event>
<event>
12    1  0.1489233E-007  0.1246066E+04  0.7818608E-02  0.9073464E-01
         -2   -1    0    0    0  501 -0.00000000000E+00  0.00000000000E+00  0.17345451503E+03  0.17345451503E+03  0.00000000000E+00 0.  1.
          2   -1    0    0  501    0  0.00000000000E+00 -0.00000000000E+00 -0.22378767876E+04  0.22378767876E+04  0.00000000000E+00 0. -1.
         23    2    1    2    0    0 -0.54768649958E+02 -0.19676632027E+03 -0.11303530063E+03  0.25038845643E+03  0.90558324379E+02 0.  0.
        254    2    1    2    0    0  0.54768649958E+02  0.19676632027E+03 -0.19513869719E+04  0.21609428462E+04  0.90556406754E+03 0.  0.
        -24    2    4    4    0    0 -0.33586102648E+03  0.34805295825E+03 -0.87063587555E+03  0.99911267982E+03  0.79220125837E+02 0.  0.
         24    2    4    4    0    0  0.39062967644E+03 -0.15128663797E+03 -0.10807510964E+04  0.11618301664E+04  0.79669392965E+02 0.  0.
         11    1    3    3    0    0 -0.62472519221E+02 -0.74991413775E+02 -0.73300096765E+02  0.12206322945E+03  0.00000000000E+00 0. -1.
        -11    1    3    3    0    0  0.77038692631E+01 -0.12177490650E+03 -0.39735203863E+02  0.12832522698E+03  0.00000000000E+00 0.  1.
          2    1    6    6  502    0  0.23288681242E+03 -0.84355999802E+02 -0.74119298429E+03  0.78148527949E+03  0.00000000000E+00 0. -1.
          1    1    5    5  503    0 -0.13697006013E+03  0.16058166871E+03 -0.30505221517E+03  0.37095029813E+03  0.00000000000E+00 0. -1.
         -2    1    5    5    0  503 -0.19889096635E+03  0.18747128954E+03 -0.56558366037E+03  0.62816238170E+03  0.00000000000E+00 0.  1.
         -1    1    6    6    0  502  0.15774286402E+03 -0.66930638172E+02 -0.33955811210E+03  0.38034488687E+03  0.00000000000E+00 0.  1.
<mgrwt>
<rscale>  0 0.12460655E+04</rscale>
<asrwt>0</asrwt>
<pdfrwt beam="1">  1        2 0.34428873E+00 0.12460655E+04</pdfrwt>
<pdfrwt beam="2">  1       -2 0.26685310E-01 0.12460655E+04</pdfrwt>
<totfact> 0.61770335E+01</totfact>
</mgrwt>
</event>
<event>
12    1  0.1489233E-007  0.1369250E+04  0.7818608E-02  0.8976383E-01
         -1   -1    0    0    0  501 -0.00000000000E+00  0.00000000000E+00  0.34856474026E+03  0.34856474026E+03  0.00000000000E+00 0.  1.
          1   -1    0    0  501    0  0.00000000000E+00 -0.00000000000E+00 -0.13446898238E+04  0.13446898238E+04  0.00000000000E+00 0. -1.
         23    2    1    2    0    0  0.21946348074E+03  0.30108890961E+03 -0.19820865224E+03  0.43186246631E+03  0.91650254303E+02 0.  0.
        254    2    1    2    0    0 -0.21946348074E+03 -0.30108890961E+03 -0.79791643133E+03  0.12613920978E+04  0.90311718070E+03 0.  0.
        -24    2    4    4    0    0 -0.45079198544E+03 -0.15915884984E+02 -0.75527166424E+03  0.88339926592E+03  0.80574479200E+02 0.  0.
         24    2    4    4    0    0  0.23132850470E+03 -0.28517302463E+03 -0.42644767083E+02  0.37799283185E+03  0.78888996107E+02 0.  0.
         11    1    3    3    0    0  0.81932236018E+00 -0.62821566918E+01 -0.17913958833E+01  0.65837588839E+01  0.00000000000E+00 0. -1.
        -11    1    3    3    0    0  0.21864415838E+03  0.30737106631E+03 -0.19641725636E+03  0.42527870743E+03  0.00000000000E+00 0.  1.
          4    1    6    6  502    0  0.20293823962E+03 -0.21339617609E+03 -0.11355726303E+02  0.29470461413E+03  0.00000000000E+00 0. -1.
          3    1    5    5  503    0 -0.37451829764E+03 -0.16081691310E+02 -0.56126713406E+03  0.67493953199E+03  0.00000000000E+00 0. -1.
         -4    1    5    5    0  503 -0.76273687797E+02  0.16580632585E+00 -0.19400453018E+03  0.20845973394E+03  0.00000000000E+00 0.  1.
         -3    1    6    6    0  502  0.28390265076E+02 -0.71776848540E+02 -0.31289040780E+02  0.83288217716E+02  0.00000000000E+00 0.  1.
<mgrwt>
<rscale>  0 0.13692501E+04</rscale>
<asrwt>0</asrwt>
<pdfrwt beam="1">  1        1 0.20687536E+00 0.13692501E+04</pdfrwt>
<pdfrwt beam="2">  1       -1 0.53625344E-01 0.13692501E+04</pdfrwt>
<totfact> 0.28826998E+01</totfact>
</mgrwt>
</event>
<event>
12    1  0.1489233E-007  0.1983778E+04  0.7818608E-02  0.8614243E-01
         -2   -1    0    0    0  501 -0.00000000000E+00  0.00000000000E+00  0.57648736236E+03  0.57648736236E+03  0.00000000000E+00 0.  1.
          2   -1    0    0  501    0  0.00000000000E+00 -0.00000000000E+00 -0.17066189783E+04  0.17066189783E+04  0.00000000000E+00 0. -1.
         23    2    1    2    0    0 -0.52141686792E+02 -0.70341773143E+03 -0.83432789043E+03  0.10962211112E+04  0.89902366603E+02 0.  0.
        254    2    1    2    0    0  0.52141686792E+02  0.70341773143E+03 -0.29580372549E+03  0.11868852294E+04  0.90756897447E+03 0.  0.
        -24    2    4    4    0    0  0.15916021535E+03  0.32975613553E+03  0.29365795740E+03  0.47622023860E+03  0.80496190226E+02 0.  0.
         24    2    4    4    0    0 -0.10701852856E+03  0.37366159591E+03 -0.58946168290E+03  0.71066499083E+03  0.80645519866E+02 0.  0.
         13    1    3    3    0    0 -0.53836102091E+02 -0.22175128296E+03 -0.29833856671E+03  0.37560332502E+03  0.00000000000E+00 0.  1.
        -13    1    3    3    0    0  0.16944152987E+01 -0.48166644847E+03 -0.53598932372E+03  0.72061778618E+03  0.00000000000E+00 0. -1.
          4    1    6    6  502    0 -0.10288639049E+02 -0.69231734731E+00 -0.14953325667E+02  0.18164177528E+02  0.00000000000E+00 0. -1.
          3    1    5    5  503    0  0.39857893647E+02  0.39955487155E+02  0.75963017143E+02  0.94633358882E+02  0.00000000000E+00 0. -1.
         -4    1    5    5    0  503  0.11930232170E+03  0.28980064837E+03  0.21769494026E+03  0.38158687972E+03  0.00000000000E+00 0.  1.
         -3    1    6    6    0  502 -0.96729889506E+02  0.37435391325E+03 -0.57450835723E+03  0.69250081330E+03  0.00000000000E+00 0.  1.
<mgrwt>
<rscale>  0 0.19837785E+04</rscale>
<asrwt>0</asrwt>
<pdfrwt beam="1">  1        2 0.26255677E+00 0.19837785E+04</pdfrwt>
<pdfrwt beam="2">  1       -2 0.88690364E-01 0.19837785E+04</pdfrwt>
<totfact> 0.98884631E+00</totfact>
</mgrwt>
</event>
<event>
12    1  0.1489233E-007  0.2381494E+04  0.7818608E-02  0.8446465E-01
          2   -1    0    0  501    0  0.00000000000E+00  0.00000000000E+00  0.17670210261E+04  0.17670210261E+04  0.00000000000E+00 0.  1.
         -2   -1    0    0    0  501 -0.00000000000E+00 -0.00000000000E+00 -0.80241174257E+03  0.80241174257E+03  0.00000000000E+00 0. -1.
         23    2    1    2    0    0 -0.42325349436E+03  0.18230185578E+03 -0.56066055860E+03  0.73509243726E+03  0.11680386229E+03 0.  0.
        254    2    1    2    0    0  0.42325349436E+03 -0.18230185578E+03  0.15252698421E+04  0.18343403314E+04  0.90883379831E+03 0.  0.
        -24    2    4    4    0    0  0.76424081298E+02 -0.35398582424E+03  0.13539335296E+04  0.14036910119E+04  0.77883569715E+02 0.  0.
         24    2    4    4    0    0  0.34682941306E+03  0.17168396847E+03  0.17133631248E+03  0.43064931942E+03  0.79603250843E+02 0.  0.
         13    1    3    3    0    0 -0.64346760820E+02  0.22737748055E+02 -0.16034913964E+03  0.17426806190E+03  0.00000000000E+00 0.  1.
        -13    1    3    3    0    0 -0.35890673354E+03  0.15956410772E+03 -0.40031141896E+03  0.56082437536E+03  0.00000000000E+00 0. -1.
          4    1    6    6  502    0  0.32244502863E+03  0.16985606624E+03  0.17758421211E+03  0.40541094227E+03  0.00000000000E+00 0. -1.
          1    1    5    5  503    0  0.16062405946E+02 -0.20526142974E+03  0.65658362325E+03  0.68810777480E+03  0.00000000000E+00 0. -1.
         -2    1    5    5    0  503  0.60361675352E+02 -0.14872439450E+03  0.69734990636E+03  0.71558323714E+03  0.00000000000E+00 0.  1.
         -3    1    6    6    0  502  0.24384384436E+02  0.18279022308E+01 -0.62478996346E+01  0.25238377141E+02  0.00000000000E+00 0.  1.
<mgrwt>
<rscale>  0 0.23814940E+04</rscale>
<asrwt>0</asrwt>
<pdfrwt beam="1">  1        2 0.27184939E+00 0.23814940E+04</pdfrwt>
<pdfrwt beam="2">  1       -2 0.12344796E+00 0.23814940E+04</pdfrwt>
<totfact> 0.40107121E+00</totfact>
</mgrwt>
</event>
<event>
12    1  0.1489233E-007  0.1737912E+04  0.7818608E-02  0.8740032E-01
         -1   -1    0    0    0  501 -0.00000000000E+00  0.00000000000E+00  0.19967400310E+03  0.19967400310E+03  0.00000000000E+00 0. -1.
          1   -1    0    0  501    0  0.00000000000E+00 -0.00000000000E+00 -0.37815874355E+04  0.37815874355E+04  0.00000000000E+00 0.  1.
         23    2    1    2    0    0 -0.17343671122E+03  0.48764451911E+03 -0.21794944395E+04  0.22419521045E+04  0.90971188166E+02 0.  0.
        254    2    1    2    0    0  0.17343671122E+03 -0.48764451911E+03 -0.14024189929E+04  0.17393093341E+04  0.88912342132E+03 0.  0.
        -24    2    4    4    0    0  0.52393004171E+03 -0.29969932487E+03 -0.98207970019E+03  0.11551123410E+04  0.74037887543E+02 0.  0.
         24    2    4    4    0    0 -0.35049333049E+03 -0.18794519424E+03 -0.42033929271E+03  0.58419699317E+03  0.80199969319E+02 0.  0.
         11    1    3    3    0    0 -0.87694182698E+02  0.15140826694E+03 -0.61275081816E+03  0.63724273094E+03  0.00000000000E+00 0. -1.
        -11    1    3    3    0    0 -0.85742528521E+02  0.33623625217E+03 -0.15667436213E+04  0.16047093735E+04  0.00000000000E+00 0.  1.
          2    1    6    6  502    0 -0.98119699321E+02 -0.80802273157E+02 -0.17492284509E+03  0.21622785315E+03  0.00000000000E+00 0. -1.
          1    1    5    5  503    0  0.39062770911E+03 -0.18588955720E+03 -0.68419200299E+03  0.80948355855E+03  0.00000000000E+00 0. -1.
         -4    1    5    5    0  503  0.13330233260E+03 -0.11380976767E+03 -0.29788769720E+03  0.34562878242E+03  0.00000000000E+00 0.  1.
         -1    1    6    6    0  502 -0.25237363117E+03 -0.10714292108E+03 -0.24541644762E+03  0.36796914002E+03  0.00000000000E+00 0.  1.
<mgrwt>
<rscale>  0 0.17379122E+04</rscale>
<asrwt>0</asrwt>
<pdfrwt beam="1">  1        1 0.58178257E+00 0.17379122E+04</pdfrwt>
<pdfrwt beam="2">  1       -1 0.30719083E-01 0.17379122E+04</pdfrwt>
<totfact> 0.13852188E+00</totfact>
</mgrwt>
</event>
<event>
12    1  0.1489233E-007  0.1281494E+04  0.7818608E-02  0.9044371E-01
         -2   -1    0    0    0  501 -0.00000000000E+00  0.00000000000E+00  0.30627770532E+04  0.30627770532E+04  0.00000000000E+00 0.  1.
          2   -1    0    0  501    0  0.00000000000E+00 -0.00000000000E+00 -0.13404717379E+03  0.13404717379E+03  0.00000000000E+00 0. -1.
         23    2    1    2    0    0  0.16540538964E+03 -0.10336684642E+02  0.14060180697E+04  0.14186604579E+04  0.90801391232E+02 0.  0.
        254    2    1    2    0    0 -0.16540538964E+03  0.10336684642E+02  0.15227118097E+04  0.17781637691E+04  0.90318843226E+03 0.  0.
        -24    2    4    4    0    0 -0.18409007319E+03  0.20208050026E+02 -0.45782520366E+02  0.20741737873E+03  0.81415044661E+02 0.  0.
         24    2    4    4    0    0  0.18684683551E+02 -0.98713653846E+01  0.15684943301E+04  0.15707463903E+04  0.81383032380E+02 0.  0.
         11    1    3    3    0    0  0.58921969459E+01  0.50141471457E+01  0.68143460457E+01  0.10309945125E+02  0.00000000000E+00 0. -1.
        -11    1    3    3    0    0  0.15951319269E+03 -0.15350831787E+02  0.13992037236E+04  0.14083505128E+04  0.00000000000E+00 0.  1.
          4    1    6    6  502    0  0.15137406372E+02  0.17216570554E+02  0.13088568821E+03  0.13287819517E+03  0.00000000000E+00 0. -1.
          3    1    5    5  503    0  0.60222792525E+01 -0.58005286293E+01 -0.85430921531E+01  0.11954012017E+02  0.00000000000E+00 0. -1.
         -4    1    5    5    0  503 -0.19011235244E+03  0.26008578656E+02 -0.37239428213E+02  0.19546336672E+03  0.00000000000E+00 0.  1.
         -3    1    6    6    0  502  0.35472771790E+01 -0.27087935938E+02  0.14376086419E+04  0.14378681952E+04  0.00000000000E+00 0.  1.
<mgrwt>
<rscale>  0 0.12814938E+04</rscale>
<asrwt>0</asrwt>
<pdfrwt beam="1">  1        2 0.20622644E-01 0.12814938E+04</pdfrwt>
<pdfrwt beam="2">  1       -2 0.47119642E+00 0.12814938E+04</pdfrwt>
<totfact> 0.68813187E-01</totfact>
</mgrwt>
</event>
<event>
12    1  0.1489233E-007  0.2554650E+04  0.7818608E-02  0.8383771E-01
         -1   -1    0    0    0  501 -0.00000000000E+00  0.00000000000E+00  0.12532010603E+04  0.12532010603E+04  0.00000000000E+00 0.  1.
          1   -1    0    0  501    0  0.00000000000E+00 -0.00000000000E+00 -0.13019135247E+04  0.13019135247E+04  0.00000000000E+00 0. -1.
         23    2    1    2    0    0  0.53729362076E+03  0.12000578209E+02 -0.99982991131E+03  0.11387015558E+04  0.90293593055E+02 0.  0.
        254    2    1    2    0    0 -0.53729362076E+03 -0.12000578209E+02  0.95111744694E+03  0.14164130292E+04  0.90153925177E+03 0.  0.
        -24    2    4    4    0    0 -0.13152607839E+03 -0.37868548337E+03  0.13616035322E+03  0.43171052790E+03  0.84454327894E+02 0.  0.
         24    2    4    4    0    0 -0.40576754237E+03  0.36668490516E+03  0.81495709372E+03  0.98470250125E+03  0.79867598289E+02 0.  0.
         13    1    3    3    0    0  0.24605357047E+03  0.41762900075E+02 -0.51618959378E+03  0.57335695347E+03  0.00000000000E+00 0. -1.
        -13    1    3    3    0    0  0.29124005029E+03 -0.29762321866E+02 -0.48364031753E+03  0.56534460237E+03  0.00000000000E+00 0.  1.
          2    1    6    6  502    0 -0.16438255466E+02  0.15489226199E+01  0.44080478104E+02  0.47071264631E+02  0.00000000000E+00 0. -1.
          1    1    5    5  503    0 -0.11019267766E+02 -0.11535412137E+02 -0.97082150105E+01  0.18674566500E+02  0.00000000000E+00 0. -1.
         -4    1    5    5    0  503 -0.12050681062E+03 -0.36715007123E+03  0.14586856823E+03  0.41303596140E+03  0.00000000000E+00 0.  1.
         -1    1    6    6    0  502 -0.38932928690E+03  0.36513598254E+03  0.77087661562E+03  0.93763123662E+03  0.00000000000E+00 0.  1.
<mgrwt>
<rscale>  0 0.25546502E+04</rscale>
<asrwt>0</asrwt>
<pdfrwt beam="1">  1        1 0.20029439E+00 0.25546502E+04</pdfrwt>
<pdfrwt beam="2">  1       -1 0.19280016E+00 0.25546502E+04</pdfrwt>
<totfact> 0.13466268E+00</totfact>
</mgrwt>
</event>
<event>
12    1  0.1489233E-007  0.1392723E+04  0.7818608E-02  0.8959103E-01
         -1   -1    0    0    0  501 -0.00000000000E+00  0.00000000000E+00  0.34731411702E+03  0.34731411702E+03  0.00000000000E+00 0.  1.
          1   -1    0    0  501    0  0.00000000000E+00 -0.00000000000E+00 -0.13961975400E+04  0.13961975400E+04  0.00000000000E+00 0. -1.
         23    2    1    2    0    0 -0.15597456383E+03  0.32032871119E+03 -0.54458755801E+03  0.65740669303E+03  0.93109633934E+02 0.  0.
        254    2    1    2    0    0  0.15597456383E+03 -0.32032871119E+03 -0.50429586494E+03  0.10861049640E+04  0.89351615853E+03 0.  0.
        -24    2    4    4    0    0 -0.93908247129E+02  0.26556118671E+03 -0.44357516076E+02  0.29650025935E+03  0.81260764191E+02 0.  0.
         24    2    4    4    0    0  0.24988281096E+03 -0.58588989790E+03 -0.45993834886E+03  0.78960470460E+03  0.78891780981E+02 0.  0.
         13    1    3    3    0    0 -0.83375295883E+02  0.26083978086E+03 -0.42083943122E+03  0.50209028881E+03  0.00000000000E+00 0. -1.
        -13    1    3    3    0    0 -0.72599267945E+02  0.59488930323E+02 -0.12374812679E+03  0.15531640422E+03  0.00000000000E+00 0.  1.
          2    1    6    6  502    0  0.11040773733E+03 -0.26995690402E+03 -0.16281464186E+03  0.33402875040E+03  0.00000000000E+00 0. -1.
          1    1    5    5  503    0 -0.10544405970E+02  0.70019610034E+02  0.21433166651E+02  0.73981828304E+02  0.00000000000E+00 0. -1.
         -4    1    5    5    0  503 -0.83363841159E+02  0.19554157668E+03 -0.65790682727E+02  0.22251843105E+03  0.00000000000E+00 0.  1.
         -1    1    6    6    0  502  0.13947507363E+03 -0.31593299388E+03 -0.29712370701E+03  0.45557595421E+03  0.00000000000E+00 0.  1.
<mgrwt>
<rscale>  0 0.13927227E+04</rscale>
<asrwt>0</asrwt>
<pdfrwt beam="1">  1        1 0.21479962E+00 0.13927227E+04</pdfrwt>
<pdfrwt beam="2">  1       -1 0.53432941E-01 0.13927227E+04</pdfrwt>
<totfact> 0.26646545E+01</totfact>
</mgrwt>
</event>
<event>
12    1  0.1489233E-007  0.1219668E+04  0.7818608E-02  0.9095813E-01
          1   -1    0    0  501    0  0.00000000000E+00  0.00000000000E+00  0.21877636400E+04  0.21877636400E+04  0.00000000000E+00 0. -1.
         -1   -1    0    0    0  501 -0.00000000000E+00 -0.00000000000E+00 -0.16998981303E+03  0.16998981303E+03  0.00000000000E+00 0.  1.
         23    2    1    2    0    0  0.16373945174E+03 -0.17539204159E+03  0.27398099447E+03  0.37509888408E+03  0.89780906638E+02 0.  0.
        254    2    1    2    0    0 -0.16373945174E+03  0.17539204159E+03  0.17437928325E+04  0.19826545689E+04  0.91243231025E+03 0.  0.
        -24    2    4    4    0    0 -0.48667185696E+03 -0.10947345991E+03  0.89925837122E+03  0.10313614552E+04  0.78783870643E+02 0.  0.
         24    2    4    4    0    0  0.32293240523E+03  0.28486550151E+03  0.84453446124E+03  0.95129311372E+03  0.79287071411E+02 0.  0.
         11    1    3    3    0    0  0.25256531028E+02 -0.33075488823E+02  0.10986817720E+03  0.11748572969E+03  0.00000000000E+00 0. -1.
        -11    1    3    3    0    0  0.13848292071E+03 -0.14231655277E+03  0.16411281728E+03  0.25761315439E+03  0.00000000000E+00 0.  1.
          4    1    6    6  502    0  0.15399895368E+03  0.99748717681E+02  0.41958283792E+03  0.45794676797E+03  0.00000000000E+00 0. -1.
          3    1    5    5  503    0 -0.30270905460E+03 -0.32173547037E+02  0.57544074843E+03  0.65099920416E+03  0.00000000000E+00 0. -1.
         -4    1    5    5    0  503 -0.18396280237E+03 -0.77299912874E+02  0.32381762279E+03  0.38036225104E+03  0.00000000000E+00 0.  1.
         -3    1    6    6    0  502  0.16893345155E+03  0.18511678382E+03  0.42495162332E+03  0.49334634575E+03  0.00000000000E+00 0.  1.
<mgrwt>
<rscale>  0 0.12196680E+04</rscale>
<asrwt>0</asrwt>
<pdfrwt beam="1">  1        1 0.33657900E+00 0.12196680E+04</pdfrwt>
<pdfrwt beam="2">  1       -1 0.26152281E-01 0.12196680E+04</pdfrwt>
<totfact> 0.28535645E+01</totfact>
</mgrwt>
</event>
<event>
12    1  0.1489233E-007  0.1482358E+04  0.7818608E-02  0.8896270E-01
         -1   -1    0    0    0  501 -0.00000000000E+00  0.00000000000E+00  0.43093412784E+03  0.43093412784E+03  0.00000000000E+00 0.  1.
          1   -1    0    0  501    0  0.00000000000E+00 -0.00000000000E+00 -0.12747804297E+04  0.12747804297E+04  0.00000000000E+00 0. -1.
         23    2    1    2    0    0  0.25445880975E+03  0.23213606152E+03 -0.64277850077E+03  0.73494289138E+03  0.91325875964E+02 0.  0.
        254    2    1    2    0    0 -0.25445880975E+03 -0.23213606152E+03 -0.20106780110E+03  0.97077166616E+03  0.88506097545E+03 0.  0.
        -24    2    4    4    0    0 -0.92748557596E+02  0.23526270778E+03 -0.35814350719E+03  0.44589022612E+03  0.81243371389E+02 0.  0.
         24    2    4    4    0    0 -0.16171025215E+03 -0.46739876929E+03  0.15707570610E+03  0.52488144004E+03  0.78841191451E+02 0.  0.
         13    1    3    3    0    0  0.18102114890E+03  0.15596599222E+03 -0.35134391382E+03  0.42489597887E+03  0.00000000000E+00 0. -1.
        -13    1    3    3    0    0  0.73437660847E+02  0.76170069297E+02 -0.29143458695E+03  0.31004691251E+03  0.00000000000E+00 0.  1.
          4    1    6    6  502    0 -0.79189346245E+02 -0.13884938447E+03  0.73706920217E+02  0.17601935750E+03  0.00000000000E+00 0. -1.
          3    1    5    5  503    0 -0.10703306625E+02  0.45825632858E+01  0.48855736748E+00  0.11653297700E+02  0.00000000000E+00 0. -1.
         -4    1    5    5    0  503 -0.82045250971E+02  0.23068014449E+03 -0.35863206456E+03  0.43423692842E+03  0.00000000000E+00 0.  1.
         -3    1    6    6    0  502 -0.82520905909E+02 -0.32854938482E+03  0.83368785879E+02  0.34886208254E+03  0.00000000000E+00 0.  1.
<mgrwt>
<rscale>  0 0.14823581E+04</rscale>
<asrwt>0</asrwt>
<pdfrwt beam="1">  1        1 0.19612007E+00 0.14823581E+04</pdfrwt>
<pdfrwt beam="2">  1       -1 0.66297557E-01 0.14823581E+04</pdfrwt>
<totfact> 0.21062425E+01</totfact>
</mgrwt>
</event>
<event>
12    1  0.1489233E-007  0.1317420E+04  0.7818608E-02  0.9015864E-01
          4   -1    0    0  501    0  0.00000000000E+00  0.00000000000E+00  0.18281252782E+04  0.18281252782E+04  0.00000000000E+00 0. -1.
         -4   -1    0    0    0  501 -0.00000000000E+00 -0.00000000000E+00 -0.23734619385E+03  0.23734619385E+03  0.00000000000E+00 0.  1.
         23    2    1    2    0    0  0.26089810291E+03  0.20525063901E+03  0.31142019600E+03  0.46471263735E+03  0.93699796791E+02 0.  0.
        254    2    1    2    0    0 -0.26089810291E+03 -0.20525063901E+03  0.12793588884E+04  0.16007588347E+04  0.90303601076E+03 0.  0.
        -24    2    4    4    0    0 -0.62841048725E+02 -0.53293988062E+03  0.92823264604E+03  0.10751747653E+04  0.80068827335E+02 0.  0.
         24    2    4    4    0    0 -0.19805705419E+03  0.32768924161E+03  0.35112624232E+03  0.52558406935E+03  0.79637554760E+02 0.  0.
         13    1    3    3    0    0  0.23339928963E+03  0.20953519658E+03  0.26512623134E+03  0.41069714578E+03  0.00000000000E+00 0.  1.
        -13    1    3    3    0    0  0.27498813283E+02 -0.42845575734E+01  0.46293964664E+02  0.54015491573E+02  0.00000000000E+00 0. -1.
          4    1    6    6  502    0 -0.67704144715E+01  0.26996368689E+02  0.40567053515E+01  0.28126487389E+02  0.00000000000E+00 0. -1.
          1    1    5    5  503    0 -0.63648974216E+01 -0.64290527333E+02  0.17173772670E+03  0.18348741263E+03  0.00000000000E+00 0. -1.
         -2    1    5    5    0  503 -0.56476151304E+02 -0.46864935329E+03  0.75649491934E+03  0.89168735272E+03  0.00000000000E+00 0.  1.
         -3    1    6    6    0  502 -0.19128663972E+03  0.30069287292E+03  0.34706953697E+03  0.49745758196E+03  0.00000000000E+00 0.  1.
<mgrwt>
<rscale>  0 0.13174196E+04</rscale>
<asrwt>0</asrwt>
<pdfrwt beam="1">  1        4 0.28125003E+00 0.13174196E+04</pdfrwt>
<pdfrwt beam="2">  1       -4 0.36514800E-01 0.13174196E+04</pdfrwt>
<totfact> 0.58298708E-01</totfact>
</mgrwt>
</event>
<event>
12    1  0.1489233E-007  0.1559617E+04  0.7818608E-02  0.8845749E-01
          2   -1    0    0  501    0  0.00000000000E+00  0.00000000000E+00  0.24488142423E+04  0.24488142423E+04  0.00000000000E+00 0.  1.
         -2   -1    0    0    0  501 -0.00000000000E+00 -0.00000000000E+00 -0.24832464268E+03  0.24832464268E+03  0.00000000000E+00 0. -1.
         23    2    1    2    0    0  0.11400569491E+03 -0.20984599769E+03 -0.48490445878E+02  0.26052022468E+03  0.92123954047E+02 0.  0.
        254    2    1    2    0    0 -0.11400569491E+03  0.20984599769E+03  0.22489800455E+04  0.24366186603E+04  0.90673403455E+03 0.  0.
        -24    2    4    4    0    0  0.37511885217E+03  0.15713215854E+03  0.75294848588E+03  0.85962717530E+03  0.81380523621E+02 0.  0.
         24    2    4    4    0    0 -0.48912454709E+03  0.52713839153E+02  0.14960315596E+04  0.15769914850E+04  0.82280890609E+02 0.  0.
         13    1    3    3    0    0  0.10215495981E+02 -0.58439027589E+02 -0.49013892757E+02  0.76953479368E+02  0.00000000000E+00 0.  1.
        -13    1    3    3    0    0  0.10379019893E+03 -0.15140697010E+03  0.52344687949E+00  0.18356674532E+03  0.00000000000E+00 0. -1.
          2    1    6    6  502    0 -0.24199538896E+03  0.61910335895E+02  0.81679472974E+03  0.85413598946E+03  0.00000000000E+00 0. -1.
          3    1    5    5  503    0  0.43564554720E+02  0.27193408728E+01  0.13130229011E+03  0.13836746955E+03  0.00000000000E+00 0. -1.
         -4    1    5    5    0  503  0.33155429745E+03  0.15441281766E+03  0.62164619577E+03  0.72125970575E+03  0.00000000000E+00 0.  1.
         -1    1    6    6    0  502 -0.24712915813E+03 -0.91964967421E+01  0.67923682988E+03  0.72285549552E+03  0.00000000000E+00 0.  1.
<mgrwt>
<rscale>  0 0.15596165E+04</rscale>
<asrwt>0</asrwt>
<pdfrwt beam="1">  1        2 0.37674064E+00 0.15596165E+04</pdfrwt>
<pdfrwt beam="2">  1       -2 0.38203793E-01 0.15596165E+04</pdfrwt>
<totfact> 0.23238255E+01</totfact>
</mgrwt>
</event>
<event>
12    1  0.1489233E-007  0.2565680E+04  0.7818608E-02  0.8379953E-01
          2   -1    0    0  501    0  0.00000000000E+00  0.00000000000E+00  0.30031406778E+04  0.30031406778E+04  0.00000000000E+00 0. -1.
         -2   -1    0    0    0  501 -0.00000000000E+00 -0.00000000000E+00 -0.54798599530E+03  0.54798599530E+03  0.00000000000E+00 0.  1.
         23    2    1    2    0    0 -0.79428829360E+03  0.65365076689E+03  0.55086800730E+03  0.11704361586E+04  0.91170289005E+02 0.  0.
        254    2    1    2    0    0  0.79428829360E+03 -0.65365076689E+03  0.19042866752E+04  0.23806905145E+04  0.99157771549E+03 0.  0.
        -24    2    4    4    0    0  0.64609959328E+03 -0.24377563506E+03  0.37770837494E+03  0.79115895231E+03  0.79985165056E+02 0.  0.
         24    2    4    4    0    0  0.14818870031E+03 -0.40987513183E+03  0.15265783003E+04  0.15895315621E+04  0.78814755202E+02 0.  0.
         13    1    3    3    0    0 -0.52914129421E+02  0.23992323171E+02  0.48518402841E+02  0.75693936862E+02  0.00000000000E+00 0. -1.
        -13    1    3    3    0    0 -0.74137416418E+03  0.62965844372E+03  0.50234960446E+03  0.10947422218E+04  0.00000000000E+00 0.  1.
          2    1    6    6  502    0  0.12433516719E+03 -0.27916847773E+03  0.11613569011E+04  0.12008930529E+04  0.00000000000E+00 0. -1.
          1    1    5    5  503    0  0.58264368216E+03 -0.23489074965E+03  0.36253116680E+03  0.72531108604E+03  0.00000000000E+00 0. -1.
         -4    1    5    5    0  503  0.63455911120E+02 -0.88848854120E+01  0.15177208139E+02  0.65847866266E+02  0.00000000000E+00 0.  1.
         -1    1    6    6    0  502  0.23853533121E+02 -0.13070665410E+03  0.36522139918E+03  0.38863850927E+03  0.00000000000E+00 0.  1.
<mgrwt>
<rscale>  0 0.25656804E+04</rscale>
<asrwt>0</asrwt>
<pdfrwt beam="1">  1        2 0.46202163E+00 0.25656804E+04</pdfrwt>
<pdfrwt beam="2">  1       -2 0.84305540E-01 0.25656804E+04</pdfrwt>
<totfact> 0.18875230E+00</totfact>
</mgrwt>
</event>
<event>
12    1  0.1489233E-007  0.1335186E+04  0.7818608E-02  0.9002119E-01
          2   -1    0    0  501    0  0.00000000000E+00  0.00000000000E+00  0.15401984065E+04  0.15401984065E+04  0.00000000000E+00 0. -1.
         -2   -1    0    0    0  501 -0.00000000000E+00 -0.00000000000E+00 -0.28936552335E+03  0.28936552335E+03  0.00000000000E+00 0.  1.
         23    2    1    2    0    0  0.61626522840E+02 -0.30012022683E+03  0.83201041663E+02  0.33211722259E+03  0.97516446478E+02 0.  0.
        254    2    1    2    0    0 -0.61626522840E+02  0.30012022683E+03  0.11676318415E+04  0.14974467073E+04  0.88606576788E+03 0.  0.
        -24    2    4    4    0    0 -0.92730475035E+02 -0.23348068762E+03  0.67330479939E+02  0.27160734799E+03  0.78262286326E+02 0.  0.
         24    2    4    4    0    0  0.31103952195E+02  0.53360091445E+03  0.11003013616E+04  0.12258393593E+04  0.79508847321E+02 0.  0.
         11    1    3    3    0    0 -0.96438685623E+01 -0.11217449114E+03  0.65690222976E+02  0.13035078081E+03  0.00000000000E+00 0. -1.
        -11    1    3    3    0    0  0.71270391402E+02 -0.18794573569E+03  0.17510818686E+02  0.20176644178E+03  0.00000000000E+00 0.  1.
          2    1    6    6  502    0  0.16758281998E+02  0.68468003835E+02  0.97378944285E+02  0.12021383595E+03  0.00000000000E+00 0. -1.
          3    1    5    5  503    0 -0.32408397282E+02 -0.14984091343E+02  0.16372032509E+02  0.39279392260E+02  0.00000000000E+00 0. -1.
         -4    1    5    5    0  503 -0.60322077753E+02 -0.21849659628E+03  0.50958447429E+02  0.23232795573E+03  0.00000000000E+00 0.  1.
         -1    1    6    6    0  502  0.14345670197E+02  0.46513291062E+03  0.10029224173E+04  0.11056255234E+04  0.00000000000E+00 0.  1.
<mgrwt>
<rscale>  0 0.13351859E+04</rscale>
<asrwt>0</asrwt>
<pdfrwt beam="1">  1        2 0.23695360E+00 0.13351859E+04</pdfrwt>
<pdfrwt beam="2">  1       -2 0.44517774E-01 0.13351859E+04</pdfrwt>
<totfact> 0.56355470E+01</totfact>
</mgrwt>
</event>
<event>
12    1  0.1514037E-007  0.1867634E+04  0.7818608E-02  0.8671137E-01
         -1   -1    0    0    0  501 -0.00000000000E+00  0.00000000000E+00  0.36745310798E+03  0.36745310798E+03  0.00000000000E+00 0.  1.
          1   -1    0    0  501    0  0.00000000000E+00 -0.00000000000E+00 -0.23731308066E+04  0.23731308066E+04  0.00000000000E+00 0. -1.
         23    2    1    2    0    0  0.11111127774E+03 -0.14268729680E+02  0.26170376924E+03  0.29877495912E+03  0.90709981140E+02 0.  0.
        254    2    1    2    0    0 -0.11111127774E+03  0.14268729680E+02 -0.22673814679E+04  0.24418089555E+04  0.89936807896E+03 0.  0.
        -24    2    4    4    0    0 -0.23437992903E+03 -0.10737193655E+03 -0.13590324169E+03  0.30179720529E+03  0.78416695464E+02 0.  0.
         24    2    4    4    0    0  0.12326865129E+03  0.12164066623E+03 -0.21314782262E+04  0.21400117502E+04  0.80369460188E+02 0.  0.
         11    1    3    3    0    0  0.68900280322E+02 -0.33866056579E+02  0.78693267557E+02  0.10993993258E+03  0.00000000000E+00 0. -1.
        -11    1    3    3    0    0  0.42210997416E+02  0.19597326899E+02  0.18301050168E+03  0.18883502654E+03  0.00000000000E+00 0.  1.
          4    1    6    6  502    0 -0.56828861227E+01  0.29961511617E+02 -0.24047261932E+03  0.24239857263E+03  0.00000000000E+00 0. -1.
          1    1    5    5  503    0 -0.11886119016E+02 -0.25404290291E+02 -0.33026326359E+02  0.43328928249E+02  0.00000000000E+00 0. -1.
         -2    1    5    5    0  503 -0.22249381001E+03 -0.81967646260E+02 -0.10287691533E+03  0.25846827704E+03  0.00000000000E+00 0.  1.
         -3    1    6    6    0  502  0.12895153741E+03  0.91679154614E+02 -0.18910056069E+04  0.18976131776E+04  0.00000000000E+00 0.  1.
<mgrwt>
<rscale>  0 0.18676341E+04</rscale>
<asrwt>0</asrwt>
<pdfrwt beam="1">  1        1 0.36509704E+00 0.18676341E+04</pdfrwt>
<pdfrwt beam="2">  1       -1 0.56531248E-01 0.18676341E+04</pdfrwt>
<totfact> 0.49286447E+00</totfact>
</mgrwt>
</event>
<event>
12    1  0.1489233E-007  0.2135972E+04  0.7818608E-02  0.8545561E-01
          2   -1    0    0  501    0  0.00000000000E+00  0.00000000000E+00  0.16341842507E+04  0.16341842507E+04  0.00000000000E+00 0.  1.
         -2   -1    0    0    0  501 -0.00000000000E+00 -0.00000000000E+00 -0.69795921178E+03  0.69795921178E+03  0.00000000000E+00 0. -1.
         23    2    1    2    0    0 -0.80314060741E+03  0.10712418563E+03  0.62295169998E+02  0.81780779546E+03  0.91752251693E+02 0.  0.
        254    2    1    2    0    0  0.80314060741E+03 -0.10712418563E+03  0.87392986894E+03  0.15143356670E+04  0.93431722141E+03 0.  0.
        -24    2    4    4    0    0  0.29683029761E+03 -0.22627915680E+03 -0.11137095041E+03  0.39732899934E+03  0.78462492552E+02 0.  0.
         24    2    4    4    0    0  0.50631030980E+03  0.11915497117E+03  0.98530081935E+03  0.11170066677E+04  0.79612524801E+02 0.  0.
         11    1    3    3    0    0 -0.79848831314E+03  0.10795663433E+03  0.53138685942E+02  0.80750352386E+03  0.00000000000E+00 0. -1.
        -11    1    3    3    0    0 -0.46522942771E+01 -0.83244869950E+00  0.91564840562E+01  0.10304271597E+02  0.00000000000E+00 0.  1.
          2    1    6    6  502    0  0.10262803940E+03  0.57388549214E+02  0.23444454864E+03  0.26227887151E+03  0.00000000000E+00 0. -1.
          1    1    5    5  503    0  0.12454373165E+02 -0.49265440419E+01  0.10383087222E+02  0.16946703142E+02  0.00000000000E+00 0. -1.
         -2    1    5    5    0  503  0.28437592445E+03 -0.22135261276E+03 -0.12175403764E+03  0.38038229620E+03  0.00000000000E+00 0.  1.
         -1    1    6    6    0  502  0.40368227040E+03  0.61766421955E+02  0.75085627071E+03  0.85472779619E+03  0.00000000000E+00 0.  1.
<mgrwt>
<rscale>  0 0.21359719E+04</rscale>
<asrwt>0</asrwt>
<pdfrwt beam="1">  1        2 0.25141296E+00 0.21359719E+04</pdfrwt>
<pdfrwt beam="2">  1       -2 0.10737834E+00 0.21359719E+04</pdfrwt>
<totfact> 0.68301345E+00</totfact>
</mgrwt>
</event>
<event>
12    1  0.1489233E-007  0.3422574E+04  0.7818608E-02  0.8132388E-01
          2   -1    0    0  501    0  0.00000000000E+00  0.00000000000E+00  0.47458613906E+04  0.47458613906E+04  0.00000000000E+00 0. -1.
         -2   -1    0    0    0  501 -0.00000000000E+00 -0.00000000000E+00 -0.61706479140E+03  0.61706479140E+03  0.00000000000E+00 0.  1.
         23    2    1    2    0    0 -0.26181807258E+03  0.13061514451E+04  0.32910214209E+04  0.35515610009E+04  0.90461314725E+02 0.  0.
        254    2    1    2    0    0  0.26181807258E+03 -0.13061514451E+04  0.83777517829E+03  0.18113651811E+04  0.89699290370E+03 0.  0.
        -24    2    4    4    0    0  0.22430423121E+03 -0.14053442718E+04  0.87852214176E+03  0.16743477845E+04  0.79589190773E+02 0.  0.
         24    2    4    4    0    0  0.37513841368E+02  0.99192826716E+02 -0.40746963475E+02  0.13701739664E+03  0.76595997179E+02 0.  0.
         13    1    3    3    0    0 -0.13402848539E+02  0.38966737275E+02  0.14756623170E+03  0.15321173487E+03  0.00000000000E+00 0.  1.
        -13    1    3    3    0    0 -0.24841522404E+03  0.12671847078E+04  0.31434551892E+04  0.33983492660E+04  0.00000000000E+00 0. -1.
          2    1    6    6  502    0  0.17954328880E+02  0.10766488532E+03 -0.37734065977E+02  0.11549002204E+03  0.00000000000E+00 0. -1.
          3    1    5    5  503    0  0.14542417663E+03 -0.89293545436E+03  0.51324041700E+03  0.10401430875E+04  0.00000000000E+00 0. -1.
         -4    1    5    5    0  503  0.78880054581E+02 -0.51240881747E+03  0.36528172476E+03  0.63420469698E+03  0.00000000000E+00 0.  1.
         -1    1    6    6    0  502  0.19559512488E+02 -0.84720586032E+01 -0.30128974981E+01  0.21527374598E+02  0.00000000000E+00 0.  1.
<mgrwt>
<rscale>  0 0.34225745E+04</rscale>
<asrwt>0</asrwt>
<pdfrwt beam="1">  1        2 0.73013250E+00 0.34225745E+04</pdfrwt>
<pdfrwt beam="2">  1       -2 0.94933048E-01 0.34225745E+04</pdfrwt>
<totfact> 0.52527227E-02</totfact>
</mgrwt>
</event>
<event>
12    1  0.1489233E-007  0.2225263E+04  0.7818608E-02  0.8507986E-01
         -2   -1    0    0    0  501 -0.00000000000E+00  0.00000000000E+00  0.10773846829E+04  0.10773846829E+04  0.00000000000E+00 0. -1.
          2   -1    0    0  501    0  0.00000000000E+00 -0.00000000000E+00 -0.11490315729E+04  0.11490315729E+04  0.00000000000E+00 0.  1.
         23    2    1    2    0    0  0.71399133895E+03  0.57000896280E+03  0.18109105238E+03  0.93546020807E+03  0.87166403314E+02 0.  0.
        254    2    1    2    0    0 -0.71399133895E+03 -0.57000896280E+03 -0.25273794233E+03  0.12909560477E+04  0.87635449442E+03 0.  0.
        -24    2    4    4    0    0 -0.79200451008E+03 -0.71686393412E+03 -0.15681997953E+03  0.10827726344E+04  0.81480229744E+02 0.  0.
         24    2    4    4    0    0  0.78013171131E+02  0.14685497132E+03 -0.95917962793E+02  0.20818341331E+03  0.80545890766E+02 0.  0.
         13    1    3    3    0    0  0.13884774906E+03  0.11904330907E+03  0.71749650093E+02  0.19646378582E+03  0.00000000000E+00 0. -1.
        -13    1    3    3    0    0  0.57514358989E+03  0.45096565373E+03  0.10934140229E+03  0.73899642225E+03  0.00000000000E+00 0.  1.
          4    1    6    6  502    0  0.49444684117E+02  0.79683011687E+02 -0.83006279836E+01  0.94143823822E+02  0.00000000000E+00 0. -1.
          1    1    5    5  503    0 -0.18400387141E+03 -0.16658065257E+03 -0.71498192390E+02  0.25829930317E+03  0.00000000000E+00 0. -1.
         -2    1    5    5    0  503 -0.60800063867E+03 -0.55028328155E+03 -0.85321787143E+02  0.82447333124E+03  0.00000000000E+00 0.  1.
         -3    1    6    6    0  502  0.28568487015E+02  0.67171959629E+02 -0.87617334809E+02  0.11403958948E+03  0.00000000000E+00 0.  1.
<mgrwt>
<rscale>  0 0.22252631E+04</rscale>
<asrwt>0</asrwt>
<pdfrwt beam="1">  1        2 0.17677409E+00 0.22252631E+04</pdfrwt>
<pdfrwt beam="2">  1       -2 0.16575149E+00 0.22252631E+04</pdfrwt>
<totfact> 0.42397624E+00</totfact>
</mgrwt>
</event>
<event>
12    1  0.1489233E-007  0.3179992E+04  0.7818608E-02  0.8194121E-01
         -2   -1    0    0    0  501 -0.00000000000E+00  0.00000000000E+00  0.10497212378E+04  0.10497212378E+04  0.00000000000E+00 0. -1.
          2   -1    0    0  501    0  0.00000000000E+00 -0.00000000000E+00 -0.24083418260E+04  0.24083418260E+04  0.00000000000E+00 0.  1.
         23    2    1    2    0    0 -0.96737693698E+03 -0.10034814211E+04 -0.13705880711E+03  0.14026967053E+04  0.77329358680E+02 0.  0.
        254    2    1    2    0    0  0.96737693698E+03  0.10034814211E+04 -0.12215617811E+04  0.20553663585E+04  0.88855195782E+03 0.  0.
        -24    2    4    4    0    0  0.90854987737E+03  0.53050203576E+03 -0.11589769385E+04  0.15673038997E+04  0.79490127584E+02 0.  0.
         24    2    4    4    0    0  0.58827059606E+02  0.47297938535E+03 -0.62584842571E+02  0.48806245876E+03  0.84368117287E+02 0.  0.
         11    1    3    3    0    0 -0.17790534825E+03 -0.16152320701E+03 -0.48292794891E+02  0.24509641649E+03  0.00000000000E+00 0.  1.
        -11    1    3    3    0    0 -0.78947158873E+03 -0.84195821411E+03 -0.88766012217E+02  0.11576002888E+04  0.00000000000E+00 0. -1.
          4    1    6    6  502    0  0.34672850611E+02  0.13756175969E+03 -0.53612248978E+02  0.15165657763E+03  0.00000000000E+00 0. -1.
          1    1    5    5  503    0  0.31866455983E+03  0.15768872724E+03 -0.43414692940E+03  0.56115629970E+03  0.00000000000E+00 0. -1.
         -2    1    5    5    0  503  0.58988531754E+03  0.37281330853E+03 -0.72483000913E+03  0.10061476000E+04  0.00000000000E+00 0.  1.
         -3    1    6    6    0  502  0.24154208995E+02  0.33541762567E+03 -0.89725935929E+01  0.33640588113E+03  0.00000000000E+00 0.  1.
<mgrwt>
<rscale>  0 0.31799922E+04</rscale>
<asrwt>0</asrwt>
<pdfrwt beam="1">  1        2 0.37051412E+00 0.31799922E+04</pdfrwt>
<pdfrwt beam="2">  1       -2 0.16149558E+00 0.31799922E+04</pdfrwt>
<totfact> 0.81431349E-01</totfact>
</mgrwt>
</event>
<event>
12    1  0.1489233E-007  0.1570139E+04  0.7818608E-02  0.8839106E-01
          2   -1    0    0  501    0  0.00000000000E+00  0.00000000000E+00  0.84104543836E+03  0.84104543836E+03  0.00000000000E+00 0. -1.
         -2   -1    0    0    0  501 -0.00000000000E+00 -0.00000000000E+00 -0.73281912124E+03  0.73281912124E+03  0.00000000000E+00 0.  1.
         23    2    1    2    0    0 -0.15896247343E+03 -0.22294730083E+03  0.48439044704E+03  0.56166379496E+03  0.76534609689E+02 0.  0.
        254    2    1    2    0    0  0.15896247343E+03  0.22294730083E+03 -0.37616412993E+03  0.10122007646E+04  0.89893068053E+03 0.  0.
        -24    2    4    4    0    0 -0.66600096566E+01  0.16484787031E+03 -0.65100209558E+03  0.67631341177E+03  0.79855659886E+02 0.  0.
         24    2    4    4    0    0  0.16562248309E+03  0.58099430515E+02  0.27483796565E+03  0.33588735287E+03  0.80486369813E+02 0.  0.
         11    1    3    3    0    0  0.28869828386E+00 -0.20418451991E+02  0.12280728310E+02  0.23828823223E+02  0.00000000000E+00 0.  1.
        -11    1    3    3    0    0 -0.15925117172E+03 -0.20252884884E+03  0.47210971873E+03  0.53783497174E+03  0.00000000000E+00 0. -1.
          4    1    6    6  502    0  0.80049034322E+02  0.70127986809E+02  0.16021014906E+03  0.19233583725E+03  0.00000000000E+00 0. -1.
          1    1    5    5  503    0 -0.21333446230E+02  0.98758363916E+02 -0.50986811365E+03  0.51978247728E+03  0.00000000000E+00 0. -1.
         -2    1    5    5    0  503  0.14673436573E+02  0.66089506397E+02 -0.14113398192E+03  0.15653093448E+03  0.00000000000E+00 0.  1.
         -3    1    6    6    0  502  0.85573448767E+02 -0.12028556294E+02  0.11462781659E+03  0.14355151562E+03  0.00000000000E+00 0.  1.
<mgrwt>
<rscale>  0 0.15701391E+04</rscale>
<asrwt>0</asrwt>
<pdfrwt beam="1">  1        2 0.12939161E+00 0.15701391E+04</pdfrwt>
<pdfrwt beam="2">  1       -2 0.11274140E+00 0.15701391E+04</pdfrwt>
<totfact> 0.19154698E+01</totfact>
</mgrwt>
</event>
<event>
12    1  0.1489233E-007  0.1767912E+04  0.7818608E-02  0.8723552E-01
          1   -1    0    0  501    0  0.00000000000E+00  0.00000000000E+00  0.15638122372E+04  0.15638122372E+04  0.00000000000E+00 0. -1.
         -1   -1    0    0    0  501 -0.00000000000E+00 -0.00000000000E+00 -0.49966239153E+03  0.49966239153E+03  0.00000000000E+00 0.  1.
         23    2    1    2    0    0  0.32509888306E+03  0.49990307733E+03  0.10022842126E+03  0.61211124776E+03  0.95089813936E+02 0.  0.
        254    2    1    2    0    0 -0.32509888306E+03 -0.49990307733E+03  0.96392142443E+03  0.14513633810E+04  0.90648705490E+03 0.  0.
        -24    2    4    4    0    0 -0.58868583469E+03 -0.36418622605E+03  0.38592113926E+03  0.79656575983E+03  0.79995404899E+02 0.  0.
         24    2    4    4    0    0  0.26358695163E+03 -0.13571685129E+03  0.57800028517E+03  0.65479762116E+03  0.82331344123E+02 0.  0.
         13    1    3    3    0    0  0.29368495669E+03  0.45924069818E+03  0.63184744346E+02  0.54876696745E+03  0.00000000000E+00 0. -1.
        -13    1    3    3    0    0  0.31413926366E+02  0.40662379154E+02  0.37043676914E+02  0.63344280306E+02  0.00000000000E+00 0.  1.
          4    1    6    6  502    0  0.13655834399E+03 -0.10047849248E+03  0.38925191931E+03  0.42457174358E+03  0.00000000000E+00 0. -1.
          1    1    5    5  503    0 -0.70225223165E+02 -0.38962983687E+02  0.17452644729E+02  0.82184492907E+02  0.00000000000E+00 0. -1.
         -2    1    5    5    0  503 -0.51846061152E+03 -0.32522324236E+03  0.36846849453E+03  0.71438126692E+03  0.00000000000E+00 0.  1.
         -3    1    6    6    0  502  0.12702860764E+03 -0.35238358811E+02  0.18874836587E+03  0.23022587758E+03  0.00000000000E+00 0.  1.
<mgrwt>
<rscale>  0 0.17679119E+04</rscale>
<asrwt>0</asrwt>
<pdfrwt beam="1">  1        1 0.24058650E+00 0.17679119E+04</pdfrwt>
<pdfrwt beam="2">  1       -1 0.76871138E-01 0.17679119E+04</pdfrwt>
<totfact> 0.94918731E+00</totfact>
</mgrwt>
</event>
<event>
12    1  0.1489233E-007  0.1316790E+04  0.7818608E-02  0.9016356E-01
         -1   -1    0    0    0  501 -0.00000000000E+00  0.00000000000E+00  0.46745563963E+03  0.46745563963E+03  0.00000000000E+00 0.  1.
          1   -1    0    0  501    0  0.00000000000E+00 -0.00000000000E+00 -0.92732597098E+03  0.92732597098E+03  0.00000000000E+00 0. -1.
         23    2    1    2    0    0  0.24377244409E+03 -0.18803349483E+03 -0.28806898312E+03  0.43154779290E+03  0.92022599656E+02 0.  0.
        254    2    1    2    0    0 -0.24377244409E+03  0.18803349483E+03 -0.17180134823E+03  0.96323381771E+03  0.89639393386E+03 0.  0.
        -24    2    4    4    0    0 -0.10230284077E+03  0.54213777190E+03 -0.11516105638E+03  0.56943325497E+03  0.81319911491E+02 0.  0.
         24    2    4    4    0    0 -0.14146960332E+03 -0.35410427708E+03 -0.56640291851E+02  0.39380056274E+03  0.80419356187E+02 0.  0.
         11    1    3    3    0    0  0.13851347277E+03 -0.14939183912E+03 -0.14638705412E+03  0.25086465145E+03  0.00000000000E+00 0. -1.
        -11    1    3    3    0    0  0.10525897131E+03 -0.38641655710E+02 -0.14168192900E+03  0.18068314145E+03  0.00000000000E+00 0.  1.
          2    1    6    6  502    0 -0.12907611562E+03 -0.25666042122E+03 -0.16738259201E+02  0.28777662303E+03  0.00000000000E+00 0. -1.
          1    1    5    5  503    0 -0.11635125992E+03  0.47133003695E+03 -0.10016754395E+03  0.49570470674E+03  0.00000000000E+00 0. -1.
         -4    1    5    5    0  503  0.14048419155E+02  0.70807734948E+02 -0.14993512426E+02  0.73728548230E+02  0.00000000000E+00 0.  1.
         -1    1    6    6    0  502 -0.12393487695E+02 -0.97443855860E+02 -0.39902032650E+02  0.10602393971E+03  0.00000000000E+00 0.  1.
<mgrwt>
<rscale>  0 0.13167897E+04</rscale>
<asrwt>0</asrwt>
<pdfrwt beam="1">  1        1 0.14266553E+00 0.13167897E+04</pdfrwt>
<pdfrwt beam="2">  1       -1 0.71916254E-01 0.13167897E+04</pdfrwt>
<totfact> 0.33108550E+01</totfact>
</mgrwt>
</event>
<event>
12    1  0.1739899E-007  0.1980511E+04  0.7818608E-02  0.8615787E-01
         -2   -1    0    0    0  501 -0.00000000000E+00  0.00000000000E+00  0.84938149251E+03  0.84938149251E+03  0.00000000000E+00 0.  1.
          2   -1    0    0  501    0  0.00000000000E+00 -0.00000000000E+00 -0.11544939900E+04  0.11544939900E+04  0.00000000000E+00 0. -1.
         23    2    1    2    0    0  0.29030987311E+03  0.49692465208E+03 -0.65958760094E+03  0.87999649654E+03  0.90133780151E+02 0.  0.
        254    2    1    2    0    0 -0.29030987311E+03 -0.49692465208E+03  0.35447510344E+03  0.11238789860E+04  0.89790725796E+03 0.  0.
        -24    2    4    4    0    0  0.21530843917E+03 -0.11132624026E+03  0.40755786273E+03  0.48088302284E+03  0.79961330865E+02 0.  0.
         24    2    4    4    0    0 -0.50561831228E+03 -0.38559841182E+03 -0.53082759292E+02  0.64299596314E+03  0.79309623472E+02 0.  0.
         11    1    3    3    0    0  0.25648281827E+03  0.47898622962E+03 -0.62749251425E+03  0.83003499906E+03  0.00000000000E+00 0. -1.
        -11    1    3    3    0    0  0.33827054843E+02  0.17938422463E+02 -0.32095086697E+02  0.49961497475E+02  0.00000000000E+00 0.  1.
          2    1    6    6  502    0 -0.13452840029E+02 -0.19988081952E+01  0.83828063790E+01  0.15976407038E+02  0.00000000000E+00 0. -1.
          3    1    5    5  503    0 -0.17685896510E+01  0.75239900367E+01  0.11263323940E+02  0.13660190395E+02  0.00000000000E+00 0. -1.
         -4    1    5    5    0  503  0.21707702882E+03 -0.11885023030E+03  0.39629453879E+03  0.46722283244E+03  0.00000000000E+00 0.  1.
         -1    1    6    6    0  502 -0.49216547225E+03 -0.38359960362E+03 -0.61465565671E+02  0.62701955611E+03  0.00000000000E+00 0.  1.
<mgrwt>
<rscale>  0 0.19805109E+04</rscale>
<asrwt>0</asrwt>
<pdfrwt beam="1">  1        2 0.17761446E+00 0.19805109E+04</pdfrwt>
<pdfrwt beam="2">  1       -2 0.13067408E+00 0.19805109E+04</pdfrwt>
<totfact> 0.80480567E+00</totfact>
</mgrwt>
</event>
<event>
12    1  0.1489233E-007  0.1567634E+04  0.7818608E-02  0.8840682E-01
          1   -1    0    0  501    0  0.00000000000E+00  0.00000000000E+00  0.15005466436E+04  0.15005466436E+04  0.00000000000E+00 0. -1.
         -1   -1    0    0    0  501 -0.00000000000E+00 -0.00000000000E+00 -0.40943029270E+03  0.40943029270E+03  0.00000000000E+00 0.  1.
         23    2    1    2    0    0  0.52170650394E+03  0.44617345726E+02  0.32456967942E+03  0.62288178687E+03  0.92020974902E+02 0.  0.
        254    2    1    2    0    0 -0.52170650394E+03 -0.44617345726E+02  0.76654667145E+03  0.12870951494E+04  0.89154458122E+03 0.  0.
        -24    2    4    4    0    0 -0.51617651699E+03 -0.40362440903E+03  0.55810406679E+03  0.86415755443E+03  0.77053677702E+02 0.  0.
         24    2    4    4    0    0 -0.55299869463E+01  0.35900706330E+03  0.20844260465E+03  0.42293759496E+03  0.80692239674E+02 0.  0.
         11    1    3    3    0    0  0.34252417547E+03  0.15708650497E+02  0.25972260908E+03  0.43014579639E+03  0.00000000000E+00 0.  1.
        -11    1    3    3    0    0  0.17918232847E+03  0.28908695229E+02  0.64847070339E+02  0.19273599048E+03  0.00000000000E+00 0. -1.
          4    1    6    6  502    0  0.10895482144E+02  0.21672471027E+03  0.16704591254E+03  0.27384785643E+03  0.00000000000E+00 0. -1.
          3    1    5    5  503    0 -0.34603543515E+03 -0.24243291176E+03  0.31961624362E+03  0.52978182516E+03  0.00000000000E+00 0. -1.
         -4    1    5    5    0  503 -0.17014108184E+03 -0.16119149727E+03  0.23848782317E+03  0.33437572927E+03  0.00000000000E+00 0.  1.
         -3    1    6    6    0  502 -0.16425469090E+02  0.14228235303E+03  0.41396692107E+02  0.14908973854E+03  0.00000000000E+00 0.  1.
<mgrwt>
<rscale>  0 0.15676342E+04</rscale>
<asrwt>0</asrwt>
<pdfrwt beam="1">  1        1 0.23085333E+00 0.15676342E+04</pdfrwt>
<pdfrwt beam="2">  1       -1 0.62989277E-01 0.15676342E+04</pdfrwt>
<totfact> 0.16073502E+01</totfact>
</mgrwt>
</event>
<event>
12    1  0.1489233E-007  0.1571216E+04  0.7818608E-02  0.8838429E-01
         -3   -1    0    0    0  501 -0.00000000000E+00  0.00000000000E+00  0.13036668523E+04  0.13036668523E+04  0.00000000000E+00 0.  1.
          3   -1    0    0  501    0  0.00000000000E+00 -0.00000000000E+00 -0.47341823252E+03  0.47341823252E+03  0.00000000000E+00 0. -1.
         23    2    1    2    0    0  0.38017295744E+03 -0.77540216982E+02  0.67218155144E+03  0.78161300199E+03  0.92449358960E+02 0.  0.
        254    2    1    2    0    0 -0.38017295744E+03  0.77540216982E+02  0.15806706839E+03  0.99547208287E+03  0.90301467698E+03 0.  0.
        -24    2    4    4    0    0 -0.38715879973E+03 -0.20288854700E+03  0.41330525655E+03  0.60775714174E+03  0.86555239772E+02 0.  0.
         24    2    4    4    0    0  0.69858422888E+01  0.28042876399E+03 -0.25523818816E+03  0.38771494113E+03  0.80543461651E+02 0.  0.
         11    1    3    3    0    0  0.17744428221E+02  0.90122544104E+00  0.52550186647E+01  0.18528145114E+02  0.00000000000E+00 0. -1.
        -11    1    3    3    0    0  0.36242852922E+03 -0.78441442423E+02  0.66692653277E+03  0.76308485688E+03  0.00000000000E+00 0.  1.
          2    1    6    6  502    0 -0.24931485820E+02  0.16293463701E+03 -0.18237707071E+03  0.24582650558E+03  0.00000000000E+00 0. -1.
          3    1    5    5  503    0 -0.46927110688E+02 -0.34273540925E+02  0.99160114245E+02  0.11493283944E+03  0.00000000000E+00 0. -1.
         -4    1    5    5    0  503 -0.34023168904E+03 -0.16861500608E+03  0.31414514231E+03  0.49282430230E+03  0.00000000000E+00 0.  1.
         -1    1    6    6    0  502  0.31917328109E+02  0.11749412697E+03 -0.72861117452E+02  0.14188843555E+03  0.00000000000E+00 0.  1.
<mgrwt>
<rscale>  0 0.15712157E+04</rscale>
<asrwt>0</asrwt>
<pdfrwt beam="1">  1        3 0.72833575E-01 0.15712157E+04</pdfrwt>
<pdfrwt beam="2">  1       -3 0.20056413E+00 0.15712157E+04</pdfrwt>
<totfact> 0.65432851E-01</totfact>
</mgrwt>
</event>
<event>
12    1  0.1489233E-007  0.1554786E+04  0.7818608E-02  0.8848816E-01
         -1   -1    0    0    0  501 -0.00000000000E+00  0.00000000000E+00  0.46589071958E+03  0.46589071958E+03  0.00000000000E+00 0.  1.
          1   -1    0    0  501    0  0.00000000000E+00 -0.00000000000E+00 -0.12971712328E+04  0.12971712328E+04  0.00000000000E+00 0. -1.
         23    2    1    2    0    0 -0.21488142811E+03  0.33359393268E+03 -0.64572423203E+03  0.76324695141E+03  0.90150900947E+02 0.  0.
        254    2    1    2    0    0  0.21488142811E+03 -0.33359393268E+03 -0.18555628122E+03  0.99981500099E+03  0.89874354665E+03 0.  0.
        -24    2    4    4    0    0  0.23984842845E+03 -0.20310310428E+03 -0.53028411522E+03  0.62187711901E+03  0.82169146840E+02 0.  0.
         24    2    4    4    0    0 -0.24967000345E+02 -0.13049082840E+03  0.34472783400E+03  0.37793788198E+03  0.79677824390E+02 0.  0.
         13    1    3    3    0    0 -0.17287483513E+03  0.29175283155E+03 -0.48388486797E+03  0.59088915101E+03  0.00000000000E+00 0. -1.
        -13    1    3    3    0    0 -0.42006592976E+02  0.41841101130E+02 -0.16183936407E+03  0.17235780040E+03  0.00000000000E+00 0.  1.
          2    1    6    6  502    0  0.25148933733E+02 -0.75329861579E+02  0.15662201061E+03  0.17560612496E+03  0.00000000000E+00 0. -1.
          3    1    5    5  503    0  0.15551213560E+03 -0.15952671215E+03 -0.42680465988E+03  0.48145094652E+03  0.00000000000E+00 0. -1.
         -4    1    5    5    0  503  0.84336292847E+02 -0.43576392125E+02 -0.10347945534E+03  0.14042617249E+03  0.00000000000E+00 0.  1.
         -1    1    6    6    0  502 -0.50115934078E+02 -0.55160966822E+02  0.18810582339E+03  0.20233175703E+03  0.00000000000E+00 0.  1.
<mgrwt>
<rscale>  0 0.15547862E+04</rscale>
<asrwt>0</asrwt>
<pdfrwt beam="1">  1        1 0.19956481E+00 0.15547862E+04</pdfrwt>
<pdfrwt beam="2">  1       -1 0.71675495E-01 0.15547862E+04</pdfrwt>
<totfact> 0.17197988E+01</totfact>
</mgrwt>
</event>
<event>
12    1  0.1489233E-007  0.2260547E+04  0.7818608E-02  0.8493641E-01
         -1   -1    0    0    0  501 -0.00000000000E+00  0.00000000000E+00  0.49088592985E+03  0.49088592985E+03  0.00000000000E+00 0.  1.
          1   -1    0    0  501    0  0.00000000000E+00 -0.00000000000E+00 -0.26024738988E+04  0.26024738988E+04  0.00000000000E+00 0. -1.
         23    2    1    2    0    0 -0.57157555324E+03 -0.59631313900E+03 -0.24313045360E+03  0.86562342905E+03  0.88901803462E+02 0.  0.
        254    2    1    2    0    0  0.57157555324E+03  0.59631313900E+03 -0.18684575153E+04  0.22277363996E+04  0.88847510181E+03 0.  0.
        -24    2    4    4    0    0  0.40327210892E+03  0.85109420675E+00 -0.22307261643E+03  0.46802295744E+03  0.81578050328E+02 0.  0.
         24    2    4    4    0    0  0.16830344433E+03  0.59546204479E+03 -0.16453848989E+04  0.17597134421E+04  0.79992729143E+02 0.  0.
         13    1    3    3    0    0 -0.46935266579E+02 -0.19940139085E+02 -0.86588154659E+01  0.51725269268E+02  0.00000000000E+00 0. -1.
        -13    1    3    3    0    0 -0.52464028666E+03 -0.57637299991E+03 -0.23447163813E+03  0.81389815979E+03  0.00000000000E+00 0.  1.
          2    1    6    6  502    0  0.12806321553E+03  0.52575757905E+03 -0.14789787000E+04  0.15748648241E+04  0.00000000000E+00 0. -1.
          3    1    5    5  503    0  0.37557067622E+03  0.17680516075E+01 -0.22871875458E+03  0.43973711185E+03  0.00000000000E+00 0. -1.
         -4    1    5    5    0  503  0.27701432700E+02 -0.91695740071E+00  0.56461381526E+01  0.28285845587E+02  0.00000000000E+00 0.  1.
         -1    1    6    6    0  502  0.40240228792E+02  0.69704465738E+02 -0.16640619886E+03  0.18484861800E+03  0.00000000000E+00 0.  1.
<mgrwt>
<rscale>  0 0.22605467E+04</rscale>
<asrwt>0</asrwt>
<pdfrwt beam="1">  1        1 0.40038059E+00 0.22605467E+04</pdfrwt>
<pdfrwt beam="2">  1       -1 0.75520915E-01 0.22605467E+04</pdfrwt>
<totfact> 0.18367896E+00</totfact>
</mgrwt>
</event>
<event>
12    1  0.1489233E-007  0.2545446E+04  0.7818608E-02  0.8386972E-01
         -2   -1    0    0    0  501 -0.00000000000E+00  0.00000000000E+00  0.11270552255E+04  0.11270552255E+04  0.00000000000E+00 0.  1.
          2   -1    0    0  501    0  0.00000000000E+00 -0.00000000000E+00 -0.14372180575E+04  0.14372180575E+04  0.00000000000E+00 0. -1.
         23    2    1    2    0    0 -0.16790022597E+03 -0.10153109877E+04 -0.28420252684E+03  0.10713846394E+04  0.89705527143E+02 0.  0.
        254    2    1    2    0    0  0.16790022597E+03  0.10153109877E+04 -0.25960305174E+02  0.14928886436E+04  0.10812010346E+04 0.  0.
        -24    2    4    4    0    0 -0.34600392527E+03  0.52125554484E+01  0.22201414685E+02  0.35579808746E+03  0.79708777384E+02 0.  0.
         24    2    4    4    0    0  0.51390415124E+03  0.10100984322E+04 -0.48161719859E+02  0.11370905562E+04  0.79114235310E+02 0.  0.
         11    1    3    3    0    0 -0.14560738521E+03 -0.84792156067E+03 -0.27098510305E+03  0.90200078146E+03  0.00000000000E+00 0.  1.
        -11    1    3    3    0    0 -0.22292840757E+02 -0.16738942701E+03 -0.13217423783E+02  0.16938385790E+03  0.00000000000E+00 0. -1.
          4    1    6    6  502    0  0.32599710317E+03  0.56270933360E+03 -0.44296109357E+02  0.65182670297E+03  0.00000000000E+00 0. -1.
          1    1    5    5  503    0 -0.27811497065E+03 -0.11254985243E+02  0.45751549641E+02  0.28207767704E+03  0.00000000000E+00 0. -1.
         -2    1    5    5    0  503 -0.67888954620E+02  0.16467540691E+02 -0.23550134956E+02  0.73720410418E+02  0.00000000000E+00 0.  1.
         -3    1    6    6    0  502  0.18790704807E+03  0.44738909863E+03 -0.38656105027E+01  0.48526385321E+03  0.00000000000E+00 0.  1.
<mgrwt>
<rscale>  0 0.25454462E+04</rscale>
<asrwt>0</asrwt>
<pdfrwt beam="1">  1        2 0.22111047E+00 0.25454462E+04</pdfrwt>
<pdfrwt beam="2">  1       -2 0.17339311E+00 0.25454462E+04</pdfrwt>
<totfact> 0.24694065E+00</totfact>
</mgrwt>
</event>
<event>
12    1  0.1489233E-007  0.2454479E+04  0.7818608E-02  0.8419384E-01
         -1   -1    0    0    0  501 -0.00000000000E+00  0.00000000000E+00  0.12728900290E+04  0.12728900290E+04  0.00000000000E+00 0.  1.
          1   -1    0    0  501    0  0.00000000000E+00 -0.00000000000E+00 -0.11832261635E+04  0.11832261635E+04  0.00000000000E+00 0. -1.
         23    2    1    2    0    0 -0.99044045993E+03 -0.18982382900E+03  0.36297676389E+03  0.10756701378E+04  0.91152199157E+02 0.  0.
        254    2    1    2    0    0  0.99044045993E+03  0.18982382900E+03 -0.27331289834E+03  0.13804460547E+04  0.90217846288E+03 0.  0.
        -24    2    4    4    0    0 -0.67773473554E+02 -0.50004298888E+02 -0.26795465727E+03  0.29245472707E+03  0.81464074337E+02 0.  0.
         24    2    4    4    0    0  0.10582139335E+04  0.23982812789E+03 -0.53582410679E+01  0.10879913276E+04  0.79763139034E+02 0.  0.
         11    1    3    3    0    0 -0.22521021842E+03 -0.82075400311E+02  0.92356668315E+02  0.25687695108E+03  0.00000000000E+00 0. -1.
        -11    1    3    3    0    0 -0.76523024151E+03 -0.10774842869E+03  0.27062009558E+03  0.81879318667E+03  0.00000000000E+00 0.  1.
          4    1    6    6  502    0  0.33115859412E+02 -0.18070125391E+01 -0.10497062456E+02  0.34786689396E+02  0.00000000000E+00 0. -1.
          3    1    5    5  503    0 -0.43599533260E+02 -0.19697787015E+02 -0.43452457421E+02  0.64630009822E+02  0.00000000000E+00 0. -1.
         -4    1    5    5    0  503 -0.24173940294E+02 -0.30306511873E+02 -0.22450219985E+03  0.22782471725E+03  0.00000000000E+00 0.  1.
         -3    1    6    6    0  502  0.10250980741E+04  0.24163514043E+03  0.51388213879E+01  0.10532046383E+04  0.00000000000E+00 0.  1.
<mgrwt>
<rscale>  0 0.24544790E+04</rscale>
<asrwt>0</asrwt>
<pdfrwt beam="1">  1        1 0.18203479E+00 0.24544790E+04</pdfrwt>
<pdfrwt beam="2">  1       -1 0.19582924E+00 0.24544790E+04</pdfrwt>
<totfact> 0.15772639E+00</totfact>
</mgrwt>
</event>
<event>
12    1  0.1489233E-007  0.1321717E+04  0.7818608E-02  0.9012518E-01
          2   -1    0    0  501    0  0.00000000000E+00  0.00000000000E+00  0.34743398244E+04  0.34743398244E+04  0.00000000000E+00 0. -1.
         -2   -1    0    0    0  501 -0.00000000000E+00 -0.00000000000E+00 -0.12570276352E+03  0.12570276352E+03  0.00000000000E+00 0.  1.
         23    2    1    2    0    0 -0.11727067221E+03  0.27356006888E+02  0.25465076618E+02  0.15352878447E+03  0.91770669933E+02 0.  0.
        254    2    1    2    0    0  0.11727067221E+03 -0.27356006888E+02  0.33231719843E+04  0.34465138035E+04  0.90580604920E+03 0.  0.
        -24    2    4    4    0    0  0.36362859755E+03 -0.25789885614E+03  0.26580927973E+04  0.26963816995E+04  0.79242498505E+02 0.  0.
         24    2    4    4    0    0 -0.24635792535E+03  0.23054284925E+03  0.66507918704E+03  0.75013210400E+03  0.80781283072E+02 0.  0.
         13    1    3    3    0    0 -0.22996783958E+02  0.23795289545E+01  0.48137586803E+02  0.53401699351E+02  0.00000000000E+00 0. -1.
        -13    1    3    3    0    0 -0.94273888252E+02  0.24976477934E+02 -0.22672510184E+02  0.10012708512E+03  0.00000000000E+00 0.  1.
          4    1    6    6  502    0 -0.12811190725E+02  0.32559167907E+02  0.34420828082E+02  0.49081762687E+02  0.00000000000E+00 0. -1.
          3    1    5    5  503    0  0.16411864918E+03 -0.74362573844E+02  0.11711642451E+04  0.11849432107E+04  0.00000000000E+00 0. -1.
         -2    1    5    5    0  503  0.19950994837E+03 -0.18353628230E+03  0.14869285521E+04  0.15114384888E+04  0.00000000000E+00 0.  1.
         -3    1    6    6    0  502 -0.23354673462E+03  0.19798368135E+03  0.63065835896E+03  0.70105034131E+03  0.00000000000E+00 0.  1.
<mgrwt>
<rscale>  0 0.13217172E+04</rscale>
<asrwt>0</asrwt>
<pdfrwt beam="1">  1        2 0.53451375E+00 0.13217172E+04</pdfrwt>
<pdfrwt beam="2">  1       -2 0.19338889E-01 0.13217172E+04</pdfrwt>
<totfact> 0.19171244E+01</totfact>
</mgrwt>
</event>
<event>
12    1  0.2054107E-007  0.1460939E+04  0.7818608E-02  0.8910852E-01
         -2   -1    0    0    0  501 -0.00000000000E+00  0.00000000000E+00  0.34645076756E+03  0.34645076756E+03  0.00000000000E+00 0.  1.
          2   -1    0    0  501    0  0.00000000000E+00 -0.00000000000E+00 -0.15401480953E+04  0.15401480953E+04  0.00000000000E+00 0. -1.
         23    2    1    2    0    0  0.24229863796E+03 -0.14934982597E+03  0.73949132951E+02  0.30811386421E+03  0.91933011363E+02 0.  0.
        254    2    1    2    0    0 -0.24229863796E+03  0.14934982597E+03 -0.12676464607E+04  0.15784849987E+04  0.89647829935E+03 0.  0.
        -24    2    4    4    0    0  0.24878640976E+03  0.31454738232E+03 -0.65874843724E+03  0.77529124526E+03  0.79323880398E+02 0.  0.
         24    2    4    4    0    0 -0.49108504772E+03 -0.16519755635E+03 -0.60889802349E+03  0.80319375343E+03  0.76867716377E+02 0.  0.
         11    1    3    3    0    0  0.34229205129E+02  0.11473366255E+02  0.10354975441E+02  0.37556652319E+02  0.00000000000E+00 0. -1.
        -11    1    3    3    0    0  0.20806943283E+03 -0.16082319222E+03  0.63594157510E+02  0.27055721189E+03  0.00000000000E+00 0.  1.
          4    1    6    6  502    0 -0.40964987008E+03 -0.14778574968E+03 -0.46611356182E+03  0.63789928388E+03  0.00000000000E+00 0. -1.
          1    1    5    5  503    0  0.23273115196E+03  0.31590390106E+03 -0.62626056532E+03  0.73902730631E+03  0.00000000000E+00 0. -1.
         -2    1    5    5    0  503  0.16055257801E+02 -0.13565187382E+01 -0.32487871925E+02  0.36263938953E+02  0.00000000000E+00 0.  1.
         -3    1    6    6    0  502 -0.81435177642E+02 -0.17411806673E+02 -0.14278446167E+03  0.16529446955E+03  0.00000000000E+00 0.  1.
<mgrwt>
<rscale>  0 0.14609387E+04</rscale>
<asrwt>0</asrwt>
<pdfrwt beam="1">  1        2 0.23694586E+00 0.14609387E+04</pdfrwt>
<pdfrwt beam="2">  1       -2 0.53300118E-01 0.14609387E+04</pdfrwt>
<totfact> 0.38734987E+01</totfact>
</mgrwt>
</event>
<event>
12    1  0.1489233E-007  0.4787741E+04  0.7818608E-02  0.7862111E-01
          2   -1    0    0  501    0  0.00000000000E+00  0.00000000000E+00  0.30991748576E+04  0.30991748576E+04  0.00000000000E+00 0. -1.
         -2   -1    0    0    0  501 -0.00000000000E+00 -0.00000000000E+00 -0.18490776358E+04  0.18490776358E+04  0.00000000000E+00 0.  1.
         23    2    1    2    0    0 -0.12367769261E+04  0.73893484811E+03 -0.12594803669E+04  0.19158390019E+04  0.92230212282E+02 0.  0.
        254    2    1    2    0    0  0.12367769261E+04 -0.73893484811E+03  0.25095775887E+04  0.30324134914E+04  0.90659254074E+03 0.  0.
        -24    2    4    4    0    0 -0.74071558214E+02 -0.24705906774E+03  0.64542871710E+03  0.69970549488E+03  0.80528082172E+02 0.  0.
         24    2    4    4    0    0  0.13108484843E+04 -0.49187578037E+03  0.18641488716E+04  0.23327079966E+04  0.78803869179E+02 0.  0.
         11    1    3    3    0    0 -0.12017359671E+04  0.71479562775E+03 -0.12406469793E+04  0.18693065696E+04  0.00000000000E+00 0.  1.
        -11    1    3    3    0    0 -0.35040958947E+02  0.24139220358E+02 -0.18833387600E+02  0.46532432259E+02  0.00000000000E+00 0. -1.
          2    1    6    6  502    0  0.15439058344E+03 -0.33565232029E+02  0.19393801421E+03  0.25015001581E+03  0.00000000000E+00 0. -1.
          1    1    5    5  503    0  0.13338022544E+02 -0.79804153508E+01  0.41866578108E+02  0.44658708413E+02  0.00000000000E+00 0. -1.
         -2    1    5    5    0  503 -0.87409580758E+02 -0.23907865239E+03  0.60356213899E+03  0.65504678647E+03  0.00000000000E+00 0.  1.
         -1    1    6    6    0  502  0.11564579008E+04 -0.45831054834E+03  0.16702108573E+04  0.20825579807E+04  0.00000000000E+00 0.  1.
<mgrwt>
<rscale>  0 0.47877406E+04</rscale>
<asrwt>0</asrwt>
<pdfrwt beam="1">  1        2 0.47679613E+00 0.47877406E+04</pdfrwt>
<pdfrwt beam="2">  1       -2 0.28447348E+00 0.47877406E+04</pdfrwt>
<totfact> 0.44084364E-02</totfact>
</mgrwt>
</event>
<event>
12    1  0.1489233E-007  0.1998491E+04  0.7818608E-02  0.8607327E-01
         -1   -1    0    0    0  501 -0.00000000000E+00  0.00000000000E+00  0.29155873322E+03  0.29155873322E+03  0.00000000000E+00 0.  1.
          1   -1    0    0  501    0  0.00000000000E+00 -0.00000000000E+00 -0.34246657146E+04  0.34246657146E+04  0.00000000000E+00 0. -1.
         23    2    1    2    0    0 -0.38611949357E+03 -0.69020623818E+03 -0.12957390608E+04  0.15207869203E+04  0.91543590109E+02 0.  0.
        254    2    1    2    0    0  0.38611949357E+03  0.69020623818E+03 -0.18373679206E+04  0.21954375275E+04  0.90473871748E+03 0.  0.
        -24    2    4    4    0    0  0.22542269728E+03  0.14878035431E+03 -0.15134801149E+04  0.15394616866E+04  0.79807517922E+02 0.  0.
         24    2    4    4    0    0  0.16069679628E+03  0.54142588387E+03 -0.32388780572E+03  0.65597584094E+03  0.80221849529E+02 0.  0.
         13    1    3    3    0    0 -0.53133507716E+02 -0.43187175711E+02 -0.11214849748E+03  0.13139858171E+03  0.00000000000E+00 0.  1.
        -13    1    3    3    0    0 -0.33298598585E+03 -0.64701906247E+03 -0.11835905633E+04  0.13893883386E+04  0.00000000000E+00 0. -1.
          4    1    6    6  502    0  0.11623692691E+03  0.38280583655E+03 -0.18617429376E+03  0.44126205290E+03  0.00000000000E+00 0. -1.
          1    1    5    5  503    0  0.14255547337E+03  0.10521498225E+03 -0.11745743130E+04  0.11878623962E+04  0.00000000000E+00 0. -1.
         -2    1    5    5    0  503  0.82867223913E+02  0.43565372066E+02 -0.33890580188E+03  0.35159929037E+03  0.00000000000E+00 0.  1.
         -1    1    6    6    0  502  0.44459869369E+02  0.15862004733E+03 -0.13771351197E+03  0.21471378804E+03  0.00000000000E+00 0.  1.
<mgrwt>
<rscale>  0 0.19984906E+04</rscale>
<asrwt>0</asrwt>
<pdfrwt beam="1">  1        1 0.52687164E+00 0.19984906E+04</pdfrwt>
<pdfrwt beam="2">  1       -1 0.44855190E-01 0.19984906E+04</pdfrwt>
<totfact> 0.13138612E+00</totfact>
</mgrwt>
</event>
<event>
12    1  0.1489233E-007  0.1410857E+04  0.7818608E-02  0.8945997E-01
          2   -1    0    0  501    0  0.00000000000E+00  0.00000000000E+00  0.20344337156E+04  0.20344337156E+04  0.00000000000E+00 0.  1.
         -2   -1    0    0    0  501 -0.00000000000E+00 -0.00000000000E+00 -0.24460331253E+03  0.24460331253E+03  0.00000000000E+00 0. -1.
         23    2    1    2    0    0 -0.40331334608E+03 -0.46821686471E+02  0.55997625419E+03  0.69764866812E+03  0.91029299783E+02 0.  0.
        254    2    1    2    0    0  0.40331334608E+03  0.46821686471E+02  0.12298541489E+04  0.15813883601E+04  0.90741059740E+03 0.  0.
        -24    2    4    4    0    0  0.64216829565E+02  0.12951289234E+03 -0.10731256499E+03  0.19718392684E+03  0.80424647453E+02 0.  0.
         24    2    4    4    0    0  0.33909651651E+03 -0.82691205865E+02  0.13371667139E+04  0.13842044332E+04  0.78630840853E+02 0.  0.
         13    1    3    3    0    0 -0.33451773493E+03 -0.47697379041E+02  0.51320102258E+03  0.61445296364E+03  0.00000000000E+00 0.  1.
        -13    1    3    3    0    0 -0.68795611151E+02  0.87569257045E+00  0.46775231608E+02  0.83195704476E+02  0.00000000000E+00 0. -1.
          4    1    6    6  502    0  0.21222917948E+03 -0.89787880907E+02  0.88754096287E+03  0.91696894655E+03  0.00000000000E+00 0. -1.
          3    1    5    5  503    0  0.31482624738E+02  0.76582882157E+02 -0.12454782467E+02  0.83732998908E+02  0.00000000000E+00 0. -1.
         -4    1    5    5    0  503  0.32734204827E+02  0.52930010179E+02 -0.94857782520E+02  0.11345092793E+03  0.00000000000E+00 0.  1.
         -3    1    6    6    0  502  0.12686733703E+03  0.70966750416E+01  0.44962575104E+03  0.46723548667E+03  0.00000000000E+00 0.  1.
<mgrwt>
<rscale>  0 0.14108568E+04</rscale>
<asrwt>0</asrwt>
<pdfrwt beam="1">  1        2 0.31298979E+00 0.14108568E+04</pdfrwt>
<pdfrwt beam="2">  1       -2 0.37631280E-01 0.14108568E+04</pdfrwt>
<totfact> 0.41446760E+01</totfact>
</mgrwt>
</event>
<event>
12    1  0.1489233E-007  0.1499538E+04  0.7818608E-02  0.8884760E-01
          1   -1    0    0  501    0  0.00000000000E+00  0.00000000000E+00  0.33645274275E+03  0.33645274275E+03  0.00000000000E+00 0. -1.
         -1   -1    0    0    0  501 -0.00000000000E+00 -0.00000000000E+00 -0.16708252052E+04  0.16708252052E+04  0.00000000000E+00 0.  1.
         23    2    1    2    0    0 -0.33927247030E+03 -0.92002832954E+02 -0.10969014937E+01  0.36327878306E+03  0.91651190126E+02 0.  0.
        254    2    1    2    0    0  0.33927247030E+03  0.92002832954E+02 -0.13332755610E+04  0.16439991649E+04  0.89528721778E+03 0.  0.
        -24    2    4    4    0    0  0.20221670048E+02 -0.24809464237E+03 -0.37504970449E+02  0.26458188900E+03  0.81468310814E+02 0.  0.
         24    2    4    4    0    0  0.31905080026E+03  0.34009747532E+03 -0.12957705905E+04  0.13794172759E+04  0.79441122382E+02 0.  0.
         13    1    3    3    0    0 -0.17138202429E+03 -0.58281239540E+02 -0.44932039726E+02  0.18651377784E+03  0.00000000000E+00 0. -1.
        -13    1    3    3    0    0 -0.16789044601E+03 -0.33721593414E+02  0.43835138232E+02  0.17676500522E+03  0.00000000000E+00 0.  1.
          4    1    6    6  502    0  0.24871021925E+03  0.24333303215E+03 -0.10485477869E+04  0.11047715597E+04  0.00000000000E+00 0. -1.
          1    1    5    5  503    0  0.18324553165E+02 -0.22008565719E+03 -0.59723424256E+02  0.22878018523E+03  0.00000000000E+00 0. -1.
         -2    1    5    5    0  503  0.18971168828E+01 -0.28008985180E+02  0.22218453807E+02  0.35801703771E+02  0.00000000000E+00 0.  1.
         -3    1    6    6    0  502  0.70340581005E+02  0.96764443174E+02 -0.24722280358E+03  0.27464571616E+03  0.00000000000E+00 0.  1.
<mgrwt>
<rscale>  0 0.14995382E+04</rscale>
<asrwt>0</asrwt>
<pdfrwt beam="1">  1        1 0.51761961E-01 0.14995382E+04</pdfrwt>
<pdfrwt beam="2">  1       -1 0.25705003E+00 0.14995382E+04</pdfrwt>
<totfact> 0.45806670E+00</totfact>
</mgrwt>
</event>
<event>
12    1  0.1489233E-007  0.1288417E+04  0.7818608E-02  0.9038801E-01
          2   -1    0    0  501    0  0.00000000000E+00  0.00000000000E+00  0.94702436506E+03  0.94702436506E+03  0.00000000000E+00 0. -1.
         -2   -1    0    0    0  501 -0.00000000000E+00 -0.00000000000E+00 -0.43821967294E+03  0.43821967294E+03  0.00000000000E+00 0.  1.
         23    2    1    2    0    0  0.92292162326E+02  0.19372804555E+03  0.39884093733E+03  0.46272694266E+03  0.94835285156E+02 0.  0.
        254    2    1    2    0    0 -0.92292162326E+02 -0.19372804555E+03  0.10996375479E+03  0.92251709534E+03  0.89044784517E+03 0.  0.
        -24    2    4    4    0    0  0.10126799157E+03  0.80068666238E+02 -0.33018547635E+03  0.36378495834E+03  0.81552741755E+02 0.  0.
         24    2    4    4    0    0 -0.19356015390E+03 -0.27379671179E+03  0.44014923114E+03  0.55873213700E+03  0.77589191773E+02 0.  0.
         13    1    3    3    0    0  0.76867714351E+02  0.56436032692E+02  0.18515779781E+03  0.20827165286E+03  0.00000000000E+00 0.  1.
        -13    1    3    3    0    0  0.15424447975E+02  0.13729201286E+03  0.21368313953E+03  0.25445528980E+03  0.00000000000E+00 0. -1.
          2    1    6    6  502    0 -0.64079932589E+02 -0.15389177382E+03  0.19263487036E+03  0.25474911008E+03  0.00000000000E+00 0. -1.
          1    1    5    5  503    0  0.74133919251E+02  0.93490302070E+02 -0.22972541150E+03  0.25886297389E+03  0.00000000000E+00 0. -1.
         -2    1    5    5    0  503  0.27134072323E+02 -0.13421635831E+02 -0.10046006486E+03  0.10492198445E+03  0.00000000000E+00 0.  1.
         -1    1    6    6    0  502 -0.12948022131E+03 -0.11990493796E+03  0.24751436079E+03  0.30398302692E+03  0.00000000000E+00 0.  1.
<mgrwt>
<rscale>  0 0.12884172E+04</rscale>
<asrwt>0</asrwt>
<pdfrwt beam="1">  1        2 0.14569606E+00 0.12884172E+04</pdfrwt>
<pdfrwt beam="2">  1       -2 0.67418411E-01 0.12884172E+04</pdfrwt>
<totfact> 0.53988278E+01</totfact>
</mgrwt>
</event>
<event>
12    1  0.1489233E-007  0.1573534E+04  0.7818608E-02  0.8836974E-01
         -2   -1    0    0    0  501 -0.00000000000E+00  0.00000000000E+00  0.12627443940E+04  0.12627443940E+04  0.00000000000E+00 0.  1.
          2   -1    0    0  501    0  0.00000000000E+00 -0.00000000000E+00 -0.49020421949E+03  0.49020421949E+03  0.00000000000E+00 0. -1.
         23    2    1    2    0    0 -0.18392777580E+03  0.48888493846E+03  0.26674969733E+03  0.59293882234E+03  0.87081204944E+02 0.  0.
        254    2    1    2    0    0  0.18392777580E+03 -0.48888493846E+03  0.50579047721E+03  0.11600097912E+04  0.90385883799E+03 0.  0.
        -24    2    4    4    0    0  0.44749268036E+03 -0.45156043023E+03  0.58932374298E+03  0.87059329322E+03  0.80459225852E+02 0.  0.
         24    2    4    4    0    0 -0.26356490456E+03 -0.37324508226E+02 -0.83533265770E+02  0.28941649796E+03  0.76970935873E+02 0.  0.
         11    1    3    3    0    0 -0.65096657444E+02  0.24739931697E+03  0.91119785915E+02  0.27156364306E+03  0.00000000000E+00 0. -1.
        -11    1    3    3    0    0 -0.11883111835E+03  0.24148562149E+03  0.17562991141E+03  0.32137517928E+03  0.00000000000E+00 0.  1.
          2    1    6    6  502    0 -0.20557982779E+03 -0.59069583966E+02 -0.52980633849E+02  0.22036158673E+03  0.00000000000E+00 0. -1.
          1    1    5    5  503    0  0.26566018207E+03 -0.22232781130E+03  0.35177726120E+03  0.49371269936E+03  0.00000000000E+00 0. -1.
         -2    1    5    5    0  503  0.18183249829E+03 -0.22923261893E+03  0.23754648178E+03  0.37688059385E+03  0.00000000000E+00 0.  1.
         -1    1    6    6    0  502 -0.57985076775E+02  0.21745075740E+02 -0.30552631921E+02  0.69054911229E+02  0.00000000000E+00 0.  1.
<mgrwt>
<rscale>  0 0.15735344E+04</rscale>
<asrwt>0</asrwt>
<pdfrwt beam="1">  1        2 0.75416034E-01 0.15735344E+04</pdfrwt>
<pdfrwt beam="2">  1       -2 0.19426837E+00 0.15735344E+04</pdfrwt>
<totfact> 0.87784780E+00</totfact>
</mgrwt>
</event>
<event>
12    1  0.1489233E-007  0.1271447E+04  0.7818608E-02  0.9052519E-01
          2   -1    0    0  501    0  0.00000000000E+00  0.00000000000E+00  0.25360635243E+04  0.25360635243E+04  0.00000000000E+00 0. -1.
         -2   -1    0    0    0  501 -0.00000000000E+00 -0.00000000000E+00 -0.15935904541E+03  0.15935904541E+03  0.00000000000E+00 0.  1.
         23    2    1    2    0    0 -0.13193106212E+03 -0.17368554246E+03  0.17443089256E+03  0.29355021582E+03  0.90405310216E+02 0.  0.
        254    2    1    2    0    0  0.13193106212E+03  0.17368554246E+03  0.22022735863E+04  0.24018723539E+04  0.93349310793E+03 0.  0.
        -24    2    4    4    0    0  0.35601765006E+03 -0.25859219674E+03  0.12789423408E+04  0.13548054387E+04  0.78649693744E+02 0.  0.
         24    2    4    4    0    0 -0.22408658794E+03  0.43227773921E+03  0.92333124555E+03  0.10470669152E+04  0.82034707158E+02 0.  0.
         11    1    3    3    0    0 -0.35926529426E+02 -0.36221020654E+02 -0.80099408132E+00  0.51022734592E+02  0.00000000000E+00 0. -1.
        -11    1    3    3    0    0 -0.96004532693E+02 -0.13746452181E+03  0.17523188664E+03  0.24252748123E+03  0.00000000000E+00 0.  1.
          4    1    6    6  502    0 -0.11355245791E+03  0.24355786237E+03  0.42467360123E+03  0.50255572885E+03  0.00000000000E+00 0. -1.
          1    1    5    5  503    0  0.84977741580E+02 -0.93141908846E+02  0.44259290324E+03  0.46020116226E+03  0.00000000000E+00 0. -1.
         -2    1    5    5    0  503  0.27103990848E+03 -0.16545028790E+03  0.83634943753E+03  0.89460427643E+03  0.00000000000E+00 0.  1.
         -3    1    6    6    0  502 -0.11053413002E+03  0.18871987684E+03  0.49865764432E+03  0.54451118634E+03  0.00000000000E+00 0.  1.
<mgrwt>
<rscale>  0 0.12714475E+04</rscale>
<asrwt>0</asrwt>
<pdfrwt beam="1">  1        2 0.39016359E+00 0.12714475E+04</pdfrwt>
<pdfrwt beam="2">  1       -2 0.24516778E-01 0.12714475E+04</pdfrwt>
<totfact> 0.48688046E+01</totfact>
</mgrwt>
</event>
<event>
12    1  0.1489233E-007  0.1336190E+04  0.7818608E-02  0.9001348E-01
         -2   -1    0    0    0  501 -0.00000000000E+00  0.00000000000E+00  0.24728336308E+03  0.24728336308E+03  0.00000000000E+00 0.  1.
          2   -1    0    0  501    0  0.00000000000E+00 -0.00000000000E+00 -0.18050191636E+04  0.18050191636E+04  0.00000000000E+00 0. -1.
         23    2    1    2    0    0 -0.44181441797E+02 -0.32093913124E+03 -0.63258332938E+03  0.71645681028E+03  0.90524950340E+02 0.  0.
        254    2    1    2    0    0  0.44181441797E+02  0.32093913124E+03 -0.92515247119E+03  0.13358457164E+04  0.90753664246E+03 0.  0.
        -24    2    4    4    0    0  0.44854560267E+02 -0.22986415188E+03  0.66746898857E+01  0.25028850771E+03  0.88035934178E+02 0.  0.
         24    2    4    4    0    0 -0.67311846944E+00  0.55080328313E+03 -0.93182716108E+03  0.10855572087E+04  0.82145514301E+02 0.  0.
         13    1    3    3    0    0 -0.25178398605E+02 -0.13403855542E+03 -0.36383466839E+03  0.38855624048E+03  0.00000000000E+00 0. -1.
        -13    1    3    3    0    0 -0.19003043192E+02 -0.18690057583E+03 -0.26874866099E+03  0.32790056980E+03  0.00000000000E+00 0.  1.
          2    1    6    6  502    0 -0.10145484225E+02  0.39259121687E+03 -0.58973721658E+03  0.70853424690E+03  0.00000000000E+00 0. -1.
          3    1    5    5  503    0  0.65856864191E+01 -0.19699706116E+03 -0.94358817960E+01  0.19733283871E+03  0.00000000000E+00 0. -1.
         -4    1    5    5    0  503  0.38268873848E+02 -0.32867090728E+02  0.16110571682E+02  0.52955668992E+02  0.00000000000E+00 0.  1.
         -1    1    6    6    0  502  0.94723657555E+01  0.15821206626E+03 -0.34208994450E+03  0.37702296183E+03  0.00000000000E+00 0.  1.
<mgrwt>
<rscale>  0 0.13361904E+04</rscale>
<asrwt>0</asrwt>
<pdfrwt beam="1">  1        2 0.27769526E+00 0.13361904E+04</pdfrwt>
<pdfrwt beam="2">  1       -2 0.38043594E-01 0.13361904E+04</pdfrwt>
<totfact> 0.54679247E+01</totfact>
</mgrwt>
</event>
<event>
12    1  0.1489233E-007  0.1820602E+04  0.7818608E-02  0.8695420E-01
          1   -1    0    0  501    0  0.00000000000E+00  0.00000000000E+00  0.29599469510E+04  0.29599469510E+04  0.00000000000E+00 0. -1.
         -1   -1    0    0    0  501 -0.00000000000E+00 -0.00000000000E+00 -0.27995368600E+03  0.27995368600E+03  0.00000000000E+00 0.  1.
         23    2    1    2    0    0 -0.20121021195E+02 -0.59572561321E+03  0.41343546038E+03  0.73094434195E+03  0.89760177186E+02 0.  0.
        254    2    1    2    0    0  0.20121021195E+02  0.59572561321E+03  0.22665578047E+04  0.25089562951E+04  0.89570282296E+03 0.  0.
        -24    2    4    4    0    0  0.39179105862E+03  0.21842397649E+03  0.56352790113E+03  0.72362809819E+03  0.69747129164E+02 0.  0.
         24    2    4    4    0    0 -0.37167003743E+03  0.37730163672E+03  0.17030299035E+04  0.17853281969E+04  0.81183597409E+02 0.  0.
         13    1    3    3    0    0 -0.44947267240E+02 -0.18033722563E+03  0.14527031768E+03  0.23589242671E+03  0.00000000000E+00 0. -1.
        -13    1    3    3    0    0  0.24826246045E+02 -0.41538838757E+03  0.26816514270E+03  0.49505191524E+03  0.00000000000E+00 0.  1.
          2    1    6    6  502    0 -0.69013069098E+02  0.32583878985E+02  0.21140627182E+03  0.22476014914E+03  0.00000000000E+00 0. -1.
          1    1    5    5  503    0  0.72675351115E+02  0.17832159379E+02  0.12171192208E+03  0.14287576612E+03  0.00000000000E+00 0. -1.
         -2    1    5    5    0  503  0.31911570751E+03  0.20059181711E+03  0.44181597905E+03  0.58075233207E+03  0.00000000000E+00 0.  1.
         -1    1    6    6    0  502 -0.30265696833E+03  0.34471775773E+03  0.14916236317E+04  0.15605680478E+04  0.00000000000E+00 0.  1.
<mgrwt>
<rscale>  0 0.18206022E+04</rscale>
<asrwt>0</asrwt>
<pdfrwt beam="1">  1        1 0.45537643E+00 0.18206022E+04</pdfrwt>
<pdfrwt beam="2">  1       -1 0.43069800E-01 0.18206022E+04</pdfrwt>
<totfact> 0.32090436E+00</totfact>
</mgrwt>
</event>
<event>
12    1  0.1489233E-007  0.2600732E+04  0.7818608E-02  0.8367953E-01
         -2   -1    0    0    0  501 -0.00000000000E+00  0.00000000000E+00  0.12333113076E+04  0.12333113076E+04  0.00000000000E+00 0.  1.
          2   -1    0    0  501    0  0.00000000000E+00 -0.00000000000E+00 -0.13710660870E+04  0.13710660870E+04  0.00000000000E+00 0. -1.
         23    2    1    2    0    0 -0.11419403478E+04  0.29174982729E+02 -0.74630702902E+02  0.11483202116E+04  0.90502094248E+02 0.  0.
        254    2    1    2    0    0  0.11419403478E+04 -0.29174982729E+02 -0.63124076556E+02  0.14560571830E+04  0.90068803345E+03 0.  0.
        -24    2    4    4    0    0  0.10475983658E+02 -0.89209445123E+02  0.25061326396E+03  0.27766413984E+03  0.78881526029E+02 0.  0.
         24    2    4    4    0    0  0.11314643641E+04  0.60034462394E+02 -0.31373734051E+03  0.11783930431E+04  0.79770303860E+02 0.  0.
         11    1    3    3    0    0 -0.19901286240E+03  0.35989315444E+02  0.20959727699E+01  0.20225168313E+03  0.00000000000E+00 0. -1.
        -11    1    3    3    0    0 -0.94292748537E+03 -0.68143327157E+01 -0.76726675672E+02  0.94606852846E+03  0.00000000000E+00 0.  1.
          4    1    6    6  502    0  0.57928553561E+03  0.33215428043E+02 -0.20193126757E+03  0.61437059927E+03  0.00000000000E+00 0. -1.
          3    1    5    5  503    0  0.57214846842E+01 -0.45743879536E+01  0.13019877933E+03  0.13040468761E+03  0.00000000000E+00 0. -1.
         -4    1    5    5    0  503  0.47544989740E+01 -0.84635057169E+02  0.12041448463E+03  0.14725945223E+03  0.00000000000E+00 0.  1.
         -3    1    6    6    0  502  0.55217882850E+03  0.26819034352E+02 -0.11180607294E+03  0.56402244388E+03  0.00000000000E+00 0.  1.
<mgrwt>
<rscale>  0 0.26007317E+04</rscale>
<asrwt>0</asrwt>
<pdfrwt beam="1">  1        2 0.21093324E+00 0.26007317E+04</pdfrwt>
<pdfrwt beam="2">  1       -2 0.18974020E+00 0.26007317E+04</pdfrwt>
<totfact> 0.20697929E+00</totfact>
</mgrwt>
</event>
<event>
12    1  0.1489233E-007  0.1059726E+04  0.7818608E-02  0.9245359E-01
         -2   -1    0    0    0  501 -0.00000000000E+00  0.00000000000E+00  0.25102188416E+03  0.25102188416E+03  0.00000000000E+00 0.  1.
          2   -1    0    0  501    0  0.00000000000E+00 -0.00000000000E+00 -0.11184483423E+04  0.11184483423E+04  0.00000000000E+00 0. -1.
         23    2    1    2    0    0 -0.28878958885E+02 -0.11592747827E+02  0.27971589252E+02  0.10136130335E+03  0.92321817265E+02 0.  0.
        254    2    1    2    0    0  0.28878958885E+02  0.11592747827E+02 -0.89539804739E+03  0.12681089231E+04  0.89743756971E+03 0.  0.
        -24    2    4    4    0    0 -0.29399262937E+03 -0.19106328325E+03 -0.87054393641E+02  0.37049466466E+03  0.82164376491E+02 0.  0.
         24    2    4    4    0    0  0.32287158825E+03  0.20265603107E+03 -0.80834365375E+03  0.89761425845E+03  0.83524636917E+02 0.  0.
         11    1    3    3    0    0 -0.50415301806E+02 -0.26181677048E+02 -0.75775196109E+01  0.57311444517E+02  0.00000000000E+00 0. -1.
        -11    1    3    3    0    0  0.21536342921E+02  0.14588929221E+02  0.35549108863E+02  0.44049858833E+02  0.00000000000E+00 0.  1.
          4    1    6    6  502    0  0.20893296164E+03  0.82473157455E+02 -0.46118435140E+03  0.51297739730E+03  0.00000000000E+00 0. -1.
          1    1    5    5  503    0 -0.15382573438E+03 -0.67266965819E+02 -0.72640385438E+02  0.18293120796E+03  0.00000000000E+00 0. -1.
         -2    1    5    5    0  503 -0.14016689499E+03 -0.12379631743E+03 -0.14414008203E+02  0.18756345671E+03  0.00000000000E+00 0.  1.
         -3    1    6    6    0  502  0.11393862662E+03  0.12018287362E+03 -0.34715930235E+03  0.38463686115E+03  0.00000000000E+00 0.  1.
<mgrwt>
<rscale>  0 0.10597264E+04</rscale>
<asrwt>0</asrwt>
<pdfrwt beam="1">  1        2 0.17206898E+00 0.10597264E+04</pdfrwt>
<pdfrwt beam="2">  1       -2 0.38618751E-01 0.10597264E+04</pdfrwt>
<totfact> 0.13367152E+02</totfact>
</mgrwt>
</event>
<event>
12    1  0.1489233E-007  0.2334568E+04  0.7818608E-02  0.8464415E-01
          1   -1    0    0  501    0  0.00000000000E+00  0.00000000000E+00  0.14927576497E+04  0.14927576497E+04  0.00000000000E+00 0. -1.
         -1   -1    0    0    0  501 -0.00000000000E+00 -0.00000000000E+00 -0.91277525139E+03  0.91277525139E+03  0.00000000000E+00 0.  1.
         23    2    1    2    0    0  0.91938825236E+03  0.34071248333E+03  0.40244983752E+03  0.10637873462E+04  0.91202474501E+02 0.  0.
        254    2    1    2    0    0 -0.91938825236E+03 -0.34071248333E+03  0.17753256084E+03  0.13417455549E+04  0.89855638062E+03 0.  0.
        -24    2    4    4    0    0 -0.20913732284E+03 -0.10757083010E+03  0.47173081747E+03  0.53453265540E+03  0.88799168061E+02 0.  0.
         24    2    4    4    0    0 -0.71025092952E+03 -0.23314165322E+03 -0.29419825663E+03  0.80721289953E+03  0.78921718247E+02 0.  0.
         11    1    3    3    0    0  0.40110019105E+03  0.16496522896E+03  0.13204910536E+03  0.45335621342E+03  0.00000000000E+00 0.  1.
        -11    1    3    3    0    0  0.51828806131E+03  0.17574725437E+03  0.27040073216E+03  0.61043113278E+03  0.00000000000E+00 0. -1.
          4    1    6    6  502    0 -0.57788783109E+02 -0.40231158574E+02 -0.39379482166E+02  0.80677339998E+02  0.00000000000E+00 0. -1.
          1    1    5    5  503    0 -0.94572573416E+02 -0.34273519720E+02  0.11517436689E+03  0.15291756140E+03  0.00000000000E+00 0. -1.
         -2    1    5    5    0  503 -0.11456474942E+03 -0.73297310384E+02  0.35655645058E+03  0.38161509400E+03  0.00000000000E+00 0.  1.
         -3    1    6    6    0  502 -0.65246214641E+03 -0.19291049465E+03 -0.25481877447E+03  0.72653555953E+03  0.00000000000E+00 0.  1.
<mgrwt>
<rscale>  0 0.23345683E+04</rscale>
<asrwt>0</asrwt>
<pdfrwt beam="1">  1        1 0.22965502E+00 0.23345683E+04</pdfrwt>
<pdfrwt beam="2">  1       -1 0.14042696E+00 0.23345683E+04</pdfrwt>
<totfact> 0.24800622E+00</totfact>
</mgrwt>
</event>
<event>
12    1  0.1489233E-007  0.1314623E+04  0.7818608E-02  0.9018049E-01
          1   -1    0    0  501    0  0.00000000000E+00  0.00000000000E+00  0.21143327455E+04  0.21143327455E+04  0.00000000000E+00 0. -1.
         -1   -1    0    0    0  501 -0.00000000000E+00 -0.00000000000E+00 -0.20434742597E+03  0.20434742597E+03  0.00000000000E+00 0.  1.
         23    2    1    2    0    0  0.66605822857E+02  0.31414628906E+03  0.37298136515E+03  0.50491041206E+03  0.11267297320E+03 0.  0.
        254    2    1    2    0    0 -0.66605822857E+02 -0.31414628906E+03  0.15370039544E+04  0.18137697595E+04  0.90788510168E+03 0.  0.
        -24    2    4    4    0    0 -0.16374071288E+03 -0.74632043927E+02  0.15300038934E+04  0.15426683288E+04  0.80825095229E+02 0.  0.
         24    2    4    4    0    0  0.97134890022E+02 -0.23951424513E+03  0.70000610616E+01  0.27110143064E+03  0.81515178709E+02 0.  0.
         13    1    3    3    0    0 -0.27550934563E+02  0.30275890215E+02  0.52170042313E+02  0.66312870836E+02  0.00000000000E+00 0. -1.
        -13    1    3    3    0    0  0.94156757419E+02  0.28387039884E+03  0.32081132284E+03  0.43859754122E+03  0.00000000000E+00 0.  1.
          2    1    6    6  502    0  0.11815301936E+01  0.33429879218E+01  0.93132879178E+01  0.99653857769E+01  0.00000000000E+00 0. -1.
          1    1    5    5  503    0 -0.46539681297E+02 -0.27198887876E+02  0.21716382067E+03  0.22375398643E+03  0.00000000000E+00 0. -1.
         -2    1    5    5    0  503 -0.11720103158E+03 -0.47433156051E+02  0.13128400727E+04  0.13189143424E+04  0.00000000000E+00 0.  1.
         -1    1    6    6    0  502  0.95953359828E+02 -0.24285723305E+03 -0.23132268561E+01  0.26113604486E+03  0.00000000000E+00 0.  1.
<mgrwt>
<rscale>  0 0.13146231E+04</rscale>
<asrwt>0</asrwt>
<pdfrwt beam="1">  1        1 0.32528195E+00 0.13146231E+04</pdfrwt>
<pdfrwt beam="2">  1       -1 0.31438067E-01 0.13146231E+04</pdfrwt>
<totfact> 0.23018986E+01</totfact>
</mgrwt>
</event>
<event>
12    1  0.1489233E-007  0.2756940E+04  0.7818608E-02  0.8316763E-01
          2   -1    0    0  501    0  0.00000000000E+00  0.00000000000E+00  0.29859482211E+04  0.29859482211E+04  0.00000000000E+00 0. -1.
         -2   -1    0    0    0  501 -0.00000000000E+00 -0.00000000000E+00 -0.63637386529E+03  0.63637386529E+03  0.00000000000E+00 0.  1.
         23    2    1    2    0    0 -0.10889478295E+04  0.48860672048E+03  0.65150190272E+03  0.13627939252E+04  0.90601604793E+02 0.  0.
        254    2    1    2    0    0  0.10889478295E+04 -0.48860672048E+03  0.16980724531E+04  0.22595281612E+04  0.89301374715E+03 0.  0.
        -24    2    4    4    0    0  0.10506559103E+03  0.22335173893E+02 -0.84411703120E+02  0.15863726566E+03  0.80639990209E+02 0.  0.
         24    2    4    4    0    0  0.98388223844E+03 -0.51094189437E+03  0.17824841562E+04  0.21008908955E+04  0.86063402109E+02 0.  0.
         13    1    3    3    0    0 -0.18691008904E+02 -0.14410960524E+01  0.18213531770E+02  0.26137392968E+02  0.00000000000E+00 0. -1.
        -13    1    3    3    0    0 -0.10702568206E+04  0.49004781653E+03  0.63328837095E+03  0.13366565323E+04  0.00000000000E+00 0.  1.
          4    1    6    6  502    0  0.20711236660E+03 -0.13524013820E+03  0.34946735553E+03  0.42815051087E+03  0.00000000000E+00 0. -1.
          3    1    5    5  503    0 -0.12432474049E+02 -0.44315976261E+01 -0.13171105195E+02  0.18646272565E+02  0.00000000000E+00 0. -1.
         -4    1    5    5    0  503  0.11749806508E+03  0.26766771519E+02 -0.71240597925E+02  0.13999099309E+03  0.00000000000E+00 0.  1.
         -3    1    6    6    0  502  0.77676987184E+03 -0.37570175618E+03  0.14330168007E+04  0.16727403847E+04  0.00000000000E+00 0.  1.
<mgrwt>
<rscale>  0 0.27569399E+04</rscale>
<asrwt>0</asrwt>
<pdfrwt beam="1">  1        2 0.45937664E+00 0.27569399E+04</pdfrwt>
<pdfrwt beam="2">  1       -2 0.97903673E-01 0.27569399E+04</pdfrwt>
<totfact> 0.13468960E+00</totfact>
</mgrwt>
</event>
<event>
12    1  0.1489233E-007  0.2085016E+04  0.7818608E-02  0.8567873E-01
          1   -1    0    0  501    0  0.00000000000E+00  0.00000000000E+00  0.12227383923E+04  0.12227383923E+04  0.00000000000E+00 0. -1.
         -1   -1    0    0    0  501 -0.00000000000E+00 -0.00000000000E+00 -0.88884327412E+03  0.88884327412E+03  0.00000000000E+00 0.  1.
         23    2    1    2    0    0 -0.18356588218E+03 -0.15902286956E+03 -0.68454115684E+03  0.73223200470E+03  0.92641282183E+02 0.  0.
        254    2    1    2    0    0  0.18356588218E+03  0.15902286956E+03  0.10184362750E+04  0.13793496617E+04  0.89800241470E+03 0.  0.
        -24    2    4    4    0    0  0.37179561491E+03  0.33076664228E+03  0.98964012672E+03  0.11113684452E+04  0.90076021411E+02 0.  0.
         24    2    4    4    0    0 -0.18822973272E+03 -0.17174377272E+03  0.28796148271E+02  0.26798121649E+03  0.77835457798E+02 0.  0.
         11    1    3    3    0    0 -0.10377233921E+03 -0.30814568440E+02 -0.26010843881E+03  0.28173504566E+03  0.00000000000E+00 0. -1.
        -11    1    3    3    0    0 -0.79793542979E+02 -0.12820830112E+03 -0.42443271803E+03  0.45049695905E+03  0.00000000000E+00 0.  1.
          2    1    6    6  502    0 -0.11731597820E+03 -0.11354443829E+03 -0.19296561411E+02  0.16440114200E+03  0.00000000000E+00 0. -1.
          1    1    5    5  503    0  0.29071524836E+03  0.22257956011E+03  0.78377416322E+03  0.86507742725E+03  0.00000000000E+00 0. -1.
         -2    1    5    5    0  503  0.81080366545E+02  0.10818708217E+03  0.20586596349E+03  0.24629101793E+03  0.00000000000E+00 0.  1.
         -1    1    6    6    0  502 -0.70913754524E+02 -0.58199334422E+02  0.48092709682E+02  0.10358007450E+03  0.00000000000E+00 0.  1.
<mgrwt>
<rscale>  0 0.20850159E+04</rscale>
<asrwt>0</asrwt>
<pdfrwt beam="1">  1        1 0.18811360E+00 0.20850159E+04</pdfrwt>
<pdfrwt beam="2">  1       -1 0.13674512E+00 0.20850159E+04</pdfrwt>
<totfact> 0.42212179E+00</totfact>
</mgrwt>
</event>
<event>
12    1  0.1489233E-007  0.2651199E+04  0.7818608E-02  0.8351015E-01
         -2   -1    0    0    0  501 -0.00000000000E+00  0.00000000000E+00  0.60553250422E+03  0.60553250422E+03  0.00000000000E+00 0. -1.
          2   -1    0    0  501    0  0.00000000000E+00 -0.00000000000E+00 -0.29019309899E+04  0.29019309899E+04  0.00000000000E+00 0.  1.
         23    2    1    2    0    0 -0.18856627457E+03  0.17341892746E+02  0.51146962599E+03  0.55307387554E+03  0.91823484702E+02 0.  0.
        254    2    1    2    0    0  0.18856627457E+03 -0.17341892746E+02 -0.28078681116E+04  0.29543896185E+04  0.89913108314E+03 0.  0.
        -24    2    4    4    0    0 -0.33396011082E+03 -0.12612362097E+03 -0.13878335487E+04  0.14352317381E+04  0.79822677209E+02 0.  0.
         24    2    4    4    0    0  0.52252638539E+03  0.10878172822E+03 -0.14200345630E+04  0.15191578805E+04  0.80468738843E+02 0.  0.
         11    1    3    3    0    0 -0.55218685277E+02 -0.20888626202E+02  0.25229277786E+03  0.25910824701E+03  0.00000000000E+00 0.  1.
        -11    1    3    3    0    0 -0.13334758929E+03  0.38230518949E+02  0.25917684813E+03  0.29396562853E+03  0.00000000000E+00 0. -1.
          4    1    6    6  502    0  0.19066164922E+03  0.97821581146E+01 -0.43617025918E+03  0.47612188575E+03  0.00000000000E+00 0. -1.
          3    1    5    5  503    0 -0.64291670634E+02  0.72674673838E+01 -0.26611893991E+03  0.27387136611E+03  0.00000000000E+00 0. -1.
         -4    1    5    5    0  503 -0.26966844019E+03 -0.13339108835E+03 -0.11217146087E+04  0.11613603720E+04  0.00000000000E+00 0.  1.
         -3    1    6    6    0  502  0.33186473617E+03  0.98999570107E+02 -0.98386430381E+03  0.10430359947E+04  0.00000000000E+00 0.  1.
<mgrwt>
<rscale>  0 0.26511986E+04</rscale>
<asrwt>0</asrwt>
<pdfrwt beam="1">  1        2 0.44645092E+00 0.26511986E+04</pdfrwt>
<pdfrwt beam="2">  1       -2 0.93158848E-01 0.26511986E+04</pdfrwt>
<totfact> 0.17212581E+00</totfact>
</mgrwt>
</event>
<event>
12    1  0.1489233E-007  0.2207966E+04  0.7818608E-02  0.8515120E-01
         -1   -1    0    0    0  501 -0.00000000000E+00  0.00000000000E+00  0.11923464811E+04  0.11923464811E+04  0.00000000000E+00 0.  1.
          1   -1    0    0  501    0  0.00000000000E+00 -0.00000000000E+00 -0.10221676089E+04  0.10221676089E+04  0.00000000000E+00 0. -1.
         23    2    1    2    0    0  0.77497580452E+03 -0.37358520570E+03 -0.25228847140E+03  0.90143267083E+03  0.93690894571E+02 0.  0.
        254    2    1    2    0    0 -0.77497580452E+03  0.37358520570E+03  0.42246734362E+03  0.13130814191E+04  0.89752479260E+03 0.  0.
        -24    2    4    4    0    0 -0.33797201818E+03 -0.29335134403E+02 -0.23745233445E+03  0.42135252099E+03  0.77901865371E+02 0.  0.
         24    2    4    4    0    0 -0.43700378635E+03  0.40292034010E+03  0.65991967807E+03  0.89172889814E+03  0.79808123231E+02 0.  0.
         11    1    3    3    0    0  0.28567063339E+03 -0.16888481090E+03 -0.13472006553E+03  0.35816097805E+03  0.00000000000E+00 0.  1.
        -11    1    3    3    0    0  0.48930517113E+03 -0.20470039480E+03 -0.11756840587E+03  0.54327169279E+03  0.00000000000E+00 0. -1.
          2    1    6    6  502    0 -0.36239018490E+03  0.36953232965E+03  0.58107939364E+03  0.77816068423E+03  0.00000000000E+00 0. -1.
          1    1    5    5  503    0 -0.33864915373E+03 -0.27890972797E+02 -0.22215645135E+03  0.40597369935E+03  0.00000000000E+00 0. -1.
         -2    1    5    5    0  503  0.67713555412E+00 -0.14441616067E+01 -0.15295883099E+02  0.15378821641E+02  0.00000000000E+00 0.  1.
         -1    1    6    6    0  502 -0.74613601444E+02  0.33388010450E+02  0.78840284426E+02  0.11356821391E+03  0.00000000000E+00 0.  1.
<mgrwt>
<rscale>  0 0.22079655E+04</rscale>
<asrwt>0</asrwt>
<pdfrwt beam="1">  1        1 0.15725656E+00 0.22079655E+04</pdfrwt>
<pdfrwt beam="2">  1       -1 0.18343792E+00 0.22079655E+04</pdfrwt>
<totfact> 0.26051562E+00</totfact>
</mgrwt>
</event>
<event>
12    1  0.1489233E-007  0.1411467E+04  0.7818608E-02  0.8945560E-01
         -2   -1    0    0    0  501 -0.00000000000E+00  0.00000000000E+00  0.43580916945E+03  0.43580916945E+03  0.00000000000E+00 0.  1.
          2   -1    0    0  501    0  0.00000000000E+00 -0.00000000000E+00 -0.11428394985E+04  0.11428394985E+04  0.00000000000E+00 0. -1.
         23    2    1    2    0    0  0.81771761551E+02  0.37255201661E+03 -0.38818698739E+03  0.55184027815E+03  0.91416242245E+02 0.  0.
        254    2    1    2    0    0 -0.81771761551E+02 -0.37255201661E+03 -0.31884334162E+03  0.10268083898E+04  0.89843907235E+03 0.  0.
        -24    2    4    4    0    0 -0.44266806195E+03  0.16164887366E+01 -0.13930755665E+03  0.47091916738E+03  0.80004004688E+02 0.  0.
         24    2    4    4    0    0  0.36089630039E+03 -0.37416850535E+03 -0.17953578497E+03  0.55588922238E+03  0.80817816357E+02 0.  0.
         13    1    3    3    0    0  0.42614699821E+01  0.21397524710E+02 -0.64215962749E+02  0.67821118112E+02  0.00000000000E+00 0. -1.
        -13    1    3    3    0    0  0.77510291569E+02  0.35115449190E+03 -0.32397102464E+03  0.48401916004E+03  0.00000000000E+00 0.  1.
          2    1    6    6  502    0  0.79232908557E+00 -0.21036532241E+02 -0.13027534675E+02  0.24756416013E+02  0.00000000000E+00 0. -1.
          3    1    5    5  503    0 -0.17126130925E+03 -0.36208613981E+02 -0.40959313212E+02  0.17977531842E+03  0.00000000000E+00 0. -1.
         -4    1    5    5    0  503 -0.27140675269E+03  0.37825102718E+02 -0.98348243436E+02  0.29114384896E+03  0.00000000000E+00 0.  1.
         -1    1    6    6    0  502  0.36010397131E+03 -0.35313197311E+03 -0.16650825029E+03  0.53113280637E+03  0.00000000000E+00 0.  1.
<mgrwt>
<rscale>  0 0.14114672E+04</rscale>
<asrwt>0</asrwt>
<pdfrwt beam="1">  1        2 0.17582146E+00 0.14114672E+04</pdfrwt>
<pdfrwt beam="2">  1       -2 0.67047564E-01 0.14114672E+04</pdfrwt>
<totfact> 0.40722544E+01</totfact>
</mgrwt>
</event>
<event>
12    1  0.1489233E-007  0.1738425E+04  0.7818608E-02  0.8739748E-01
          2   -1    0    0  501    0  0.00000000000E+00  0.00000000000E+00  0.17099888683E+04  0.17099888683E+04  0.00000000000E+00 0. -1.
         -2   -1    0    0    0  501 -0.00000000000E+00 -0.00000000000E+00 -0.44183336059E+03  0.44183336059E+03  0.00000000000E+00 0.  1.
         23    2    1    2    0    0  0.38525699082E+03 -0.34958223139E+03  0.25296931197E+02  0.52880190243E+03  0.91437584193E+02 0.  0.
        254    2    1    2    0    0 -0.38525699082E+03  0.34958223139E+03  0.12428585765E+04  0.16230203265E+04  0.90491262197E+03 0.  0.
        -24    2    4    4    0    0 -0.47077447357E+03  0.33376007142E+03  0.13453950564E+04  0.14659795130E+04  0.77354279065E+02 0.  0.
         24    2    4    4    0    0  0.85517482748E+02  0.15822159976E+02 -0.10253647988E+03  0.15704081347E+03  0.81144973888E+02 0.  0.
         13    1    3    3    0    0  0.22294553715E+03 -0.22003399692E+03  0.58016217997E+02  0.31856797373E+03  0.00000000000E+00 0. -1.
        -13    1    3    3    0    0  0.16231145367E+03 -0.12954823448E+03 -0.32719286800E+02  0.21023392870E+03  0.00000000000E+00 0.  1.
          2    1    6    6  502    0  0.79991879429E+02 -0.19909524917E+02 -0.65554321958E+02  0.10532074385E+03  0.00000000000E+00 0. -1.
          1    1    5    5  503    0 -0.23311312586E+03  0.21246192247E+03  0.73322561248E+03  0.79818644235E+03  0.00000000000E+00 0. -1.
         -2    1    5    5    0  503 -0.23766134771E+03  0.12129814894E+03  0.61216944392E+03  0.66779307064E+03  0.00000000000E+00 0.  1.
         -1    1    6    6    0  502  0.55256033189E+01  0.35731684892E+02 -0.36982157923E+02  0.51720069625E+02  0.00000000000E+00 0.  1.
<mgrwt>
<rscale>  0 0.17384247E+04</rscale>
<asrwt>0</asrwt>
<pdfrwt beam="1">  1        2 0.26307521E+00 0.17384247E+04</pdfrwt>
<pdfrwt beam="2">  1       -2 0.67974364E-01 0.17384247E+04</pdfrwt>
<totfact> 0.18201482E+01</totfact>
</mgrwt>
</event>
<event>
12    1  0.1489233E-007  0.2193143E+04  0.7818608E-02  0.8521288E-01
         -1   -1    0    0    0  501 -0.00000000000E+00  0.00000000000E+00  0.11660649502E+04  0.11660649502E+04  0.00000000000E+00 0.  1.
          1   -1    0    0  501    0  0.00000000000E+00 -0.00000000000E+00 -0.10312196695E+04  0.10312196695E+04  0.00000000000E+00 0. -1.
         23    2    1    2    0    0  0.50133491751E+03  0.64757281289E+03  0.44999492266E+03  0.94173273063E+03  0.11695237504E+03 0.  0.
        254    2    1    2    0    0 -0.50133491751E+03 -0.64757281289E+03 -0.31514964195E+03  0.12555518891E+04  0.89800000108E+03 0.  0.
        -24    2    4    4    0    0 -0.45891478648E+03 -0.61240351249E+03  0.14658548241E+03  0.78368150812E+03  0.83836502534E+02 0.  0.
         24    2    4    4    0    0 -0.42420131035E+02 -0.35169300396E+02 -0.46173512436E+03  0.47187038100E+03  0.80162236692E+02 0.  0.
         13    1    3    3    0    0  0.39971299501E+03  0.58013684657E+03  0.36862475309E+03  0.79511851174E+03  0.00000000000E+00 0.  1.
        -13    1    3    3    0    0  0.10162192250E+03  0.67435966318E+02  0.81370169565E+02  0.14661421889E+03  0.00000000000E+00 0. -1.
          2    1    6    6  502    0 -0.45833988686E+02  0.49498636665E+01 -0.35153424980E+03  0.35454419253E+03  0.00000000000E+00 0. -1.
          1    1    5    5  503    0 -0.14376134978E+03 -0.24324288043E+03  0.27401353495E+02  0.28387542822E+03  0.00000000000E+00 0. -1.
         -2    1    5    5    0  503 -0.31515343669E+03 -0.36916063206E+03  0.11918412891E+03  0.49980607990E+03  0.00000000000E+00 0.  1.
         -1    1    6    6    0  502  0.34138576505E+01 -0.40119164062E+02 -0.11020087455E+03  0.11732618847E+03  0.00000000000E+00 0.  1.
<mgrwt>
<rscale>  0 0.21931431E+04</rscale>
<asrwt>0</asrwt>
<pdfrwt beam="1">  1        1 0.15864918E+00 0.21931431E+04</pdfrwt>
<pdfrwt beam="2">  1       -1 0.17939461E+00 0.21931431E+04</pdfrwt>
<totfact> 0.27438515E+00</totfact>
</mgrwt>
</event>
<event>
12    1  0.1489233E-007  0.1285888E+04  0.7818608E-02  0.9040831E-01
         -2   -1    0    0    0  501 -0.00000000000E+00  0.00000000000E+00  0.19996379258E+03  0.19996379258E+03  0.00000000000E+00 0.  1.
          2   -1    0    0  501    0  0.00000000000E+00 -0.00000000000E+00 -0.20672596690E+04  0.20672596690E+04  0.00000000000E+00 0. -1.
         23    2    1    2    0    0  0.13071317315E+03 -0.27905386672E+03 -0.31682524992E+03  0.45145225604E+03  0.92053823043E+02 0.  0.
        254    2    1    2    0    0 -0.13071317315E+03  0.27905386672E+03 -0.15504706265E+04  0.18157712055E+04  0.89336941577E+03 0.  0.
        -24    2    4    4    0    0  0.20147600109E+03  0.11487248983E+02 -0.13216983700E+02  0.21845860290E+03  0.82613174610E+02 0.  0.
         24    2    4    4    0    0 -0.33218917424E+03  0.26756661774E+03 -0.15372536428E+04  0.15973126026E+04  0.79481103480E+02 0.  0.
         11    1    3    3    0    0  0.19204735744E+02 -0.51791484077E+01 -0.27554241309E+01  0.20080782240E+02  0.00000000000E+00 0. -1.
        -11    1    3    3    0    0  0.11150843741E+03 -0.27387471831E+03 -0.31406982579E+03  0.43137147380E+03  0.00000000000E+00 0.  1.
          2    1    6    6  502    0 -0.15247450564E+02  0.28667515633E+02 -0.67355669321E+02  0.74773641017E+02  0.00000000000E+00 0. -1.
          3    1    5    5  503    0  0.85698934128E+02  0.27067466902E+02 -0.40371960324E+02  0.98523348784E+02  0.00000000000E+00 0. -1.
         -4    1    5    5    0  503  0.11577706696E+03 -0.15580217919E+02  0.27154976624E+02  0.11993525412E+03  0.00000000000E+00 0.  1.
         -1    1    6    6    0  502 -0.31694172368E+03  0.23889910210E+03 -0.14698979734E+04  0.15225389616E+04  0.00000000000E+00 0.  1.
<mgrwt>
<rscale>  0 0.12858882E+04</rscale>
<asrwt>0</asrwt>
<pdfrwt beam="1">  1        2 0.31803995E+00 0.12858882E+04</pdfrwt>
<pdfrwt beam="2">  1       -2 0.30763660E-01 0.12858882E+04</pdfrwt>
<totfact> 0.58902899E+01</totfact>
</mgrwt>
</event>
<event>
12    1  0.1489233E-007  0.1571354E+04  0.7818608E-02  0.8838342E-01
         -2   -1    0    0    0  501 -0.00000000000E+00  0.00000000000E+00  0.89444427682E+03  0.89444427682E+03  0.00000000000E+00 0.  1.
          2   -1    0    0  501    0  0.00000000000E+00 -0.00000000000E+00 -0.69013622224E+03  0.69013622224E+03  0.00000000000E+00 0. -1.
         23    2    1    2    0    0  0.12114509787E+03 -0.49119253242E+02 -0.43974921000E+03  0.46767468161E+03  0.90837240965E+02 0.  0.
        254    2    1    2    0    0 -0.12114509787E+03  0.49119253242E+02  0.64405726458E+03  0.11169058174E+04  0.90309468452E+03 0.  0.
        -24    2    4    4    0    0  0.27174354075E+03 -0.22897223627E+03  0.47961825690E+03  0.60206273779E+03  0.78568638527E+02 0.  0.
         24    2    4    4    0    0 -0.39288863862E+03  0.27809148951E+03  0.16443900768E+03  0.51484307966E+03  0.79541501917E+02 0.  0.
         11    1    3    3    0    0  0.12083678268E+03 -0.57056671906E+02 -0.30866021201E+03  0.33634523683E+03  0.00000000000E+00 0. -1.
        -11    1    3    3    0    0  0.30831519124E+00  0.79374186638E+01 -0.13108899799E+03  0.13132944478E+03  0.00000000000E+00 0.  1.
          2    1    6    6  502    0 -0.65276838429E+02  0.47056947843E+02  0.60584568929E+02  0.10072691779E+03  0.00000000000E+00 0. -1.
          3    1    5    5  503    0  0.21152139675E+02 -0.52671434736E+02  0.61368359767E+02  0.83592874281E+02  0.00000000000E+00 0. -1.
         -4    1    5    5    0  503  0.25059140108E+03 -0.17630080153E+03  0.41824989713E+03  0.51846986351E+03  0.00000000000E+00 0.  1.
         -1    1    6    6    0  502 -0.32761180019E+03  0.23103454167E+03  0.10385443875E+03  0.41411616187E+03  0.00000000000E+00 0.  1.
<mgrwt>
<rscale>  0 0.15713541E+04</rscale>
<asrwt>0</asrwt>
<pdfrwt beam="1">  1        2 0.10617480E+00 0.15713541E+04</pdfrwt>
<pdfrwt beam="2">  1       -2 0.13760681E+00 0.15713541E+04</pdfrwt>
<totfact> 0.15050976E+01</totfact>
</mgrwt>
</event>
<event>
12    1  0.1489233E-007  0.1405520E+04  0.7818608E-02  0.8949832E-01
          2   -1    0    0  501    0  0.00000000000E+00  0.00000000000E+00  0.68753350840E+03  0.68753350840E+03  0.00000000000E+00 0.  1.
         -2   -1    0    0    0  501 -0.00000000000E+00 -0.00000000000E+00 -0.71832415970E+03  0.71832415970E+03  0.00000000000E+00 0. -1.
         23    2    1    2    0    0 -0.47558592513E+02  0.25407566603E+02 -0.41100791380E+03  0.42095320011E+03  0.73257950558E+02 0.  0.
        254    2    1    2    0    0  0.47558592513E+02 -0.25407566603E+02  0.38021726250E+03  0.98490446799E+03  0.90695329549E+03 0.  0.
        -24    2    4    4    0    0 -0.11880312028E+03 -0.43346300712E+03  0.14425322833E+03  0.47877810922E+03  0.80094469549E+02 0.  0.
         24    2    4    4    0    0  0.16636171279E+03  0.40805544052E+03  0.23596403418E+03  0.50612635877E+03  0.79368782259E+02 0.  0.
         13    1    3    3    0    0 -0.33009432365E+01  0.40187985249E+02 -0.25322826325E+03  0.25641864927E+03  0.00000000000E+00 0.  1.
        -13    1    3    3    0    0 -0.44257649276E+02 -0.14780418646E+02 -0.15777965055E+03  0.16453455084E+03  0.00000000000E+00 0. -1.
          2    1    6    6  502    0  0.10012832461E+03  0.28686125054E+03  0.12333498479E+03  0.32791245314E+03  0.00000000000E+00 0. -1.
          1    1    5    5  503    0 -0.71610776698E+02 -0.37116752078E+03  0.11224999225E+03  0.39432663184E+03  0.00000000000E+00 0. -1.
         -2    1    5    5    0  503 -0.47192343583E+02 -0.62295486345E+02  0.32003236078E+02  0.84451477377E+02  0.00000000000E+00 0.  1.
         -1    1    6    6    0  502  0.66233388179E+02  0.12119418997E+03  0.11262904938E+03  0.17821390563E+03  0.00000000000E+00 0.  1.
<mgrwt>
<rscale>  0 0.14055204E+04</rscale>
<asrwt>0</asrwt>
<pdfrwt beam="1">  1        2 0.10577439E+00 0.14055204E+04</pdfrwt>
<pdfrwt beam="2">  1       -2 0.11051141E+00 0.14055204E+04</pdfrwt>
<totfact> 0.26494816E+01</totfact>
</mgrwt>
</event>
<event>
12    1  0.1489233E-007  0.2188773E+04  0.7818608E-02  0.8523116E-01
         -1   -1    0    0    0  501 -0.00000000000E+00  0.00000000000E+00  0.41580118048E+03  0.41580118048E+03  0.00000000000E+00 0.  1.
          1   -1    0    0  501    0  0.00000000000E+00 -0.00000000000E+00 -0.28804190488E+04  0.28804190488E+04  0.00000000000E+00 0. -1.
         23    2    1    2    0    0  0.49242429034E+03  0.28557771732E+03 -0.20392379376E+04  0.21190115020E+04  0.87647389484E+02 0.  0.
        254    2    1    2    0    0 -0.49242429034E+03 -0.28557771732E+03 -0.42537993070E+03  0.11772087273E+04  0.93852862924E+03 0.  0.
        -24    2    4    4    0    0  0.10099436717E+03 -0.31120698335E+03  0.12894867417E+03  0.36047311791E+03  0.79142020957E+02 0.  0.
         24    2    4    4    0    0 -0.59341865751E+03  0.25629266022E+02 -0.55432860487E+03  0.81673560941E+03  0.83512221491E+02 0.  0.
         13    1    3    3    0    0  0.40390262778E+03  0.24242738887E+03 -0.15517914590E+04  0.16217167151E+04  0.00000000000E+00 0. -1.
        -13    1    3    3    0    0  0.88521662557E+02  0.43150328459E+02 -0.48744647862E+03  0.49729478693E+03  0.00000000000E+00 0.  1.
          4    1    6    6  502    0 -0.40134767974E+03  0.52920117562E+02 -0.35243809178E+03  0.53674305530E+03  0.00000000000E+00 0. -1.
          1    1    5    5  503    0  0.83806198711E+02 -0.28962882550E+03  0.13779078715E+03  0.33150359957E+03  0.00000000000E+00 0. -1.
         -2    1    5    5    0  503  0.17188168463E+02 -0.21578157849E+02 -0.88421129772E+01  0.28969518346E+02  0.00000000000E+00 0.  1.
         -3    1    6    6    0  502 -0.19207097777E+03 -0.27290851540E+02 -0.20189051309E+03  0.27999255411E+03  0.00000000000E+00 0.  1.
<mgrwt>
<rscale>  0 0.21887728E+04</rscale>
<asrwt>0</asrwt>
<pdfrwt beam="1">  1        1 0.44314140E+00 0.21887728E+04</pdfrwt>
<pdfrwt beam="2">  1       -1 0.63969411E-01 0.21887728E+04</pdfrwt>
<totfact> 0.16517422E+00</totfact>
</mgrwt>
</event>
<event>
12    1  0.1489233E-007  0.2088381E+04  0.7818608E-02  0.8566379E-01
          1   -1    0    0  501    0  0.00000000000E+00  0.00000000000E+00  0.58612337861E+03  0.58612337861E+03  0.00000000000E+00 0. -1.
         -1   -1    0    0    0  501 -0.00000000000E+00 -0.00000000000E+00 -0.18602461974E+04  0.18602461974E+04  0.00000000000E+00 0.  1.
         23    2    1    2    0    0  0.20615678968E+03 -0.78543668163E+03 -0.25831150667E+03  0.85691487499E+03  0.90370712767E+02 0.  0.
        254    2    1    2    0    0 -0.20615678968E+03  0.78543668163E+03 -0.10158113122E+04  0.15894547011E+04  0.91382833291E+03 0.  0.
        -24    2    4    4    0    0  0.55460655405E+02  0.23263997135E+03 -0.93392950214E+03  0.96729660100E+03  0.79001004927E+02 0.  0.
         24    2    4    4    0    0 -0.26161744508E+03  0.55279671028E+03 -0.81881810032E+02  0.62215810006E+03  0.79675467965E+02 0.  0.
         13    1    3    3    0    0 -0.12985389244E+01 -0.55058196694E+02 -0.52252531240E+00  0.55075986230E+02  0.00000000000E+00 0.  1.
        -13    1    3    3    0    0  0.20745532860E+03 -0.73037848493E+03 -0.25778898136E+03  0.80183888876E+03  0.00000000000E+00 0. -1.
          2    1    6    6  502    0 -0.24487604359E+03  0.54398632788E+03 -0.86190384160E+02  0.60275549269E+03  0.00000000000E+00 0. -1.
          1    1    5    5  503    0  0.15874711925E+02  0.15611872759E+03 -0.71515794750E+03  0.73217207913E+03  0.00000000000E+00 0. -1.
         -2    1    5    5    0  503  0.39585943480E+02  0.76521243758E+02 -0.21877155464E+03  0.23512452187E+03  0.00000000000E+00 0.  1.
         -1    1    6    6    0  502 -0.16741401492E+02  0.88103823962E+01  0.43085741275E+01  0.19402607374E+02  0.00000000000E+00 0.  1.
<mgrwt>
<rscale>  0 0.20883810E+04</rscale>
<asrwt>0</asrwt>
<pdfrwt beam="1">  1        1 0.90172829E-01 0.20883810E+04</pdfrwt>
<pdfrwt beam="2">  1       -1 0.28619172E+00 0.20883810E+04</pdfrwt>
<totfact> 0.13239245E+00</totfact>
</mgrwt>
</event>
<event>
12    1  0.1489233E-007  0.1732331E+04  0.7818608E-02  0.8743136E-01
          1   -1    0    0  501    0  0.00000000000E+00  0.00000000000E+00  0.59907298354E+03  0.59907298354E+03  0.00000000000E+00 0. -1.
         -1   -1    0    0    0  501 -0.00000000000E+00 -0.00000000000E+00 -0.12523398277E+04  0.12523398277E+04  0.00000000000E+00 0.  1.
         23    2    1    2    0    0  0.68712029930E+02  0.57958665006E+03 -0.48845353705E+03  0.76617845771E+03  0.88320683972E+02 0.  0.
        254    2    1    2    0    0 -0.68712029930E+02 -0.57958665006E+03 -0.16481330713E+03  0.10852343536E+04  0.89996008130E+03 0.  0.
        -24    2    4    4    0    0  0.25107364130E+03 -0.68799953572E+02  0.23295416045E+03  0.35867707156E+03  0.81303098507E+02 0.  0.
         24    2    4    4    0    0 -0.31978567123E+03 -0.51078669649E+03 -0.39776746758E+03  0.72655728199E+03  0.80626304094E+02 0.  0.
         13    1    3    3    0    0  0.22745717280E+01  0.25728866724E+03 -0.25846069702E+03  0.36469790768E+03  0.00000000000E+00 0.  1.
        -13    1    3    3    0    0  0.66437458202E+02  0.32229798282E+03 -0.22999284003E+03  0.40148055003E+03  0.00000000000E+00 0. -1.
          4    1    6    6  502    0 -0.12273737271E+03 -0.14840460555E+03 -0.16049259549E+03  0.25069156910E+03  0.00000000000E+00 0. -1.
          3    1    5    5  503    0  0.17038403062E+03 -0.70383172683E+02  0.19857397671E+03  0.27095411625E+03  0.00000000000E+00 0. -1.
         -4    1    5    5    0  503  0.80689610683E+02  0.15832191114E+01  0.34380183741E+02  0.87722955314E+02  0.00000000000E+00 0.  1.
         -3    1    6    6    0  502 -0.19704829852E+03 -0.36238209093E+03 -0.23727487209E+03  0.47586571289E+03  0.00000000000E+00 0.  1.
<mgrwt>
<rscale>  0 0.17323313E+04</rscale>
<asrwt>0</asrwt>
<pdfrwt beam="1">  1        1 0.92165076E-01 0.17323313E+04</pdfrwt>
<pdfrwt beam="2">  1       -1 0.19266766E+00 0.17323313E+04</pdfrwt>
<totfact> 0.55125222E+00</totfact>
</mgrwt>
</event>
<event>
12    1  0.1489233E-007  0.2899056E+04  0.7818608E-02  0.8273158E-01
          1   -1    0    0  501    0  0.00000000000E+00  0.00000000000E+00  0.20171079484E+04  0.20171079484E+04  0.00000000000E+00 0. -1.
         -1   -1    0    0    0  501 -0.00000000000E+00 -0.00000000000E+00 -0.10416553001E+04  0.10416553001E+04  0.00000000000E+00 0.  1.
         23    2    1    2    0    0  0.99540868054E+03  0.31400839679E+03  0.12730621477E+04  0.16487472928E+04  0.90778241366E+02 0.  0.
        254    2    1    2    0    0 -0.99540868054E+03 -0.31400839679E+03 -0.29760949937E+03  0.14100159557E+04  0.90007436725E+03 0.  0.
        -24    2    4    4    0    0 -0.11940224990E+03 -0.31321493397E+03 -0.39450874343E+03  0.52505300920E+03  0.87652847544E+02 0.  0.
         24    2    4    4    0    0 -0.87600643064E+03 -0.79346282302E+00  0.96899244054E+02  0.88496294648E+03  0.79887777704E+02 0.  0.
         11    1    3    3    0    0  0.96026655641E+03  0.29014829033E+03  0.11982969270E+04  0.15627582715E+04  0.00000000000E+00 0. -1.
        -11    1    3    3    0    0  0.35142124131E+02  0.23860106458E+02  0.74765220670E+02  0.85989021337E+02  0.00000000000E+00 0.  1.
          2    1    6    6  502    0 -0.46606562657E+03  0.36510098402E+02  0.66616698231E+02  0.47221598876E+03  0.00000000000E+00 0. -1.
          3    1    5    5  503    0 -0.76571530723E+02 -0.11472821406E+03 -0.11507232744E+03  0.17963129728E+03  0.00000000000E+00 0. -1.
         -4    1    5    5    0  503 -0.42830719176E+02 -0.19848671991E+03 -0.27943641599E+03  0.34542171192E+03  0.00000000000E+00 0.  1.
         -1    1    6    6    0  502 -0.40994080408E+03 -0.37303561225E+02  0.30282545822E+02  0.41274695772E+03  0.00000000000E+00 0.  1.
<mgrwt>
<rscale>  0 0.28990558E+04</rscale>
<asrwt>0</asrwt>
<pdfrwt beam="1">  1        1 0.31032430E+00 0.28990558E+04</pdfrwt>
<pdfrwt beam="2">  1       -1 0.16025466E+00 0.28990558E+04</pdfrwt>
<totfact> 0.72457735E-01</totfact>
</mgrwt>
</event>
<event>
12    1  0.1489233E-007  0.1725289E+04  0.7818608E-02  0.8747071E-01
          1   -1    0    0  501    0  0.00000000000E+00  0.00000000000E+00  0.27195650021E+04  0.27195650021E+04  0.00000000000E+00 0. -1.
         -1   -1    0    0    0  501 -0.00000000000E+00 -0.00000000000E+00 -0.27363049035E+03  0.27363049035E+03  0.00000000000E+00 0.  1.
         23    2    1    2    0    0  0.22696705508E+03  0.11043694654E+03  0.19011833423E+04  0.19200326322E+04  0.91196734457E+02 0.  0.
        254    2    1    2    0    0 -0.22696705508E+03 -0.11043694654E+03  0.54475116946E+03  0.10731628603E+04  0.88950229050E+03 0.  0.
        -24    2    4    4    0    0 -0.96314220844E+02  0.12161023544E+03 -0.20838302155E+03  0.27032984128E+03  0.74761359772E+02 0.  0.
         24    2    4    4    0    0 -0.13065283423E+03 -0.23204718198E+03  0.75313419101E+03  0.80283301900E+03  0.80085510367E+02 0.  0.
         13    1    3    3    0    0  0.16085834880E+03  0.37980123092E+02  0.10053353852E+04  0.10188312593E+04  0.00000000000E+00 0.  1.
        -13    1    3    3    0    0  0.66108706274E+02  0.72456823444E+02  0.89584795709E+03  0.90120137291E+03  0.00000000000E+00 0. -1.
          4    1    6    6  502    0 -0.11828978966E+03 -0.22570343794E+03  0.64025211960E+03  0.68909889920E+03  0.00000000000E+00 0. -1.
          3    1    5    5  503    0 -0.47028195094E+02  0.11041892589E+03 -0.16289550803E+03  0.20233372647E+03  0.00000000000E+00 0. -1.
         -4    1    5    5    0  503 -0.49286025751E+02  0.11191309553E+02 -0.45487513517E+02  0.67996114814E+02  0.00000000000E+00 0.  1.
         -3    1    6    6    0  502 -0.12363044575E+02 -0.63437440430E+01  0.11288207141E+03  0.11373411980E+03  0.00000000000E+00 0.  1.
<mgrwt>
<rscale>  0 0.17252894E+04</rscale>
<asrwt>0</asrwt>
<pdfrwt beam="1">  1        1 0.41839460E+00 0.17252894E+04</pdfrwt>
<pdfrwt beam="2">  1       -1 0.42097000E-01 0.17252894E+04</pdfrwt>
<totfact> 0.50160848E+00</totfact>
</mgrwt>
</event>
<event>
12    1  0.1489233E-007  0.2019443E+04  0.7818608E-02  0.8597584E-01
         -2   -1    0    0    0  501 -0.00000000000E+00  0.00000000000E+00  0.78857554087E+03  0.78857554087E+03  0.00000000000E+00 0.  1.
          2   -1    0    0  501    0  0.00000000000E+00 -0.00000000000E+00 -0.12928853016E+04  0.12928853016E+04  0.00000000000E+00 0. -1.
         23    2    1    2    0    0  0.98669330857E+02  0.39146639260E+03  0.52198477809E+03  0.66647218432E+03  0.93463846120E+02 0.  0.
        254    2    1    2    0    0 -0.98669330857E+02 -0.39146639260E+03 -0.10262945388E+04  0.14149886582E+04  0.88652741013E+03 0.  0.
        -24    2    4    4    0    0 -0.71372794874E+02 -0.11658061998E+03  0.14108437372E+03  0.21277539850E+03  0.81752387703E+02 0.  0.
         24    2    4    4    0    0 -0.27296535982E+02 -0.27488577263E+03 -0.11673789125E+04  0.12022132597E+04  0.78967761790E+02 0.  0.
         11    1    3    3    0    0  0.90155787553E+02  0.26751702086E+03  0.29899767866E+03  0.41120923424E+03  0.00000000000E+00 0. -1.
        -11    1    3    3    0    0  0.85135433038E+01  0.12394937175E+03  0.22298709942E+03  0.25526295009E+03  0.00000000000E+00 0.  1.
          4    1    6    6  502    0 -0.41044087073E+01 -0.24495817634E+03 -0.92496106280E+03  0.95685647932E+03  0.00000000000E+00 0. -1.
          3    1    5    5  503    0 -0.87669978305E+02 -0.90715300421E+02  0.12735952133E+03  0.17926443736E+03  0.00000000000E+00 0. -1.
         -4    1    5    5    0  503  0.16297183431E+02 -0.25865319556E+02  0.13724852386E+02  0.33510961140E+02  0.00000000000E+00 0.  1.
         -3    1    6    6    0  502 -0.23192127275E+02 -0.29927596285E+02 -0.24241784974E+03  0.24535678034E+03  0.00000000000E+00 0.  1.
<mgrwt>
<rscale>  0 0.20194432E+04</rscale>
<asrwt>0</asrwt>
<pdfrwt beam="1">  1        2 0.19890543E+00 0.20194432E+04</pdfrwt>
<pdfrwt beam="2">  1       -2 0.12131932E+00 0.20194432E+04</pdfrwt>
<totfact> 0.80014950E+00</totfact>
</mgrwt>
</event>
<event>
12    1  0.1489233E-007  0.1458494E+04  0.7818608E-02  0.8912533E-01
          2   -1    0    0  501    0  0.00000000000E+00  0.00000000000E+00  0.82419437073E+03  0.82419437073E+03  0.00000000000E+00 0. -1.
         -2   -1    0    0    0  501 -0.00000000000E+00 -0.00000000000E+00 -0.64523733331E+03  0.64523733331E+03  0.00000000000E+00 0.  1.
         23    2    1    2    0    0 -0.42911710900E+03 -0.90657861350E+02  0.93128621143E+02  0.45765549468E+03  0.91734784403E+02 0.  0.
        254    2    1    2    0    0  0.42911710900E+03  0.90657861350E+02  0.85828416268E+02  0.10117762094E+04  0.90772475990E+03 0.  0.
        -24    2    4    4    0    0  0.25556185919E+03 -0.99204097719E+02 -0.37794201414E+03  0.47548509753E+03  0.89958851936E+02 0.  0.
         24    2    4    4    0    0  0.17355524981E+03  0.18986195907E+03  0.46377043041E+03  0.53629111183E+03  0.79725505770E+02 0.  0.
         11    1    3    3    0    0 -0.40450566332E+03 -0.83012297229E+02  0.62519290947E+02  0.41764163452E+03  0.00000000000E+00 0.  1.
        -11    1    3    3    0    0 -0.24611445686E+02 -0.76455641209E+01  0.30609330195E+02  0.40013860155E+02  0.00000000000E+00 0. -1.
          4    1    6    6  502    0  0.15826969146E+02  0.45692006156E+02  0.14217787904E+03  0.15017590242E+03  0.00000000000E+00 0. -1.
          3    1    5    5  503    0 -0.73528188377E+01 -0.71619058737E-02 -0.72930438878E+01  0.10356277579E+02  0.00000000000E+00 0. -1.
         -4    1    5    5    0  503  0.26291467803E+03 -0.99196935813E+02 -0.37064897025E+03  0.46512881995E+03  0.00000000000E+00 0.  1.
         -3    1    6    6    0  502  0.15772828066E+03  0.14416995291E+03  0.32159255136E+03  0.38611520941E+03  0.00000000000E+00 0.  1.
<mgrwt>
<rscale>  0 0.14584937E+04</rscale>
<asrwt>0</asrwt>
<pdfrwt beam="1">  1        2 0.12679913E+00 0.14584937E+04</pdfrwt>
<pdfrwt beam="2">  1       -2 0.99267282E-01 0.14584937E+04</pdfrwt>
<totfact> 0.26966766E+01</totfact>
</mgrwt>
</event>
<event>
12    1  0.1489233E-007  0.1959653E+04  0.7818608E-02  0.8625720E-01
          2   -1    0    0  501    0  0.00000000000E+00  0.00000000000E+00  0.10990654599E+04  0.10990654599E+04  0.00000000000E+00 0.  1.
         -2   -1    0    0    0  501 -0.00000000000E+00 -0.00000000000E+00 -0.87352382310E+03  0.87352382310E+03  0.00000000000E+00 0. -1.
         23    2    1    2    0    0  0.43926462865E+03  0.15155758242E+03 -0.52487453184E+03  0.70674590708E+03  0.89852035176E+02 0.  0.
        254    2    1    2    0    0 -0.43926462865E+03 -0.15155758242E+03  0.75041616862E+03  0.12658433759E+04  0.90736536821E+03 0.  0.
        -24    2    4    4    0    0 -0.40209249538E+03 -0.24700236848E+03 -0.25550776622E+02  0.47911695814E+03  0.78814164467E+02 0.  0.
         24    2    4    4    0    0 -0.37172133273E+02  0.95444786061E+02  0.77596694524E+03  0.78672641776E+03  0.79512776466E+02 0.  0.
         11    1    3    3    0    0  0.23101471514E+03  0.12690616560E+03 -0.29141407392E+03  0.39293146470E+03  0.00000000000E+00 0. -1.
        -11    1    3    3    0    0  0.20824991352E+03  0.24651416821E+02 -0.23346045792E+03  0.31381444238E+03  0.00000000000E+00 0.  1.
          2    1    6    6  502    0 -0.45417228448E+02  0.10655329600E+03  0.69527659298E+03  0.70485875910E+03  0.00000000000E+00 0. -1.
          1    1    5    5  503    0 -0.35033483508E+03 -0.18099496988E+03 -0.26693297094E+02  0.39522931053E+03  0.00000000000E+00 0. -1.
         -2    1    5    5    0  503 -0.51757660303E+02 -0.66007398596E+02  0.11425204728E+01  0.83887647616E+02  0.00000000000E+00 0.  1.
         -1    1    6    6    0  502  0.82450951742E+01 -0.11108509942E+02  0.80690352262E+02  0.81867658667E+02  0.00000000000E+00 0.  1.
<mgrwt>
<rscale>  0 0.19596529E+04</rscale>
<asrwt>0</asrwt>
<pdfrwt beam="1">  1        2 0.16908699E+00 0.19596529E+04</pdfrwt>
<pdfrwt beam="2">  1       -2 0.13438828E+00 0.19596529E+04</pdfrwt>
<totfact> 0.81161072E+00</totfact>
</mgrwt>
</event>
<event>
12    1  0.1489233E-007  0.1416281E+04  0.7818608E-02  0.8942117E-01
          1   -1    0    0  501    0  0.00000000000E+00  0.00000000000E+00  0.19863750284E+04  0.19863750284E+04  0.00000000000E+00 0. -1.
         -1   -1    0    0    0  501 -0.00000000000E+00 -0.00000000000E+00 -0.25245113222E+03  0.25245113222E+03  0.00000000000E+00 0.  1.
         23    2    1    2    0    0 -0.23406269511E+03  0.12679914156E+03  0.10724314619E+04  0.11088486394E+04  0.92588860694E+02 0.  0.
        254    2    1    2    0    0  0.23406269511E+03 -0.12679914156E+03  0.66149243431E+03  0.11299775212E+04  0.87659203186E+03 0.  0.
        -24    2    4    4    0    0  0.12924211477E+03 -0.49379761984E+03  0.29530236077E+03  0.59502900039E+03  0.79475867055E+02 0.  0.
         24    2    4    4    0    0  0.10482058034E+03  0.36699847828E+03  0.36619007354E+03  0.53494852085E+03  0.79996955416E+02 0.  0.
         11    1    3    3    0    0 -0.82368148130E+01 -0.53634480007E+01  0.14159127074E+03  0.14193202473E+03  0.00000000000E+00 0.  1.
        -11    1    3    3    0    0 -0.22582588030E+03  0.13216258956E+03  0.93084019111E+03  0.96691661464E+03  0.00000000000E+00 0. -1.
          4    1    6    6  502    0  0.58516159039E+02  0.86148413216E+02  0.80148710289E+02  0.13141349143E+03  0.00000000000E+00 0. -1.
          1    1    5    5  503    0  0.74785341219E+02 -0.39849776078E+03  0.24966714370E+03  0.47615858204E+03  0.00000000000E+00 0. -1.
         -2    1    5    5    0  503  0.54456773553E+02 -0.95299859055E+02  0.45635217074E+02  0.11887041835E+03  0.00000000000E+00 0.  1.
         -3    1    6    6    0  502  0.46304421298E+02  0.28085006506E+03  0.28604136325E+03  0.40353502942E+03  0.00000000000E+00 0.  1.
<mgrwt>
<rscale>  0 0.14162805E+04</rscale>
<asrwt>0</asrwt>
<pdfrwt beam="1">  1        1 0.30559615E+00 0.14162805E+04</pdfrwt>
<pdfrwt beam="2">  1       -1 0.38838637E-01 0.14162805E+04</pdfrwt>
<totfact> 0.19071394E+01</totfact>
</mgrwt>
</event>
<event>
12    1  0.1489233E-007  0.1311440E+04  0.7818608E-02  0.9020542E-01
         -2   -1    0    0    0  501 -0.00000000000E+00  0.00000000000E+00  0.38026792346E+03  0.38026792346E+03  0.00000000000E+00 0. -1.
          2   -1    0    0  501    0  0.00000000000E+00 -0.00000000000E+00 -0.11306986682E+04  0.11306986682E+04  0.00000000000E+00 0.  1.
         23    2    1    2    0    0 -0.25733899401E+03 -0.16045318312E+03 -0.34136606640E+02  0.31860966484E+03  0.91532665225E+02 0.  0.
        254    2    1    2    0    0  0.25733899401E+03  0.16045318312E+03 -0.71629413807E+03  0.11923569268E+04  0.90369749740E+03 0.  0.
        -24    2    4    4    0    0  0.77855134112E+02  0.33266095903E+03 -0.83373858531E+03  0.90480542197E+03  0.82632241983E+02 0.  0.
         24    2    4    4    0    0  0.17948385990E+03 -0.17220777591E+03  0.11744444724E+03  0.28755150482E+03  0.83801525560E+02 0.  0.
         13    1    3    3    0    0 -0.10089506913E+03 -0.69361481779E+02  0.30855646562E+02  0.12626520128E+03  0.00000000000E+00 0. -1.
        -13    1    3    3    0    0 -0.15644392488E+03 -0.91091701342E+02 -0.64992253202E+02  0.19234446356E+03  0.00000000000E+00 0.  1.
          4    1    6    6  502    0  0.18207677696E+03 -0.14259828296E+03  0.93790987237E+02  0.24956556713E+03  0.00000000000E+00 0. -1.
          1    1    5    5  503    0  0.72217888809E+02  0.33655660888E+03 -0.81019746496E+03  0.88028728644E+03  0.00000000000E+00 0. -1.
         -2    1    5    5    0  503  0.56372453030E+01 -0.38956498453E+01 -0.23541120353E+02  0.24518135528E+02  0.00000000000E+00 0.  1.
         -3    1    6    6    0  502 -0.25929170596E+01 -0.29609492954E+02  0.23653460000E+02  0.37985937685E+02  0.00000000000E+00 0.  1.
<mgrwt>
<rscale>  0 0.13114396E+04</rscale>
<asrwt>0</asrwt>
<pdfrwt beam="1">  1        2 0.17395364E+00 0.13114396E+04</pdfrwt>
<pdfrwt beam="2">  1       -2 0.58502758E-01 0.13114396E+04</pdfrwt>
<totfact> 0.55813451E+01</totfact>
</mgrwt>
</event>
<event>
12    1  0.1489233E-007  0.3176878E+04  0.7818608E-02  0.8194951E-01
         -2   -1    0    0    0  501 -0.00000000000E+00  0.00000000000E+00  0.26090731371E+04  0.26090731371E+04  0.00000000000E+00 0.  1.
          2   -1    0    0  501    0  0.00000000000E+00 -0.00000000000E+00 -0.96706292469E+03  0.96706292469E+03  0.00000000000E+00 0. -1.
         23    2    1    2    0    0 -0.11906431248E+04  0.48584650321E+03  0.14759640287E+04  0.19597583744E+04  0.92223623129E+02 0.  0.
        254    2    1    2    0    0  0.11906431248E+04 -0.48584650321E+03  0.16604618370E+03  0.16163776874E+04  0.96510497756E+03 0.  0.
        -24    2    4    4    0    0  0.11375600759E+04 -0.47411650533E+02  0.22328575475E+03  0.11636084491E+04  0.88528547380E+02 0.  0.
         24    2    4    4    0    0  0.53083048961E+02 -0.43843485268E+03 -0.57239571045E+02  0.45276923828E+03  0.81735454393E+02 0.  0.
         13    1    3    3    0    0 -0.81451706350E+01  0.16212618689E+01  0.11461672894E+01  0.83836742647E+01  0.00000000000E+00 0. -1.
        -13    1    3    3    0    0 -0.11824979542E+04  0.48422524135E+03  0.14748178614E+04  0.19513747001E+04  0.00000000000E+00 0.  1.
          4    1    6    6  502    0  0.49596724029E+02 -0.30970844093E+03 -0.75750136200E+02  0.32267202629E+03  0.00000000000E+00 0. -1.
          3    1    5    5  503    0  0.65275412524E+03 -0.39194515730E+02  0.17102694058E+03  0.67592482754E+03  0.00000000000E+00 0. -1.
         -4    1    5    5    0  503  0.48480595062E+03 -0.82171348029E+01  0.52258814173E+02  0.48768362155E+03  0.00000000000E+00 0.  1.
         -3    1    6    6    0  502  0.34863249322E+01 -0.12872641175E+03  0.18510565155E+02  0.13009721199E+03  0.00000000000E+00 0.  1.
<mgrwt>
<rscale>  0 0.31768776E+04</rscale>
<asrwt>0</asrwt>
<pdfrwt beam="1">  1        2 0.14877891E+00 0.31768776E+04</pdfrwt>
<pdfrwt beam="2">  1       -2 0.40139586E+00 0.31768776E+04</pdfrwt>
<totfact> 0.16209017E-01</totfact>
</mgrwt>
</event>
<event>
12    1  0.1489233E-007  0.2861144E+04  0.7818608E-02  0.8284533E-01
          1   -1    0    0  501    0  0.00000000000E+00  0.00000000000E+00  0.12085617452E+04  0.12085617452E+04  0.00000000000E+00 0. -1.
         -1   -1    0    0    0  501 -0.00000000000E+00 -0.00000000000E+00 -0.16933649113E+04  0.16933649113E+04  0.00000000000E+00 0.  1.
         23    2    1    2    0    0 -0.34606623389E+03  0.16516542076E+03  0.10037747864E+04  0.10783769316E+04  0.91057840526E+02 0.  0.
        254    2    1    2    0    0  0.34606623389E+03 -0.16516542076E+03 -0.14885779525E+04  0.18235497249E+04  0.98103405859E+03 0.  0.
        -24    2    4    4    0    0 -0.16000743134E+03  0.94214897023E+02  0.26568976529E+02  0.20332879893E+03  0.78472065437E+02 0.  0.
         24    2    4    4    0    0  0.50607366523E+03 -0.25938031779E+03 -0.15151469290E+04  0.16202209260E+04  0.77826271689E+02 0.  0.
         11    1    3    3    0    0 -0.20885918704E+03  0.13503932292E+03  0.55620184524E+03  0.60927684298E+03  0.00000000000E+00 0.  1.
        -11    1    3    3    0    0 -0.13720704685E+03  0.30126097850E+02  0.44757294112E+03  0.46910008858E+03  0.00000000000E+00 0. -1.
          2    1    6    6  502    0  0.19355572043E+03 -0.13329317024E+03 -0.55749800338E+03  0.60500818996E+03  0.00000000000E+00 0. -1.
          3    1    5    5  503    0 -0.15391123221E+03  0.89287728184E+02  0.24329987113E+01  0.17795191847E+03  0.00000000000E+00 0. -1.
         -4    1    5    5    0  503 -0.60961991352E+01  0.49271688388E+01  0.24135977817E+02  0.25376880460E+02  0.00000000000E+00 0.  1.
         -1    1    6    6    0  502  0.31251794480E+03 -0.12608714755E+03 -0.95764892563E+03  0.10152127360E+04  0.00000000000E+00 0.  1.
<mgrwt>
<rscale>  0 0.28611439E+04</rscale>
<asrwt>0</asrwt>
<pdfrwt beam="1">  1        1 0.18593258E+00 0.28611439E+04</pdfrwt>
<pdfrwt beam="2">  1       -1 0.26051768E+00 0.28611439E+04</pdfrwt>
<totfact> 0.54003981E-01</totfact>
</mgrwt>
</event>
<event>
12    1  0.1489233E-007  0.1160219E+04  0.7818608E-02  0.9148407E-01
          2   -1    0    0  501    0  0.00000000000E+00  0.00000000000E+00  0.32434696096E+04  0.32434696096E+04  0.00000000000E+00 0. -1.
         -2   -1    0    0    0  501 -0.00000000000E+00 -0.00000000000E+00 -0.10375526941E+03  0.10375526941E+03  0.00000000000E+00 0.  1.
         23    2    1    2    0    0 -0.11308169545E+03 -0.16609024801E+03  0.11356902250E+04  0.11584609179E+04  0.10893103677E+03 0.  0.
        254    2    1    2    0    0  0.11308169545E+03  0.16609024801E+03  0.20040241152E+04  0.21887639611E+04  0.85685563716E+03 0.  0.
        -24    2    4    4    0    0  0.21006906543E+03  0.14397600612E+03  0.20384549202E+04  0.20558621979E+04  0.80080037499E+02 0.  0.
         24    2    4    4    0    0 -0.96987369987E+02  0.22114241890E+02 -0.34430805078E+02  0.13290176318E+03  0.81128346995E+02 0.  0.
         11    1    3    3    0    0 -0.99980695305E+02 -0.59090418265E+02  0.70398079986E+03  0.71349616925E+03  0.00000000000E+00 0.  1.
        -11    1    3    3    0    0 -0.13101000142E+02 -0.10699982975E+03  0.43170942516E+03  0.44496474865E+03  0.00000000000E+00 0. -1.
          4    1    6    6  502    0 -0.89541056599E+02 -0.12340826525E+01 -0.51250455932E+02  0.10317816150E+03  0.00000000000E+00 0. -1.
          1    1    5    5  503    0  0.58367489361E+02  0.41484628274E+02  0.33321254861E+03  0.34082010027E+03  0.00000000000E+00 0. -1.
         -2    1    5    5    0  503  0.15170157607E+03  0.10249137785E+03  0.17052423716E+04  0.17150420977E+04  0.00000000000E+00 0.  1.
         -3    1    6    6    0  502 -0.74463133887E+01  0.23348324543E+02  0.16819650854E+02  0.29723601681E+02  0.00000000000E+00 0.  1.
<mgrwt>
<rscale>  0 0.11602191E+04</rscale>
<asrwt>0</asrwt>
<pdfrwt beam="1">  1        2 0.49899525E+00 0.11602191E+04</pdfrwt>
<pdfrwt beam="2">  1       -2 0.15962352E-01 0.11602191E+04</pdfrwt>
<totfact> 0.38774139E+01</totfact>
</mgrwt>
</event>
<event>
12    1  0.1489233E-007  0.2090862E+04  0.7818608E-02  0.8565279E-01
         -2   -1    0    0    0  501 -0.00000000000E+00  0.00000000000E+00  0.64234184359E+03  0.64234184359E+03  0.00000000000E+00 0.  1.
          2   -1    0    0  501    0  0.00000000000E+00 -0.00000000000E+00 -0.17014716895E+04  0.17014716895E+04  0.00000000000E+00 0. -1.
         23    2    1    2    0    0  0.17265013764E+03 -0.17733699254E+03 -0.13396763774E+04  0.13653309289E+04  0.90217904700E+02 0.  0.
        254    2    1    2    0    0 -0.17265013764E+03  0.17733699254E+03  0.28054653142E+03  0.97848260424E+03  0.90413791622E+03 0.  0.
        -24    2    4    4    0    0  0.10225614527E+03 -0.88201648853E+02  0.50516145270E+03  0.52834958201E+03  0.75692386723E+02 0.  0.
         24    2    4    4    0    0 -0.27490628291E+03  0.26553864139E+03 -0.22461492128E+03  0.45013302223E+03  0.77997694732E+02 0.  0.
         11    1    3    3    0    0  0.15513619823E+03 -0.14290636519E+03 -0.91947474461E+03  0.94335744826E+03  0.00000000000E+00 0. -1.
        -11    1    3    3    0    0  0.17513939405E+02 -0.34430627349E+02 -0.42020163274E+03  0.42197348061E+03  0.00000000000E+00 0.  1.
          2    1    6    6  502    0 -0.10836848819E+03  0.56617056949E+02 -0.82657906681E+02  0.14758573748E+03  0.00000000000E+00 0. -1.
          3    1    5    5  503    0  0.15467654883E+02  0.11355795564E+02  0.11106435206E+03  0.11270977216E+03  0.00000000000E+00 0. -1.
         -4    1    5    5    0  503  0.86788490388E+02 -0.99557444416E+02  0.39409710064E+03  0.41563980986E+03  0.00000000000E+00 0.  1.
         -1    1    6    6    0  502 -0.16653779472E+03  0.20892158444E+03 -0.14195701460E+03  0.30254728475E+03  0.00000000000E+00 0.  1.
<mgrwt>
<rscale>  0 0.20908625E+04</rscale>
<asrwt>0</asrwt>
<pdfrwt beam="1">  1        2 0.26176487E+00 0.20908625E+04</pdfrwt>
<pdfrwt beam="2">  1       -2 0.98821824E-01 0.20908625E+04</pdfrwt>
<totfact> 0.76688961E+00</totfact>
</mgrwt>
</event>
<event>
12    1  0.1489233E-007  0.1768703E+04  0.7818608E-02  0.8723122E-01
         -2   -1    0    0    0  501 -0.00000000000E+00  0.00000000000E+00  0.10694459569E+04  0.10694459569E+04  0.00000000000E+00 0.  1.
          2   -1    0    0  501    0  0.00000000000E+00 -0.00000000000E+00 -0.73129265004E+03  0.73129265004E+03  0.00000000000E+00 0. -1.
         23    2    1    2    0    0 -0.41487923449E+03 -0.48574405018E+03 -0.26720099886E+02  0.64571552229E+03  0.90346613091E+02 0.  0.
        254    2    1    2    0    0  0.41487923449E+03  0.48574405018E+03  0.36487340670E+03  0.11550230846E+04  0.89043453525E+03 0.  0.
        -24    2    4    4    0    0  0.16523350629E+03  0.17275985573E+03  0.62295380371E+03  0.67201824093E+03  0.79931190602E+02 0.  0.
         24    2    4    4    0    0  0.24964572819E+03  0.31298419446E+03 -0.25808039701E+03  0.48300484368E+03  0.80038066675E+02 0.  0.
         13    1    3    3    0    0 -0.66012879310E+02 -0.42481353937E+02  0.15642657195E+02  0.80044102789E+02  0.00000000000E+00 0.  1.
        -13    1    3    3    0    0 -0.34886635518E+03 -0.44326269625E+03 -0.42362757081E+02  0.56567141951E+03  0.00000000000E+00 0. -1.
          2    1    6    6  502    0  0.99585653083E+02  0.16678834523E+03 -0.88480912383E+02  0.21345848838E+03  0.00000000000E+00 0. -1.
          3    1    5    5  503    0  0.12409082633E+02  0.30829402292E+02  0.17183986330E+03  0.17502392978E+03  0.00000000000E+00 0. -1.
         -4    1    5    5    0  503  0.15282442366E+03  0.14193045343E+03  0.45111394041E+03  0.49699431114E+03  0.00000000000E+00 0.  1.
         -1    1    6    6    0  502  0.15006007511E+03  0.14619584922E+03 -0.16959948462E+03  0.26954635530E+03  0.00000000000E+00 0.  1.
<mgrwt>
<rscale>  0 0.17687034E+04</rscale>
<asrwt>0</asrwt>
<pdfrwt beam="1">  1        2 0.11250656E+00 0.17687034E+04</pdfrwt>
<pdfrwt beam="2">  1       -2 0.16453015E+00 0.17687034E+04</pdfrwt>
<totfact> 0.85514200E+00</totfact>
</mgrwt>
</event>
<event>
12    1  0.1489233E-007  0.3170237E+04  0.7818608E-02  0.8196722E-01
          2   -1    0    0  501    0  0.00000000000E+00  0.00000000000E+00  0.19524098519E+04  0.19524098519E+04  0.00000000000E+00 0. -1.
         -2   -1    0    0    0  501 -0.00000000000E+00 -0.00000000000E+00 -0.12869228737E+04  0.12869228737E+04  0.00000000000E+00 0.  1.
         23    2    1    2    0    0  0.11139479220E+04 -0.42539701227E+03  0.11585130415E+04  0.16650318672E+04  0.91302030685E+02 0.  0.
        254    2    1    2    0    0 -0.11139479220E+04  0.42539701227E+03 -0.49302606328E+03  0.15743008583E+04  0.90194562063E+03 0.  0.
        -24    2    4    4    0    0 -0.96097534132E+03  0.19135284359E+03  0.21780456565E+02  0.98335880601E+03  0.80191244533E+02 0.  0.
         24    2    4    4    0    0 -0.15297258064E+03  0.23404416868E+03 -0.51480651984E+03  0.59094205231E+03  0.77520790745E+02 0.  0.
         13    1    3    3    0    0  0.10483886101E+04 -0.38732123539E+03  0.10567671599E+04  0.15381460423E+04  0.00000000000E+00 0. -1.
        -13    1    3    3    0    0  0.65559311834E+02 -0.38075776884E+02  0.10174588160E+03  0.12688582496E+03  0.00000000000E+00 0.  1.
          4    1    6    6  502    0 -0.20952192188E+02  0.10394214235E+02 -0.90415493192E+02  0.93391624122E+02  0.00000000000E+00 0. -1.
          1    1    5    5  503    0 -0.53333377411E+02 -0.77065969257E+01 -0.94983391263E-01  0.53887380750E+02  0.00000000000E+00 0. -1.
         -2    1    5    5    0  503 -0.90764196391E+03  0.19905944052E+03  0.21875439956E+02  0.92947142526E+03  0.00000000000E+00 0.  1.
         -3    1    6    6    0  502 -0.13202038845E+03  0.22364995445E+03 -0.42439102665E+03  0.49755042819E+03  0.00000000000E+00 0.  1.
<mgrwt>
<rscale>  0 0.31702372E+04</rscale>
<asrwt>0</asrwt>
<pdfrwt beam="1">  1        2 0.30037075E+00 0.31702372E+04</pdfrwt>
<pdfrwt beam="2">  1       -2 0.19798813E+00 0.31702372E+04</pdfrwt>
<totfact> 0.82200664E-01</totfact>
</mgrwt>
</event>
<event>
12    1  0.1489233E-007  0.2312570E+04  0.7818608E-02  0.8472981E-01
          2   -1    0    0  501    0  0.00000000000E+00  0.00000000000E+00  0.34082760560E+04  0.34082760560E+04  0.00000000000E+00 0. -1.
         -2   -1    0    0    0  501 -0.00000000000E+00 -0.00000000000E+00 -0.39227889239E+03  0.39227889239E+03  0.00000000000E+00 0.  1.
         23    2    1    2    0    0  0.21561223783E+03  0.42330110027E+02 -0.28554831652E+03  0.36994262997E+03  0.83900137561E+02 0.  0.
        254    2    1    2    0    0 -0.21561223783E+03 -0.42330110027E+02  0.33015454802E+04  0.34306123185E+04  0.90587959831E+03 0.  0.
        -24    2    4    4    0    0 -0.42317531481E+03  0.29890933368E+03  0.19168534567E+04  0.19871347547E+04  0.77157125207E+02 0.  0.
         24    2    4    4    0    0  0.20756307698E+03 -0.34123944371E+03  0.13846920235E+04  0.14434775638E+04  0.82028582870E+02 0.  0.
         13    1    3    3    0    0  0.11841791349E+03 -0.17624127859E+02 -0.12683619797E+03  0.17441569091E+03  0.00000000000E+00 0. -1.
        -13    1    3    3    0    0  0.97194324332E+02  0.59954237885E+02 -0.15871211855E+03  0.19552693906E+03  0.00000000000E+00 0.  1.
          2    1    6    6  502    0  0.35271855006E+02 -0.23556842047E+02  0.93645578759E+02  0.10280332185E+03  0.00000000000E+00 0. -1.
          1    1    5    5  503    0 -0.16969754579E+02  0.27000225750E+01  0.31249902792E+02  0.35662573055E+02  0.00000000000E+00 0. -1.
         -2    1    5    5    0  503 -0.40620556023E+03  0.29620931111E+03  0.18856035539E+04  0.19514721816E+04  0.00000000000E+00 0.  1.
         -1    1    6    6    0  502  0.17229122198E+03 -0.31768260166E+03  0.12910464447E+04  0.13406742419E+04  0.00000000000E+00 0.  1.
<mgrwt>
<rscale>  0 0.23125698E+04</rscale>
<asrwt>0</asrwt>
<pdfrwt beam="1">  1        2 0.52435014E+00 0.23125698E+04</pdfrwt>
<pdfrwt beam="2">  1       -2 0.60350601E-01 0.23125698E+04</pdfrwt>
<totfact> 0.21850618E+00</totfact>
</mgrwt>
</event>
<event>
12    1  0.1489233E-007  0.1372885E+04  0.7818608E-02  0.8973683E-01
          3   -1    0    0  501    0  0.00000000000E+00  0.00000000000E+00  0.59061009928E+03  0.59061009928E+03  0.00000000000E+00 0. -1.
         -3   -1    0    0    0  501 -0.00000000000E+00 -0.00000000000E+00 -0.79782464064E+03  0.79782464064E+03  0.00000000000E+00 0.  1.
         23    2    1    2    0    0  0.21861861037E+03  0.30515393769E+03  0.12439805711E+02  0.38641117237E+03  0.90806513414E+02 0.  0.
        254    2    1    2    0    0 -0.21861861037E+03 -0.30515393769E+03 -0.21965434707E+03  0.10020235676E+04  0.90271267591E+03 0.  0.
        -24    2    4    4    0    0 -0.44255276192E+03  0.72727400570E+02  0.83311438742E+02  0.46312641882E+03  0.80019135914E+02 0.  0.
         24    2    4    4    0    0  0.22393415155E+03 -0.37788133826E+03 -0.30296578581E+03  0.53889714873E+03  0.75372803449E+02 0.  0.
         11    1    3    3    0    0  0.13980917514E+03  0.25909557797E+03  0.18008417918E+02  0.29496004322E+03  0.00000000000E+00 0. -1.
        -11    1    3    3    0    0  0.78809435235E+02  0.46058359716E+02 -0.55686122072E+01  0.91451129155E+02  0.00000000000E+00 0.  1.
          2    1    6    6  502    0  0.18095703659E+03 -0.34744416160E+03 -0.27956482707E+03  0.48126851867E+03  0.00000000000E+00 0. -1.
          3    1    5    5  503    0 -0.30844693229E+03  0.75363145004E+02  0.30534436028E+02  0.31898505521E+03  0.00000000000E+00 0. -1.
         -4    1    5    5    0  503 -0.13410582963E+03 -0.26357444339E+01  0.52777002714E+02  0.14414136361E+03  0.00000000000E+00 0.  1.
         -1    1    6    6    0  502  0.42977114955E+02 -0.30437176658E+02 -0.23400958741E+02  0.57628630062E+02  0.00000000000E+00 0.  1.
<mgrwt>
<rscale>  0 0.13728850E+04</rscale>
<asrwt>0</asrwt>
<pdfrwt beam="1">  1        3 0.90863092E-01 0.13728850E+04</pdfrwt>
<pdfrwt beam="2">  1       -3 0.12274225E+00 0.13728850E+04</pdfrwt>
<totfact> 0.14921695E+00</totfact>
</mgrwt>
</event>
<event>
12    1  0.1489233E-007  0.1891023E+04  0.7818608E-02  0.8659338E-01
         -1   -1    0    0    0  501 -0.00000000000E+00  0.00000000000E+00  0.16317975091E+04  0.16317975091E+04  0.00000000000E+00 0.  1.
          1   -1    0    0  501    0  0.00000000000E+00 -0.00000000000E+00 -0.54785717969E+03  0.54785717969E+03  0.00000000000E+00 0. -1.
         23    2    1    2    0    0 -0.62513156836E+02  0.54122943802E+03 -0.13372109370E+03  0.56818958514E+03  0.90115894314E+02 0.  0.
        254    2    1    2    0    0  0.62513156836E+02 -0.54122943802E+03  0.12176614231E+04  0.16114651036E+04  0.90403718927E+03 0.  0.
        -24    2    4    4    0    0  0.76936310072E+02 -0.36005796380E+03 -0.79983564065E+00  0.37679442023E+03  0.80077851383E+02 0.  0.
         24    2    4    4    0    0 -0.14423153236E+02 -0.18117147422E+03  0.12184612587E+04  0.12346706834E+04  0.82053196191E+02 0.  0.
         13    1    3    3    0    0  0.16137215168E+02  0.24345081572E+03 -0.67685599366E+02  0.25319962431E+03  0.00000000000E+00 0.  1.
        -13    1    3    3    0    0 -0.78650372003E+02  0.29777862230E+03 -0.66035494331E+02  0.31498996084E+03  0.00000000000E+00 0. -1.
          2    1    6    6  502    0 -0.36523346907E+02 -0.14631529890E+03  0.10701686619E+04  0.10807419149E+04  0.00000000000E+00 0. -1.
          3    1    5    5  503    0  0.33255125479E+02 -0.21966132954E+03  0.36400442254E+02  0.22512662051E+03  0.00000000000E+00 0. -1.
         -4    1    5    5    0  503  0.43681184592E+02 -0.14039663426E+03 -0.37200277895E+02  0.15166779973E+03  0.00000000000E+00 0.  1.
         -1    1    6    6    0  502  0.22100193671E+02 -0.34856175327E+02  0.14829259677E+03  0.15392876852E+03  0.00000000000E+00 0.  1.
<mgrwt>
<rscale>  0 0.18910230E+04</rscale>
<asrwt>0</asrwt>
<pdfrwt beam="1">  1        1 0.84285721E-01 0.18910230E+04</pdfrwt>
<pdfrwt beam="2">  1       -1 0.25104577E+00 0.18910230E+04</pdfrwt>
<totfact> 0.25066863E+00</totfact>
</mgrwt>
</event>
<event>
12    1  0.1489233E-007  0.2021661E+04  0.7818608E-02  0.8596560E-01
          1   -1    0    0  501    0  0.00000000000E+00  0.00000000000E+00  0.20242075609E+04  0.20242075609E+04  0.00000000000E+00 0. -1.
         -1   -1    0    0    0  501 -0.00000000000E+00 -0.00000000000E+00 -0.50477930307E+03  0.50477930307E+03  0.00000000000E+00 0.  1.
         23    2    1    2    0    0  0.25402745131E+03  0.58399117332E+03 -0.10462726427E+02  0.64322126847E+03  0.89713404993E+02 0.  0.
        254    2    1    2    0    0 -0.25402745131E+03 -0.58399117332E+03  0.15298909842E+04  0.18857655955E+04  0.89998323368E+03 0.  0.
        -24    2    4    4    0    0  0.72813611737E+02 -0.60578690464E+03  0.13907024575E+04  0.15211508963E+04  0.86989240311E+02 0.  0.
         24    2    4    4    0    0 -0.32684106305E+03  0.21795731323E+02  0.13918852669E+03  0.36461469920E+03  0.79185216507E+02 0.  0.
         11    1    3    3    0    0  0.23832485932E+03  0.55425567368E+03 -0.30471781816E+02  0.60409156580E+03  0.00000000000E+00 0.  1.
        -11    1    3    3    0    0  0.15702591989E+02  0.29735499636E+02  0.20009055389E+02  0.39129702674E+02  0.00000000000E+00 0. -1.
          2    1    6    6  502    0 -0.21126173980E+03 -0.19844729120E+02  0.69011313947E+02  0.22313201794E+03  0.00000000000E+00 0. -1.
          3    1    5    5  503    0  0.26565274128E+02 -0.19025105810E+03  0.54235486242E+03  0.57536942540E+03  0.00000000000E+00 0. -1.
         -4    1    5    5    0  503  0.46248337609E+02 -0.41553584654E+03  0.84834759511E+03  0.94578147086E+03  0.00000000000E+00 0.  1.
         -1    1    6    6    0  502 -0.11557932324E+03  0.41640460444E+02  0.70177212743E+02  0.14148268126E+03  0.00000000000E+00 0.  1.
<mgrwt>
<rscale>  0 0.20216608E+04</rscale>
<asrwt>0</asrwt>
<pdfrwt beam="1">  1        1 0.31141654E+00 0.20216608E+04</pdfrwt>
<pdfrwt beam="2">  1       -1 0.77658356E-01 0.20216608E+04</pdfrwt>
<totfact> 0.44139036E+00</totfact>
</mgrwt>
</event>
<event>
12    1  0.1489233E-007  0.1996622E+04  0.7818608E-02  0.8608202E-01
         -2   -1    0    0    0  501 -0.00000000000E+00  0.00000000000E+00  0.12371946358E+04  0.12371946358E+04  0.00000000000E+00 0.  1.
          2   -1    0    0  501    0  0.00000000000E+00 -0.00000000000E+00 -0.80555209118E+03  0.80555209118E+03  0.00000000000E+00 0. -1.
         23    2    1    2    0    0  0.65692363932E+03 -0.44145508404E+03  0.18761512869E+03  0.81851488237E+03  0.91301243229E+02 0.  0.
        254    2    1    2    0    0 -0.65692363932E+03  0.44145508404E+03  0.24402741589E+03  0.12242318446E+04  0.90153367682E+03 0.  0.
        -24    2    4    4    0    0 -0.17530460676E+03  0.21811742511E+02 -0.31580216446E+03  0.37086067005E+03  0.81235289427E+02 0.  0.
         24    2    4    4    0    0 -0.48161903256E+03  0.41964334153E+03  0.55982958035E+03  0.85337117453E+03  0.82315101120E+02 0.  0.
         13    1    3    3    0    0  0.58014984296E+03 -0.39400682207E+03  0.13540189874E+03  0.71424707932E+03  0.00000000000E+00 0.  1.
        -13    1    3    3    0    0  0.76773796359E+02 -0.47448261970E+02  0.52213229945E+02  0.10426780305E+03  0.00000000000E+00 0. -1.
          2    1    6    6  502    0 -0.40766918611E+03  0.37468781504E+03  0.44974051447E+03  0.71333838702E+03  0.00000000000E+00 0. -1.
          1    1    5    5  503    0 -0.78397618989E+02 -0.30680241942E+02 -0.13297086722E+03  0.15738079755E+03  0.00000000000E+00 0. -1.
         -2    1    5    5    0  503 -0.96906987776E+02  0.52491984453E+02 -0.18283129724E+03  0.21347987250E+03  0.00000000000E+00 0.  1.
         -1    1    6    6    0  502 -0.73949846449E+02  0.44955526497E+02  0.11008906588E+03  0.14003278751E+03  0.00000000000E+00 0.  1.
<mgrwt>
<rscale>  0 0.19966219E+04</rscale>
<asrwt>0</asrwt>
<pdfrwt beam="1">  1        2 0.12393109E+00 0.19966219E+04</pdfrwt>
<pdfrwt beam="2">  1       -2 0.19033764E+00 0.19966219E+04</pdfrwt>
<totfact> 0.48880585E+00</totfact>
</mgrwt>
</event>
<event>
12    1  0.1489233E-007  0.2834857E+04  0.7818608E-02  0.8292528E-01
          1   -1    0    0  501    0  0.00000000000E+00  0.00000000000E+00  0.23278075281E+04  0.23278075281E+04  0.00000000000E+00 0. -1.
         -1   -1    0    0    0  501 -0.00000000000E+00 -0.00000000000E+00 -0.86308831595E+03  0.86308831595E+03  0.00000000000E+00 0.  1.
         23    2    1    2    0    0  0.32193983923E+03  0.12319532279E+04  0.62121034325E+03  0.14196977787E+04  0.91024592775E+02 0.  0.
        254    2    1    2    0    0 -0.32193983923E+03 -0.12319532279E+04  0.84350886885E+03  0.17711980653E+04  0.89681734993E+03 0.  0.
        -24    2    4    4    0    0 -0.31779732034E+03 -0.76404596857E+02  0.41901624969E+03  0.53774467609E+03  0.82230894007E+02 0.  0.
         24    2    4    4    0    0 -0.41425188971E+01 -0.11555486310E+04  0.42449261916E+03  0.12334533892E+04  0.76834111365E+02 0.  0.
         11    1    3    3    0    0  0.16895022833E+03  0.76382950203E+03  0.34439299861E+03  0.85474336810E+03  0.00000000000E+00 0.  1.
        -11    1    3    3    0    0  0.15298961091E+03  0.46812372583E+03  0.27681734464E+03  0.56495441057E+03  0.00000000000E+00 0. -1.
          4    1    6    6  502    0 -0.18619064106E+02 -0.42981148172E+03  0.19328312658E+03  0.47163857602E+03  0.00000000000E+00 0. -1.
          3    1    5    5  503    0 -0.22640499020E+01  0.81716442251E+01  0.34548088776E+01  0.91562762999E+01  0.00000000000E+00 0. -1.
         -4    1    5    5    0  503 -0.31553327043E+03 -0.84576241083E+02  0.41556144081E+03  0.52858839979E+03  0.00000000000E+00 0.  1.
         -3    1    6    6    0  502  0.14476545209E+02 -0.72573714927E+03  0.23120949257E+03  0.76181481323E+03  0.00000000000E+00 0.  1.
<mgrwt>
<rscale>  0 0.28348569E+04</rscale>
<asrwt>0</asrwt>
<pdfrwt beam="1">  1        1 0.35812423E+00 0.28348569E+04</pdfrwt>
<pdfrwt beam="2">  1       -1 0.13278282E+00 0.28348569E+04</pdfrwt>
<totfact> 0.73862800E-01</totfact>
</mgrwt>
</event>
<event>
12    1  0.1489233E-007  0.1451208E+04  0.7818608E-02  0.8917564E-01
         -1   -1    0    0    0  501 -0.00000000000E+00  0.00000000000E+00  0.42199288312E+03  0.42199288312E+03  0.00000000000E+00 0.  1.
          1   -1    0    0  501    0  0.00000000000E+00 -0.00000000000E+00 -0.12476537914E+04  0.12476537914E+04  0.00000000000E+00 0. -1.
         23    2    1    2    0    0 -0.96919639391E+02 -0.85427748311E+02  0.22124219917E+03  0.27215994126E+03  0.91823778256E+02 0.  0.
        254    2    1    2    0    0  0.96919639391E+02  0.85427748311E+02 -0.10469031074E+04  0.13974867332E+04  0.91666337144E+03 0.  0.
        -24    2    4    4    0    0  0.43257282326E+03  0.15205078278E+02 -0.20675748469E+03  0.48657720437E+03  0.81598262909E+02 0.  0.
         24    2    4    4    0    0 -0.33565318387E+03  0.70222670033E+02 -0.84014562271E+03  0.91090952885E+03  0.79480935812E+02 0.  0.
         11    1    3    3    0    0  0.14827161354E+02 -0.25721892727E+02  0.26296957959E+02  0.39660943977E+02  0.00000000000E+00 0. -1.
        -11    1    3    3    0    0 -0.11174680075E+03 -0.59705855585E+02  0.19494524121E+03  0.23249899728E+03  0.00000000000E+00 0.  1.
          2    1    6    6  502    0 -0.62074237422E+02  0.46161973163E+02 -0.18079720067E+03  0.19665138313E+03  0.00000000000E+00 0. -1.
          3    1    5    5  503    0  0.34258855873E+03 -0.19901115857E+02 -0.14973103825E+03  0.37440934657E+03  0.00000000000E+00 0. -1.
         -4    1    5    5    0  503  0.89984264527E+02  0.35106194135E+02 -0.57026446439E+02  0.11216785780E+03  0.00000000000E+00 0.  1.
         -1    1    6    6    0  502 -0.27357894644E+03  0.24060696870E+02 -0.65934842204E+03  0.71425814571E+03  0.00000000000E+00 0.  1.
<mgrwt>
<rscale>  0 0.14512078E+04</rscale>
<asrwt>0</asrwt>
<pdfrwt beam="1">  1        1 0.19194674E+00 0.14512078E+04</pdfrwt>
<pdfrwt beam="2">  1       -1 0.64921982E-01 0.14512078E+04</pdfrwt>
<totfact> 0.23046172E+01</totfact>
</mgrwt>
</event>
<event>
12    1  0.1489233E-007  0.1369522E+04  0.7818608E-02  0.8976180E-01
         -1   -1    0    0    0  501 -0.00000000000E+00  0.00000000000E+00  0.86242474389E+03  0.86242474389E+03  0.00000000000E+00 0.  1.
          1   -1    0    0  501    0  0.00000000000E+00 -0.00000000000E+00 -0.54369710524E+03  0.54369710524E+03  0.00000000000E+00 0. -1.
         23    2    1    2    0    0  0.36830875424E+03 -0.20509122859E+03  0.69826950616E+02  0.43667555749E+03  0.89977713832E+02 0.  0.
        254    2    1    2    0    0 -0.36830875424E+03  0.20509122859E+03  0.24890068803E+03  0.96944629163E+03  0.83675612299E+03 0.  0.
        -24    2    4    4    0    0 -0.34574906536E+03  0.50984932775E+03  0.15156811299E+03  0.63937360275E+03  0.79605011286E+02 0.  0.
         24    2    4    4    0    0 -0.22559688882E+02 -0.30475809916E+03  0.97332575041E+02  0.33007268888E+03  0.78025067869E+02 0.  0.
         13    1    3    3    0    0  0.43689800510E+01  0.81285379643E+01  0.76892480707E+00  0.92602570959E+01  0.00000000000E+00 0. -1.
        -13    1    3    3    0    0  0.36393977419E+03 -0.21321976656E+03  0.69058025809E+02  0.42741530040E+03  0.00000000000E+00 0.  1.
          2    1    6    6  502    0 -0.48431274483E+02 -0.14721233686E+03  0.36457268720E+02  0.15920487717E+03  0.00000000000E+00 0. -1.
          1    1    5    5  503    0 -0.34268441743E+03  0.47363679877E+03  0.13883664111E+03  0.60086607495E+03  0.00000000000E+00 0. -1.
         -2    1    5    5    0  503 -0.30646479206E+01  0.36212528977E+02  0.12731471876E+02  0.38507527808E+02  0.00000000000E+00 0.  1.
         -1    1    6    6    0  502  0.25871585601E+02 -0.15754576229E+03  0.60875306320E+02  0.17086781171E+03  0.00000000000E+00 0.  1.
<mgrwt>
<rscale>  0 0.13695223E+04</rscale>
<asrwt>0</asrwt>
<pdfrwt beam="1">  1        1 0.83645708E-01 0.13695223E+04</pdfrwt>
<pdfrwt beam="2">  1       -1 0.13268073E+00 0.13695223E+04</pdfrwt>
<totfact> 0.18560399E+01</totfact>
</mgrwt>
</event>
<event>
12    1  0.1489233E-007  0.1845726E+04  0.7818608E-02  0.8682354E-01
         -2   -1    0    0    0  501 -0.00000000000E+00  0.00000000000E+00  0.39729036831E+03  0.39729036831E+03  0.00000000000E+00 0.  1.
          2   -1    0    0  501    0  0.00000000000E+00 -0.00000000000E+00 -0.21437118058E+04  0.21437118058E+04  0.00000000000E+00 0. -1.
         23    2    1    2    0    0 -0.36960184886E+03 -0.45171525720E+03 -0.15110031356E+03  0.61059555391E+03  0.96661395812E+02 0.  0.
        254    2    1    2    0    0  0.36960184886E+03  0.45171525720E+03 -0.15953211239E+04  0.19304066202E+04  0.91693403829E+03 0.  0.
        -24    2    4    4    0    0  0.62440656149E+03  0.51017379923E+03 -0.12587034258E+04  0.14968923193E+04  0.78685715657E+02 0.  0.
         24    2    4    4    0    0 -0.25480471263E+03 -0.58458542039E+02 -0.33661769810E+03  0.43351430092E+03  0.79248543931E+02 0.  0.
         13    1    3    3    0    0 -0.30642479169E+03 -0.30737446090E+03 -0.11311258812E+03  0.44851941961E+03  0.00000000000E+00 0.  1.
        -13    1    3    3    0    0 -0.63177057170E+02 -0.14434079629E+03 -0.37987725442E+02  0.16207613430E+03  0.00000000000E+00 0. -1.
          2    1    6    6  502    0 -0.29861345637E+02 -0.34644755393E+02 -0.73073603175E+02  0.86207369293E+02  0.00000000000E+00 0. -1.
          3    1    5    5  503    0  0.26444560282E+03  0.23508172571E+03 -0.48577478601E+03  0.60097590412E+03  0.00000000000E+00 0. -1.
         -4    1    5    5    0  503  0.35996095867E+03  0.27509207352E+03 -0.77292863981E+03  0.89591641514E+03  0.00000000000E+00 0.  1.
         -1    1    6    6    0  502 -0.22494336699E+03 -0.23813786646E+02 -0.26354409492E+03  0.34730693163E+03  0.00000000000E+00 0.  1.
<mgrwt>
<rscale>  0 0.18457259E+04</rscale>
<asrwt>0</asrwt>
<pdfrwt beam="1">  1        2 0.32980182E+00 0.18457259E+04</pdfrwt>
<pdfrwt beam="2">  1       -2 0.61121594E-01 0.18457259E+04</pdfrwt>
<totfact> 0.13010384E+01</totfact>
</mgrwt>
</event>
<event>
12    1  0.1489233E-007  0.1589546E+04  0.7818608E-02  0.8826996E-01
         -2   -1    0    0    0  501 -0.00000000000E+00  0.00000000000E+00  0.31826487679E+03  0.31826487679E+03  0.00000000000E+00 0.  1.
          2   -1    0    0  501    0  0.00000000000E+00 -0.00000000000E+00 -0.19847129322E+04  0.19847129322E+04  0.00000000000E+00 0. -1.
         23    2    1    2    0    0  0.51384522551E+03  0.15329900417E+03 -0.62681977388E+03  0.82965008131E+03  0.88762199396E+02 0.  0.
        254    2    1    2    0    0 -0.51384522551E+03 -0.15329900417E+03 -0.10396282816E+04  0.14733277277E+04  0.89572882555E+03 0.  0.
        -24    2    4    4    0    0  0.32212390443E+02 -0.98855710063E+02  0.12748996868E+03  0.18136699964E+03  0.76355791743E+02 0.  0.
         24    2    4    4    0    0 -0.54605761595E+03 -0.54443294105E+02 -0.11671182503E+04  0.12919607281E+04  0.76514838988E+02 0.  0.
         11    1    3    3    0    0  0.43059462462E+03  0.95460639448E+02 -0.48826528909E+03  0.65797223115E+03  0.00000000000E+00 0. -1.
        -11    1    3    3    0    0  0.83250600892E+02  0.57838364719E+02 -0.13855448478E+03  0.17167785016E+03  0.00000000000E+00 0.  1.
          4    1    6    6  502    0 -0.41141209458E+03 -0.42995243705E+02 -0.95108116564E+03  0.10371421726E+04  0.00000000000E+00 0. -1.
          1    1    5    5  503    0  0.16127259901E+02 -0.61026639105E+02  0.12518153555E+03  0.14019542088E+03  0.00000000000E+00 0. -1.
         -2    1    5    5    0  503  0.16085130542E+02 -0.37829070958E+02  0.23084331327E+01  0.41171578760E+02  0.00000000000E+00 0.  1.
         -3    1    6    6    0  502 -0.13464552137E+03 -0.11448050400E+02 -0.21603708461E+03  0.25481855546E+03  0.00000000000E+00 0.  1.
<mgrwt>
<rscale>  0 0.15895464E+04</rscale>
<asrwt>0</asrwt>
<pdfrwt beam="1">  1        2 0.30534046E+00 0.15895464E+04</pdfrwt>
<pdfrwt beam="2">  1       -2 0.48963826E-01 0.15895464E+04</pdfrwt>
<totfact> 0.25829227E+01</totfact>
</mgrwt>
</event>
<event>
12    1  0.1489233E-007  0.2325306E+04  0.7818608E-02  0.8468010E-01
          1   -1    0    0  501    0  0.00000000000E+00  0.00000000000E+00  0.13162734167E+04  0.13162734167E+04  0.00000000000E+00 0. -1.
         -1   -1    0    0    0  501 -0.00000000000E+00 -0.00000000000E+00 -0.10269611656E+04  0.10269611656E+04  0.00000000000E+00 0.  1.
         23    2    1    2    0    0 -0.14999131763E+01 -0.59492566345E+03  0.90961323641E+03  0.10904682902E+04  0.88238638192E+02 0.  0.
        254    2    1    2    0    0  0.14999131763E+01  0.59492566345E+03 -0.62030098527E+03  0.12527662921E+04  0.91143363744E+03 0.  0.
        -24    2    4    4    0    0 -0.28042198214E+03  0.38915743690E+03  0.54865811989E+02  0.48934427791E+03  0.79797031467E+02 0.  0.
         24    2    4    4    0    0  0.28192189531E+03  0.20576822655E+03 -0.67516679726E+03  0.76342201417E+03  0.71710874265E+02 0.  0.
         13    1    3    3    0    0 -0.18149027439E+02 -0.55926130627E+03  0.87156009383E+03  0.10357217740E+04  0.00000000000E+00 0. -1.
        -13    1    3    3    0    0  0.16649114263E+02 -0.35664357185E+02  0.38053142583E+02  0.54746516232E+02  0.00000000000E+00 0.  1.
          4    1    6    6  502    0  0.12934001586E+03  0.13288298650E+03 -0.31485740788E+03  0.36540650665E+03  0.00000000000E+00 0. -1.
          1    1    5    5  503    0 -0.77768176413E+02  0.10530252722E+03  0.51170731700E+02  0.14055232223E+03  0.00000000000E+00 0. -1.
         -2    1    5    5    0  503 -0.20265380572E+03  0.28385490968E+03  0.36950802889E+01  0.34879195568E+03  0.00000000000E+00 0.  1.
         -3    1    6    6    0  502  0.15258187946E+03  0.72885240044E+02 -0.36030938938E+03  0.39801550752E+03  0.00000000000E+00 0.  1.
<mgrwt>
<rscale>  0 0.23253057E+04</rscale>
<asrwt>0</asrwt>
<pdfrwt beam="1">  1        1 0.20250360E+00 0.23253057E+04</pdfrwt>
<pdfrwt beam="2">  1       -1 0.15799402E+00 0.23253057E+04</pdfrwt>
<totfact> 0.24044170E+00</totfact>
</mgrwt>
</event>
<event>
12    1  0.1489233E-007  0.2423378E+04  0.7818608E-02  0.8430803E-01
          2   -1    0    0  501    0  0.00000000000E+00  0.00000000000E+00  0.71216548290E+03  0.71216548290E+03  0.00000000000E+00 0. -1.
         -2   -1    0    0    0  501 -0.00000000000E+00 -0.00000000000E+00 -0.20615850532E+04  0.20615850532E+04  0.00000000000E+00 0.  1.
         23    2    1    2    0    0  0.72872094647E+03  0.62843528656E+03 -0.13249457695E+03  0.97584118780E+03  0.93520498674E+02 0.  0.
        254    2    1    2    0    0 -0.72872094647E+03 -0.62843528656E+03 -0.12169249934E+04  0.17979093483E+04  0.90862888907E+03 0.  0.
        -24    2    4    4    0    0 -0.91859494487E+02  0.16989542534E+03 -0.15978359790E+01  0.20845374723E+03  0.78407840000E+02 0.  0.
         24    2    4    4    0    0 -0.63686145199E+03 -0.79833071190E+03 -0.12153271574E+04  0.15894556011E+04  0.80153438798E+02 0.  0.
         13    1    3    3    0    0  0.12323681616E+03  0.64783375105E+02 -0.99710856258E+01  0.13958374223E+03  0.00000000000E+00 0.  1.
        -13    1    3    3    0    0  0.60548413032E+03  0.56365191145E+03 -0.12252349133E+03  0.83625744557E+03  0.00000000000E+00 0. -1.
          4    1    6    6  502    0 -0.58948637005E+02 -0.47312150493E+02 -0.71146000376E+02  0.10380334657E+03  0.00000000000E+00 0. -1.
          1    1    5    5  503    0 -0.20950320807E+02  0.19027544562E+02 -0.27840715803E+02  0.39699733632E+02  0.00000000000E+00 0. -1.
         -2    1    5    5    0  503 -0.70909173680E+02  0.15086788078E+03  0.26242879824E+02  0.16875401360E+03  0.00000000000E+00 0.  1.
         -3    1    6    6    0  502 -0.57791281498E+03 -0.75101856140E+03 -0.11441811570E+04  0.14856522545E+04  0.00000000000E+00 0.  1.
<mgrwt>
<rscale>  0 0.24233776E+04</rscale>
<asrwt>0</asrwt>
<pdfrwt beam="1">  1        2 0.10956392E+00 0.24233776E+04</pdfrwt>
<pdfrwt beam="2">  1       -2 0.31716692E+00 0.24233776E+04</pdfrwt>
<totfact> 0.89720670E-01</totfact>
</mgrwt>
</event>
<event>
12    1  0.1489233E-007  0.1450726E+04  0.7818608E-02  0.8917898E-01
         -2   -1    0    0    0  501 -0.00000000000E+00  0.00000000000E+00  0.39808690908E+03  0.39808690908E+03  0.00000000000E+00 0. -1.
          2   -1    0    0  501    0  0.00000000000E+00 -0.00000000000E+00 -0.13216991664E+04  0.13216991664E+04  0.00000000000E+00 0.  1.
         23    2    1    2    0    0  0.20315124286E+03 -0.48370083247E+02  0.17276096987E+03  0.28751122836E+03  0.95949264174E+02 0.  0.
        254    2    1    2    0    0 -0.20315124286E+03  0.48370083247E+02 -0.10963732272E+04  0.14322748472E+04  0.89764519271E+03 0.  0.
        -24    2    4    4    0    0 -0.37417752616E+03 -0.28381759077E+03 -0.86018546529E+03  0.98346168330E+03  0.81954877317E+02 0.  0.
         24    2    4    4    0    0  0.17102628330E+03  0.33218767402E+03 -0.23618776195E+03  0.44881316386E+03  0.77781468291E+02 0.  0.
         11    1    3    3    0    0  0.20397394980E+03 -0.24216729919E+02  0.15850361724E+03  0.25945176600E+03  0.00000000000E+00 0. -1.
        -11    1    3    3    0    0 -0.82270694285E+00 -0.24153353328E+02  0.14257352631E+02  0.28059462357E+02  0.00000000000E+00 0.  1.
          4    1    6    6  502    0  0.19066320147E+02  0.10296971906E+03 -0.45619028178E+02  0.11422514320E+03  0.00000000000E+00 0. -1.
          3    1    5    5  503    0 -0.67474273344E+02 -0.59623292979E+02 -0.10667532555E+03  0.13959706197E+03  0.00000000000E+00 0. -1.
         -4    1    5    5    0  503 -0.30670325281E+03 -0.22419429780E+03 -0.75351013974E+03  0.84386462134E+03  0.00000000000E+00 0.  1.
         -3    1    6    6    0  502  0.15195996315E+03  0.22921795496E+03 -0.19056873377E+03  0.33458802066E+03  0.00000000000E+00 0.  1.
<mgrwt>
<rscale>  0 0.14507255E+04</rscale>
<asrwt>0</asrwt>
<pdfrwt beam="1">  1        2 0.20333833E+00 0.14507255E+04</pdfrwt>
<pdfrwt beam="2">  1       -2 0.61244140E-01 0.14507255E+04</pdfrwt>
<totfact> 0.38607392E+01</totfact>
</mgrwt>
</event>
<event>
12    1  0.1489233E-007  0.1911909E+04  0.7818608E-02  0.8648951E-01
          2   -1    0    0  501    0  0.00000000000E+00  0.00000000000E+00  0.10293672352E+04  0.10293672352E+04  0.00000000000E+00 0. -1.
         -2   -1    0    0    0  501 -0.00000000000E+00 -0.00000000000E+00 -0.88777746100E+03  0.88777746100E+03  0.00000000000E+00 0.  1.
         23    2    1    2    0    0  0.73761201066E+03  0.21136289059E+02  0.11258949997E+03  0.75205994121E+03  0.91648997116E+02 0.  0.
        254    2    1    2    0    0 -0.73761201066E+03 -0.21136289059E+02  0.29000274196E+02  0.11650847550E+04  0.90114552062E+03 0.  0.
        -24    2    4    4    0    0 -0.70173223018E+03 -0.22419457627E+03 -0.27396158553E+03  0.79008061508E+03  0.80505261118E+02 0.  0.
         24    2    4    4    0    0 -0.35879780483E+02  0.20305828721E+03  0.30296185973E+03  0.37500413988E+03  0.79512199193E+02 0.  0.
         11    1    3    3    0    0  0.59692032768E+02 -0.23090931125E+02  0.45787313346E+01  0.64166148839E+02  0.00000000000E+00 0.  1.
        -11    1    3    3    0    0  0.67791997790E+03  0.44227220184E+02  0.10801076864E+03  0.68789379237E+03  0.00000000000E+00 0. -1.
          4    1    6    6  502    0 -0.40114215809E+02  0.48400366991E+02  0.11940127415E+03  0.13493854195E+03  0.00000000000E+00 0. -1.
          3    1    5    5  503    0 -0.17897967277E+03 -0.65991783598E+02 -0.35076886995E+02  0.19395624963E+03  0.00000000000E+00 0. -1.
         -4    1    5    5    0  503 -0.52275255741E+03 -0.15820279268E+03 -0.23888469854E+03  0.59612436545E+03  0.00000000000E+00 0.  1.
         -3    1    6    6    0  502  0.42344353252E+01  0.15465792022E+03  0.18356058558E+03  0.24006559793E+03  0.00000000000E+00 0.  1.
<mgrwt>
<rscale>  0 0.19119090E+04</rscale>
<asrwt>0</asrwt>
<pdfrwt beam="1">  1        2 0.15836419E+00 0.19119090E+04</pdfrwt>
<pdfrwt beam="2">  1       -2 0.13658115E+00 0.19119090E+04</pdfrwt>
<totfact> 0.86427425E+00</totfact>
</mgrwt>
</event>
<event>
12    1  0.1489233E-007  0.1520321E+04  0.7818608E-02  0.8871051E-01
          2   -1    0    0  501    0  0.00000000000E+00  0.00000000000E+00  0.31075821127E+04  0.31075821127E+04  0.00000000000E+00 0. -1.
         -2   -1    0    0    0  501 -0.00000000000E+00 -0.00000000000E+00 -0.18594642202E+03  0.18594642202E+03  0.00000000000E+00 0.  1.
         23    2    1    2    0    0 -0.30209352773E+03 -0.17052241814E+03  0.16910310285E+04  0.17288464146E+04  0.94792358355E+02 0.  0.
        254    2    1    2    0    0  0.30209352773E+03  0.17052241814E+03  0.12306046622E+04  0.15646821202E+04  0.90194451493E+03 0.  0.
        -24    2    4    4    0    0  0.36520187587E+03  0.31168572053E+03  0.12911682813E+04  0.13797857630E+04  0.78567313033E+02 0.  0.
         24    2    4    4    0    0 -0.63108348134E+02 -0.14116330239E+03 -0.60563619063E+02  0.18489635720E+03  0.81295568175E+02 0.  0.
         11    1    3    3    0    0 -0.56386741728E+02 -0.11437495929E+02  0.45529710582E+03  0.45891800523E+03  0.00000000000E+00 0. -1.
        -11    1    3    3    0    0 -0.24570678601E+03 -0.15908492221E+03  0.12357339227E+04  0.12699284094E+04  0.00000000000E+00 0.  1.
          2    1    6    6  502    0  0.40871895143E+01 -0.27317588876E+01  0.13321122673E+02  0.14199293433E+02  0.00000000000E+00 0. -1.
          3    1    5    5  503    0 -0.37573647505E+01  0.45686489260E+01  0.98233047277E+01  0.11466806820E+02  0.00000000000E+00 0. -1.
         -4    1    5    5    0  503  0.36895924062E+03  0.30711707161E+03  0.12813449765E+04  0.13683189562E+04  0.00000000000E+00 0.  1.
         -1    1    6    6    0  502 -0.67195537648E+02 -0.13843154350E+03 -0.73884741736E+02  0.17069706377E+03  0.00000000000E+00 0.  1.
<mgrwt>
<rscale>  0 0.15203207E+04</rscale>
<asrwt>0</asrwt>
<pdfrwt beam="1">  1        2 0.47808952E+00 0.15203207E+04</pdfrwt>
<pdfrwt beam="2">  1       -2 0.28607144E-01 0.15203207E+04</pdfrwt>
<totfact> 0.16216801E+01</totfact>
</mgrwt>
</event>
<event>
12    1  0.1489233E-007  0.1910823E+04  0.7818608E-02  0.8649488E-01
         -1   -1    0    0    0  501 -0.00000000000E+00  0.00000000000E+00  0.46493584890E+03  0.46493584890E+03  0.00000000000E+00 0.  1.
          1   -1    0    0  501    0  0.00000000000E+00 -0.00000000000E+00 -0.19633049721E+04  0.19633049721E+04  0.00000000000E+00 0. -1.
         23    2    1    2    0    0 -0.73328535105E+03 -0.62634619706E+02 -0.70792088759E+03  0.10252862352E+04  0.91811651040E+02 0.  0.
        254    2    1    2    0    0  0.73328535105E+03  0.62634619706E+02 -0.79044823561E+03  0.14029545858E+04  0.89545667404E+03 0.  0.
        -24    2    4    4    0    0  0.44648207280E+03 -0.30839421321E+03 -0.90250886601E+02  0.55576934919E+03  0.79253485065E+02 0.  0.
         24    2    4    4    0    0  0.28680327825E+03  0.37102883292E+03 -0.70019734901E+03  0.84718523664E+03  0.86763946189E+02 0.  0.
         13    1    3    3    0    0 -0.73508740603E+03 -0.59140820011E+02 -0.70188699081E+03  0.10180847111E+04  0.00000000000E+00 0. -1.
        -13    1    3    3    0    0  0.18020549817E+01 -0.34937996952E+01 -0.60338967773E+01  0.72015240600E+01  0.00000000000E+00 0.  1.
          4    1    6    6  502    0  0.23528212853E+03  0.33838474892E+03 -0.56982675404E+03  0.70325276247E+03  0.00000000000E+00 0. -1.
          3    1    5    5  503    0  0.24909930013E+03 -0.21033579933E+03 -0.76879700467E+02  0.33496581639E+03  0.00000000000E+00 0. -1.
         -4    1    5    5    0  503  0.19738277267E+03 -0.98058413882E+02 -0.13371186134E+02  0.22080353281E+03  0.00000000000E+00 0.  1.
         -3    1    6    6    0  502  0.51521149718E+02  0.32644083998E+02 -0.13037059496E+03  0.14393247417E+03  0.00000000000E+00 0.  1.
<mgrwt>
<rscale>  0 0.19108227E+04</rscale>
<asrwt>0</asrwt>
<pdfrwt beam="1">  1        1 0.30204691E+00 0.19108227E+04</pdfrwt>
<pdfrwt beam="2">  1       -1 0.71528593E-01 0.19108227E+04</pdfrwt>
<totfact> 0.58210601E+00</totfact>
</mgrwt>
</event>
<event>
12    1  0.1489233E-007  0.1324396E+04  0.7818608E-02  0.9010439E-01
          4   -1    0    0  501    0  0.00000000000E+00  0.00000000000E+00  0.41566272592E+03  0.41566272592E+03  0.00000000000E+00 0. -1.
         -4   -1    0    0    0  501 -0.00000000000E+00 -0.00000000000E+00 -0.10549572376E+04  0.10549572376E+04  0.00000000000E+00 0.  1.
         23    2    1    2    0    0 -0.30055158168E+02 -0.15981432136E+03  0.16331758835E+03  0.24843518303E+03  0.92754922553E+02 0.  0.
        254    2    1    2    0    0  0.30055158168E+02  0.15981432136E+03 -0.80261210001E+03  0.12221847805E+04  0.90725163250E+03 0.  0.
        -24    2    4    4    0    0  0.12202042182E+03  0.37283859244E+03 -0.87917704463E+03  0.96607772335E+03  0.80351057143E+02 0.  0.
         24    2    4    4    0    0 -0.91965263654E+02 -0.21302427108E+03  0.76564944623E+02  0.25610705712E+03  0.76757306992E+02 0.  0.
         13    1    3    3    0    0  0.53633656283E+01  0.91333291439E+01 -0.29712968122E+00  0.10595833057E+02  0.00000000000E+00 0.  1.
        -13    1    3    3    0    0 -0.35418523796E+02 -0.16894765050E+03  0.16361471803E+03  0.23783934997E+03  0.00000000000E+00 0. -1.
          2    1    6    6  502    0 -0.31527369002E+02 -0.88328165212E+02  0.70633776082E+02  0.11740941227E+03  0.00000000000E+00 0. -1.
          1    1    5    5  503    0  0.59430640219E+02  0.25696148658E+03 -0.65455041949E+03  0.70568934967E+03  0.00000000000E+00 0. -1.
         -4    1    5    5    0  503  0.62589781603E+02  0.11587710586E+03 -0.22462662514E+03  0.26038837368E+03  0.00000000000E+00 0.  1.
         -1    1    6    6    0  502 -0.60437894652E+02 -0.12469610586E+03  0.59311685408E+01  0.13869764485E+03  0.00000000000E+00 0.  1.
<mgrwt>
<rscale>  0 0.13243963E+04</rscale>
<asrwt>0</asrwt>
<pdfrwt beam="1">  1        4 0.63948113E-01 0.13243963E+04</pdfrwt>
<pdfrwt beam="2">  1       -4 0.16230111E+00 0.13243963E+04</pdfrwt>
<totfact> 0.10736586E+00</totfact>
</mgrwt>
</event>
<event>
12    1  0.1489233E-007  0.1778049E+04  0.7818608E-02  0.8718060E-01
          1   -1    0    0  501    0  0.00000000000E+00  0.00000000000E+00  0.14938556075E+04  0.14938556075E+04  0.00000000000E+00 0. -1.
         -1   -1    0    0    0  501 -0.00000000000E+00 -0.00000000000E+00 -0.52907712837E+03  0.52907712837E+03  0.00000000000E+00 0.  1.
         23    2    1    2    0    0  0.54258864166E+03  0.34298549008E+03  0.20395381838E+03  0.67992333244E+03  0.93043524744E+02 0.  0.
        254    2    1    2    0    0 -0.54258864166E+03 -0.34298549008E+03  0.76082466077E+03  0.13430094034E+04  0.90154235222E+03 0.  0.
        -24    2    4    4    0    0 -0.69944972714E+03 -0.24517778546E+03  0.84320079416E+03  0.11254949256E+04  0.80057361265E+02 0.  0.
         24    2    4    4    0    0  0.15686108549E+03 -0.97807704627E+02 -0.82376133390E+02  0.21751447780E+03  0.79718087518E+02 0.  0.
         11    1    3    3    0    0  0.24927638437E+03  0.17887656084E+03  0.52500500289E+02  0.31127454498E+03  0.00000000000E+00 0.  1.
        -11    1    3    3    0    0  0.29331225729E+03  0.16410892925E+03  0.15145331809E+03  0.36864878746E+03  0.00000000000E+00 0. -1.
          2    1    6    6  502    0  0.14430252218E+02  0.45661740741E+01  0.11087786184E+02  0.18762226073E+02  0.00000000000E+00 0. -1.
          3    1    5    5  503    0 -0.34200878867E+03 -0.77995876196E+02  0.38801163637E+03  0.52307398921E+03  0.00000000000E+00 0. -1.
         -4    1    5    5    0  503 -0.35744093847E+03 -0.16718190926E+03  0.45518915780E+03  0.60242093644E+03  0.00000000000E+00 0.  1.
         -1    1    6    6    0  502  0.14243083327E+03 -0.10237387870E+03 -0.93463919574E+02  0.19875225173E+03  0.00000000000E+00 0.  1.
<mgrwt>
<rscale>  0 0.17780493E+04</rscale>
<asrwt>0</asrwt>
<pdfrwt beam="1">  1        1 0.22982394E+00 0.17780493E+04</pdfrwt>
<pdfrwt beam="2">  1       -1 0.81396482E-01 0.17780493E+04</pdfrwt>
<totfact> 0.93877876E+00</totfact>
</mgrwt>
</event>
<event>
12    1  0.1489233E-007  0.1908309E+04  0.7818608E-02  0.8650731E-01
         -2   -1    0    0    0  501 -0.00000000000E+00  0.00000000000E+00  0.11929284781E+04  0.11929284781E+04  0.00000000000E+00 0.  1.
          2   -1    0    0  501    0  0.00000000000E+00 -0.00000000000E+00 -0.76317337735E+03  0.76317337735E+03  0.00000000000E+00 0. -1.
         23    2    1    2    0    0  0.95764863160E+02  0.35167156029E+03  0.82621221943E+03  0.90759284665E+03  0.90853444757E+02 0.  0.
        254    2    1    2    0    0 -0.95764863160E+02 -0.35167156029E+03 -0.39645711865E+03  0.10485090088E+04  0.89963831584E+03 0.  0.
        -24    2    4    4    0    0  0.89364821107E+02 -0.92673340498E+02 -0.62966432792E+03  0.64776508620E+03  0.80919847738E+02 0.  0.
         24    2    4    4    0    0 -0.18512968427E+03 -0.25899821979E+03  0.23320720927E+03  0.40074392262E+03  0.69692260729E+02 0.  0.
         13    1    3    3    0    0  0.11664815112E+01  0.16972553818E+03  0.34427449274E+03  0.38383986940E+03  0.00000000000E+00 0. -1.
        -13    1    3    3    0    0  0.94598381649E+02  0.18194602211E+03  0.48193772669E+03  0.52375297725E+03  0.00000000000E+00 0.  1.
          4    1    6    6  502    0 -0.11299888083E+03 -0.98441091431E+02  0.10939498852E+03  0.18554422401E+03  0.00000000000E+00 0. -1.
          1    1    5    5  503    0  0.33525541842E+02 -0.54879708604E+02 -0.14751178730E+03  0.16092070024E+03  0.00000000000E+00 0. -1.
         -2    1    5    5    0  503  0.55839279265E+02 -0.37793631894E+02 -0.48215254062E+03  0.48684438596E+03  0.00000000000E+00 0.  1.
         -3    1    6    6    0  502 -0.72130803438E+02 -0.16055712836E+03  0.12381222076E+03  0.21519969861E+03  0.00000000000E+00 0.  1.
<mgrwt>
<rscale>  0 0.19083095E+04</rscale>
<asrwt>0</asrwt>
<pdfrwt beam="1">  1        2 0.11741129E+00 0.19083095E+04</pdfrwt>
<pdfrwt beam="2">  1       -2 0.18352746E+00 0.19083095E+04</pdfrwt>
<totfact> 0.58798112E+00</totfact>
</mgrwt>
</event>
<event>
12    1  0.1489233E-007  0.1884606E+04  0.7818608E-02  0.8662557E-01
          2   -1    0    0  501    0  0.00000000000E+00  0.00000000000E+00  0.21433135434E+04  0.21433135434E+04  0.00000000000E+00 0. -1.
         -2   -1    0    0    0  501 -0.00000000000E+00 -0.00000000000E+00 -0.41428150271E+03  0.41428150271E+03  0.00000000000E+00 0.  1.
         23    2    1    2    0    0  0.69045410021E+03  0.16371027974E+03  0.47624169933E+03  0.85934882279E+03  0.90256982386E+02 0.  0.
        254    2    1    2    0    0 -0.69045410021E+03 -0.16371027974E+03  0.12527903413E+04  0.16982462233E+04  0.90057130499E+03 0.  0.
        -24    2    4    4    0    0 -0.43026781089E+03 -0.52985669807E+03  0.81391421759E+03  0.10651681257E+04  0.79046016771E+02 0.  0.
         24    2    4    4    0    0 -0.26018628932E+03  0.36614641833E+03  0.43887612372E+03  0.63307809761E+03  0.80096946815E+02 0.  0.
         11    1    3    3    0    0  0.25024451331E+03  0.73322802775E+02  0.22545216589E+03  0.34471325613E+03  0.00000000000E+00 0. -1.
        -11    1    3    3    0    0  0.44020958690E+03  0.90387476968E+02  0.25078953343E+03  0.51463556666E+03  0.00000000000E+00 0.  1.
          2    1    6    6  502    0 -0.11359349132E+03  0.22842643532E+03  0.24779881650E+03  0.35564922477E+03  0.00000000000E+00 0. -1.
          1    1    5    5  503    0 -0.52117680928E+02 -0.35256077146E+02  0.97288542569E+02  0.11586329944E+03  0.00000000000E+00 0. -1.
         -2    1    5    5    0  503 -0.37815012996E+03 -0.49460062092E+03  0.71662567502E+03  0.94930482623E+03  0.00000000000E+00 0.  1.
         -1    1    6    6    0  502 -0.14659279800E+03  0.13771998301E+03  0.19107730723E+03  0.27742887284E+03  0.00000000000E+00 0.  1.
<mgrwt>
<rscale>  0 0.18846062E+04</rscale>
<asrwt>0</asrwt>
<pdfrwt beam="1">  1        2 0.32974054E+00 0.18846062E+04</pdfrwt>
<pdfrwt beam="2">  1       -2 0.63735617E-01 0.18846062E+04</pdfrwt>
<totfact> 0.11866750E+01</totfact>
</mgrwt>
</event>
<event>
12    1  0.1489233E-007  0.1608701E+04  0.7818608E-02  0.8815220E-01
          1   -1    0    0  501    0  0.00000000000E+00  0.00000000000E+00  0.94302248800E+03  0.94302248800E+03  0.00000000000E+00 0. -1.
         -1   -1    0    0    0  501 -0.00000000000E+00 -0.00000000000E+00 -0.68607038965E+03  0.68607038965E+03  0.00000000000E+00 0.  1.
         23    2    1    2    0    0  0.45381347833E+03 -0.23163558491E+03  0.28383376029E+03  0.59091542078E+03  0.94961643460E+02 0.  0.
        254    2    1    2    0    0 -0.45381347833E+03  0.23163558491E+03 -0.26881661937E+02  0.10381774569E+04  0.90415048023E+03 0.  0.
        -24    2    4    4    0    0  0.19232638994E+03  0.28989131933E+03  0.10214478600E+03  0.37123288269E+03  0.79711220008E+02 0.  0.
         24    2    4    4    0    0 -0.64613986827E+03 -0.58255734428E+02 -0.12902644793E+03  0.66694457417E+03  0.85304049125E+02 0.  0.
         11    1    3    3    0    0  0.27853773033E+02 -0.98990479830E+01 -0.57879028198E+01  0.30121813395E+02  0.00000000000E+00 0.  1.
        -11    1    3    3    0    0  0.42595970530E+03 -0.22173653692E+03  0.28962166311E+03  0.56079360739E+03  0.00000000000E+00 0. -1.
          2    1    6    6  502    0 -0.24503014126E+03  0.14312461909E+02 -0.68719510583E+02  0.25488622526E+03  0.00000000000E+00 0. -1.
          1    1    5    5  503    0  0.10839612715E+03  0.21510429966E+03  0.44682179252E+02  0.24498178964E+03  0.00000000000E+00 0. -1.
         -2    1    5    5    0  503  0.83930262785E+02  0.74787019677E+02  0.57462606745E+02  0.12625109305E+03  0.00000000000E+00 0.  1.
         -1    1    6    6    0  502 -0.40110972701E+03 -0.72568196336E+02 -0.60306937351E+02  0.41205834892E+03  0.00000000000E+00 0.  1.
<mgrwt>
<rscale>  0 0.16087011E+04</rscale>
<asrwt>0</asrwt>
<pdfrwt beam="1">  1        1 0.14508038E+00 0.16087011E+04</pdfrwt>
<pdfrwt beam="2">  1       -1 0.10554929E+00 0.16087011E+04</pdfrwt>
<totfact> 0.13543438E+01</totfact>
</mgrwt>
</event>
<event>
12    1  0.1489233E-007  0.1162853E+04  0.7818608E-02  0.9146008E-01
         -2   -1    0    0    0  501 -0.00000000000E+00  0.00000000000E+00  0.54716110439E+03  0.54716110439E+03  0.00000000000E+00 0.  1.
          2   -1    0    0  501    0  0.00000000000E+00 -0.00000000000E+00 -0.61783726984E+03  0.61783726984E+03  0.00000000000E+00 0. -1.
         23    2    1    2    0    0  0.15574793049E+03 -0.25300370057E+02  0.14075864827E+03  0.22991311112E+03  0.90274664364E+02 0.  0.
        254    2    1    2    0    0 -0.15574793049E+03  0.25300370057E+02 -0.21143481373E+03  0.93508526311E+03  0.89709656239E+03 0.  0.
        -24    2    4    4    0    0 -0.26041719955E+03  0.62455514745E+02 -0.52404119426E+03  0.59370192525E+03  0.78390009690E+02 0.  0.
         24    2    4    4    0    0  0.10466926907E+03 -0.37155144689E+02  0.31260638054E+03  0.34138333785E+03  0.80521261447E+02 0.  0.
         11    1    3    3    0    0  0.70392834789E+02 -0.28659648286E+02  0.11993700195E+03  0.14199088374E+03  0.00000000000E+00 0.  1.
        -11    1    3    3    0    0  0.85355095699E+02  0.33592782288E+01  0.20821646326E+02  0.87922227381E+02  0.00000000000E+00 0. -1.
          2    1    6    6  502    0  0.82932569160E+02 -0.17352440101E+02  0.12208227441E+03  0.14860349905E+03  0.00000000000E+00 0. -1.
          3    1    5    5  503    0 -0.32295799212E+02  0.31005787911E+00 -0.22916877772E+02  0.39601743263E+02  0.00000000000E+00 0. -1.
         -4    1    5    5    0  503 -0.22812140034E+03  0.62145456866E+02 -0.50112431649E+03  0.55410018199E+03  0.00000000000E+00 0.  1.
         -3    1    6    6    0  502  0.21736699906E+02 -0.19802704587E+02  0.19052410613E+03  0.19277983880E+03  0.00000000000E+00 0.  1.
<mgrwt>
<rscale>  0 0.11628526E+04</rscale>
<asrwt>0</asrwt>
<pdfrwt beam="1">  1        2 0.95051888E-01 0.11628526E+04</pdfrwt>
<pdfrwt beam="2">  1       -2 0.84178631E-01 0.11628526E+04</pdfrwt>
<totfact> 0.58342209E+01</totfact>
</mgrwt>
</event>
<event>
12    1  0.2015037E-007  0.1437970E+04  0.7818608E-02  0.8926783E-01
          1   -1    0    0  501    0  0.00000000000E+00  0.00000000000E+00  0.19021006726E+04  0.19021006726E+04  0.00000000000E+00 0. -1.
         -1   -1    0    0    0  501 -0.00000000000E+00 -0.00000000000E+00 -0.27177287898E+03  0.27177287898E+03  0.00000000000E+00 0.  1.
         23    2    1    2    0    0 -0.25313029975E+03  0.30861383434E+03  0.28405486533E+03  0.49915462673E+03  0.95659434812E+02 0.  0.
        254    2    1    2    0    0  0.25313029975E+03 -0.30861383434E+03  0.13462729283E+04  0.16747189249E+04  0.91264189715E+03 0.  0.
        -24    2    4    4    0    0 -0.32231550108E+03 -0.29905844925E+02  0.61606032903E+03  0.70095974114E+03  0.83860526456E+02 0.  0.
         24    2    4    4    0    0  0.57544580083E+03 -0.27870798942E+03  0.73021259931E+03  0.97375918376E+03  0.78616122429E+02 0.  0.
         11    1    3    3    0    0 -0.27827409372E+02  0.33121915768E+01  0.57762368410E+01  0.28612938288E+02  0.00000000000E+00 0. -1.
        -11    1    3    3    0    0 -0.22530289038E+03  0.30530164276E+03  0.27827862849E+03  0.47054168844E+03  0.00000000000E+00 0.  1.
          2    1    6    6  502    0  0.57142071565E+03 -0.27810397020E+03  0.70885960738E+03  0.95202174108E+03  0.00000000000E+00 0. -1.
          3    1    5    5  503    0 -0.28741826005E+03 -0.18789975439E+02  0.47754388526E+03  0.55768313739E+03  0.00000000000E+00 0. -1.
         -4    1    5    5    0  503 -0.34897241034E+02 -0.11115869486E+02  0.13851644377E+03  0.14327660374E+03  0.00000000000E+00 0.  1.
         -1    1    6    6    0  502  0.40250851806E+01 -0.60401922003E+00  0.21352991925E+02  0.21737442676E+02  0.00000000000E+00 0.  1.
<mgrwt>
<rscale>  0 0.14379699E+04</rscale>
<asrwt>0</asrwt>
<pdfrwt beam="1">  1        1 0.29263086E+00 0.14379699E+04</pdfrwt>
<pdfrwt beam="2">  1       -1 0.41811213E-01 0.14379699E+04</pdfrwt>
<totfact> 0.18963520E+01</totfact>
</mgrwt>
</event>
<event>
12    1  0.1489233E-007  0.2084164E+04  0.7818608E-02  0.8568251E-01
          2   -1    0    0  501    0  0.00000000000E+00  0.00000000000E+00  0.84286108026E+03  0.84286108026E+03  0.00000000000E+00 0.  1.
         -2   -1    0    0    0  501 -0.00000000000E+00 -0.00000000000E+00 -0.12883916798E+04  0.12883916798E+04  0.00000000000E+00 0. -1.
         23    2    1    2    0    0  0.44138841412E+03 -0.19319705924E+03 -0.89619202318E+03  0.10211728379E+04  0.86515817763E+02 0.  0.
        254    2    1    2    0    0 -0.44138841412E+03  0.19319705924E+03  0.45066142369E+03  0.11100799221E+04  0.89276697898E+03 0.  0.
        -24    2    4    4    0    0 -0.52821679940E+02  0.49848726688E+03  0.16362716275E+03  0.53312736973E+03  0.78557360263E+02 0.  0.
         24    2    4    4    0    0 -0.38856673418E+03 -0.30529020765E+03  0.28703426094E+03  0.57695255234E+03  0.79368525879E+02 0.  0.
         11    1    3    3    0    0  0.20777307589E+02 -0.85257963796E+01 -0.95136463468E+02  0.97751380532E+02  0.00000000000E+00 0.  1.
        -11    1    3    3    0    0  0.42061110653E+03 -0.18467126286E+03 -0.80105555971E+03  0.92342145741E+03  0.00000000000E+00 0. -1.
          4    1    6    6  502    0  0.31051888398E+00 -0.15184202165E+02  0.65142367684E+01  0.16525486318E+02  0.00000000000E+00 0. -1.
          1    1    5    5  503    0  0.76821419704E+01  0.13525944427E+03  0.73056362916E+02  0.15391999458E+03  0.00000000000E+00 0. -1.
         -2    1    5    5    0  503 -0.60503821910E+02  0.36322782261E+03  0.90570799835E+02  0.37920737515E+03  0.00000000000E+00 0.  1.
         -3    1    6    6    0  502 -0.38887725306E+03 -0.29010600548E+03  0.28052002417E+03  0.56042706602E+03  0.00000000000E+00 0.  1.
<mgrwt>
<rscale>  0 0.20841643E+04</rscale>
<asrwt>0</asrwt>
<pdfrwt beam="1">  1        2 0.12967094E+00 0.20841643E+04</pdfrwt>
<pdfrwt beam="2">  1       -2 0.19821410E+00 0.20841643E+04</pdfrwt>
<totfact> 0.40466013E+00</totfact>
</mgrwt>
</event>
<event>
12    1  0.1489233E-007  0.2042536E+04  0.7818608E-02  0.8586988E-01
         -1   -1    0    0    0  501 -0.00000000000E+00  0.00000000000E+00  0.10591846593E+04  0.10591846593E+04  0.00000000000E+00 0.  1.
          1   -1    0    0  501    0  0.00000000000E+00 -0.00000000000E+00 -0.98470911968E+03  0.98470911968E+03  0.00000000000E+00 0. -1.
         23    2    1    2    0    0  0.35418792918E+02  0.77767959876E+03  0.27912855304E+03  0.83193959470E+03  0.90391874003E+02 0.  0.
        254    2    1    2    0    0 -0.35418792918E+02 -0.77767959876E+03 -0.20465301339E+03  0.12119541843E+04  0.90604085988E+03 0.  0.
        -24    2    4    4    0    0  0.86977962820E+01 -0.52953503183E+03  0.32053490536E+03  0.62414295395E+03  0.79553754256E+02 0.  0.
         24    2    4    4    0    0 -0.44116589200E+02 -0.24814456693E+03 -0.52518791875E+03  0.58781123036E+03  0.78598301493E+02 0.  0.
         11    1    3    3    0    0 -0.11287823608E+02  0.52164581109E+03  0.16030356140E+03  0.54583788710E+03  0.00000000000E+00 0.  1.
        -11    1    3    3    0    0  0.46706616526E+02  0.25603378767E+03  0.11882499164E+03  0.28610170760E+03  0.00000000000E+00 0. -1.
          4    1    6    6  502    0 -0.30714134590E+00 -0.38248401451E+02 -0.15835339292E+03  0.16290743261E+03  0.00000000000E+00 0. -1.
          3    1    5    5  503    0  0.28653725644E+02 -0.32279288041E+03  0.23098519814E+03  0.39795783872E+03  0.00000000000E+00 0. -1.
         -4    1    5    5    0  503 -0.19955929361E+02 -0.20674215142E+03  0.89549707226E+02  0.22618511523E+03  0.00000000000E+00 0.  1.
         -3    1    6    6    0  502 -0.43809447854E+02 -0.20989616548E+03 -0.36683452583E+03  0.42490379775E+03  0.00000000000E+00 0.  1.
<mgrwt>
<rscale>  0 0.20425365E+04</rscale>
<asrwt>0</asrwt>
<pdfrwt beam="1">  1        1 0.15149371E+00 0.20425365E+04</pdfrwt>
<pdfrwt beam="2">  1       -1 0.16295149E+00 0.20425365E+04</pdfrwt>
<totfact> 0.39916159E+00</totfact>
</mgrwt>
</event>
<event>
12    1  0.1489233E-007  0.1340602E+04  0.7818608E-02  0.8997973E-01
          1   -1    0    0  501    0  0.00000000000E+00  0.00000000000E+00  0.11512987329E+04  0.11512987329E+04  0.00000000000E+00 0. -1.
         -1   -1    0    0    0  501 -0.00000000000E+00 -0.00000000000E+00 -0.39025775401E+03  0.39025775401E+03  0.00000000000E+00 0.  1.
         23    2    1    2    0    0  0.53222177828E+02  0.35855704715E+03  0.18283618128E+03  0.41601181269E+03  0.90779969349E+02 0.  0.
        254    2    1    2    0    0 -0.53222177828E+02 -0.35855704715E+03  0.57820479763E+03  0.11255446742E+04  0.89506104229E+03 0.  0.
        -24    2    4    4    0    0  0.35960350674E+03 -0.32648465915E+02  0.44256861913E+03  0.57657448297E+03  0.78680031710E+02 0.  0.
         24    2    4    4    0    0 -0.41282568457E+03 -0.32590858124E+03  0.13563617850E+03  0.54897019126E+03  0.79559090098E+02 0.  0.
         13    1    3    3    0    0  0.87236215792E+01  0.24197221677E+03  0.82205480142E+02  0.25570372744E+03  0.00000000000E+00 0.  1.
        -13    1    3    3    0    0  0.44498556248E+02  0.11658483038E+03  0.10063070114E+03  0.16030808525E+03  0.00000000000E+00 0. -1.
          4    1    6    6  502    0 -0.41195313861E+03 -0.32903709241E+03  0.13795526912E+03  0.54497931417E+03  0.00000000000E+00 0. -1.
          3    1    5    5  503    0  0.13102346893E+03  0.12540700882E+02  0.20651520767E+03  0.24489375163E+03  0.00000000000E+00 0. -1.
         -4    1    5    5    0  503  0.22858003781E+03 -0.45189166797E+02  0.23605341146E+03  0.33168073134E+03  0.00000000000E+00 0.  1.
         -3    1    6    6    0  502 -0.87254595118E+00  0.31285111752E+01 -0.23190906274E+01  0.39908770901E+01  0.00000000000E+00 0.  1.
<mgrwt>
<rscale>  0 0.13406017E+04</rscale>
<asrwt>0</asrwt>
<pdfrwt beam="1">  1        1 0.17712288E+00 0.13406017E+04</pdfrwt>
<pdfrwt beam="2">  1       -1 0.60039655E-01 0.13406017E+04</pdfrwt>
<totfact> 0.31977913E+01</totfact>
</mgrwt>
</event>
<event>
12    1  0.1489233E-007  0.1875963E+04  0.7818608E-02  0.8666914E-01
          2   -1    0    0  501    0  0.00000000000E+00  0.00000000000E+00  0.18466682109E+04  0.18466682109E+04  0.00000000000E+00 0. -1.
         -2   -1    0    0    0  501 -0.00000000000E+00 -0.00000000000E+00 -0.47643073902E+03  0.47643073902E+03  0.00000000000E+00 0.  1.
         23    2    1    2    0    0 -0.30105863895E+03  0.63554667586E+03  0.35591716400E+03  0.79334209004E+03  0.90325870690E+02 0.  0.
        254    2    1    2    0    0  0.30105863895E+03 -0.63554667586E+03  0.10143203079E+04  0.15297568599E+04  0.90374469965E+03 0.  0.
        -24    2    4    4    0    0  0.52420422713E+03 -0.72804205718E+02  0.46172882437E+03  0.70637376930E+03  0.75364916212E+02 0.  0.
         24    2    4    4    0    0 -0.22314558819E+03 -0.56274247014E+03  0.55259148353E+03  0.82338309060E+03  0.78290005678E+02 0.  0.
         13    1    3    3    0    0 -0.24694537413E+03  0.50861810380E+03  0.32423621781E+03  0.65176952848E+03  0.00000000000E+00 0. -1.
        -13    1    3    3    0    0 -0.54113264815E+02  0.12692857206E+03  0.31680946191E+02  0.14157256156E+03  0.00000000000E+00 0.  1.
          2    1    6    6  502    0 -0.76555078829E+02 -0.20082475398E+03  0.14706058860E+03  0.26041904428E+03  0.00000000000E+00 0. -1.
          1    1    5    5  503    0  0.39439507145E+03 -0.42819316618E+02  0.38404756323E+03  0.55215350862E+03  0.00000000000E+00 0. -1.
         -2    1    5    5    0  503  0.12980915568E+03 -0.29984889100E+02  0.77681261139E+02  0.15422026069E+03  0.00000000000E+00 0.  1.
         -1    1    6    6    0  502 -0.14659050936E+03 -0.36191771616E+03  0.40553089492E+03  0.56296404632E+03  0.00000000000E+00 0.  1.
<mgrwt>
<rscale>  0 0.18759632E+04</rscale>
<asrwt>0</asrwt>
<pdfrwt beam="1">  1        2 0.28410280E+00 0.18759632E+04</pdfrwt>
<pdfrwt beam="2">  1       -2 0.73297038E-01 0.18759632E+04</pdfrwt>
<totfact> 0.12814679E+01</totfact>
</mgrwt>
</event>
<event>
12    1  0.1511176E-007  0.1786368E+04  0.7818608E-02  0.8713582E-01
         -1   -1    0    0    0  501 -0.00000000000E+00  0.00000000000E+00  0.66818081683E+03  0.66818081683E+03  0.00000000000E+00 0.  1.
          1   -1    0    0  501    0  0.00000000000E+00 -0.00000000000E+00 -0.11939552028E+04  0.11939552028E+04  0.00000000000E+00 0. -1.
         23    2    1    2    0    0 -0.24872513667E+03 -0.12656415891E+02 -0.84314731752E+03  0.88404095527E+03  0.92771941268E+02 0.  0.
        254    2    1    2    0    0  0.24872513667E+03  0.12656415891E+02  0.31737293158E+03  0.97809506433E+03  0.89102188451E+03 0.  0.
        -24    2    4    4    0    0  0.42373102983E+03 -0.25120814626E+03 -0.31425500409E+02  0.49993934222E+03  0.79361611801E+02 0.  0.
         24    2    4    4    0    0 -0.17500589316E+03  0.26386456216E+03  0.34879843199E+03  0.47815572211E+03  0.81981574893E+02 0.  0.
         11    1    3    3    0    0 -0.20078320949E+03  0.11831692826E+02 -0.74954749775E+03  0.77606400352E+03  0.00000000000E+00 0. -1.
        -11    1    3    3    0    0 -0.47941927180E+02 -0.24488108717E+02 -0.93599819768E+02  0.10797695176E+03  0.00000000000E+00 0.  1.
          4    1    6    6  502    0 -0.14644424580E+03  0.20324571374E+03  0.22192094361E+03  0.33466945258E+03  0.00000000000E+00 0. -1.
          3    1    5    5  503    0  0.37023275123E+03 -0.22237868869E+03 -0.79703537771E+00  0.43188564057E+03  0.00000000000E+00 0. -1.
         -4    1    5    5    0  503  0.53498278609E+02 -0.28829457577E+02 -0.30628465031E+02  0.68053701651E+02  0.00000000000E+00 0.  1.
         -3    1    6    6    0  502 -0.28561647359E+02  0.60618848421E+02  0.12687748838E+03  0.14348626952E+03  0.00000000000E+00 0.  1.
<mgrwt>
<rscale>  0 0.17863683E+04</rscale>
<asrwt>0</asrwt>
<pdfrwt beam="1">  1        1 0.18368542E+00 0.17863683E+04</pdfrwt>
<pdfrwt beam="2">  1       -1 0.10279705E+00 0.17863683E+04</pdfrwt>
<totfact> 0.91221597E+00</totfact>
</mgrwt>
</event>
<event>
12    1  0.1489233E-007  0.1845278E+04  0.7818608E-02  0.8682585E-01
          1   -1    0    0  501    0  0.00000000000E+00  0.00000000000E+00  0.14231946592E+04  0.14231946592E+04  0.00000000000E+00 0.  1.
         -1   -1    0    0    0  501 -0.00000000000E+00 -0.00000000000E+00 -0.59813487599E+03  0.59813487599E+03  0.00000000000E+00 0. -1.
         23    2    1    2    0    0  0.16994667520E+03 -0.35255407888E+03  0.95224467316E+03  0.10331330772E+04  0.86126573893E+02 0.  0.
        254    2    1    2    0    0 -0.16994667520E+03  0.35255407888E+03 -0.12718488993E+03  0.98819645800E+03  0.89843196316E+03 0.  0.
        -24    2    4    4    0    0 -0.32745410549E+03 -0.22029710357E+02  0.25588060923E+03  0.42380299195E+03  0.80141066035E+02 0.  0.
         24    2    4    4    0    0  0.15750743029E+03  0.37458378924E+03 -0.38306549915E+03  0.56439346605E+03  0.81726385697E+02 0.  0.
         11    1    3    3    0    0  0.69198207888E+02 -0.18204279451E+03  0.36996680339E+03  0.41809497321E+03  0.00000000000E+00 0. -1.
        -11    1    3    3    0    0  0.10074846731E+03 -0.17051128437E+03  0.58227786977E+03  0.61503810401E+03  0.00000000000E+00 0.  1.
          2    1    6    6  502    0  0.16292590119E+03  0.34414075370E+03 -0.36968167501E+03  0.53069977245E+03  0.00000000000E+00 0. -1.
          1    1    5    5  503    0 -0.23188046148E+03  0.18656031325E+02  0.19390334163E+03  0.30284501286E+03  0.00000000000E+00 0. -1.
         -2    1    5    5    0  503 -0.95573644012E+02 -0.40685741681E+02  0.61977267598E+02  0.12095797909E+03  0.00000000000E+00 0.  1.
         -1    1    6    6    0  502 -0.54184709020E+01  0.30443035542E+02 -0.13383824142E+02  0.33693693602E+02  0.00000000000E+00 0.  1.
<mgrwt>
<rscale>  0 0.18452776E+04</rscale>
<asrwt>0</asrwt>
<pdfrwt beam="1">  1        1 0.21895302E+00 0.18452776E+04</pdfrwt>
<pdfrwt beam="2">  1       -1 0.92020751E-01 0.18452776E+04</pdfrwt>
<totfact> 0.79984248E+00</totfact>
</mgrwt>
</event>
<event>
12    1  0.1489233E-007  0.1499144E+04  0.7818608E-02  0.8885022E-01
          2   -1    0    0  501    0  0.00000000000E+00  0.00000000000E+00  0.70498300210E+03  0.70498300210E+03  0.00000000000E+00 0. -1.
         -2   -1    0    0    0  501 -0.00000000000E+00 -0.00000000000E+00 -0.79698094915E+03  0.79698094915E+03  0.00000000000E+00 0.  1.
         23    2    1    2    0    0 -0.14604772685E+03  0.32549392559E+03  0.26513556736E+03  0.45618269694E+03  0.10261359458E+03 0.  0.
        254    2    1    2    0    0  0.14604772685E+03 -0.32549392559E+03 -0.35713351441E+03  0.10457812543E+04  0.91588091510E+03 0.  0.
        -24    2    4    4    0    0 -0.66748935569E+02  0.24937809414E+02  0.27077780187E+03  0.29222209901E+03  0.83641033164E+02 0.  0.
         24    2    4    4    0    0  0.21279666241E+03 -0.35043173500E+03 -0.62791131628E+03  0.75355915530E+03  0.74121245268E+02 0.  0.
         11    1    3    3    0    0 -0.94189055275E+02  0.24477649955E+03  0.24339327117E+03  0.35780916327E+03  0.00000000000E+00 0. -1.
        -11    1    3    3    0    0 -0.51858671571E+02  0.80717426034E+02  0.21742296191E+02  0.98373533668E+02  0.00000000000E+00 0.  1.
          2    1    6    6  502    0  0.23830248880E+02 -0.94496339653E+02 -0.12554833081E+03  0.15893338963E+03  0.00000000000E+00 0. -1.
          3    1    5    5  503    0 -0.84467196919E+02  0.76423775549E+01  0.21829410708E+03  0.23419101280E+03  0.00000000000E+00 0. -1.
         -4    1    5    5    0  503  0.17718261350E+02  0.17295431859E+02  0.52483694784E+02  0.58031086209E+02  0.00000000000E+00 0.  1.
         -1    1    6    6    0  502  0.18896641353E+03 -0.25593539535E+03 -0.50236298546E+03  0.59462576567E+03  0.00000000000E+00 0.  1.
<mgrwt>
<rscale>  0 0.14991438E+04</rscale>
<asrwt>0</asrwt>
<pdfrwt beam="1">  1        2 0.10845892E+00 0.14991438E+04</pdfrwt>
<pdfrwt beam="2">  1       -2 0.12261245E+00 0.14991438E+04</pdfrwt>
<totfact> 0.19740970E+01</totfact>
</mgrwt>
</event>
<event>
12    1  0.1489233E-007  0.2269961E+04  0.7818608E-02  0.8489860E-01
         -2   -1    0    0    0  501 -0.00000000000E+00  0.00000000000E+00  0.54032381682E+03  0.54032381682E+03  0.00000000000E+00 0.  1.
          2   -1    0    0  501    0  0.00000000000E+00 -0.00000000000E+00 -0.23840901762E+04  0.23840901762E+04  0.00000000000E+00 0. -1.
         23    2    1    2    0    0 -0.92507687666E+03  0.21680191864E+03 -0.86729750722E+03  0.12902205811E+04  0.98457515187E+02 0.  0.
        254    2    1    2    0    0  0.92507687666E+03 -0.21680191864E+03 -0.97646885220E+03  0.16341934119E+04  0.90240034827E+03 0.  0.
        -24    2    4    4    0    0  0.46352796973E+03  0.23202456474E+03 -0.84336639419E+02  0.53102406313E+03  0.78614944580E+02 0.  0.
         24    2    4    4    0    0  0.46154890694E+03 -0.44882648338E+03 -0.89213221278E+03  0.11031693488E+04  0.81302652706E+02 0.  0.
         11    1    3    3    0    0 -0.22099086108E+03  0.80408396653E+02 -0.17220007683E+03  0.29147098894E+03  0.00000000000E+00 0. -1.
        -11    1    3    3    0    0 -0.70408601558E+03  0.13639352198E+03 -0.69509743039E+03  0.99874959219E+03  0.00000000000E+00 0.  1.
          2    1    6    6  502    0  0.15532865047E+03 -0.18002486866E+03 -0.27350672390E+03  0.36241119052E+03  0.00000000000E+00 0. -1.
          1    1    5    5  503    0  0.14930383528E+03  0.81574312932E+02 -0.64912985847E+02  0.18209804911E+03  0.00000000000E+00 0. -1.
         -2    1    5    5    0  503  0.31422413445E+03  0.15045025181E+03 -0.19423653572E+02  0.34892601402E+03  0.00000000000E+00 0.  1.
         -1    1    6    6    0  502  0.30622025647E+03 -0.26880161472E+03 -0.61862548888E+03  0.74075815826E+03  0.00000000000E+00 0.  1.
<mgrwt>
<rscale>  0 0.22699610E+04</rscale>
<asrwt>0</asrwt>
<pdfrwt beam="1">  1        2 0.36678310E+00 0.22699610E+04</pdfrwt>
<pdfrwt beam="2">  1       -2 0.83126742E-01 0.22699610E+04</pdfrwt>
<totfact> 0.46764745E+00</totfact>
</mgrwt>
</event>
<event>
12    1  0.1489233E-007  0.1459371E+04  0.7818608E-02  0.8911930E-01
         -1   -1    0    0    0  501 -0.00000000000E+00  0.00000000000E+00  0.13777561828E+04  0.13777561828E+04  0.00000000000E+00 0.  1.
          1   -1    0    0  501    0  0.00000000000E+00 -0.00000000000E+00 -0.38645507922E+03  0.38645507922E+03  0.00000000000E+00 0. -1.
         23    2    1    2    0    0  0.17871870774E+03  0.36796730178E+03  0.96811655752E+02  0.43031989767E+03  0.91991336347E+02 0.  0.
        254    2    1    2    0    0 -0.17871870774E+03 -0.36796730178E+03  0.89448944778E+03  0.13338913643E+04  0.90100748494E+03 0.  0.
        -24    2    4    4    0    0  0.25143295470E+03  0.14951658564E+02  0.65414535780E+03  0.70529669031E+03  0.78071694209E+02 0.  0.
         24    2    4    4    0    0 -0.43015166244E+03 -0.38291896035E+03  0.24034408998E+03  0.62859467400E+03  0.75555275761E+02 0.  0.
         11    1    3    3    0    0  0.11360686326E+02  0.30593978109E+02  0.36425515431E+02  0.48906797735E+02  0.00000000000E+00 0.  1.
        -11    1    3    3    0    0  0.16735802142E+03  0.33737332367E+03  0.60386140322E+02  0.38141309994E+03  0.00000000000E+00 0. -1.
          2    1    6    6  502    0 -0.42214241126E+03 -0.35623244520E+03  0.22241071329E+03  0.59545973481E+03  0.00000000000E+00 0. -1.
          1    1    5    5  503    0  0.13510532137E+03  0.22698216565E+02  0.25497598443E+03  0.28945018490E+03  0.00000000000E+00 0. -1.
         -2    1    5    5    0  503  0.11632763333E+03 -0.77465580010E+01  0.39916937336E+03  0.41584650542E+03  0.00000000000E+00 0.  1.
         -1    1    6    6    0  502 -0.80092511800E+01 -0.26686515145E+02  0.17933376695E+02  0.33134939184E+02  0.00000000000E+00 0.  1.
<mgrwt>
<rscale>  0 0.14593709E+04</rscale>
<asrwt>0</asrwt>
<pdfrwt beam="1">  1        1 0.59454628E-01 0.14593709E+04</pdfrwt>
<pdfrwt beam="2">  1       -1 0.21196249E+00 0.14593709E+04</pdfrwt>
<totfact> 0.76002412E+00</totfact>
</mgrwt>
</event>
<event>
12    1  0.1489233E-007  0.1889940E+04  0.7818608E-02  0.8659880E-01
          2   -1    0    0  501    0  0.00000000000E+00  0.00000000000E+00  0.16142250097E+04  0.16142250097E+04  0.00000000000E+00 0. -1.
         -2   -1    0    0    0  501 -0.00000000000E+00 -0.00000000000E+00 -0.55318709364E+03  0.55318709364E+03  0.00000000000E+00 0.  1.
         23    2    1    2    0    0 -0.26405333165E+03  0.65801727120E+03  0.22402041504E+03  0.74914799840E+03  0.91250676713E+02 0.  0.
        254    2    1    2    0    0  0.26405333165E+03 -0.65801727120E+03  0.83701750098E+03  0.14182641049E+04  0.89897935637E+03 0.  0.
        -24    2    4    4    0    0 -0.25991951307E+03 -0.84845984361E+02  0.16423685244E+02  0.28561091761E+03  0.80912696670E+02 0.  0.
         24    2    4    4    0    0  0.52397284472E+03 -0.57317128683E+03  0.82059381574E+03  0.11326531873E+04  0.80350272012E+02 0.  0.
         11    1    3    3    0    0 -0.24801112372E+03  0.55648363534E+03  0.16756237172E+03  0.63187079558E+03  0.00000000000E+00 0.  1.
        -11    1    3    3    0    0 -0.16042207932E+02  0.10153363585E+03  0.56458043319E+02  0.11727720282E+03  0.00000000000E+00 0. -1.
          2    1    6    6  502    0  0.34100146912E+03 -0.37564122234E+03  0.59020384931E+03  0.77828588167E+03  0.00000000000E+00 0. -1.
          3    1    5    5  503    0 -0.28397859717E+02 -0.34989123559E+02 -0.13150109182E+02  0.46942545472E+02  0.00000000000E+00 0. -1.
         -4    1    5    5    0  503 -0.23152165336E+03 -0.49856860802E+02  0.29573794426E+02  0.23866837214E+03  0.00000000000E+00 0.  1.
         -1    1    6    6    0  502  0.18297137560E+03 -0.19753006450E+03  0.23038996643E+03  0.35436730563E+03  0.00000000000E+00 0.  1.
<mgrwt>
<rscale>  0 0.18899401E+04</rscale>
<asrwt>0</asrwt>
<pdfrwt beam="1">  1        2 0.24834231E+00 0.18899401E+04</pdfrwt>
<pdfrwt beam="2">  1       -2 0.85105707E-01 0.18899401E+04</pdfrwt>
<totfact> 0.12330809E+01</totfact>
</mgrwt>
</event>
<event>
12    1  0.1489233E-007  0.1127766E+04  0.7818608E-02  0.9178544E-01
         -2   -1    0    0    0  501 -0.00000000000E+00  0.00000000000E+00  0.10111548176E+04  0.10111548176E+04  0.00000000000E+00 0.  1.
          2   -1    0    0  501    0  0.00000000000E+00 -0.00000000000E+00 -0.31445633586E+03  0.31445633586E+03  0.00000000000E+00 0. -1.
         23    2    1    2    0    0  0.96312130192E+02 -0.82557332572E+02  0.28412009685E+03  0.32340577979E+03  0.88177828178E+02 0.  0.
        254    2    1    2    0    0 -0.96312130192E+02  0.82557332572E+02  0.41257838492E+03  0.10022053737E+04  0.90449043544E+03 0.  0.
        -24    2    4    4    0    0 -0.13930512139E+02  0.13720155375E+03  0.68424713295E+03  0.70253446749E+03  0.79638015747E+02 0.  0.
         24    2    4    4    0    0 -0.82381618053E+02 -0.54644221173E+02 -0.27166874803E+03  0.29967090621E+03  0.78905142260E+02 0.  0.
         11    1    3    3    0    0 -0.15342694515E+02 -0.16548299307E+02  0.64613052762E+02  0.68440419872E+02  0.00000000000E+00 0. -1.
        -11    1    3    3    0    0  0.11165482471E+03 -0.66009033265E+02  0.21950704409E+03  0.25496535992E+03  0.00000000000E+00 0.  1.
          2    1    6    6  502    0 -0.29033240786E+02  0.19613791946E+02 -0.73287284839E+02  0.81232112025E+02  0.00000000000E+00 0. -1.
          3    1    5    5  503    0 -0.28867152053E+02  0.95635765375E+01  0.14963860909E+03  0.15269737324E+03  0.00000000000E+00 0. -1.
         -4    1    5    5    0  503  0.14936639914E+02  0.12763797721E+03  0.53460852386E+03  0.54983709426E+03  0.00000000000E+00 0.  1.
         -1    1    6    6    0  502 -0.53348377268E+02 -0.74258013119E+02 -0.19838146319E+03  0.21843879419E+03  0.00000000000E+00 0.  1.
<mgrwt>
<rscale>  0 0.11277660E+04</rscale>
<asrwt>0</asrwt>
<pdfrwt beam="1">  1        2 0.48377898E-01 0.11277660E+04</pdfrwt>
<pdfrwt beam="2">  1       -2 0.15556228E+00 0.11277660E+04</pdfrwt>
<totfact> 0.28039097E+01</totfact>
</mgrwt>
</event>
<event>
12    1  0.1489233E-007  0.2047262E+04  0.7818608E-02  0.8584837E-01
         -1   -1    0    0    0  501 -0.00000000000E+00  0.00000000000E+00  0.12882211268E+04  0.12882211268E+04  0.00000000000E+00 0.  1.
          1   -1    0    0  501    0  0.00000000000E+00 -0.00000000000E+00 -0.81338550291E+03  0.81338550291E+03  0.00000000000E+00 0. -1.
         23    2    1    2    0    0 -0.76389529524E+03 -0.29058653078E+03  0.23713490207E+03  0.85589244594E+03  0.91336538583E+02 0.  0.
        254    2    1    2    0    0  0.76389529524E+03  0.29058653078E+03  0.23770072184E+03  0.12457141838E+04  0.90957442827E+03 0.  0.
        -24    2    4    4    0    0  0.84910593791E+00 -0.21399623022E+03 -0.12211809315E+03  0.25935321315E+03  0.80970074518E+02 0.  0.
         24    2    4    4    0    0  0.76304618930E+03  0.50458276100E+03  0.35981881499E+03  0.98636097063E+03  0.81210436919E+02 0.  0.
         13    1    3    3    0    0 -0.63570105712E+03 -0.23506620491E+03  0.16034739121E+03  0.69647917455E+03  0.00000000000E+00 0. -1.
        -13    1    3    3    0    0 -0.12819423812E+03 -0.55520325870E+02  0.76787510856E+02  0.15941327139E+03  0.00000000000E+00 0.  1.
          2    1    6    6  502    0  0.36547058296E+03  0.27151224337E+03  0.14436303545E+03  0.47762781673E+03  0.00000000000E+00 0. -1.
          1    1    5    5  503    0 -0.26173680787E+02 -0.95553217161E+02 -0.20962686043E+02  0.10126654473E+03  0.00000000000E+00 0. -1.
         -2    1    5    5    0  503  0.27022786725E+02 -0.11844301306E+03 -0.10115540710E+03  0.15808666842E+03  0.00000000000E+00 0.  1.
         -1    1    6    6    0  502  0.39757560634E+03  0.23307051763E+03  0.21545577953E+03  0.50873315390E+03  0.00000000000E+00 0.  1.
<mgrwt>
<rscale>  0 0.20472620E+04</rscale>
<asrwt>0</asrwt>
<pdfrwt beam="1">  1        1 0.12513623E+00 0.20472620E+04</pdfrwt>
<pdfrwt beam="2">  1       -1 0.19818787E+00 0.20472620E+04</pdfrwt>
<totfact> 0.30803294E+00</totfact>
</mgrwt>
</event>
<event>
12    1  0.1489233E-007  0.1980769E+04  0.7818608E-02  0.8615665E-01
          2   -1    0    0  501    0  0.00000000000E+00  0.00000000000E+00  0.30618386779E+04  0.30618386779E+04  0.00000000000E+00 0. -1.
         -2   -1    0    0    0  501 -0.00000000000E+00 -0.00000000000E+00 -0.32035049673E+03  0.32035049673E+03  0.00000000000E+00 0.  1.
         23    2    1    2    0    0 -0.98188589360E+01  0.56325457998E+03  0.20113728803E+04  0.20914270706E+04  0.10532898991E+03 0.  0.
        254    2    1    2    0    0  0.98188589360E+01 -0.56325457998E+03  0.73011530091E+03  0.12907621041E+04  0.90313139956E+03 0.  0.
        -24    2    4    4    0    0  0.11293078628E+03 -0.63191473150E+03  0.87387248346E+03  0.10872297308E+04  0.79660403272E+02 0.  0.
         24    2    4    4    0    0 -0.10311192735E+03  0.68660151517E+02 -0.14375718255E+03  0.20353237327E+03  0.73573184407E+02 0.  0.
         11    1    3    3    0    0 -0.12172637253E+02  0.88751126654E+02  0.47767601376E+03  0.48600340503E+03  0.00000000000E+00 0.  1.
        -11    1    3    3    0    0  0.23537783171E+01  0.47450345333E+03  0.15336968665E+04  0.16054236656E+04  0.00000000000E+00 0. -1.
          2    1    6    6  502    0 -0.32667917707E+02 -0.12416426061E+02 -0.22582142215E+02  0.41609057072E+02  0.00000000000E+00 0. -1.
          1    1    5    5  503    0  0.25162671053E+02 -0.73377965089E+02  0.70324459942E+02  0.10470441940E+03  0.00000000000E+00 0. -1.
         -2    1    5    5    0  503  0.87768115230E+02 -0.55853676641E+03  0.80354802352E+03  0.98252531143E+03  0.00000000000E+00 0.  1.
         -1    1    6    6    0  502 -0.70444009641E+02  0.81076577578E+02 -0.12117504034E+03  0.16192331619E+03  0.00000000000E+00 0.  1.
<mgrwt>
<rscale>  0 0.19807691E+04</rscale>
<asrwt>0</asrwt>
<pdfrwt beam="1">  1        2 0.47105208E+00 0.19807691E+04</pdfrwt>
<pdfrwt beam="2">  1       -2 0.49284694E-01 0.19807691E+04</pdfrwt>
<totfact> 0.57878654E+00</totfact>
</mgrwt>
</event>
<event>
12    1  0.1489233E-007  0.1172215E+04  0.7818608E-02  0.9137530E-01
          1   -1    0    0  501    0  0.00000000000E+00  0.00000000000E+00  0.54925848873E+03  0.54925848873E+03  0.00000000000E+00 0. -1.
         -1   -1    0    0    0  501 -0.00000000000E+00 -0.00000000000E+00 -0.62542865848E+03  0.62542865848E+03  0.00000000000E+00 0.  1.
         23    2    1    2    0    0 -0.16979579196E+03 -0.10746619003E+03 -0.14247987449E+03  0.26146679889E+03  0.87662873094E+02 0.  0.
        254    2    1    2    0    0  0.16979579196E+03  0.10746619003E+03  0.66309704746E+02  0.91322034832E+03  0.88836638538E+03 0.  0.
        -24    2    4    4    0    0 -0.18968466501E+03 -0.11455409785E+03 -0.27561323122E+03  0.36292445300E+03  0.81538898026E+02 0.  0.
         24    2    4    4    0    0  0.35948045697E+03  0.22202028787E+03  0.34192293596E+03  0.55029589532E+03  0.85994599233E+02 0.  0.
         11    1    3    3    0    0 -0.38436682667E+02 -0.16457795870E+02  0.72974773144E+01  0.42443972417E+02  0.00000000000E+00 0. -1.
        -11    1    3    3    0    0 -0.13135910929E+03 -0.91008394157E+02 -0.14977735181E+03  0.21902282647E+03  0.00000000000E+00 0.  1.
          4    1    6    6  502    0  0.30041336731E+03  0.14945650373E+03  0.24412518037E+03  0.41494884198E+03  0.00000000000E+00 0. -1.
          3    1    5    5  503    0 -0.46818459462E+02 -0.85191037225E+01 -0.20303315232E+02  0.51737490121E+02  0.00000000000E+00 0. -1.
         -4    1    5    5    0  503 -0.14286620555E+03 -0.10603499412E+03 -0.25530991598E+03  0.31118696288E+03  0.00000000000E+00 0.  1.
         -1    1    6    6    0  502  0.59067089658E+02  0.72563784142E+02  0.97797755589E+02  0.13534705334E+03  0.00000000000E+00 0.  1.
<mgrwt>
<rscale>  0 0.11722150E+04</rscale>
<asrwt>0</asrwt>
<pdfrwt beam="1">  1        1 0.84501306E-01 0.11722150E+04</pdfrwt>
<pdfrwt beam="2">  1       -1 0.96219794E-01 0.11722150E+04</pdfrwt>
<totfact> 0.40120752E+01</totfact>
</mgrwt>
</event>
<event>
12    1  0.1489233E-007  0.1908597E+04  0.7818608E-02  0.8650589E-01
         -2   -1    0    0    0  501 -0.00000000000E+00  0.00000000000E+00  0.47882836035E+03  0.47882836035E+03  0.00000000000E+00 0.  1.
          2   -1    0    0  501    0  0.00000000000E+00 -0.00000000000E+00 -0.19019034151E+04  0.19019034151E+04  0.00000000000E+00 0. -1.
         23    2    1    2    0    0  0.21691733287E+03  0.16267265341E+03  0.30287751980E+03  0.41739420792E+03  0.94697472712E+02 0.  0.
        254    2    1    2    0    0 -0.21691733287E+03 -0.16267265341E+03 -0.17259525746E+04  0.19633375676E+04  0.89569335881E+03 0.  0.
        -24    2    4    4    0    0 -0.55656142192E+03 -0.94333988328E+02 -0.12010301467E+04  0.13294787452E+04  0.79879927708E+02 0.  0.
         24    2    4    4    0    0  0.33964408905E+03 -0.68338665083E+02 -0.52492242788E+03  0.63385882239E+03  0.78772908136E+02 0.  0.
         11    1    3    3    0    0  0.22644459364E+02  0.66317663520E+02  0.66391716687E+02  0.96533227851E+02  0.00000000000E+00 0. -1.
        -11    1    3    3    0    0  0.19427287350E+03  0.96354989891E+02  0.23648580312E+03  0.32086098007E+03  0.00000000000E+00 0.  1.
          4    1    6    6  502    0  0.80735013927E+02 -0.21317427393E+02 -0.73027373162E+02  0.11093048461E+03  0.00000000000E+00 0. -1.
          1    1    5    5  503    0 -0.31732686932E+03 -0.46915038832E+02 -0.77164937920E+03  0.83566747411E+03  0.00000000000E+00 0. -1.
         -2    1    5    5    0  503 -0.23923455259E+03 -0.47418949496E+02 -0.42938076749E+03  0.49381127105E+03  0.00000000000E+00 0.  1.
         -3    1    6    6    0  502  0.25890907512E+03 -0.47021237689E+02 -0.45189505472E+03  0.52292833778E+03  0.00000000000E+00 0.  1.
<mgrwt>
<rscale>  0 0.19085967E+04</rscale>
<asrwt>0</asrwt>
<pdfrwt beam="1">  1        2 0.29260053E+00 0.19085967E+04</pdfrwt>
<pdfrwt beam="2">  1       -2 0.73665901E-01 0.19085967E+04</pdfrwt>
<totfact> 0.11778762E+01</totfact>
</mgrwt>
</event>
<event>
12    1  0.1489233E-007  0.1706472E+04  0.7818608E-02  0.8757682E-01
         -2   -1    0    0    0  501 -0.00000000000E+00  0.00000000000E+00  0.32587757413E+03  0.32587757413E+03  0.00000000000E+00 0.  1.
          2   -1    0    0  501    0  0.00000000000E+00 -0.00000000000E+00 -0.22340038438E+04  0.22340038438E+04  0.00000000000E+00 0. -1.
         23    2    1    2    0    0  0.48780148851E+03  0.37078884359E+03 -0.76556789116E+03  0.98474071372E+03  0.90473303013E+02 0.  0.
        254    2    1    2    0    0 -0.48780148851E+03 -0.37078884359E+03 -0.11425583785E+04  0.15751407042E+04  0.89453559517E+03 0.  0.
        -24    2    4    4    0    0  0.10663857532E+03 -0.30398619992E+03 -0.62637598309E+02  0.33782175913E+03  0.80129125363E+02 0.  0.
         24    2    4    4    0    0 -0.59444006384E+03 -0.66802643667E+02 -0.10799207802E+04  0.12373189451E+04  0.83112560120E+02 0.  0.
         13    1    3    3    0    0  0.11893073606E+03  0.58593153812E+02 -0.21062223852E+03  0.24887628455E+03  0.00000000000E+00 0.  1.
        -13    1    3    3    0    0  0.36887075246E+03  0.31219568977E+03 -0.55494565264E+03  0.73586442917E+03  0.00000000000E+00 0. -1.
          4    1    6    6  502    0 -0.34649220904E+03 -0.79819002520E+02 -0.62647052313E+03  0.72034244664E+03  0.00000000000E+00 0. -1.
          1    1    5    5  503    0  0.68772238334E+02 -0.10153150524E+03 -0.46767447904E+02  0.13124580566E+03  0.00000000000E+00 0. -1.
         -2    1    5    5    0  503  0.37866336987E+02 -0.20245469468E+03 -0.15870150405E+02  0.20657595346E+03  0.00000000000E+00 0.  1.
         -3    1    6    6    0  502 -0.24794785479E+03  0.13016358853E+02 -0.45345025706E+03  0.51697649842E+03  0.00000000000E+00 0.  1.
<mgrwt>
<rscale>  0 0.17064721E+04</rscale>
<asrwt>0</asrwt>
<pdfrwt beam="1">  1        2 0.34369289E+00 0.17064721E+04</pdfrwt>
<pdfrwt beam="2">  1       -2 0.50135013E-01 0.17064721E+04</pdfrwt>
<totfact> 0.17695374E+01</totfact>
</mgrwt>
</event>
<event>
12    1  0.1489233E-007  0.1773193E+04  0.7818608E-02  0.8720687E-01
          2   -1    0    0  501    0  0.00000000000E+00  0.00000000000E+00  0.96220527447E+03  0.96220527447E+03  0.00000000000E+00 0. -1.
         -2   -1    0    0    0  501 -0.00000000000E+00 -0.00000000000E+00 -0.81692880279E+03  0.81692880279E+03  0.00000000000E+00 0.  1.
         23    2    1    2    0    0 -0.43035231940E+03 -0.34776036055E+03  0.29942329487E+02  0.56163452246E+03  0.91631907914E+02 0.  0.
        254    2    1    2    0    0  0.43035231940E+03  0.34776036055E+03  0.11533414220E+03  0.12174995548E+04  0.10783611707E+04 0.  0.
        -24    2    4    4    0    0 -0.27434509577E+03  0.25768011248E+02 -0.22750333616E+03  0.36644917221E+03  0.81228110122E+02 0.  0.
         24    2    4    4    0    0  0.70469741516E+03  0.32199234930E+03  0.34283747836E+03  0.85105038258E+03  0.80446859355E+02 0.  0.
         11    1    3    3    0    0 -0.23842208174E+03 -0.14364593204E+03  0.40364414111E+02  0.28126238423E+03  0.00000000000E+00 0.  1.
        -11    1    3    3    0    0 -0.19193023765E+03 -0.20411442851E+03 -0.10422084624E+02  0.28037213823E+03  0.00000000000E+00 0. -1.
          2    1    6    6  502    0  0.36270322663E+03  0.12775627712E+03  0.14697173707E+03  0.41167461478E+03  0.00000000000E+00 0. -1.
          3    1    5    5  503    0 -0.26158270516E+03  0.19847828902E+02 -0.18321493130E+03  0.31997993531E+03  0.00000000000E+00 0. -1.
         -4    1    5    5    0  503 -0.12762390611E+02  0.59201823461E+01 -0.44288404860E+02  0.46469236900E+02  0.00000000000E+00 0.  1.
         -1    1    6    6    0  502  0.34199418853E+03  0.19423607218E+03  0.19586574129E+03  0.43937576781E+03  0.00000000000E+00 0.  1.
<mgrwt>
<rscale>  0 0.17731928E+04</rscale>
<asrwt>0</asrwt>
<pdfrwt beam="1">  1        2 0.14803158E+00 0.17731928E+04</pdfrwt>
<pdfrwt beam="2">  1       -2 0.12568135E+00 0.17731928E+04</pdfrwt>
<totfact> 0.11926480E+01</totfact>
</mgrwt>
</event>
<event>
12    1  0.1489233E-007  0.1880440E+04  0.7818608E-02  0.8664655E-01
         -2   -1    0    0    0  501 -0.00000000000E+00  0.00000000000E+00  0.37057276295E+03  0.37057276295E+03  0.00000000000E+00 0.  1.
          2   -1    0    0  501    0  0.00000000000E+00 -0.00000000000E+00 -0.23855322876E+04  0.23855322876E+04  0.00000000000E+00 0. -1.
         23    2    1    2    0    0 -0.10166893422E+03 -0.29358472286E+03  0.17098344599E+03  0.36647478218E+03  0.92411392649E+02 0.  0.
        254    2    1    2    0    0  0.10166893422E+03  0.29358472286E+03 -0.21859429707E+04  0.23896302684E+04  0.91403369028E+03 0.  0.
        -24    2    4    4    0    0 -0.26790472895E+03  0.41326802939E+03 -0.16467142453E+04  0.17204763969E+04  0.76209047375E+02 0.  0.
         24    2    4    4    0    0  0.36957366318E+03 -0.11968330653E+03 -0.53922872540E+03  0.66915387148E+03  0.78041649376E+02 0.  0.
         11    1    3    3    0    0 -0.56285306783E+01 -0.13754867196E+03  0.99241056184E+02  0.16970593610E+03  0.00000000000E+00 0.  1.
        -11    1    3    3    0    0 -0.96040403544E+02 -0.15603605090E+03  0.71742389802E+02  0.19676884608E+03  0.00000000000E+00 0. -1.
          4    1    6    6  502    0  0.48372145227E+02 -0.45733629101E+02 -0.94944298739E+02  0.11595623798E+03  0.00000000000E+00 0. -1.
          3    1    5    5  503    0 -0.64018021364E+01  0.87359976776E+01 -0.97590352963E+02  0.98189499018E+02  0.00000000000E+00 0. -1.
         -4    1    5    5    0  503 -0.26150292682E+03  0.40453203171E+03 -0.15491238923E+04  0.16222868979E+04  0.00000000000E+00 0.  1.
         -3    1    6    6    0  502  0.32120151795E+03 -0.73949677428E+02 -0.44428442666E+03  0.55319763349E+03  0.00000000000E+00 0.  1.
<mgrwt>
<rscale>  0 0.18804396E+04</rscale>
<asrwt>0</asrwt>
<pdfrwt beam="1">  1        2 0.36700496E+00 0.18804396E+04</pdfrwt>
<pdfrwt beam="2">  1       -2 0.57011196E-01 0.18804396E+04</pdfrwt>
<totfact> 0.10969085E+01</totfact>
</mgrwt>
</event>
<event>
12    1  0.1489233E-007  0.1934603E+04  0.7818608E-02  0.8637821E-01
          2   -1    0    0  501    0  0.00000000000E+00  0.00000000000E+00  0.37429743872E+04  0.37429743872E+04  0.00000000000E+00 0. -1.
         -2   -1    0    0    0  501 -0.00000000000E+00 -0.00000000000E+00 -0.24998103510E+03  0.24998103510E+03  0.00000000000E+00 0.  1.
         23    2    1    2    0    0 -0.22225073678E+03  0.51660385901E+03  0.23949698478E+04  0.24618434969E+04  0.92292440303E+02 0.  0.
        254    2    1    2    0    0  0.22225073678E+03 -0.51660385901E+03  0.10980235043E+04  0.15311119254E+04  0.90684793367E+03 0.  0.
        -24    2    4    4    0    0 -0.22828031417E+03 -0.55625039134E+03  0.66048029618E+03  0.89690591502E+03  0.81728814153E+02 0.  0.
         24    2    4    4    0    0  0.45053105095E+03  0.39646532334E+02  0.43754320814E+03  0.63420601034E+03  0.78886812343E+02 0.  0.
         13    1    3    3    0    0 -0.22814042474E+03  0.51413609632E+03  0.23475519407E+04  0.24139975338E+04  0.00000000000E+00 0. -1.
        -13    1    3    3    0    0  0.58896879600E+01  0.24677626896E+01  0.47417907043E+02  0.47845963103E+02  0.00000000000E+00 0.  1.
          2    1    6    6  502    0  0.85458100272E+02  0.33184116912E+02  0.11455502008E+03  0.14672124980E+03  0.00000000000E+00 0. -1.
          3    1    5    5  503    0 -0.91179347269E+02 -0.28253656202E+03  0.27523849972E+03  0.40484171472E+03  0.00000000000E+00 0. -1.
         -4    1    5    5    0  503 -0.13710096690E+03 -0.27371382932E+03  0.38524179645E+03  0.49206420030E+03  0.00000000000E+00 0.  1.
         -1    1    6    6    0  502  0.36507295068E+03  0.64624154221E+01  0.32298818806E+03  0.48748476054E+03  0.00000000000E+00 0.  1.
<mgrwt>
<rscale>  0 0.19346034E+04</rscale>
<asrwt>0</asrwt>
<pdfrwt beam="1">  1        2 0.57584217E+00 0.19346034E+04</pdfrwt>
<pdfrwt beam="2">  1       -2 0.38458624E-01 0.19346034E+04</pdfrwt>
<totfact> 0.32630028E+00</totfact>
</mgrwt>
</event>
<event>
12    1  0.1489233E-007  0.1648007E+04  0.7818608E-02  0.8791586E-01
          1   -1    0    0  501    0  0.00000000000E+00  0.00000000000E+00  0.17623005047E+04  0.17623005047E+04  0.00000000000E+00 0. -1.
         -1   -1    0    0    0  501 -0.00000000000E+00 -0.00000000000E+00 -0.38528164970E+03  0.38528164970E+03  0.00000000000E+00 0.  1.
         23    2    1    2    0    0 -0.22200826048E+03 -0.31700836053E+03 -0.62603276760E+02  0.40173914986E+03  0.87710922392E+02 0.  0.
        254    2    1    2    0    0  0.22200826048E+03  0.31700836053E+03  0.14396221317E+04  0.17458430045E+04  0.90866602545E+03 0.  0.
        -24    2    4    4    0    0  0.28865377645E+03  0.60853471276E+03  0.98391254722E+03  0.11950028145E+04  0.79450152330E+02 0.  0.
         24    2    4    4    0    0 -0.66645515974E+02 -0.29152635223E+03  0.45570958450E+03  0.55084019002E+03  0.79526415060E+02 0.  0.
         11    1    3    3    0    0 -0.36605250615E+02 -0.65690206129E+02 -0.47750526816E+02  0.89080078385E+02  0.00000000000E+00 0. -1.
        -11    1    3    3    0    0 -0.18540300986E+03 -0.25131815440E+03 -0.14852749944E+02  0.31265907148E+03  0.00000000000E+00 0.  1.
          4    1    6    6  502    0 -0.58995160906E+02 -0.28201172916E+03  0.39498821776E+03  0.48890360662E+03  0.00000000000E+00 0. -1.
          3    1    5    5  503    0  0.24484002326E+03  0.43979834637E+03  0.71029826593E+03  0.87057041590E+03  0.00000000000E+00 0. -1.
         -4    1    5    5    0  503  0.43813753197E+02  0.16873636639E+03  0.27361428129E+03  0.32443239857E+03  0.00000000000E+00 0.  1.
         -3    1    6    6    0  502 -0.76503550683E+01 -0.95146230722E+01  0.60721366745E+02  0.61936583408E+02  0.00000000000E+00 0.  1.
<mgrwt>
<rscale>  0 0.16480073E+04</rscale>
<asrwt>0</asrwt>
<pdfrwt beam="1">  1        1 0.27112315E+00 0.16480073E+04</pdfrwt>
<pdfrwt beam="2">  1       -1 0.59274101E-01 0.16480073E+04</pdfrwt>
<totfact> 0.11918362E+01</totfact>
</mgrwt>
</event>
<event>
12    1  0.1489233E-007  0.1385285E+04  0.7818608E-02  0.8964540E-01
          2   -1    0    0  501    0  0.00000000000E+00  0.00000000000E+00  0.80235831381E+03  0.80235831381E+03  0.00000000000E+00 0. -1.
         -2   -1    0    0    0  501 -0.00000000000E+00 -0.00000000000E+00 -0.59792929248E+03  0.59792929248E+03  0.00000000000E+00 0.  1.
         23    2    1    2    0    0 -0.28018529129E+03  0.28225087693E+03  0.49773454601E+02  0.41061446547E+03  0.89204750370E+02 0.  0.
        254    2    1    2    0    0  0.28018529129E+03 -0.28225087693E+03  0.15465556673E+03  0.98967314082E+03  0.89295309303E+03 0.  0.
        -24    2    4    4    0    0  0.15830305626E+03 -0.59269063752E+03  0.13787331621E+02  0.61882420252E+03  0.80070304595E+02 0.  0.
         24    2    4    4    0    0  0.12188223503E+03  0.31043976059E+03  0.14086823510E+03  0.37084893830E+03  0.80355156679E+02 0.  0.
         13    1    3    3    0    0 -0.42242268637E+02  0.57665235581E+01  0.89426910289E+01  0.43561838533E+02  0.00000000000E+00 0.  1.
        -13    1    3    3    0    0 -0.23794302265E+03  0.27648435337E+03  0.40830763572E+02  0.36705262694E+03  0.00000000000E+00 0. -1.
          4    1    6    6  502    0  0.54673692282E+02  0.50417004750E+02  0.26648971702E+02  0.79001611937E+02  0.00000000000E+00 0. -1.
          1    1    5    5  503    0  0.88774415728E+02 -0.18634974019E+03  0.61905390128E+01  0.20650773674E+03  0.00000000000E+00 0. -1.
         -2    1    5    5    0  503  0.69528640533E+02 -0.40634089733E+03  0.75967926085E+01  0.41231646578E+03  0.00000000000E+00 0.  1.
         -1    1    6    6    0  502  0.67208542748E+02  0.26002275584E+03  0.11421926340E+03  0.29184732636E+03  0.00000000000E+00 0.  1.
<mgrwt>
<rscale>  0 0.13852849E+04</rscale>
<asrwt>0</asrwt>
<pdfrwt beam="1">  1        2 0.12343974E+00 0.13852849E+04</pdfrwt>
<pdfrwt beam="2">  1       -2 0.91989122E-01 0.13852849E+04</pdfrwt>
<totfact> 0.33596522E+01</totfact>
</mgrwt>
</event>
<event>
12    1  0.1489233E-007  0.1713588E+04  0.7818608E-02  0.8753652E-01
         -1   -1    0    0    0  501 -0.00000000000E+00  0.00000000000E+00  0.30474501004E+03  0.30474501004E+03  0.00000000000E+00 0.  1.
          1   -1    0    0  501    0  0.00000000000E+00 -0.00000000000E+00 -0.24088870963E+04  0.24088870963E+04  0.00000000000E+00 0. -1.
         23    2    1    2    0    0  0.20300350297E+03 -0.47137841846E+03 -0.21699551167E+03  0.56495868177E+03  0.93183820589E+02 0.  0.
        254    2    1    2    0    0 -0.20300350297E+03  0.47137841846E+03 -0.18871465746E+04  0.21486734246E+04  0.88998160419E+03 0.  0.
        -24    2    4    4    0    0 -0.35966624838E+03 -0.19977055125E+01 -0.27689561192E+03  0.46081279887E+03  0.79457250426E+02 0.  0.
         24    2    4    4    0    0  0.15666274541E+03  0.47337612397E+03 -0.16102509627E+04  0.16878606257E+04  0.85657214625E+02 0.  0.
         13    1    3    3    0    0  0.84200158949E+01 -0.10545377552E+03 -0.27852057471E+02  0.10939438991E+03  0.00000000000E+00 0. -1.
        -13    1    3    3    0    0  0.19458348708E+03 -0.36592464294E+03 -0.18914345419E+03  0.45556429186E+03  0.00000000000E+00 0.  1.
          4    1    6    6  502    0  0.74808315895E+02  0.11910977999E+03 -0.38988189146E+03  0.41447715631E+03  0.00000000000E+00 0. -1.
          3    1    5    5  503    0 -0.64734190003E+02 -0.11094566495E+02 -0.90419442048E+02  0.11175544846E+03  0.00000000000E+00 0. -1.
         -4    1    5    5    0  503 -0.29493205838E+03  0.90968609824E+01 -0.18647616987E+03  0.34905735040E+03  0.00000000000E+00 0.  1.
         -3    1    6    6    0  502  0.81854429516E+02  0.35426634398E+03 -0.12203690712E+04  0.12733834694E+04  0.00000000000E+00 0.  1.
<mgrwt>
<rscale>  0 0.17135884E+04</rscale>
<asrwt>0</asrwt>
<pdfrwt beam="1">  1        1 0.37059803E+00 0.17135884E+04</pdfrwt>
<pdfrwt beam="2">  1       -1 0.46883846E-01 0.17135884E+04</pdfrwt>
<totfact> 0.67595575E+00</totfact>
</mgrwt>
</event>
<event>
12    1  0.1489233E-007  0.2164330E+04  0.7818608E-02  0.8533423E-01
         -1   -1    0    0    0  501 -0.00000000000E+00  0.00000000000E+00  0.72508241746E+03  0.72508241746E+03  0.00000000000E+00 0.  1.
          1   -1    0    0  501    0  0.00000000000E+00 -0.00000000000E+00 -0.16151000363E+04  0.16151000363E+04  0.00000000000E+00 0. -1.
         23    2    1    2    0    0  0.98521910681E+02 -0.28543644575E+03  0.52908715422E+03  0.61638773811E+03  0.93915363473E+02 0.  0.
        254    2    1    2    0    0 -0.98521910681E+02  0.28543644575E+03 -0.14191047730E+04  0.17237947156E+04  0.93082185908E+03 0.  0.
        -24    2    4    4    0    0  0.34895069855E+03 -0.22486221939E+02 -0.89633855689E+03  0.96545211589E+03  0.80017243951E+02 0.  0.
         24    2    4    4    0    0 -0.44747260923E+03  0.30792266768E+03 -0.52276621616E+03  0.75834259974E+03  0.82163717950E+02 0.  0.
         13    1    3    3    0    0  0.18673507917E+02 -0.12918358659E+01  0.53269122318E+02  0.56462094633E+02  0.00000000000E+00 0. -1.
        -13    1    3    3    0    0  0.79848402764E+02 -0.28414460988E+03  0.47581803190E+03  0.55992564348E+03  0.00000000000E+00 0.  1.
          2    1    6    6  502    0 -0.39965876285E+03  0.25307188272E+03 -0.48008369988E+03  0.67398283615E+03  0.00000000000E+00 0. -1.
          1    1    5    5  503    0  0.26186925362E+03  0.31191511645E+00 -0.57651783719E+03  0.63320487987E+03  0.00000000000E+00 0. -1.
         -2    1    5    5    0  503  0.87081444924E+02 -0.22798137055E+02 -0.31982071969E+03  0.33224723603E+03  0.00000000000E+00 0.  1.
         -1    1    6    6    0  502 -0.47813846382E+02  0.54850784962E+02 -0.42682516283E+02  0.84359763590E+02  0.00000000000E+00 0.  1.
<mgrwt>
<rscale>  0 0.21643296E+04</rscale>
<asrwt>0</asrwt>
<pdfrwt beam="1">  1        1 0.24847693E+00 0.21643296E+04</pdfrwt>
<pdfrwt beam="2">  1       -1 0.11155114E+00 0.21643296E+04</pdfrwt>
<totfact> 0.36783157E+00</totfact>
</mgrwt>
</event>
<event>
12    1  0.1489233E-007  0.1411830E+04  0.7818608E-02  0.8945300E-01
          4   -1    0    0  501    0  0.00000000000E+00  0.00000000000E+00  0.21966165954E+03  0.21966165954E+03  0.00000000000E+00 0.  1.
         -4   -1    0    0    0  501 -0.00000000000E+00 -0.00000000000E+00 -0.22685621209E+04  0.22685621209E+04  0.00000000000E+00 0. -1.
         23    2    1    2    0    0  0.90518376242E+01 -0.23680752722E+03 -0.12130773157E+04  0.12394301524E+04  0.92036884833E+02 0.  0.
        254    2    1    2    0    0 -0.90518376242E+01  0.23680752722E+03 -0.83582314565E+03  0.12487936280E+04  0.89706491060E+03 0.  0.
        -24    2    4    4    0    0  0.29119280617E+02  0.21431998499E+03  0.13946934006E+03  0.26916339362E+03  0.78843180911E+02 0.  0.
         24    2    4    4    0    0 -0.38171118241E+02  0.22487542227E+02 -0.97529248571E+03  0.97963023439E+03  0.80729422265E+02 0.  0.
         11    1    3    3    0    0  0.46646003566E+02 -0.77042291588E+02 -0.43947348378E+03  0.44860707449E+03  0.00000000000E+00 0.  1.
        -11    1    3    3    0    0 -0.37594165942E+02 -0.15976523563E+03 -0.77360383191E+03  0.79082307792E+03  0.00000000000E+00 0. -1.
          2    1    6    6  502    0 -0.48659781187E+02  0.45234345969E+02 -0.75529300545E+03  0.75820936716E+03  0.00000000000E+00 0. -1.
          3    1    5    5  503    0  0.43432445852E+02  0.20967331216E+03  0.12335405570E+03  0.24711434245E+03  0.00000000000E+00 0. -1.
         -4    1    5    5    0  503 -0.14313165235E+02  0.46466728295E+01  0.16115284363E+02  0.22049051171E+02  0.00000000000E+00 0.  1.
         -1    1    6    6    0  502  0.10488662945E+02 -0.22746803742E+02 -0.21999948026E+03  0.22142086723E+03  0.00000000000E+00 0.  1.
<mgrwt>
<rscale>  0 0.14118302E+04</rscale>
<asrwt>0</asrwt>
<pdfrwt beam="1">  1        4 0.33794102E-01 0.14118302E+04</pdfrwt>
<pdfrwt beam="2">  1       -4 0.34900956E+00 0.14118302E+04</pdfrwt>
<totfact> 0.25297716E-01</totfact>
</mgrwt>
</event>
<event>
12    1  0.1489233E-007  0.3908091E+04  0.7818608E-02  0.8023348E-01
          2   -1    0    0  501    0  0.00000000000E+00  0.00000000000E+00  0.27634965235E+04  0.27634965235E+04  0.00000000000E+00 0. -1.
         -2   -1    0    0    0  501 -0.00000000000E+00 -0.00000000000E+00 -0.13816896688E+04  0.13816896688E+04  0.00000000000E+00 0.  1.
         23    2    1    2    0    0  0.10636885340E+04  0.14547468550E+04  0.10926958236E+04  0.21094559543E+04  0.89991947747E+02 0.  0.
        254    2    1    2    0    0 -0.10636885340E+04 -0.14547468550E+04  0.28911103105E+03  0.20357302380E+04  0.90160451632E+03 0.  0.
        -24    2    4    4    0    0 -0.60454171370E+03 -0.19496924039E+03  0.26312318778E+03  0.69221737730E+03  0.80295685937E+02 0.  0.
         24    2    4    4    0    0 -0.45914682035E+03 -0.12597776146E+04  0.25987843263E+02  0.13435128607E+04  0.80597753236E+02 0.  0.
         13    1    3    3    0    0  0.59953783888E+03  0.88015857374E+03  0.61427511322E+03  0.12294139457E+04  0.00000000000E+00 0. -1.
        -13    1    3    3    0    0  0.46415069516E+03  0.57458828129E+03  0.47842071039E+03  0.88004200862E+03  0.00000000000E+00 0.  1.
          2    1    6    6  502    0 -0.24256918347E+03 -0.55510803041E+03 -0.16305653327E+01  0.60579484394E+03  0.00000000000E+00 0. -1.
          1    1    5    5  503    0 -0.42349039891E+03 -0.12175744672E+03  0.21870694285E+03  0.49193670391E+03  0.00000000000E+00 0. -1.
         -2    1    5    5    0  503 -0.18105131479E+03 -0.73211793665E+02  0.44416244936E+02  0.20028067339E+03  0.00000000000E+00 0.  1.
         -1    1    6    6    0  502 -0.21657763688E+03 -0.70466958422E+03  0.27618408596E+02  0.73771801674E+03  0.00000000000E+00 0.  1.
<mgrwt>
<rscale>  0 0.39080914E+04</rscale>
<asrwt>0</asrwt>
<pdfrwt beam="1">  1        2 0.42515331E+00 0.39080914E+04</pdfrwt>
<pdfrwt beam="2">  1       -2 0.21256764E+00 0.39080914E+04</pdfrwt>
<totfact> 0.21308347E-01</totfact>
</mgrwt>
</event>
<event>
12    1  0.1489233E-007  0.1713864E+04  0.7818608E-02  0.8753496E-01
          2   -1    0    0  501    0  0.00000000000E+00  0.00000000000E+00  0.16823707499E+04  0.16823707499E+04  0.00000000000E+00 0. -1.
         -2   -1    0    0    0  501 -0.00000000000E+00 -0.00000000000E+00 -0.43648682505E+03  0.43648682505E+03  0.00000000000E+00 0.  1.
         23    2    1    2    0    0 -0.27124583090E+03  0.46906989718E+03  0.85179554014E+03  0.10128513264E+04  0.81922512160E+02 0.  0.
        254    2    1    2    0    0  0.27124583090E+03 -0.46906989718E+03  0.39408838467E+03  0.11060062485E+04  0.87996778212E+03 0.  0.
        -24    2    4    4    0    0  0.33959062620E+03  0.15726749471E+03  0.56871009529E+02  0.38702099842E+03  0.80598282852E+02 0.  0.
         24    2    4    4    0    0 -0.68344795295E+02 -0.62633739189E+03  0.33721737514E+03  0.71898525008E+03  0.79086612143E+02 0.  0.
         11    1    3    3    0    0 -0.25622339745E+03  0.41309033674E+03  0.79411007944E+03  0.93107726531E+03  0.00000000000E+00 0. -1.
        -11    1    3    3    0    0 -0.15022433453E+02  0.55979560434E+02  0.57685460700E+02  0.81774061104E+02  0.00000000000E+00 0.  1.
          2    1    6    6  502    0 -0.34931828234E+01 -0.13096905716E+03  0.10577388257E+03  0.16838411592E+03  0.00000000000E+00 0. -1.
          1    1    5    5  503    0  0.25691595186E+03  0.14453797053E+03  0.19569161089E+02  0.29543185900E+03  0.00000000000E+00 0. -1.
         -2    1    5    5    0  503  0.82674674339E+02  0.12729524175E+02  0.37301848439E+02  0.91589139420E+02  0.00000000000E+00 0.  1.
         -1    1    6    6    0  502 -0.64851612472E+02 -0.49536833473E+03  0.23144349257E+03  0.55060113417E+03  0.00000000000E+00 0.  1.
<mgrwt>
<rscale>  0 0.17138643E+04</rscale>
<asrwt>0</asrwt>
<pdfrwt beam="1">  1        2 0.25882627E+00 0.17138643E+04</pdfrwt>
<pdfrwt beam="2">  1       -2 0.67151820E-01 0.17138643E+04</pdfrwt>
<totfact> 0.19399792E+01</totfact>
</mgrwt>
</event>
<event>
12    1  0.1489233E-007  0.1794805E+04  0.7818608E-02  0.8709067E-01
         -2   -1    0    0    0  501 -0.00000000000E+00  0.00000000000E+00  0.11628959481E+04  0.11628959481E+04  0.00000000000E+00 0.  1.
          2   -1    0    0  501    0  0.00000000000E+00 -0.00000000000E+00 -0.69252257030E+03  0.69252257030E+03  0.00000000000E+00 0. -1.
         23    2    1    2    0    0 -0.13876169045E+03  0.50155687187E+03  0.61015272676E+03  0.80720005639E+03  0.92040635633E+02 0.  0.
        254    2    1    2    0    0  0.13876169045E+03 -0.50155687187E+03 -0.13977934897E+03  0.10482184620E+04  0.89911599653E+03 0.  0.
        -24    2    4    4    0    0  0.47740737767E+03 -0.49266197329E+03 -0.11295711068E+03  0.69947691242E+03  0.76648665810E+02 0.  0.
         24    2    4    4    0    0 -0.33864568723E+03 -0.88948985760E+01 -0.26822238294E+02  0.34874154957E+03  0.78365906062E+02 0.  0.
         11    1    3    3    0    0 -0.14998433966E+03  0.42297515861E+03  0.52817421931E+03  0.69308822879E+03  0.00000000000E+00 0.  1.
        -11    1    3    3    0    0  0.11222649214E+02  0.78581713262E+02  0.81978507450E+02  0.11411182760E+03  0.00000000000E+00 0. -1.
          2    1    6    6  502    0 -0.19856689708E+02  0.19235186376E+02 -0.34784575295E+01  0.27863599693E+02  0.00000000000E+00 0. -1.
          3    1    5    5  503    0  0.11999345696E+03 -0.12351906021E+03 -0.62445956860E+02  0.18317992651E+03  0.00000000000E+00 0. -1.
         -4    1    5    5    0  503  0.35741392071E+03 -0.36914291308E+03 -0.50511153816E+02  0.51629698591E+03  0.00000000000E+00 0.  1.
         -1    1    6    6    0  502 -0.31878899752E+03 -0.28130084952E+02 -0.23343780765E+02  0.32087794988E+03  0.00000000000E+00 0.  1.
<mgrwt>
<rscale>  0 0.17948055E+04</rscale>
<asrwt>0</asrwt>
<pdfrwt beam="1">  1        2 0.10654193E+00 0.17948055E+04</pdfrwt>
<pdfrwt beam="2">  1       -2 0.17890707E+00 0.17948055E+04</pdfrwt>
<totfact> 0.72327727E+00</totfact>
</mgrwt>
</event>
<event>
12    1  0.1489233E-007  0.1680087E+04  0.7818608E-02  0.8772804E-01
         -2   -1    0    0    0  501 -0.00000000000E+00  0.00000000000E+00  0.69162027778E+03  0.69162027778E+03  0.00000000000E+00 0.  1.
          2   -1    0    0  501    0  0.00000000000E+00 -0.00000000000E+00 -0.10203186830E+04  0.10203186830E+04  0.00000000000E+00 0. -1.
         23    2    1    2    0    0  0.60366260316E+03  0.16003771083E+03 -0.19122841252E+01  0.63131735347E+03  0.92397708906E+02 0.  0.
        254    2    1    2    0    0 -0.60366260316E+03 -0.16003771083E+03 -0.32678612104E+03  0.10806216073E+04  0.81910517142E+03 0.  0.
        -24    2    4    4    0    0 -0.54566024554E+03 -0.25705261051E+03 -0.54909509049E+03  0.81963143967E+03  0.80430904266E+02 0.  0.
         24    2    4    4    0    0 -0.58002357619E+02  0.97014899680E+02  0.22230896945E+03  0.26099016760E+03  0.76931303353E+02 0.  0.
         13    1    3    3    0    0  0.46626112954E+03  0.11876781033E+03 -0.40212461042E+02  0.48282737672E+03  0.00000000000E+00 0. -1.
        -13    1    3    3    0    0  0.13740147363E+03  0.41269900499E+02  0.38300176917E+02  0.14848997675E+03  0.00000000000E+00 0.  1.
          4    1    6    6  502    0 -0.77518844300E+01  0.77019749914E+02  0.94146370230E+02  0.12188384887E+03  0.00000000000E+00 0. -1.
          3    1    5    5  503    0 -0.45105888408E+03 -0.24253972360E+03 -0.47628377100E+03  0.69937533911E+03  0.00000000000E+00 0. -1.
         -4    1    5    5    0  503 -0.94601361462E+02 -0.14512886906E+02 -0.72811319490E+02  0.12025610056E+03  0.00000000000E+00 0.  1.
         -3    1    6    6    0  502 -0.50250473189E+02  0.19995149766E+02  0.12816259922E+03  0.13910631872E+03  0.00000000000E+00 0.  1.
<mgrwt>
<rscale>  0 0.16800870E+04</rscale>
<asrwt>0</asrwt>
<pdfrwt beam="1">  1        2 0.15697210E+00 0.16800870E+04</pdfrwt>
<pdfrwt beam="2">  1       -2 0.10640312E+00 0.16800870E+04</pdfrwt>
<totfact> 0.16589206E+01</totfact>
</mgrwt>
</event>
<event>
12    1  0.1489233E-007  0.1689619E+04  0.7818608E-02  0.8767307E-01
          2   -1    0    0  501    0  0.00000000000E+00  0.00000000000E+00  0.21607044328E+04  0.21607044328E+04  0.00000000000E+00 0. -1.
         -2   -1    0    0    0  501 -0.00000000000E+00 -0.00000000000E+00 -0.33031047692E+03  0.33031047692E+03  0.00000000000E+00 0.  1.
         23    2    1    2    0    0 -0.30307557218E+03  0.14188801318E+03  0.14175627120E+04  0.14594494934E+04  0.92313437565E+02 0.  0.
        254    2    1    2    0    0  0.30307557218E+03 -0.14188801318E+03  0.41283124386E+03  0.10315654162E+04  0.88414397094E+03 0.  0.
        -24    2    4    4    0    0 -0.26304921289E+03 -0.13116914431E+03  0.33605217109E+03  0.45455211458E+03  0.85360004395E+02 0.  0.
         24    2    4    4    0    0  0.56612478507E+03 -0.10718868868E+02  0.76779072771E+02  0.57701330167E+03  0.80231900558E+02 0.  0.
         13    1    3    3    0    0 -0.19201363684E+03  0.60129068088E+02  0.68164849917E+03  0.71072457252E+03  0.00000000000E+00 0.  1.
        -13    1    3    3    0    0 -0.11106193534E+03  0.81758945094E+02  0.73591421282E+03  0.74872492093E+03  0.00000000000E+00 0. -1.
          2    1    6    6  502    0  0.55247334188E+03  0.15758972560E+01  0.67977287297E+02  0.55664188535E+03  0.00000000000E+00 0. -1.
          3    1    5    5  503    0 -0.73278710140E+02 -0.77039944854E+02  0.14568319573E+03  0.18035663554E+03  0.00000000000E+00 0. -1.
         -2    1    5    5    0  503 -0.18977050275E+03 -0.54129199459E+02  0.19036897536E+03  0.27419547904E+03  0.00000000000E+00 0.  1.
         -1    1    6    6    0  502  0.13651443189E+02 -0.12294766124E+02  0.88017854737E+01  0.20371416316E+02  0.00000000000E+00 0.  1.
<mgrwt>
<rscale>  0 0.16896193E+04</rscale>
<asrwt>0</asrwt>
<pdfrwt beam="1">  1        2 0.33241606E+00 0.16896193E+04</pdfrwt>
<pdfrwt beam="2">  1       -2 0.50816998E-01 0.16896193E+04</pdfrwt>
<totfact> 0.18950065E+01</totfact>
</mgrwt>
</event>
<event>
12    1  0.1489233E-007  0.1945411E+04  0.7818608E-02  0.8632577E-01
          1   -1    0    0  501    0  0.00000000000E+00  0.00000000000E+00  0.40180406014E+03  0.40180406014E+03  0.00000000000E+00 0. -1.
         -1   -1    0    0    0  501 -0.00000000000E+00 -0.00000000000E+00 -0.23547686466E+04  0.23547686466E+04  0.00000000000E+00 0.  1.
         23    2    1    2    0    0  0.35151832066E+03 -0.27199407332E+03  0.10812189803E+03  0.46619615087E+03  0.90014446463E+02 0.  0.
        254    2    1    2    0    0 -0.35151832066E+03  0.27199407332E+03 -0.20610864845E+04  0.22903765559E+04  0.89453975061E+03 0.  0.
        -24    2    4    4    0    0 -0.52265819436E+03  0.35838042225E+03 -0.85885154830E+03  0.10703291323E+04  0.79814499570E+02 0.  0.
         24    2    4    4    0    0  0.17113987370E+03 -0.86386348928E+02 -0.12022349362E+04  0.12200474235E+04  0.79971346042E+02 0.  0.
         11    1    3    3    0    0  0.33257972010E+03 -0.27422328105E+03  0.90971663120E+02  0.44054911370E+03  0.00000000000E+00 0. -1.
        -11    1    3    3    0    0  0.18938600565E+02  0.22292077251E+01  0.17150234911E+02  0.25647037177E+02  0.00000000000E+00 0.  1.
          2    1    6    6  502    0  0.49756663939E+02  0.64792039168E+01 -0.42305028982E+03  0.42601555536E+03  0.00000000000E+00 0. -1.
          1    1    5    5  503    0 -0.16109656396E+03  0.79197341004E+02 -0.20180823051E+03  0.27009421253E+03  0.00000000000E+00 0. -1.
         -2    1    5    5    0  503 -0.36156163040E+03  0.27918308125E+03 -0.65704331779E+03  0.80023491981E+03  0.00000000000E+00 0.  1.
         -1    1    6    6    0  502  0.12138320976E+03 -0.92865552845E+02 -0.77918464640E+03  0.79403186819E+03  0.00000000000E+00 0.  1.
<mgrwt>
<rscale>  0 0.19454106E+04</rscale>
<asrwt>0</asrwt>
<pdfrwt beam="1">  1        1 0.61816010E-01 0.19454106E+04</pdfrwt>
<pdfrwt beam="2">  1       -1 0.36227210E+00 0.19454106E+04</pdfrwt>
<totfact> 0.71691048E-01</totfact>
</mgrwt>
</event>
<event>
12    1  0.1489233E-007  0.1984250E+04  0.7818608E-02  0.8614020E-01
         -1   -1    0    0    0  501 -0.00000000000E+00  0.00000000000E+00  0.19894017098E+04  0.19894017098E+04  0.00000000000E+00 0.  1.
          1   -1    0    0  501    0  0.00000000000E+00 -0.00000000000E+00 -0.49477774454E+03  0.49477774454E+03  0.00000000000E+00 0. -1.
         23    2    1    2    0    0 -0.34112140768E+03  0.43107971361E+03  0.12990066211E+04  0.14135512625E+04  0.92279119627E+02 0.  0.
        254    2    1    2    0    0  0.34112140768E+03 -0.43107971361E+03  0.19561734419E+03  0.10706281918E+04  0.89765530439E+03 0.  0.
        -24    2    4    4    0    0  0.62713722071E+02  0.27161720297E+03  0.81034109049E+02  0.30124279391E+03  0.80447362704E+02 0.  0.
         24    2    4    4    0    0  0.27840768561E+03 -0.70269691659E+03  0.11458323514E+03  0.76938539791E+03  0.86780048139E+02 0.  0.
         13    1    3    3    0    0 -0.10974131543E+03  0.19379032157E+03  0.44846235062E+03  0.50071581258E+03  0.00000000000E+00 0. -1.
        -13    1    3    3    0    0 -0.23138009225E+03  0.23728939205E+03  0.85054427045E+03  0.91283544994E+03  0.00000000000E+00 0.  1.
          4    1    6    6  502    0  0.12143265904E+03 -0.39562839703E+03  0.90880702603E+02  0.42370629134E+03  0.00000000000E+00 0. -1.
          1    1    5    5  503    0  0.12798719137E+02  0.12823378550E+03 -0.58268437227E+00  0.12887222539E+03  0.00000000000E+00 0. -1.
         -2    1    5    5    0  503  0.49915002934E+02  0.14338341747E+03  0.81616793421E+02  0.17237056852E+03  0.00000000000E+00 0.  1.
         -3    1    6    6    0  502  0.15697502656E+03 -0.30706851956E+03  0.23702532542E+02  0.34567910657E+03  0.00000000000E+00 0.  1.
<mgrwt>
<rscale>  0 0.19842497E+04</rscale>
<asrwt>0</asrwt>
<pdfrwt beam="1">  1        1 0.76119654E-01 0.19842497E+04</pdfrwt>
<pdfrwt beam="2">  1       -1 0.30606180E+00 0.19842497E+04</pdfrwt>
<totfact> 0.12610778E+00</totfact>
</mgrwt>
</event>
<event>
12    1  0.1489233E-007  0.1927952E+04  0.7818608E-02  0.8641067E-01
          1   -1    0    0  501    0  0.00000000000E+00  0.00000000000E+00  0.11138661352E+04  0.11138661352E+04  0.00000000000E+00 0. -1.
         -1   -1    0    0    0  501 -0.00000000000E+00 -0.00000000000E+00 -0.83425579580E+03  0.83425579580E+03  0.00000000000E+00 0.  1.
         23    2    1    2    0    0  0.17804586427E+03  0.70675227060E+03  0.26761569839E+03  0.78164867110E+03  0.90318222016E+02 0.  0.
        254    2    1    2    0    0 -0.17804586427E+03 -0.70675227060E+03  0.11994641064E+02  0.11664732599E+04  0.91066837706E+03 0.  0.
        -24    2    4    4    0    0 -0.41326984721E+03 -0.74227373778E+03 -0.15185513150E+03  0.86672090997E+03  0.79892968416E+02 0.  0.
         24    2    4    4    0    0  0.23522398294E+03  0.35521467187E+02  0.16384977257E+03  0.29975234997E+03  0.80078877141E+02 0.  0.
         13    1    3    3    0    0  0.17795933022E+03  0.63096499397E+03  0.21720137621E+03  0.69062492328E+03  0.00000000000E+00 0.  1.
        -13    1    3    3    0    0  0.86534053453E-01  0.75787276632E+02  0.50414322172E+02  0.91023747821E+02  0.00000000000E+00 0. -1.
          4    1    6    6  502    0  0.22521406192E+03  0.12103162404E+02  0.14739470981E+03  0.26943099433E+03  0.00000000000E+00 0. -1.
          3    1    5    5  503    0 -0.35036352991E+03 -0.61727944389E+03 -0.96810594566E+02  0.71635243153E+03  0.00000000000E+00 0. -1.
         -4    1    5    5    0  503 -0.62906317304E+02 -0.12499429390E+03 -0.55044536935E+02  0.15036847845E+03  0.00000000000E+00 0.  1.
         -3    1    6    6    0  502  0.10009921020E+02  0.23418304783E+02  0.16455062755E+02  0.30321355642E+02  0.00000000000E+00 0.  1.
<mgrwt>
<rscale>  0 0.19279515E+04</rscale>
<asrwt>0</asrwt>
<pdfrwt beam="1">  1        1 0.17136402E+00 0.19279515E+04</pdfrwt>
<pdfrwt beam="2">  1       -1 0.12834705E+00 0.19279515E+04</pdfrwt>
<totfact> 0.60521903E+00</totfact>
</mgrwt>
</event>
<event>
12    1  0.1798943E-007  0.2002434E+04  0.7818608E-02  0.8605484E-01
          2   -1    0    0  501    0  0.00000000000E+00  0.00000000000E+00  0.31158439788E+04  0.31158439788E+04  0.00000000000E+00 0. -1.
         -2   -1    0    0    0  501 -0.00000000000E+00 -0.00000000000E+00 -0.32172183339E+03  0.32172183339E+03  0.00000000000E+00 0.  1.
         23    2    1    2    0    0  0.73406624927E+02 -0.75703723230E+03  0.72013779856E+03  0.10512593541E+04  0.89743395542E+02 0.  0.
        254    2    1    2    0    0 -0.73406624927E+02  0.75703723230E+03  0.20739843469E+04  0.23863064581E+04  0.90252619750E+03 0.  0.
        -24    2    4    4    0    0 -0.42009656711E+03  0.51744366918E+03  0.81187891110E+03  0.10533106594E+04  0.78018602921E+02 0.  0.
         24    2    4    4    0    0  0.34668994219E+03  0.23959356312E+03  0.12621054358E+04  0.13329957987E+04  0.79803990306E+02 0.  0.
         13    1    3    3    0    0  0.73127415134E+02 -0.74606041948E+03  0.68873787918E+03  0.10179949089E+04  0.00000000000E+00 0.  1.
        -13    1    3    3    0    0  0.27920979325E+00 -0.10976812821E+02  0.31399919389E+02  0.33264445215E+02  0.00000000000E+00 0. -1.
          4    1    6    6  502    0  0.38462429851E+02  0.68973176452E+01  0.73791561532E+02  0.83499257805E+02  0.00000000000E+00 0. -1.
          1    1    5    5  503    0 -0.97082143271E+01  0.32164190388E-01  0.19695662993E+02  0.21958360610E+02  0.00000000000E+00 0. -1.
         -2    1    5    5    0  503 -0.41038835279E+03  0.51741150499E+03  0.79218324811E+03  0.10313522988E+04  0.00000000000E+00 0.  1.
         -3    1    6    6    0  502  0.30822751234E+03  0.23269624547E+03  0.11883138742E+04  0.12494965409E+04  0.00000000000E+00 0.  1.
<mgrwt>
<rscale>  0 0.20024336E+04</rscale>
<asrwt>0</asrwt>
<pdfrwt beam="1">  1        2 0.47936059E+00 0.20024336E+04</pdfrwt>
<pdfrwt beam="2">  1       -2 0.49495669E-01 0.20024336E+04</pdfrwt>
<totfact> 0.52913909E+00</totfact>
</mgrwt>
</event>
<event>
12    1  0.1489233E-007  0.1765492E+04  0.7818608E-02  0.8724869E-01
         -3   -1    0    0    0  501 -0.00000000000E+00  0.00000000000E+00  0.26010083651E+04  0.26010083651E+04  0.00000000000E+00 0.  1.
          3   -1    0    0  501    0  0.00000000000E+00 -0.00000000000E+00 -0.29959152919E+03  0.29959152919E+03  0.00000000000E+00 0. -1.
         23    2    1    2    0    0  0.42758576242E+03  0.27590856256E+03  0.15230765075E+04  0.16083392402E+04  0.89654585555E+02 0.  0.
        254    2    1    2    0    0 -0.42758576242E+03 -0.27590856256E+03  0.77834032841E+03  0.12922606541E+04  0.89731199268E+03 0.  0.
        -24    2    4    4    0    0 -0.11286153735E+03 -0.32567083784E+03 -0.87678457922E+02  0.36585353722E+03  0.85802549381E+02 0.  0.
         24    2    4    4    0    0 -0.31472422507E+03  0.49762275286E+02  0.86601878633E+03  0.92640711688E+03  0.81938916528E+02 0.  0.
         13    1    3    3    0    0  0.35148209599E+03  0.26265326008E+03  0.12640596487E+04  0.13380482780E+04  0.00000000000E+00 0.  1.
        -13    1    3    3    0    0  0.76103666432E+02  0.13255302473E+02  0.25901685884E+03  0.27029096221E+03  0.00000000000E+00 0. -1.
          4    1    6    6  502    0 -0.29053921224E+03  0.21615534255E+02  0.75008164997E+03  0.80467555375E+03  0.00000000000E+00 0. -1.
          3    1    5    5  503    0 -0.92019838271E+02 -0.31130703585E+03 -0.63350931891E+02  0.33074621960E+03  0.00000000000E+00 0. -1.
         -4    1    5    5    0  503 -0.20841699076E+02 -0.14363801992E+02 -0.24327526031E+02  0.35107317625E+02  0.00000000000E+00 0.  1.
         -1    1    6    6    0  502 -0.24185012828E+02  0.28146741032E+02  0.11593713636E+03  0.12173156314E+03  0.00000000000E+00 0.  1.
<mgrwt>
<rscale>  0 0.17654915E+04</rscale>
<asrwt>0</asrwt>
<pdfrwt beam="1">  1        3 0.46091006E-01 0.17654915E+04</pdfrwt>
<pdfrwt beam="2">  1       -3 0.40015512E+00 0.17654915E+04</pdfrwt>
<totfact> 0.12316829E-01</totfact>
</mgrwt>
</event>
<event>
12    1  0.1721584E-007  0.1456719E+04  0.7818608E-02  0.8913756E-01
         -2   -1    0    0    0  501 -0.00000000000E+00  0.00000000000E+00  0.42738254112E+03  0.42738254112E+03  0.00000000000E+00 0.  1.
          2   -1    0    0  501    0  0.00000000000E+00 -0.00000000000E+00 -0.12412944881E+04  0.12412944881E+04  0.00000000000E+00 0. -1.
         23    2    1    2    0    0 -0.34683131658E+02  0.41644409827E+03 -0.88543636680E+02  0.43681259561E+03  0.91305320097E+02 0.  0.
        254    2    1    2    0    0  0.34683131658E+02 -0.41644409827E+03 -0.72536831028E+03  0.12318644336E+04  0.90371576869E+03 0.  0.
        -24    2    4    4    0    0 -0.32761159057E+03 -0.42499995935E+03 -0.66119895424E+03  0.85517002366E+03  0.78596390203E+02 0.  0.
         24    2    4    4    0    0  0.36229472223E+03  0.85558610729E+01 -0.64169356039E+02  0.37669440994E+03  0.80313782818E+02 0.  0.
         11    1    3    3    0    0 -0.10272431191E+02  0.30523264351E+02 -0.33071662280E+02  0.46161968710E+02  0.00000000000E+00 0. -1.
        -11    1    3    3    0    0 -0.24410700466E+02  0.38592083392E+03 -0.55471974400E+02  0.39065062690E+03  0.00000000000E+00 0.  1.
          4    1    6    6  502    0  0.47722992351E+02  0.18243647818E+01  0.18752162011E+02  0.51307464232E+02  0.00000000000E+00 0. -1.
          3    1    5    5  503    0  0.14702105694E+01 -0.14452735250E+02 -0.30731447425E+02  0.33992130504E+02  0.00000000000E+00 0. -1.
         -4    1    5    5    0  503 -0.32908180114E+03 -0.41054722410E+03 -0.63046750681E+03  0.82117789315E+03  0.00000000000E+00 0.  1.
         -3    1    6    6    0  502  0.31457172987E+03  0.67314962911E+01 -0.82921518050E+02  0.32538694570E+03  0.00000000000E+00 0.  1.
<mgrwt>
<rscale>  0 0.14567190E+04</rscale>
<asrwt>0</asrwt>
<pdfrwt beam="1">  1        2 0.19096838E+00 0.14567190E+04</pdfrwt>
<pdfrwt beam="2">  1       -2 0.65751161E-01 0.14567190E+04</pdfrwt>
<totfact> 0.36950363E+01</totfact>
</mgrwt>
</event>
<event>
12    1  0.1489233E-007  0.1265184E+04  0.7818608E-02  0.9057639E-01
         -2   -1    0    0    0  501 -0.00000000000E+00  0.00000000000E+00  0.48278877433E+03  0.48278877433E+03  0.00000000000E+00 0.  1.
          2   -1    0    0  501    0  0.00000000000E+00 -0.00000000000E+00 -0.82887780797E+03  0.82887780797E+03  0.00000000000E+00 0. -1.
         23    2    1    2    0    0  0.29455951510E+03  0.30966649460E+02 -0.24863649610E+02  0.31229188002E+03  0.95832019378E+02 0.  0.
        254    2    1    2    0    0 -0.29455951510E+03 -0.30966649460E+02 -0.32122538403E+03  0.99937470228E+03  0.89879909151E+03 0.  0.
        -24    2    4    4    0    0 -0.35885920115E+03 -0.39938078743E+02  0.23198159019E+03  0.43663892994E+03  0.80393535630E+02 0.  0.
         24    2    4    4    0    0  0.64299686046E+02  0.89714292833E+01 -0.55320697422E+03  0.56273577234E+03  0.80116521257E+02 0.  0.
         13    1    3    3    0    0  0.27795219189E+03  0.49194792845E+01 -0.10420118024E+02  0.27819094362E+03  0.00000000000E+00 0.  1.
        -13    1    3    3    0    0  0.16607323207E+02  0.26047170175E+02 -0.14443531586E+02  0.34100936394E+02  0.00000000000E+00 0. -1.
          4    1    6    6  502    0  0.82629725145E+02  0.10339083168E+02 -0.41147926401E+03  0.41982109622E+03  0.00000000000E+00 0. -1.
          1    1    5    5  503    0 -0.35692417003E+03 -0.28871647897E+02  0.22886778468E+03  0.42498105613E+03  0.00000000000E+00 0. -1.
         -2    1    5    5    0  503 -0.19350311174E+01 -0.11066430846E+02  0.31138055149E+01  0.11657873815E+02  0.00000000000E+00 0.  1.
         -3    1    6    6    0  502 -0.18330039099E+02 -0.13676538848E+01 -0.14172771021E+03  0.14291467612E+03  0.00000000000E+00 0.  1.
<mgrwt>
<rscale>  0 0.12651844E+04</rscale>
<asrwt>0</asrwt>
<pdfrwt beam="1">  1        2 0.12751966E+00 0.12651844E+04</pdfrwt>
<pdfrwt beam="2">  1       -2 0.74275197E-01 0.12651844E+04</pdfrwt>
<totfact> 0.52671101E+01</totfact>
</mgrwt>
</event>
<event>
12    1  0.1489233E-007  0.1640366E+04  0.7818608E-02  0.8796126E-01
         -1   -1    0    0    0  501 -0.00000000000E+00  0.00000000000E+00  0.12484129904E+04  0.12484129904E+04  0.00000000000E+00 0.  1.
          1   -1    0    0  501    0  0.00000000000E+00 -0.00000000000E+00 -0.53884419629E+03  0.53884419629E+03  0.00000000000E+00 0. -1.
         23    2    1    2    0    0  0.47593180429E+02  0.98879909082E+02 -0.36513213872E+03  0.39066130546E+03  0.85161197820E+02 0.  0.
        254    2    1    2    0    0 -0.47593180429E+02 -0.98879909082E+02  0.10747009329E+04  0.13965958813E+04  0.88513028038E+03 0.  0.
        -24    2    4    4    0    0  0.27141747957E+02 -0.47499037638E+03  0.72956202915E+03  0.87448000838E+03  0.78115290010E+02 0.  0.
         24    2    4    4    0    0 -0.74734928386E+02  0.37611046730E+03  0.34513890371E+03  0.52211587290E+03  0.80247920481E+02 0.  0.
         13    1    3    3    0    0  0.34101153498E+02  0.40145051090E+02 -0.60905875839E+02  0.80523533880E+02  0.00000000000E+00 0. -1.
        -13    1    3    3    0    0  0.13492026932E+02  0.58734857993E+02 -0.30422626288E+03  0.31013777158E+03  0.00000000000E+00 0.  1.
          2    1    6    6  502    0  0.13922222302E+02  0.90247937687E+02  0.98241097676E+02  0.13412617866E+03  0.00000000000E+00 0. -1.
          1    1    5    5  503    0 -0.30375967149E+01 -0.44494354382E+02  0.34677566004E+02  0.56493434571E+02  0.00000000000E+00 0. -1.
         -2    1    5    5    0  503  0.30179344672E+02 -0.43049602200E+03  0.69488446315E+03  0.81798657381E+03  0.00000000000E+00 0.  1.
         -1    1    6    6    0  502 -0.88657150688E+02  0.28586252961E+03  0.24689780604E+03  0.38798969423E+03  0.00000000000E+00 0.  1.
<mgrwt>
<rscale>  0 0.16403659E+04</rscale>
<asrwt>0</asrwt>
<pdfrwt beam="1">  1        1 0.82899107E-01 0.16403659E+04</pdfrwt>
<pdfrwt beam="2">  1       -1 0.19206354E+00 0.16403659E+04</pdfrwt>
<totfact> 0.65251910E+00</totfact>
</mgrwt>
</event>
<event>
12    1  0.1489233E-007  0.1759029E+04  0.7818608E-02  0.8728396E-01
         -1   -1    0    0    0  501 -0.00000000000E+00  0.00000000000E+00  0.46063913323E+03  0.46063913323E+03  0.00000000000E+00 0.  1.
          1   -1    0    0  501    0  0.00000000000E+00 -0.00000000000E+00 -0.16792870183E+04  0.16792870183E+04  0.00000000000E+00 0. -1.
         23    2    1    2    0    0 -0.16526838878E+03 -0.57706427446E+03 -0.76382087844E+03  0.97575740078E+03  0.91451373137E+02 0.  0.
        254    2    1    2    0    0  0.16526838878E+03  0.57706427446E+03 -0.45482700663E+03  0.11641687507E+04  0.88775247511E+03 0.  0.
        -24    2    4    4    0    0  0.16697932905E+03  0.60767564940E+03  0.63412166094E+02  0.63852580200E+03  0.80884521442E+02 0.  0.
         24    2    4    4    0    0 -0.17109402650E+01 -0.30611374941E+02 -0.51823917272E+03  0.52564294874E+03  0.82393481688E+02 0.  0.
         13    1    3    3    0    0 -0.88416091738E+01 -0.18265537930E+03 -0.23407793507E+03  0.29704148082E+03  0.00000000000E+00 0.  1.
        -13    1    3    3    0    0 -0.15642677961E+03 -0.39440889516E+03 -0.52974294337E+03  0.67871591996E+03  0.00000000000E+00 0. -1.
          2    1    6    6  502    0  0.23045113867E+02  0.17741205187E+02 -0.26812990342E+03  0.26970256347E+03  0.00000000000E+00 0. -1.
          1    1    5    5  503    0  0.16836679365E+03  0.50308307363E+03  0.59706189074E+02  0.53385839433E+03  0.00000000000E+00 0. -1.
         -2    1    5    5    0  503 -0.13874645983E+01  0.10459257577E+03  0.37059770202E+01  0.10466740768E+03  0.00000000000E+00 0.  1.
         -1    1    6    6    0  502 -0.24756054132E+02 -0.48352580128E+02 -0.25010926930E+03  0.25594038527E+03  0.00000000000E+00 0.  1.
<mgrwt>
<rscale>  0 0.17590285E+04</rscale>
<asrwt>0</asrwt>
<pdfrwt beam="1">  1        1 0.25835185E+00 0.17590285E+04</pdfrwt>
<pdfrwt beam="2">  1       -1 0.70867557E-01 0.17590285E+04</pdfrwt>
<totfact> 0.93779496E+00</totfact>
</mgrwt>
</event>
<event>
12    1  0.1489233E-007  0.1541028E+04  0.7818608E-02  0.8857619E-01
         -1   -1    0    0    0  501 -0.00000000000E+00  0.00000000000E+00  0.29567645397E+03  0.29567645397E+03  0.00000000000E+00 0.  1.
          1   -1    0    0  501    0  0.00000000000E+00 -0.00000000000E+00 -0.20079099949E+04  0.20079099949E+04  0.00000000000E+00 0. -1.
         23    2    1    2    0    0 -0.12641033538E+03  0.25600005082E+03  0.54679734632E+02  0.30475674726E+03  0.91494276939E+02 0.  0.
        254    2    1    2    0    0  0.12641033538E+03 -0.25600005082E+03 -0.17669132756E+04  0.19988297016E+04  0.88984383673E+03 0.  0.
        -24    2    4    4    0    0  0.47658351736E+03 -0.27016672621E+03 -0.12713510796E+04  0.13866721313E+04  0.80025765072E+02 0.  0.
         24    2    4    4    0    0 -0.35017318199E+03  0.14166675396E+02 -0.49556219593E+03  0.61215757030E+03  0.79580454720E+02 0.  0.
         11    1    3    3    0    0 -0.63258021343E+02  0.21457374191E+03  0.32589344425E+02  0.22606532983E+03  0.00000000000E+00 0.  1.
        -11    1    3    3    0    0 -0.63152314035E+02  0.41426308909E+02  0.22090390207E+02  0.78691417431E+02  0.00000000000E+00 0. -1.
          2    1    6    6  502    0 -0.30229572404E+03  0.74182490190E+01 -0.46591610088E+03  0.55544175954E+03  0.00000000000E+00 0. -1.
          3    1    5    5  503    0  0.44411653286E+03 -0.27196745151E+03 -0.11841772054E+04  0.12936311078E+04  0.00000000000E+00 0. -1.
         -4    1    5    5    0  503  0.32466984504E+02  0.18007252925E+01 -0.87173874250E+02  0.93041023458E+02  0.00000000000E+00 0.  1.
         -1    1    6    6    0  502 -0.47877457950E+02  0.67484263767E+01 -0.29646095049E+02  0.56715810758E+02  0.00000000000E+00 0.  1.
<mgrwt>
<rscale>  0 0.15410278E+04</rscale>
<asrwt>0</asrwt>
<pdfrwt beam="1">  1        1 0.30890923E+00 0.15410278E+04</pdfrwt>
<pdfrwt beam="2">  1       -1 0.45488685E-01 0.15410278E+04</pdfrwt>
<totfact> 0.13627432E+01</totfact>
</mgrwt>
</event>
<event>
12    1  0.1489233E-007  0.2192054E+04  0.7818608E-02  0.8521743E-01
         -2   -1    0    0    0  501 -0.00000000000E+00  0.00000000000E+00  0.57593651703E+03  0.57593651703E+03  0.00000000000E+00 0.  1.
          2   -1    0    0  501    0  0.00000000000E+00 -0.00000000000E+00 -0.20857764513E+04  0.20857764513E+04  0.00000000000E+00 0. -1.
         23    2    1    2    0    0  0.81486734500E+03  0.36846040808E+03 -0.43070037377E+03  0.99676977206E+03  0.90968699392E+02 0.  0.
        254    2    1    2    0    0 -0.81486734500E+03 -0.36846040808E+03 -0.10791395605E+04  0.16649431962E+04  0.89873343846E+03 0.  0.
        -24    2    4    4    0    0 -0.11867890275E+03 -0.14834698944E+03 -0.88014392444E+03  0.90385196119E+03  0.78762483434E+02 0.  0.
         24    2    4    4    0    0 -0.69618844225E+03 -0.22011341864E+03 -0.19899563603E+03  0.76109123502E+03  0.80822897041E+02 0.  0.
         11    1    3    3    0    0  0.74334017347E+03  0.32354676147E+03 -0.41541920727E+03  0.91093920660E+03  0.00000000000E+00 0. -1.
        -11    1    3    3    0    0  0.71527171534E+02  0.44913646603E+02 -0.15281166502E+02  0.85830565467E+02  0.00000000000E+00 0.  1.
          4    1    6    6  502    0 -0.12555120561E+03 -0.91502887463E+01 -0.42993596470E+02  0.13302361576E+03  0.00000000000E+00 0. -1.
          1    1    5    5  503    0 -0.62857502614E+01  0.43816324660E+01 -0.12600709355E+03  0.12623983913E+03  0.00000000000E+00 0. -1.
         -2    1    5    5    0  503 -0.11239315249E+03 -0.15272862190E+03 -0.75413683089E+03  0.77761212206E+03  0.00000000000E+00 0.  1.
         -3    1    6    6    0  502 -0.57063723664E+03 -0.21096312989E+03 -0.15600203956E+03  0.62806761926E+03  0.00000000000E+00 0.  1.
<mgrwt>
<rscale>  0 0.21920537E+04</rscale>
<asrwt>0</asrwt>
<pdfrwt beam="1">  1        2 0.32088869E+00 0.21920537E+04</pdfrwt>
<pdfrwt beam="2">  1       -2 0.88605616E-01 0.21920537E+04</pdfrwt>
<totfact> 0.59958936E+00</totfact>
</mgrwt>
</event>
<event>
12    1  0.1489233E-007  0.1400014E+04  0.7818608E-02  0.8953808E-01
         -2   -1    0    0    0  501 -0.00000000000E+00  0.00000000000E+00  0.36608270380E+03  0.36608270380E+03  0.00000000000E+00 0.  1.
          2   -1    0    0  501    0  0.00000000000E+00 -0.00000000000E+00 -0.13385220491E+04  0.13385220491E+04  0.00000000000E+00 0. -1.
         23    2    1    2    0    0 -0.90575305394E+02 -0.26518192896E+03 -0.64323629912E+03  0.70644239126E+03  0.82356385726E+02 0.  0.
        254    2    1    2    0    0  0.90575305394E+02  0.26518192896E+03 -0.32920304623E+03  0.99816236168E+03  0.89968222903E+03 0.  0.
        -24    2    4    4    0    0  0.28701160011E+03  0.46100079036E+03  0.13744232488E+02  0.55007854680E+03  0.86603212497E+02 0.  0.
         24    2    4    4    0    0 -0.19643629471E+03 -0.19581886139E+03 -0.34294727871E+03  0.44808381488E+03  0.78955840992E+02 0.  0.
         11    1    3    3    0    0 -0.87550930694E+02 -0.26755351184E+03 -0.59697937240E+03  0.66002607391E+03  0.00000000000E+00 0. -1.
        -11    1    3    3    0    0 -0.30243746997E+01  0.23715828707E+01 -0.46256926715E+02  0.46416317354E+02  0.00000000000E+00 0.  1.
          2    1    6    6  502    0 -0.29498881756E+02 -0.66433702258E+02 -0.55853846252E+02  0.91669367630E+02  0.00000000000E+00 0. -1.
          1    1    5    5  503    0  0.98973990159E+02  0.23667311238E+03 -0.70106501609E+01  0.25663039974E+03  0.00000000000E+00 0. -1.
         -2    1    5    5    0  503  0.18803760995E+03  0.22432767797E+03  0.20754882649E+02  0.29344814706E+03  0.00000000000E+00 0.  1.
         -1    1    6    6    0  502 -0.16693741296E+03 -0.12938515913E+03 -0.28709343246E+03  0.35641444725E+03  0.00000000000E+00 0.  1.
<mgrwt>
<rscale>  0 0.14000140E+04</rscale>
<asrwt>0</asrwt>
<pdfrwt beam="1">  1        2 0.20592646E+00 0.14000140E+04</pdfrwt>
<pdfrwt beam="2">  1       -2 0.56320417E-01 0.14000140E+04</pdfrwt>
<totfact> 0.45208188E+01</totfact>
</mgrwt>
</event>
<event>
12    1  0.1489233E-007  0.2877761E+04  0.7818608E-02  0.8279525E-01
          1   -1    0    0  501    0  0.00000000000E+00  0.00000000000E+00  0.10719024488E+04  0.10719024488E+04  0.00000000000E+00 0. -1.
         -1   -1    0    0    0  501 -0.00000000000E+00 -0.00000000000E+00 -0.19314977391E+04  0.19314977391E+04  0.00000000000E+00 0.  1.
         23    2    1    2    0    0 -0.88799264215E+03 -0.47562592029E+03  0.46012481934E+03  0.11110648176E+04  0.89438420352E+02 0.  0.
        254    2    1    2    0    0  0.88799264215E+03  0.47562592029E+03 -0.13197201096E+04  0.18923353703E+04  0.90803140762E+03 0.  0.
        -24    2    4    4    0    0 -0.42725592675E+02 -0.14983758692E+03 -0.23167388826E+02  0.17635436292E+03  0.79292841368E+02 0.  0.
         24    2    4    4    0    0  0.93071823483E+03  0.62546350721E+03 -0.12965527208E+04  0.17159810073E+04  0.78107798930E+02 0.  0.
         13    1    3    3    0    0 -0.51657349965E+03 -0.28162930715E+03  0.31663221781E+03  0.66814609820E+03  0.00000000000E+00 0.  1.
        -13    1    3    3    0    0 -0.37141914251E+03 -0.19399661314E+03  0.14349260153E+03  0.44291871943E+03  0.00000000000E+00 0. -1.
          4    1    6    6  502    0  0.18698868236E+03  0.14275917437E+03 -0.31681141559E+03  0.39460666777E+03  0.00000000000E+00 0. -1.
          1    1    5    5  503    0  0.10642285218E+01 -0.17676896121E+02 -0.32292225839E+02  0.36829242301E+02  0.00000000000E+00 0. -1.
         -2    1    5    5    0  503 -0.43789821197E+02 -0.13216069080E+03  0.91248370134E+01  0.13952512062E+03  0.00000000000E+00 0.  1.
         -3    1    6    6    0  502  0.74372955246E+03  0.48270433284E+03 -0.97974130521E+03  0.13213743396E+04  0.00000000000E+00 0.  1.
<mgrwt>
<rscale>  0 0.28777610E+04</rscale>
<asrwt>0</asrwt>
<pdfrwt beam="1">  1        1 0.16490807E+00 0.28777610E+04</pdfrwt>
<pdfrwt beam="2">  1       -1 0.29715350E+00 0.28777610E+04</pdfrwt>
<totfact> 0.39456711E-01</totfact>
</mgrwt>
</event>
<event>
12    1  0.1489233E-007  0.2225229E+04  0.7818608E-02  0.8508000E-01
         -1   -1    0    0    0  501 -0.00000000000E+00  0.00000000000E+00  0.95473583716E+03  0.95473583716E+03  0.00000000000E+00 0.  1.
          1   -1    0    0  501    0  0.00000000000E+00 -0.00000000000E+00 -0.12966003266E+04  0.12966003266E+04  0.00000000000E+00 0. -1.
         23    2    1    2    0    0 -0.60676925010E+03  0.67832555738E+03 -0.28525973364E+03  0.95830055867E+03  0.93125509043E+02 0.  0.
        254    2    1    2    0    0  0.60676925010E+03 -0.67832555738E+03 -0.56604755763E+02  0.12930356051E+04  0.91675650687E+03 0.  0.
        -24    2    4    4    0    0  0.62052614945E+03 -0.83790493028E+03  0.10420516237E+03  0.10508138868E+04  0.78827244892E+02 0.  0.
         24    2    4    4    0    0 -0.13756899345E+02  0.15957937290E+03 -0.16080991813E+03  0.24222171823E+03  0.84597295925E+02 0.  0.
         11    1    3    3    0    0 -0.20168092335E+03  0.16627981899E+03 -0.96820283336E+02  0.27874422023E+03  0.00000000000E+00 0.  1.
        -11    1    3    3    0    0 -0.40508832676E+03  0.51204573839E+03 -0.18843945030E+03  0.67955633844E+03  0.00000000000E+00 0. -1.
          2    1    6    6  502    0 -0.32105875437E+02  0.27911506186E+02 -0.67555880514E+02  0.79835057507E+02  0.00000000000E+00 0. -1.
          1    1    5    5  503    0  0.17329563198E+03 -0.24147270922E+03  0.65333012396E+02  0.30431701870E+03  0.00000000000E+00 0. -1.
         -2    1    5    5    0  503  0.44723051747E+03 -0.59643222106E+03  0.38872149976E+02  0.74649686812E+03  0.00000000000E+00 0.  1.
         -1    1    6    6    0  502  0.18348976092E+02  0.13166786671E+03 -0.93254037621E+02  0.16238666072E+03  0.00000000000E+00 0.  1.
<mgrwt>
<rscale>  0 0.22252288E+04</rscale>
<asrwt>0</asrwt>
<pdfrwt beam="1">  1        1 0.19947697E+00 0.22252288E+04</pdfrwt>
<pdfrwt beam="2">  1       -1 0.14688244E+00 0.22252288E+04</pdfrwt>
<totfact> 0.30551166E+00</totfact>
</mgrwt>
</event>
<event>
12    1  0.1489233E-007  0.2255712E+04  0.7818608E-02  0.8495591E-01
         -2   -1    0    0    0  501 -0.00000000000E+00  0.00000000000E+00  0.11218567442E+04  0.11218567442E+04  0.00000000000E+00 0.  1.
          2   -1    0    0  501    0  0.00000000000E+00 -0.00000000000E+00 -0.11338875365E+04  0.11338875365E+04  0.00000000000E+00 0. -1.
         23    2    1    2    0    0  0.78070239024E+03  0.55767379136E+03  0.13818470014E+02  0.96357910932E+03  0.88303284833E+02 0.  0.
        254    2    1    2    0    0 -0.78070239024E+03 -0.55767379136E+03 -0.25849262250E+02  0.12921651713E+04  0.86517418245E+03 0.  0.
        -24    2    4    4    0    0 -0.14153630442E+03 -0.46173478260E+02  0.34977701886E+03  0.38786154224E+03  0.76994139123E+02 0.  0.
         24    2    4    4    0    0 -0.63916608582E+03 -0.51150031310E+03 -0.37562628111E+03  0.90430362911E+03  0.80647969521E+02 0.  0.
         13    1    3    3    0    0  0.58400106498E+03  0.45020980584E+03  0.36483844476E+02  0.73829342681E+03  0.00000000000E+00 0. -1.
        -13    1    3    3    0    0  0.19670132526E+03  0.10746398552E+03 -0.22665374461E+02  0.22528568251E+03  0.00000000000E+00 0.  1.
          4    1    6    6  502    0 -0.67216916387E+02 -0.31804604804E+02 -0.51713674110E+02  0.90575663538E+02  0.00000000000E+00 0. -1.
          3    1    5    5  503    0 -0.77280318292E+02  0.93821565761E+01  0.12157526061E+03  0.14436348725E+03  0.00000000000E+00 0. -1.
         -4    1    5    5    0  503 -0.64255986126E+02 -0.55555634836E+02  0.22820175825E+03  0.24349805499E+03  0.00000000000E+00 0.  1.
         -3    1    6    6    0  502 -0.57194916943E+03 -0.47969570830E+03 -0.32391260700E+03  0.81372796557E+03  0.00000000000E+00 0.  1.
<mgrwt>
<rscale>  0 0.22557122E+04</rscale>
<asrwt>0</asrwt>
<pdfrwt beam="1">  1        2 0.17444424E+00 0.22557122E+04</pdfrwt>
<pdfrwt beam="2">  1       -2 0.17259335E+00 0.22557122E+04</pdfrwt>
<totfact> 0.38601604E+00</totfact>
</mgrwt>
</event>
<event>
12    1  0.1489233E-007  0.1544379E+04  0.7818608E-02  0.8855466E-01
          1   -1    0    0  501    0  0.00000000000E+00  0.00000000000E+00  0.19345778727E+04  0.19345778727E+04  0.00000000000E+00 0. -1.
         -1   -1    0    0    0  501 -0.00000000000E+00 -0.00000000000E+00 -0.30822041509E+03  0.30822041509E+03  0.00000000000E+00 0.  1.
         23    2    1    2    0    0  0.55851671726E+02  0.82274545436E+02 -0.17472178085E+03  0.22006791320E+03  0.89519135708E+02 0.  0.
        254    2    1    2    0    0 -0.55851671726E+02 -0.82274545436E+02  0.18010792385E+04  0.20227303746E+04  0.91523944134E+03 0.  0.
        -24    2    4    4    0    0  0.13582108940E+03  0.36893787590E+03  0.10323578445E+04  0.11075812916E+04  0.80069181452E+02 0.  0.
         24    2    4    4    0    0 -0.19167276112E+03 -0.45121242134E+03  0.76872139397E+03  0.91514908299E+03  0.78956735068E+02 0.  0.
         13    1    3    3    0    0  0.48424874867E+02  0.55956079381E+02 -0.43103030485E+02  0.85638324146E+02  0.00000000000E+00 0. -1.
        -13    1    3    3    0    0  0.74267968582E+01  0.26318466055E+02 -0.13161875036E+03  0.13442958906E+03  0.00000000000E+00 0.  1.
          4    1    6    6  502    0 -0.33611116486E+02 -0.26740434850E+02  0.80694021776E+02  0.91412707857E+02  0.00000000000E+00 0. -1.
          3    1    5    5  503    0  0.56601702745E+01  0.11990517695E+03  0.32437564610E+03  0.34587403599E+03  0.00000000000E+00 0. -1.
         -4    1    5    5    0  503  0.13016091912E+03  0.24903269895E+03  0.70798219838E+03  0.76170725561E+03  0.00000000000E+00 0.  1.
         -3    1    6    6    0  502 -0.15806164464E+03 -0.42447198649E+03  0.68802737220E+03  0.82373637513E+03  0.00000000000E+00 0.  1.
<mgrwt>
<rscale>  0 0.15443787E+04</rscale>
<asrwt>0</asrwt>
<pdfrwt beam="1">  1        1 0.29762736E+00 0.15443787E+04</pdfrwt>
<pdfrwt beam="2">  1       -1 0.47418526E-01 0.15443787E+04</pdfrwt>
<totfact> 0.14127284E+01</totfact>
</mgrwt>
</event>
<event>
12    1  0.1489233E-007  0.3141503E+04  0.7818608E-02  0.8204439E-01
          2   -1    0    0  501    0  0.00000000000E+00  0.00000000000E+00  0.24158917033E+04  0.24158917033E+04  0.00000000000E+00 0.  1.
         -2   -1    0    0    0  501 -0.00000000000E+00 -0.00000000000E+00 -0.10212627511E+04  0.10212627511E+04  0.00000000000E+00 0. -1.
         23    2    1    2    0    0 -0.11094740466E+04 -0.25026931472E+03 -0.32555902762E+03  0.11864832103E+04  0.90478383425E+02 0.  0.
        254    2    1    2    0    0  0.11094740466E+04  0.25026931472E+03  0.17201879799E+04  0.22506712441E+04  0.90161353860E+03 0.  0.
        -24    2    4    4    0    0  0.95031932923E+03 -0.18856811211E+03  0.10664755465E+04  0.14430701568E+04  0.80103843100E+02 0.  0.
         24    2    4    4    0    0  0.15915471737E+03  0.43883742684E+03  0.65371243334E+03  0.80760108731E+03  0.83492870762E+02 0.  0.
         11    1    3    3    0    0 -0.53749233497E+02 -0.31641238202E+02 -0.25491558391E+02  0.67379281724E+02  0.00000000000E+00 0.  1.
        -11    1    3    3    0    0 -0.10557248131E+04 -0.21862807652E+03 -0.30006746922E+03  0.11191039286E+04  0.00000000000E+00 0. -1.
          2    1    6    6  502    0  0.34705585650E+02  0.29199601052E+02  0.50173163957E+02  0.67634612133E+02  0.00000000000E+00 0. -1.
          3    1    5    5  503    0  0.22661460878E+03 -0.47212012416E+02  0.30734820144E+03  0.38476755575E+03  0.00000000000E+00 0. -1.
         -4    1    5    5    0  503  0.72370472044E+03 -0.14135609970E+03  0.75912734511E+03  0.10583026011E+04  0.00000000000E+00 0.  1.
         -1    1    6    6    0  502  0.12444913172E+03  0.40963782578E+03  0.60353926939E+03  0.73996647518E+03  0.00000000000E+00 0.  1.
<mgrwt>
<rscale>  0 0.31415030E+04</rscale>
<asrwt>0</asrwt>
<pdfrwt beam="1">  1        2 0.37167564E+00 0.31415030E+04</pdfrwt>
<pdfrwt beam="2">  1       -2 0.15711735E+00 0.31415030E+04</pdfrwt>
<totfact> 0.87158957E-01</totfact>
</mgrwt>
</event>
<event>
12    1  0.1489233E-007  0.1740360E+04  0.7818608E-02  0.8738675E-01
          1   -1    0    0  501    0  0.00000000000E+00  0.00000000000E+00  0.60320889996E+03  0.60320889996E+03  0.00000000000E+00 0. -1.
         -1   -1    0    0    0  501 -0.00000000000E+00 -0.00000000000E+00 -0.12553081588E+04  0.12553081588E+04  0.00000000000E+00 0.  1.
         23    2    1    2    0    0  0.34794967398E+03  0.40823893371E+03  0.11969687364E+03  0.55708195827E+03  0.91021777933E+02 0.  0.
        254    2    1    2    0    0 -0.34794967398E+03 -0.40823893371E+03 -0.77179613247E+03  0.13014351005E+04  0.90018667399E+03 0.  0.
        -24    2    4    4    0    0 -0.62315447882E+03 -0.21524014162E+03 -0.33208530215E+03  0.74247461440E+03  0.79612072449E+02 0.  0.
         24    2    4    4    0    0  0.27520480485E+03 -0.19299879209E+03 -0.43971083033E+03  0.55896048608E+03  0.78134450353E+02 0.  0.
         13    1    3    3    0    0  0.26779579553E+03  0.31513885336E+03  0.13076035387E+03  0.43373419872E+03  0.00000000000E+00 0. -1.
        -13    1    3    3    0    0  0.80153878453E+02  0.93100080346E+02 -0.11063480223E+02  0.12334775955E+03  0.00000000000E+00 0.  1.
          2    1    6    6  502    0  0.93221532620E+02 -0.82184777119E+02 -0.22148189590E+03  0.25396618268E+03  0.00000000000E+00 0. -1.
          1    1    5    5  503    0 -0.43913965489E+03 -0.12514760605E+03 -0.25887634326E+03  0.52490239178E+03  0.00000000000E+00 0. -1.
         -2    1    5    5    0  503 -0.18401482393E+03 -0.90092535573E+02 -0.73208958884E+02  0.21757222262E+03  0.00000000000E+00 0.  1.
         -1    1    6    6    0  502  0.18198327222E+03 -0.11081401497E+03 -0.21822893443E+03  0.30499430340E+03  0.00000000000E+00 0.  1.
<mgrwt>
<rscale>  0 0.17403598E+04</rscale>
<asrwt>0</asrwt>
<pdfrwt beam="1">  1        1 0.92801370E-01 0.17403598E+04</pdfrwt>
<pdfrwt beam="2">  1       -1 0.19312433E+00 0.17403598E+04</pdfrwt>
<totfact> 0.54141447E+00</totfact>
</mgrwt>
</event>
<event>
12    1  0.1489233E-007  0.1118354E+04  0.7818608E-02  0.9187486E-01
          1   -1    0    0  501    0  0.00000000000E+00  0.00000000000E+00  0.21510311112E+04  0.21510311112E+04  0.00000000000E+00 0. -1.
         -1   -1    0    0    0  501 -0.00000000000E+00 -0.00000000000E+00 -0.14536221078E+03  0.14536221078E+03  0.00000000000E+00 0.  1.
         23    2    1    2    0    0  0.85882298490E+02  0.12124467866E+03  0.49995108658E+03  0.52932861054E+03  0.90341837876E+02 0.  0.
        254    2    1    2    0    0 -0.85882298490E+02 -0.12124467866E+03  0.15057178138E+04  0.17670647114E+04  0.91282830707E+03 0.  0.
        -24    2    4    4    0    0 -0.22984691590E+03 -0.37551586792E+03  0.13576007622E+04  0.14294013657E+04  0.79162256443E+02 0.  0.
         24    2    4    4    0    0  0.14396461741E+03  0.25427118926E+03  0.14811705156E+03  0.33766334569E+03  0.81842686343E+02 0.  0.
         11    1    3    3    0    0  0.50339988279E+02  0.57326925257E+02  0.38921235314E+03  0.39661914555E+03  0.00000000000E+00 0. -1.
        -11    1    3    3    0    0  0.35542310212E+02  0.63917753405E+02  0.11073873344E+03  0.13270946499E+03  0.00000000000E+00 0.  1.
          2    1    6    6  502    0  0.12354277685E+03  0.22620003402E+03  0.95985980518E+02  0.27503196461E+03  0.00000000000E+00 0. -1.
          3    1    5    5  503    0 -0.21832025963E+03 -0.36775391864E+03  0.13420457477E+04  0.14085430307E+04  0.00000000000E+00 0. -1.
         -4    1    5    5    0  503 -0.11526656266E+02 -0.77619492869E+01  0.15555014514E+02  0.20858334976E+02  0.00000000000E+00 0.  1.
         -1    1    6    6    0  502  0.20421840557E+02  0.28071155244E+02  0.52131071039E+02  0.62631381081E+02  0.00000000000E+00 0.  1.
<mgrwt>
<rscale>  0 0.11183535E+04</rscale>
<asrwt>0</asrwt>
<pdfrwt beam="1">  1        1 0.33092784E+00 0.11183535E+04</pdfrwt>
<pdfrwt beam="2">  1       -1 0.22363419E-01 0.11183535E+04</pdfrwt>
<totfact> 0.39835783E+01</totfact>
</mgrwt>
</event>
<event>
12    1  0.1489233E-007  0.1287177E+04  0.7818608E-02  0.9039796E-01
         -2   -1    0    0    0  501 -0.00000000000E+00  0.00000000000E+00  0.17835613015E+04  0.17835613015E+04  0.00000000000E+00 0.  1.
          2   -1    0    0  501    0  0.00000000000E+00 -0.00000000000E+00 -0.23223551666E+03  0.23223551666E+03  0.00000000000E+00 0. -1.
         23    2    1    2    0    0  0.23114142472E+03  0.18266109444E+03  0.20552834936E+03  0.37036451145E+03  0.90202745581E+02 0.  0.
        254    2    1    2    0    0 -0.23114142472E+03 -0.18266109444E+03  0.13457974355E+04  0.16454323067E+04  0.89971401288E+03 0.  0.
        -24    2    4    4    0    0 -0.12380570962E+03 -0.29527832152E+03  0.46165655364E+02  0.33406975088E+03  0.83391785113E+02 0.  0.
         24    2    4    4    0    0 -0.10733571510E+03  0.11261722708E+03  0.12996317802E+04  0.13113625559E+04  0.80158551364E+02 0.  0.
         13    1    3    3    0    0  0.23552016721E+03  0.17522590224E+03  0.18222234766E+03  0.34551244546E+03  0.00000000000E+00 0. -1.
        -13    1    3    3    0    0 -0.43787424945E+01  0.74351921952E+01  0.23306001702E+02  0.24852065994E+02  0.00000000000E+00 0.  1.
          2    1    6    6  502    0 -0.10660360173E+02  0.19514130512E+02  0.50393429704E+03  0.50442464284E+03  0.00000000000E+00 0. -1.
          1    1    5    5  503    0 -0.12167863113E+03 -0.19903210992E+03  0.46145278935E+02  0.23780003536E+03  0.00000000000E+00 0. -1.
         -2    1    5    5    0  503 -0.21270784957E+01 -0.96246211600E+02  0.20376429274E-01  0.96269715516E+02  0.00000000000E+00 0.  1.
         -1    1    6    6    0  502 -0.96675354923E+02  0.93103096570E+02  0.79569748312E+03  0.80693791303E+03  0.00000000000E+00 0.  1.
<mgrwt>
<rscale>  0 0.12871772E+04</rscale>
<asrwt>0</asrwt>
<pdfrwt beam="1">  1        2 0.35728542E-01 0.12871772E+04</pdfrwt>
<pdfrwt beam="2">  1       -2 0.27439404E+00 0.12871772E+04</pdfrwt>
<totfact> 0.65611286E+00</totfact>
</mgrwt>
</event>
<event>
12    1  0.1489233E-007  0.1572929E+04  0.7818608E-02  0.8837354E-01
          2   -1    0    0  501    0  0.00000000000E+00  0.00000000000E+00  0.70308962299E+03  0.70308962299E+03  0.00000000000E+00 0.  1.
         -2   -1    0    0    0  501 -0.00000000000E+00 -0.00000000000E+00 -0.87972583762E+03  0.87972583762E+03  0.00000000000E+00 0. -1.
         23    2    1    2    0    0 -0.23527545915E+03 -0.40881172773E+03  0.17167910605E+03  0.51036002855E+03  0.92260895699E+02 0.  0.
        254    2    1    2    0    0  0.23527545915E+03  0.40881172773E+03 -0.34831532068E+03  0.10724554321E+04  0.89797300667E+03 0.  0.
        -24    2    4    4    0    0  0.49836224248E+03  0.78854808991E+01 -0.62340334894E+02  0.50876036447E+03  0.80769335504E+02 0.  0.
         24    2    4    4    0    0 -0.26308678333E+03  0.40092624684E+03 -0.28597498579E+03  0.56369506758E+03  0.77549505198E+02 0.  0.
         13    1    3    3    0    0  0.75118195330E-01 -0.49755529883E+02  0.57156098668E+01  0.50082797375E+02  0.00000000000E+00 0. -1.
        -13    1    3    3    0    0 -0.23535057735E+03 -0.35905619785E+03  0.16596349619E+03  0.46027723118E+03  0.00000000000E+00 0.  1.
          2    1    6    6  502    0 -0.20108043566E+03  0.24142730076E+03 -0.19654979314E+03  0.37061071806E+03  0.00000000000E+00 0. -1.
          1    1    5    5  503    0  0.49654063408E+03  0.13825039004E+02 -0.55993510782E+02  0.49987899161E+03  0.00000000000E+00 0. -1.
         -2    1    5    5    0  503  0.18216084017E+01 -0.59395581044E+01 -0.63468241125E+01  0.88813728646E+01  0.00000000000E+00 0.  1.
         -1    1    6    6    0  502 -0.62006347671E+02  0.15949894608E+03 -0.89425192646E+02  0.19308434952E+03  0.00000000000E+00 0.  1.
<mgrwt>
<rscale>  0 0.15729286E+04</rscale>
<asrwt>0</asrwt>
<pdfrwt beam="1">  1        2 0.10816763E+00 0.15729286E+04</pdfrwt>
<pdfrwt beam="2">  1       -2 0.13534244E+00 0.15729286E+04</pdfrwt>
<totfact> 0.15340392E+01</totfact>
</mgrwt>
</event>
<event>
12    1  0.1489233E-007  0.1666660E+04  0.7818608E-02  0.8780611E-01
         -2   -1    0    0    0  501 -0.00000000000E+00  0.00000000000E+00  0.24799621817E+03  0.24799621817E+03  0.00000000000E+00 0.  1.
          2   -1    0    0  501    0  0.00000000000E+00 -0.00000000000E+00 -0.28001998975E+04  0.28001998975E+04  0.00000000000E+00 0. -1.
         23    2    1    2    0    0  0.12293491747E+03 -0.19540933342E+03  0.79166746165E+02  0.26022226893E+03  0.90279865035E+02 0.  0.
        254    2    1    2    0    0 -0.12293491747E+03  0.19540933342E+03 -0.26313704255E+04  0.27879738468E+04  0.89184642872E+03 0.  0.
        -24    2    4    4    0    0  0.95947251862E+02  0.51079824753E+03 -0.16155944050E+04  0.16989294465E+04  0.78072132807E+02 0.  0.
         24    2    4    4    0    0 -0.21888216933E+03 -0.31538891411E+03 -0.10157760206E+04  0.10890444003E+04  0.82687427587E+02 0.  0.
         13    1    3    3    0    0  0.11085412008E+03 -0.13754509521E+03  0.92816355440E+02  0.19955491723E+03  0.00000000000E+00 0. -1.
        -13    1    3    3    0    0  0.12080797393E+02 -0.57864238211E+02 -0.13649609276E+02  0.60667351704E+02  0.00000000000E+00 0.  1.
          4    1    6    6  502    0 -0.64734684605E+02 -0.14161287255E+03 -0.49245200129E+03  0.51648209905E+03  0.00000000000E+00 0. -1.
          1    1    5    5  503    0  0.43124261763E+02  0.28693075339E+03 -0.77868657856E+03  0.83098841558E+03  0.00000000000E+00 0. -1.
         -2    1    5    5    0  503  0.52822990100E+02  0.22386749413E+03 -0.83690782640E+03  0.86794103089E+03  0.00000000000E+00 0.  1.
         -3    1    6    6    0  502 -0.15414748473E+03 -0.17377604155E+03 -0.52332401928E+03  0.57256230125E+03  0.00000000000E+00 0.  1.
<mgrwt>
<rscale>  0 0.16666601E+04</rscale>
<asrwt>0</asrwt>
<pdfrwt beam="1">  1        2 0.43079999E+00 0.16666601E+04</pdfrwt>
<pdfrwt beam="2">  1       -2 0.38153264E-01 0.16666601E+04</pdfrwt>
<totfact> 0.14356716E+01</totfact>
</mgrwt>
</event>
<event>
12    1  0.1489233E-007  0.1668790E+04  0.7818608E-02  0.8779368E-01
         -1   -1    0    0    0  501 -0.00000000000E+00  0.00000000000E+00  0.40672829911E+03  0.40672829911E+03  0.00000000000E+00 0.  1.
          1   -1    0    0  501    0  0.00000000000E+00 -0.00000000000E+00 -0.17117441752E+04  0.17117441752E+04  0.00000000000E+00 0. -1.
         23    2    1    2    0    0 -0.42492927003E+01 -0.58945267833E+03 -0.49801077726E+03  0.77705847834E+03  0.91283229704E+02 0.  0.
        254    2    1    2    0    0  0.42492927003E+01  0.58945267833E+03 -0.80700509887E+03  0.13414139960E+04  0.89479705107E+03 0.  0.
        -24    2    4    4    0    0 -0.31959084858E+03  0.65272088705E+03 -0.52426054705E+03  0.89954613667E+03  0.78429993764E+02 0.  0.
         24    2    4    4    0    0  0.32384014128E+03 -0.63268208728E+02 -0.28274455183E+03  0.44186785933E+03  0.80171192987E+02 0.  0.
         13    1    3    3    0    0 -0.19072805479E+02 -0.56076765163E+03 -0.45025802835E+03  0.71941394421E+03  0.00000000000E+00 0. -1.
        -13    1    3    3    0    0  0.14823512779E+02 -0.28685026695E+02 -0.47752748906E+02  0.57644534135E+02  0.00000000000E+00 0.  1.
          4    1    6    6  502    0  0.12265572148E+03 -0.54313940543E+01 -0.61610242567E+02  0.13736720148E+03  0.00000000000E+00 0. -1.
          1    1    5    5  503    0 -0.25242075873E+03  0.44084274344E+03 -0.38281586797E+03  0.63608690653E+03  0.00000000000E+00 0. -1.
         -2    1    5    5    0  503 -0.67170089847E+02  0.21187814361E+03 -0.14144467907E+03  0.26345923014E+03  0.00000000000E+00 0.  1.
         -3    1    6    6    0  502  0.20118441980E+03 -0.57836814673E+02 -0.22113430926E+03  0.30450065785E+03  0.00000000000E+00 0.  1.
<mgrwt>
<rscale>  0 0.16687897E+04</rscale>
<asrwt>0</asrwt>
<pdfrwt beam="1">  1        1 0.26334526E+00 0.16687897E+04</pdfrwt>
<pdfrwt beam="2">  1       -1 0.62573585E-01 0.16687897E+04</pdfrwt>
<totfact> 0.11563906E+01</totfact>
</mgrwt>
</event>
<event>
12    1  0.1489233E-007  0.2195875E+04  0.7818608E-02  0.8520147E-01
          2   -1    0    0  501    0  0.00000000000E+00  0.00000000000E+00  0.23528234513E+04  0.23528234513E+04  0.00000000000E+00 0. -1.
         -2   -1    0    0    0  501 -0.00000000000E+00 -0.00000000000E+00 -0.51234884882E+03  0.51234884882E+03  0.00000000000E+00 0.  1.
         23    2    1    2    0    0 -0.62347280269E+03 -0.15502767284E+03 -0.85836777938E+02  0.65447391848E+03  0.90643491132E+02 0.  0.
        254    2    1    2    0    0  0.62347280269E+03  0.15502767284E+03  0.19263113804E+04  0.22106983816E+04  0.87393357023E+03 0.  0.
        -24    2    4    4    0    0  0.73312931658E+03 -0.13284778595E+03  0.11589228529E+04  0.13800219734E+04  0.78938831165E+02 0.  0.
         24    2    4    4    0    0 -0.10965651388E+03  0.28787545879E+03  0.76738852746E+03  0.83067640817E+03  0.79001975950E+02 0.  0.
         13    1    3    3    0    0 -0.10578937954E+02 -0.14311872187E+02 -0.11653877210E+02  0.21273374621E+02  0.00000000000E+00 0. -1.
        -13    1    3    3    0    0 -0.61289386474E+03 -0.14071580065E+03 -0.74182900728E+02  0.63320054386E+03  0.00000000000E+00 0.  1.
          2    1    6    6  502    0 -0.11187702784E+03  0.27906300469E+03  0.68870805983E+03  0.75147283492E+03  0.00000000000E+00 0. -1.
          1    1    5    5  503    0  0.38734124768E+03 -0.10036770710E+03  0.66783051726E+03  0.77852714697E+03  0.00000000000E+00 0. -1.
         -2    1    5    5    0  503  0.34578806889E+03 -0.32480078853E+02  0.49109233566E+03  0.60149482646E+03  0.00000000000E+00 0.  1.
         -1    1    6    6    0  502  0.22205139569E+01  0.88124540998E+01  0.78680467634E+02  0.79203573256E+02  0.00000000000E+00 0.  1.
<mgrwt>
<rscale>  0 0.21958747E+04</rscale>
<asrwt>0</asrwt>
<pdfrwt beam="1">  1        2 0.36197283E+00 0.21958747E+04</pdfrwt>
<pdfrwt beam="2">  1       -2 0.78822901E-01 0.21958747E+04</pdfrwt>
<totfact> 0.55276701E+00</totfact>
</mgrwt>
</event>
<event>
12    1  0.1489233E-007  0.2153091E+04  0.7818608E-02  0.8538211E-01
          2   -1    0    0  501    0  0.00000000000E+00  0.00000000000E+00  0.24976096344E+04  0.24976096344E+04  0.00000000000E+00 0. -1.
         -2   -1    0    0    0  501 -0.00000000000E+00 -0.00000000000E+00 -0.46402356326E+03  0.46402356326E+03  0.00000000000E+00 0.  1.
         23    2    1    2    0    0  0.59451949642E+03 -0.17875009759E+03  0.17050982790E+04  0.18170569007E+04  0.94501907794E+02 0.  0.
        254    2    1    2    0    0 -0.59451949642E+03  0.17875009759E+03  0.32848779221E+03  0.11445762970E+04  0.90373980819E+03 0.  0.
        -24    2    4    4    0    0  0.11448938633E+03  0.31276329994E+03 -0.96533890237E+01  0.34374474402E+03  0.84489997944E+02 0.  0.
         24    2    4    4    0    0 -0.70900888274E+03 -0.13401320235E+03  0.33814118123E+03  0.80083155293E+03  0.79615221630E+02 0.  0.
         13    1    3    3    0    0  0.17816251551E+03 -0.36315937920E+02  0.62042825611E+03  0.64652296964E+03  0.00000000000E+00 0.  1.
        -13    1    3    3    0    0  0.41635698090E+03 -0.14243415967E+03  0.10846700229E+04  0.11705339311E+04  0.00000000000E+00 0. -1.
          2    1    6    6  502    0 -0.15143761818E+03 -0.58725167370E+02  0.92470379054E+02  0.18690309918E+03  0.00000000000E+00 0. -1.
          1    1    5    5  503    0  0.28861501147E+02  0.11634764883E+03  0.34986088087E+02  0.12487508958E+03  0.00000000000E+00 0. -1.
         -2    1    5    5    0  503  0.85627885180E+02  0.19641565111E+03 -0.44639477110E+02  0.21886965444E+03  0.00000000000E+00 0.  1.
         -1    1    6    6    0  502 -0.55757126457E+03 -0.75288034977E+02  0.24567080218E+03  0.61392845375E+03  0.00000000000E+00 0.  1.
<mgrwt>
<rscale>  0 0.21530905E+04</rscale>
<asrwt>0</asrwt>
<pdfrwt beam="1">  1        2 0.38424763E+00 0.21530905E+04</pdfrwt>
<pdfrwt beam="2">  1       -2 0.71388242E-01 0.21530905E+04</pdfrwt>
<totfact> 0.57068308E+00</totfact>
</mgrwt>
</event>
<event>
12    1  0.1489233E-007  0.1726887E+04  0.7818608E-02  0.8746176E-01
          2   -1    0    0  501    0  0.00000000000E+00  0.00000000000E+00  0.88780216801E+03  0.88780216801E+03  0.00000000000E+00 0. -1.
         -2   -1    0    0    0  501 -0.00000000000E+00 -0.00000000000E+00 -0.83975341196E+03  0.83975341196E+03  0.00000000000E+00 0.  1.
         23    2    1    2    0    0  0.52892152502E+03  0.26936222595E+02 -0.31532747790E+03  0.62199175706E+03  0.83419349180E+02 0.  0.
        254    2    1    2    0    0 -0.52892152502E+03 -0.26936222595E+02  0.36337623394E+03  0.11055638229E+04  0.89985862191E+03 0.  0.
        -24    2    4    4    0    0 -0.27123139555E+03  0.39451015831E+03  0.36029480955E+03  0.60490216840E+03  0.83003304790E+02 0.  0.
         24    2    4    4    0    0 -0.25769012947E+03 -0.42144638090E+03  0.30814243919E+01  0.50066165451E+03  0.81433054255E+02 0.  0.
         11    1    3    3    0    0  0.24523658678E+03  0.30651738203E+02 -0.19046469233E+03  0.31202133193E+03  0.00000000000E+00 0.  1.
        -11    1    3    3    0    0  0.28368493824E+03 -0.37155156075E+01 -0.12486278556E+03  0.30997042513E+03  0.00000000000E+00 0. -1.
          2    1    6    6  502    0 -0.34200432245E+02 -0.28657062316E+02  0.18919468114E+02  0.48464864180E+02  0.00000000000E+00 0. -1.
          3    1    5    5  503    0 -0.13475016499E+02  0.31884109606E+02  0.38575602995E+01  0.34828914518E+02  0.00000000000E+00 0. -1.
         -4    1    5    5    0  503 -0.25775637905E+03  0.36262604870E+03  0.35643724925E+03  0.57007325388E+03  0.00000000000E+00 0.  1.
         -1    1    6    6    0  502 -0.22348969722E+03 -0.39278931859E+03 -0.15838043722E+02  0.45219679033E+03  0.00000000000E+00 0.  1.
<mgrwt>
<rscale>  0 0.17268873E+04</rscale>
<asrwt>0</asrwt>
<pdfrwt beam="1">  1        2 0.13658495E+00 0.17268873E+04</pdfrwt>
<pdfrwt beam="2">  1       -2 0.12919283E+00 0.17268873E+04</pdfrwt>
<totfact> 0.12519955E+01</totfact>
</mgrwt>
</event>
<event>
12    1  0.1489233E-007  0.2004141E+04  0.7818608E-02  0.8604687E-01
          4   -1    0    0  501    0  0.00000000000E+00  0.00000000000E+00  0.21581477737E+04  0.21581477737E+04  0.00000000000E+00 0. -1.
         -4   -1    0    0    0  501 -0.00000000000E+00 -0.00000000000E+00 -0.46528098633E+03  0.46528098633E+03  0.00000000000E+00 0.  1.
         23    2    1    2    0    0 -0.10312567232E+03  0.36805247673E+03 -0.23776773387E+03  0.45857589863E+03  0.87526165336E+02 0.  0.
        254    2    1    2    0    0  0.10312567232E+03 -0.36805247673E+03  0.19306345213E+04  0.21648528614E+04  0.90174316023E+03 0.  0.
        -24    2    4    4    0    0  0.49008330838E+03 -0.25699301039E+03  0.12666354882E+04  0.13845423895E+04  0.79781651378E+02 0.  0.
         24    2    4    4    0    0 -0.38695763606E+03 -0.11105946635E+03  0.66399903308E+03  0.78031047192E+03  0.76936983833E+02 0.  0.
         11    1    3    3    0    0  0.96794375939E+01  0.29057784161E+02 -0.39482746726E+02  0.49969326806E+02  0.00000000000E+00 0. -1.
        -11    1    3    3    0    0 -0.11280510991E+03  0.33899469257E+03 -0.19828498714E+03  0.40860657183E+03  0.00000000000E+00 0.  1.
          4    1    6    6  502    0 -0.38741874554E+03 -0.10964411292E+03  0.63903321084E+03  0.75530031144E+03  0.00000000000E+00 0. -1.
          3    1    5    5  503    0  0.38091082325E+03 -0.23478473701E+03  0.99777713716E+03  0.10935154976E+04  0.00000000000E+00 0. -1.
         -4    1    5    5    0  503  0.10917248512E+03 -0.22208273375E+02  0.26885835102E+03  0.29102689193E+03  0.00000000000E+00 0.  1.
         -3    1    6    6    0  502  0.46110948208E+00 -0.14153534243E+01  0.24965822237E+02  0.25010160480E+02  0.00000000000E+00 0.  1.
<mgrwt>
<rscale>  0 0.20041408E+04</rscale>
<asrwt>0</asrwt>
<pdfrwt beam="1">  1        4 0.33202273E+00 0.20041408E+04</pdfrwt>
<pdfrwt beam="2">  1       -4 0.71581691E-01 0.20041408E+04</pdfrwt>
<totfact> 0.64327513E-02</totfact>
</mgrwt>
</event>
<event>
12    1  0.1489233E-007  0.1194411E+04  0.7818608E-02  0.9117762E-01
          2   -1    0    0  501    0  0.00000000000E+00  0.00000000000E+00  0.11987285099E+04  0.11987285099E+04  0.00000000000E+00 0. -1.
         -2   -1    0    0    0  501 -0.00000000000E+00 -0.00000000000E+00 -0.29752737288E+03  0.29752737288E+03  0.00000000000E+00 0.  1.
         23    2    1    2    0    0 -0.87610803426E+01 -0.17113748944E+03 -0.16918509816E+02  0.19733954615E+03  0.96394313520E+02 0.  0.
        254    2    1    2    0    0  0.87610803426E+01  0.17113748944E+03  0.91811964682E+03  0.12989163366E+04  0.90270436293E+03 0.  0.
        -24    2    4    4    0    0  0.11223789855E+03  0.51597805790E+03  0.42153297258E+03  0.68037680302E+03  0.79949015045E+02 0.  0.
         24    2    4    4    0    0 -0.10347681821E+03 -0.34484056846E+03  0.49658667424E+03  0.61853953360E+03  0.79814535239E+02 0.  0.
         13    1    3    3    0    0  0.42230658951E+02 -0.98801605036E+02 -0.17325716381E+02  0.10883641928E+03  0.00000000000E+00 0.  1.
        -13    1    3    3    0    0 -0.50991739294E+02 -0.72335884405E+02  0.40720656416E+00  0.88503126872E+02  0.00000000000E+00 0. -1.
          4    1    6    6  502    0 -0.23756140950E+02 -0.20379810434E+03  0.24882482251E+03  0.32250862603E+03  0.00000000000E+00 0. -1.
          1    1    5    5  503    0  0.43280820616E+02  0.35627092530E+03  0.30508897949E+03  0.47104297793E+03  0.00000000000E+00 0. -1.
         -2    1    5    5    0  503  0.68957077934E+02  0.15970713260E+03  0.11644399309E+03  0.20933382509E+03  0.00000000000E+00 0.  1.
         -3    1    6    6    0  502 -0.79720677258E+02 -0.14104246412E+03  0.24776185173E+03  0.29603090758E+03  0.00000000000E+00 0.  1.
<mgrwt>
<rscale>  0 0.11944112E+04</rscale>
<asrwt>0</asrwt>
<pdfrwt beam="1">  1        2 0.18441977E+00 0.11944112E+04</pdfrwt>
<pdfrwt beam="2">  1       -2 0.45773443E-01 0.11944112E+04</pdfrwt>
<totfact> 0.84727500E+01</totfact>
</mgrwt>
</event>
<event>
12    1  0.1682524E-007  0.1999992E+04  0.7818608E-02  0.8606624E-01
          2   -1    0    0  501    0  0.00000000000E+00  0.00000000000E+00  0.15259935713E+04  0.15259935713E+04  0.00000000000E+00 0. -1.
         -2   -1    0    0    0  501 -0.00000000000E+00 -0.00000000000E+00 -0.65530542207E+03  0.65530542207E+03  0.00000000000E+00 0.  1.
         23    2    1    2    0    0 -0.46217767176E+03 -0.30767722369E+03 -0.27256713044E+03  0.62691748293E+03  0.10227030630E+03 0.  0.
        254    2    1    2    0    0  0.46217767176E+03  0.30767722369E+03  0.11432552797E+04  0.15543815105E+04  0.89487193008E+03 0.  0.
        -24    2    4    4    0    0  0.17510392020E+02  0.40395382312E+03  0.98146129368E+03  0.10649574980E+04  0.85923783398E+02 0.  0.
         24    2    4    4    0    0  0.44466727974E+03 -0.96276599428E+02  0.16179398602E+03  0.48942401245E+03  0.79752095732E+02 0.  0.
         13    1    3    3    0    0  0.31789837186E+01 -0.13164023911E+02 -0.98208766560E+01  0.16728630586E+02  0.00000000000E+00 0. -1.
        -13    1    3    3    0    0 -0.46535665548E+03 -0.29451319978E+03 -0.26274625379E+03  0.61018885235E+03  0.00000000000E+00 0.  1.
          4    1    6    6  502    0  0.27031362761E+03 -0.59777451174E+02  0.56670508907E+02  0.28258511553E+03  0.00000000000E+00 0. -1.
          1    1    5    5  503    0  0.33987326591E+01  0.39796879353E+03  0.94180722849E+03  0.10224439191E+04  0.00000000000E+00 0. -1.
         -2    1    5    5    0  503  0.14111659360E+02  0.59850295960E+01  0.39654065185E+02  0.42513578947E+02  0.00000000000E+00 0.  1.
         -3    1    6    6    0  502  0.17435365214E+03 -0.36499148254E+02  0.10512347712E+03  0.20683889692E+03  0.00000000000E+00 0.  1.
<mgrwt>
<rscale>  0 0.19999919E+04</rscale>
<asrwt>0</asrwt>
<pdfrwt beam="1">  1        2 0.23476824E+00 0.19999919E+04</pdfrwt>
<pdfrwt beam="2">  1       -2 0.10081622E+00 0.19999919E+04</pdfrwt>
<totfact> 0.92384122E+00</totfact>
</mgrwt>
</event>
<event>
12    1  0.1489233E-007  0.1888028E+04  0.7818608E-02  0.8660838E-01
         -1   -1    0    0    0  501 -0.00000000000E+00  0.00000000000E+00  0.30562745932E+03  0.30562745932E+03  0.00000000000E+00 0.  1.
          1   -1    0    0  501    0  0.00000000000E+00 -0.00000000000E+00 -0.29158464206E+04  0.29158464206E+04  0.00000000000E+00 0. -1.
         23    2    1    2    0    0  0.17544187271E+03  0.21642004067E+03  0.13318024825E+03  0.32310303710E+03  0.95084748258E+02 0.  0.
        254    2    1    2    0    0 -0.17544187271E+03 -0.21642004067E+03 -0.27433992095E+04  0.28983708428E+04  0.89257875561E+03 0.  0.
        -24    2    4    4    0    0 -0.33271994547E+03  0.45049309677E+02 -0.24282195806E+04  0.24526997070E+04  0.82179792923E+02 0.  0.
         24    2    4    4    0    0  0.15727807276E+03 -0.26146935035E+03 -0.31517962885E+03  0.44567113581E+03  0.78625374477E+02 0.  0.
         11    1    3    3    0    0 -0.58414819871E+01  0.41999999863E+02  0.25316946112E+02  0.49386948283E+02  0.00000000000E+00 0. -1.
        -11    1    3    3    0    0  0.18128335470E+03  0.17442004081E+03  0.10786330214E+03  0.27371608881E+03  0.00000000000E+00 0.  1.
          4    1    6    6  502    0  0.92385056969E+02 -0.20791486334E+03 -0.25775835925E+03  0.34380657485E+03  0.00000000000E+00 0. -1.
          1    1    5    5  503    0 -0.16510745171E+03  0.53192074205E+02 -0.14285686250E+04  0.14390615636E+04  0.00000000000E+00 0. -1.
         -2    1    5    5    0  503 -0.16761249376E+03 -0.81427645281E+01 -0.99965095563E+03  0.10136381434E+04  0.00000000000E+00 0.  1.
         -3    1    6    6    0  502  0.64893015789E+02 -0.53554487005E+02 -0.57421269602E+02  0.10186456096E+03  0.00000000000E+00 0.  1.
<mgrwt>
<rscale>  0 0.18880283E+04</rscale>
<asrwt>0</asrwt>
<pdfrwt beam="1">  1        1 0.44859178E+00 0.18880283E+04</pdfrwt>
<pdfrwt beam="2">  1       -1 0.47019607E-01 0.18880283E+04</pdfrwt>
<totfact> 0.29127698E+00</totfact>
</mgrwt>
</event>
<event>
12    1  0.1489233E-007  0.1437101E+04  0.7818608E-02  0.8927392E-01
         -1   -1    0    0    0  501 -0.00000000000E+00  0.00000000000E+00  0.34104119440E+03  0.34104119440E+03  0.00000000000E+00 0.  1.
          1   -1    0    0  501    0  0.00000000000E+00 -0.00000000000E+00 -0.15139363257E+04  0.15139363257E+04  0.00000000000E+00 0. -1.
         23    2    1    2    0    0  0.27712504685E+02 -0.16102087990E+03 -0.86842976830E+03  0.88858132650E+03  0.93331691630E+02 0.  0.
        254    2    1    2    0    0 -0.27712504685E+02  0.16102087990E+03 -0.30446536305E+03  0.96639619363E+03  0.90251135123E+03 0.  0.
        -24    2    4    4    0    0 -0.13865456901E+03 -0.19257603963E+03  0.21182460968E+03  0.32597538238E+03  0.71271762305E+02 0.  0.
         24    2    4    4    0    0  0.11094206433E+03  0.35359691953E+03 -0.51628997273E+03  0.64042081125E+03  0.79022505675E+02 0.  0.
         11    1    3    3    0    0  0.92281196606E+01 -0.11978361974E+03 -0.39158287289E+03  0.40959787608E+03  0.00000000000E+00 0. -1.
        -11    1    3    3    0    0  0.18484385024E+02 -0.41237260159E+02 -0.47684689541E+03  0.47898345042E+03  0.00000000000E+00 0.  1.
          2    1    6    6  502    0  0.57987264339E+02  0.26973019578E+03 -0.33705455476E+03  0.43557166371E+03  0.00000000000E+00 0. -1.
          3    1    5    5  503    0 -0.14110216150E+03 -0.18617110847E+03  0.21582186049E+03  0.31803864085E+03  0.00000000000E+00 0. -1.
         -4    1    5    5    0  503  0.24475924816E+01 -0.64049311652E+01 -0.39972508055E+01  0.79367415347E+01  0.00000000000E+00 0.  1.
         -1    1    6    6    0  502  0.52954799990E+02  0.83866723754E+02 -0.17923541796E+03  0.20484914754E+03  0.00000000000E+00 0.  1.
<mgrwt>
<rscale>  0 0.14371008E+04</rscale>
<asrwt>0</asrwt>
<pdfrwt beam="1">  1        1 0.23291329E+00 0.14371008E+04</pdfrwt>
<pdfrwt beam="2">  1       -1 0.52467875E-01 0.14371008E+04</pdfrwt>
<totfact> 0.22763699E+01</totfact>
</mgrwt>
</event>
<event>
12    1  0.1489233E-007  0.1840867E+04  0.7818608E-02  0.8684864E-01
         -2   -1    0    0    0  501 -0.00000000000E+00  0.00000000000E+00  0.11372208391E+04  0.11372208391E+04  0.00000000000E+00 0.  1.
          2   -1    0    0  501    0  0.00000000000E+00 -0.00000000000E+00 -0.74497244024E+03  0.74497244024E+03  0.00000000000E+00 0. -1.
         23    2    1    2    0    0 -0.71456888045E+02  0.58049024556E+03  0.53883423589E+03  0.80034520296E+03  0.90194778561E+02 0.  0.
        254    2    1    2    0    0  0.71456888045E+02 -0.58049024556E+03 -0.14658583699E+03  0.10818480764E+04  0.89823874377E+03 0.  0.
        -24    2    4    4    0    0  0.38185879869E+03 -0.23091396432E+03  0.19901981501E+03  0.49487458429E+03  0.78451044335E+02 0.  0.
         24    2    4    4    0    0 -0.31040191065E+03 -0.34957628125E+03 -0.34560565199E+03  0.58697349213E+03  0.80880722288E+02 0.  0.
         13    1    3    3    0    0 -0.14449139150E+02  0.13544512783E+02  0.32598936011E+02  0.38143440822E+02  0.00000000000E+00 0. -1.
        -13    1    3    3    0    0 -0.57007748895E+02  0.56694573278E+03  0.50623529988E+03  0.76220176213E+03  0.00000000000E+00 0.  1.
          2    1    6    6  502    0 -0.25882220461E+03 -0.32731824666E+03 -0.29182726019E+03  0.50920459344E+03  0.00000000000E+00 0. -1.
          1    1    5    5  503    0  0.25661725631E+03 -0.11225730593E+03  0.13405629672E+03  0.31052408870E+03  0.00000000000E+00 0. -1.
         -2    1    5    5    0  503  0.12524154238E+03 -0.11865665838E+03  0.64963518284E+02  0.18435049559E+03  0.00000000000E+00 0.  1.
         -1    1    6    6    0  502 -0.51579706035E+02 -0.22258034583E+02 -0.53778391806E+02  0.77768898690E+02  0.00000000000E+00 0.  1.
<mgrwt>
<rscale>  0 0.18408674E+04</rscale>
<asrwt>0</asrwt>
<pdfrwt beam="1">  1        2 0.11461115E+00 0.18408674E+04</pdfrwt>
<pdfrwt beam="2">  1       -2 0.17495705E+00 0.18408674E+04</pdfrwt>
<totfact> 0.69944905E+00</totfact>
</mgrwt>
</event>
<event>
12    1  0.1489233E-007  0.1265929E+04  0.7818608E-02  0.9057029E-01
         -2   -1    0    0    0  501 -0.00000000000E+00  0.00000000000E+00  0.16626320612E+04  0.16626320612E+04  0.00000000000E+00 0.  1.
          2   -1    0    0  501    0  0.00000000000E+00 -0.00000000000E+00 -0.24096978846E+03  0.24096978846E+03  0.00000000000E+00 0. -1.
         23    2    1    2    0    0  0.11592429666E+03  0.20176544959E+03  0.66882036151E+03  0.71608230993E+03  0.10632713394E+03 0.  0.
        254    2    1    2    0    0 -0.11592429666E+03 -0.20176544959E+03  0.75284191127E+03  0.11875195398E+04  0.88841655475E+03 0.  0.
        -24    2    4    4    0    0 -0.10005621494E+02 -0.78873858277E+01  0.90429206528E+03  0.90778497024E+03  0.78530819078E+02 0.  0.
         24    2    4    4    0    0 -0.10591867516E+03 -0.19387806377E+03 -0.15145015402E+03  0.27973456952E+03  0.80664805682E+02 0.  0.
         11    1    3    3    0    0 -0.16174402163E+02  0.47122975421E+01  0.27041106718E+02  0.31859668642E+02  0.00000000000E+00 0.  1.
        -11    1    3    3    0    0  0.13209869882E+03  0.19705315205E+03  0.64177925480E+03  0.68422264129E+03  0.00000000000E+00 0. -1.
          4    1    6    6  502    0 -0.85484995579E+02 -0.98049647709E+02 -0.51901019835E+02  0.14005403866E+03  0.00000000000E+00 0. -1.
          3    1    5    5  503    0 -0.27472378931E+02 -0.11611204740E+01  0.11392656270E+03  0.11719787325E+03  0.00000000000E+00 0. -1.
         -4    1    5    5    0  503  0.17466757436E+02 -0.67262653536E+01  0.79036550258E+03  0.79058709700E+03  0.00000000000E+00 0.  1.
         -3    1    6    6    0  502 -0.20433679583E+02 -0.95828416057E+02 -0.99549134183E+02  0.13968053086E+03  0.00000000000E+00 0.  1.
<mgrwt>
<rscale>  0 0.12659291E+04</rscale>
<asrwt>0</asrwt>
<pdfrwt beam="1">  1        2 0.37072276E-01 0.12659291E+04</pdfrwt>
<pdfrwt beam="2">  1       -2 0.25578954E+00 0.12659291E+04</pdfrwt>
<totfact> 0.81797659E+00</totfact>
</mgrwt>
</event>
<event>
12    1  0.1489233E-007  0.1779588E+04  0.7818608E-02  0.8717230E-01
          2   -1    0    0  501    0  0.00000000000E+00  0.00000000000E+00  0.11491023877E+04  0.11491023877E+04  0.00000000000E+00 0.  1.
         -2   -1    0    0    0  501 -0.00000000000E+00 -0.00000000000E+00 -0.68900128470E+03  0.68900128470E+03  0.00000000000E+00 0. -1.
         23    2    1    2    0    0  0.50406574059E+01  0.34251675903E+03  0.75378244773E+03  0.83291796836E+03  0.90670971450E+02 0.  0.
        254    2    1    2    0    0 -0.50406574059E+01 -0.34251675903E+03 -0.29368134471E+03  0.10051857041E+04  0.89822404163E+03 0.  0.
        -24    2    4    4    0    0  0.25392239293E+03  0.21464029454E+03 -0.10520562662E+03  0.35741758247E+03  0.78307513761E+02 0.  0.
         24    2    4    4    0    0 -0.25896305034E+03 -0.55715705357E+03 -0.18847571810E+03  0.64776812158E+03  0.81207137896E+02 0.  0.
         11    1    3    3    0    0  0.30162778637E+02  0.15110115456E+03  0.25319804987E+03  0.29639602660E+03  0.00000000000E+00 0. -1.
        -11    1    3    3    0    0 -0.25122121231E+02  0.19141560446E+03  0.50058439786E+03  0.53652194176E+03  0.00000000000E+00 0.  1.
          4    1    6    6  502    0 -0.20468686121E+03 -0.49601874691E+03 -0.17799946916E+03  0.56534513304E+03  0.00000000000E+00 0. -1.
          1    1    5    5  503    0  0.25175586965E+03  0.21474188858E+03 -0.11273871225E+03  0.34957848025E+03  0.00000000000E+00 0. -1.
         -2    1    5    5    0  503  0.21665232846E+01 -0.10159403567E+00  0.75330856319E+01  0.78391022208E+01  0.00000000000E+00 0.  1.
         -3    1    6    6    0  502 -0.54276189132E+02 -0.61138306660E+02 -0.10476248938E+02  0.82422988539E+02  0.00000000000E+00 0.  1.
<mgrwt>
<rscale>  0 0.17795876E+04</rscale>
<asrwt>0</asrwt>
<pdfrwt beam="1">  1        2 0.17678498E+00 0.17795876E+04</pdfrwt>
<pdfrwt beam="2">  1       -2 0.10600020E+00 0.17795876E+04</pdfrwt>
<totfact> 0.13813766E+01</totfact>
</mgrwt>
</event>
<event>
12    1  0.1489233E-007  0.1255781E+04  0.7818608E-02  0.9065386E-01
          2   -1    0    0  501    0  0.00000000000E+00  0.00000000000E+00  0.30022849593E+04  0.30022849593E+04  0.00000000000E+00 0. -1.
         -2   -1    0    0    0  501 -0.00000000000E+00 -0.00000000000E+00 -0.13131544489E+03  0.13131544489E+03  0.00000000000E+00 0.  1.
         23    2    1    2    0    0  0.29574454197E+02 -0.22900008952E+02  0.14341230509E+04  0.14375431353E+04  0.91772991559E+02 0.  0.
        254    2    1    2    0    0 -0.29574454197E+02  0.22900008952E+02  0.14368464635E+04  0.16960572688E+04  0.90037960930E+03 0.  0.
        -24    2    4    4    0    0  0.11668982281E+01  0.45379431842E+03  0.69771051320E+03  0.83614548306E+03  0.80054128780E+02 0.  0.
         24    2    4    4    0    0 -0.30741352425E+02 -0.43089430946E+03  0.73913595028E+03  0.85991178579E+03  0.80693182258E+02 0.  0.
         11    1    3    3    0    0 -0.11135384913E+02 -0.16532573904E+02  0.69599855325E+02  0.72397946507E+02  0.00000000000E+00 0.  1.
        -11    1    3    3    0    0  0.40709839111E+02 -0.63674350480E+01  0.13645231956E+04  0.13651451888E+04  0.00000000000E+00 0. -1.
          4    1    6    6  502    0 -0.27749617045E+02 -0.21232585061E+03  0.44089143499E+03  0.49014035289E+03  0.00000000000E+00 0. -1.
          3    1    5    5  503    0  0.19422307287E+02  0.16219103373E+03  0.19185998991E+03  0.25197899351E+03  0.00000000000E+00 0. -1.
         -4    1    5    5    0  503 -0.18255409059E+02  0.29160328469E+03  0.50585052329E+03  0.58416648955E+03  0.00000000000E+00 0.  1.
         -3    1    6    6    0  502 -0.29917353806E+01 -0.21856845886E+03  0.29824451529E+03  0.36977143290E+03  0.00000000000E+00 0.  1.
<mgrwt>
<rscale>  0 0.12557808E+04</rscale>
<asrwt>0</asrwt>
<pdfrwt beam="1">  1        2 0.46188994E+00 0.12557808E+04</pdfrwt>
<pdfrwt beam="2">  1       -2 0.20202379E-01 0.12557808E+04</pdfrwt>
<totfact> 0.36285207E+01</totfact>
</mgrwt>
</event>
<event>
12    1  0.1489233E-007  0.1566303E+04  0.7818608E-02  0.8841521E-01
         -2   -1    0    0    0  501 -0.00000000000E+00  0.00000000000E+00  0.60255232589E+03  0.60255232589E+03  0.00000000000E+00 0.  1.
          2   -1    0    0  501    0  0.00000000000E+00 -0.00000000000E+00 -0.10178806771E+04  0.10178806771E+04  0.00000000000E+00 0. -1.
         23    2    1    2    0    0 -0.31243566966E+03 -0.40123546645E+03 -0.47699696442E+02  0.51921354838E+03  0.93281834076E+02 0.  0.
        254    2    1    2    0    0  0.31243566966E+03  0.40123546645E+03 -0.36762865472E+03  0.11012194546E+04  0.90494613769E+03 0.  0.
        -24    2    4    4    0    0 -0.23423345928E+03  0.40530344563E+03 -0.94367126024E+02  0.48445933912E+03  0.81605761414E+02 0.  0.
         24    2    4    4    0    0  0.54666912895E+03 -0.40679791849E+01 -0.27326152869E+03  0.61676011544E+03  0.82809974874E+02 0.  0.
         13    1    3    3    0    0 -0.11493656566E+03 -0.14976517312E+03  0.27384245297E+02  0.19076141668E+03  0.00000000000E+00 0.  1.
        -13    1    3    3    0    0 -0.19749910400E+03 -0.25147029333E+03 -0.75083941739E+02  0.32845213170E+03  0.00000000000E+00 0. -1.
          4    1    6    6  502    0  0.24779924927E+03 -0.43046462262E+02 -0.12252344313E+03  0.27976679568E+03  0.00000000000E+00 0. -1.
          3    1    5    5  503    0 -0.31648064273E+02  0.53528896715E+02  0.15156751339E+02  0.64005233121E+02  0.00000000000E+00 0. -1.
         -4    1    5    5    0  503 -0.20258539501E+03  0.35177454892E+03 -0.10952387736E+03  0.42045410600E+03  0.00000000000E+00 0.  1.
         -3    1    6    6    0  502  0.29886987968E+03  0.38978483077E+02 -0.15073808557E+03  0.33699331976E+03  0.00000000000E+00 0.  1.
<mgrwt>
<rscale>  0 0.15663031E+04</rscale>
<asrwt>0</asrwt>
<pdfrwt beam="1">  1        2 0.15659703E+00 0.15663031E+04</pdfrwt>
<pdfrwt beam="2">  1       -2 0.92700358E-01 0.15663031E+04</pdfrwt>
<totfact> 0.23279627E+01</totfact>
</mgrwt>
</event>
<event>
12    1  0.1489233E-007  0.1300922E+04  0.7818608E-02  0.9028834E-01
         -1   -1    0    0    0  501 -0.00000000000E+00  0.00000000000E+00  0.19771604574E+03  0.19771604574E+03  0.00000000000E+00 0.  1.
          1   -1    0    0  501    0  0.00000000000E+00 -0.00000000000E+00 -0.21399345720E+04  0.21399345720E+04  0.00000000000E+00 0. -1.
         23    2    1    2    0    0  0.38193994957E+01 -0.91968855370E+02 -0.10660924679E+04  0.10738737746E+04  0.90437135052E+02 0.  0.
        254    2    1    2    0    0 -0.38193994957E+01  0.91968855370E+02 -0.87612605835E+03  0.12637768432E+04  0.90612481537E+03 0.  0.
        -24    2    4    4    0    0 -0.32739187835E+03  0.11563252266E+03 -0.85788412049E+03  0.92881250876E+03  0.78556921680E+02 0.  0.
         24    2    4    4    0    0  0.32357247886E+03 -0.23663667287E+02 -0.18241937858E+02  0.33496433440E+03  0.81297102031E+02 0.  0.
         11    1    3    3    0    0  0.19942368526E+02 -0.91469452456E+02 -0.10311119289E+04  0.10353531613E+04  0.00000000000E+00 0. -1.
        -11    1    3    3    0    0 -0.16122969030E+02 -0.49940291378E+00 -0.34980539068E+02  0.38520613275E+02  0.00000000000E+00 0.  1.
          4    1    6    6  502    0  0.32633692396E+02 -0.21784771619E+02  0.15253870366E+02  0.42097680638E+02  0.00000000000E+00 0. -1.
          1    1    5    5  503    0 -0.14036235246E+03  0.22187949928E+02 -0.42405646392E+03  0.44723347337E+03  0.00000000000E+00 0. -1.
         -2    1    5    5    0  503 -0.18702952589E+03  0.93444572729E+02 -0.43382765657E+03  0.48157903539E+03  0.00000000000E+00 0.  1.
         -3    1    6    6    0  502  0.29093878646E+03 -0.18788956675E+01 -0.33495808224E+02  0.29286665376E+03  0.00000000000E+00 0.  1.
<mgrwt>
<rscale>  0 0.13009218E+04</rscale>
<asrwt>0</asrwt>
<pdfrwt beam="1">  1        1 0.32922071E+00 0.13009218E+04</pdfrwt>
<pdfrwt beam="2">  1       -1 0.30417852E-01 0.13009218E+04</pdfrwt>
<totfact> 0.23468899E+01</totfact>
</mgrwt>
</event>
<event>
12    1  0.1489233E-007  0.3653580E+04  0.7818608E-02  0.8078328E-01
          2   -1    0    0  501    0  0.00000000000E+00  0.00000000000E+00  0.31541650252E+04  0.31541650252E+04  0.00000000000E+00 0. -1.
         -2   -1    0    0    0  501 -0.00000000000E+00 -0.00000000000E+00 -0.10580172150E+04  0.10580172150E+04  0.00000000000E+00 0.  1.
         23    2    1    2    0    0  0.11438369226E+04 -0.48854984904E+03  0.23457339944E+04  0.26566512744E+04  0.91017364292E+02 0.  0.
        254    2    1    2    0    0 -0.11438369226E+04  0.48854984904E+03 -0.24958618421E+03  0.15555309658E+04  0.90018857016E+03 0.  0.
        -24    2    4    4    0    0 -0.71948249938E+03 -0.16273397846E+03 -0.26186636802E+02  0.74250860197E+03  0.80596956472E+02 0.  0.
         24    2    4    4    0    0 -0.42435442322E+03  0.65128382750E+03 -0.22339954741E+03  0.81302236387E+03  0.82768991215E+02 0.  0.
         13    1    3    3    0    0  0.21385601662E+03 -0.12983861178E+03  0.45280882295E+03  0.51732803046E+03  0.00000000000E+00 0.  1.
        -13    1    3    3    0    0  0.92998090598E+03 -0.35871123726E+03  0.18929251714E+04  0.21393232439E+04  0.00000000000E+00 0. -1.
          4    1    6    6  502    0 -0.21452808172E+03  0.28858833388E+03 -0.67064570287E+02  0.36579117114E+03  0.00000000000E+00 0. -1.
          1    1    5    5  503    0 -0.30453888260E+03 -0.10856789506E+03 -0.14796907954E+01  0.32331580280E+03  0.00000000000E+00 0. -1.
         -2    1    5    5    0  503 -0.41494361678E+03 -0.54166083397E+02 -0.24706946006E+02  0.41919279917E+03  0.00000000000E+00 0.  1.
         -3    1    6    6    0  502 -0.20982634150E+03  0.36269549362E+03 -0.15633497713E+03  0.44723119273E+03  0.00000000000E+00 0.  1.
<mgrwt>
<rscale>  0 0.36535796E+04</rscale>
<asrwt>0</asrwt>
<pdfrwt beam="1">  1        2 0.48525615E+00 0.36535796E+04</pdfrwt>
<pdfrwt beam="2">  1       -2 0.16277188E+00 0.36535796E+04</pdfrwt>
<totfact> 0.27059998E-01</totfact>
</mgrwt>
</event>
<event>
12    1  0.1489233E-007  0.1999386E+04  0.7818608E-02  0.8606908E-01
          1   -1    0    0  501    0  0.00000000000E+00  0.00000000000E+00  0.12245597840E+04  0.12245597840E+04  0.00000000000E+00 0. -1.
         -1   -1    0    0    0  501 -0.00000000000E+00 -0.00000000000E+00 -0.81611862983E+03  0.81611862983E+03  0.00000000000E+00 0.  1.
         23    2    1    2    0    0 -0.24940852567E+03  0.44962257344E+03  0.78070151282E+03  0.93946084294E+03  0.93417086654E+02 0.  0.
        254    2    1    2    0    0  0.24940852567E+03 -0.44962257344E+03 -0.37226035865E+03  0.11012175709E+04  0.89985403960E+03 0.  0.
        -24    2    4    4    0    0  0.47507813505E+03 -0.71421715835E+02 -0.43016147401E+03  0.64978984305E+03  0.79922778457E+02 0.  0.
         24    2    4    4    0    0 -0.22566960939E+03 -0.37820085760E+03  0.57901115357E+02  0.45142772783E+03  0.80447454942E+02 0.  0.
         13    1    3    3    0    0 -0.23210465114E+03  0.38132463697E+03  0.71623095059E+03  0.84395960948E+03  0.00000000000E+00 0. -1.
        -13    1    3    3    0    0 -0.17303874530E+02  0.68297936466E+02  0.64470562230E+02  0.95501233466E+02  0.00000000000E+00 0.  1.
          4    1    6    6  502    0 -0.13437197247E+03 -0.29502462149E+03  0.40599828045E+02  0.32671654428E+03  0.00000000000E+00 0. -1.
          3    1    5    5  503    0  0.46190775285E+03 -0.67122497807E+02 -0.43177603121E+03  0.63584175939E+03  0.00000000000E+00 0. -1.
         -4    1    5    5    0  503  0.13170382201E+02 -0.42992180289E+01  0.16145571997E+01  0.13948083665E+02  0.00000000000E+00 0.  1.
         -3    1    6    6    0  502 -0.91297636917E+02 -0.83176236113E+02  0.17301287311E+02  0.12471118355E+03  0.00000000000E+00 0.  1.
<mgrwt>
<rscale>  0 0.19993860E+04</rscale>
<asrwt>0</asrwt>
<pdfrwt beam="1">  1        1 0.18839381E+00 0.19993860E+04</pdfrwt>
<pdfrwt beam="2">  1       -1 0.12555671E+00 0.19993860E+04</pdfrwt>
<totfact> 0.52650549E+00</totfact>
</mgrwt>
</event>
<event>
12    1  0.1489233E-007  0.1730324E+04  0.7818608E-02  0.8744256E-01
          2   -1    0    0  501    0  0.00000000000E+00  0.00000000000E+00  0.28346052313E+04  0.28346052313E+04  0.00000000000E+00 0. -1.
         -2   -1    0    0    0  501 -0.00000000000E+00 -0.00000000000E+00 -0.26405980860E+03  0.26405980860E+03  0.00000000000E+00 0.  1.
         23    2    1    2    0    0  0.15460924113E+02 -0.76858275522E+02 -0.17475904261E+03  0.21370722142E+03  0.94783009153E+02 0.  0.
        254    2    1    2    0    0 -0.15460924113E+02  0.76858275522E+02  0.27453044653E+04  0.28849578185E+04  0.88325464761E+03 0.  0.
        -24    2    4    4    0    0  0.39999138200E+03 -0.76842053533E+02  0.10036563120E+04  0.10861947572E+04  0.81211151994E+02 0.  0.
         24    2    4    4    0    0 -0.41545230611E+03  0.15370032905E+03  0.17416481534E+04  0.17987630613E+04  0.77368279821E+02 0.  0.
         11    1    3    3    0    0 -0.34324072435E+02 -0.69790036765E+01 -0.33716605254E+02  0.48617465078E+02  0.00000000000E+00 0. -1.
        -11    1    3    3    0    0  0.49784996547E+02 -0.69879271846E+02 -0.14104243735E+03  0.16508975634E+03  0.00000000000E+00 0.  1.
          4    1    6    6  502    0 -0.23364382123E+03  0.10322213816E+03  0.11379406559E+04  0.11662560530E+04  0.00000000000E+00 0. -1.
          1    1    5    5  503    0  0.12618252649E+03 -0.20180247954E+02  0.22359175329E+03  0.25753163794E+03  0.00000000000E+00 0. -1.
         -2    1    5    5    0  503  0.27380885551E+03 -0.56661805579E+02  0.78006455866E+03  0.82866311928E+03  0.00000000000E+00 0.  1.
         -3    1    6    6    0  502 -0.18180848488E+03  0.50478190893E+02  0.60370749752E+03  0.63250700825E+03  0.00000000000E+00 0.  1.
<mgrwt>
<rscale>  0 0.17303240E+04</rscale>
<asrwt>0</asrwt>
<pdfrwt beam="1">  1        2 0.43609309E+00 0.17303240E+04</pdfrwt>
<pdfrwt beam="2">  1       -2 0.40624588E-01 0.17303240E+04</pdfrwt>
<totfact> 0.12038923E+01</totfact>
</mgrwt>
</event>
<event>
12    1  0.1489233E-007  0.2192896E+04  0.7818608E-02  0.8521391E-01
          2   -1    0    0  501    0  0.00000000000E+00  0.00000000000E+00  0.59194679243E+03  0.59194679243E+03  0.00000000000E+00 0.  1.
         -2   -1    0    0    0  501 -0.00000000000E+00 -0.00000000000E+00 -0.20309236699E+04  0.20309236699E+04  0.00000000000E+00 0. -1.
         23    2    1    2    0    0  0.63965156551E+02  0.71486617907E+03 -0.12659389047E+04  0.14581306132E+04  0.91751727328E+02 0.  0.
        254    2    1    2    0    0 -0.63965156551E+02 -0.71486617907E+03 -0.17303797276E+03  0.11647398491E+04  0.90086157700E+03 0.  0.
        -24    2    4    4    0    0  0.13677508536E+03 -0.35774044231E+02 -0.38788904172E+03  0.42043490502E+03  0.79500908526E+02 0.  0.
         24    2    4    4    0    0 -0.20074024191E+03 -0.67909213484E+03  0.21485106896E+03  0.74430494411E+03  0.79787816559E+02 0.  0.
         11    1    3    3    0    0  0.27579306873E+01  0.69222604320E+01 -0.43791100299E+02  0.44420539580E+02  0.00000000000E+00 0.  1.
        -11    1    3    3    0    0  0.61207225864E+02  0.70794391864E+03 -0.12221478044E+04  0.14137100737E+04  0.00000000000E+00 0. -1.
          4    1    6    6  502    0 -0.16542658233E+02 -0.86637797593E+02  0.53795413923E+02  0.10331366837E+03  0.00000000000E+00 0. -1.
          1    1    5    5  503    0  0.20126586785E+02  0.23480821250E+02 -0.62689440841E+02  0.69902749983E+02  0.00000000000E+00 0. -1.
         -2    1    5    5    0  503  0.11664849858E+03 -0.59254865481E+02 -0.32519960088E+03  0.35053215504E+03  0.00000000000E+00 0.  1.
         -3    1    6    6    0  502 -0.18419758368E+03 -0.59245433725E+03  0.16105565504E+03  0.64099127574E+03  0.00000000000E+00 0.  1.
<mgrwt>
<rscale>  0 0.21928965E+04</rscale>
<asrwt>0</asrwt>
<pdfrwt beam="1">  1        2 0.91068738E-01 0.21928965E+04</pdfrwt>
<pdfrwt beam="2">  1       -2 0.31244979E+00 0.21928965E+04</pdfrwt>
<totfact> 0.12299301E+00</totfact>
</mgrwt>
</event>
<event>
12    1  0.1489233E-007  0.1173695E+04  0.7818608E-02  0.9136198E-01
          1   -1    0    0  501    0  0.00000000000E+00  0.00000000000E+00  0.18140495265E+04  0.18140495265E+04  0.00000000000E+00 0. -1.
         -1   -1    0    0    0  501 -0.00000000000E+00 -0.00000000000E+00 -0.18984612628E+03  0.18984612628E+03  0.00000000000E+00 0.  1.
         23    2    1    2    0    0 -0.14665556874E+03 -0.16102523637E+03  0.24292642686E+03  0.33900065430E+03  0.92039188148E+02 0.  0.
        254    2    1    2    0    0  0.14665556874E+03  0.16102523637E+03  0.13812769734E+04  0.16648949985E+04  0.90361069950E+03 0.  0.
        -24    2    4    4    0    0 -0.20834475327E+03  0.18409242216E+03  0.62530646181E+02  0.29672082936E+03  0.82677764548E+02 0.  0.
         24    2    4    4    0    0  0.35500032201E+03 -0.23067185790E+02  0.13187463272E+04  0.13681741692E+04  0.79065529278E+02 0.  0.
         11    1    3    3    0    0 -0.20559910903E+02 -0.11540425104E+02  0.83261569951E+02  0.86535428459E+02  0.00000000000E+00 0. -1.
        -11    1    3    3    0    0 -0.12609565784E+03 -0.14948481127E+03  0.15966485691E+03  0.25246522584E+03  0.00000000000E+00 0.  1.
          2    1    6    6  502    0  0.17155953583E+03 -0.15637916327E+02  0.49198336286E+03  0.52127233582E+03  0.00000000000E+00 0. -1.
          1    1    5    5  503    0 -0.99751564282E+02  0.63642574404E+02  0.64031472496E+02  0.13453914421E+03  0.00000000000E+00 0. -1.
         -2    1    5    5    0  503 -0.10859318899E+03  0.12044984776E+03 -0.15008263149E+01  0.16218168515E+03  0.00000000000E+00 0.  1.
         -1    1    6    6    0  502  0.18344078617E+03 -0.74292694630E+01  0.82676296437E+03  0.84690183335E+03  0.00000000000E+00 0.  1.
<mgrwt>
<rscale>  0 0.11736955E+04</rscale>
<asrwt>0</asrwt>
<pdfrwt beam="1">  1        1 0.27908453E+00 0.11736955E+04</pdfrwt>
<pdfrwt beam="2">  1       -1 0.29207098E-01 0.11736955E+04</pdfrwt>
<totfact> 0.42303665E+01</totfact>
</mgrwt>
</event>
<event>
12    1  0.1489233E-007  0.2121765E+04  0.7818608E-02  0.8551716E-01
          1   -1    0    0  501    0  0.00000000000E+00  0.00000000000E+00  0.25762142957E+04  0.25762142957E+04  0.00000000000E+00 0. -1.
         -1   -1    0    0    0  501 -0.00000000000E+00 -0.00000000000E+00 -0.43687032838E+03  0.43687032838E+03  0.00000000000E+00 0.  1.
         23    2    1    2    0    0  0.40262430199E+03 -0.76842970924E+03  0.99733661905E+03  0.13250191984E+04  0.91678775214E+02 0.  0.
        254    2    1    2    0    0 -0.40262430199E+03  0.76842970924E+03  0.11420073483E+04  0.16880654257E+04  0.89038955032E+03 0.  0.
        -24    2    4    4    0    0 -0.46722790240E+03  0.93307551747E+03  0.99600677894E+03  0.14450905540E+04  0.85588383869E+02 0.  0.
         24    2    4    4    0    0  0.64603600414E+02 -0.16464580824E+03  0.14600056937E+03  0.24297487173E+03  0.80241851161E+02 0.  0.
         11    1    3    3    0    0  0.46192780110E+02 -0.68223426087E+02  0.13725315367E+03  0.16008321896E+03  0.00000000000E+00 0. -1.
        -11    1    3    3    0    0  0.35643152188E+03 -0.70020628315E+03  0.86008346538E+03  0.11649359794E+04  0.00000000000E+00 0.  1.
          4    1    6    6  502    0  0.44486543387E+02 -0.13087333062E+03  0.64596888630E+02  0.15257666673E+03  0.00000000000E+00 0. -1.
          1    1    5    5  503    0 -0.39064068816E+03  0.73521366060E+03  0.75382209047E+03  0.11231148730E+04  0.00000000000E+00 0. -1.
         -2    1    5    5    0  503 -0.76587214239E+02  0.19786185688E+03  0.24218468847E+03  0.32197568095E+03  0.00000000000E+00 0.  1.
         -3    1    6    6    0  502  0.20117057027E+02 -0.33772477612E+02  0.81403680744E+02  0.90398204994E+02  0.00000000000E+00 0.  1.
<mgrwt>
<rscale>  0 0.21217649E+04</rscale>
<asrwt>0</asrwt>
<pdfrwt beam="1">  1        1 0.39634065E+00 0.21217649E+04</pdfrwt>
<pdfrwt beam="2">  1       -1 0.67210822E-01 0.21217649E+04</pdfrwt>
<totfact> 0.24684408E+00</totfact>
</mgrwt>
</event>
<event>
12    1  0.1489233E-007  0.2201822E+04  0.7818608E-02  0.8517670E-01
          2   -1    0    0  501    0  0.00000000000E+00  0.00000000000E+00  0.16776504692E+04  0.16776504692E+04  0.00000000000E+00 0.  1.
         -2   -1    0    0    0  501 -0.00000000000E+00 -0.00000000000E+00 -0.72244214592E+03  0.72244214592E+03  0.00000000000E+00 0. -1.
         23    2    1    2    0    0 -0.45923037771E+03 -0.58176692874E+03 -0.19369396685E+03  0.77118308230E+03  0.88660557450E+02 0.  0.
        254    2    1    2    0    0  0.45923037771E+03  0.58176692874E+03  0.11489022902E+04  0.16289095328E+04  0.88545157670E+03 0.  0.
        -24    2    4    4    0    0 -0.31837164006E+02 -0.19304202785E+03  0.35456278674E+03  0.41277291966E+03  0.79924238744E+02 0.  0.
         24    2    4    4    0    0  0.49106754171E+03  0.77480895659E+03  0.79433950341E+03  0.12161366132E+04  0.80850265967E+02 0.  0.
         11    1    3    3    0    0 -0.28890468428E+03 -0.35169977001E+03 -0.16227235892E+03  0.48320902651E+03  0.00000000000E+00 0. -1.
        -11    1    3    3    0    0 -0.17032569342E+03 -0.23006715873E+03 -0.31421607927E+02  0.28797405579E+03  0.00000000000E+00 0.  1.
          4    1    6    6  502    0  0.46082748224E+03  0.74650245168E+03  0.73931360363E+03  0.11472630401E+04  0.00000000000E+00 0. -1.
          1    1    5    5  503    0  0.16365436796E+02 -0.12981488727E+03  0.20071832640E+03  0.23959878762E+03  0.00000000000E+00 0. -1.
         -2    1    5    5    0  503 -0.48202600802E+02 -0.63227140575E+02  0.15384446034E+03  0.17317413204E+03  0.00000000000E+00 0.  1.
         -3    1    6    6    0  502  0.30240059470E+02  0.28306504907E+02  0.55025899786E+02  0.68873573045E+02  0.00000000000E+00 0.  1.
<mgrwt>
<rscale>  0 0.22018223E+04</rscale>
<asrwt>0</asrwt>
<pdfrwt beam="1">  1        2 0.25810007E+00 0.22018223E+04</pdfrwt>
<pdfrwt beam="2">  1       -2 0.11114495E+00 0.22018223E+04</pdfrwt>
<totfact> 0.59100130E+00</totfact>
</mgrwt>
</event>
<event>
12    1  0.1489233E-007  0.2751248E+04  0.7818608E-02  0.8318566E-01
         -2   -1    0    0    0  501 -0.00000000000E+00  0.00000000000E+00  0.10108851374E+04  0.10108851374E+04  0.00000000000E+00 0.  1.
          2   -1    0    0  501    0  0.00000000000E+00 -0.00000000000E+00 -0.18719647109E+04  0.18719647109E+04  0.00000000000E+00 0. -1.
         23    2    1    2    0    0 -0.30534467556E+03 -0.58539107366E+02 -0.16461692499E+04  0.16776874751E+04  0.89999260311E+02 0.  0.
        254    2    1    2    0    0  0.30534467556E+03  0.58539107366E+02  0.78508967645E+03  0.12051623732E+04  0.85987693752E+03 0.  0.
        -24    2    4    4    0    0  0.59030354158E+03  0.83865828944E+02  0.41131027310E+03  0.72770093014E+03  0.69862396932E+02 0.  0.
         24    2    4    4    0    0 -0.28495886601E+03 -0.25326721578E+02  0.37377940335E+03  0.47746144304E+03  0.80096124004E+02 0.  0.
         13    1    3    3    0    0 -0.46470703702E+02  0.13865236785E+02 -0.39513075007E+03  0.39809556735E+03  0.00000000000E+00 0.  1.
        -13    1    3    3    0    0 -0.25887397186E+03 -0.72404344151E+02 -0.12510384998E+04  0.12795919078E+04  0.00000000000E+00 0. -1.
          4    1    6    6  502    0 -0.13712118914E+02  0.29988670842E+01  0.60490615605E+02  0.62097745411E+02  0.00000000000E+00 0. -1.
          3    1    5    5  503    0  0.52407074528E+03  0.69926001791E+02  0.33600887084E+03  0.62645171647E+03  0.00000000000E+00 0. -1.
         -4    1    5    5    0  503  0.66232796300E+02  0.13939827153E+02  0.75301402262E+02  0.10124921367E+03  0.00000000000E+00 0.  1.
         -3    1    6    6    0  502 -0.27124674710E+03 -0.28325588662E+02  0.31328878774E+03  0.41536369763E+03  0.00000000000E+00 0.  1.
<mgrwt>
<rscale>  0 0.27512479E+04</rscale>
<asrwt>0</asrwt>
<pdfrwt beam="1">  1        2 0.28799457E+00 0.27512479E+04</pdfrwt>
<pdfrwt beam="2">  1       -2 0.15552079E+00 0.27512479E+04</pdfrwt>
<totfact> 0.18708628E+00</totfact>
</mgrwt>
</event>
<event>
12    1  0.1489233E-007  0.2104165E+04  0.7818608E-02  0.8559411E-01
          3   -1    0    0  501    0  0.00000000000E+00  0.00000000000E+00  0.59381124828E+03  0.59381124828E+03  0.00000000000E+00 0. -1.
         -3   -1    0    0    0  501 -0.00000000000E+00 -0.00000000000E+00 -0.18640230785E+04  0.18640230785E+04  0.00000000000E+00 0.  1.
         23    2    1    2    0    0 -0.29013560606E+03  0.55836535448E+03 -0.13166578862E+04  0.14621325047E+04  0.91065541494E+02 0.  0.
        254    2    1    2    0    0  0.29013560606E+03 -0.55836535448E+03  0.46446056034E+02  0.99570182209E+03  0.77026900717E+03 0.  0.
        -24    2    4    4    0    0  0.51576064322E+03 -0.50523345432E+03 -0.59509975540E+02  0.72884334556E+03  0.80008129032E+02 0.  0.
         24    2    4    4    0    0 -0.22562503716E+03 -0.53131900156E+02  0.10595603157E+03  0.26685847653E+03  0.79101894157E+02 0.  0.
         11    1    3    3    0    0  0.15128231168E+01 -0.28986585233E+01 -0.60598589913E+01  0.68856913968E+01  0.00000000000E+00 0. -1.
        -11    1    3    3    0    0 -0.29164842918E+03  0.56126401300E+03 -0.13105980273E+04  0.14552468133E+04  0.00000000000E+00 0.  1.
          2    1    6    6  502    0 -0.35848406524E+02  0.18325904797E+02  0.57587271125E+01  0.40670750852E+02  0.00000000000E+00 0. -1.
          3    1    5    5  503    0  0.19795800332E+03 -0.24876329820E+03 -0.19691208756E+02  0.31852518474E+03  0.00000000000E+00 0. -1.
         -4    1    5    5    0  503  0.31780263990E+03 -0.25647015612E+03 -0.39818766784E+02  0.41031816082E+03  0.00000000000E+00 0.  1.
         -1    1    6    6    0  502 -0.18977663064E+03 -0.71457804953E+02  0.10019730446E+03  0.22618772568E+03  0.00000000000E+00 0.  1.
<mgrwt>
<rscale>  0 0.21041653E+04</rscale>
<asrwt>0</asrwt>
<pdfrwt beam="1">  1        3 0.91355579E-01 0.21041653E+04</pdfrwt>
<pdfrwt beam="2">  1       -3 0.28677277E+00 0.21041653E+04</pdfrwt>
<totfact> 0.11703843E-01</totfact>
</mgrwt>
</event>
<event>
12    1  0.1489233E-007  0.1319967E+04  0.7818608E-02  0.9013880E-01
          1   -1    0    0  501    0  0.00000000000E+00  0.00000000000E+00  0.65207438421E+03  0.65207438421E+03  0.00000000000E+00 0. -1.
         -1   -1    0    0    0  501 -0.00000000000E+00 -0.00000000000E+00 -0.66798819240E+03  0.66798819240E+03  0.00000000000E+00 0.  1.
         23    2    1    2    0    0  0.12488183691E+03  0.32335233937E+03 -0.34044899956E+02  0.36054782073E+03  0.93185123561E+02 0.  0.
        254    2    1    2    0    0 -0.12488183691E+03 -0.32335233937E+03  0.18131091769E+02  0.95951475588E+03  0.89453206857E+03 0.  0.
        -24    2    4    4    0    0  0.98048047720E+02 -0.48588501910E+03 -0.25497601845E+03  0.56306816876E+03  0.79594731225E+02 0.  0.
         24    2    4    4    0    0 -0.22292988463E+03  0.16253267973E+03  0.27310711022E+03  0.39644658712E+03  0.80422617153E+02 0.  0.
         13    1    3    3    0    0  0.46796112355E+02  0.90676036239E+02 -0.51880728026E+02  0.11447108639E+03  0.00000000000E+00 0.  1.
        -13    1    3    3    0    0  0.78085724550E+02  0.23267630313E+03  0.17835828070E+02  0.24607673433E+03  0.00000000000E+00 0. -1.
          4    1    6    6  502    0 -0.77486648361E+02  0.86487296330E+02  0.15756267341E+03  0.19572999043E+03  0.00000000000E+00 0. -1.
          3    1    5    5  503    0  0.14367246904E+02 -0.17769839916E+02  0.12696051707E+01  0.22886609438E+02  0.00000000000E+00 0. -1.
         -4    1    5    5    0  503  0.83680800815E+02 -0.46811517919E+03 -0.25624562362E+03  0.54018155932E+03  0.00000000000E+00 0.  1.
         -3    1    6    6    0  502 -0.14544323626E+03  0.76045383403E+02  0.11554443681E+03  0.20071659670E+03  0.00000000000E+00 0.  1.
<mgrwt>
<rscale>  0 0.13199666E+04</rscale>
<asrwt>0</asrwt>
<pdfrwt beam="1">  1        1 0.10031914E+00 0.13199666E+04</pdfrwt>
<pdfrwt beam="2">  1       -1 0.10276741E+00 0.13199666E+04</pdfrwt>
<totfact> 0.26628445E+01</totfact>
</mgrwt>
</event>
<event>
12    1  0.1489233E-007  0.1740288E+04  0.7818608E-02  0.8738714E-01
         -1   -1    0    0    0  501 -0.00000000000E+00  0.00000000000E+00  0.50736495736E+03  0.50736495736E+03  0.00000000000E+00 0.  1.
          1   -1    0    0  501    0  0.00000000000E+00 -0.00000000000E+00 -0.14923202640E+04  0.14923202640E+04  0.00000000000E+00 0. -1.
         23    2    1    2    0    0 -0.84768453561E+02 -0.52604379286E+03 -0.76712932885E+03  0.93840854782E+03  0.90639024294E+02 0.  0.
        254    2    1    2    0    0  0.84768453561E+02  0.52604379286E+03 -0.21782597780E+03  0.10612766735E+04  0.89160095248E+03 0.  0.
        -24    2    4    4    0    0  0.44311711953E+02  0.22873339230E+03  0.34217288308E+03  0.42079090518E+03  0.75499744351E+02 0.  0.
         24    2    4    4    0    0  0.40456741608E+02  0.29731040056E+03 -0.55999886088E+03  0.64048576836E+03  0.81197740471E+02 0.  0.
         13    1    3    3    0    0 -0.37900026088E+02 -0.56407429433E+02 -0.11129940204E+03  0.13040616153E+03  0.00000000000E+00 0.  1.
        -13    1    3    3    0    0 -0.46868427474E+02 -0.46963636343E+03 -0.65582992681E+03  0.80800238629E+03  0.00000000000E+00 0. -1.
          4    1    6    6  502    0 -0.12345106982E+01  0.23242787445E+03 -0.39407961351E+03  0.45751828665E+03  0.00000000000E+00 0. -1.
          1    1    5    5  503    0  0.23653796768E+02  0.20342269216E+03  0.32430170638E+03  0.38355167911E+03  0.00000000000E+00 0. -1.
         -2    1    5    5    0  503  0.20657915185E+02  0.25310700146E+02  0.17871176694E+02  0.37239226067E+02  0.00000000000E+00 0.  1.
         -3    1    6    6    0  502  0.41691252307E+02  0.64882526115E+02 -0.16591924737E+03  0.18296748170E+03  0.00000000000E+00 0.  1.
<mgrwt>
<rscale>  0 0.17402885E+04</rscale>
<asrwt>0</asrwt>
<pdfrwt beam="1">  1        1 0.22958773E+00 0.17402885E+04</pdfrwt>
<pdfrwt beam="2">  1       -1 0.78056148E-01 0.17402885E+04</pdfrwt>
<totfact> 0.10322774E+01</totfact>
</mgrwt>
</event>
<event>
12    1  0.1489233E-007  0.1738715E+04  0.7818608E-02  0.8739587E-01
          1   -1    0    0  501    0  0.00000000000E+00  0.00000000000E+00  0.15342143307E+04  0.15342143307E+04  0.00000000000E+00 0. -1.
         -1   -1    0    0    0  501 -0.00000000000E+00 -0.00000000000E+00 -0.49261869184E+03  0.49261869184E+03  0.00000000000E+00 0.  1.
         23    2    1    2    0    0  0.47643355561E+03  0.34708633934E+03  0.64812108963E+03  0.88079623176E+03  0.91012060772E+02 0.  0.
        254    2    1    2    0    0 -0.47643355561E+03 -0.34708633934E+03  0.39347454919E+03  0.11460367907E+04  0.90062214331E+03 0.  0.
        -24    2    4    4    0    0 -0.11094209974E+03 -0.33999373273E+03 -0.21985219278E+03  0.42744588892E+03  0.80443231512E+02 0.  0.
         24    2    4    4    0    0 -0.36549145587E+03 -0.70926066112E+01  0.61332674198E+03  0.71859090183E+03  0.81048642064E+02 0.  0.
         13    1    3    3    0    0  0.94760514637E+02  0.78086850752E+02  0.19297543917E+03  0.22872829190E+03  0.00000000000E+00 0. -1.
        -13    1    3    3    0    0  0.38167304097E+03  0.26899948858E+03  0.45514565046E+03  0.65206793986E+03  0.00000000000E+00 0.  1.
          4    1    6    6  502    0 -0.18479445201E+03  0.66226182790E+01  0.23436347455E+03  0.29852820096E+03  0.00000000000E+00 0. -1.
          1    1    5    5  503    0 -0.22664538257E+02 -0.10304943759E+02 -0.19999796258E+02  0.31935325435E+02  0.00000000000E+00 0. -1.
         -2    1    5    5    0  503 -0.88277561479E+02 -0.32968878897E+03 -0.19985239653E+03  0.39551056348E+03  0.00000000000E+00 0.  1.
         -3    1    6    6    0  502 -0.18069700386E+03 -0.13715224890E+02  0.37896326743E+03  0.42006270087E+03  0.00000000000E+00 0.  1.
<mgrwt>
<rscale>  0 0.17387152E+04</rscale>
<asrwt>0</asrwt>
<pdfrwt beam="1">  1        1 0.23603297E+00 0.17387152E+04</pdfrwt>
<pdfrwt beam="2">  1       -1 0.75787492E-01 0.17387152E+04</pdfrwt>
<totfact> 0.10276425E+01</totfact>
</mgrwt>
</event>
<event>
12    1  0.1489233E-007  0.1582989E+04  0.7818608E-02  0.8831067E-01
         -1   -1    0    0    0  501 -0.00000000000E+00  0.00000000000E+00  0.91329503320E+03  0.91329503320E+03  0.00000000000E+00 0.  1.
          1   -1    0    0  501    0  0.00000000000E+00 -0.00000000000E+00 -0.68593794318E+03  0.68593794318E+03  0.00000000000E+00 0. -1.
         23    2    1    2    0    0  0.37908486727E+03  0.16549089671E+03  0.40888611426E+03  0.58860401696E+03  0.90411619059E+02 0.  0.
        254    2    1    2    0    0 -0.37908486727E+03 -0.16549089671E+03 -0.18152902424E+03  0.10106289594E+04  0.90406058066E+03 0.  0.
        -24    2    4    4    0    0 -0.56214202728E+03  0.11307633592E+03 -0.29649209949E+03  0.65040910432E+03  0.79589706272E+02 0.  0.
         24    2    4    4    0    0  0.18305716001E+03 -0.27856723264E+03  0.11496307526E+03  0.36021985510E+03  0.73703516910E+02 0.  0.
         13    1    3    3    0    0  0.11216507832E+03  0.93029144641E+02  0.16153426469E+03  0.21755170700E+03  0.00000000000E+00 0. -1.
        -13    1    3    3    0    0  0.26691978895E+03  0.72461752071E+02  0.24735184956E+03  0.37105230996E+03  0.00000000000E+00 0.  1.
          2    1    6    6  502    0  0.15652535936E+02 -0.58132699825E+02 -0.75856234109E+00  0.60207873962E+02  0.00000000000E+00 0. -1.
          1    1    5    5  503    0 -0.84197118270E+01  0.13652255836E+02 -0.11700848369E+02  0.19854105098E+02  0.00000000000E+00 0. -1.
         -2    1    5    5    0  503 -0.55372231545E+03  0.99424080087E+02 -0.28479125112E+03  0.63055499923E+03  0.00000000000E+00 0.  1.
         -3    1    6    6    0  502  0.16740462408E+03 -0.22043453281E+03  0.11572163760E+03  0.30001198114E+03  0.00000000000E+00 0.  1.
<mgrwt>
<rscale>  0 0.15829892E+04</rscale>
<asrwt>0</asrwt>
<pdfrwt beam="1">  1        1 0.10552891E+00 0.15829892E+04</pdfrwt>
<pdfrwt beam="2">  1       -1 0.14050693E+00 0.15829892E+04</pdfrwt>
<totfact> 0.11211005E+01</totfact>
</mgrwt>
</event>
<event>
12    1  0.1489233E-007  0.1561109E+04  0.7818608E-02  0.8844803E-01
          2   -1    0    0  501    0  0.00000000000E+00  0.00000000000E+00  0.37519560809E+04  0.37519560809E+04  0.00000000000E+00 0. -1.
         -2   -1    0    0    0  501 -0.00000000000E+00 -0.00000000000E+00 -0.16238612696E+03  0.16238612696E+03  0.00000000000E+00 0.  1.
         23    2    1    2    0    0  0.32502802632E+03  0.22293978199E+03  0.37098411980E+03  0.54896675515E+03  0.91596489122E+02 0.  0.
        254    2    1    2    0    0 -0.32502802632E+03 -0.22293978199E+03  0.32185858342E+04  0.33653754527E+04  0.90061745584E+03 0.  0.
        -24    2    4    4    0    0 -0.39517500723E+03 -0.48836013177E+03  0.26986782305E+04  0.27721241340E+04  0.84552457631E+02 0.  0.
         24    2    4    4    0    0  0.70146980904E+02  0.26542034978E+03  0.51990760370E+03  0.59325131874E+03  0.79212687094E+02 0.  0.
         11    1    3    3    0    0  0.63662414323E+02  0.56443679776E+02  0.13449271621E+03  0.15914484816E+03  0.00000000000E+00 0. -1.
        -11    1    3    3    0    0  0.26136561200E+03  0.16649610221E+03  0.23649140360E+03  0.38982190698E+03  0.00000000000E+00 0.  1.
          4    1    6    6  502    0  0.86473902019E+02  0.22841571639E+03  0.46248356846E+03  0.52301293131E+03  0.00000000000E+00 0. -1.
          1    1    5    5  503    0 -0.26553776388E+03 -0.33437047627E+03  0.16535938906E+04  0.17078309853E+04  0.00000000000E+00 0. -1.
         -2    1    5    5    0  503 -0.12963724334E+03 -0.15398965550E+03  0.10450843399E+04  0.10642931487E+04  0.00000000000E+00 0.  1.
         -3    1    6    6    0  502 -0.16326921115E+02  0.37004633395E+02  0.57424035242E+02  0.70238387433E+02  0.00000000000E+00 0.  1.
<mgrwt>
<rscale>  0 0.15611094E+04</rscale>
<asrwt>0</asrwt>
<pdfrwt beam="1">  1        2 0.57722395E+00 0.15611094E+04</pdfrwt>
<pdfrwt beam="2">  1       -2 0.24982484E-01 0.15611094E+04</pdfrwt>
<totfact> 0.75015683E+00</totfact>
</mgrwt>
</event>
<event>
12    1  0.1489233E-007  0.1555915E+04  0.7818608E-02  0.8848099E-01
          2   -1    0    0  501    0  0.00000000000E+00  0.00000000000E+00  0.74353229196E+03  0.74353229196E+03  0.00000000000E+00 0.  1.
         -2   -1    0    0    0  501 -0.00000000000E+00 -0.00000000000E+00 -0.81397629390E+03  0.81397629390E+03  0.00000000000E+00 0. -1.
         23    2    1    2    0    0  0.30203547211E+03  0.35236289158E+03  0.18258255021E+03  0.50753790315E+03  0.94198204425E+02 0.  0.
        254    2    1    2    0    0 -0.30203547211E+03 -0.35236289158E+03 -0.25302655215E+03  0.10499706827E+04  0.90721054044E+03 0.  0.
        -24    2    4    4    0    0 -0.47585310635E+03 -0.50772819474E+02  0.15404086879E+03  0.50871632901E+03  0.77779535372E+02 0.  0.
         24    2    4    4    0    0  0.17381763424E+03 -0.30159007211E+03 -0.40706742094E+03  0.54125435370E+03  0.77995183472E+02 0.  0.
         11    1    3    3    0    0  0.22321697653E+03  0.20477775469E+03  0.14602094331E+03  0.33627646857E+03  0.00000000000E+00 0.  1.
        -11    1    3    3    0    0  0.78818495574E+02  0.14758513689E+03  0.36561606906E+02  0.17126143458E+03  0.00000000000E+00 0. -1.
          2    1    6    6  502    0  0.15650792147E+03 -0.23106892796E+03 -0.28275963395E+03  0.39729156741E+03  0.00000000000E+00 0. -1.
          3    1    5    5  503    0 -0.13339881960E+03 -0.41630792870E+02  0.21471521087E+02  0.14138385411E+03  0.00000000000E+00 0. -1.
         -4    1    5    5    0  503 -0.34245428675E+03 -0.91420266041E+01  0.13256934770E+03  0.36733247490E+03  0.00000000000E+00 0.  1.
         -1    1    6    6    0  502  0.17309712773E+02 -0.70521144151E+02 -0.12430778699E+03  0.14396278629E+03  0.00000000000E+00 0.  1.
<mgrwt>
<rscale>  0 0.15559147E+04</rscale>
<asrwt>0</asrwt>
<pdfrwt beam="1">  1        2 0.11438958E+00 0.15559147E+04</pdfrwt>
<pdfrwt beam="2">  1       -2 0.12522712E+00 0.15559147E+04</pdfrwt>
<totfact> 0.17412749E+01</totfact>
</mgrwt>
</event>
<event>
12    1  0.1489233E-007  0.1490589E+04  0.7818608E-02  0.8890736E-01
          2   -1    0    0  501    0  0.00000000000E+00  0.00000000000E+00  0.13851643450E+04  0.13851643450E+04  0.00000000000E+00 0. -1.
         -2   -1    0    0    0  501 -0.00000000000E+00 -0.00000000000E+00 -0.40100918464E+03  0.40100918464E+03  0.00000000000E+00 0.  1.
         23    2    1    2    0    0  0.51482162936E+02 -0.18087860250E+03  0.82506046335E+03  0.85099238385E+03  0.89976592668E+02 0.  0.
        254    2    1    2    0    0 -0.51482162936E+02  0.18087860250E+03  0.15909469700E+03  0.93518114578E+03  0.90215584622E+03 0.  0.
        -24    2    4    4    0    0  0.17416653316E+03  0.33514229901E+02  0.47377482014E+03  0.51340038525E+03  0.87522514263E+02 0.  0.
         24    2    4    4    0    0 -0.22564869609E+03  0.14736437260E+03 -0.31468012314E+03  0.42178076053E+03  0.79005301663E+02 0.  0.
         11    1    3    3    0    0  0.30221027584E+01  0.35318173839E+01  0.13483316226E+03  0.13491326282E+03  0.00000000000E+00 0.  1.
        -11    1    3    3    0    0  0.48460060178E+02 -0.18441041989E+03  0.69022730109E+03  0.71607912103E+03  0.00000000000E+00 0. -1.
          4    1    6    6  502    0 -0.23155075626E+03  0.14281053575E+03 -0.29795591684E+03  0.40347035855E+03  0.00000000000E+00 0. -1.
          3    1    5    5  503    0  0.54987978103E+02  0.44278290207E+02  0.24826786566E+03  0.25811078598E+03  0.00000000000E+00 0. -1.
         -4    1    5    5    0  503  0.11917855505E+03 -0.10764060306E+02  0.22550695448E+03  0.25528959927E+03  0.00000000000E+00 0.  1.
         -3    1    6    6    0  502  0.59020601688E+01  0.45538368557E+01 -0.16724206300E+02  0.18310401981E+02  0.00000000000E+00 0.  1.
<mgrwt>
<rscale>  0 0.14905886E+04</rscale>
<asrwt>0</asrwt>
<pdfrwt beam="1">  1        2 0.21310221E+00 0.14905886E+04</pdfrwt>
<pdfrwt beam="2">  1       -2 0.61693721E-01 0.14905886E+04</pdfrwt>
<totfact> 0.34829941E+01</totfact>
</mgrwt>
</event>
<event>
12    1  0.1489233E-007  0.1675088E+04  0.7818608E-02  0.8775702E-01
          1   -1    0    0  501    0  0.00000000000E+00  0.00000000000E+00  0.17276797862E+04  0.17276797862E+04  0.00000000000E+00 0. -1.
         -1   -1    0    0    0  501 -0.00000000000E+00 -0.00000000000E+00 -0.40602412432E+03  0.40602412432E+03  0.00000000000E+00 0.  1.
         23    2    1    2    0    0  0.15656503095E+03 -0.24328174480E+03  0.10891853633E+04  0.11306480532E+04  0.91332624801E+02 0.  0.
        254    2    1    2    0    0 -0.15656503095E+03  0.24328174480E+03  0.23247029860E+03  0.10030558573E+04  0.93186908786E+03 0.  0.
        -24    2    4    4    0    0 -0.18060544707E+03  0.58540779744E+03  0.19707627811E+03  0.64848723320E+03  0.79849955638E+02 0.  0.
         24    2    4    4    0    0  0.24040416119E+02 -0.34212605264E+03  0.35394020490E+02  0.35456862412E+03  0.82692170258E+02 0.  0.
         11    1    3    3    0    0  0.13799307076E+03 -0.15989378230E+03  0.65748082084E+03  0.69057160307E+03  0.00000000000E+00 0. -1.
        -11    1    3    3    0    0  0.18571960197E+02 -0.83387962503E+02  0.43170454248E+03  0.44007645017E+03  0.00000000000E+00 0.  1.
          4    1    6    6  502    0  0.34993027453E+00 -0.16522024564E+02 -0.17247776856E+02  0.23886932691E+02  0.00000000000E+00 0. -1.
          3    1    5    5  503    0 -0.63903608345E+02  0.34125413363E+03  0.11327947331E+03  0.36519897858E+03  0.00000000000E+00 0. -1.
         -4    1    5    5    0  503 -0.11670183873E+03  0.24415366381E+03  0.83796804799E+02  0.28328825462E+03  0.00000000000E+00 0.  1.
         -3    1    6    6    0  502  0.23690485844E+02 -0.32560402808E+03  0.52641797346E+02  0.33068169143E+03  0.00000000000E+00 0.  1.
<mgrwt>
<rscale>  0 0.16750877E+04</rscale>
<asrwt>0</asrwt>
<pdfrwt beam="1">  1        1 0.26579689E+00 0.16750877E+04</pdfrwt>
<pdfrwt beam="2">  1       -1 0.62465251E-01 0.16750877E+04</pdfrwt>
<totfact> 0.11311369E+01</totfact>
</mgrwt>
</event>
<event>
12    1  0.1489233E-007  0.1136871E+04  0.7818608E-02  0.9169982E-01
          2   -1    0    0  501    0  0.00000000000E+00  0.00000000000E+00  0.15451810505E+04  0.15451810505E+04  0.00000000000E+00 0. -1.
         -2   -1    0    0    0  501 -0.00000000000E+00 -0.00000000000E+00 -0.20911404076E+03  0.20911404076E+03  0.00000000000E+00 0.  1.
         23    2    1    2    0    0  0.46666341770E+02 -0.12031816048E+03  0.28268276867E+02  0.15898615821E+03  0.88449397005E+02 0.  0.
        254    2    1    2    0    0 -0.46666341770E+02  0.12031816048E+03  0.13077987329E+04  0.15953089331E+04  0.90444395016E+03 0.  0.
        -24    2    4    4    0    0  0.19863194299E+03 -0.20034147904E+03  0.86075470224E+02  0.30605115454E+03  0.81651488773E+02 0.  0.
         24    2    4    4    0    0 -0.24529828476E+03  0.32065963952E+03  0.12217232627E+04  0.12892577785E+04  0.81142073123E+02 0.  0.
         11    1    3    3    0    0  0.44940349031E+02 -0.11209818565E+02  0.16771043627E+02  0.49260155376E+02  0.00000000000E+00 0. -1.
        -11    1    3    3    0    0  0.17259927396E+01 -0.10910834192E+03  0.11497233240E+02  0.10972600284E+03  0.00000000000E+00 0.  1.
          2    1    6    6  502    0 -0.19687906500E+03  0.27340108429E+03  0.10942389571E+04  0.11449316199E+04  0.00000000000E+00 0. -1.
          3    1    5    5  503    0  0.16532799459E+03 -0.14981769062E+03  0.32958250798E+02  0.22553255312E+03  0.00000000000E+00 0. -1.
         -4    1    5    5    0  503  0.33303948392E+02 -0.50523788422E+02  0.53117219426E+02  0.80518601419E+02  0.00000000000E+00 0.  1.
         -1    1    6    6    0  502 -0.48419219754E+02  0.47258555235E+02  0.12748430559E+03  0.14432615860E+03  0.00000000000E+00 0.  1.
<mgrwt>
<rscale>  0 0.11368712E+04</rscale>
<asrwt>0</asrwt>
<pdfrwt beam="1">  1        2 0.23772015E+00 0.11368712E+04</pdfrwt>
<pdfrwt beam="2">  1       -2 0.32171392E-01 0.11368712E+04</pdfrwt>
<totfact> 0.10658096E+02</totfact>
</mgrwt>
</event>
<event>
12    1  0.1489233E-007  0.3340080E+04  0.7818608E-02  0.8152771E-01
         -1   -1    0    0    0  501 -0.00000000000E+00  0.00000000000E+00  0.11620961792E+04  0.11620961792E+04  0.00000000000E+00 0.  1.
          1   -1    0    0  501    0  0.00000000000E+00 -0.00000000000E+00 -0.24000029034E+04  0.24000029034E+04  0.00000000000E+00 0. -1.
         23    2    1    2    0    0  0.91483193931E+03  0.56478446958E+03  0.61301078156E+03  0.12410570446E+04  0.92419669950E+02 0.  0.
        254    2    1    2    0    0 -0.91483193931E+03 -0.56478446958E+03 -0.18509175058E+04  0.23210420380E+04  0.89746395745E+03 0.  0.
        -24    2    4    4    0    0 -0.22307722401E+03  0.20499114322E+03 -0.19993152672E+03  0.37069979314E+03  0.75238983172E+02 0.  0.
         24    2    4    4    0    0 -0.69175471530E+03 -0.76977561280E+03 -0.16509859790E+04  0.19503422449E+04  0.83672510535E+02 0.  0.
         11    1    3    3    0    0  0.71508361945E+03  0.45450910066E+03  0.44016744091E+03  0.95481437014E+03  0.00000000000E+00 0.  1.
        -11    1    3    3    0    0  0.19974831986E+03  0.11027536892E+03  0.17284334065E+03  0.28624267447E+03  0.00000000000E+00 0. -1.
          2    1    6    6  502    0 -0.33835650964E+02 -0.39673683488E+02 -0.12272281578E+03  0.13334069877E+03  0.00000000000E+00 0. -1.
          1    1    5    5  503    0 -0.84150398424E+02  0.68409493735E+02 -0.30882412169E+02  0.11276024020E+03  0.00000000000E+00 0. -1.
         -2    1    5    5    0  503 -0.13892682559E+03  0.13658164948E+03 -0.16904911455E+03  0.25793955294E+03  0.00000000000E+00 0.  1.
         -1    1    6    6    0  502 -0.65791906434E+03 -0.73010192931E+03 -0.15282631633E+04  0.18170015461E+04  0.00000000000E+00 0.  1.
<mgrwt>
<rscale>  0 0.33400804E+04</rscale>
<asrwt>0</asrwt>
<pdfrwt beam="1">  1        1 0.36923122E+00 0.33400804E+04</pdfrwt>
<pdfrwt beam="2">  1       -1 0.17878403E+00 0.33400804E+04</pdfrwt>
<totfact> 0.27889471E-01</totfact>
</mgrwt>
</event>
<event>
12    1  0.1489233E-007  0.1192208E+04  0.7818608E-02  0.9119704E-01
         -2   -1    0    0    0  501 -0.00000000000E+00  0.00000000000E+00  0.23524108761E+03  0.23524108761E+03  0.00000000000E+00 0.  1.
          2   -1    0    0  501    0  0.00000000000E+00 -0.00000000000E+00 -0.15105365547E+04  0.15105365547E+04  0.00000000000E+00 0. -1.
         23    2    1    2    0    0 -0.11295005189E+03 -0.98365186480E+02 -0.11645635229E+02  0.17594689899E+03  0.91587478998E+02 0.  0.
        254    2    1    2    0    0  0.11295005189E+03  0.98365186480E+02 -0.12636498319E+04  0.15698307433E+04  0.91930639124E+03 0.  0.
        -24    2    4    4    0    0 -0.37999125093E+03  0.17499392290E+03 -0.55572525584E+03  0.70006016193E+03  0.78977506383E+02 0.  0.
         24    2    4    4    0    0  0.49294130282E+03 -0.76628736424E+02 -0.70792457604E+03  0.86977058140E+03  0.80501972846E+02 0.  0.
         11    1    3    3    0    0 -0.34331215460E+02  0.85861497686E+01 -0.23808884886E+02  0.42652283905E+02  0.00000000000E+00 0. -1.
        -11    1    3    3    0    0 -0.78618836433E+02 -0.10695133625E+03  0.12163249657E+02  0.13329461508E+03  0.00000000000E+00 0.  1.
          2    1    6    6  502    0  0.38880526011E+03 -0.87507486069E+02 -0.59101530594E+03  0.71282970075E+03  0.00000000000E+00 0. -1.
          3    1    5    5  503    0 -0.77924189687E+02  0.61233746796E+02 -0.93208908147E+02  0.13605018061E+03  0.00000000000E+00 0. -1.
         -4    1    5    5    0  503 -0.30206706124E+03  0.11376017611E+03 -0.46251634769E+03  0.56400998133E+03  0.00000000000E+00 0.  1.
         -3    1    6    6    0  502  0.10413604271E+03  0.10878749645E+02 -0.11690927010E+03  0.15694088065E+03  0.00000000000E+00 0.  1.
<mgrwt>
<rscale>  0 0.11922085E+04</rscale>
<asrwt>0</asrwt>
<pdfrwt beam="1">  1        2 0.23239024E+00 0.11922085E+04</pdfrwt>
<pdfrwt beam="2">  1       -2 0.36190937E-01 0.11922085E+04</pdfrwt>
<totfact> 0.88750529E+01</totfact>
</mgrwt>
</event>
<event>
12    1  0.1489233E-007  0.1460908E+04  0.7818608E-02  0.8910873E-01
         -3   -1    0    0    0  501 -0.00000000000E+00  0.00000000000E+00  0.78899903460E+03  0.78899903460E+03  0.00000000000E+00 0.  1.
          3   -1    0    0  501    0  0.00000000000E+00 -0.00000000000E+00 -0.67625355706E+03  0.67625355706E+03  0.00000000000E+00 0. -1.
         23    2    1    2    0    0  0.28851856330E+03 -0.12721038276E+03 -0.28383498469E+03  0.43437114603E+03  0.93223125461E+02 0.  0.
        254    2    1    2    0    0 -0.28851856330E+03  0.12721038276E+03  0.39658046224E+03  0.10308814456E+04  0.89778340876E+03 0.  0.
        -24    2    4    4    0    0 -0.57165407377E+03  0.25405118707E+03  0.24477367587E+03  0.67629517622E+03  0.78298322232E+02 0.  0.
         24    2    4    4    0    0  0.28313551046E+03 -0.12684080431E+03  0.15180678636E+03  0.35458626941E+03  0.80198598140E+02 0.  0.
         13    1    3    3    0    0  0.16118933512E+03 -0.88563076432E+02 -0.22010942889E+03  0.28683371655E+03  0.00000000000E+00 0. -1.
        -13    1    3    3    0    0  0.12732922819E+03 -0.38647306331E+02 -0.63725555795E+02  0.14753742948E+03  0.00000000000E+00 0.  1.
          4    1    6    6  502    0  0.73173639096E+01  0.99847083528E+01  0.82222415634E+01  0.14860803202E+02  0.00000000000E+00 0. -1.
          3    1    5    5  503    0 -0.39097731455E+02  0.11094380928E+02  0.37569452790E+02  0.55346017707E+02  0.00000000000E+00 0. -1.
         -4    1    5    5    0  503 -0.53255634231E+03  0.24295680615E+03  0.20720422308E+03  0.62094915851E+03  0.00000000000E+00 0.  1.
         -3    1    6    6    0  502  0.27581814655E+03 -0.13682551266E+03  0.14358454480E+03  0.33972546621E+03  0.00000000000E+00 0.  1.
<mgrwt>
<rscale>  0 0.14609085E+04</rscale>
<asrwt>0</asrwt>
<pdfrwt beam="1">  1        3 0.10403901E+00 0.14609085E+04</pdfrwt>
<pdfrwt beam="2">  1       -3 0.12138447E+00 0.14609085E+04</pdfrwt>
<totfact> 0.11123451E+00</totfact>
</mgrwt>
</event>
<event>
12    1  0.1489233E-007  0.2423154E+04  0.7818608E-02  0.8430886E-01
          1   -1    0    0  501    0  0.00000000000E+00  0.00000000000E+00  0.16201758040E+04  0.16201758040E+04  0.00000000000E+00 0. -1.
         -1   -1    0    0    0  501 -0.00000000000E+00 -0.00000000000E+00 -0.90602431716E+03  0.90602431716E+03  0.00000000000E+00 0.  1.
         23    2    1    2    0    0 -0.47399236492E+03  0.32692134661E+03 -0.59730917922E+03  0.83438450719E+03  0.88729484373E+02 0.  0.
        254    2    1    2    0    0  0.47399236492E+03 -0.32692134661E+03  0.13114606661E+04  0.16918156140E+04  0.90042471321E+03 0.  0.
        -24    2    4    4    0    0  0.71704522635E+03 -0.21806816012E+03  0.73966011526E+03  0.10560526685E+04  0.80265642812E+02 0.  0.
         24    2    4    4    0    0 -0.24305286143E+03 -0.10885318649E+03  0.57180055080E+03  0.63576294548E+03  0.79466617494E+02 0.  0.
         11    1    3    3    0    0 -0.29864777615E+02  0.24586024005E+02 -0.78490899222E+02  0.87505421427E+02  0.00000000000E+00 0. -1.
        -11    1    3    3    0    0 -0.44412758731E+03  0.30233532260E+03 -0.51881828000E+03  0.74687908577E+03  0.00000000000E+00 0.  1.
          4    1    6    6  502    0 -0.10794466902E+03 -0.82404773403E+02  0.34061573172E+03  0.36669016205E+03  0.00000000000E+00 0. -1.
          3    1    5    5  503    0  0.50158253739E+03 -0.15540984621E+03  0.46512727298E+03  0.70148459868E+03  0.00000000000E+00 0. -1.
         -4    1    5    5    0  503  0.21546268896E+03 -0.62658313914E+02  0.27453284227E+03  0.35456806980E+03  0.00000000000E+00 0.  1.
         -3    1    6    6    0  502 -0.13510819241E+03 -0.26448413082E+02  0.23118481908E+03  0.26907278344E+03  0.00000000000E+00 0.  1.
<mgrwt>
<rscale>  0 0.24231539E+04</rscale>
<asrwt>0</asrwt>
<pdfrwt beam="1">  1        1 0.24925782E+00 0.24231539E+04</pdfrwt>
<pdfrwt beam="2">  1       -1 0.13938836E+00 0.24231539E+04</pdfrwt>
<totfact> 0.20494574E+00</totfact>
</mgrwt>
</event>
<event>
12    1  0.1489233E-007  0.2395609E+04  0.7818608E-02  0.8441149E-01
          2   -1    0    0  501    0  0.00000000000E+00  0.00000000000E+00  0.12021903781E+04  0.12021903781E+04  0.00000000000E+00 0.  1.
         -2   -1    0    0    0  501 -0.00000000000E+00 -0.00000000000E+00 -0.11934347791E+04  0.11934347791E+04  0.00000000000E+00 0. -1.
         23    2    1    2    0    0  0.47396013741E+03  0.32922871756E+03 -0.84494404836E+03  0.10278412896E+04  0.97455176337E+02 0.  0.
        254    2    1    2    0    0 -0.47396013741E+03 -0.32922871756E+03  0.85369964737E+03  0.13677838676E+04  0.89944419510E+03 0.  0.
        -24    2    4    4    0    0 -0.35625847064E+03  0.26890279114E+03  0.34873344489E+03  0.57212973632E+03  0.80551912508E+02 0.  0.
         24    2    4    4    0    0 -0.11770166677E+03 -0.59813150871E+03  0.50496620249E+03  0.79565413123E+03  0.80371928111E+02 0.  0.
         13    1    3    3    0    0  0.36198791489E+03  0.25594418722E+03 -0.71513606162E+03  0.84140493470E+03  0.00000000000E+00 0. -1.
        -13    1    3    3    0    0  0.11197222252E+03  0.73284530339E+02 -0.12980798674E+03  0.18643635489E+03  0.00000000000E+00 0.  1.
          4    1    6    6  502    0 -0.34833373925E+02 -0.26399205093E+03  0.26746620164E+03  0.37741666088E+03  0.00000000000E+00 0. -1.
          3    1    5    5  503    0 -0.52816369171E+02  0.47932310310E+02  0.22457721695E+02  0.74775828232E+02  0.00000000000E+00 0. -1.
         -4    1    5    5    0  503 -0.30344210147E+03  0.22097048084E+03  0.32627572319E+03  0.49735390809E+03  0.00000000000E+00 0.  1.
         -3    1    6    6    0  502 -0.82868292845E+02 -0.33413945778E+03  0.23750000085E+03  0.41823747035E+03  0.00000000000E+00 0.  1.
<mgrwt>
<rscale>  0 0.23956092E+04</rscale>
<asrwt>0</asrwt>
<pdfrwt beam="1">  1        2 0.18495237E+00 0.23956092E+04</pdfrwt>
<pdfrwt beam="2">  1       -2 0.18360535E+00 0.23956092E+04</pdfrwt>
<totfact> 0.29092623E+00</totfact>
</mgrwt>
</event>
<event>
12    1  0.1489233E-007  0.1522995E+04  0.7818608E-02  0.8869304E-01
          1   -1    0    0  501    0  0.00000000000E+00  0.00000000000E+00  0.18878199559E+04  0.18878199559E+04  0.00000000000E+00 0. -1.
         -1   -1    0    0    0  501 -0.00000000000E+00 -0.00000000000E+00 -0.30716835257E+03  0.30716835257E+03  0.00000000000E+00 0.  1.
         23    2    1    2    0    0  0.26377097691E+03 -0.33030261973E+03  0.17020081791E+03  0.46469760218E+03  0.91107596815E+02 0.  0.
        254    2    1    2    0    0 -0.26377097691E+03  0.33030261973E+03  0.14104507854E+04  0.17302907063E+04  0.90876815598E+03 0.  0.
        -24    2    4    4    0    0 -0.11750428344E+03  0.50584848599E+03  0.13913888406E+04  0.14872888450E+04  0.79845197048E+02 0.  0.
         24    2    4    4    0    0 -0.14626669347E+03 -0.17554586626E+03  0.19061944871E+02  0.24300186127E+03  0.80475151832E+02 0.  0.
         13    1    3    3    0    0  0.36360201445E+02 -0.10411421979E+03  0.27599013928E+02  0.11368175131E+03  0.00000000000E+00 0. -1.
        -13    1    3    3    0    0  0.22741077546E+03 -0.22618839995E+03  0.14260180398E+03  0.35101585087E+03  0.00000000000E+00 0.  1.
          2    1    6    6  502    0 -0.38550000150E+02 -0.67524888326E+02 -0.29113499619E+02  0.83025953261E+02  0.00000000000E+00 0. -1.
          3    1    5    5  503    0 -0.37126077165E+02  0.24606759660E+03  0.76386809200E+03  0.80338164635E+03  0.00000000000E+00 0. -1.
         -4    1    5    5    0  503 -0.80378206273E+02  0.25978088939E+03  0.62752074856E+03  0.68390719868E+03  0.00000000000E+00 0.  1.
         -1    1    6    6    0  502 -0.10771669332E+03 -0.10802097793E+03  0.48175444489E+02  0.15997590801E+03  0.00000000000E+00 0.  1.
<mgrwt>
<rscale>  0 0.15229951E+04</rscale>
<asrwt>0</asrwt>
<pdfrwt beam="1">  1        1 0.29043383E+00 0.15229951E+04</pdfrwt>
<pdfrwt beam="2">  1       -1 0.47256671E-01 0.15229951E+04</pdfrwt>
<totfact> 0.15322242E+01</totfact>
</mgrwt>
</event>
<event>
12    1  0.1489233E-007  0.3255282E+04  0.7818608E-02  0.8174368E-01
         -1   -1    0    0    0  501 -0.00000000000E+00  0.00000000000E+00  0.44867975570E+04  0.44867975570E+04  0.00000000000E+00 0.  1.
          1   -1    0    0  501    0  0.00000000000E+00 -0.00000000000E+00 -0.59044696944E+03  0.59044696944E+03  0.00000000000E+00 0. -1.
         23    2    1    2    0    0 -0.27922317946E+03  0.11531055426E+03 -0.49314019187E+03  0.58532501722E+03  0.90310680867E+02 0.  0.
        254    2    1    2    0    0  0.27922317946E+03 -0.11531055426E+03  0.43894907794E+04  0.44919195092E+04  0.90468196994E+03 0.  0.
        -24    2    4    4    0    0  0.10966130705E+03  0.32459032817E+03  0.30397692693E+04  0.30601090042E+04  0.81764440718E+02 0.  0.
         24    2    4    4    0    0  0.16956187241E+03 -0.43990088243E+03  0.13497215101E+04  0.14318105050E+04  0.77904764692E+02 0.  0.
         11    1    3    3    0    0 -0.18159536753E+03  0.11981340495E+03 -0.34293949431E+03  0.40612759851E+03  0.00000000000E+00 0. -1.
        -11    1    3    3    0    0 -0.97627811930E+02 -0.45028506834E+01 -0.15020069756E+03  0.17919741871E+03  0.00000000000E+00 0.  1.
          4    1    6    6  502    0  0.54804297155E+02 -0.61638087443E+02  0.24280289629E+03  0.25642934945E+03  0.00000000000E+00 0. -1.
          3    1    5    5  503    0  0.28162860568E+02  0.16296680777E+03  0.11762813401E+04  0.11878506296E+04  0.00000000000E+00 0. -1.
         -4    1    5    5    0  503  0.81498446478E+02  0.16162352040E+03  0.18634879292E+04  0.18722583746E+04  0.00000000000E+00 0.  1.
         -3    1    6    6    0  502  0.11475757526E+03 -0.37826279499E+03  0.11069186138E+04  0.11753811556E+04  0.00000000000E+00 0.  1.
<mgrwt>
<rscale>  0 0.32552825E+04</rscale>
<asrwt>0</asrwt>
<pdfrwt beam="1">  1        1 0.90837998E-01 0.32552825E+04</pdfrwt>
<pdfrwt beam="2">  1       -1 0.69027653E+00 0.32552825E+04</pdfrwt>
<totfact> 0.62682335E-03</totfact>
</mgrwt>
</event>
<event>
12    1  0.1489233E-007  0.2562855E+04  0.7818608E-02  0.8380929E-01
         -1   -1    0    0    0  501 -0.00000000000E+00  0.00000000000E+00  0.13837053519E+04  0.13837053519E+04  0.00000000000E+00 0.  1.
          1   -1    0    0  501    0  0.00000000000E+00 -0.00000000000E+00 -0.11867093291E+04  0.11867093291E+04  0.00000000000E+00 0. -1.
         23    2    1    2    0    0 -0.30456741925E+03 -0.78990542959E+03 -0.65618390446E+03  0.10753678546E+04  0.95534316802E+02 0.  0.
        254    2    1    2    0    0  0.30456741925E+03  0.78990542959E+03  0.85317992729E+03  0.14950468264E+04  0.88912154636E+03 0.  0.
        -24    2    4    4    0    0  0.23122751065E+03  0.21232813453E+03  0.84742753645E+03  0.90720336698E+03  0.79593474174E+02 0.  0.
         24    2    4    4    0    0  0.73339908602E+02  0.57757729506E+03  0.57523908384E+01  0.58784345941E+03  0.80947938891E+02 0.  0.
         11    1    3    3    0    0 -0.10123671898E+03 -0.21196299727E+03 -0.13446598075E+03  0.27066267837E+03  0.00000000000E+00 0.  1.
        -11    1    3    3    0    0 -0.20333070027E+03 -0.57794243232E+03 -0.52171792371E+03  0.80470517624E+03  0.00000000000E+00 0. -1.
          4    1    6    6  502    0 -0.43651372240E+01  0.25936274898E+02 -0.15172548256E+02  0.30363646012E+02  0.00000000000E+00 0. -1.
          1    1    5    5  503    0  0.31743933119E+02  0.60107529602E+01  0.14209336818E+03  0.14572004571E+03  0.00000000000E+00 0. -1.
         -2    1    5    5    0  503  0.19948357753E+03  0.20631738157E+03  0.70533416827E+03  0.76148332127E+03  0.00000000000E+00 0.  1.
         -3    1    6    6    0  502  0.77705045826E+02  0.55164102016E+03  0.20924939095E+02  0.55747981340E+03  0.00000000000E+00 0.  1.
<mgrwt>
<rscale>  0 0.25628547E+04</rscale>
<asrwt>0</asrwt>
<pdfrwt beam="1">  1        1 0.18257067E+00 0.25628547E+04</pdfrwt>
<pdfrwt beam="2">  1       -1 0.21287775E+00 0.25628547E+04</pdfrwt>
<totfact> 0.11868082E+00</totfact>
</mgrwt>
</event>
<event>
12    1  0.1489233E-007  0.2263828E+04  0.7818608E-02  0.8492321E-01
         -1   -1    0    0    0  501 -0.00000000000E+00  0.00000000000E+00  0.89362651000E+03  0.89362651000E+03  0.00000000000E+00 0.  1.
          1   -1    0    0  501    0  0.00000000000E+00 -0.00000000000E+00 -0.14337416640E+04  0.14337416640E+04  0.00000000000E+00 0. -1.
         23    2    1    2    0    0 -0.22836301090E+03 -0.76403625768E+03 -0.75761051900E+03  0.11060580736E+04  0.11614514995E+03 0.  0.
        254    2    1    2    0    0  0.22836301090E+03  0.76403625768E+03  0.21749536505E+03  0.12213101004E+04  0.89910681215E+03 0.  0.
        -24    2    4    4    0    0 -0.16657722100E+03  0.37166676306E+03  0.45056562406E+03  0.61254277632E+03  0.79467716124E+02 0.  0.
         24    2    4    4    0    0  0.39494023190E+03  0.39236949462E+03 -0.23307025902E+03  0.60876732405E+03  0.79651127504E+02 0.  0.
         13    1    3    3    0    0 -0.12926023668E+03 -0.51904398281E+03 -0.57186174034E+03  0.78303302290E+03  0.00000000000E+00 0. -1.
        -13    1    3    3    0    0 -0.99102774218E+02 -0.24499227486E+03 -0.18574877866E+03  0.32302505069E+03  0.00000000000E+00 0.  1.
          2    1    6    6  502    0  0.31961574079E+03  0.30837187480E+03 -0.15041319179E+03  0.46890464190E+03  0.00000000000E+00 0. -1.
          3    1    5    5  503    0 -0.15405957270E+03  0.36085452639E+03  0.40421627644E+03  0.56333039977E+03  0.00000000000E+00 0. -1.
         -4    1    5    5    0  503 -0.12517648307E+02  0.10812236670E+02  0.46349347621E+02  0.49212376552E+02  0.00000000000E+00 0.  1.
         -1    1    6    6    0  502  0.75324491111E+02  0.83997619817E+02 -0.82657067231E+02  0.13986268215E+03  0.00000000000E+00 0.  1.
<mgrwt>
<rscale>  0 0.22638282E+04</rscale>
<asrwt>0</asrwt>
<pdfrwt beam="1">  1        1 0.22057564E+00 0.22638282E+04</pdfrwt>
<pdfrwt beam="2">  1       -1 0.13748100E+00 0.22638282E+04</pdfrwt>
<totfact> 0.28992961E+00</totfact>
</mgrwt>
</event>
<event>
12    1  0.1489233E-007  0.1745561E+04  0.7818608E-02  0.8735797E-01
         -1   -1    0    0    0  501 -0.00000000000E+00  0.00000000000E+00  0.87970012792E+03  0.87970012792E+03  0.00000000000E+00 0.  1.
          1   -1    0    0  501    0  0.00000000000E+00 -0.00000000000E+00 -0.86591576845E+03  0.86591576845E+03  0.00000000000E+00 0. -1.
         23    2    1    2    0    0  0.38706139732E+03  0.31584949381E+03 -0.39275979988E+03  0.64196422674E+03  0.90996593193E+02 0.  0.
        254    2    1    2    0    0 -0.38706139732E+03 -0.31584949381E+03  0.40654415935E+03  0.11036516696E+04  0.89620947683E+03 0.  0.
        -24    2    4    4    0    0 -0.25455597144E+03  0.28039158775E+03  0.45572908843E+02  0.38969854994E+03  0.79811557590E+02 0.  0.
         24    2    4    4    0    0 -0.13250542588E+03 -0.59624108156E+03  0.36097125050E+03  0.71395311970E+03  0.79797858448E+02 0.  0.
         13    1    3    3    0    0  0.63420193609E+01  0.15493802868E+02  0.17397553080E+01  0.16831692886E+02  0.00000000000E+00 0.  1.
        -13    1    3    3    0    0  0.38071937796E+03  0.30035569094E+03 -0.39449955519E+03  0.62513253385E+03  0.00000000000E+00 0. -1.
          4    1    6    6  502    0 -0.46112055205E+01 -0.20690279629E+01  0.12214297663E+02  0.13218667121E+02  0.00000000000E+00 0. -1.
          3    1    5    5  503    0 -0.18833609441E+03  0.19376954842E+03  0.67412217566E+02  0.27849870633E+03  0.00000000000E+00 0. -1.
         -4    1    5    5    0  503 -0.66219877033E+02  0.86622039331E+02 -0.21839308724E+02  0.11119984360E+03  0.00000000000E+00 0.  1.
         -3    1    6    6    0  502 -0.12789422036E+03 -0.59417205359E+03  0.34875695284E+03  0.70073445258E+03  0.00000000000E+00 0.  1.
<mgrwt>
<rscale>  0 0.17455615E+04</rscale>
<asrwt>0</asrwt>
<pdfrwt beam="1">  1        1 0.13321781E+00 0.17455615E+04</pdfrwt>
<pdfrwt beam="2">  1       -1 0.13533848E+00 0.17455615E+04</pdfrwt>
<totfact> 0.84271496E+00</totfact>
</mgrwt>
</event>
<event>
12    1  0.1489233E-007  0.1045499E+04  0.7818608E-02  0.9260004E-01
         -2   -1    0    0    0  501 -0.00000000000E+00  0.00000000000E+00  0.35027718487E+03  0.35027718487E+03  0.00000000000E+00 0.  1.
          2   -1    0    0  501    0  0.00000000000E+00 -0.00000000000E+00 -0.78014464631E+03  0.78014464631E+03  0.00000000000E+00 0. -1.
         23    2    1    2    0    0 -0.12730633054E+03  0.12430729073E+02 -0.26389674566E+02  0.15915536243E+03  0.90953777527E+02 0.  0.
        254    2    1    2    0    0  0.12730633054E+03 -0.12430729073E+02 -0.40347778688E+03  0.97126646874E+03  0.87418693880E+03 0.  0.
        -24    2    4    4    0    0  0.22096019451E+03  0.29056820168E+03 -0.50536331659E+03  0.62835720215E+03  0.78660055577E+02 0.  0.
         24    2    4    4    0    0 -0.93653863970E+02 -0.30299893076E+03  0.10188552972E+03  0.34290926659E+03  0.81404580171E+02 0.  0.
         11    1    3    3    0    0 -0.51270212104E+02  0.47816881178E+02  0.33076896342E+01  0.70185679348E+02  0.00000000000E+00 0.  1.
        -11    1    3    3    0    0 -0.76036118438E+02 -0.35386152106E+02 -0.29697364200E+02  0.88969683086E+02  0.00000000000E+00 0. -1.
          2    1    6    6  502    0 -0.10133843570E+03 -0.26514092062E+03  0.10819260754E+03  0.30376771828E+03  0.00000000000E+00 0. -1.
          3    1    5    5  503    0  0.17317391831E+03  0.24570978519E+03 -0.36070222484E+03  0.46954083904E+03  0.00000000000E+00 0. -1.
         -4    1    5    5    0  503  0.47786276201E+02  0.44858416495E+02 -0.14466109175E+03  0.15881636311E+03  0.00000000000E+00 0.  1.
         -1    1    6    6    0  502  0.76845717301E+01 -0.37858010133E+02 -0.63070778265E+01  0.39141548316E+02  0.00000000000E+00 0.  1.
<mgrwt>
<rscale>  0 0.10454987E+04</rscale>
<asrwt>0</asrwt>
<pdfrwt beam="1">  1        2 0.12002225E+00 0.10454987E+04</pdfrwt>
<pdfrwt beam="2">  1       -2 0.53888799E-01 0.10454987E+04</pdfrwt>
<totfact> 0.11507410E+02</totfact>
</mgrwt>
</event>
<event>
12    1  0.1489233E-007  0.1884415E+04  0.7818608E-02  0.8662653E-01
          1   -1    0    0  501    0  0.00000000000E+00  0.00000000000E+00  0.17647996051E+04  0.17647996051E+04  0.00000000000E+00 0. -1.
         -1   -1    0    0    0  501 -0.00000000000E+00 -0.00000000000E+00 -0.50303427736E+03  0.50303427736E+03  0.00000000000E+00 0.  1.
         23    2    1    2    0    0  0.15444988277E+03 -0.15250372159E+03 -0.34529190923E+03  0.41862480433E+03  0.94382587559E+02 0.  0.
        254    2    1    2    0    0 -0.15444988277E+03  0.15250372159E+03  0.16070572370E+04  0.18492090781E+04  0.88872329795E+03 0.  0.
        -24    2    4    4    0    0 -0.13648913610E+03 -0.30043679159E+03  0.11552503536E+04  0.12041443519E+04  0.80428171176E+02 0.  0.
         24    2    4    4    0    0 -0.17960746671E+02  0.45294051317E+03  0.45180688341E+03  0.64506472625E+03  0.80630913829E+02 0.  0.
         13    1    3    3    0    0  0.14586331676E+03 -0.15657682762E+03 -0.27879796947E+03  0.35145514351E+03  0.00000000000E+00 0.  1.
        -13    1    3    3    0    0  0.85865660167E+01  0.40731060385E+01 -0.66493939765E+02  0.67169660817E+02  0.00000000000E+00 0. -1.
          2    1    6    6  502    0 -0.24642263864E+02  0.86182367719E+02  0.12476119365E+03  0.15362290556E+03  0.00000000000E+00 0. -1.
          1    1    5    5  503    0 -0.19292247237E+02 -0.13731751278E+03  0.48798488750E+03  0.50730418936E+03  0.00000000000E+00 0. -1.
         -2    1    5    5    0  503 -0.11719688886E+03 -0.16311927881E+03  0.66726546608E+03  0.69684016252E+03  0.00000000000E+00 0.  1.
         -1    1    6    6    0  502  0.66815171929E+01  0.36675814545E+03  0.32704568976E+03  0.49144182069E+03  0.00000000000E+00 0.  1.
<mgrwt>
<rscale>  0 0.18844147E+04</rscale>
<asrwt>0</asrwt>
<pdfrwt beam="1">  1        1 0.27150763E+00 0.18844147E+04</pdfrwt>
<pdfrwt beam="2">  1       -1 0.77389890E-01 0.18844147E+04</pdfrwt>
<totfact> 0.67498096E+00</totfact>
</mgrwt>
</event>
<event>
12    1  0.1489233E-007  0.1186661E+04  0.7818608E-02  0.9124613E-01
         -2   -1    0    0    0  501 -0.00000000000E+00  0.00000000000E+00  0.30902838770E+03  0.30902838770E+03  0.00000000000E+00 0.  1.
          2   -1    0    0  501    0  0.00000000000E+00 -0.00000000000E+00 -0.11391867373E+04  0.11391867373E+04  0.00000000000E+00 0. -1.
         23    2    1    2    0    0  0.23588669866E+03  0.18564125537E+03 -0.22270316864E+03  0.38465135238E+03  0.90855661740E+02 0.  0.
        254    2    1    2    0    0 -0.23588669866E+03 -0.18564125537E+03 -0.60745518096E+03  0.10635637726E+04  0.81979320030E+03 0.  0.
        -24    2    4    4    0    0 -0.34139913051E+02  0.26386845863E+03  0.23429558935E+00  0.27718794451E+03  0.77723899566E+02 0.  0.
         24    2    4    4    0    0 -0.20174678561E+03 -0.44950971399E+03 -0.60768947655E+03  0.78637582812E+03  0.79622199540E+02 0.  0.
         11    1    3    3    0    0  0.18165502689E+03  0.17777145329E+03 -0.15559740097E+03  0.29801306949E+03  0.00000000000E+00 0. -1.
        -11    1    3    3    0    0  0.54231671768E+02  0.78698020734E+01 -0.67105767672E+02  0.86638282891E+02  0.00000000000E+00 0.  1.
          2    1    6    6  502    0 -0.14627962847E+03 -0.36830040791E+03 -0.44148435050E+03  0.59325487938E+03  0.00000000000E+00 0. -1.
          1    1    5    5  503    0 -0.16813494527E+01  0.13424271887E+03  0.35729269707E+02  0.13892629420E+03  0.00000000000E+00 0. -1.
         -2    1    5    5    0  503 -0.32458563599E+02  0.12962573976E+03 -0.35494974118E+02  0.13826165031E+03  0.00000000000E+00 0.  1.
         -1    1    6    6    0  502 -0.55467157134E+02 -0.81209306083E+02 -0.16620512606E+03  0.19312094874E+03  0.00000000000E+00 0.  1.
<mgrwt>
<rscale>  0 0.11866609E+04</rscale>
<asrwt>0</asrwt>
<pdfrwt beam="1">  1        2 0.17525950E+00 0.11866609E+04</pdfrwt>
<pdfrwt beam="2">  1       -2 0.47542829E-01 0.11866609E+04</pdfrwt>
<totfact> 0.85316140E+01</totfact>
</mgrwt>
</event>
<event>
12    1  0.1489233E-007  0.1590897E+04  0.7818608E-02  0.8826160E-01
          1   -1    0    0  501    0  0.00000000000E+00  0.00000000000E+00  0.14195139242E+04  0.14195139242E+04  0.00000000000E+00 0. -1.
         -1   -1    0    0    0  501 -0.00000000000E+00 -0.00000000000E+00 -0.44574266755E+03  0.44574266755E+03  0.00000000000E+00 0.  1.
         23    2    1    2    0    0 -0.24821495034E+03 -0.31451715555E+03  0.74981696262E+03  0.85487139318E+03  0.89710192995E+02 0.  0.
        254    2    1    2    0    0  0.24821495034E+03  0.31451715555E+03  0.22395429403E+03  0.10103851986E+04  0.90010611652E+03 0.  0.
        -24    2    4    4    0    0  0.11210091375E+02  0.29556674286E+03 -0.30028269503E+03  0.42918104764E+03  0.80878359820E+02 0.  0.
         24    2    4    4    0    0  0.23700485897E+03  0.18950412684E+02  0.52423698906E+03  0.58120415094E+03  0.80270935299E+02 0.  0.
         11    1    3    3    0    0 -0.73563413194E+02 -0.61526278835E+02  0.11658467541E+03  0.15096040967E+03  0.00000000000E+00 0.  1.
        -11    1    3    3    0    0 -0.17465153715E+03 -0.25299087671E+03  0.63323228722E+03  0.70391098351E+03  0.00000000000E+00 0. -1.
          4    1    6    6  502    0  0.19655989740E+03  0.34122388477E+02  0.47782612651E+03  0.51780106009E+03  0.00000000000E+00 0. -1.
          3    1    5    5  503    0  0.13199178440E+02  0.13966246433E+03 -0.87312432842E+02  0.16523705149E+03  0.00000000000E+00 0. -1.
         -4    1    5    5    0  503 -0.19890870648E+01  0.15590427853E+03 -0.21297026219E+03  0.26394399616E+03  0.00000000000E+00 0.  1.
         -3    1    6    6    0  502  0.40444961571E+02 -0.15171975792E+02  0.46410862554E+02  0.63403090847E+02  0.00000000000E+00 0.  1.
<mgrwt>
<rscale>  0 0.15908965E+04</rscale>
<asrwt>0</asrwt>
<pdfrwt beam="1">  1        1 0.21838676E+00 0.15908965E+04</pdfrwt>
<pdfrwt beam="2">  1       -1 0.68575796E-01 0.15908965E+04</pdfrwt>
<totfact> 0.15383532E+01</totfact>
</mgrwt>
</event>
<event>
12    1  0.1489233E-007  0.1316984E+04  0.7818608E-02  0.9016204E-01
          1   -1    0    0  501    0  0.00000000000E+00  0.00000000000E+00  0.32590148150E+04  0.32590148150E+04  0.00000000000E+00 0. -1.
         -1   -1    0    0    0  501 -0.00000000000E+00 -0.00000000000E+00 -0.13304994480E+03  0.13304994480E+03  0.00000000000E+00 0.  1.
         23    2    1    2    0    0 -0.44597754002E+02  0.34108666990E+03  0.87211966462E+03  0.94138504670E+03  0.85346474340E+02 0.  0.
        254    2    1    2    0    0  0.44597754002E+02 -0.34108666990E+03  0.22538452056E+04  0.24506797131E+04  0.89871228404E+03 0.  0.
        -24    2    4    4    0    0  0.42654586264E+03 -0.60844965935E+02  0.14452390532E+04  0.15101486360E+04  0.78673370656E+02 0.  0.
         24    2    4    4    0    0 -0.38194810863E+03 -0.28024170396E+03  0.80860615239E+03  0.94053107707E+03  0.79592882389E+02 0.  0.
         11    1    3    3    0    0 -0.43084410015E+02  0.34011080068E+03  0.81413916932E+03  0.88337659588E+03  0.00000000000E+00 0.  1.
        -11    1    3    3    0    0 -0.15133439872E+01  0.97586921323E+00  0.57980495305E+02  0.58008450820E+02  0.00000000000E+00 0. -1.
          4    1    6    6  502    0 -0.98686373605E+02 -0.11833784461E+03  0.25587365693E+03  0.29868741874E+03  0.00000000000E+00 0. -1.
          3    1    5    5  503    0  0.21326871527E+03 -0.44065200524E+01  0.81317349101E+03  0.84068667696E+03  0.00000000000E+00 0. -1.
         -4    1    5    5    0  503  0.21327714737E+03 -0.56438445882E+02  0.63206556219E+03  0.66946195909E+03  0.00000000000E+00 0.  1.
         -3    1    6    6    0  502 -0.28326173503E+03 -0.16190385935E+03  0.55273249546E+03  0.64184365833E+03  0.00000000000E+00 0.  1.
<mgrwt>
<rscale>  0 0.13169840E+04</rscale>
<asrwt>0</asrwt>
<pdfrwt beam="1">  1        1 0.50138683E+00 0.13169840E+04</pdfrwt>
<pdfrwt beam="2">  1       -1 0.20469225E-01 0.13169840E+04</pdfrwt>
<totfact> 0.75062883E+00</totfact>
</mgrwt>
</event>
<event>
12    1  0.1489233E-007  0.1459679E+04  0.7818608E-02  0.8911718E-01
         -2   -1    0    0    0  501 -0.00000000000E+00  0.00000000000E+00  0.39098176906E+03  0.39098176906E+03  0.00000000000E+00 0.  1.
          2   -1    0    0  501    0  0.00000000000E+00 -0.00000000000E+00 -0.13623795289E+04  0.13623795289E+04  0.00000000000E+00 0. -1.
         23    2    1    2    0    0 -0.84051002224E+02  0.24621184346E+03  0.13364546845E+03  0.30722157567E+03  0.94016713832E+02 0.  0.
        254    2    1    2    0    0  0.84051002224E+02 -0.24621184346E+03 -0.11050432283E+04  0.14461397223E+04  0.89583185766E+03 0.  0.
        -24    2    4    4    0    0 -0.29044238717E+03 -0.39243561021E+03 -0.42608868727E+03  0.65310022111E+03  0.81399268881E+02 0.  0.
         24    2    4    4    0    0  0.37449338939E+03  0.14622376675E+03 -0.67895454106E+03  0.79303950122E+03  0.79408393821E+02 0.  0.
         11    1    3    3    0    0 -0.53920346840E+02  0.37364857233E+02  0.33234226141E+02  0.73539446194E+02  0.00000000000E+00 0.  1.
        -11    1    3    3    0    0 -0.30130655384E+02  0.20884698623E+03  0.10041124231E+03  0.23368212947E+03  0.00000000000E+00 0. -1.
          2    1    6    6  502    0  0.15680273565E+03  0.10199316583E+03 -0.33185511548E+03  0.38094293727E+03  0.00000000000E+00 0. -1.
          3    1    5    5  503    0 -0.55768732804E+02 -0.13047372012E+03 -0.14494499562E+03  0.20283637483E+03  0.00000000000E+00 0. -1.
         -4    1    5    5    0  503 -0.23467365436E+03 -0.26196189009E+03 -0.28114369165E+03  0.45026384628E+03  0.00000000000E+00 0.  1.
         -1    1    6    6    0  502  0.21769065374E+03  0.44230600917E+02 -0.34709942557E+03  0.41209656395E+03  0.00000000000E+00 0.  1.
<mgrwt>
<rscale>  0 0.14596788E+04</rscale>
<asrwt>0</asrwt>
<pdfrwt beam="1">  1        2 0.20959685E+00 0.14596788E+04</pdfrwt>
<pdfrwt beam="2">  1       -2 0.60151042E-01 0.14596788E+04</pdfrwt>
<totfact> 0.37967870E+01</totfact>
</mgrwt>
</event>
<event>
12    1  0.1489233E-007  0.1882677E+04  0.7818608E-02  0.8663528E-01
         -1   -1    0    0    0  501 -0.00000000000E+00  0.00000000000E+00  0.90706090702E+03  0.90706090702E+03  0.00000000000E+00 0.  1.
          1   -1    0    0  501    0  0.00000000000E+00 -0.00000000000E+00 -0.97691130223E+03  0.97691130223E+03  0.00000000000E+00 0. -1.
         23    2    1    2    0    0 -0.53014227772E+03  0.48453868651E+03  0.57696730987E+02  0.72576811848E+03  0.87073966804E+02 0.  0.
        254    2    1    2    0    0  0.53014227772E+03 -0.48453868651E+03 -0.12754712621E+03  0.11582040908E+04  0.89963318809E+03 0.  0.
        -24    2    4    4    0    0 -0.34577563264E+02 -0.20345824216E+03  0.31426469103E+03  0.38415564037E+03  0.78882164135E+02 0.  0.
         24    2    4    4    0    0  0.56471984098E+03 -0.28108044435E+03 -0.44181181723E+03  0.77404845039E+03  0.77708472647E+02 0.  0.
         11    1    3    3    0    0 -0.15721528880E+03  0.11620483974E+03  0.48948332344E+02  0.20153449097E+03  0.00000000000E+00 0.  1.
        -11    1    3    3    0    0 -0.37292698892E+03  0.36833384676E+03  0.87483986427E+01  0.52423362751E+03  0.00000000000E+00 0. -1.
          4    1    6    6  502    0  0.97120595595E+02 -0.65518214071E+02 -0.51680989706E+02  0.12804675381E+03  0.00000000000E+00 0. -1.
          3    1    5    5  503    0 -0.72680104153E+01 -0.86255451519E+02  0.20120585141E+03  0.21903566270E+03  0.00000000000E+00 0. -1.
         -4    1    5    5    0  503 -0.27309552849E+02 -0.11720279064E+03  0.11305883961E+03  0.16511997767E+03  0.00000000000E+00 0.  1.
         -3    1    6    6    0  502  0.46759924539E+03 -0.21556223028E+03 -0.39013082752E+03  0.64600169659E+03  0.00000000000E+00 0.  1.
<mgrwt>
<rscale>  0 0.18826769E+04</rscale>
<asrwt>0</asrwt>
<pdfrwt beam="1">  1        1 0.15029405E+00 0.18826769E+04</pdfrwt>
<pdfrwt beam="2">  1       -1 0.13954783E+00 0.18826769E+04</pdfrwt>
<totfact> 0.62499974E+00</totfact>
</mgrwt>
</event>
<event>
12    1  0.1489233E-007  0.1847613E+04  0.7818608E-02  0.8681381E-01
         -1   -1    0    0    0  501 -0.00000000000E+00  0.00000000000E+00  0.48939361295E+03  0.48939361295E+03  0.00000000000E+00 0. -1.
          1   -1    0    0  501    0  0.00000000000E+00 -0.00000000000E+00 -0.17438291975E+04  0.17438291975E+04  0.00000000000E+00 0.  1.
         23    2    1    2    0    0  0.22887750136E+02 -0.52259294519E+03 -0.10464237311E+04  0.11734387451E+04  0.91261317163E+02 0.  0.
        254    2    1    2    0    0 -0.22887750136E+02  0.52259294519E+03 -0.20801185348E+03  0.10597840654E+04  0.89791207731E+03 0.  0.
        -24    2    4    4    0    0 -0.28226176640E+03  0.10872050576E+03 -0.41786936547E+03  0.52218449639E+03  0.81055465729E+02 0.  0.
         24    2    4    4    0    0  0.25937401626E+03  0.41387243943E+03  0.20985751199E+03  0.53759956900E+03  0.80049015066E+02 0.  0.
         13    1    3    3    0    0  0.95634952777E+01 -0.32556104177E+03 -0.74499631693E+03  0.81308115499E+03  0.00000000000E+00 0. -1.
        -13    1    3    3    0    0  0.13324254858E+02 -0.19703190342E+03 -0.30142741417E+03  0.36035759011E+03  0.00000000000E+00 0.  1.
          2    1    6    6  502    0  0.16311579908E+03  0.22708231244E+03  0.80951280032E+02  0.29107773923E+03  0.00000000000E+00 0. -1.
          1    1    5    5  503    0 -0.12919861133E+03  0.82972986962E+01 -0.18938915854E+03  0.22941094069E+03  0.00000000000E+00 0. -1.
         -2    1    5    5    0  503 -0.15306315507E+03  0.10042320707E+03 -0.22848020693E+03  0.29277355570E+03  0.00000000000E+00 0.  1.
         -3    1    6    6    0  502  0.96258217185E+02  0.18679012698E+03  0.12890623196E+03  0.24652182977E+03  0.00000000000E+00 0.  1.
<mgrwt>
<rscale>  0 0.18476135E+04</rscale>
<asrwt>0</asrwt>
<pdfrwt beam="1">  1        1 0.26828142E+00 0.18476135E+04</pdfrwt>
<pdfrwt beam="2">  1       -1 0.75291325E-01 0.18476135E+04</pdfrwt>
<totfact> 0.74142277E+00</totfact>
</mgrwt>
</event>
<event>
12    1  0.1489233E-007  0.2151430E+04  0.7818608E-02  0.8538920E-01
          1   -1    0    0  501    0  0.00000000000E+00  0.00000000000E+00  0.19255866941E+04  0.19255866941E+04  0.00000000000E+00 0. -1.
         -1   -1    0    0    0  501 -0.00000000000E+00 -0.00000000000E+00 -0.60094042255E+03  0.60094042255E+03  0.00000000000E+00 0.  1.
         23    2    1    2    0    0  0.28987630295E+03 -0.18257256315E+03 -0.40675433833E+03  0.54028144634E+03  0.95362139623E+02 0.  0.
        254    2    1    2    0    0 -0.28987630295E+03  0.18257256315E+03  0.17314006099E+04  0.19862456704E+04  0.91107781179E+03 0.  0.
        -24    2    4    4    0    0 -0.33493590044E+02 -0.34767523197E+03  0.45849098054E+03  0.58131530632E+03  0.75588482023E+02 0.  0.
         24    2    4    4    0    0 -0.25638271291E+03  0.53024779513E+03  0.12729096294E+04  0.14049303640E+04  0.81459091116E+02 0.  0.
         11    1    3    3    0    0  0.29547238642E+03 -0.17665644661E+03 -0.40569190213E+03  0.53206893419E+03  0.00000000000E+00 0.  1.
        -11    1    3    3    0    0 -0.55960834702E+01 -0.59161165420E+01 -0.10624361966E+01  0.82125121501E+01  0.00000000000E+00 0. -1.
          4    1    6    6  502    0 -0.75350512216E+02  0.10788046613E+03  0.35063975058E+03  0.37451853005E+03  0.00000000000E+00 0. -1.
          1    1    5    5  503    0 -0.91746292050E+01 -0.10579562017E+01  0.69556144079E+01  0.11561732749E+02  0.00000000000E+00 0. -1.
         -2    1    5    5    0  503 -0.24318960839E+02 -0.34661727577E+03  0.45153536614E+03  0.56975357357E+03  0.00000000000E+00 0.  1.
         -3    1    6    6    0  502 -0.18103220069E+03  0.42236732899E+03  0.92226987879E+03  0.10304118340E+04  0.00000000000E+00 0.  1.
<mgrwt>
<rscale>  0 0.21514301E+04</rscale>
<asrwt>0</asrwt>
<pdfrwt beam="1">  1        1 0.29624410E+00 0.21514301E+04</pdfrwt>
<pdfrwt beam="2">  1       -1 0.92452374E-01 0.21514301E+04</pdfrwt>
<totfact> 0.34872605E+00</totfact>
</mgrwt>
</event>
<event>
12    1  0.1489233E-007  0.1361968E+04  0.7818608E-02  0.8981818E-01
          2   -1    0    0  501    0  0.00000000000E+00  0.00000000000E+00  0.16862893340E+04  0.16862893340E+04  0.00000000000E+00 0. -1.
         -2   -1    0    0    0  501 -0.00000000000E+00 -0.00000000000E+00 -0.27500556198E+03  0.27500556198E+03  0.00000000000E+00 0.  1.
         23    2    1    2    0    0 -0.24009193522E+03 -0.17579430261E+03  0.74110589946E+03  0.80376294198E+03  0.90824768060E+02 0.  0.
        254    2    1    2    0    0  0.24009193522E+03  0.17579430261E+03  0.67017787256E+03  0.11575319540E+04  0.89565287331E+03 0.  0.
        -24    2    4    4    0    0 -0.99187102156E+02  0.45134629785E+03  0.48988376171E+03  0.67804251688E+03  0.78765429565E+02 0.  0.
         24    2    4    4    0    0  0.33927903738E+03 -0.27555199524E+03  0.18029411085E+03  0.47948943712E+03  0.79780866256E+02 0.  0.
         11    1    3    3    0    0 -0.24289418170E+03 -0.16903283351E+03  0.73915118153E+03  0.79618725904E+03  0.00000000000E+00 0. -1.
        -11    1    3    3    0    0  0.28022464790E+01 -0.67614691029E+01  0.19547179342E+01  0.75756829369E+01  0.00000000000E+00 0.  1.
          2    1    6    6  502    0  0.33395135982E+03 -0.25205013109E+03  0.15985617297E+03  0.44789147720E+03  0.00000000000E+00 0. -1.
          1    1    5    5  503    0 -0.47030796317E+02  0.10584162946E+03  0.15986808913E+03  0.19741365771E+03  0.00000000000E+00 0. -1.
         -2    1    5    5    0  503 -0.52156305839E+02  0.34550466839E+03  0.33001567258E+03  0.48062885917E+03  0.00000000000E+00 0.  1.
         -3    1    6    6    0  502  0.53276775543E+01 -0.23501864141E+02  0.20437937883E+02  0.31597959921E+02  0.00000000000E+00 0.  1.
<mgrwt>
<rscale>  0 0.13619676E+04</rscale>
<asrwt>0</asrwt>
<pdfrwt beam="1">  1        2 0.25942912E+00 0.13619676E+04</pdfrwt>
<pdfrwt beam="2">  1       -2 0.42308549E-01 0.13619676E+04</pdfrwt>
<totfact> 0.51571909E+01</totfact>
</mgrwt>
</event>
<event>
12    1  0.2070506E-007  0.1271609E+04  0.7818608E-02  0.9052387E-01
         -2   -1    0    0    0  501 -0.00000000000E+00  0.00000000000E+00  0.29284717211E+03  0.29284717211E+03  0.00000000000E+00 0.  1.
          2   -1    0    0  501    0  0.00000000000E+00 -0.00000000000E+00 -0.13804040295E+04  0.13804040295E+04  0.00000000000E+00 0. -1.
         23    2    1    2    0    0  0.95056118511E+02 -0.28913021384E+03 -0.27700702261E+03  0.42163078136E+03  0.91693396669E+02 0.  0.
        254    2    1    2    0    0 -0.95056118511E+02  0.28913021384E+03 -0.81054983483E+03  0.12516204203E+04  0.90384218508E+03 0.  0.
        -24    2    4    4    0    0  0.79590163632E+02  0.29700746371E+03 -0.95849318080E+03  0.10098436599E+04  0.80789926640E+02 0.  0.
         24    2    4    4    0    0 -0.17464628214E+03 -0.78772498699E+01  0.14794334597E+03  0.24177676034E+03  0.77494472661E+02 0.  0.
         11    1    3    3    0    0  0.95999070571E+02 -0.26361310506E+03 -0.27944983639E+03  0.39597967343E+03  0.00000000000E+00 0.  1.
        -11    1    3    3    0    0 -0.94295206032E+00 -0.25517108780E+02  0.24428137757E+01  0.25651107934E+02  0.00000000000E+00 0. -1.
          2    1    6    6  502    0 -0.16043180113E+03  0.66524127135E+01  0.15193912258E+03  0.22106133624E+03  0.00000000000E+00 0. -1.
          1    1    5    5  503    0  0.94230893007E+02  0.26684411091E+03 -0.82428840292E+03  0.87151397689E+03  0.00000000000E+00 0. -1.
         -2    1    5    5    0  503 -0.14640729375E+02  0.30163352798E+02 -0.13420477788E+03  0.13832968306E+03  0.00000000000E+00 0.  1.
         -1    1    6    6    0  502 -0.14214481011E+02 -0.14529662583E+02 -0.39957766059E+01  0.20715424106E+02  0.00000000000E+00 0.  1.
<mgrwt>
<rscale>  0 0.12716091E+04</rscale>
<asrwt>0</asrwt>
<pdfrwt beam="1">  1        2 0.21236985E+00 0.12716091E+04</pdfrwt>
<pdfrwt beam="2">  1       -2 0.45053411E-01 0.12716091E+04</pdfrwt>
<totfact> 0.68109486E+01</totfact>
</mgrwt>
</event>
<event>
12    1  0.1489233E-007  0.3424131E+04  0.7818608E-02  0.8132009E-01
          2   -1    0    0  501    0  0.00000000000E+00  0.00000000000E+00  0.21626183842E+04  0.21626183842E+04  0.00000000000E+00 0. -1.
         -2   -1    0    0    0  501 -0.00000000000E+00 -0.00000000000E+00 -0.13553795259E+04  0.13553795259E+04  0.00000000000E+00 0.  1.
         23    2    1    2    0    0  0.10554074971E+04 -0.11920180461E+04  0.41013439479E+03  0.16469464917E+04  0.97110851775E+02 0.  0.
        254    2    1    2    0    0 -0.10554074971E+04  0.11920180461E+04  0.39710446357E+03  0.18710514184E+04  0.89908255921E+03 0.  0.
        -24    2    4    4    0    0 -0.21671509970E+03  0.69301145625E+03  0.50200683913E+03  0.88631889947E+03  0.79498503726E+02 0.  0.
         24    2    4    4    0    0 -0.83869239737E+03  0.49900658984E+03 -0.10490237556E+03  0.98473251894E+03  0.79253462723E+02 0.  0.
         13    1    3    3    0    0  0.45674372393E+02 -0.43906991220E+02 -0.20911086943E+01  0.63390416523E+02  0.00000000000E+00 0. -1.
        -13    1    3    3    0    0  0.10097331247E+04 -0.11481110549E+04  0.41222550348E+03  0.15835560751E+04  0.00000000000E+00 0.  1.
          4    1    6    6  502    0 -0.17826368337E+03  0.81596553259E+02 -0.45075887357E+02  0.20116603574E+03  0.00000000000E+00 0. -1.
          1    1    5    5  503    0 -0.11439193213E+03  0.32041434543E+03  0.18997977320E+03  0.38967060592E+03  0.00000000000E+00 0. -1.
         -2    1    5    5    0  503 -0.10232316756E+03  0.37259711082E+03  0.31202706593E+03  0.49664829354E+03  0.00000000000E+00 0.  1.
         -3    1    6    6    0  502 -0.66042871400E+03  0.41741003658E+03 -0.59826488202E+02  0.78356648321E+03  0.00000000000E+00 0.  1.
<mgrwt>
<rscale>  0 0.34241312E+04</rscale>
<asrwt>0</asrwt>
<pdfrwt beam="1">  1        2 0.33271052E+00 0.34241312E+04</pdfrwt>
<pdfrwt beam="2">  1       -2 0.20851993E+00 0.34241312E+04</pdfrwt>
<totfact> 0.52455076E-01</totfact>
</mgrwt>
</event>
<event>
12    1  0.1489233E-007  0.1618478E+04  0.7818608E-02  0.8809276E-01
         -2   -1    0    0    0  501 -0.00000000000E+00  0.00000000000E+00  0.12389944393E+04  0.12389944393E+04  0.00000000000E+00 0.  1.
          2   -1    0    0  501    0  0.00000000000E+00 -0.00000000000E+00 -0.52854772556E+03  0.52854772556E+03  0.00000000000E+00 0. -1.
         23    2    1    2    0    0  0.25526794654E+03 -0.41295683357E+03 -0.42778017702E+02  0.49577625651E+03  0.90934409335E+02 0.  0.
        254    2    1    2    0    0 -0.25526794654E+03  0.41295683357E+03  0.75322473146E+03  0.12717659084E+04  0.90241119157E+03 0.  0.
        -24    2    4    4    0    0  0.14234929567E+03  0.53058457688E+03  0.23364969059E+03  0.60226656860E+03  0.79683916384E+02 0.  0.
         24    2    4    4    0    0 -0.39761724221E+03 -0.11762774332E+03  0.51957504087E+03  0.66949933977E+03  0.79595135228E+02 0.  0.
         13    1    3    3    0    0  0.14520045864E+03 -0.26575602282E+03 -0.67649798954E+02  0.31029974566E+03  0.00000000000E+00 0. -1.
        -13    1    3    3    0    0  0.11006748790E+03 -0.14720081075E+03  0.24871781251E+02  0.18547651085E+03  0.00000000000E+00 0.  1.
          2    1    6    6  502    0 -0.31021469822E+03 -0.71338691896E+02  0.43709879598E+03  0.54071963660E+03  0.00000000000E+00 0. -1.
          1    1    5    5  503    0  0.12685659073E+03  0.43162844721E+03  0.15828009766E+03  0.47691540169E+03  0.00000000000E+00 0. -1.
         -2    1    5    5    0  503  0.15492704943E+02  0.98956129673E+02  0.75369592933E+02  0.12535116691E+03  0.00000000000E+00 0.  1.
         -1    1    6    6    0  502 -0.87402543992E+02 -0.46289051422E+02  0.82476244888E+02  0.12877970317E+03  0.00000000000E+00 0.  1.
<mgrwt>
<rscale>  0 0.16184779E+04</rscale>
<asrwt>0</asrwt>
<pdfrwt beam="1">  1        2 0.81315035E-01 0.16184779E+04</pdfrwt>
<pdfrwt beam="2">  1       -2 0.19061453E+00 0.16184779E+04</pdfrwt>
<totfact> 0.84750176E+00</totfact>
</mgrwt>
</event>
<event>
12    1  0.1489233E-007  0.2697597E+04  0.7818608E-02  0.8335785E-01
          2   -1    0    0  501    0  0.00000000000E+00  0.00000000000E+00  0.90993162984E+03  0.90993162984E+03  0.00000000000E+00 0.  1.
         -2   -1    0    0    0  501 -0.00000000000E+00 -0.00000000000E+00 -0.19993339017E+04  0.19993339017E+04  0.00000000000E+00 0. -1.
         23    2    1    2    0    0 -0.84290371927E+02 -0.35094242103E+03 -0.17140361228E+04  0.17540028396E+04  0.91327331190E+02 0.  0.
        254    2    1    2    0    0  0.84290371927E+02  0.35094242103E+03  0.62463385090E+03  0.11552626920E+04  0.90232975685E+03 0.  0.
        -24    2    4    4    0    0  0.29617471124E+03  0.41548986265E+02  0.69946531402E+03  0.76495490600E+03  0.80364823536E+02 0.  0.
         24    2    4    4    0    0 -0.21188433931E+03  0.30939343476E+03 -0.74831463121E+02  0.39030778597E+03  0.78237773458E+02 0.  0.
         13    1    3    3    0    0 -0.38307181013E+02 -0.23014073161E+03 -0.12815653309E+04  0.13026288397E+04  0.00000000000E+00 0. -1.
        -13    1    3    3    0    0 -0.45983190914E+02 -0.12080168942E+03 -0.43247079182E+03  0.45137399991E+03  0.00000000000E+00 0.  1.
          2    1    6    6  502    0 -0.78282300969E+02  0.71948184126E+02 -0.47621851818E+02  0.11650107559E+03  0.00000000000E+00 0. -1.
          1    1    5    5  503    0  0.22912975345E+02  0.20531334064E+02  0.12098046179E+03  0.12483113495E+03  0.00000000000E+00 0. -1.
         -2    1    5    5    0  503  0.27326173590E+03  0.21017652201E+02  0.57848485223E+03  0.64012377106E+03  0.00000000000E+00 0.  1.
         -1    1    6    6    0  502 -0.13360203834E+03  0.23744525064E+03 -0.27209611303E+02  0.27380671038E+03  0.00000000000E+00 0.  1.
<mgrwt>
<rscale>  0 0.26975968E+04</rscale>
<asrwt>0</asrwt>
<pdfrwt beam="1">  1        2 0.13998948E+00 0.26975968E+04</pdfrwt>
<pdfrwt beam="2">  1       -2 0.30758983E+00 0.26975968E+04</pdfrwt>
<totfact> 0.72339678E-01</totfact>
</mgrwt>
</event>
<event>
12    1  0.1489233E-007  0.1854450E+04  0.7818608E-02  0.8677868E-01
         -1   -1    0    0    0  501 -0.00000000000E+00  0.00000000000E+00  0.86165611010E+03  0.86165611010E+03  0.00000000000E+00 0.  1.
          1   -1    0    0  501    0  0.00000000000E+00 -0.00000000000E+00 -0.99778343904E+03  0.99778343904E+03  0.00000000000E+00 0. -1.
         23    2    1    2    0    0 -0.22910778984E+03  0.66153469919E+03 -0.18858915011E+03  0.73061294681E+03  0.90060384741E+02 0.  0.
        254    2    1    2    0    0  0.22910778984E+03 -0.66153469919E+03  0.52461821176E+02  0.11288266023E+04  0.88395628728E+03 0.  0.
        -24    2    4    4    0    0  0.77983509847E+02 -0.41560639982E+03 -0.39851523130E+03  0.58783961629E+03  0.89055698978E+02 0.  0.
         24    2    4    4    0    0  0.15112428000E+03 -0.24592829937E+03  0.45097705247E+03  0.54098698604E+03  0.77248564833E+02 0.  0.
         13    1    3    3    0    0 -0.63881174722E+02  0.91141653107E+02 -0.41871406034E+02  0.11891518010E+03  0.00000000000E+00 0.  1.
        -13    1    3    3    0    0 -0.16522661512E+03  0.57039304609E+03 -0.14671774408E+03  0.61169776671E+03  0.00000000000E+00 0. -1.
          2    1    6    6  502    0  0.67770610511E+02 -0.64936304342E+02  0.19660211397E+03  0.21785768403E+03  0.00000000000E+00 0. -1.
          1    1    5    5  503    0  0.84563847162E+01 -0.63232418881E+01 -0.33225014991E+02  0.34862522163E+02  0.00000000000E+00 0. -1.
         -2    1    5    5    0  503  0.69527125130E+02 -0.40928315793E+03 -0.36529021631E+03  0.55297709412E+03  0.00000000000E+00 0.  1.
         -1    1    6    6    0  502  0.83353669484E+02 -0.18099199503E+03  0.25437493850E+03  0.32312930201E+03  0.00000000000E+00 0.  1.
<mgrwt>
<rscale>  0 0.18544500E+04</rscale>
<asrwt>0</asrwt>
<pdfrwt beam="1">  1        1 0.15350514E+00 0.18544500E+04</pdfrwt>
<pdfrwt beam="2">  1       -1 0.13256248E+00 0.18544500E+04</pdfrwt>
<totfact> 0.68872689E+00</totfact>
</mgrwt>
</event>
<event>
12    1  0.1489233E-007  0.1577231E+04  0.7818608E-02  0.8834659E-01
          2   -1    0    0  501    0  0.00000000000E+00  0.00000000000E+00  0.15408164888E+04  0.15408164888E+04  0.00000000000E+00 0. -1.
         -2   -1    0    0    0  501 -0.00000000000E+00 -0.00000000000E+00 -0.40362658133E+03  0.40362658133E+03  0.00000000000E+00 0.  1.
         23    2    1    2    0    0 -0.26690913005E+03  0.33161426540E+02 -0.18423942210E+03  0.33916769422E+03  0.93543552615E+02 0.  0.
        254    2    1    2    0    0  0.26690913005E+03 -0.33161426540E+02  0.13214293296E+04  0.16052753759E+04  0.87085785039E+03 0.  0.
        -24    2    4    4    0    0  0.24057645266E+03 -0.85633808375E+02 -0.93676896135E+01  0.27078412314E+03  0.89588554098E+02 0.  0.
         24    2    4    4    0    0  0.26332677389E+02  0.52472381835E+02  0.13307970192E+04  0.13344912528E+04  0.79996479491E+02 0.  0.
         13    1    3    3    0    0  0.21977863591E+01 -0.87489244216E+01 -0.17882162258E+02  0.20028621282E+02  0.00000000000E+00 0. -1.
        -13    1    3    3    0    0 -0.26910691640E+03  0.41910350962E+02 -0.16635725984E+03  0.31913907294E+03  0.00000000000E+00 0.  1.
          4    1    6    6  502    0 -0.15130615857E+00 -0.18537550497E+01  0.83798400257E+03  0.83798606663E+03  0.00000000000E+00 0. -1.
          1    1    5    5  503    0  0.37521804835E+02  0.85294562845E+01 -0.25844691441E+02  0.46352837434E+02  0.00000000000E+00 0. -1.
         -4    1    5    5    0  503  0.20305464782E+03 -0.94163264660E+02  0.16477001827E+02  0.22443128570E+03  0.00000000000E+00 0.  1.
         -3    1    6    6    0  502  0.26483983547E+02  0.54326136885E+02  0.49281301662E+03  0.49650518616E+03  0.00000000000E+00 0.  1.
<mgrwt>
<rscale>  0 0.15772311E+04</rscale>
<asrwt>0</asrwt>
<pdfrwt beam="1">  1        2 0.23704869E+00 0.15772311E+04</pdfrwt>
<pdfrwt beam="2">  1       -2 0.62096398E-01 0.15772311E+04</pdfrwt>
<totfact> 0.27839417E+01</totfact>
</mgrwt>
</event>
<event>
12    1  0.1489233E-007  0.1803915E+04  0.7818608E-02  0.8704220E-01
         -1   -1    0    0    0  501 -0.00000000000E+00  0.00000000000E+00  0.82159376794E+03  0.82159376794E+03  0.00000000000E+00 0.  1.
          1   -1    0    0  501    0  0.00000000000E+00 -0.00000000000E+00 -0.99018249491E+03  0.99018249491E+03  0.00000000000E+00 0. -1.
         23    2    1    2    0    0 -0.33144964976E+03 -0.13639363168E+02 -0.67006173328E+03  0.75371155061E+03  0.95149737630E+02 0.  0.
        254    2    1    2    0    0  0.33144964976E+03  0.13639363168E+02  0.50147300631E+03  0.10580647122E+04  0.87062096039E+03 0.  0.
        -24    2    4    4    0    0  0.25585444330E+03 -0.14112631975E+03 -0.17887753546E+03  0.35169470666E+03  0.79459799385E+02 0.  0.
         24    2    4    4    0    0  0.75595206459E+02  0.15476568291E+03  0.68035054177E+03  0.70637000558E+03  0.80091655293E+02 0.  0.
         13    1    3    3    0    0  0.29844201028E+01 -0.82731543344E+01 -0.33371849237E+02  0.34511333899E+02  0.00000000000E+00 0.  1.
        -13    1    3    3    0    0 -0.33443406986E+03 -0.53662088335E+01 -0.63668988404E+03  0.71920021671E+03  0.00000000000E+00 0. -1.
          2    1    6    6  502    0  0.36426488218E+02  0.88432960120E+02  0.22400589228E+03  0.24356912213E+03  0.00000000000E+00 0. -1.
          1    1    5    5  503    0  0.26091632225E+03 -0.14278933140E+03 -0.17489337582E+03  0.34504175586E+03  0.00000000000E+00 0. -1.
         -2    1    5    5    0  503 -0.50618789540E+01  0.16630116554E+01 -0.39841596382E+01  0.66529507990E+01  0.00000000000E+00 0.  1.
         -1    1    6    6    0  502  0.39168718241E+02  0.66332722793E+02  0.45634464950E+03  0.46280088345E+03  0.00000000000E+00 0.  1.
<mgrwt>
<rscale>  0 0.18039155E+04</rscale>
<asrwt>0</asrwt>
<pdfrwt beam="1">  1        1 0.15233577E+00 0.18039155E+04</pdfrwt>
<pdfrwt beam="2">  1       -1 0.12639904E+00 0.18039155E+04</pdfrwt>
<totfact> 0.79088782E+00</totfact>
</mgrwt>
</event>
<event>
12    1  0.1489233E-007  0.1940722E+04  0.7818608E-02  0.8634848E-01
         -2   -1    0    0    0  501 -0.00000000000E+00  0.00000000000E+00  0.33591160183E+03  0.33591160183E+03  0.00000000000E+00 0.  1.
          2   -1    0    0  501    0  0.00000000000E+00 -0.00000000000E+00 -0.28031197251E+04  0.28031197251E+04  0.00000000000E+00 0. -1.
         23    2    1    2    0    0 -0.69482500199E+02 -0.86389891367E+02  0.24992002897E+03  0.28876071516E+03  0.92906935021E+02 0.  0.
        254    2    1    2    0    0  0.69482500199E+02  0.86389891367E+02 -0.27171281523E+04  0.28502706118E+04  0.85379513556E+03 0.  0.
        -24    2    4    4    0    0  0.37687631271E+03  0.29025033372E+03 -0.15643640258E+04  0.16372842308E+04  0.84757512094E+02 0.  0.
         24    2    4    4    0    0 -0.30739381251E+03 -0.20386044235E+03 -0.11527641264E+04  0.12129863810E+04  0.80129853002E+02 0.  0.
         11    1    3    3    0    0 -0.46708612622E+02 -0.10514760691E+03  0.19477652740E+03  0.22622026735E+03  0.00000000000E+00 0.  1.
        -11    1    3    3    0    0 -0.22773887577E+02  0.18757715539E+02  0.55143501567E+02  0.62540447813E+02  0.00000000000E+00 0. -1.
          2    1    6    6  502    0 -0.52877322754E+02 -0.75991593181E+02 -0.29073023924E+03  0.30511441380E+03  0.00000000000E+00 0. -1.
          3    1    5    5  503    0  0.96169620940E+02  0.12018842071E+03 -0.45034833751E+03  0.47592801721E+03  0.00000000000E+00 0. -1.
         -4    1    5    5    0  503  0.28070669177E+03  0.17006191301E+03 -0.11140156883E+04  0.11613562136E+04  0.00000000000E+00 0.  1.
         -1    1    6    6    0  502 -0.25451648975E+03 -0.12786884917E+03 -0.86203388717E+03  0.90787196717E+03  0.00000000000E+00 0.  1.
<mgrwt>
<rscale>  0 0.19407220E+04</rscale>
<asrwt>0</asrwt>
<pdfrwt beam="1">  1        2 0.43124918E+00 0.19407220E+04</pdfrwt>
<pdfrwt beam="2">  1       -2 0.51678709E-01 0.19407220E+04</pdfrwt>
<totfact> 0.76148778E+00</totfact>
</mgrwt>
</event>
<event>
12    1  0.1489233E-007  0.1383787E+04  0.7818608E-02  0.8965639E-01
          1   -1    0    0  501    0  0.00000000000E+00  0.00000000000E+00  0.14182886101E+04  0.14182886101E+04  0.00000000000E+00 0. -1.
         -1   -1    0    0    0  501 -0.00000000000E+00 -0.00000000000E+00 -0.33753105388E+03  0.33753105388E+03  0.00000000000E+00 0.  1.
         23    2    1    2    0    0  0.33677362233E+03 -0.19106513566E+03  0.28875323945E+03  0.49139238349E+03  0.90364165974E+02 0.  0.
        254    2    1    2    0    0 -0.33677362233E+03  0.19106513566E+03  0.79200431680E+03  0.12644272805E+04  0.90641224128E+03 0.  0.
        -24    2    4    4    0    0 -0.35045263316E+03 -0.21028371456E+03  0.53613608216E+02  0.42008971249E+03  0.81022582399E+02 0.  0.
         24    2    4    4    0    0  0.13679010824E+02  0.40134885022E+03  0.73839070858E+03  0.84433756803E+03  0.80106649911E+02 0.  0.
         13    1    3    3    0    0  0.24861892638E+03 -0.14271660801E+03  0.16088553766E+03  0.32873021915E+03  0.00000000000E+00 0.  1.
        -13    1    3    3    0    0  0.88154695951E+02 -0.48348527654E+02  0.12786770179E+03  0.16266216434E+03  0.00000000000E+00 0. -1.
          2    1    6    6  502    0  0.98876963763E+01  0.40205633590E+03  0.71258066134E+03  0.81824095637E+03  0.00000000000E+00 0. -1.
          1    1    5    5  503    0 -0.11734897098E+03 -0.10484853857E+03 -0.56828413206E+01  0.15746838323E+03  0.00000000000E+00 0. -1.
         -2    1    5    5    0  503 -0.23310366218E+03 -0.10543517599E+03  0.59296449537E+02  0.26262132926E+03  0.00000000000E+00 0.  1.
         -1    1    6    6    0  502  0.37913144474E+01 -0.70748567968E+00  0.25810047245E+02  0.26096611658E+02  0.00000000000E+00 0.  1.
<mgrwt>
<rscale>  0 0.13837868E+04</rscale>
<asrwt>0</asrwt>
<pdfrwt beam="1">  1        1 0.21819824E+00 0.13837868E+04</pdfrwt>
<pdfrwt beam="2">  1       -1 0.51927855E-01 0.13837868E+04</pdfrwt>
<totfact> 0.27184840E+01</totfact>
</mgrwt>
</event>
<event>
12    1  0.1489233E-007  0.1945653E+04  0.7818608E-02  0.8632460E-01
         -2   -1    0    0    0  501 -0.00000000000E+00  0.00000000000E+00  0.88875292785E+03  0.88875292785E+03  0.00000000000E+00 0. -1.
          2   -1    0    0  501    0  0.00000000000E+00 -0.00000000000E+00 -0.10648534954E+04  0.10648534954E+04  0.00000000000E+00 0.  1.
         23    2    1    2    0    0  0.57666631239E+02 -0.59219167600E+03 -0.54780067736E+03  0.81384102669E+03  0.90748075085E+02 0.  0.
        254    2    1    2    0    0 -0.57666631239E+02  0.59219167600E+03  0.37170010985E+03  0.11397653965E+04  0.89826931705E+03 0.  0.
        -24    2    4    4    0    0  0.28050082362E+03  0.58400042986E+03  0.43698630654E+03  0.78561909617E+03  0.80641912450E+02 0.  0.
         24    2    4    4    0    0 -0.33816745486E+03  0.81912461404E+01 -0.65286196690E+02  0.35414630034E+03  0.82054801986E+02 0.  0.
         13    1    3    3    0    0  0.24582952633E+02 -0.30820390005E+02 -0.39725855906E+02  0.55967505105E+02  0.00000000000E+00 0. -1.
        -13    1    3    3    0    0  0.33083678606E+02 -0.56137128599E+03 -0.50807482145E+03  0.75787352159E+03  0.00000000000E+00 0.  1.
          4    1    6    6  502    0 -0.23300750660E+02 -0.29825097782E+01 -0.28511908863E+02  0.36942513354E+02  0.00000000000E+00 0. -1.
          3    1    5    5  503    0  0.71848520760E+02  0.10687909692E+03  0.56266765027E+02  0.14053931884E+03  0.00000000000E+00 0. -1.
         -4    1    5    5    0  503  0.20865230286E+03  0.47712133294E+03  0.38071954151E+03  0.64507977733E+03  0.00000000000E+00 0.  1.
         -3    1    6    6    0  502 -0.31486670420E+03  0.11173755919E+02 -0.36774287827E+02  0.31720378699E+03  0.00000000000E+00 0.  1.
<mgrwt>
<rscale>  0 0.19456533E+04</rscale>
<asrwt>0</asrwt>
<pdfrwt beam="1">  1        2 0.16382362E+00 0.19456533E+04</pdfrwt>
<pdfrwt beam="2">  1       -2 0.13673122E+00 0.19456533E+04</pdfrwt>
<totfact> 0.81636472E+00</totfact>
</mgrwt>
</event>
<event>
12    1  0.1489233E-007  0.2859305E+04  0.7818608E-02  0.8285090E-01
          1   -1    0    0  501    0  0.00000000000E+00  0.00000000000E+00  0.25272098173E+04  0.25272098173E+04  0.00000000000E+00 0. -1.
         -1   -1    0    0    0  501 -0.00000000000E+00 -0.00000000000E+00 -0.80875985568E+03  0.80875985568E+03  0.00000000000E+00 0.  1.
         23    2    1    2    0    0  0.10071627074E+04  0.28501059660E+03 -0.99726762288E+02  0.10554795626E+04  0.92108200400E+02 0.  0.
        254    2    1    2    0    0 -0.10071627074E+04 -0.28501059660E+03  0.18181767239E+04  0.22804901103E+04  0.89401386154E+03 0.  0.
        -24    2    4    4    0    0 -0.28720363230E+03  0.30013997109E+03  0.39030651047E+03  0.57585803771E+03  0.81874164552E+02 0.  0.
         24    2    4    4    0    0 -0.71995907513E+03 -0.58515056769E+03  0.14278702134E+04  0.17046320726E+04  0.78834636648E+02 0.  0.
         13    1    3    3    0    0  0.92413648779E+02  0.54390159261E+02 -0.47221048815E+01  0.10733531655E+03  0.00000000000E+00 0. -1.
        -13    1    3    3    0    0  0.91474905865E+03  0.23062043734E+03 -0.95004657406E+02  0.94814424607E+03  0.00000000000E+00 0.  1.
          2    1    6    6  502    0 -0.71149926176E+03 -0.56597089323E+03  0.14060436709E+04  0.16743694502E+04  0.00000000000E+00 0. -1.
          1    1    5    5  503    0 -0.21846035085E+03  0.27108453537E+03  0.33293349018E+03  0.48172238799E+03  0.00000000000E+00 0. -1.
         -2    1    5    5    0  503 -0.68743281452E+02  0.29055435723E+02  0.57373020291E+02  0.94135649714E+02  0.00000000000E+00 0.  1.
         -1    1    6    6    0  502 -0.84598133698E+01 -0.19179674461E+02  0.21826542524E+02  0.30262622379E+02  0.00000000000E+00 0.  1.
<mgrwt>
<rscale>  0 0.28593047E+04</rscale>
<asrwt>0</asrwt>
<pdfrwt beam="1">  1        1 0.38880151E+00 0.28593047E+04</pdfrwt>
<pdfrwt beam="2">  1       -1 0.12442459E+00 0.28593047E+04</pdfrwt>
<totfact> 0.63214849E-01</totfact>
</mgrwt>
</event>
<event>
12    1  0.1489233E-007  0.1676780E+04  0.7818608E-02  0.8774720E-01
         -2   -1    0    0    0  501 -0.00000000000E+00  0.00000000000E+00  0.14358404827E+04  0.14358404827E+04  0.00000000000E+00 0.  1.
          2   -1    0    0  501    0  0.00000000000E+00 -0.00000000000E+00 -0.48953738543E+03  0.48953738543E+03  0.00000000000E+00 0. -1.
         23    2    1    2    0    0 -0.21926430315E+03 -0.42336649581E+03 -0.68654217716E+02  0.49031277628E+03  0.91527004594E+02 0.  0.
        254    2    1    2    0    0  0.21926430315E+03  0.42336649581E+03  0.10149573150E+04  0.14350650919E+04  0.89552076594E+03 0.  0.
        -24    2    4    4    0    0 -0.17984791723E+03 -0.11895341239E+03  0.20008898253E+02  0.23091172395E+03  0.80154105297E+02 0.  0.
         24    2    4    4    0    0  0.39911222038E+03  0.54231990819E+03  0.99494841675E+03  0.12041533679E+04  0.81618222379E+02 0.  0.
         13    1    3    3    0    0  0.43262742655E+01 -0.17635649441E+02  0.95199608449E+01  0.20502742126E+02  0.00000000000E+00 0.  1.
        -13    1    3    3    0    0 -0.22359057741E+03 -0.40573084637E+03 -0.78174178561E+02  0.46981003416E+03  0.00000000000E+00 0. -1.
          4    1    6    6  502    0  0.25266943570E+03  0.29821180536E+03  0.52151827076E+03  0.65173110354E+03  0.00000000000E+00 0. -1.
          3    1    5    5  503    0 -0.23447044120E+02 -0.23057921919E+02  0.33517820600E+02  0.46956106514E+02  0.00000000000E+00 0. -1.
         -4    1    5    5    0  503 -0.15640087311E+03 -0.95895490466E+02 -0.13508922347E+02  0.18395561743E+03  0.00000000000E+00 0.  1.
         -3    1    6    6    0  502  0.14644278467E+03  0.24410810283E+03  0.47343014600E+03  0.55242226439E+03  0.00000000000E+00 0.  1.
<mgrwt>
<rscale>  0 0.16767798E+04</rscale>
<asrwt>0</asrwt>
<pdfrwt beam="1">  1        2 0.75313445E-01 0.16767798E+04</pdfrwt>
<pdfrwt beam="2">  1       -2 0.22089853E+00 0.16767798E+04</pdfrwt>
<totfact> 0.58648642E+00</totfact>
</mgrwt>
</event>
<event>
12    1  0.1489233E-007  0.1337926E+04  0.7818608E-02  0.9000019E-01
          1   -1    0    0  501    0  0.00000000000E+00  0.00000000000E+00  0.24749702964E+04  0.24749702964E+04  0.00000000000E+00 0. -1.
         -1   -1    0    0    0  501 -0.00000000000E+00 -0.00000000000E+00 -0.18081477373E+03  0.18081477373E+03  0.00000000000E+00 0.  1.
         23    2    1    2    0    0  0.87310234371E+02  0.22836714214E+02 -0.51593761797E+02  0.14166618127E+03  0.96243431558E+02 0.  0.
        254    2    1    2    0    0 -0.87310234371E+02 -0.22836714214E+02  0.23457492844E+04  0.25141188888E+04  0.90006082527E+03 0.  0.
        -24    2    4    4    0    0 -0.42125224780E+03  0.14498195844E+03  0.77548220094E+03  0.89800031036E+03  0.80985732554E+02 0.  0.
         24    2    4    4    0    0  0.33394201343E+03 -0.16781867265E+03  0.15702670835E+04  0.16161185785E+04  0.80125969148E+02 0.  0.
         13    1    3    3    0    0  0.10743723472E+03  0.14123853222E+02 -0.50906455058E+02  0.11972347222E+03  0.00000000000E+00 0.  1.
        -13    1    3    3    0    0 -0.20127000352E+02  0.87128609920E+01 -0.68730673857E+00  0.21942709049E+02  0.00000000000E+00 0. -1.
          4    1    6    6  502    0  0.31266056686E+03 -0.13677392496E+03  0.14679853210E+04  0.15071312615E+04  0.00000000000E+00 0. -1.
          1    1    5    5  503    0 -0.27909051802E+03  0.12176512368E+03  0.46636785961E+03  0.55697149215E+03  0.00000000000E+00 0. -1.
         -2    1    5    5    0  503 -0.14216172978E+03  0.23216834764E+02  0.30911434133E+03  0.34102881821E+03  0.00000000000E+00 0.  1.
         -3    1    6    6    0  502  0.21281446576E+02 -0.31044747697E+02  0.10228176247E+03  0.10898731698E+03  0.00000000000E+00 0.  1.
<mgrwt>
<rscale>  0 0.13379255E+04</rscale>
<asrwt>0</asrwt>
<pdfrwt beam="1">  1        1 0.38076464E+00 0.13379255E+04</pdfrwt>
<pdfrwt beam="2">  1       -1 0.27817659E-01 0.13379255E+04</pdfrwt>
<totfact> 0.16151207E+01</totfact>
</mgrwt>
</event>
<event>
12    1  0.1489233E-007  0.2313174E+04  0.7818608E-02  0.8472745E-01
         -1   -1    0    0    0  501 -0.00000000000E+00  0.00000000000E+00  0.14344236251E+04  0.14344236251E+04  0.00000000000E+00 0.  1.
          1   -1    0    0  501    0  0.00000000000E+00 -0.00000000000E+00 -0.93256538316E+03  0.93256538316E+03  0.00000000000E+00 0. -1.
         23    2    1    2    0    0 -0.38128202848E+03  0.74464421607E+03 -0.31007867316E+03  0.89702691265E+03  0.92938176740E+02 0.  0.
        254    2    1    2    0    0  0.38128202848E+03 -0.74464421607E+03  0.81193691514E+03  0.14699620956E+04  0.89536362149E+03 0.  0.
        -24    2    4    4    0    0  0.38626167357E+03 -0.73772096628E+03  0.97715545906E+03  0.12863353912E+04  0.79972762916E+02 0.  0.
         24    2    4    4    0    0 -0.49796450886E+01 -0.69232497932E+01 -0.16521854392E+03  0.18362670449E+03  0.79679803541E+02 0.  0.
         11    1    3    3    0    0 -0.22869856452E+03  0.52553518868E+03 -0.18568565101E+03  0.60246944233E+03  0.00000000000E+00 0. -1.
        -11    1    3    3    0    0 -0.15258346396E+03  0.21910902739E+03 -0.12439302215E+03  0.29455747031E+03  0.00000000000E+00 0.  1.
          4    1    6    6  502    0 -0.26201025528E+02 -0.35758931666E+02 -0.90837734817E+02  0.10107763847E+03  0.00000000000E+00 0. -1.
          3    1    5    5  503    0  0.98336495044E+02 -0.14839690925E+03  0.25222757254E+03  0.30872391758E+03  0.00000000000E+00 0. -1.
         -4    1    5    5    0  503  0.28792517853E+03 -0.58932405703E+03  0.72492788652E+03  0.97761147358E+03  0.00000000000E+00 0.  1.
         -3    1    6    6    0  502  0.21221380439E+02  0.28835681873E+02 -0.74380809105E+02  0.82549066015E+02  0.00000000000E+00 0.  1.
<mgrwt>
<rscale>  0 0.23131743E+04</rscale>
<asrwt>0</asrwt>
<pdfrwt beam="1">  1        1 0.14347160E+00 0.23131743E+04</pdfrwt>
<pdfrwt beam="2">  1       -1 0.22068056E+00 0.23131743E+04</pdfrwt>
<totfact> 0.16830306E+00</totfact>
</mgrwt>
</event>
<event>
12    1  0.1489233E-007  0.1989615E+04  0.7818608E-02  0.8611491E-01
         -1   -1    0    0    0  501 -0.00000000000E+00  0.00000000000E+00  0.92999556686E+03  0.92999556686E+03  0.00000000000E+00 0.  1.
          1   -1    0    0  501    0  0.00000000000E+00 -0.00000000000E+00 -0.10641365340E+04  0.10641365340E+04  0.00000000000E+00 0. -1.
         23    2    1    2    0    0 -0.37673750084E+03 -0.57002482943E+03  0.33969490791E+03  0.76857161874E+03  0.91925252090E+02 0.  0.
        254    2    1    2    0    0  0.37673750084E+03  0.57002482943E+03 -0.47383587501E+03  0.12255604821E+04  0.90034360555E+03 0.  0.
        -24    2    4    4    0    0  0.18766691136E+03  0.68842408265E+03 -0.25918219142E+02  0.71824900222E+03  0.77867117057E+02 0.  0.
         24    2    4    4    0    0  0.18907058948E+03 -0.11839925322E+03 -0.44791765587E+03  0.50731147985E+03  0.83478381517E+02 0.  0.
         13    1    3    3    0    0 -0.32089188838E+03 -0.48803922909E+03  0.32463055247E+03  0.66823565362E+03  0.00000000000E+00 0.  1.
        -13    1    3    3    0    0 -0.55845612456E+02 -0.81985600339E+02  0.15064355435E+02  0.10033596513E+03  0.00000000000E+00 0. -1.
          2    1    6    6  502    0  0.59635963176E+02 -0.11824568356E+02 -0.19170680318E+03  0.20111630194E+03  0.00000000000E+00 0. -1.
          3    1    5    5  503    0  0.31534975107E+02  0.43576005397E+02 -0.91109215563E+01  0.54555767734E+02  0.00000000000E+00 0. -1.
         -4    1    5    5    0  503  0.15613193625E+03  0.64484807725E+03 -0.16807297585E+02  0.66369323448E+03  0.00000000000E+00 0.  1.
         -1    1    6    6    0  502  0.12943462631E+03 -0.10657468486E+03 -0.25621085269E+03  0.30619517791E+03  0.00000000000E+00 0.  1.
<mgrwt>
<rscale>  0 0.19896153E+04</rscale>
<asrwt>0</asrwt>
<pdfrwt beam="1">  1        1 0.16371331E+00 0.19896153E+04</pdfrwt>
<pdfrwt beam="2">  1       -1 0.14307624E+00 0.19896153E+04</pdfrwt>
<totfact> 0.49618048E+00</totfact>
</mgrwt>
</event>
<event>
12    1  0.1489233E-007  0.1849588E+04  0.7818608E-02  0.8680365E-01
         -2   -1    0    0    0  501 -0.00000000000E+00  0.00000000000E+00  0.11950431766E+04  0.11950431766E+04  0.00000000000E+00 0.  1.
          2   -1    0    0  501    0  0.00000000000E+00 -0.00000000000E+00 -0.71565954272E+03  0.71565954272E+03  0.00000000000E+00 0. -1.
         23    2    1    2    0    0 -0.31803952598E+03  0.40697926832E+03  0.66982977141E+03  0.85100851315E+03  0.93607167720E+02 0.  0.
        254    2    1    2    0    0  0.31803952598E+03 -0.40697926832E+03 -0.19044613756E+03  0.10596942061E+04  0.90548374600E+03 0.  0.
        -24    2    4    4    0    0  0.56996816996E+03 -0.36326219756E+03  0.72942646832E+02  0.68428404375E+03  0.78108154876E+02 0.  0.
         24    2    4    4    0    0 -0.25192864398E+03 -0.43717070761E+02 -0.26338878440E+03  0.37541016239E+03  0.78612431249E+02 0.  0.
         11    1    3    3    0    0 -0.28305888476E+03  0.35542628272E+03  0.53115459194E+03  0.69898167017E+03  0.00000000000E+00 0.  1.
        -11    1    3    3    0    0 -0.34980641221E+02  0.51552985598E+02  0.13867517947E+03  0.15202684298E+03  0.00000000000E+00 0. -1.
          2    1    6    6  502    0 -0.14214411928E+03 -0.29533399702E+02 -0.93647644039E+02  0.17276299829E+03  0.00000000000E+00 0. -1.
          1    1    5    5  503    0  0.54277669063E+03 -0.36339034676E+03  0.70349256978E+02  0.65696887139E+03  0.00000000000E+00 0. -1.
         -2    1    5    5    0  503  0.27191479324E+02  0.12814920224E+00  0.25933898547E+01  0.27315172359E+02  0.00000000000E+00 0.  1.
         -1    1    6    6    0  502 -0.10978452470E+03 -0.14183671059E+02 -0.16974114036E+03  0.20264716410E+03  0.00000000000E+00 0.  1.
<mgrwt>
<rscale>  0 0.18495881E+04</rscale>
<asrwt>0</asrwt>
<pdfrwt beam="1">  1        2 0.11010147E+00 0.18495881E+04</pdfrwt>
<pdfrwt beam="2">  1       -2 0.18385280E+00 0.18495881E+04</pdfrwt>
<totfact> 0.63859500E+00</totfact>
</mgrwt>
</event>
<event>
12    1  0.1489233E-007  0.1079527E+04  0.7818608E-02  0.9225379E-01
         -1   -1    0    0    0  501 -0.00000000000E+00  0.00000000000E+00  0.69085106276E+03  0.69085106276E+03  0.00000000000E+00 0.  1.
          1   -1    0    0  501    0  0.00000000000E+00 -0.00000000000E+00 -0.42171877703E+03  0.42171877703E+03  0.00000000000E+00 0. -1.
         23    2    1    2    0    0 -0.11410313464E+03  0.73455350430E+02 -0.30610276456E+01  0.16037045168E+03  0.85405491863E+02 0.  0.
        254    2    1    2    0    0  0.11410313464E+03 -0.73455350430E+02  0.27219331338E+03  0.95219938810E+03  0.90231882448E+03 0.  0.
        -24    2    4    4    0    0  0.82628866418E+02 -0.44269480296E+03 -0.44390252245E+02  0.45912163448E+03  0.77562636754E+02 0.  0.
         24    2    4    4    0    0  0.31474268226E+02  0.36923945253E+03  0.31658356562E+03  0.49307775362E+03  0.74646595546E+02 0.  0.
         11    1    3    3    0    0 -0.84763351636E+02  0.66276083544E+02 -0.38067779873E+02  0.11413369746E+03  0.00000000000E+00 0.  1.
        -11    1    3    3    0    0 -0.29339783009E+02  0.71792668863E+01  0.35006752227E+02  0.46236754228E+02  0.00000000000E+00 0. -1.
          2    1    6    6  502    0 -0.83805894513E+01  0.34130956624E+02  0.85649316785E+01  0.36173395394E+02  0.00000000000E+00 0. -1.
          3    1    5    5  503    0  0.31552543264E+02 -0.39527793210E+02 -0.42823701504E+01  0.50757739475E+02  0.00000000000E+00 0. -1.
         -4    1    5    5    0  503  0.51076323153E+02 -0.40316700975E+03 -0.40107882095E+02  0.40836389501E+03  0.00000000000E+00 0.  1.
         -1    1    6    6    0  502  0.39854857678E+02  0.33510849591E+03  0.30801863394E+03  0.45690435823E+03  0.00000000000E+00 0.  1.
<mgrwt>
<rscale>  0 0.10795274E+04</rscale>
<asrwt>0</asrwt>
<pdfrwt beam="1">  1        1 0.64879812E-01 0.10795274E+04</pdfrwt>
<pdfrwt beam="2">  1       -1 0.10628478E+00 0.10795274E+04</pdfrwt>
<totfact> 0.46175573E+01</totfact>
</mgrwt>
</event>
<event>
12    1  0.1489233E-007  0.2156057E+04  0.7818608E-02  0.8536944E-01
         -1   -1    0    0    0  501 -0.00000000000E+00  0.00000000000E+00  0.58455657267E+03  0.58455657267E+03  0.00000000000E+00 0.  1.
          1   -1    0    0  501    0  0.00000000000E+00 -0.00000000000E+00 -0.19880803015E+04  0.19880803015E+04  0.00000000000E+00 0. -1.
         23    2    1    2    0    0 -0.55630961422E+03  0.38216677511E+03  0.96363437831E+02  0.68777226190E+03  0.90625279101E+02 0.  0.
        254    2    1    2    0    0  0.55630961422E+03 -0.38216677511E+03 -0.14998871667E+04  0.18848646123E+04  0.92060918038E+03 0.  0.
        -24    2    4    4    0    0  0.91157901335E+02 -0.23940267952E+03  0.37090212697E+02  0.27076645371E+03  0.79469381757E+02 0.  0.
         24    2    4    4    0    0  0.46515171289E+03 -0.14276409558E+03 -0.15369773794E+04  0.16140981586E+04  0.79156160943E+02 0.  0.
         11    1    3    3    0    0 -0.42643833074E+03  0.29428958137E+03  0.11229383331E+03  0.53015649824E+03  0.00000000000E+00 0. -1.
        -11    1    3    3    0    0 -0.12987128348E+03  0.87877193738E+02 -0.15930395483E+02  0.15761576366E+03  0.00000000000E+00 0.  1.
          4    1    6    6  502    0  0.46433738223E+03 -0.14693757281E+03 -0.15319980653E+04  0.16075502876E+04  0.00000000000E+00 0. -1.
          3    1    5    5  503    0  0.64697438118E+02 -0.23069330127E+03  0.26878013607E+02  0.24109663077E+03  0.00000000000E+00 0. -1.
         -4    1    5    5    0  503  0.26460463217E+02 -0.87093782508E+01  0.10212199090E+02  0.29669822942E+02  0.00000000000E+00 0.  1.
         -3    1    6    6    0  502  0.81433065715E+00  0.41734772230E+01 -0.49793140428E+01  0.65478710194E+01  0.00000000000E+00 0.  1.
<mgrwt>
<rscale>  0 0.21560570E+04</rscale>
<asrwt>0</asrwt>
<pdfrwt beam="1">  1        1 0.30585851E+00 0.21560570E+04</pdfrwt>
<pdfrwt beam="2">  1       -1 0.89931779E-01 0.21560570E+04</pdfrwt>
<totfact> 0.33615362E+00</totfact>
</mgrwt>
</event>
<event>
12    1  0.1489233E-007  0.1451019E+04  0.7818608E-02  0.8917694E-01
         -2   -1    0    0    0  501 -0.00000000000E+00  0.00000000000E+00  0.22554980118E+03  0.22554980118E+03  0.00000000000E+00 0. -1.
          2   -1    0    0  501    0  0.00000000000E+00 -0.00000000000E+00 -0.23336946575E+04  0.23336946575E+04  0.00000000000E+00 0.  1.
         23    2    1    2    0    0  0.24171353166E+03  0.67304270668E+02 -0.12942141905E+04  0.13220619795E+04  0.99509851820E+02 0.  0.
        254    2    1    2    0    0 -0.24171353166E+03 -0.67304270668E+02 -0.81393066587E+03  0.12371824792E+04  0.89731937554E+03 0.  0.
        -24    2    4    4    0    0 -0.16962478284E+03  0.27714841211E+03  0.12894299589E+02  0.33506196852E+03  0.80724534661E+02 0.  0.
         24    2    4    4    0    0 -0.72088748817E+02 -0.34445268278E+03 -0.82682496546E+03  0.90212051066E+03  0.79608126972E+02 0.  0.
         13    1    3    3    0    0  0.18703359229E+03  0.90142201982E+02 -0.10814473062E+04  0.11011972835E+04  0.00000000000E+00 0.  1.
        -13    1    3    3    0    0  0.54679939370E+02 -0.22837931314E+02 -0.21276688427E+03  0.22086469595E+03  0.00000000000E+00 0. -1.
          4    1    6    6  502    0 -0.34431095861E+02 -0.23217983713E+03 -0.45627214188E+03  0.51310549070E+03  0.00000000000E+00 0. -1.
          3    1    5    5  503    0 -0.56667952224E+02  0.43216796411E+02 -0.17865165951E+02  0.73471848049E+02  0.00000000000E+00 0. -1.
         -4    1    5    5    0  503 -0.11295683061E+03  0.23393161570E+03  0.30759465540E+02  0.26159012047E+03  0.00000000000E+00 0.  1.
         -3    1    6    6    0  502 -0.37657652956E+02 -0.11227284565E+03 -0.37055282358E+03  0.38901501996E+03  0.00000000000E+00 0.  1.
<mgrwt>
<rscale>  0 0.14510195E+04</rscale>
<asrwt>0</asrwt>
<pdfrwt beam="1">  1        2 0.35902994E+00 0.14510195E+04</pdfrwt>
<pdfrwt beam="2">  1       -2 0.34699970E-01 0.14510195E+04</pdfrwt>
<totfact> 0.32827990E+01</totfact>
</mgrwt>
</event>
<event>
12    1  0.1489233E-007  0.1668097E+04  0.7818608E-02  0.8779772E-01
         -1   -1    0    0    0  501 -0.00000000000E+00  0.00000000000E+00  0.95581701429E+03  0.95581701429E+03  0.00000000000E+00 0.  1.
          1   -1    0    0  501    0  0.00000000000E+00 -0.00000000000E+00 -0.72779275893E+03  0.72779275893E+03  0.00000000000E+00 0. -1.
         23    2    1    2    0    0  0.12009812348E+03 -0.16677880842E+02  0.65503263826E+03  0.67230618991E+03  0.90698097142E+02 0.  0.
        254    2    1    2    0    0 -0.12009812348E+03  0.16677880842E+02 -0.42700838290E+03  0.10113035833E+04  0.90867874827E+03 0.  0.
        -24    2    4    4    0    0 -0.39408423370E+03 -0.23079106565E+03 -0.31710079665E+02  0.46463240299E+03  0.79440805151E+02 0.  0.
         24    2    4    4    0    0  0.27398611022E+03  0.24746894649E+03 -0.39529830324E+03  0.54667118031E+03  0.79242430371E+02 0.  0.
         13    1    3    3    0    0  0.95221546214E+02 -0.41956015052E+02  0.34776554237E+03  0.36299906683E+03  0.00000000000E+00 0.  1.
        -13    1    3    3    0    0  0.24876577269E+02  0.25278134210E+02  0.30726709590E+03  0.30930712308E+03  0.00000000000E+00 0. -1.
          2    1    6    6  502    0  0.33952025539E+02  0.58848750420E+02 -0.10719668701E+03  0.12691353423E+03  0.00000000000E+00 0. -1.
          3    1    5    5  503    0 -0.24351855839E+02  0.33326967959E+01 -0.97949036077E+01  0.26458644852E+02  0.00000000000E+00 0. -1.
         -4    1    5    5    0  503 -0.36973237786E+03 -0.23412376245E+03 -0.21915176058E+02  0.43817375814E+03  0.00000000000E+00 0.  1.
         -1    1    6    6    0  502  0.24003408468E+03  0.18862019607E+03 -0.28810161623E+03  0.41975764609E+03  0.00000000000E+00 0.  1.
<mgrwt>
<rscale>  0 0.16680968E+04</rscale>
<asrwt>0</asrwt>
<pdfrwt beam="1">  1        1 0.11196812E+00 0.16680968E+04</pdfrwt>
<pdfrwt beam="2">  1       -1 0.14704877E+00 0.16680968E+04</pdfrwt>
<totfact> 0.90133107E+00</totfact>
</mgrwt>
</event>
<event>
12    1  0.1489233E-007  0.1015893E+04  0.7818608E-02  0.9291283E-01
         -1   -1    0    0    0  501 -0.00000000000E+00  0.00000000000E+00  0.57383006880E+03  0.57383006880E+03  0.00000000000E+00 0.  1.
          1   -1    0    0  501    0  0.00000000000E+00 -0.00000000000E+00 -0.44962757880E+03  0.44962757880E+03  0.00000000000E+00 0. -1.
         23    2    1    2    0    0 -0.18702407256E+01 -0.31849218768E+02  0.69583394771E+02  0.11920848382E+03  0.91383495504E+02 0.  0.
        254    2    1    2    0    0  0.18702407256E+01  0.31849218768E+02  0.54619095233E+02  0.90424916378E+03  0.90203405374E+03 0.  0.
        -24    2    4    4    0    0 -0.35419185567E+03  0.57744036008E+02 -0.23616720793E+03  0.43689887797E+03  0.79494874983E+02 0.  0.
         24    2    4    4    0    0  0.35606209640E+03 -0.25894817239E+02  0.29078630317E+03  0.46735028581E+03  0.80055340174E+02 0.  0.
         11    1    3    3    0    0 -0.43794690365E+02 -0.25888340029E+02  0.53725255866E+02  0.73990432973E+02  0.00000000000E+00 0.  1.
        -11    1    3    3    0    0  0.41924449640E+02 -0.59608787399E+01  0.15858138905E+02  0.45218050848E+02  0.00000000000E+00 0. -1.
          4    1    6    6  502    0  0.26042480964E+03 -0.21110569150E+02  0.16406898192E+03  0.30852126091E+03  0.00000000000E+00 0. -1.
          3    1    5    5  503    0 -0.29899032743E+03  0.30031342412E+02 -0.22178887241E+03  0.37348012176E+03  0.00000000000E+00 0. -1.
         -4    1    5    5    0  503 -0.55201528246E+02  0.27712693596E+02 -0.14378335518E+02  0.63418756211E+02  0.00000000000E+00 0.  1.
         -3    1    6    6    0  502  0.95637286761E+02 -0.47842480894E+01  0.12671732124E+03  0.15882902490E+03  0.00000000000E+00 0.  1.
<mgrwt>
<rscale>  0 0.10158933E+04</rscale>
<asrwt>0</asrwt>
<pdfrwt beam="1">  1        1 0.69173474E-01 0.10158933E+04</pdfrwt>
<pdfrwt beam="2">  1       -1 0.88281549E-01 0.10158933E+04</pdfrwt>
<totfact> 0.64758588E+01</totfact>
</mgrwt>
</event>
<event>
12    1  0.1489233E-007  0.1454860E+04  0.7818608E-02  0.8915038E-01
          1   -1    0    0  501    0  0.00000000000E+00  0.00000000000E+00  0.15608958482E+04  0.15608958482E+04  0.00000000000E+00 0. -1.
         -1   -1    0    0    0  501 -0.00000000000E+00 -0.00000000000E+00 -0.33900702831E+03  0.33900702831E+03  0.00000000000E+00 0.  1.
         23    2    1    2    0    0  0.22210549086E+03  0.37798548778E+03  0.27940418611E+03  0.52777888535E+03  0.90994365526E+02 0.  0.
        254    2    1    2    0    0 -0.22210549086E+03 -0.37798548778E+03  0.94248463379E+03  0.13721239912E+04  0.89568023545E+03 0.  0.
        -24    2    4    4    0    0 -0.54044550779E+03 -0.24551237158E+03  0.77710480004E+03  0.98139160032E+03  0.82945352132E+02 0.  0.
         24    2    4    4    0    0  0.31834001693E+03 -0.13247311621E+03  0.16537983375E+03  0.39073239086E+03  0.80198621937E+02 0.  0.
         13    1    3    3    0    0  0.21290145423E+03  0.29744778347E+03  0.24128397711E+03  0.43820106198E+03  0.00000000000E+00 0.  1.
        -13    1    3    3    0    0  0.92040366334E+01  0.80537704310E+02  0.38120208993E+02  0.89577823369E+02  0.00000000000E+00 0. -1.
          4    1    6    6  502    0  0.47639031153E+01  0.82058587671E+01  0.39459997314E+00  0.94966625789E+01  0.00000000000E+00 0. -1.
          3    1    5    5  503    0 -0.24998078752E+03 -0.68505690230E+02  0.33230676343E+03  0.42143944849E+03  0.00000000000E+00 0. -1.
         -4    1    5    5    0  503 -0.29046472027E+03 -0.17700668135E+03  0.44479803661E+03  0.55995215183E+03  0.00000000000E+00 0.  1.
         -3    1    6    6    0  502  0.31357611381E+03 -0.14067897497E+03  0.16498523378E+03  0.38123572828E+03  0.00000000000E+00 0.  1.
<mgrwt>
<rscale>  0 0.14548604E+04</rscale>
<asrwt>0</asrwt>
<pdfrwt beam="1">  1        1 0.24013782E+00 0.14548604E+04</pdfrwt>
<pdfrwt beam="2">  1       -1 0.52154928E-01 0.14548604E+04</pdfrwt>
<totfact> 0.21339366E+01</totfact>
</mgrwt>
</event>
<event>
12    1  0.1489233E-007  0.1359013E+04  0.7818608E-02  0.8984033E-01
          2   -1    0    0  501    0  0.00000000000E+00  0.00000000000E+00  0.45769295550E+03  0.45769295550E+03  0.00000000000E+00 0. -1.
         -2   -1    0    0    0  501 -0.00000000000E+00 -0.00000000000E+00 -0.10088184647E+04  0.10088184647E+04  0.00000000000E+00 0.  1.
         23    2    1    2    0    0 -0.18603050404E+03  0.29698520793E+03  0.55176847653E+01  0.36188034365E+03  0.90107580765E+02 0.  0.
        254    2    1    2    0    0  0.18603050404E+03 -0.29698520793E+03 -0.55664319396E+03  0.11046310766E+04  0.88744048124E+03 0.  0.
        -24    2    4    4    0    0 -0.28042140708E+03  0.12532666034E+03 -0.18615608935E+03  0.36993342039E+03  0.88621151976E+02 0.  0.
         24    2    4    4    0    0  0.46645191112E+03 -0.42231186826E+03 -0.37048710461E+03  0.73469765617E+03  0.81211155792E+02 0.  0.
         13    1    3    3    0    0 -0.12070269167E+03  0.24363798678E+03  0.31278927039E+02  0.27369139493E+03  0.00000000000E+00 0. -1.
        -13    1    3    3    0    0 -0.65327812370E+02  0.53347221144E+02 -0.25761242273E+02  0.88188948720E+02  0.00000000000E+00 0.  1.
          2    1    6    6  502    0  0.41982194218E+03 -0.40051808328E+03 -0.35782341129E+03  0.68169112641E+03  0.00000000000E+00 0. -1.
          1    1    5    5  503    0 -0.21355921567E+03  0.75233373087E+02 -0.92936866582E+02  0.24475469392E+03  0.00000000000E+00 0. -1.
         -2    1    5    5    0  503 -0.66862191408E+02  0.50093287250E+02 -0.93219222765E+02  0.12517872647E+03  0.00000000000E+00 0.  1.
         -1    1    6    6    0  502  0.46629968945E+02 -0.21793784988E+02 -0.12663693328E+02  0.53006529755E+02  0.00000000000E+00 0.  1.
<mgrwt>
<rscale>  0 0.13590130E+04</rscale>
<asrwt>0</asrwt>
<pdfrwt beam="1">  1        2 0.70414302E-01 0.13590130E+04</pdfrwt>
<pdfrwt beam="2">  1       -2 0.15520284E+00 0.13590130E+04</pdfrwt>
<totfact> 0.18195623E+01</totfact>
</mgrwt>
</event>
<event>
12    1  0.1489233E-007  0.1328915E+04  0.7818608E-02  0.9006945E-01
          1   -1    0    0  501    0  0.00000000000E+00  0.00000000000E+00  0.20028583806E+04  0.20028583806E+04  0.00000000000E+00 0. -1.
         -1   -1    0    0    0  501 -0.00000000000E+00 -0.00000000000E+00 -0.22043671048E+03  0.22043671048E+03  0.00000000000E+00 0.  1.
         23    2    1    2    0    0 -0.19536696670E+03 -0.26822696007E+03  0.64978349250E+03  0.73535877530E+03  0.91760489891E+02 0.  0.
        254    2    1    2    0    0  0.19536696670E+03  0.26822696007E+03  0.11326381776E+04  0.14879363157E+04  0.90607465729E+03 0.  0.
        -24    2    4    4    0    0  0.46462669855E+03  0.37351982823E+03  0.98443073560E+03  0.11538370487E+04  0.82710523316E+02 0.  0.
         24    2    4    4    0    0 -0.26925973185E+03 -0.10529286816E+03  0.14820744198E+03  0.33409926703E+03  0.77906887333E+02 0.  0.
         11    1    3    3    0    0 -0.81092472291E+02 -0.55406639173E+02  0.24535196083E+03  0.26427915054E+03  0.00000000000E+00 0.  1.
        -11    1    3    3    0    0 -0.11427449441E+03 -0.21282032090E+03  0.40443153167E+03  0.47107962477E+03  0.00000000000E+00 0. -1.
          2    1    6    6  502    0 -0.12482601357E+03 -0.65377074145E+02  0.32066959662E+02  0.14451292465E+03  0.00000000000E+00 0. -1.
          3    1    5    5  503    0  0.22191898154E+03  0.18620307753E+03  0.55691538331E+03  0.62775342660E+03  0.00000000000E+00 0. -1.
         -4    1    5    5    0  503  0.24270771701E+03  0.18731675070E+03  0.42751535229E+03  0.52608362209E+03  0.00000000000E+00 0.  1.
         -1    1    6    6    0  502 -0.14443371828E+03 -0.39915794018E+02  0.11614048231E+03  0.18958634239E+03  0.00000000000E+00 0.  1.
<mgrwt>
<rscale>  0 0.13289146E+04</rscale>
<asrwt>0</asrwt>
<pdfrwt beam="1">  1        1 0.30813205E+00 0.13289146E+04</pdfrwt>
<pdfrwt beam="2">  1       -1 0.33913342E-01 0.13289146E+04</pdfrwt>
<totfact> 0.23909906E+01</totfact>
</mgrwt>
</event>
<event>
12    1  0.1489233E-007  0.1641626E+04  0.7818608E-02  0.8795376E-01
          2   -1    0    0  501    0  0.00000000000E+00  0.00000000000E+00  0.19970089620E+04  0.19970089620E+04  0.00000000000E+00 0. -1.
         -2   -1    0    0    0  501 -0.00000000000E+00 -0.00000000000E+00 -0.33737144703E+03  0.33737144703E+03  0.00000000000E+00 0.  1.
         23    2    1    2    0    0 -0.10887773983E+03 -0.47573480615E+03  0.10748636648E+04  0.11839788848E+04  0.91083114021E+02 0.  0.
        254    2    1    2    0    0  0.10887773983E+03  0.47573480615E+03  0.58477385016E+03  0.11504015242E+04  0.86213992087E+03 0.  0.
        -24    2    4    4    0    0  0.14006410250E+03  0.19329971531E+03  0.76396851687E+03  0.80429889923E+03  0.79158649469E+02 0.  0.
         24    2    4    4    0    0 -0.31186362670E+02  0.28243509084E+03 -0.17919466671E+03  0.34610262502E+03  0.83271415966E+02 0.  0.
         13    1    3    3    0    0 -0.39581799900E+02 -0.53919836197E+02  0.11132494514E+03  0.12987421234E+03  0.00000000000E+00 0.  1.
        -13    1    3    3    0    0 -0.69295939929E+02 -0.42181496995E+03  0.96353871970E+03  0.10541046725E+04  0.00000000000E+00 0. -1.
          2    1    6    6  502    0 -0.41290630481E+02  0.16524659832E+03 -0.14478704897E+03  0.22355009275E+03  0.00000000000E+00 0. -1.
          1    1    5    5  503    0  0.99015512933E+02  0.86173498781E+02  0.49008707626E+03  0.50736110021E+03  0.00000000000E+00 0. -1.
         -2    1    5    5    0  503  0.41048589564E+02  0.10712621653E+03  0.27388144061E+03  0.29693779901E+03  0.00000000000E+00 0.  1.
         -3    1    6    6    0  502  0.10104267811E+02  0.11718849252E+03 -0.34407617744E+02  0.12255253227E+03  0.00000000000E+00 0.  1.
<mgrwt>
<rscale>  0 0.16416258E+04</rscale>
<asrwt>0</asrwt>
<pdfrwt beam="1">  1        2 0.30723214E+00 0.16416258E+04</pdfrwt>
<pdfrwt beam="2">  1       -2 0.51903301E-01 0.16416258E+04</pdfrwt>
<totfact> 0.22475184E+01</totfact>
</mgrwt>
</event>
<event>
12    1  0.1489233E-007  0.1643402E+04  0.7818608E-02  0.8794319E-01
         -1   -1    0    0    0  501 -0.00000000000E+00  0.00000000000E+00  0.30098691543E+03  0.30098691543E+03  0.00000000000E+00 0.  1.
          1   -1    0    0  501    0  0.00000000000E+00 -0.00000000000E+00 -0.22432615642E+04  0.22432615642E+04  0.00000000000E+00 0. -1.
         23    2    1    2    0    0  0.52861975243E+02  0.19511912681E+03  0.14310126397E+03  0.26420304230E+03  0.91975071298E+02 0.  0.
        254    2    1    2    0    0 -0.52861975243E+02 -0.19511912681E+03 -0.20853759127E+04  0.22800454373E+04  0.89941571964E+03 0.  0.
        -24    2    4    4    0    0 -0.29673326942E+03 -0.57376862319E+02 -0.19735602735E+03  0.36962570087E+03  0.79567705138E+02 0.  0.
         24    2    4    4    0    0  0.24387129418E+03 -0.13774226449E+03 -0.18880198854E+04  0.19104197364E+04  0.81476022595E+02 0.  0.
         13    1    3    3    0    0 -0.12156996679E+01  0.15359562104E+03  0.10549148211E+03  0.18633718235E+03  0.00000000000E+00 0.  1.
        -13    1    3    3    0    0  0.54077674910E+02  0.41523505771E+02  0.37609781860E+02  0.77865859956E+02  0.00000000000E+00 0. -1.
          2    1    6    6  502    0  0.15537466729E+02  0.69065078946E+01 -0.54708899604E+02  0.57290282069E+02  0.00000000000E+00 0. -1.
          1    1    5    5  503    0 -0.10012060644E+02 -0.15410631975E+02  0.10937344918E+01  0.18409921004E+02  0.00000000000E+00 0. -1.
         -2    1    5    5    0  503 -0.28672120877E+03 -0.41966230344E+02 -0.19844976184E+03  0.35121577986E+03  0.00000000000E+00 0.  1.
         -1    1    6    6    0  502  0.22833382745E+03 -0.14464877239E+03 -0.18333109858E+04  0.18531294544E+04  0.00000000000E+00 0.  1.
<mgrwt>
<rscale>  0 0.16434018E+04</rscale>
<asrwt>0</asrwt>
<pdfrwt beam="1">  1        1 0.34511716E+00 0.16434018E+04</pdfrwt>
<pdfrwt beam="2">  1       -1 0.46305680E-01 0.16434018E+04</pdfrwt>
<totfact> 0.90406956E+00</totfact>
</mgrwt>
</event>
<event>
12    1  0.1489233E-007  0.1553041E+04  0.7818608E-02  0.8849928E-01
          2   -1    0    0  501    0  0.00000000000E+00  0.00000000000E+00  0.15490047767E+04  0.15490047767E+04  0.00000000000E+00 0.  1.
         -2   -1    0    0    0  501 -0.00000000000E+00 -0.00000000000E+00 -0.38927197250E+03  0.38927197250E+03  0.00000000000E+00 0. -1.
         23    2    1    2    0    0  0.25931822546E+03  0.48135557121E+03  0.42805052827E+03  0.70068841590E+03  0.93743658098E+02 0.  0.
        254    2    1    2    0    0 -0.25931822546E+03 -0.48135557121E+03  0.73168227598E+03  0.12375883333E+04  0.83505496936E+03 0.  0.
        -24    2    4    4    0    0  0.13226124170E+02 -0.41702460852E+03 -0.25594678602E+02  0.42635998323E+03  0.83924330551E+02 0.  0.
         24    2    4    4    0    0 -0.27254434963E+03 -0.64330962693E+02  0.75727695458E+03  0.81122835011E+03  0.78766457336E+02 0.  0.
         11    1    3    3    0    0  0.39136343580E+02  0.64793324598E+02  0.22369335929E+02  0.78931714103E+02  0.00000000000E+00 0.  1.
        -11    1    3    3    0    0  0.22018188188E+03  0.41656224661E+03  0.40568119234E+03  0.62175670180E+03  0.00000000000E+00 0. -1.
          2    1    6    6  502    0 -0.27489548574E+03 -0.70668195510E+02  0.74457919300E+03  0.79684358351E+03  0.00000000000E+00 0. -1.
          3    1    5    5  503    0  0.23042518352E+02 -0.20471277034E+03  0.26024305423E+02  0.20764281944E+03  0.00000000000E+00 0. -1.
         -4    1    5    5    0  503 -0.98163941821E+01 -0.21231183818E+03 -0.51618984025E+02  0.21871716380E+03  0.00000000000E+00 0.  1.
         -1    1    6    6    0  502  0.23511361115E+01  0.63372328170E+01  0.12697761586E+02  0.14384766598E+02  0.00000000000E+00 0.  1.
<mgrwt>
<rscale>  0 0.15530411E+04</rscale>
<asrwt>0</asrwt>
<pdfrwt beam="1">  1        2 0.23830842E+00 0.15530411E+04</pdfrwt>
<pdfrwt beam="2">  1       -2 0.59887997E-01 0.15530411E+04</pdfrwt>
<totfact> 0.29802178E+01</totfact>
</mgrwt>
</event>
<event>
12    1  0.1489233E-007  0.2358241E+04  0.7818608E-02  0.8455305E-01
         -2   -1    0    0    0  501 -0.00000000000E+00  0.00000000000E+00  0.87772816691E+03  0.87772816691E+03  0.00000000000E+00 0.  1.
          2   -1    0    0  501    0  0.00000000000E+00 -0.00000000000E+00 -0.15840048354E+04  0.15840048354E+04  0.00000000000E+00 0. -1.
         23    2    1    2    0    0 -0.73903904895E+03 -0.60801832459E+03  0.13342262597E+02  0.96145810836E+03  0.91425812819E+02 0.  0.
        254    2    1    2    0    0  0.73903904895E+03  0.60801832459E+03 -0.71961893112E+03  0.15002748940E+04  0.90394045855E+03 0.  0.
        -24    2    4    4    0    0 -0.20228068096E+03  0.13021992935E+03 -0.88864793099E+02  0.26792786734E+03  0.77547964204E+02 0.  0.
         24    2    4    4    0    0  0.94131972991E+03  0.47779839523E+03 -0.63075413802E+03  0.12323470266E+04  0.80338478008E+02 0.  0.
         13    1    3    3    0    0 -0.63211922672E+03 -0.47678266127E+03  0.15263193634E+01  0.79176938090E+03  0.00000000000E+00 0.  1.
        -13    1    3    3    0    0 -0.10691982222E+03 -0.13123566332E+03  0.11815943233E+02  0.16968872746E+03  0.00000000000E+00 0. -1.
          2    1    6    6  502    0  0.78637226111E+03  0.42330877095E+03 -0.50944466647E+03  0.10281563679E+04  0.00000000000E+00 0. -1.
          3    1    5    5  503    0 -0.12202338104E+03  0.32580431531E+02 -0.47622780627E+02  0.13497821778E+03  0.00000000000E+00 0. -1.
         -4    1    5    5    0  503 -0.80257299920E+02  0.97639497822E+02 -0.41242012472E+02  0.13294964956E+03  0.00000000000E+00 0.  1.
         -1    1    6    6    0  502  0.15494746880E+03  0.54489624290E+02 -0.12130947155E+03  0.20419065878E+03  0.00000000000E+00 0.  1.
<mgrwt>
<rscale>  0 0.23582414E+04</rscale>
<asrwt>0</asrwt>
<pdfrwt beam="1">  1        2 0.24369305E+00 0.23582414E+04</pdfrwt>
<pdfrwt beam="2">  1       -2 0.13503510E+00 0.23582414E+04</pdfrwt>
<totfact> 0.40505484E+00</totfact>
</mgrwt>
</event>
<event>
12    1  0.1489233E-007  0.1421964E+04  0.7818608E-02  0.8938072E-01
         -2   -1    0    0    0  501 -0.00000000000E+00  0.00000000000E+00  0.52498479691E+03  0.52498479691E+03  0.00000000000E+00 0.  1.
          2   -1    0    0  501    0  0.00000000000E+00 -0.00000000000E+00 -0.96287638994E+03  0.96287638994E+03  0.00000000000E+00 0. -1.
         23    2    1    2    0    0  0.82094345462E+02 -0.38556188468E+03 -0.30219580750E+03  0.50341496598E+03  0.81895503035E+02 0.  0.
        254    2    1    2    0    0 -0.82094345462E+02  0.38556188468E+03 -0.13569578553E+03  0.98444622087E+03  0.89180915397E+03 0.  0.
        -24    2    4    4    0    0  0.36460289894E+02  0.45582733109E+02  0.35618362718E+03  0.36980909456E+03  0.80528577857E+02 0.  0.
         24    2    4    4    0    0 -0.11855463536E+03  0.33997915157E+03 -0.49187941270E+03  0.61463712632E+03  0.78691901318E+02 0.  0.
         13    1    3    3    0    0  0.21284682637E+02 -0.10167808157E+03 -0.37215413161E+02  0.11034698439E+03  0.00000000000E+00 0.  1.
        -13    1    3    3    0    0  0.60809662825E+02 -0.28388380311E+03 -0.26498039434E+03  0.39306798159E+03  0.00000000000E+00 0. -1.
          4    1    6    6  502    0 -0.10609887514E+03  0.30072611911E+03 -0.38390236472E+03  0.49907333695E+03  0.00000000000E+00 0. -1.
          3    1    5    5  503    0  0.10480599230E+02  0.61936997018E+02  0.29175073517E+03  0.29843680409E+03  0.00000000000E+00 0. -1.
         -4    1    5    5    0  503  0.25979690664E+02 -0.16354263909E+02  0.64432892003E+02  0.71372290470E+02  0.00000000000E+00 0.  1.
         -3    1    6    6    0  502 -0.12455760216E+02  0.39253032467E+02 -0.10797704799E+03  0.11556378936E+03  0.00000000000E+00 0.  1.
<mgrwt>
<rscale>  0 0.14219641E+04</rscale>
<asrwt>0</asrwt>
<pdfrwt beam="1">  1        2 0.14813483E+00 0.14219641E+04</pdfrwt>
<pdfrwt beam="2">  1       -2 0.80766893E-01 0.14219641E+04</pdfrwt>
<totfact> 0.35014886E+01</totfact>
</mgrwt>
</event>
<event>
12    1  0.1489233E-007  0.1658920E+04  0.7818608E-02  0.8785147E-01
          2   -1    0    0  501    0  0.00000000000E+00  0.00000000000E+00  0.36682290907E+03  0.36682290907E+03  0.00000000000E+00 0. -1.
         -2   -1    0    0    0  501 -0.00000000000E+00 -0.00000000000E+00 -0.18755749780E+04  0.18755749780E+04  0.00000000000E+00 0.  1.
         23    2    1    2    0    0  0.49628902118E+03 -0.93777128222E+02 -0.87313556706E+03  0.10127868271E+04  0.90964258458E+02 0.  0.
        254    2    1    2    0    0 -0.49628902118E+03  0.93777128222E+02 -0.63561650189E+03  0.12296110600E+04  0.92349232758E+03 0.  0.
        -24    2    4    4    0    0 -0.60716707606E+03  0.20029670279E+03 -0.77469489832E+03  0.10076048121E+04  0.79653276572E+02 0.  0.
         24    2    4    4    0    0  0.11087805487E+03 -0.10651957457E+03  0.13907839643E+03  0.22200624792E+03  0.79395282877E+02 0.  0.
         13    1    3    3    0    0  0.24002760424E+03 -0.39544432223E+02 -0.50991805195E+03  0.56497206357E+03  0.00000000000E+00 0.  1.
        -13    1    3    3    0    0  0.25626141695E+03 -0.54232695999E+02 -0.36321751511E+03  0.44781476350E+03  0.00000000000E+00 0. -1.
          4    1    6    6  502    0 -0.90217487080E+01 -0.82281161221E+01  0.30143790651E+02  0.32522945124E+02  0.00000000000E+00 0. -1.
          3    1    5    5  503    0 -0.23572125670E+03  0.87049919466E+02 -0.24628228543E+03  0.35184821082E+03  0.00000000000E+00 0. -1.
         -4    1    5    5    0  503 -0.37144581936E+03  0.11324678332E+03 -0.52841261289E+03  0.65575660127E+03  0.00000000000E+00 0.  1.
         -3    1    6    6    0  502  0.11989980358E+03 -0.98291458446E+02  0.10893460578E+03  0.18948330280E+03  0.00000000000E+00 0.  1.
<mgrwt>
<rscale>  0 0.16589200E+04</rscale>
<asrwt>0</asrwt>
<pdfrwt beam="1">  1        2 0.56434294E-01 0.16589200E+04</pdfrwt>
<pdfrwt beam="2">  1       -2 0.28854999E+00 0.16589200E+04</pdfrwt>
<totfact> 0.31310563E+00</totfact>
</mgrwt>
</event>
<event>
12    1  0.1489233E-007  0.3269396E+04  0.7818608E-02  0.8170727E-01
         -2   -1    0    0    0  501 -0.00000000000E+00  0.00000000000E+00  0.14600634103E+04  0.14600634103E+04  0.00000000000E+00 0.  1.
          2   -1    0    0  501    0  0.00000000000E+00 -0.00000000000E+00 -0.18302200364E+04  0.18302200364E+04  0.00000000000E+00 0. -1.
         23    2    1    2    0    0 -0.10798178496E+04 -0.76938937699E+03  0.54497523955E+03  0.14365509955E+04  0.93349607568E+02 0.  0.
        254    2    1    2    0    0  0.10798178496E+04  0.76938937699E+03 -0.91513186568E+03  0.18537324512E+04  0.91700112714E+03 0.  0.
        -24    2    4    4    0    0  0.46136174684E+03  0.80483303130E+03 -0.30340901781E+03  0.97937599464E+03  0.80681082480E+02 0.  0.
         24    2    4    4    0    0  0.61845610277E+03 -0.35443654311E+02 -0.61172284787E+03  0.87435645653E+03  0.80933100611E+02 0.  0.
         11    1    3    3    0    0 -0.14888485977E+03 -0.14195166398E+03  0.66394493487E+02  0.21616013772E+03  0.00000000000E+00 0. -1.
        -11    1    3    3    0    0 -0.93093298985E+03 -0.62743771301E+03  0.47858074607E+03  0.12203908578E+04  0.00000000000E+00 0.  1.
          4    1    6    6  502    0  0.31100212342E+03 -0.46197928243E+02 -0.26872373976E+03  0.41360490526E+03  0.00000000000E+00 0. -1.
          3    1    5    5  503    0  0.65741097950E+02  0.90207699495E+02 -0.61693709820E+02  0.12753601389E+03  0.00000000000E+00 0. -1.
         -4    1    5    5    0  503  0.39562064889E+03  0.71462533181E+03 -0.24171530799E+03  0.85183998075E+03  0.00000000000E+00 0.  1.
         -1    1    6    6    0  502  0.30745397935E+03  0.10754273932E+02 -0.34299910812E+03  0.46075155127E+03  0.00000000000E+00 0.  1.
<mgrwt>
<rscale>  0 0.32693959E+04</rscale>
<asrwt>0</asrwt>
<pdfrwt beam="1">  1        2 0.28157231E+00 0.32693959E+04</pdfrwt>
<pdfrwt beam="2">  1       -2 0.22462514E+00 0.32693959E+04</pdfrwt>
<totfact> 0.64235805E-01</totfact>
</mgrwt>
</event>
<event>
12    1  0.1489233E-007  0.2157583E+04  0.7818608E-02  0.8536293E-01
          2   -1    0    0  501    0  0.00000000000E+00  0.00000000000E+00  0.22328846335E+04  0.22328846335E+04  0.00000000000E+00 0. -1.
         -2   -1    0    0    0  501 -0.00000000000E+00 -0.00000000000E+00 -0.52120505065E+03  0.52120505065E+03  0.00000000000E+00 0.  1.
         23    2    1    2    0    0 -0.56142158158E+03 -0.58982625867E+03  0.25773902018E+03  0.85897974464E+03  0.91255638169E+02 0.  0.
        254    2    1    2    0    0  0.56142158158E+03  0.58982625867E+03  0.14539405627E+04  0.18951099395E+04  0.90244629502E+03 0.  0.
        -24    2    4    4    0    0  0.13850340048E+03  0.73467929084E+03  0.78986065706E+03  0.10905474473E+04  0.80479965625E+02 0.  0.
         24    2    4    4    0    0  0.42291818110E+03 -0.14485303217E+03  0.66407990561E+03  0.80456249223E+03  0.80476667638E+02 0.  0.
         11    1    3    3    0    0 -0.36579847932E+03 -0.34120544932E+03  0.19235338494E+03  0.53593797292E+03  0.00000000000E+00 0. -1.
        -11    1    3    3    0    0 -0.19562310226E+03 -0.24862080936E+03  0.65385635232E+02  0.32304177172E+03  0.00000000000E+00 0.  1.
          2    1    6    6  502    0  0.38510902862E+03 -0.10493284460E+03  0.58883240423E+03  0.71136732148E+03  0.00000000000E+00 0. -1.
          3    1    5    5  503    0  0.97542338395E+02  0.64041236424E+03  0.65807763854E+03  0.92342226657E+03  0.00000000000E+00 0. -1.
         -4    1    5    5    0  503  0.40961062081E+02  0.94266926600E+02  0.13178301852E+03  0.16712518071E+03  0.00000000000E+00 0.  1.
         -1    1    6    6    0  502  0.37809152484E+02 -0.39920187571E+02  0.75247501382E+02  0.93195170752E+02  0.00000000000E+00 0.  1.
<mgrwt>
<rscale>  0 0.21575827E+04</rscale>
<asrwt>0</asrwt>
<pdfrwt beam="1">  1        2 0.34352071E+00 0.21575827E+04</pdfrwt>
<pdfrwt beam="2">  1       -2 0.80185394E-01 0.21575827E+04</pdfrwt>
<totfact> 0.62404100E+00</totfact>
</mgrwt>
</event>
<event>
12    1  0.1489233E-007  0.1580886E+04  0.7818608E-02  0.8832377E-01
          1   -1    0    0  501    0  0.00000000000E+00  0.00000000000E+00  0.16424749008E+04  0.16424749008E+04  0.00000000000E+00 0. -1.
         -1   -1    0    0    0  501 -0.00000000000E+00 -0.00000000000E+00 -0.38040157377E+03  0.38040157377E+03  0.00000000000E+00 0.  1.
         23    2    1    2    0    0 -0.22053505009E+03 -0.37420998011E+02 -0.18549253655E+03  0.30481126147E+03  0.92012958854E+02 0.  0.
        254    2    1    2    0    0  0.22053505009E+03  0.37420998011E+02  0.14475658636E+04  0.17180652131E+04  0.89792266238E+03 0.  0.
        -24    2    4    4    0    0  0.37130503393E+03 -0.18201828481E+03  0.25194939435E+03  0.49054226799E+03  0.78454669394E+02 0.  0.
         24    2    4    4    0    0 -0.15076998384E+03  0.21943928282E+03  0.11956164692E+04  0.12275229451E+04  0.80178877333E+02 0.  0.
         11    1    3    3    0    0 -0.31474435285E+02  0.27172951648E+02 -0.39620666452E+02  0.57435238207E+02  0.00000000000E+00 0. -1.
        -11    1    3    3    0    0 -0.18906061480E+03 -0.64593949660E+02 -0.14587187010E+03  0.24737602326E+03  0.00000000000E+00 0.  1.
          4    1    6    6  502    0 -0.13903820657E+03  0.22544077919E+03  0.11408656793E+04  0.11712086347E+04  0.00000000000E+00 0. -1.
          3    1    5    5  503    0  0.23879518064E+03 -0.98886738432E+02  0.11601706605E+03  0.28330493280E+03  0.00000000000E+00 0. -1.
         -4    1    5    5    0  503  0.13250985329E+03 -0.83131546377E+02  0.13593232829E+03  0.20723733519E+03  0.00000000000E+00 0.  1.
         -3    1    6    6    0  502 -0.11731777274E+02 -0.60014963676E+01  0.54750789882E+02  0.56314310343E+02  0.00000000000E+00 0.  1.
<mgrwt>
<rscale>  0 0.15808859E+04</rscale>
<asrwt>0</asrwt>
<pdfrwt beam="1">  1        1 0.25268844E+00 0.15808859E+04</pdfrwt>
<pdfrwt beam="2">  1       -1 0.58523320E-01 0.15808859E+04</pdfrwt>
<totfact> 0.14836797E+01</totfact>
</mgrwt>
</event>
<event>
12    1  0.1489233E-007  0.1841155E+04  0.7818608E-02  0.8684715E-01
          1   -1    0    0  501    0  0.00000000000E+00  0.00000000000E+00  0.17625139980E+04  0.17625139980E+04  0.00000000000E+00 0. -1.
         -1   -1    0    0    0  501 -0.00000000000E+00 -0.00000000000E+00 -0.48082622863E+03  0.48082622863E+03  0.00000000000E+00 0.  1.
         23    2    1    2    0    0 -0.41733452046E+03  0.26565450988E+03 -0.11666645271E+03  0.51738964018E+03  0.96646562232E+02 0.  0.
        254    2    1    2    0    0  0.41733452046E+03 -0.26565450988E+03  0.13983542221E+04  0.17259505864E+04  0.88247973113E+03 0.  0.
        -24    2    4    4    0    0  0.43689270466E+03 -0.23901203716E+03  0.15063519557E+04  0.15883779807E+04  0.76461792376E+02 0.  0.
         24    2    4    4    0    0 -0.19558184196E+02 -0.26642472721E+02 -0.10799773366E+03  0.13757260576E+03  0.78551686534E+02 0.  0.
         13    1    3    3    0    0 -0.44660953459E+02  0.89640900044E+01 -0.35260613797E+02  0.57604397044E+02  0.00000000000E+00 0. -1.
        -13    1    3    3    0    0 -0.37267356700E+03  0.25669041988E+03 -0.81405838914E+02  0.45978524314E+03  0.00000000000E+00 0.  1.
          4    1    6    6  502    0 -0.20689308824E+02 -0.38154731122E+01 -0.11235350312E+03  0.11430623342E+03  0.00000000000E+00 0. -1.
          1    1    5    5  503    0  0.27976674947E+03 -0.11071075727E+03  0.91548254438E+03  0.96365688652E+03  0.00000000000E+00 0. -1.
         -2    1    5    5    0  503  0.15712595519E+03 -0.12830127989E+03  0.59086941135E+03  0.62472109415E+03  0.00000000000E+00 0.  1.
         -3    1    6    6    0  502  0.11311246284E+01 -0.22826999609E+02  0.43557694629E+01  0.23266372336E+02  0.00000000000E+00 0.  1.
<mgrwt>
<rscale>  0 0.18411550E+04</rscale>
<asrwt>0</asrwt>
<pdfrwt beam="1">  1        1 0.27115600E+00 0.18411550E+04</pdfrwt>
<pdfrwt beam="2">  1       -1 0.73973267E-01 0.18411550E+04</pdfrwt>
<totfact> 0.74752703E+00</totfact>
</mgrwt>
</event>
<event>
12    1  0.1489233E-007  0.2008650E+04  0.7818608E-02  0.8602587E-01
          1   -1    0    0  501    0  0.00000000000E+00  0.00000000000E+00  0.28692502797E+04  0.28692502797E+04  0.00000000000E+00 0. -1.
         -1   -1    0    0    0  501 -0.00000000000E+00 -0.00000000000E+00 -0.35154423507E+03  0.35154423507E+03  0.00000000000E+00 0.  1.
         23    2    1    2    0    0  0.37316914370E+02 -0.39948646274E+03 -0.73091303601E+02  0.41831630330E+03  0.93081711057E+02 0.  0.
        254    2    1    2    0    0 -0.37316914370E+02  0.39948646274E+03  0.25907973482E+04  0.28024782115E+04  0.99028846311E+03 0.  0.
        -24    2    4    4    0    0 -0.29638825883E+02  0.11796744570E+03 -0.43520400089E+02  0.15186084472E+03  0.79830524798E+02 0.  0.
         24    2    4    4    0    0 -0.76780884871E+01  0.28151901704E+03  0.26343177483E+04  0.26506173667E+04  0.82646934824E+02 0.  0.
         11    1    3    3    0    0 -0.15394721191E+02 -0.99779457608E+02 -0.51258319447E+02  0.11322699728E+03  0.00000000000E+00 0. -1.
        -11    1    3    3    0    0  0.52711635562E+02 -0.29970700513E+03 -0.21832984155E+02  0.30508930602E+03  0.00000000000E+00 0.  1.
          2    1    6    6  502    0  0.81701726161E+01  0.24836406056E+03  0.24568270817E+04  0.24693624213E+04  0.00000000000E+00 0. -1.
          1    1    5    5  503    0 -0.20644881574E+02  0.86566516716E+01 -0.35394822204E+02  0.41880093030E+02  0.00000000000E+00 0. -1.
         -2    1    5    5    0  503 -0.89939443092E+01  0.10931079403E+03 -0.81255778847E+01  0.10998075169E+03  0.00000000000E+00 0.  1.
         -1    1    6    6    0  502 -0.15848261103E+02  0.33154956478E+02  0.17749066663E+03  0.18125494548E+03  0.00000000000E+00 0.  1.
<mgrwt>
<rscale>  0 0.20086497E+04</rscale>
<asrwt>0</asrwt>
<pdfrwt beam="1">  1        1 0.44142310E+00 0.20086497E+04</pdfrwt>
<pdfrwt beam="2">  1       -1 0.54083731E-01 0.20086497E+04</pdfrwt>
<totfact> 0.23820927E+00</totfact>
</mgrwt>
</event>
<event>
12    1  0.2017839E-007  0.2489550E+04  0.7818608E-02  0.8406718E-01
         -2   -1    0    0    0  501 -0.00000000000E+00  0.00000000000E+00  0.98256839928E+03  0.98256839928E+03  0.00000000000E+00 0.  1.
          2   -1    0    0  501    0  0.00000000000E+00 -0.00000000000E+00 -0.15769534044E+04  0.15769534044E+04  0.00000000000E+00 0. -1.
         23    2    1    2    0    0 -0.80376571855E+03 -0.31196720033E+03 -0.93026853128E+03  0.12716298766E+04  0.90995265155E+02 0.  0.
        254    2    1    2    0    0  0.80376571855E+03  0.31196720033E+03  0.33588352616E+03  0.12878919271E+04  0.89581527583E+03 0.  0.
        -24    2    4    4    0    0  0.60509153738E+03 -0.16089673867E+03 -0.60669395224E+02  0.63450052125E+03  0.82985581986E+02 0.  0.
         24    2    4    4    0    0  0.19867418116E+03  0.47286393900E+03  0.39655292138E+03  0.65339140587E+03  0.81205755641E+02 0.  0.
         13    1    3    3    0    0 -0.60200942107E+03 -0.20770797897E+03 -0.73104286934E+03  0.96952649494E+03  0.00000000000E+00 0. -1.
        -13    1    3    3    0    0 -0.20175629748E+03 -0.10425922135E+03 -0.19922566195E+03  0.30210338162E+03  0.00000000000E+00 0.  1.
          4    1    6    6  502    0  0.20660174570E+03  0.45741307852E+03  0.38223074548E+03  0.63088140607E+03  0.00000000000E+00 0. -1.
          1    1    5    5  503    0  0.59782538253E+03 -0.14766042377E+03 -0.54531108545E+02  0.61820096292E+03  0.00000000000E+00 0. -1.
         -2    1    5    5    0  503  0.72661548477E+01 -0.13236314900E+02 -0.61382866784E+01  0.16299558330E+02  0.00000000000E+00 0.  1.
         -3    1    6    6    0  502 -0.79275645339E+01  0.15450860473E+02  0.14322175903E+02  0.22509999809E+02  0.00000000000E+00 0.  1.
<mgrwt>
<rscale>  0 0.24895498E+04</rscale>
<asrwt>0</asrwt>
<pdfrwt beam="1">  1        2 0.24260821E+00 0.24895498E+04</pdfrwt>
<pdfrwt beam="2">  1       -2 0.15116437E+00 0.24895498E+04</pdfrwt>
<totfact> 0.30106780E+00</totfact>
</mgrwt>
</event>
<event>
12    1  0.1489233E-007  0.2225601E+04  0.7818608E-02  0.8507847E-01
          2   -1    0    0  501    0  0.00000000000E+00  0.00000000000E+00  0.33428727902E+04  0.33428727902E+04  0.00000000000E+00 0. -1.
         -2   -1    0    0    0  501 -0.00000000000E+00 -0.00000000000E+00 -0.37043729977E+03  0.37043729977E+03  0.00000000000E+00 0.  1.
         23    2    1    2    0    0 -0.47790747359E+03 -0.44681881483E+03  0.23548017730E+04  0.24454554809E+04  0.84371277878E+02 0.  0.
        254    2    1    2    0    0  0.47790747359E+03  0.44681881483E+03  0.61763371744E+03  0.12678546090E+04  0.89327559809E+03 0.  0.
        -24    2    4    4    0    0 -0.13893915089E+03  0.39366743756E+03  0.56705525215E+02  0.42854518130E+03  0.78468571925E+02 0.  0.
         24    2    4    4    0    0  0.61684662447E+03  0.53151377271E+02  0.56092819222E+03  0.83930942774E+03  0.80467705513E+02 0.  0.
         13    1    3    3    0    0 -0.37739943351E+03 -0.39598683847E+03  0.19472123095E+04  0.20225903409E+04  0.00000000000E+00 0. -1.
        -13    1    3    3    0    0 -0.10050804008E+03 -0.50831976363E+02  0.40758946348E+03  0.42286514006E+03  0.00000000000E+00 0.  1.
          4    1    6    6  502    0  0.35366861256E+03  0.29850769005E+02  0.26737021592E+03  0.44436402676E+03  0.00000000000E+00 0. -1.
          3    1    5    5  503    0 -0.14711496001E+02  0.32174324854E+02  0.28197246508E+02  0.45240468665E+02  0.00000000000E+00 0. -1.
         -4    1    5    5    0  503 -0.12422765488E+03  0.36149311270E+03  0.28508278707E+02  0.38330471263E+03  0.00000000000E+00 0.  1.
         -3    1    6    6    0  502  0.26317801192E+03  0.23300608267E+02  0.29355797631E+03  0.39494540098E+03  0.00000000000E+00 0.  1.
<mgrwt>
<rscale>  0 0.22256008E+04</rscale>
<asrwt>0</asrwt>
<pdfrwt beam="1">  1        2 0.51428810E+00 0.22256008E+04</pdfrwt>
<pdfrwt beam="2">  1       -2 0.56990356E-01 0.22256008E+04</pdfrwt>
<totfact> 0.27513590E+00</totfact>
</mgrwt>
</event>
<event>
12    1  0.1489233E-007  0.1263880E+04  0.7818608E-02  0.9058710E-01
         -2   -1    0    0    0  501 -0.00000000000E+00  0.00000000000E+00  0.53247573576E+03  0.53247573576E+03  0.00000000000E+00 0.  1.
          2   -1    0    0  501    0  0.00000000000E+00 -0.00000000000E+00 -0.74998341402E+03  0.74998341402E+03  0.00000000000E+00 0. -1.
         23    2    1    2    0    0  0.16641164154E+03  0.14503712541E+03  0.15020968759E+03  0.28254092474E+03  0.92400333987E+02 0.  0.
        254    2    1    2    0    0 -0.16641164154E+03 -0.14503712541E+03 -0.36771736585E+03  0.99991822504E+03  0.90326728792E+03 0.  0.
        -24    2    4    4    0    0 -0.21369338586E+03 -0.37857673332E+03  0.11387687145E+03  0.45653945530E+03  0.80468168992E+02 0.  0.
         24    2    4    4    0    0  0.47281744324E+02  0.23353960792E+03 -0.48159423730E+03  0.54337876974E+03  0.80939274668E+02 0.  0.
         13    1    3    3    0    0  0.12678959318E+03  0.11728741638E+03  0.15734588429E+03  0.23364431576E+03  0.00000000000E+00 0.  1.
        -13    1    3    3    0    0  0.39622048357E+02  0.27749709026E+02 -0.71361967000E+01  0.48896608987E+02  0.00000000000E+00 0. -1.
          4    1    6    6  502    0  0.10805250202E+02  0.20405785440E+03 -0.37919194146E+03  0.43074689766E+03  0.00000000000E+00 0. -1.
          3    1    5    5  503    0 -0.12443658577E+03 -0.28974156871E+03  0.68530680834E+02  0.32269349968E+03  0.00000000000E+00 0. -1.
         -4    1    5    5    0  503 -0.89256800090E+02 -0.88835164612E+02  0.45346190615E+02  0.13384595563E+03  0.00000000000E+00 0.  1.
         -3    1    6    6    0  502  0.36476494122E+02  0.29481753521E+02 -0.10240229584E+03  0.11263187208E+03  0.00000000000E+00 0.  1.
<mgrwt>
<rscale>  0 0.12638797E+04</rscale>
<asrwt>0</asrwt>
<pdfrwt beam="1">  1        2 0.11538206E+00 0.12638797E+04</pdfrwt>
<pdfrwt beam="2">  1       -2 0.81919344E-01 0.12638797E+04</pdfrwt>
<totfact> 0.48302615E+01</totfact>
</mgrwt>
</event>
<event>
12    1  0.1489233E-007  0.1501133E+04  0.7818608E-02  0.8883700E-01
          1   -1    0    0  501    0  0.00000000000E+00  0.00000000000E+00  0.11200544623E+04  0.11200544623E+04  0.00000000000E+00 0. -1.
         -1   -1    0    0    0  501 -0.00000000000E+00 -0.00000000000E+00 -0.50296645315E+03  0.50296645315E+03  0.00000000000E+00 0.  1.
         23    2    1    2    0    0 -0.26475753229E+03  0.24893830747E+03  0.53359233840E+03  0.65193582296E+03  0.90734237372E+02 0.  0.
        254    2    1    2    0    0  0.26475753229E+03 -0.24893830747E+03  0.83495670735E+02  0.97108509247E+03  0.89664256978E+03 0.  0.
        -24    2    4    4    0    0 -0.19768236932E+03 -0.23948173601E+02  0.33040497629E+03  0.39429034504E+03  0.81520510744E+02 0.  0.
         24    2    4    4    0    0  0.46243990162E+03 -0.22499013387E+03 -0.24690930555E+03  0.57679474743E+03  0.85186574919E+02 0.  0.
         13    1    3    3    0    0 -0.23472035485E+03  0.25164752876E+03  0.49718285870E+03  0.60465768721E+03  0.00000000000E+00 0. -1.
        -13    1    3    3    0    0 -0.30037177440E+02 -0.27092212896E+01  0.36409479700E+02  0.47278135756E+02  0.00000000000E+00 0.  1.
          4    1    6    6  502    0  0.97502743502E+02 -0.87832178540E+02 -0.68889120381E+02  0.14821264280E+03  0.00000000000E+00 0. -1.
          3    1    5    5  503    0 -0.38852572390E+00 -0.67208200064E+00 -0.46784824628E+01  0.47424513291E+01  0.00000000000E+00 0. -1.
         -4    1    5    5    0  503 -0.19729384360E+03 -0.23276091600E+02  0.33508345875E+03  0.38954789371E+03  0.00000000000E+00 0.  1.
         -3    1    6    6    0  502  0.36493715812E+03 -0.13715795533E+03 -0.17802018517E+03  0.42858210464E+03  0.00000000000E+00 0.  1.
<mgrwt>
<rscale>  0 0.15011327E+04</rscale>
<asrwt>0</asrwt>
<pdfrwt beam="1">  1        1 0.17231607E+00 0.15011327E+04</pdfrwt>
<pdfrwt beam="2">  1       -1 0.77379455E-01 0.15011327E+04</pdfrwt>
<totfact> 0.19833902E+01</totfact>
</mgrwt>
</event>
<event>
12    1  0.1489233E-007  0.3533922E+04  0.7818608E-02  0.8105798E-01
         -2   -1    0    0    0  501 -0.00000000000E+00  0.00000000000E+00  0.95098701261E+03  0.95098701261E+03  0.00000000000E+00 0.  1.
          2   -1    0    0  501    0  0.00000000000E+00 -0.00000000000E+00 -0.32830640849E+04  0.32830640849E+04  0.00000000000E+00 0. -1.
         23    2    1    2    0    0  0.23397255319E+03  0.10099431578E+04  0.44980550599E+03  0.11331504345E+04  0.83525902312E+02 0.  0.
        254    2    1    2    0    0 -0.23397255319E+03 -0.10099431578E+04 -0.27818825783E+04  0.31009006630E+04  0.89553665730E+03 0.  0.
        -24    2    4    4    0    0 -0.19632486388E+03 -0.58022035666E+03 -0.55190959144E+03  0.82818544114E+03  0.78024440647E+02 0.  0.
         24    2    4    4    0    0 -0.37647689312E+02 -0.42972280119E+03 -0.22299729868E+04  0.22727152218E+04  0.79849377862E+02 0.  0.
         11    1    3    3    0    0  0.23749412937E+03  0.93198099657E+03  0.42242323248E+03  0.10504443949E+04  0.00000000000E+00 0.  1.
        -11    1    3    3    0    0 -0.35215761773E+01  0.77962161274E+02  0.27382273510E+02  0.82706039633E+02  0.00000000000E+00 0. -1.
          4    1    6    6  502    0 -0.61038749305E+02 -0.31034362949E+03 -0.15489691666E+04  0.15809314901E+04  0.00000000000E+00 0. -1.
          1    1    5    5  503    0 -0.16853325384E+03 -0.55443067102E+03 -0.52135037665E+03  0.77948896199E+03  0.00000000000E+00 0. -1.
         -2    1    5    5    0  503 -0.27791610042E+02 -0.25789685634E+02 -0.30559214785E+02  0.48696479155E+02  0.00000000000E+00 0.  1.
         -3    1    6    6    0  502  0.23391059993E+02 -0.11937917170E+03 -0.68100382020E+03  0.69178373170E+03  0.00000000000E+00 0.  1.
<mgrwt>
<rscale>  0 0.35339221E+04</rscale>
<asrwt>0</asrwt>
<pdfrwt beam="1">  1        2 0.50508677E+00 0.35339221E+04</pdfrwt>
<pdfrwt beam="2">  1       -2 0.14630570E+00 0.35339221E+04</pdfrwt>
<totfact> 0.29944262E-01</totfact>
</mgrwt>
</event>
<event>
12    1  0.1489233E-007  0.1529071E+04  0.7818608E-02  0.8865348E-01
          2   -1    0    0  501    0  0.00000000000E+00  0.00000000000E+00  0.12696662090E+04  0.12696662090E+04  0.00000000000E+00 0. -1.
         -2   -1    0    0    0  501 -0.00000000000E+00 -0.00000000000E+00 -0.46036871988E+03  0.46036871988E+03  0.00000000000E+00 0.  1.
         23    2    1    2    0    0  0.33200570702E+03  0.13383883786E+03  0.63027269607E+03  0.73059610146E+03  0.91577115285E+02 0.  0.
        254    2    1    2    0    0 -0.33200570702E+03 -0.13383883786E+03  0.17902479310E+03  0.99943882746E+03  0.91579881485E+03 0.  0.
        -24    2    4    4    0    0 -0.55977736560E+02 -0.25508440077E+02 -0.36274291756E+03  0.37643007041E+03  0.79580061323E+02 0.  0.
         24    2    4    4    0    0 -0.27602797046E+03 -0.10833039779E+03  0.54176771066E+03  0.62300875706E+03  0.81858069197E+02 0.  0.
         13    1    3    3    0    0  0.95729231966E+02  0.18662686849E+02  0.10551405777E+03  0.14368576171E+03  0.00000000000E+00 0.  1.
        -13    1    3    3    0    0  0.23627647505E+03  0.11517615101E+03  0.52475863830E+03  0.58691033974E+03  0.00000000000E+00 0. -1.
          2    1    6    6  502    0 -0.11700733511E+03 -0.39430394377E+02  0.14767205942E+03  0.19249028443E+03  0.00000000000E+00 0. -1.
          1    1    5    5  503    0  0.12267475644E+02 -0.17013921542E+02 -0.17924692720E+03  0.18047001245E+03  0.00000000000E+00 0. -1.
         -2    1    5    5    0  503 -0.68245212204E+02 -0.84945185348E+01 -0.18349599037E+03  0.19596005796E+03  0.00000000000E+00 0.  1.
         -1    1    6    6    0  502 -0.15902063535E+03 -0.68900003408E+02  0.39409565125E+03  0.43051847262E+03  0.00000000000E+00 0.  1.
<mgrwt>
<rscale>  0 0.15290711E+04</rscale>
<asrwt>0</asrwt>
<pdfrwt beam="1">  1        2 0.19533326E+00 0.15290711E+04</pdfrwt>
<pdfrwt beam="2">  1       -2 0.70825957E-01 0.15290711E+04</pdfrwt>
<totfact> 0.30083331E+01</totfact>
</mgrwt>
</event>
<event>
12    1  0.1489233E-007  0.2498948E+04  0.7818608E-02  0.8403360E-01
         -1   -1    0    0    0  501 -0.00000000000E+00  0.00000000000E+00  0.22851941100E+04  0.22851941100E+04  0.00000000000E+00 0.  1.
          1   -1    0    0  501    0  0.00000000000E+00 -0.00000000000E+00 -0.68317395989E+03  0.68317395989E+03  0.00000000000E+00 0. -1.
         23    2    1    2    0    0 -0.55172326788E+03 -0.54309505946E+03 -0.20437476039E+03  0.80592215642E+03  0.91600609135E+02 0.  0.
        254    2    1    2    0    0  0.55172326788E+03  0.54309505946E+03  0.18063949105E+04  0.21624459134E+04  0.90208588729E+03 0.  0.
        -24    2    4    4    0    0 -0.10170160592E+03  0.19090083299E+03  0.11343945904E+04  0.11575493427E+04  0.79265688410E+02 0.  0.
         24    2    4    4    0    0  0.65342487379E+03  0.35219422647E+03  0.67200032004E+03  0.10048965707E+04  0.85016756238E+02 0.  0.
         11    1    3    3    0    0 -0.44446354270E+03 -0.42766018516E+03 -0.12441980250E+03  0.62922282382E+03  0.00000000000E+00 0. -1.
        -11    1    3    3    0    0 -0.10725972518E+03 -0.11543487430E+03 -0.79954957889E+02  0.17669933260E+03  0.00000000000E+00 0.  1.
          4    1    6    6  502    0  0.61921735271E+03  0.32787958741E+03  0.60440723415E+03  0.92533413340E+03  0.00000000000E+00 0. -1.
          3    1    5    5  503    0 -0.10266825817E+03  0.19792359525E+03  0.11085025106E+04  0.11307043543E+04  0.00000000000E+00 0. -1.
         -4    1    5    5    0  503  0.96665225522E+00 -0.70227622587E+01  0.25892079844E+02  0.26844988452E+02  0.00000000000E+00 0.  1.
         -1    1    6    6    0  502  0.34207521087E+02  0.24314639060E+02  0.67593085887E+02  0.79562437314E+02  0.00000000000E+00 0.  1.
<mgrwt>
<rscale>  0 0.24989479E+04</rscale>
<asrwt>0</asrwt>
<pdfrwt beam="1">  1        1 0.10510369E+00 0.24989479E+04</pdfrwt>
<pdfrwt beam="2">  1       -1 0.35156832E+00 0.24989479E+04</pdfrwt>
<totfact> 0.38111460E-01</totfact>
</mgrwt>
</event>
<event>
12    1  0.1489233E-007  0.2959432E+04  0.7818608E-02  0.8255411E-01
         -2   -1    0    0    0  501 -0.00000000000E+00  0.00000000000E+00  0.15983188931E+04  0.15983188931E+04  0.00000000000E+00 0.  1.
          2   -1    0    0  501    0  0.00000000000E+00 -0.00000000000E+00 -0.13699138154E+04  0.13699138154E+04  0.00000000000E+00 0. -1.
         23    2    1    2    0    0  0.25466762982E+03 -0.47382915878E+03  0.13348047590E+04  0.14416940768E+04  0.86072021616E+02 0.  0.
        254    2    1    2    0    0 -0.25466762982E+03  0.47382915878E+03 -0.11063996813E+04  0.15265386318E+04  0.90378662641E+03 0.  0.
        -24    2    4    4    0    0 -0.20251713811E+03 -0.24379343513E+03 -0.31255263391E+03  0.45224679742E+03  0.79934889543E+02 0.  0.
         24    2    4    4    0    0 -0.52150491710E+02  0.71762259391E+03 -0.79384704741E+03  0.10742918344E+04  0.78790542665E+02 0.  0.
         13    1    3    3    0    0  0.14822596131E+03 -0.30189508526E+03  0.72439376779E+03  0.79866007095E+03  0.00000000000E+00 0.  1.
        -13    1    3    3    0    0  0.10644166851E+03 -0.17193407352E+03  0.61041099125E+03  0.64303400585E+03  0.00000000000E+00 0. -1.
          4    1    6    6  502    0 -0.30357301380E+02  0.67094090216E+03 -0.74858490513E+03  0.10057149796E+04  0.00000000000E+00 0. -1.
          3    1    5    5  503    0 -0.15333357020E+03 -0.13922824732E+03 -0.23414896010E+03  0.31260426120E+03  0.00000000000E+00 0. -1.
         -4    1    5    5    0  503 -0.49183567911E+02 -0.10456518781E+03 -0.78403673811E+02  0.13964253622E+03  0.00000000000E+00 0.  1.
         -3    1    6    6    0  502 -0.21793190330E+02  0.46681691748E+02 -0.45262142289E+02  0.68576854797E+02  0.00000000000E+00 0.  1.
<mgrwt>
<rscale>  0 0.29594318E+04</rscale>
<asrwt>0</asrwt>
<pdfrwt beam="1">  1        2 0.21075597E+00 0.29594318E+04</pdfrwt>
<pdfrwt beam="2">  1       -2 0.24589521E+00 0.29594318E+04</pdfrwt>
<totfact> 0.88095341E-01</totfact>
</mgrwt>
</event>
<event>
12    1  0.1489233E-007  0.1896049E+04  0.7818608E-02  0.8656826E-01
          2   -1    0    0  501    0  0.00000000000E+00  0.00000000000E+00  0.17334454963E+04  0.17334454963E+04  0.00000000000E+00 0. -1.
         -2   -1    0    0    0  501 -0.00000000000E+00 -0.00000000000E+00 -0.51847621427E+03  0.51847621427E+03  0.00000000000E+00 0.  1.
         23    2    1    2    0    0  0.19334776281E+02  0.37642103183E+03 -0.27413367738E+03  0.47461770543E+03  0.89699868786E+02 0.  0.
        254    2    1    2    0    0 -0.19334776281E+02 -0.37642103183E+03  0.14891029594E+04  0.17773040052E+04  0.89404433684E+03 0.  0.
        -24    2    4    4    0    0  0.22630133382E+03  0.14956971527E+03  0.91109695398E+03  0.95416085906E+03  0.82109025056E+02 0.  0.
         24    2    4    4    0    0 -0.24563611010E+03 -0.52599074710E+03  0.57800600546E+03  0.82314314612E+03  0.80438374139E+02 0.  0.
         13    1    3    3    0    0  0.30898175510E+02  0.33640681589E+03 -0.27056056996E+03  0.43281319879E+03  0.00000000000E+00 0.  1.
        -13    1    3    3    0    0 -0.11563399230E+02  0.40014215940E+02 -0.35731074115E+01  0.41804506642E+02  0.00000000000E+00 0. -1.
          4    1    6    6  502    0 -0.20685018793E+03 -0.41587885922E+03  0.50156385797E+03  0.68359968507E+03  0.00000000000E+00 0. -1.
          1    1    5    5  503    0  0.17979030880E+03  0.75171588994E+02  0.59400649387E+03  0.62515521088E+03  0.00000000000E+00 0. -1.
         -2    1    5    5    0  503  0.46511025023E+02  0.74398126277E+02  0.31709046011E+03  0.32900564818E+03  0.00000000000E+00 0.  1.
         -3    1    6    6    0  502 -0.38785922176E+02 -0.11011188788E+03  0.76442147482E+02  0.13954346105E+03  0.00000000000E+00 0.  1.
<mgrwt>
<rscale>  0 0.18960488E+04</rscale>
<asrwt>0</asrwt>
<pdfrwt beam="1">  1        2 0.26668392E+00 0.18960488E+04</pdfrwt>
<pdfrwt beam="2">  1       -2 0.79765572E-01 0.18960488E+04</pdfrwt>
<totfact> 0.12247214E+01</totfact>
</mgrwt>
</event>
<event>
12    1  0.1489233E-007  0.2092951E+04  0.7818608E-02  0.8564355E-01
         -1   -1    0    0    0  501 -0.00000000000E+00  0.00000000000E+00  0.54200417829E+03  0.54200417829E+03  0.00000000000E+00 0.  1.
          1   -1    0    0  501    0  0.00000000000E+00 -0.00000000000E+00 -0.20204846697E+04  0.20204846697E+04  0.00000000000E+00 0. -1.
         23    2    1    2    0    0 -0.25008046206E+03  0.25835064383E+03 -0.15551708018E+04  0.15991744535E+04  0.97557251430E+02 0.  0.
        254    2    1    2    0    0  0.25008046206E+03 -0.25835064383E+03  0.76690310355E+02  0.96331439452E+03  0.89039762259E+03 0.  0.
        -24    2    4    4    0    0 -0.63417047559E+02  0.25327131128E+03 -0.15669119888E+03  0.31461542085E+03  0.79136920537E+02 0.  0.
         24    2    4    4    0    0  0.31349750962E+03 -0.51162195511E+03  0.23338150924E+03  0.64869897367E+03  0.79408539174E+02 0.  0.
         13    1    3    3    0    0 -0.12597808888E+03  0.19497322550E+03 -0.10296489594E+04  0.10554913629E+04  0.00000000000E+00 0. -1.
        -13    1    3    3    0    0 -0.12410237319E+03  0.63377418325E+02 -0.52552184233E+03  0.54368309055E+03  0.00000000000E+00 0.  1.
          2    1    6    6  502    0  0.25747733362E+03 -0.40626637289E+03  0.15263736015E+03  0.50462372792E+03  0.00000000000E+00 0. -1.
          3    1    5    5  503    0 -0.28287426577E+02  0.20796753890E+03 -0.14756350304E+03  0.25656512461E+03  0.00000000000E+00 0. -1.
         -4    1    5    5    0  503 -0.35129620982E+02  0.45303772381E+02 -0.91276958465E+01  0.58050296242E+02  0.00000000000E+00 0.  1.
         -1    1    6    6    0  502  0.56020176001E+02 -0.10535558222E+03  0.80744149092E+02  0.14407524575E+03  0.00000000000E+00 0.  1.
<mgrwt>
<rscale>  0 0.20929512E+04</rscale>
<asrwt>0</asrwt>
<pdfrwt beam="1">  1        1 0.31084379E+00 0.20929512E+04</pdfrwt>
<pdfrwt beam="2">  1       -1 0.83385260E-01 0.20929512E+04</pdfrwt>
<totfact> 0.37898972E+00</totfact>
</mgrwt>
</event>
<event>
12    1  0.1489233E-007  0.1722149E+04  0.7818608E-02  0.8748832E-01
          2   -1    0    0  501    0  0.00000000000E+00  0.00000000000E+00  0.78048492893E+03  0.78048492893E+03  0.00000000000E+00 0. -1.
         -2   -1    0    0    0  501 -0.00000000000E+00 -0.00000000000E+00 -0.94998584351E+03  0.94998584351E+03  0.00000000000E+00 0.  1.
         23    2    1    2    0    0 -0.34313097680E+03 -0.49500447309E+03  0.72835212928E+02  0.61376837743E+03  0.92942763448E+02 0.  0.
        254    2    1    2    0    0  0.34313097680E+03  0.49500447309E+03 -0.24233612752E+03  0.11167023950E+04  0.90858634411E+03 0.  0.
        -24    2    4    4    0    0  0.28825963857E+03  0.93191866764E+02 -0.52876577061E+03  0.61480847148E+03  0.81350311452E+02 0.  0.
         24    2    4    4    0    0  0.54871338225E+02  0.40181260632E+03  0.28642964309E+03  0.50189392353E+03  0.73425715334E+02 0.  0.
         13    1    3    3    0    0 -0.21848957377E+03 -0.38442102674E+03  0.40401017149E+02  0.44401515946E+03  0.00000000000E+00 0.  1.
        -13    1    3    3    0    0 -0.12464140303E+03 -0.11058344635E+03  0.32434195779E+02  0.16975321797E+03  0.00000000000E+00 0. -1.
          4    1    6    6  502    0  0.70502593439E+02  0.25745411747E+03  0.18563480971E+03  0.32513615742E+03  0.00000000000E+00 0. -1.
          3    1    5    5  503    0  0.27394464673E+03  0.10670711905E+03 -0.49600746961E+03  0.57658953219E+03  0.00000000000E+00 0. -1.
         -4    1    5    5    0  503  0.14314991845E+02 -0.13515252282E+02 -0.32758300999E+02  0.38218939285E+02  0.00000000000E+00 0.  1.
         -3    1    6    6    0  502 -0.15631255214E+02  0.14435848885E+03  0.10079483338E+03  0.17675776611E+03  0.00000000000E+00 0.  1.
<mgrwt>
<rscale>  0 0.17221494E+04</rscale>
<asrwt>0</asrwt>
<pdfrwt beam="1">  1        2 0.12007461E+00 0.17221494E+04</pdfrwt>
<pdfrwt beam="2">  1       -2 0.14615167E+00 0.17221494E+04</pdfrwt>
<totfact> 0.10846429E+01</totfact>
</mgrwt>
</event>
<event>
12    1  0.1489233E-007  0.1305082E+04  0.7818608E-02  0.9025544E-01
          1   -1    0    0  501    0  0.00000000000E+00  0.00000000000E+00  0.88655545389E+03  0.88655545389E+03  0.00000000000E+00 0. -1.
         -1   -1    0    0    0  501 -0.00000000000E+00 -0.00000000000E+00 -0.48029706870E+03  0.48029706870E+03  0.00000000000E+00 0.  1.
         23    2    1    2    0    0 -0.19049953968E+03 -0.17229368076E+03 -0.12342939509E+03  0.29664739788E+03  0.82399490592E+02 0.  0.
        254    2    1    2    0    0  0.19049953968E+03  0.17229368076E+03  0.52968778027E+03  0.10702051247E+04  0.89375314115E+03 0.  0.
        -24    2    4    4    0    0 -0.28490526007E+03  0.74525154678E+02  0.48973643169E+03  0.57700131626E+03  0.79773056475E+02 0.  0.
         24    2    4    4    0    0  0.47540479975E+03  0.97768526082E+02  0.39951348580E+02  0.49320380844E+03  0.78009474373E+02 0.  0.
         13    1    3    3    0    0 -0.18921519681E+03 -0.13513687340E+03 -0.10436532840E+03  0.25486562543E+03  0.00000000000E+00 0.  1.
        -13    1    3    3    0    0 -0.12843428668E+01 -0.37156807365E+02 -0.19064066685E+02  0.41781772446E+02  0.00000000000E+00 0. -1.
          2    1    6    6  502    0  0.44274695918E+03  0.72860759964E+02  0.24666264657E+02  0.44937955540E+03  0.00000000000E+00 0. -1.
          3    1    5    5  503    0 -0.19107606247E+03  0.12830489080E+02  0.33389284315E+03  0.38491442401E+03  0.00000000000E+00 0. -1.
         -4    1    5    5    0  503 -0.93829197599E+02  0.61694665598E+02  0.15584358854E+03  0.19208689225E+03  0.00000000000E+00 0.  1.
         -1    1    6    6    0  502  0.32657840573E+02  0.24907766118E+02  0.15285083923E+02  0.43824253039E+02  0.00000000000E+00 0.  1.
<mgrwt>
<rscale>  0 0.13050824E+04</rscale>
<asrwt>0</asrwt>
<pdfrwt beam="1">  1        1 0.13639315E+00 0.13050824E+04</pdfrwt>
<pdfrwt beam="2">  1       -1 0.73891857E-01 0.13050824E+04</pdfrwt>
<totfact> 0.33825266E+01</totfact>
</mgrwt>
</event>
<event>
12    1  0.1489233E-007  0.2756118E+04  0.7818608E-02  0.8317023E-01
         -1   -1    0    0    0  501 -0.00000000000E+00  0.00000000000E+00  0.10707929276E+04  0.10707929276E+04  0.00000000000E+00 0.  1.
          1   -1    0    0  501    0  0.00000000000E+00 -0.00000000000E+00 -0.17734954151E+04  0.17734954151E+04  0.00000000000E+00 0. -1.
         23    2    1    2    0    0  0.41127468808E+03 -0.97865182948E+03 -0.95446721403E+03  0.14306471841E+04  0.94007608084E+02 0.  0.
        254    2    1    2    0    0 -0.41127468808E+03  0.97865182948E+03  0.25176472655E+03  0.14136411585E+04  0.89893802632E+03 0.  0.
        -24    2    4    4    0    0 -0.43884729602E+03  0.11188277150E+04  0.30090829760E+03  0.12414197655E+04  0.78834165061E+02 0.  0.
         24    2    4    4    0    0  0.27572607942E+02 -0.14017588551E+03 -0.49143571047E+02  0.17222139302E+03  0.82677627269E+02 0.  0.
         11    1    3    3    0    0  0.17824849776E+03 -0.45180112529E+03 -0.49811036980E+03  0.69570879272E+03  0.00000000000E+00 0. -1.
        -11    1    3    3    0    0  0.23302619032E+03 -0.52685070418E+03 -0.45635684423E+03  0.73493839140E+03  0.00000000000E+00 0.  1.
          4    1    6    6  502    0  0.49054739052E+02 -0.46845212765E+02 -0.31713458098E+02  0.74877131402E+02  0.00000000000E+00 0. -1.
          3    1    5    5  503    0 -0.23980702031E+03  0.50375539746E+03  0.14031550174E+03  0.57529587821E+03  0.00000000000E+00 0. -1.
         -4    1    5    5    0  503 -0.19904027571E+03  0.61507231753E+03  0.16059279586E+03  0.66612388730E+03  0.00000000000E+00 0.  1.
         -3    1    6    6    0  502 -0.21482131110E+02 -0.93330672750E+02 -0.17430112949E+02  0.97344261620E+02  0.00000000000E+00 0.  1.
<mgrwt>
<rscale>  0 0.27561178E+04</rscale>
<asrwt>0</asrwt>
<pdfrwt beam="1">  1        1 0.27284545E+00 0.27561178E+04</pdfrwt>
<pdfrwt beam="2">  1       -1 0.16473737E+00 0.27561178E+04</pdfrwt>
<totfact> 0.99343829E-01</totfact>
</mgrwt>
</event>
<event>
12    1  0.2248060E-007  0.1501275E+04  0.7818608E-02  0.8883605E-01
         -1   -1    0    0    0  501 -0.00000000000E+00  0.00000000000E+00  0.34831399689E+03  0.34831399689E+03  0.00000000000E+00 0.  1.
          1   -1    0    0  501    0  0.00000000000E+00 -0.00000000000E+00 -0.16176693337E+04  0.16176693337E+04  0.00000000000E+00 0. -1.
         23    2    1    2    0    0 -0.46735325535E+03 -0.44479220182E+02 -0.54100273683E+03  0.72220164911E+03  0.92161783872E+02 0.  0.
        254    2    1    2    0    0  0.46735325535E+03  0.44479220182E+02 -0.72835260001E+03  0.12437816815E+04  0.89224318154E+03 0.  0.
        -24    2    4    4    0    0  0.24412077754E+03 -0.37397925678E+03 -0.58678499878E+03  0.74244874594E+03  0.86360100843E+02 0.  0.
         24    2    4    4    0    0  0.22323247781E+03  0.41845847696E+03 -0.14156760123E+03  0.50133293557E+03  0.79706276292E+02 0.  0.
         11    1    3    3    0    0 -0.32573127337E+03 -0.42227056275E+02 -0.43604885442E+03  0.54591445316E+03  0.00000000000E+00 0. -1.
        -11    1    3    3    0    0 -0.14162198198E+03 -0.22521639067E+01 -0.10495388242E+03  0.17628719595E+03  0.00000000000E+00 0.  1.
          4    1    6    6  502    0  0.18438317693E+03  0.39403378092E+03 -0.12789199427E+03  0.45344915772E+03  0.00000000000E+00 0. -1.
          3    1    5    5  503    0  0.23429741997E+03 -0.34096248730E+03 -0.56951132742E+03  0.70391324096E+03  0.00000000000E+00 0. -1.
         -4    1    5    5    0  503  0.98233575699E+01 -0.33016769483E+02 -0.17273671367E+02  0.38535504973E+02  0.00000000000E+00 0.  1.
         -3    1    6    6    0  502  0.38849300878E+02  0.24424696046E+02 -0.13675606950E+02  0.47883777849E+02  0.00000000000E+00 0.  1.
<mgrwt>
<rscale>  0 0.15012753E+04</rscale>
<asrwt>0</asrwt>
<pdfrwt beam="1">  1        1 0.24887220E+00 0.15012753E+04</pdfrwt>
<pdfrwt beam="2">  1       -1 0.53586769E-01 0.15012753E+04</pdfrwt>
<totfact> 0.18443492E+01</totfact>
</mgrwt>
</event>
<event>
12    1  0.1489233E-007  0.2000634E+04  0.7818608E-02  0.8606324E-01
         -2   -1    0    0    0  501 -0.00000000000E+00  0.00000000000E+00  0.87234086112E+03  0.87234086112E+03  0.00000000000E+00 0. -1.
          2   -1    0    0  501    0  0.00000000000E+00 -0.00000000000E+00 -0.11470681372E+04  0.11470681372E+04  0.00000000000E+00 0.  1.
         23    2    1    2    0    0 -0.42221596403E+03 -0.28753283717E+03  0.49697659669E+03  0.71783684682E+03  0.85805292703E+02 0.  0.
        254    2    1    2    0    0  0.42221596403E+03  0.28753283717E+03 -0.77170387271E+03  0.13015721515E+04  0.91521677517E+03 0.  0.
        -24    2    4    4    0    0  0.16282007523E+03  0.31221664369E+03 -0.92057344172E+03  0.98895987484E+03  0.81219227724E+02 0.  0.
         24    2    4    4    0    0  0.25939588880E+03 -0.24683806521E+02  0.14886956900E+03  0.31261227662E+03  0.87571510692E+02 0.  0.
         11    1    3    3    0    0 -0.10447919755E+03 -0.11734088799E+03  0.13773443395E+03  0.20893913230E+03  0.00000000000E+00 0.  1.
        -11    1    3    3    0    0 -0.31773676649E+03 -0.17019194919E+03  0.35924216274E+03  0.50889771451E+03  0.00000000000E+00 0. -1.
          2    1    6    6  502    0  0.21230985489E+03 -0.53528062949E+02  0.12771995023E+03  0.25348197903E+03  0.00000000000E+00 0. -1.
          3    1    5    5  503    0  0.16328394718E+03  0.31695868591E+03 -0.91030544433E+03  0.97764024976E+03  0.00000000000E+00 0. -1.
         -4    1    5    5    0  503 -0.46387194705E+00 -0.47420422156E+01 -0.10267997387E+02  0.11319625078E+02  0.00000000000E+00 0.  1.
         -1    1    6    6    0  502  0.47086033916E+02  0.28844256428E+02  0.21149618772E+02  0.59130297589E+02  0.00000000000E+00 0.  1.
<mgrwt>
<rscale>  0 0.20006343E+04</rscale>
<asrwt>0</asrwt>
<pdfrwt beam="1">  1        2 0.17647202E+00 0.20006343E+04</pdfrwt>
<pdfrwt beam="2">  1       -2 0.13420629E+00 0.20006343E+04</pdfrwt>
<totfact> 0.75857950E+00</totfact>
</mgrwt>
</event>
<event>
12    1  0.1489233E-007  0.1883408E+04  0.7818608E-02  0.8663160E-01
          1   -1    0    0  501    0  0.00000000000E+00  0.00000000000E+00  0.15310819651E+04  0.15310819651E+04  0.00000000000E+00 0. -1.
         -1   -1    0    0    0  501 -0.00000000000E+00 -0.00000000000E+00 -0.57920248841E+03  0.57920248841E+03  0.00000000000E+00 0.  1.
         23    2    1    2    0    0 -0.34454841927E+03 -0.63467674898E+03  0.38174483480E+03  0.82209545621E+03  0.92647888791E+02 0.  0.
        254    2    1    2    0    0  0.34454841927E+03  0.63467674898E+03  0.57013464186E+03  0.12881889973E+04  0.90158149599E+03 0.  0.
        -24    2    4    4    0    0  0.39606443551E+03  0.49034464622E+02  0.56327644660E+03  0.69491388120E+03  0.79709040841E+02 0.  0.
         24    2    4    4    0    0 -0.51516016235E+02  0.58564228436E+03  0.68581952627E+01  0.59327511607E+03  0.79357062377E+02 0.  0.
         11    1    3    3    0    0 -0.33194566191E+03 -0.57410689968E+03  0.32662822154E+03  0.73923788447E+03  0.00000000000E+00 0. -1.
        -11    1    3    3    0    0 -0.12602757360E+02 -0.60569849299E+02  0.55116613260E+02  0.82857571739E+02  0.00000000000E+00 0.  1.
          2    1    6    6  502    0 -0.46204093969E+02  0.28845034297E+03  0.37220453857E+02  0.29448901651E+03  0.00000000000E+00 0. -1.
          3    1    5    5  503    0  0.11188513772E+03  0.19031938066E+02  0.10366316695E+03  0.15370930646E+03  0.00000000000E+00 0. -1.
         -4    1    5    5    0  503  0.28417929779E+03  0.30002526556E+02  0.45961327965E+03  0.54120457474E+03  0.00000000000E+00 0.  1.
         -1    1    6    6    0  502 -0.53119222658E+01  0.29719194139E+03 -0.30362258595E+02  0.29878609957E+03  0.00000000000E+00 0.  1.
<mgrwt>
<rscale>  0 0.18834081E+04</rscale>
<asrwt>0</asrwt>
<pdfrwt beam="1">  1        1 0.23555107E+00 0.18834081E+04</pdfrwt>
<pdfrwt beam="2">  1       -1 0.89108076E-01 0.18834081E+04</pdfrwt>
<totfact> 0.72016865E+00</totfact>
</mgrwt>
</event>
<event>
12    1  0.1489233E-007  0.1539967E+04  0.7818608E-02  0.8858302E-01
         -1   -1    0    0    0  501 -0.00000000000E+00  0.00000000000E+00  0.19389747140E+03  0.19389747140E+03  0.00000000000E+00 0.  1.
          1   -1    0    0  501    0  0.00000000000E+00 -0.00000000000E+00 -0.30576692800E+04  0.30576692800E+04  0.00000000000E+00 0. -1.
         23    2    1    2    0    0  0.16714629177E+03  0.47608321289E+03 -0.11620941110E+04  0.12702112354E+04  0.91546443598E+02 0.  0.
        254    2    1    2    0    0 -0.16714629177E+03 -0.47608321289E+03 -0.17016776976E+04  0.19813555160E+04  0.88060750946E+03 0.  0.
        -24    2    4    4    0    0 -0.20601410974E+03  0.53635793543E+02 -0.12742854742E+04  0.12944813679E+04  0.80993396771E+02 0.  0.
         24    2    4    4    0    0  0.38867817976E+02 -0.52971900643E+03 -0.42739222339E+03  0.68687414806E+03  0.83779768517E+02 0.  0.
         11    1    3    3    0    0  0.62072485864E+02  0.21122155209E+03 -0.61760543154E+03  0.65567065410E+03  0.00000000000E+00 0. -1.
        -11    1    3    3    0    0  0.10507380590E+03  0.26486166079E+03 -0.54448867947E+03  0.61454058134E+03  0.00000000000E+00 0.  1.
          2    1    6    6  502    0 -0.31581326701E+00 -0.26859456382E+03 -0.26252223086E+03  0.37558096484E+03  0.00000000000E+00 0. -1.
          1    1    5    5  503    0 -0.60595717260E+02  0.52903442294E+02 -0.53702696418E+03  0.54301802494E+03  0.00000000000E+00 0. -1.
         -2    1    5    5    0  503 -0.14541839248E+03  0.73235124972E+00 -0.73725851003E+03  0.75146334297E+03  0.00000000000E+00 0.  1.
         -1    1    6    6    0  502  0.39183631243E+02 -0.26112444261E+03 -0.16486999253E+03  0.31129318322E+03  0.00000000000E+00 0.  1.
<mgrwt>
<rscale>  0 0.15399667E+04</rscale>
<asrwt>0</asrwt>
<pdfrwt beam="1">  1        1 0.47041066E+00 0.15399667E+04</pdfrwt>
<pdfrwt beam="2">  1       -1 0.29830380E-01 0.15399667E+04</pdfrwt>
<totfact> 0.54223956E+00</totfact>
</mgrwt>
</event>
<event>
12    1  0.1489233E-007  0.1425208E+04  0.7818608E-02  0.8935771E-01
         -1   -1    0    0    0  501 -0.00000000000E+00  0.00000000000E+00  0.42380865016E+03  0.42380865016E+03  0.00000000000E+00 0.  1.
          1   -1    0    0  501    0  0.00000000000E+00 -0.00000000000E+00 -0.11981922407E+04  0.11981922407E+04  0.00000000000E+00 0. -1.
         23    2    1    2    0    0 -0.37001867434E+00  0.13829304819E+03  0.21992578126E+03  0.27514399019E+03  0.90618772793E+02 0.  0.
        254    2    1    2    0    0  0.37001867434E+00 -0.13829304819E+03 -0.99430937181E+03  0.13468569007E+04  0.89791273515E+03 0.  0.
        -24    2    4    4    0    0 -0.11698486436E+03  0.33347811903E+03 -0.65576021451E+03  0.74909543987E+03  0.78926578098E+02 0.  0.
         24    2    4    4    0    0  0.11735488303E+03 -0.47177116722E+03 -0.33854915729E+03  0.59776146081E+03  0.79768598668E+02 0.  0.
         13    1    3    3    0    0 -0.18770042857E+02  0.52981325708E+02  0.15917643167E+03  0.16880898015E+03  0.00000000000E+00 0. -1.
        -13    1    3    3    0    0  0.18400024183E+02  0.85311722485E+02  0.60749349594E+02  0.10633501004E+03  0.00000000000E+00 0.  1.
          4    1    6    6  502    0  0.89350650157E+02 -0.29204648587E+03 -0.16874210192E+03  0.34892489959E+03  0.00000000000E+00 0. -1.
          3    1    5    5  503    0 -0.10064526299E+03  0.20749623176E+03 -0.36439449764E+03  0.43123949850E+03  0.00000000000E+00 0. -1.
         -4    1    5    5    0  503 -0.16339601371E+02  0.12598188727E+03 -0.29136571688E+03  0.31785594137E+03  0.00000000000E+00 0.  1.
         -3    1    6    6    0  502  0.28004232876E+02 -0.17972468134E+03 -0.16980705538E+03  0.24883656122E+03  0.00000000000E+00 0.  1.
<mgrwt>
<rscale>  0 0.14252077E+04</rscale>
<asrwt>0</asrwt>
<pdfrwt beam="1">  1        1 0.18433726E+00 0.14252077E+04</pdfrwt>
<pdfrwt beam="2">  1       -1 0.65201332E-01 0.14252077E+04</pdfrwt>
<totfact> 0.24874116E+01</totfact>
</mgrwt>
</event>
<event>
12    1  0.1489233E-007  0.1360186E+04  0.7818608E-02  0.8983153E-01
         -1   -1    0    0    0  501 -0.00000000000E+00  0.00000000000E+00  0.38015912841E+03  0.38015912841E+03  0.00000000000E+00 0.  1.
          1   -1    0    0  501    0  0.00000000000E+00 -0.00000000000E+00 -0.12166648856E+04  0.12166648856E+04  0.00000000000E+00 0. -1.
         23    2    1    2    0    0  0.20527735499E+03 -0.23432005629E+03 -0.50946458668E+03  0.60415292851E+03  0.91661958812E+02 0.  0.
        254    2    1    2    0    0 -0.20527735499E+03  0.23432005629E+03 -0.32704117049E+03  0.99267108547E+03  0.88396565289E+03 0.  0.
        -24    2    4    4    0    0 -0.24540145189E+03  0.28077196742E+02 -0.59184561001E+03  0.64644711633E+03  0.81255440234E+02 0.  0.
         24    2    4    4    0    0  0.40124096898E+02  0.20624285955E+03  0.26480443952E+03  0.34622396914E+03  0.74857099552E+02 0.  0.
         13    1    3    3    0    0  0.16439218252E+03 -0.18131079317E+03 -0.45951599613E+03  0.52062783645E+03  0.00000000000E+00 0. -1.
        -13    1    3    3    0    0  0.40885172473E+02 -0.53009263122E+02 -0.49948590553E+02  0.83525092058E+02  0.00000000000E+00 0.  1.
          2    1    6    6  502    0  0.12531734000E+02  0.48502874697E+02  0.20529014608E+02  0.54138836815E+02  0.00000000000E+00 0. -1.
          1    1    5    5  503    0 -0.64799632757E+02 -0.25537348638E+02 -0.12638006416E+03  0.14430200691E+03  0.00000000000E+00 0. -1.
         -2    1    5    5    0  503 -0.18060181913E+03  0.53614545380E+02 -0.46546554585E+03  0.50214510943E+03  0.00000000000E+00 0.  1.
         -1    1    6    6    0  502  0.27592362897E+02  0.15773998485E+03  0.24427542491E+03  0.29208513233E+03  0.00000000000E+00 0.  1.
<mgrwt>
<rscale>  0 0.13601857E+04</rscale>
<asrwt>0</asrwt>
<pdfrwt beam="1">  1        1 0.18717921E+00 0.13601857E+04</pdfrwt>
<pdfrwt beam="2">  1       -1 0.58486020E-01 0.13601857E+04</pdfrwt>
<totfact> 0.30103633E+01</totfact>
</mgrwt>
</event>
<event>
12    1  0.1489233E-007  0.1947762E+04  0.7818608E-02  0.8631441E-01
          2   -1    0    0  501    0  0.00000000000E+00  0.00000000000E+00  0.10201107384E+04  0.10201107384E+04  0.00000000000E+00 0. -1.
         -2   -1    0    0    0  501 -0.00000000000E+00 -0.00000000000E+00 -0.92974625815E+03  0.92974625815E+03  0.00000000000E+00 0.  1.
         23    2    1    2    0    0 -0.67811620727E+03 -0.61359206035E+02 -0.30819823737E+03  0.75261967653E+03  0.88564559771E+02 0.  0.
        254    2    1    2    0    0  0.67811620727E+03  0.61359206035E+02  0.39856271768E+03  0.11972373201E+04  0.90051008762E+03 0.  0.
        -24    2    4    4    0    0  0.21461419434E+03 -0.26981587997E+03 -0.16589807080E+03  0.39136712872E+03  0.82378383408E+02 0.  0.
         24    2    4    4    0    0  0.46350201293E+03  0.33117508600E+03  0.56446078848E+03  0.80587019135E+03  0.79370838401E+02 0.  0.
         11    1    3    3    0    0 -0.33756522953E+02  0.37191388635E+01  0.30021392835E+01  0.34093220382E+02  0.00000000000E+00 0. -1.
        -11    1    3    3    0    0 -0.64435968432E+03 -0.65078344899E+02 -0.31120037666E+03  0.71852645615E+03  0.00000000000E+00 0.  1.
          2    1    6    6  502    0  0.15679072530E+03  0.91321348608E+02  0.22712017425E+03  0.29070000654E+03  0.00000000000E+00 0. -1.
          1    1    5    5  503    0  0.73664496031E+02 -0.10372812518E+03 -0.10560243768E+03  0.16534163654E+03  0.00000000000E+00 0. -1.
         -2    1    5    5    0  503  0.14094969831E+03 -0.16608775478E+03 -0.60295633121E+02  0.22602549218E+03  0.00000000000E+00 0.  1.
         -1    1    6    6    0  502  0.30671128763E+03  0.23985373740E+03  0.33734061423E+03  0.51517018480E+03  0.00000000000E+00 0.  1.
<mgrwt>
<rscale>  0 0.19477619E+04</rscale>
<asrwt>0</asrwt>
<pdfrwt beam="1">  1        2 0.15694011E+00 0.19477619E+04</pdfrwt>
<pdfrwt beam="2">  1       -2 0.14303789E+00 0.19477619E+04</pdfrwt>
<totfact> 0.77469553E+00</totfact>
</mgrwt>
</event>
<event>
12    1  0.1489233E-007  0.1519108E+04  0.7818608E-02  0.8871845E-01
          3   -1    0    0  501    0  0.00000000000E+00  0.00000000000E+00  0.79985663828E+03  0.79985663828E+03  0.00000000000E+00 0. -1.
         -3   -1    0    0    0  501 -0.00000000000E+00 -0.00000000000E+00 -0.72128248696E+03  0.72128248696E+03  0.00000000000E+00 0.  1.
         23    2    1    2    0    0  0.22457160275E+03 -0.41808063638E+03  0.80392607544E+01  0.48350725384E+03  0.92145599551E+02 0.  0.
        254    2    1    2    0    0 -0.22457160275E+03  0.41808063638E+03  0.70534890565E+02  0.10376318714E+04  0.92004396987E+03 0.  0.
        -24    2    4    4    0    0 -0.32217857154E+03  0.34150152391E+02 -0.32902939519E+03  0.46878199516E+03  0.80814300831E+02 0.  0.
         24    2    4    4    0    0  0.97606968790E+02  0.38393048399E+03  0.39956428576E+03  0.56884987625E+03  0.83718733627E+02 0.  0.
         11    1    3    3    0    0  0.19997301886E+03 -0.39164594243E+03 -0.16155095235E+02  0.44004174756E+03  0.00000000000E+00 0.  1.
        -11    1    3    3    0    0  0.24598583897E+02 -0.26434693951E+02  0.24194355990E+02  0.43465506275E+02  0.00000000000E+00 0. -1.
          4    1    6    6  502    0  0.80143231632E+02  0.14842849488E+03  0.16160439379E+03  0.23360208852E+03  0.00000000000E+00 0. -1.
          3    1    5    5  503    0 -0.66704932814E+02 -0.33107676585E+01 -0.28633934809E+02  0.72666439756E+02  0.00000000000E+00 0. -1.
         -4    1    5    5    0  503 -0.25547363873E+03  0.37460920050E+02 -0.30039546038E+03  0.39611555541E+03  0.00000000000E+00 0.  1.
         -3    1    6    6    0  502  0.17463737158E+02  0.23550198912E+03  0.23795989196E+03  0.33524778773E+03  0.00000000000E+00 0.  1.
<mgrwt>
<rscale>  0 0.15191084E+04</rscale>
<asrwt>0</asrwt>
<pdfrwt beam="1">  1        3 0.12305487E+00 0.15191084E+04</pdfrwt>
<pdfrwt beam="2">  1       -3 0.11096654E+00 0.15191084E+04</pdfrwt>
<totfact> 0.91919676E-01</totfact>
</mgrwt>
</event>
<event>
12    1  0.1489233E-007  0.1363200E+04  0.7818608E-02  0.8980896E-01
         -1   -1    0    0    0  501 -0.00000000000E+00  0.00000000000E+00  0.43999689091E+03  0.43999689091E+03  0.00000000000E+00 0.  1.
          1   -1    0    0  501    0  0.00000000000E+00 -0.00000000000E+00 -0.10558679311E+04  0.10558679311E+04  0.00000000000E+00 0. -1.
         23    2    1    2    0    0 -0.12421882297E+03 -0.22379427010E+02 -0.56004741487E+03  0.58138958069E+03  0.91812760040E+02 0.  0.
        254    2    1    2    0    0  0.12421882297E+03  0.22379427010E+02 -0.55823625373E+02  0.91447524136E+03  0.90400084910E+03 0.  0.
        -24    2    4    4    0    0 -0.32352763893E+03  0.13061061139E+02 -0.25295162142E+03  0.41868074236E+03  0.80425846398E+02 0.  0.
         24    2    4    4    0    0  0.44774646191E+03  0.93183658713E+01  0.19712799605E+03  0.49579449900E+03  0.79931297517E+02 0.  0.
         13    1    3    3    0    0 -0.13565945562E+03 -0.33537087879E+02 -0.48962051095E+03  0.50917233714E+03  0.00000000000E+00 0. -1.
        -13    1    3    3    0    0  0.11440632650E+02  0.11157660869E+02 -0.70426903912E+02  0.72217243552E+02  0.00000000000E+00 0.  1.
          2    1    6    6  502    0  0.33994781332E+03 -0.27372985395E+02  0.14814041847E+03  0.37183246186E+03  0.00000000000E+00 0. -1.
          3    1    5    5  503    0 -0.21350928786E+03  0.37259008024E+02 -0.19706314244E+03  0.29293059210E+03  0.00000000000E+00 0. -1.
         -4    1    5    5    0  503 -0.11001835107E+03 -0.24197946885E+02 -0.55888478988E+02  0.12575015026E+03  0.00000000000E+00 0.  1.
         -1    1    6    6    0  502  0.10779864859E+03  0.36691351266E+02  0.48987577579E+02  0.12396203714E+03  0.00000000000E+00 0.  1.
<mgrwt>
<rscale>  0 0.13632001E+04</rscale>
<asrwt>0</asrwt>
<pdfrwt beam="1">  1        1 0.16244122E+00 0.13632001E+04</pdfrwt>
<pdfrwt beam="2">  1       -1 0.67691830E-01 0.13632001E+04</pdfrwt>
<totfact> 0.29601128E+01</totfact>
</mgrwt>
</event>
<event>
12    1  0.1489233E-007  0.1463446E+04  0.7818608E-02  0.8909131E-01
         -1   -1    0    0    0  501 -0.00000000000E+00  0.00000000000E+00  0.16358685931E+03  0.16358685931E+03  0.00000000000E+00 0.  1.
          1   -1    0    0  501    0  0.00000000000E+00 -0.00000000000E+00 -0.32729942883E+04  0.32729942883E+04  0.00000000000E+00 0. -1.
         23    2    1    2    0    0 -0.38430154543E+03 -0.20877612210E+03 -0.11979201643E+04  0.12785674268E+04  0.91906462627E+02 0.  0.
        254    2    1    2    0    0  0.38430154543E+03  0.20877612210E+03 -0.19114872647E+04  0.21580137208E+04  0.90109073302E+03 0.  0.
        -24    2    4    4    0    0  0.30826568066E+03 -0.31909329285E+03 -0.69727108772E+03  0.82947275920E+03  0.70638722123E+02 0.  0.
         24    2    4    4    0    0  0.76035864768E+02  0.52786941496E+03 -0.12142161770E+04  0.13285409616E+04  0.79199686044E+02 0.  0.
         11    1    3    3    0    0 -0.23127071347E+03 -0.11477598918E+03 -0.57563796820E+03  0.63088726492E+03  0.00000000000E+00 0.  1.
        -11    1    3    3    0    0 -0.15303083196E+03 -0.94000132921E+02 -0.62228219614E+03  0.64768016193E+03  0.00000000000E+00 0. -1.
          4    1    6    6  502    0  0.10987334585E+02  0.13572625259E+02 -0.19334322456E+02  0.26052901998E+02  0.00000000000E+00 0. -1.
          1    1    5    5  503    0  0.10904030890E+03 -0.69209223181E+02 -0.21930345589E+03  0.25450680011E+03  0.00000000000E+00 0. -1.
         -2    1    5    5    0  503  0.19922537177E+03 -0.24988406967E+03 -0.47796763184E+03  0.57496595909E+03  0.00000000000E+00 0.  1.
         -3    1    6    6    0  502  0.65048530183E+02  0.51429678970E+03 -0.11948818545E+04  0.13024880596E+04  0.00000000000E+00 0.  1.
<mgrwt>
<rscale>  0 0.14634464E+04</rscale>
<asrwt>0</asrwt>
<pdfrwt beam="1">  1        1 0.50353752E+00 0.14634464E+04</pdfrwt>
<pdfrwt beam="2">  1       -1 0.25167213E-01 0.14634464E+04</pdfrwt>
<totfact> 0.50796231E+00</totfact>
</mgrwt>
</event>
<event>
12    1  0.1489233E-007  0.1212247E+04  0.7818608E-02  0.9102204E-01
          2   -1    0    0  501    0  0.00000000000E+00  0.00000000000E+00  0.96801200166E+03  0.96801200166E+03  0.00000000000E+00 0. -1.
         -2   -1    0    0    0  501 -0.00000000000E+00 -0.00000000000E+00 -0.37952589477E+03  0.37952589477E+03  0.00000000000E+00 0.  1.
         23    2    1    2    0    0 -0.21291190861E+02 -0.21055492608E+03 -0.25699102523E+02  0.23223832382E+03  0.92127647724E+02 0.  0.
        254    2    1    2    0    0  0.21291190861E+02  0.21055492608E+03  0.61418520941E+03  0.11152995726E+04  0.90657761582E+03 0.  0.
        -24    2    4    4    0    0 -0.33462664936E+03 -0.16098346017E+03  0.40253695127E+03  0.55333770816E+03  0.79094584038E+02 0.  0.
         24    2    4    4    0    0  0.35591784022E+03  0.37153838625E+03  0.21164825814E+03  0.56196186445E+03  0.79296093738E+02 0.  0.
         11    1    3    3    0    0 -0.15217150072E+01 -0.82273508674E+02  0.34418942712E+02  0.89195904971E+02  0.00000000000E+00 0. -1.
        -11    1    3    3    0    0 -0.19769475853E+02 -0.12828141741E+03 -0.60118045235E+02  0.14304241885E+03  0.00000000000E+00 0.  1.
          4    1    6    6  502    0  0.22484734988E+03  0.19227598613E+03  0.14885504756E+03  0.33118606670E+03  0.00000000000E+00 0. -1.
          1    1    5    5  503    0 -0.15480461687E+03 -0.68163814106E+02  0.12722252328E+03  0.21165147150E+03  0.00000000000E+00 0. -1.
         -2    1    5    5    0  503 -0.17982203248E+03 -0.92819646067E+02  0.27531442799E+03  0.34168623666E+03  0.00000000000E+00 0.  1.
         -3    1    6    6    0  502  0.13107049034E+03  0.17926240013E+03  0.62793210582E+02  0.23077579776E+03  0.00000000000E+00 0.  1.
<mgrwt>
<rscale>  0 0.12122469E+04</rscale>
<asrwt>0</asrwt>
<pdfrwt beam="1">  1        2 0.14892492E+00 0.12122469E+04</pdfrwt>
<pdfrwt beam="2">  1       -2 0.58388600E-01 0.12122469E+04</pdfrwt>
<totfact> 0.71466999E+01</totfact>
</mgrwt>
</event>
<event>
12    1  0.2239459E-007  0.2026865E+04  0.7818608E-02  0.8594162E-01
         -1   -1    0    0    0  501 -0.00000000000E+00  0.00000000000E+00  0.11308285228E+04  0.11308285228E+04  0.00000000000E+00 0.  1.
          1   -1    0    0  501    0  0.00000000000E+00 -0.00000000000E+00 -0.90822423543E+03  0.90822423543E+03  0.00000000000E+00 0. -1.
         23    2    1    2    0    0 -0.72404329467E+03  0.24015400393E+03  0.30132296374E+03  0.82536215586E+03  0.92274165864E+02 0.  0.
        254    2    1    2    0    0  0.72404329467E+03 -0.24015400393E+03 -0.78718676366E+02  0.12136906024E+04  0.94071016267E+03 0.  0.
        -24    2    4    4    0    0  0.39244432228E+03  0.34214148123E+03 -0.11112326627E+03  0.53803433016E+03  0.77840997275E+02 0.  0.
         24    2    4    4    0    0  0.33159897239E+03 -0.58229548516E+03  0.32404589904E+02  0.67565627222E+03  0.80221133254E+02 0.  0.
         11    1    3    3    0    0 -0.93186405846E+02 -0.51060309856E+00  0.36067077947E+02  0.99923976410E+02  0.00000000000E+00 0. -1.
        -11    1    3    3    0    0 -0.63085688882E+03  0.24066460703E+03  0.26525588580E+03  0.72543817945E+03  0.00000000000E+00 0.  1.
          4    1    6    6  502    0  0.29916780066E+03 -0.50176395897E+03  0.52525941696E+02  0.58653850515E+03  0.00000000000E+00 0. -1.
          3    1    5    5  503    0  0.36709131556E+03  0.32204009264E+03 -0.12297691828E+03  0.50357638711E+03  0.00000000000E+00 0. -1.
         -4    1    5    5    0  503  0.25353006720E+02  0.20101388592E+02  0.11853652014E+02  0.34457943048E+02  0.00000000000E+00 0.  1.
         -3    1    6    6    0  502  0.32431171735E+02 -0.80531526193E+02 -0.20121351792E+02  0.89117767079E+02  0.00000000000E+00 0.  1.
<mgrwt>
<rscale>  0 0.20268654E+04</rscale>
<asrwt>0</asrwt>
<pdfrwt beam="1">  1        1 0.13972681E+00 0.20268654E+04</pdfrwt>
<pdfrwt beam="2">  1       -1 0.17397362E+00 0.20268654E+04</pdfrwt>
<totfact> 0.38157444E+00</totfact>
</mgrwt>
</event>
<event>
12    1  0.1489233E-007  0.1339414E+04  0.7818608E-02  0.8998880E-01
         -1   -1    0    0    0  501 -0.00000000000E+00  0.00000000000E+00  0.49564684034E+03  0.49564684034E+03  0.00000000000E+00 0.  1.
          1   -1    0    0  501    0  0.00000000000E+00 -0.00000000000E+00 -0.90489332536E+03  0.90489332536E+03  0.00000000000E+00 0. -1.
         23    2    1    2    0    0  0.24784020100E+03 -0.27638693408E+03 -0.13071849489E+03  0.40386559296E+03  0.90584710169E+02 0.  0.
        254    2    1    2    0    0 -0.24784020100E+03  0.27638693408E+03 -0.27852799014E+03  0.99667457274E+03  0.88202486365E+03 0.  0.
        -24    2    4    4    0    0  0.54473606955E+02  0.16278504893E+03 -0.54084828802E+03  0.57308058410E+03  0.80238015974E+02 0.  0.
         24    2    4    4    0    0 -0.30231380795E+03  0.11360188515E+03  0.26232029788E+03  0.42359398864E+03  0.79504098882E+02 0.  0.
         11    1    3    3    0    0  0.25227223341E+03 -0.24927537611E+03 -0.12144661474E+03  0.37487167553E+03  0.00000000000E+00 0.  1.
        -11    1    3    3    0    0 -0.44320324116E+01 -0.27111557965E+02 -0.92718801449E+01  0.28993917431E+02  0.00000000000E+00 0. -1.
          2    1    6    6  502    0 -0.29821505433E+03  0.10953396339E+03  0.26789381372E+03  0.41556828945E+03  0.00000000000E+00 0. -1.
          1    1    5    5  503    0  0.57174000268E+02  0.69506489830E+02 -0.19334613112E+03  0.21326683955E+03  0.00000000000E+00 0. -1.
         -2    1    5    5    0  503 -0.27003933131E+01  0.93278559100E+02 -0.34750215691E+03  0.35981374455E+03  0.00000000000E+00 0.  1.
         -1    1    6    6    0  502 -0.40987536256E+01  0.40679217512E+01 -0.55735158381E+01  0.80256991879E+01  0.00000000000E+00 0.  1.
<mgrwt>
<rscale>  0 0.13394141E+04</rscale>
<asrwt>0</asrwt>
<pdfrwt beam="1">  1        1 0.13921436E+00 0.13394141E+04</pdfrwt>
<pdfrwt beam="2">  1       -1 0.76253361E-01 0.13394141E+04</pdfrwt>
<totfact> 0.30506355E+01</totfact>
</mgrwt>
</event>
<event>
12    1  0.1489233E-007  0.1529494E+04  0.7818608E-02  0.8865073E-01
         -1   -1    0    0    0  501 -0.00000000000E+00  0.00000000000E+00  0.54038771269E+03  0.54038771269E+03  0.00000000000E+00 0.  1.
          1   -1    0    0  501    0  0.00000000000E+00 -0.00000000000E+00 -0.10822563155E+04  0.10822563155E+04  0.00000000000E+00 0. -1.
         23    2    1    2    0    0  0.27221614566E+03  0.33700568850E+03 -0.41585100573E+03  0.60744363103E+03  0.91549122755E+02 0.  0.
        254    2    1    2    0    0 -0.27221614566E+03 -0.33700568850E+03 -0.12601759706E+03  0.10152003971E+04  0.90943770955E+03 0.  0.
        -24    2    4    4    0    0 -0.60141472396E+03 -0.25619696065E+03 -0.90079946597E+02  0.66445767833E+03  0.77801392453E+02 0.  0.
         24    2    4    4    0    0  0.32919857830E+03 -0.80808727849E+02 -0.35937650464E+02  0.35074271881E+03  0.82626785173E+02 0.  0.
         13    1    3    3    0    0  0.16548335742E+03  0.24251083160E+03 -0.22853934490E+03  0.37205708862E+03  0.00000000000E+00 0. -1.
        -13    1    3    3    0    0  0.10673278824E+03  0.94494856903E+02 -0.18731166083E+03  0.23538654242E+03  0.00000000000E+00 0.  1.
          4    1    6    6  502    0  0.70389459295E+02  0.10974890703E+02  0.11228127086E+02  0.72119311170E+02  0.00000000000E+00 0. -1.
          1    1    5    5  503    0 -0.30932603835E+02  0.21067749493E+01 -0.12523852929E+02  0.33438172391E+02  0.00000000000E+00 0. -1.
         -2    1    5    5    0  503 -0.57048212013E+03 -0.25830373560E+03 -0.77556093667E+02  0.63101950594E+03  0.00000000000E+00 0.  1.
         -3    1    6    6    0  502  0.25880911901E+03 -0.91783618552E+02 -0.47165777550E+02  0.27862340764E+03  0.00000000000E+00 0.  1.
<mgrwt>
<rscale>  0 0.15294941E+04</rscale>
<asrwt>0</asrwt>
<pdfrwt beam="1">  1        1 0.16650097E+00 0.15294941E+04</pdfrwt>
<pdfrwt beam="2">  1       -1 0.83136573E-01 0.15294941E+04</pdfrwt>
<totfact> 0.18129718E+01</totfact>
</mgrwt>
</event>
<event>
12    1  0.1489233E-007  0.2579957E+04  0.7818608E-02  0.8375041E-01
          2   -1    0    0  501    0  0.00000000000E+00  0.00000000000E+00  0.19332404506E+04  0.19332404506E+04  0.00000000000E+00 0. -1.
         -2   -1    0    0    0  501 -0.00000000000E+00 -0.00000000000E+00 -0.86075425183E+03  0.86075425183E+03  0.00000000000E+00 0.  1.
         23    2    1    2    0    0 -0.12988150430E+03  0.10710168668E+04  0.83533655518E+03  0.13674562905E+04  0.90571583855E+02 0.  0.
        254    2    1    2    0    0  0.12988150430E+03 -0.10710168668E+04  0.23714964361E+03  0.14265384120E+04  0.90267688191E+03 0.  0.
        -24    2    4    4    0    0  0.31672850153E+03 -0.15058986329E+03 -0.17232572017E+03  0.39888399561E+03  0.80112655156E+02 0.  0.
         24    2    4    4    0    0 -0.18684699723E+03 -0.92042700354E+03  0.40947536379E+03  0.10276544163E+04  0.79409424257E+02 0.  0.
         13    1    3    3    0    0 -0.78242068187E+02  0.85571610159E+03  0.69657983991E+03  0.11061624388E+04  0.00000000000E+00 0. -1.
        -13    1    3    3    0    0 -0.51639436115E+02  0.21530076524E+03  0.13875671527E+03  0.26129385164E+03  0.00000000000E+00 0.  1.
          2    1    6    6  502    0 -0.42943220461E+02 -0.27526310509E+03  0.84857645633E+02  0.29122966407E+03  0.00000000000E+00 0. -1.
          3    1    5    5  503    0  0.18188329326E+03 -0.50431467899E+02 -0.65347967860E+02  0.19973788380E+03  0.00000000000E+00 0. -1.
         -4    1    5    5    0  503  0.13484520827E+03 -0.10015839539E+03 -0.10697775231E+03  0.19914611182E+03  0.00000000000E+00 0.  1.
         -1    1    6    6    0  502 -0.14390377677E+03 -0.64516389844E+03  0.32461771816E+03  0.73642475227E+03  0.00000000000E+00 0.  1.
<mgrwt>
<rscale>  0 0.25799573E+04</rscale>
<asrwt>0</asrwt>
<pdfrwt beam="1">  1        2 0.29742161E+00 0.25799573E+04</pdfrwt>
<pdfrwt beam="2">  1       -2 0.13242373E+00 0.25799573E+04</pdfrwt>
<totfact> 0.26721784E+00</totfact>
</mgrwt>
</event>
<event>
12    1  0.1489233E-007  0.1346005E+04  0.7818608E-02  0.8993858E-01
          2   -1    0    0  501    0  0.00000000000E+00  0.00000000000E+00  0.14741263524E+04  0.14741263524E+04  0.00000000000E+00 0. -1.
         -2   -1    0    0    0  501 -0.00000000000E+00 -0.00000000000E+00 -0.30725478010E+03  0.30725478010E+03  0.00000000000E+00 0.  1.
         23    2    1    2    0    0 -0.89013376763E+02  0.35815207213E+03  0.36839439862E+03  0.52896793395E+03  0.88861432598E+02 0.  0.
        254    2    1    2    0    0  0.89013376763E+02 -0.35815207213E+03  0.79847717363E+03  0.12524131985E+04  0.89150251541E+03 0.  0.
        -24    2    4    4    0    0 -0.72405873881E+02  0.24969490299E+03  0.58758533042E+02  0.27824362477E+03  0.79854833088E+02 0.  0.
         24    2    4    4    0    0  0.16141925064E+03 -0.60784697512E+03  0.73971864059E+03  0.97416957374E+03  0.79300513972E+02 0.  0.
         11    1    3    3    0    0 -0.54510181365E+02  0.21540634062E+03  0.28040865666E+03  0.35777124840E+03  0.00000000000E+00 0. -1.
        -11    1    3    3    0    0 -0.34503195398E+02  0.14274573151E+03  0.87985741962E+02  0.17119668555E+03  0.00000000000E+00 0.  1.
          4    1    6    6  502    0  0.24160326295E+02 -0.36714598664E+02  0.76518010449E+02  0.88242218041E+02  0.00000000000E+00 0. -1.
          3    1    5    5  503    0 -0.35828526393E+02  0.32133912318E+02  0.27487262421E+02  0.55424013024E+02  0.00000000000E+00 0. -1.
         -4    1    5    5    0  503 -0.36577347488E+02  0.21756099068E+03  0.31271270621E+02  0.22281961175E+03  0.00000000000E+00 0.  1.
         -3    1    6    6    0  502  0.13725892435E+03 -0.57113237646E+03  0.66320063014E+03  0.88592735570E+03  0.00000000000E+00 0.  1.
<mgrwt>
<rscale>  0 0.13460050E+04</rscale>
<asrwt>0</asrwt>
<pdfrwt beam="1">  1        2 0.22678867E+00 0.13460050E+04</pdfrwt>
<pdfrwt beam="2">  1       -2 0.47269967E-01 0.13460050E+04</pdfrwt>
<totfact> 0.54395817E+01</totfact>
</mgrwt>
</event>
<event>
12    1  0.1489233E-007  0.1672981E+04  0.7818608E-02  0.8776926E-01
          1   -1    0    0  501    0  0.00000000000E+00  0.00000000000E+00  0.22168664087E+04  0.22168664087E+04  0.00000000000E+00 0. -1.
         -1   -1    0    0    0  501 -0.00000000000E+00 -0.00000000000E+00 -0.31563304101E+03  0.31563304101E+03  0.00000000000E+00 0.  1.
         23    2    1    2    0    0 -0.26227442035E+02 -0.46233875618E+03  0.12282229517E+04  0.13158378008E+04  0.91937450111E+02 0.  0.
        254    2    1    2    0    0  0.26227442035E+02  0.46233875618E+03  0.67301041604E+03  0.12166616490E+04  0.90159721815E+03 0.  0.
        -24    2    4    4    0    0  0.27990811511E+03  0.44782622203E+03  0.47491001730E+02  0.53624748151E+03  0.80056780718E+02 0.  0.
         24    2    4    4    0    0 -0.25368067308E+03  0.14512534152E+02  0.62551941431E+03  0.68041416746E+03  0.84406184902E+02 0.  0.
         11    1    3    3    0    0 -0.23543836771E+02 -0.28520477803E+02  0.12588955758E+03  0.13120941510E+03  0.00000000000E+00 0.  1.
        -11    1    3    3    0    0 -0.26836052641E+01 -0.43381827838E+03  0.11023333941E+04  0.11846283857E+04  0.00000000000E+00 0. -1.
          2    1    6    6  502    0 -0.17698968442E+03 -0.25008325185E+02  0.46511276192E+03  0.49827767964E+03  0.00000000000E+00 0. -1.
          3    1    5    5  503    0  0.18559396077E+03  0.23588875728E+03  0.36749106834E+01  0.30017016683E+03  0.00000000000E+00 0. -1.
         -4    1    5    5    0  503  0.94314154349E+02  0.21193746475E+03  0.43816091047E+02  0.23607731469E+03  0.00000000000E+00 0.  1.
         -1    1    6    6    0  502 -0.76690988657E+02  0.39520859337E+02  0.16040665239E+03  0.18213648782E+03  0.00000000000E+00 0.  1.
<mgrwt>
<rscale>  0 0.16729809E+04</rscale>
<asrwt>0</asrwt>
<pdfrwt beam="1">  1        1 0.34105636E+00 0.16729809E+04</pdfrwt>
<pdfrwt beam="2">  1       -1 0.48558931E-01 0.16729809E+04</pdfrwt>
<totfact> 0.85928982E+00</totfact>
</mgrwt>
</event>
<event>
12    1  0.1489233E-007  0.1289377E+04  0.7818608E-02  0.9038032E-01
          1   -1    0    0  501    0  0.00000000000E+00  0.00000000000E+00  0.61500690255E+03  0.61500690255E+03  0.00000000000E+00 0. -1.
         -1   -1    0    0    0  501 -0.00000000000E+00 -0.00000000000E+00 -0.67580238605E+03  0.67580238605E+03  0.00000000000E+00 0.  1.
         23    2    1    2    0    0  0.55539122176E+02 -0.10847897391E+03  0.29557564811E+03  0.33134424657E+03  0.87015884204E+02 0.  0.
        254    2    1    2    0    0 -0.55539122176E+02  0.10847897391E+03 -0.35637113161E+03  0.95946504204E+03  0.88245141598E+03 0.  0.
        -24    2    4    4    0    0 -0.42443932203E+03  0.18468605778E+03 -0.32808041212E+03  0.57316135216E+03  0.81360314501E+02 0.  0.
         24    2    4    4    0    0  0.36890019985E+03 -0.76207083866E+02 -0.28290719493E+02  0.38630368987E+03  0.80841195675E+02 0.  0.
         11    1    3    3    0    0 -0.12285751335E+02  0.64891927145E+01  0.13965045747E+02  0.19699538336E+02  0.00000000000E+00 0.  1.
        -11    1    3    3    0    0  0.67824873511E+02 -0.11496816663E+03  0.28161060236E+03  0.31164470823E+03  0.00000000000E+00 0. -1.
          2    1    6    6  502    0  0.20126579278E+03 -0.78557542573E+02  0.13211075368E+01  0.21605775192E+03  0.00000000000E+00 0. -1.
          1    1    5    5  503    0 -0.24445257818E+03  0.14053638911E+03 -0.16766018060E+03  0.32805102622E+03  0.00000000000E+00 0. -1.
         -2    1    5    5    0  503 -0.17998674385E+03  0.44149668667E+02 -0.16042023152E+03  0.24511032594E+03  0.00000000000E+00 0.  1.
         -1    1    6    6    0  502  0.16763440707E+03  0.23504587067E+01 -0.29611827030E+02  0.17024593796E+03  0.00000000000E+00 0.  1.
<mgrwt>
<rscale>  0 0.12893768E+04</rscale>
<asrwt>0</asrwt>
<pdfrwt beam="1">  1        1 0.94616446E-01 0.12893768E+04</pdfrwt>
<pdfrwt beam="2">  1       -1 0.10396960E+00 0.12893768E+04</pdfrwt>
<totfact> 0.28316707E+01</totfact>
</mgrwt>
</event>
<event>
12    1  0.1489233E-007  0.1560806E+04  0.7818608E-02  0.8844995E-01
         -2   -1    0    0    0  501 -0.00000000000E+00  0.00000000000E+00  0.35270872045E+03  0.35270872045E+03  0.00000000000E+00 0. -1.
          2   -1    0    0  501    0  0.00000000000E+00 -0.00000000000E+00 -0.17267181017E+04  0.17267181017E+04  0.00000000000E+00 0.  1.
         23    2    1    2    0    0  0.14033504395E+03  0.19772814124E+03  0.14351163690E+03  0.29679210823E+03  0.93271770581E+02 0.  0.
        254    2    1    2    0    0 -0.14033504395E+03 -0.19772814124E+03 -0.15175210182E+04  0.17826347140E+04  0.90339700041E+03 0.  0.
        -24    2    4    4    0    0 -0.47113874122E+03 -0.28884155006E+03 -0.11185981505E+04  0.12501081246E+04  0.78149512612E+02 0.  0.
         24    2    4    4    0    0  0.33080369727E+03  0.91113408820E+02 -0.39892286770E+03  0.53252658939E+03  0.81929082923E+02 0.  0.
         13    1    3    3    0    0  0.73238060439E+02  0.14751738548E+03  0.13424350366E+03  0.21247708298E+03  0.00000000000E+00 0. -1.
        -13    1    3    3    0    0  0.67096983509E+02  0.50210755762E+02  0.92681332318E+01  0.84315025255E+02  0.00000000000E+00 0.  1.
          4    1    6    6  502    0  0.12510365844E+03  0.24526840633E+02 -0.92512997153E+02  0.15751554180E+03  0.00000000000E+00 0. -1.
          1    1    5    5  503    0 -0.46832202150E+03 -0.28806135499E+03 -0.11193446377E+04  0.12470915275E+04  0.00000000000E+00 0. -1.
         -2    1    5    5    0  503 -0.28167197253E+01 -0.78019507151E+00  0.74648725081E+00  0.30165970192E+01  0.00000000000E+00 0.  1.
         -3    1    6    6    0  502  0.20570003883E+03  0.66586568188E+02 -0.30640987055E+03  0.37501104758E+03  0.00000000000E+00 0.  1.
<mgrwt>
<rscale>  0 0.15608056E+04</rscale>
<asrwt>0</asrwt>
<pdfrwt beam="1">  1        2 0.26564894E+00 0.15608056E+04</pdfrwt>
<pdfrwt beam="2">  1       -2 0.54262880E-01 0.15608056E+04</pdfrwt>
<totfact> 0.29140561E+01</totfact>
</mgrwt>
</event>
<event>
12    1  0.1489233E-007  0.1511177E+04  0.7818608E-02  0.8877054E-01
         -2   -1    0    0    0  501 -0.00000000000E+00  0.00000000000E+00  0.16443028915E+03  0.16443028915E+03  0.00000000000E+00 0. -1.
          2   -1    0    0  501    0  0.00000000000E+00 -0.00000000000E+00 -0.34720726241E+04  0.34720726241E+04  0.00000000000E+00 0.  1.
         23    2    1    2    0    0 -0.46158709349E+03 -0.43955723186E+01 -0.18510582467E+04  0.19100055943E+04  0.92858881035E+02 0.  0.
        254    2    1    2    0    0  0.46158709349E+03  0.43955723186E+01 -0.14565840883E+04  0.17264973190E+04  0.80378717343E+03 0.  0.
        -24    2    4    4    0    0  0.13535652780E+03 -0.37217985477E+03 -0.47984405989E+03  0.62714143739E+03  0.78846856332E+02 0.  0.
         24    2    4    4    0    0  0.32623056569E+03  0.37657542709E+03 -0.97674002841E+03  0.10993558816E+04  0.79541416825E+02 0.  0.
         11    1    3    3    0    0 -0.53475188155E+02  0.30596943150E+01 -0.36497732184E+03  0.36888670745E+03  0.00000000000E+00 0.  1.
        -11    1    3    3    0    0 -0.40811190534E+03 -0.74552666336E+01 -0.14860809248E+04  0.15411188869E+04  0.00000000000E+00 0. -1.
          2    1    6    6  502    0  0.29400964544E+03  0.30006675967E+03 -0.84447042823E+03  0.94319247030E+03  0.00000000000E+00 0. -1.
          3    1    5    5  503    0  0.32471692306E+01 -0.10951069072E+03 -0.12111787825E+03  0.16331771466E+03  0.00000000000E+00 0. -1.
         -4    1    5    5    0  503  0.13210935857E+03 -0.26266916406E+03 -0.35872618164E+03  0.46382372273E+03  0.00000000000E+00 0.  1.
         -1    1    6    6    0  502  0.32220920251E+02  0.76508667419E+02 -0.13226960018E+03  0.15616341128E+03  0.00000000000E+00 0.  1.
<mgrwt>
<rscale>  0 0.15111769E+04</rscale>
<asrwt>0</asrwt>
<pdfrwt beam="1">  1        2 0.53416497E+00 0.15111769E+04</pdfrwt>
<pdfrwt beam="2">  1       -2 0.25296970E-01 0.15111769E+04</pdfrwt>
<totfact> 0.11682638E+01</totfact>
</mgrwt>
</event>
<event>
12    1  0.1489233E-007  0.2168958E+04  0.7818608E-02  0.8531461E-01
         -2   -1    0    0    0  501 -0.00000000000E+00  0.00000000000E+00  0.34220599160E+03  0.34220599160E+03  0.00000000000E+00 0. -1.
          2   -1    0    0  501    0  0.00000000000E+00 -0.00000000000E+00 -0.34368043415E+04  0.34368043415E+04  0.00000000000E+00 0.  1.
         23    2    1    2    0    0  0.68311819897E+03 -0.91184219573E+01 -0.22400897476E+04  0.23437086401E+04  0.90744107528E+02 0.  0.
        254    2    1    2    0    0 -0.68311819897E+03  0.91184219573E+01 -0.85450860232E+03  0.14353016930E+04  0.92907070726E+03 0.  0.
        -24    2    4    4    0    0 -0.69284442271E+03  0.21854300710E+03 -0.94396067043E+03  0.11938810236E+04  0.80595974729E+02 0.  0.
         24    2    4    4    0    0  0.97262237334E+01 -0.20942458514E+03  0.89452068112E+02  0.24142066941E+03  0.79555080514E+02 0.  0.
         13    1    3    3    0    0  0.65493363909E+03 -0.21909694696E+02 -0.20847272156E+04  0.21852930398E+04  0.00000000000E+00 0.  1.
        -13    1    3    3    0    0  0.28184559888E+02  0.12791272739E+02 -0.15536253192E+03  0.15841560024E+03  0.00000000000E+00 0. -1.
          4    1    6    6  502    0  0.23312234125E+02 -0.95264192351E+02  0.39664158506E+01  0.98155280341E+02  0.00000000000E+00 0. -1.
          1    1    5    5  503    0 -0.16004664426E+03  0.25994646555E+02 -0.25097129008E+03  0.29879296918E+03  0.00000000000E+00 0. -1.
         -2    1    5    5    0  503 -0.53279777845E+03  0.19254836055E+03 -0.69298938035E+03  0.89508805441E+03  0.00000000000E+00 0.  1.
         -3    1    6    6    0  502 -0.13586010392E+02 -0.11416039279E+03  0.85485652262E+02  0.14326538906E+03  0.00000000000E+00 0.  1.
<mgrwt>
<rscale>  0 0.21689583E+04</rscale>
<asrwt>0</asrwt>
<pdfrwt beam="1">  1        2 0.52873913E+00 0.21689583E+04</pdfrwt>
<pdfrwt beam="2">  1       -2 0.52647075E-01 0.21689583E+04</pdfrwt>
<totfact> 0.28154613E+00</totfact>
</mgrwt>
</event>
<event>
12    1  0.1489233E-007  0.1918475E+04  0.7818608E-02  0.8645714E-01
          1   -1    0    0  501    0  0.00000000000E+00  0.00000000000E+00  0.20201403726E+04  0.20201403726E+04  0.00000000000E+00 0. -1.
         -1   -1    0    0    0  501 -0.00000000000E+00 -0.00000000000E+00 -0.45548158722E+03  0.45548158722E+03  0.00000000000E+00 0.  1.
         23    2    1    2    0    0 -0.60036820305E+03  0.24450107232E+03  0.10833279911E+04  0.12656589696E+04  0.89835056557E+02 0.  0.
        254    2    1    2    0    0  0.60036820305E+03 -0.24450107232E+03  0.48133079426E+03  0.12099629902E+04  0.90117054469E+03 0.  0.
        -24    2    4    4    0    0  0.74582825587E+03  0.59107115575E+02  0.40795622006E+03  0.85603545106E+03  0.81332512704E+02 0.  0.
         24    2    4    4    0    0 -0.14546005282E+03 -0.30360818790E+03  0.73374574207E+02  0.35392753917E+03  0.80896947540E+02 0.  0.
         13    1    3    3    0    0 -0.25971679208E+03  0.11956117755E+03  0.39589493328E+03  0.48834463800E+03  0.00000000000E+00 0. -1.
        -13    1    3    3    0    0 -0.34065141097E+03  0.12493989477E+03  0.68743305786E+03  0.77731433162E+03  0.00000000000E+00 0.  1.
          2    1    6    6  502    0 -0.11890681368E+03 -0.23337928146E+03  0.21782629439E+02  0.26282922649E+03  0.00000000000E+00 0. -1.
          1    1    5    5  503    0  0.67525183927E+03  0.66074177144E+02  0.39114442266E+03  0.78315056196E+03  0.00000000000E+00 0. -1.
         -2    1    5    5    0  503  0.70576416601E+02 -0.69670615688E+01  0.16811797393E+02  0.72884889097E+02  0.00000000000E+00 0.  1.
         -1    1    6    6    0  502 -0.26553239140E+02 -0.70228906438E+02  0.51591944768E+02  0.91098312681E+02  0.00000000000E+00 0.  1.
<mgrwt>
<rscale>  0 0.19184752E+04</rscale>
<asrwt>0</asrwt>
<pdfrwt beam="1">  1        1 0.31079082E+00 0.19184752E+04</pdfrwt>
<pdfrwt beam="2">  1       -1 0.70074092E-01 0.19184752E+04</pdfrwt>
<totfact> 0.55534207E+00</totfact>
</mgrwt>
</event>
<event>
12    1  0.1489233E-007  0.1328919E+04  0.7818608E-02  0.9006941E-01
         -2   -1    0    0    0  501 -0.00000000000E+00  0.00000000000E+00  0.51148282789E+03  0.51148282789E+03  0.00000000000E+00 0.  1.
          2   -1    0    0  501    0  0.00000000000E+00 -0.00000000000E+00 -0.86318933938E+03  0.86318933938E+03  0.00000000000E+00 0. -1.
         23    2    1    2    0    0 -0.12036070274E+03  0.18373942155E+03 -0.37714596553E+03  0.44769014970E+03  0.99702141540E+02 0.  0.
        254    2    1    2    0    0  0.12036070274E+03 -0.18373942155E+03  0.25439454034E+02  0.92698201758E+03  0.90022309529E+03 0.  0.
        -24    2    4    4    0    0  0.11393434729E+03 -0.52284398096E+03 -0.11411618321E+03  0.55188864216E+03  0.72192147417E+02 0.  0.
         24    2    4    4    0    0  0.64263554468E+01  0.33910455941E+03  0.13955563725E+03  0.37509337542E+03  0.78651536150E+02 0.  0.
         11    1    3    3    0    0 -0.12653535166E+03  0.15175723308E+03 -0.36052908056E+03  0.41112366867E+03  0.00000000000E+00 0. -1.
        -11    1    3    3    0    0  0.61746489224E+01  0.31982188468E+02 -0.16616884964E+02  0.36566481023E+02  0.00000000000E+00 0.  1.
          2    1    6    6  502    0 -0.50751468853E+01  0.15970014398E+02 -0.92672477770E+01  0.19148899633E+02  0.00000000000E+00 0. -1.
          1    1    5    5  503    0  0.10247423043E+02 -0.20898515931E+03 -0.37245816833E+02  0.21252542756E+03  0.00000000000E+00 0. -1.
         -2    1    5    5    0  503  0.10368692425E+03 -0.31385882166E+03 -0.76870366378E+02  0.33936321459E+03  0.00000000000E+00 0.  1.
         -1    1    6    6    0  502  0.11501502332E+02  0.32313454501E+03  0.14882288502E+03  0.35594447579E+03  0.00000000000E+00 0.  1.
<mgrwt>
<rscale>  0 0.13289191E+04</rscale>
<asrwt>0</asrwt>
<pdfrwt beam="1">  1        2 0.13279836E+00 0.13289191E+04</pdfrwt>
<pdfrwt beam="2">  1       -2 0.78689666E-01 0.13289191E+04</pdfrwt>
<totfact> 0.43623952E+01</totfact>
</mgrwt>
</event>
<event>
12    1  0.1489233E-007  0.1464948E+04  0.7818608E-02  0.8908102E-01
          1   -1    0    0  501    0  0.00000000000E+00  0.00000000000E+00  0.17104854633E+04  0.17104854633E+04  0.00000000000E+00 0. -1.
         -1   -1    0    0    0  501 -0.00000000000E+00 -0.00000000000E+00 -0.31366430649E+03  0.31366430649E+03  0.00000000000E+00 0.  1.
         23    2    1    2    0    0  0.87323034477E+02  0.21913972419E+03  0.97921285772E+03  0.10114489946E+04  0.92323977420E+02 0.  0.
        254    2    1    2    0    0 -0.87323034477E+02 -0.21913972419E+03  0.41760829913E+03  0.10127007753E+04  0.89191851514E+03 0.  0.
        -24    2    4    4    0    0 -0.31710900027E+03 -0.93761031609E+02  0.59591114447E+03  0.68626356116E+03  0.80612245758E+02 0.  0.
         24    2    4    4    0    0  0.22978596579E+03 -0.12537869258E+03 -0.17830284534E+03  0.32643721411E+03  0.79043933835E+02 0.  0.
         13    1    3    3    0    0 -0.56768330029E+01  0.10367291578E+03  0.35513167867E+03  0.36999839066E+03  0.00000000000E+00 0.  1.
        -13    1    3    3    0    0  0.92999867480E+02  0.11546680841E+03  0.62408117905E+03  0.64145060389E+03  0.00000000000E+00 0. -1.
          2    1    6    6  502    0  0.65041301983E+02 -0.71698219383E+02 -0.40014532852E+02  0.10474811915E+03  0.00000000000E+00 0. -1.
          1    1    5    5  503    0 -0.31229885451E+03 -0.77177678790E+02  0.54943330954E+03  0.63668196948E+03  0.00000000000E+00 0. -1.
         -2    1    5    5    0  503 -0.48101457564E+01 -0.16583352819E+02  0.46477834935E+02  0.49581591676E+02  0.00000000000E+00 0.  1.
         -1    1    6    6    0  502  0.16474466381E+03 -0.53680473199E+02 -0.13828831249E+03  0.22168909496E+03  0.00000000000E+00 0.  1.
<mgrwt>
<rscale>  0 0.14649481E+04</rscale>
<asrwt>0</asrwt>
<pdfrwt beam="1">  1        1 0.26315160E+00 0.14649481E+04</pdfrwt>
<pdfrwt beam="2">  1       -1 0.48256048E-01 0.14649481E+04</pdfrwt>
<totfact> 0.19530551E+01</totfact>
</mgrwt>
</event>
<event>
12    1  0.1837597E-007  0.1647326E+04  0.7818608E-02  0.8791990E-01
         -1   -1    0    0    0  501 -0.00000000000E+00  0.00000000000E+00  0.69798041915E+03  0.69798041915E+03  0.00000000000E+00 0.  1.
          1   -1    0    0  501    0  0.00000000000E+00 -0.00000000000E+00 -0.97197622942E+03  0.97197622942E+03  0.00000000000E+00 0. -1.
         23    2    1    2    0    0 -0.18200123685E+03 -0.31059936634E+03  0.35555055422E+03  0.51529136754E+03  0.97532457479E+02 0.  0.
        254    2    1    2    0    0  0.18200123685E+03  0.31059936634E+03 -0.62954636449E+03  0.11546652810E+04  0.89851370029E+03 0.  0.
        -24    2    4    4    0    0 -0.46860019545E+02  0.58588655237E+03 -0.31467555851E+03  0.67139920358E+03  0.79355338644E+02 0.  0.
         24    2    4    4    0    0  0.22886125639E+03 -0.27528718602E+03 -0.31487080599E+03  0.48326607746E+03  0.79006124424E+02 0.  0.
         11    1    3    3    0    0 -0.16626067979E+03 -0.31538090532E+03  0.34007161653E+03  0.49270319002E+03  0.00000000000E+00 0.  1.
        -11    1    3    3    0    0 -0.15740557054E+02  0.47815389785E+01  0.15478937694E+02  0.22588177516E+02  0.00000000000E+00 0. -1.
          4    1    6    6  502    0  0.32773990968E+02 -0.26698995792E+02 -0.74822190546E+02  0.85937948884E+02  0.00000000000E+00 0. -1.
          3    1    5    5  503    0 -0.25631351833E+02  0.52315257925E+02 -0.41977207281E+02  0.71804862925E+02  0.00000000000E+00 0. -1.
         -4    1    5    5    0  503 -0.21228667712E+02  0.53357129444E+03 -0.27269835122E+03  0.59959434065E+03  0.00000000000E+00 0.  1.
         -3    1    6    6    0  502  0.19608726542E+03 -0.24858819023E+03 -0.24004861544E+03  0.39732812858E+03  0.00000000000E+00 0.  1.
<mgrwt>
<rscale>  0 0.16473256E+04</rscale>
<asrwt>0</asrwt>
<pdfrwt beam="1">  1        1 0.14953481E+00 0.16473256E+04</pdfrwt>
<pdfrwt beam="2">  1       -1 0.10738160E+00 0.16473256E+04</pdfrwt>
<totfact> 0.12294645E+01</totfact>
</mgrwt>
</event>
<event>
12    1  0.1489233E-007  0.1788051E+04  0.7818608E-02  0.8712680E-01
         -1   -1    0    0    0  501 -0.00000000000E+00  0.00000000000E+00  0.61300673264E+03  0.61300673264E+03  0.00000000000E+00 0.  1.
          1   -1    0    0  501    0  0.00000000000E+00 -0.00000000000E+00 -0.13038708941E+04  0.13038708941E+04  0.00000000000E+00 0. -1.
         23    2    1    2    0    0  0.24880374506E+03  0.60538708856E+03 -0.16128822974E+03  0.68008579969E+03  0.90033167993E+02 0.  0.
        254    2    1    2    0    0 -0.24880374506E+03 -0.60538708856E+03 -0.52957593173E+03  0.12367918271E+04  0.90598373356E+03 0.  0.
        -24    2    4    4    0    0 -0.52454491092E+02  0.95271671215E+02  0.17605980251E+03  0.22003877549E+03  0.74778631222E+02 0.  0.
         24    2    4    4    0    0 -0.19634925397E+03 -0.70065875977E+03 -0.70563573424E+03  0.10167530516E+04  0.79932792298E+02 0.  0.
         13    1    3    3    0    0  0.49493948357E+02  0.52089967008E+02 -0.77335714619E+01  0.72269106224E+02  0.00000000000E+00 0. -1.
        -13    1    3    3    0    0  0.19930979671E+03  0.55329712155E+03 -0.15355465828E+03  0.60781669347E+03  0.00000000000E+00 0.  1.
          2    1    6    6  502    0 -0.16604307361E+02 -0.16248542838E+02 -0.13267659061E+02  0.26753484712E+02  0.00000000000E+00 0. -1.
          1    1    5    5  503    0  0.11926518930E+02  0.17564286136E+02  0.72080230934E+02  0.75141903707E+02  0.00000000000E+00 0. -1.
         -2    1    5    5    0  503 -0.64381010021E+02  0.77707385080E+02  0.10397957157E+03  0.14489687178E+03  0.00000000000E+00 0.  1.
         -1    1    6    6    0  502 -0.17974494661E+03 -0.68441021693E+03 -0.69236807518E+03  0.98999956687E+03  0.00000000000E+00 0.  1.
<mgrwt>
<rscale>  0 0.17880510E+04</rscale>
<asrwt>0</asrwt>
<pdfrwt beam="1">  1        1 0.20059552E+00 0.17880510E+04</pdfrwt>
<pdfrwt beam="2">  1       -1 0.94308729E-01 0.17880510E+04</pdfrwt>
<totfact> 0.92414917E+00</totfact>
</mgrwt>
</event>
<event>
12    1  0.1489233E-007  0.1406231E+04  0.7818608E-02  0.8949321E-01
         -1   -1    0    0    0  501 -0.00000000000E+00  0.00000000000E+00  0.79638403022E+03  0.79638403022E+03  0.00000000000E+00 0.  1.
          1   -1    0    0  501    0  0.00000000000E+00 -0.00000000000E+00 -0.62076967641E+03  0.62076967641E+03  0.00000000000E+00 0. -1.
         23    2    1    2    0    0 -0.43007313015E+03  0.66110425139E+00  0.78949059015E+02  0.44684423626E+03  0.92051524838E+02 0.  0.
        254    2    1    2    0    0  0.43007313015E+03 -0.66110425139E+00  0.96665294787E+02  0.97030947037E+03  0.86440323618E+03 0.  0.
        -24    2    4    4    0    0  0.43033605611E+03 -0.22966014226E+02 -0.32160129999E+03  0.54362410082E+03  0.79894980070E+02 0.  0.
         24    2    4    4    0    0 -0.26292595689E+00  0.22304909975E+02  0.41826659478E+03  0.42668536954E+03  0.81338073073E+02 0.  0.
         13    1    3    3    0    0 -0.15012031999E+03 -0.35010761630E+02  0.54786985986E+02  0.16359546979E+03  0.00000000000E+00 0.  1.
        -13    1    3    3    0    0 -0.27995281016E+03  0.35671865882E+02  0.24162073029E+02  0.28324876647E+03  0.00000000000E+00 0. -1.
          2    1    6    6  502    0  0.29481641229E+02  0.37903882412E+02  0.19066481520E+03  0.19661877638E+03  0.00000000000E+00 0. -1.
          3    1    5    5  503    0  0.28543788267E+03 -0.52435932241E+02 -0.20498748078E+03  0.35530856889E+03  0.00000000000E+00 0. -1.
         -4    1    5    5    0  503  0.14489817344E+03  0.29469918015E+02 -0.11661381922E+03  0.18831553193E+03  0.00000000000E+00 0.  1.
         -1    1    6    6    0  502 -0.29744567186E+02 -0.15598972437E+02  0.22760177959E+03  0.23006659316E+03  0.00000000000E+00 0.  1.
<mgrwt>
<rscale>  0 0.14062305E+04</rscale>
<asrwt>0</asrwt>
<pdfrwt beam="1">  1        1 0.95503027E-01 0.14062305E+04</pdfrwt>
<pdfrwt beam="2">  1       -1 0.12252062E+00 0.14062305E+04</pdfrwt>
<totfact> 0.18689499E+01</totfact>
</mgrwt>
</event>
<event>
12    1  0.1489233E-007  0.1772753E+04  0.7818608E-02  0.8720925E-01
          2   -1    0    0  501    0  0.00000000000E+00  0.00000000000E+00  0.98447061962E+03  0.98447061962E+03  0.00000000000E+00 0. -1.
         -2   -1    0    0    0  501 -0.00000000000E+00 -0.00000000000E+00 -0.79805661047E+03  0.79805661047E+03  0.00000000000E+00 0.  1.
         23    2    1    2    0    0  0.99801067402E+01  0.55634655765E+03  0.40690474550E+03  0.69553796433E+03  0.92630951513E+02 0.  0.
        254    2    1    2    0    0 -0.99801067402E+01 -0.55634655765E+03 -0.22049073635E+03  0.10869892658E+04  0.90736343563E+03 0.  0.
        -24    2    4    4    0    0  0.17901766519E+03 -0.74978028594E+03 -0.10369350571E+03  0.78174961414E+03  0.78500410565E+02 0.  0.
         24    2    4    4    0    0 -0.18899777193E+03  0.19343372829E+03 -0.11679723064E+03  0.30523965162E+03  0.79955530161E+02 0.  0.
         11    1    3    3    0    0  0.37676743143E+02  0.49620291264E+03  0.36562456809E+03  0.61750966978E+03  0.00000000000E+00 0. -1.
        -11    1    3    3    0    0 -0.27696636403E+02  0.60143645007E+02  0.41280177414E+02  0.78028294548E+02  0.00000000000E+00 0.  1.
          4    1    6    6  502    0 -0.13979349329E+03  0.12098031852E+03 -0.11483442104E+03  0.21763594026E+03  0.00000000000E+00 0. -1.
          1    1    5    5  503    0  0.65953760355E+02 -0.39450991272E+03 -0.25405639595E+02  0.40079098825E+03  0.00000000000E+00 0. -1.
         -2    1    5    5    0  503  0.11306390483E+03 -0.35527037322E+03 -0.78287866120E+02  0.38095862589E+03  0.00000000000E+00 0.  1.
         -3    1    6    6    0  502 -0.49204278635E+02  0.72453409765E+02 -0.19628095969E+01  0.87603711360E+02  0.00000000000E+00 0.  1.
<mgrwt>
<rscale>  0 0.17727530E+04</rscale>
<asrwt>0</asrwt>
<pdfrwt beam="1">  1        2 0.15145702E+00 0.17727530E+04</pdfrwt>
<pdfrwt beam="2">  1       -2 0.12277794E+00 0.17727530E+04</pdfrwt>
<totfact> 0.12231861E+01</totfact>
</mgrwt>
</event>
<event>
12    1  0.1489233E-007  0.1533388E+04  0.7818608E-02  0.8862549E-01
         -2   -1    0    0    0  501 -0.00000000000E+00  0.00000000000E+00  0.46292927324E+03  0.46292927324E+03  0.00000000000E+00 0.  1.
          2   -1    0    0  501    0  0.00000000000E+00 -0.00000000000E+00 -0.12697828325E+04  0.12697828325E+04  0.00000000000E+00 0. -1.
         23    2    1    2    0    0 -0.33642620217E+02  0.47961103397E+03 -0.11606067651E+03  0.50318344269E+03  0.92546888455E+02 0.  0.
        254    2    1    2    0    0  0.33642620217E+02 -0.47961103397E+03 -0.69079288270E+03  0.12295286630E+04  0.89631878066E+03 0.  0.
        -24    2    4    4    0    0 -0.32717079806E+03 -0.54599620363E+03 -0.43065455879E+03  0.77256917683E+03  0.79039221240E+02 0.  0.
         24    2    4    4    0    0  0.36081341828E+03  0.66385169663E+02 -0.26013832391E+03  0.45695948618E+03  0.80911747471E+02 0.  0.
         11    1    3    3    0    0  0.11594701653E+02  0.36986051667E+03 -0.74934365382E+02  0.37755317244E+03  0.00000000000E+00 0.  1.
        -11    1    3    3    0    0 -0.45237321870E+02  0.10975051729E+03 -0.41126311130E+02  0.12563027025E+03  0.00000000000E+00 0. -1.
          2    1    6    6  502    0  0.45719295021E+02  0.24539455744E+02 -0.10866880858E+02  0.53014412427E+02  0.00000000000E+00 0. -1.
          1    1    5    5  503    0 -0.10348993426E+03 -0.10853599077E+03 -0.10674083668E+03  0.18407562033E+03  0.00000000000E+00 0. -1.
         -2    1    5    5    0  503 -0.22368086381E+03 -0.43746021286E+03 -0.32391372211E+03  0.58849355650E+03  0.00000000000E+00 0.  1.
         -1    1    6    6    0  502  0.31509412326E+03  0.41845713919E+02 -0.24927144306E+03  0.40394507375E+03  0.00000000000E+00 0.  1.
<mgrwt>
<rscale>  0 0.15333879E+04</rscale>
<asrwt>0</asrwt>
<pdfrwt beam="1">  1        2 0.19535120E+00 0.15333879E+04</pdfrwt>
<pdfrwt beam="2">  1       -2 0.71219889E-01 0.15333879E+04</pdfrwt>
<totfact> 0.29705334E+01</totfact>
</mgrwt>
</event>
<event>
12    1  0.1489233E-007  0.1468165E+04  0.7818608E-02  0.8905903E-01
         -1   -1    0    0    0  501 -0.00000000000E+00  0.00000000000E+00  0.43824897471E+03  0.43824897471E+03  0.00000000000E+00 0.  1.
          1   -1    0    0  501    0  0.00000000000E+00 -0.00000000000E+00 -0.12296136655E+04  0.12296136655E+04  0.00000000000E+00 0. -1.
         23    2    1    2    0    0  0.14738286013E+03  0.58440973993E+01  0.23917647549E+03  0.29348358562E+03  0.84683928043E+02 0.  0.
        254    2    1    2    0    0 -0.14738286013E+03 -0.58440973993E+01 -0.10305411663E+04  0.13743790546E+04  0.89729974332E+03 0.  0.
        -24    2    4    4    0    0 -0.52022208889E+03  0.17290340879E+02 -0.60982514050E+03  0.80572818230E+03  0.79882564546E+02 0.  0.
         24    2    4    4    0    0  0.37283922876E+03 -0.23134438278E+02 -0.42071602580E+03  0.56865087230E+03  0.82568441113E+02 0.  0.
         13    1    3    3    0    0  0.83120914393E+02 -0.29450636828E+02  0.17535626406E+03  0.19628103771E+03  0.00000000000E+00 0.  1.
        -13    1    3    3    0    0  0.64261945733E+02  0.35294734227E+02  0.63820211422E+02  0.97202547907E+02  0.00000000000E+00 0. -1.
          4    1    6    6  502    0  0.29391832222E+03 -0.83214896754E+01 -0.37402272063E+03  0.47576278004E+03  0.00000000000E+00 0. -1.
          1    1    5    5  503    0 -0.43839292626E+03  0.31692797081E+02 -0.47335612610E+03  0.64595573633E+03  0.00000000000E+00 0. -1.
         -2    1    5    5    0  503 -0.81829162625E+02 -0.14402456202E+02 -0.13646901440E+03  0.15977244597E+03  0.00000000000E+00 0.  1.
         -3    1    6    6    0  502  0.78920906543E+02 -0.14812948603E+02 -0.46693305165E+02  0.92888092257E+02  0.00000000000E+00 0.  1.
<mgrwt>
<rscale>  0 0.14681647E+04</rscale>
<asrwt>0</asrwt>
<pdfrwt beam="1">  1        1 0.18917133E+00 0.14681647E+04</pdfrwt>
<pdfrwt beam="2">  1       -1 0.67422919E-01 0.14681647E+04</pdfrwt>
<totfact> 0.21968781E+01</totfact>
</mgrwt>
</event>
<event>
12    1  0.1489233E-007  0.1343729E+04  0.7818608E-02  0.8995588E-01
         -2   -1    0    0    0  501 -0.00000000000E+00  0.00000000000E+00  0.26443934626E+03  0.26443934626E+03  0.00000000000E+00 0. -1.
          2   -1    0    0  501    0  0.00000000000E+00 -0.00000000000E+00 -0.17070160515E+04  0.17070160515E+04  0.00000000000E+00 0.  1.
         23    2    1    2    0    0  0.18563123663E+03 -0.12002865645E+03  0.12414708048E+02  0.24058700219E+03  0.94138973137E+02 0.  0.
        254    2    1    2    0    0 -0.18563123663E+03  0.12002865645E+03 -0.14549914133E+04  0.17308683956E+04  0.91106506665E+03 0.  0.
        -24    2    4    4    0    0 -0.19573548834E+03 -0.35631165507E+03 -0.42514295902E+03  0.59336170476E+03  0.77853709819E+02 0.  0.
         24    2    4    4    0    0  0.10104251710E+02  0.47634031152E+03 -0.10298484543E+04  0.11375066908E+04  0.79570375190E+02 0.  0.
         11    1    3    3    0    0  0.17155458459E+03 -0.12104089398E+03  0.36078678368E+02  0.21303413938E+03  0.00000000000E+00 0. -1.
        -11    1    3    3    0    0  0.14076652040E+02  0.10122375282E+01 -0.23663970321E+02  0.27552862806E+02  0.00000000000E+00 0.  1.
          2    1    6    6  502    0 -0.16735029868E+02  0.15063240424E+03 -0.25635389739E+03  0.29780447132E+03  0.00000000000E+00 0. -1.
          1    1    5    5  503    0 -0.12555033880E+03 -0.28232147237E+03 -0.34878505548E+03  0.46596063810E+03  0.00000000000E+00 0. -1.
         -2    1    5    5    0  503 -0.70185149539E+02 -0.73990182703E+02 -0.76357903543E+02  0.12740106666E+03  0.00000000000E+00 0.  1.
         -1    1    6    6    0  502  0.26839281578E+02  0.32570790727E+03 -0.77349455691E+03  0.83970221952E+03  0.00000000000E+00 0.  1.
<mgrwt>
<rscale>  0 0.13437295E+04</rscale>
<asrwt>0</asrwt>
<pdfrwt beam="1">  1        2 0.26261785E+00 0.13437295E+04</pdfrwt>
<pdfrwt beam="2">  1       -2 0.40682978E-01 0.13437295E+04</pdfrwt>
<totfact> 0.54327557E+01</totfact>
</mgrwt>
</event>
<event>
12    1  0.1489233E-007  0.2057277E+04  0.7818608E-02  0.8580300E-01
         -1   -1    0    0    0  501 -0.00000000000E+00  0.00000000000E+00  0.21207332471E+04  0.21207332471E+04  0.00000000000E+00 0.  1.
          1   -1    0    0  501    0  0.00000000000E+00 -0.00000000000E+00 -0.49892974985E+03  0.49892974985E+03  0.00000000000E+00 0. -1.
         23    2    1    2    0    0 -0.29290081728E+03 -0.71005573605E+03  0.10539468595E+04  0.13072732671E+04  0.90495166508E+02 0.  0.
        254    2    1    2    0    0  0.29290081728E+03  0.71005573605E+03  0.56785663769E+03  0.13123897298E+04  0.89996422421E+03 0.  0.
        -24    2    4    4    0    0  0.53809610405E+03  0.72306453039E+03  0.33581147854E+03  0.96512836808E+03  0.79584454827E+02 0.  0.
         24    2    4    4    0    0 -0.24519528677E+03 -0.13008794341E+02  0.23204515916E+03  0.34726136172E+03  0.80346375604E+02 0.  0.
         11    1    3    3    0    0 -0.15119206951E+02 -0.10648402357E+03  0.17581063196E+03  0.20609904416E+03  0.00000000000E+00 0.  1.
        -11    1    3    3    0    0 -0.27778161033E+03 -0.60357171248E+03  0.87813622756E+03  0.11011742230E+04  0.00000000000E+00 0. -1.
          4    1    6    6  502    0 -0.21371843922E+03  0.95659038753E+01  0.21959071568E+03  0.30657325420E+03  0.00000000000E+00 0. -1.
          3    1    5    5  503    0  0.48576782662E+03  0.65465466496E+03  0.27756597625E+03  0.86115386714E+03  0.00000000000E+00 0. -1.
         -2    1    5    5    0  503  0.52328277435E+02  0.68409865437E+02  0.58245502291E+02  0.10397450094E+03  0.00000000000E+00 0.  1.
         -3    1    6    6    0  502 -0.31476847546E+02 -0.22574698216E+02  0.12454443477E+02  0.40688107517E+02  0.00000000000E+00 0.  1.
<mgrwt>
<rscale>  0 0.20572768E+04</rscale>
<asrwt>0</asrwt>
<pdfrwt beam="1">  1        1 0.76758424E-01 0.20572768E+04</pdfrwt>
<pdfrwt beam="2">  1       -1 0.32626665E+00 0.20572768E+04</pdfrwt>
<totfact> 0.91482539E-01</totfact>
</mgrwt>
</event>
<event>
12    1  0.1489233E-007  0.2149088E+04  0.7818608E-02  0.8539923E-01
         -1   -1    0    0    0  501 -0.00000000000E+00  0.00000000000E+00  0.90469316865E+03  0.90469316865E+03  0.00000000000E+00 0.  1.
          1   -1    0    0  501    0  0.00000000000E+00 -0.00000000000E+00 -0.12762827831E+04  0.12762827831E+04  0.00000000000E+00 0. -1.
         23    2    1    2    0    0  0.87379030278E+02 -0.47844865726E+03 -0.90395460647E+03  0.10306771957E+04  0.92808074032E+02 0.  0.
        254    2    1    2    0    0 -0.87379030278E+02  0.47844865726E+03  0.53236499203E+03  0.11502987560E+04  0.89622906159E+03 0.  0.
        -24    2    4    4    0    0  0.73170934997E+02  0.51709330078E+02  0.65994658899E+03  0.67075878780E+03  0.79749674262E+02 0.  0.
         24    2    4    4    0    0 -0.16054996528E+03  0.42673932718E+03 -0.12758159696E+03  0.47953996824E+03  0.76149671975E+02 0.  0.
         11    1    3    3    0    0 -0.18291656938E+02 -0.67348923567E+02 -0.15029665643E+03  0.16570922471E+03  0.00000000000E+00 0.  1.
        -11    1    3    3    0    0  0.10567068722E+03 -0.41109973369E+03 -0.75365795004E+03  0.86496797099E+03  0.00000000000E+00 0. -1.
          4    1    6    6  502    0 -0.42765754922E+02  0.64582747485E+02  0.13723113296E+01  0.77470796466E+02  0.00000000000E+00 0. -1.
          1    1    5    5  503    0 -0.79983531888E+01  0.12432085055E+02  0.22217073624E+02  0.26685740629E+02  0.00000000000E+00 0. -1.
         -2    1    5    5    0  503  0.81169288186E+02  0.39277245023E+02  0.63772951537E+03  0.64407304717E+03  0.00000000000E+00 0.  1.
         -3    1    6    6    0  502 -0.11778421035E+03  0.36215657970E+03 -0.12895390829E+03  0.40206917177E+03  0.00000000000E+00 0.  1.
<mgrwt>
<rscale>  0 0.21490875E+04</rscale>
<asrwt>0</asrwt>
<pdfrwt beam="1">  1        1 0.19635120E+00 0.21490875E+04</pdfrwt>
<pdfrwt beam="2">  1       -1 0.13918356E+00 0.21490875E+04</pdfrwt>
<totfact> 0.36669068E+00</totfact>
</mgrwt>
</event>
<event>
12    1  0.1489233E-007  0.1822576E+04  0.7818608E-02  0.8694385E-01
         -2   -1    0    0    0  501 -0.00000000000E+00  0.00000000000E+00  0.52230221515E+03  0.52230221515E+03  0.00000000000E+00 0.  1.
          2   -1    0    0  501    0  0.00000000000E+00 -0.00000000000E+00 -0.15899725948E+04  0.15899725948E+04  0.00000000000E+00 0. -1.
         23    2    1    2    0    0  0.64055028584E+03 -0.65179163224E+02 -0.14441605619E+03  0.66791692748E+03  0.10346029535E+03 0.  0.
        254    2    1    2    0    0 -0.64055028584E+03  0.65179163224E+02 -0.92325432347E+03  0.14443578825E+04  0.90510670910E+03 0.  0.
        -24    2    4    4    0    0 -0.66654932580E+03  0.15312284217E+03 -0.10586563096E+04  0.12629372232E+04  0.80762859438E+02 0.  0.
         24    2    4    4    0    0  0.25999039953E+02 -0.87943678949E+02  0.13540198609E+03  0.18142065928E+03  0.78547546304E+02 0.  0.
         11    1    3    3    0    0  0.12761819757E+02 -0.14638093930E+02 -0.15946688845E+02  0.25128364900E+02  0.00000000000E+00 0. -1.
        -11    1    3    3    0    0  0.62778846609E+03 -0.50541069294E+02 -0.12846936734E+03  0.64278856258E+03  0.00000000000E+00 0.  1.
          4    1    6    6  502    0  0.35994217519E+01  0.14863387147E+02  0.13606465822E+02  0.20469783257E+02  0.00000000000E+00 0. -1.
          3    1    5    5  503    0 -0.14339159520E+03  0.12318139867E+02 -0.17703451841E+03  0.22815369130E+03  0.00000000000E+00 0. -1.
         -4    1    5    5    0  503 -0.52315773060E+03  0.14080470231E+03 -0.88162179115E+03  0.10347835319E+04  0.00000000000E+00 0.  1.
         -3    1    6    6    0  502  0.22399618201E+02 -0.10280706610E+03  0.12179552027E+03  0.16095087602E+03  0.00000000000E+00 0.  1.
<mgrwt>
<rscale>  0 0.18225764E+04</rscale>
<asrwt>0</asrwt>
<pdfrwt beam="1">  1        2 0.24461117E+00 0.18225764E+04</pdfrwt>
<pdfrwt beam="2">  1       -2 0.80354186E-01 0.18225764E+04</pdfrwt>
<totfact> 0.14569704E+01</totfact>
</mgrwt>
</event>
<event>
12    1  0.1489233E-007  0.1981880E+04  0.7818608E-02  0.8615140E-01
          2   -1    0    0  501    0  0.00000000000E+00  0.00000000000E+00  0.66438905291E+03  0.66438905291E+03  0.00000000000E+00 0. -1.
         -2   -1    0    0    0  501 -0.00000000000E+00 -0.00000000000E+00 -0.14779918421E+04  0.14779918421E+04  0.00000000000E+00 0.  1.
         23    2    1    2    0    0 -0.43140438362E+03  0.56761926519E+03  0.15180331812E+02  0.72019237162E+03  0.10072356847E+03 0.  0.
        254    2    1    2    0    0  0.43140438362E+03 -0.56761926519E+03 -0.82878312098E+03  0.14221885234E+04  0.90963584029E+03 0.  0.
        -24    2    4    4    0    0 -0.70992697729E+02 -0.23551573889E+03 -0.76986366459E+03  0.81150862551E+03  0.73133855506E+02 0.  0.
         24    2    4    4    0    0  0.50239708135E+03 -0.33210352630E+03 -0.58919456393E+02  0.61067989785E+03  0.82236584148E+02 0.  0.
         13    1    3    3    0    0 -0.12583626733E+03  0.12980134059E+03  0.42046974166E+02  0.18561008117E+03  0.00000000000E+00 0.  1.
        -13    1    3    3    0    0 -0.30556811628E+03  0.43781792460E+03 -0.26866642353E+02  0.53458229045E+03  0.00000000000E+00 0. -1.
          4    1    6    6  502    0  0.44250890211E+03 -0.26865715136E+03 -0.29166584041E+02  0.51849926042E+03  0.00000000000E+00 0. -1.
          3    1    5    5  503    0 -0.70621053838E+02 -0.21395442604E+03 -0.61156907291E+03  0.65175191646E+03  0.00000000000E+00 0. -1.
         -4    1    5    5    0  503 -0.37164389118E+00 -0.21561312851E+02 -0.15829459168E+03  0.15975670905E+03  0.00000000000E+00 0.  1.
         -3    1    6    6    0  502  0.59888179231E+02 -0.63446374944E+02 -0.29752872351E+02  0.92180637438E+02  0.00000000000E+00 0.  1.
<mgrwt>
<rscale>  0 0.19818795E+04</rscale>
<asrwt>0</asrwt>
<pdfrwt beam="1">  1        2 0.10221370E+00 0.19818795E+04</pdfrwt>
<pdfrwt beam="2">  1       -2 0.22738336E+00 0.19818795E+04</pdfrwt>
<totfact> 0.36128513E+00</totfact>
</mgrwt>
</event>
<event>
12    1  0.1585627E-007  0.1832761E+04  0.7818608E-02  0.8689069E-01
         -2   -1    0    0    0  501 -0.00000000000E+00  0.00000000000E+00  0.32435978288E+03  0.32435978288E+03  0.00000000000E+00 0.  1.
          2   -1    0    0  501    0  0.00000000000E+00 -0.00000000000E+00 -0.25889551221E+04  0.25889551221E+04  0.00000000000E+00 0. -1.
         23    2    1    2    0    0  0.14124977059E+03 -0.43651359729E+03 -0.14318792720E+04  0.15063953667E+04  0.91940920160E+02 0.  0.
        254    2    1    2    0    0 -0.14124977059E+03  0.43651359729E+03 -0.83271606722E+03  0.14069195383E+04  0.10370684261E+04 0.  0.
        -24    2    4    4    0    0  0.40491215960E+03  0.22632075405E+03 -0.62213598990E+03  0.78004171390E+03  0.78974329921E+02 0.  0.
         24    2    4    4    0    0 -0.54616193019E+03  0.21019284324E+03 -0.21058007732E+03  0.62687782442E+03  0.78472622240E+02 0.  0.
         11    1    3    3    0    0 -0.18863491604E+01 -0.11320976772E+02 -0.93709666231E+01  0.14816809497E+02  0.00000000000E+00 0.  1.
        -11    1    3    3    0    0  0.14313611975E+03 -0.42519262052E+03 -0.14225083054E+04  0.14915785572E+04  0.00000000000E+00 0. -1.
          4    1    6    6  502    0 -0.54394282929E+03  0.20093802302E+03 -0.21167588650E+03  0.61729779812E+03  0.00000000000E+00 0. -1.
          1    1    5    5  503    0  0.29599821686E+03  0.20242083061E+03 -0.48869978361E+03  0.60614900441E+03  0.00000000000E+00 0. -1.
         -2    1    5    5    0  503  0.10891394274E+03  0.23899923444E+02 -0.13343620629E+03  0.17389270949E+03  0.00000000000E+00 0.  1.
         -3    1    6    6    0  502 -0.22191008968E+01  0.92548202226E+01  0.10958091783E+01  0.95800262994E+01  0.00000000000E+00 0.  1.
<mgrwt>
<rscale>  0 0.18327607E+04</rscale>
<asrwt>0</asrwt>
<pdfrwt beam="1">  1        2 0.39830077E+00 0.18327607E+04</pdfrwt>
<pdfrwt beam="2">  1       -2 0.49901507E-01 0.18327607E+04</pdfrwt>
<totfact> 0.11066716E+01</totfact>
</mgrwt>
</event>
<event>
12    1  0.1489233E-007  0.1675777E+04  0.7818608E-02  0.8775301E-01
          2   -1    0    0  501    0  0.00000000000E+00  0.00000000000E+00  0.25002010741E+04  0.25002010741E+04  0.00000000000E+00 0. -1.
         -2   -1    0    0    0  501 -0.00000000000E+00 -0.00000000000E+00 -0.28080026298E+03  0.28080026298E+03  0.00000000000E+00 0.  1.
         23    2    1    2    0    0 -0.33296006052E+03 -0.29408372751E+03  0.14384438139E+03  0.47540120615E+03  0.89260629943E+02 0.  0.
        254    2    1    2    0    0  0.33296006052E+03  0.29408372751E+03  0.20755564297E+04  0.23056001309E+04  0.90028319440E+03 0.  0.
        -24    2    4    4    0    0  0.17041561020E+03 -0.28849221265E+03  0.11228590466E+04  0.11743095981E+04  0.76950351282E+02 0.  0.
         24    2    4    4    0    0  0.16254445032E+03  0.58257594017E+03  0.95269738304E+03  0.11312905328E+04  0.79815672626E+02 0.  0.
         11    1    3    3    0    0 -0.87575561413E+02 -0.10389678520E+03  0.68341144208E+01  0.13605412912E+03  0.00000000000E+00 0.  1.
        -11    1    3    3    0    0 -0.24538449911E+03 -0.19018694232E+03  0.13701026697E+03  0.33934707702E+03  0.00000000000E+00 0. -1.
          4    1    6    6  502    0  0.16453044138E+03  0.57809340571E+03  0.95262046651E+03  0.11263871471E+04  0.00000000000E+00 0. -1.
          3    1    5    5  503    0  0.16722754850E+03 -0.24799118584E+03  0.91927567828E+03  0.96671218773E+03  0.00000000000E+00 0. -1.
         -4    1    5    5    0  503  0.31880616932E+01 -0.40501026806E+02  0.20358336837E+03  0.20759741035E+03  0.00000000000E+00 0.  1.
         -3    1    6    6    0  502 -0.19859910577E+01  0.44825344524E+01  0.76916527019E-01  0.49033857436E+01  0.00000000000E+00 0.  1.
<mgrwt>
<rscale>  0 0.16757770E+04</rscale>
<asrwt>0</asrwt>
<pdfrwt beam="1">  1        2 0.38464630E+00 0.16757770E+04</pdfrwt>
<pdfrwt beam="2">  1       -2 0.43200042E-01 0.16757770E+04</pdfrwt>
<totfact> 0.16886194E+01</totfact>
</mgrwt>
</event>
<event>
12    1  0.1489233E-007  0.2267556E+04  0.7818608E-02  0.8490824E-01
         -2   -1    0    0    0  501 -0.00000000000E+00  0.00000000000E+00  0.65867029802E+03  0.65867029802E+03  0.00000000000E+00 0.  1.
          2   -1    0    0  501    0  0.00000000000E+00 -0.00000000000E+00 -0.19515875181E+04  0.19515875181E+04  0.00000000000E+00 0. -1.
         23    2    1    2    0    0  0.91441435230E+03  0.26487351865E+03 -0.60990212524E+03  0.11344021573E+04  0.92607037980E+02 0.  0.
        254    2    1    2    0    0 -0.91441435230E+03 -0.26487351865E+03 -0.68301509484E+03  0.14758556589E+04  0.89740109060E+03 0.  0.
        -24    2    4    4    0    0 -0.10655597554E+04 -0.10974626599E+03 -0.60061010553E+03  0.12307008831E+04  0.80189335863E+02 0.  0.
         24    2    4    4    0    0  0.15114540308E+03 -0.15512725266E+03 -0.82404989307E+02  0.24515477576E+03  0.80005527464E+02 0.  0.
         11    1    3    3    0    0  0.34391298740E+03  0.84578978519E+02 -0.17718360710E+03  0.39600981950E+03  0.00000000000E+00 0. -1.
        -11    1    3    3    0    0  0.57050136489E+03  0.18029454014E+03 -0.43271851814E+03  0.73839233778E+03  0.00000000000E+00 0.  1.
          2    1    6    6  502    0  0.15716301326E+03 -0.15090781296E+03 -0.88923330222E+02  0.23533112715E+03  0.00000000000E+00 0. -1.
          1    1    5    5  503    0 -0.49288689138E+03 -0.63626795497E+02 -0.23527107015E+03  0.54985301058E+03  0.00000000000E+00 0. -1.
         -2    1    5    5    0  503 -0.57267286400E+03 -0.46119470496E+02 -0.36533903539E+03  0.68084787251E+03  0.00000000000E+00 0.  1.
         -1    1    6    6    0  502 -0.60176101804E+01 -0.42194397047E+01  0.65183409151E+01  0.98236486089E+01  0.00000000000E+00 0.  1.
<mgrwt>
<rscale>  0 0.22675562E+04</rscale>
<asrwt>0</asrwt>
<pdfrwt beam="1">  1        2 0.30024424E+00 0.22675562E+04</pdfrwt>
<pdfrwt beam="2">  1       -2 0.10133389E+00 0.22675562E+04</pdfrwt>
<totfact> 0.51715300E+00</totfact>
</mgrwt>
</event>
<event>
12    1  0.1489233E-007  0.1708492E+04  0.7818608E-02  0.8756536E-01
          2   -1    0    0  501    0  0.00000000000E+00  0.00000000000E+00  0.13950804405E+04  0.13950804405E+04  0.00000000000E+00 0. -1.
         -2   -1    0    0    0  501 -0.00000000000E+00 -0.00000000000E+00 -0.52307834024E+03  0.52307834024E+03  0.00000000000E+00 0.  1.
         23    2    1    2    0    0  0.90368343816E+01 -0.20714008171E+03  0.97912224343E+03  0.10048018176E+04  0.89205645453E+02 0.  0.
        254    2    1    2    0    0 -0.90368343816E+01  0.20714008171E+03 -0.10712014322E+03  0.91335696313E+03  0.88303880956E+03 0.  0.
        -24    2    4    4    0    0  0.41967015919E+03  0.42838987930E+02 -0.12548194253E+03  0.44752906828E+03  0.81106890316E+02 0.  0.
         24    2    4    4    0    0 -0.42870699357E+03  0.16430109378E+03  0.18361799314E+02  0.46582789485E+03  0.76641608739E+02 0.  0.
         11    1    3    3    0    0  0.43866117533E+02 -0.15644101281E+03  0.65137380491E+03  0.67133140883E+03  0.00000000000E+00 0.  1.
        -11    1    3    3    0    0 -0.34829283151E+02 -0.50699068899E+02  0.32774843853E+03  0.33347040874E+03  0.00000000000E+00 0. -1.
          2    1    6    6  502    0 -0.18664162199E+02  0.16423098161E+02  0.16667630635E+02  0.29931238110E+02  0.00000000000E+00 0. -1.
          3    1    5    5  503    0  0.28355162481E+03  0.68992933015E+01 -0.11595970240E+03  0.30642417783E+03  0.00000000000E+00 0. -1.
         -4    1    5    5    0  503  0.13611853438E+03  0.35939694628E+02 -0.95222401288E+01  0.14110489045E+03  0.00000000000E+00 0.  1.
         -1    1    6    6    0  502 -0.41004283137E+03  0.14787799562E+03  0.16941686793E+01  0.43589665674E+03  0.00000000000E+00 0.  1.
<mgrwt>
<rscale>  0 0.17084922E+04</rscale>
<asrwt>0</asrwt>
<pdfrwt beam="1">  1        2 0.21462776E+00 0.17084922E+04</pdfrwt>
<pdfrwt beam="2">  1       -2 0.80473591E-01 0.17084922E+04</pdfrwt>
<totfact> 0.18892687E+01</totfact>
</mgrwt>
</event>
<event>
12    1  0.1489233E-007  0.1744726E+04  0.7818608E-02  0.8736259E-01
         -1   -1    0    0    0  501 -0.00000000000E+00  0.00000000000E+00  0.61936175375E+03  0.61936175375E+03  0.00000000000E+00 0.  1.
          1   -1    0    0  501    0  0.00000000000E+00 -0.00000000000E+00 -0.12287119923E+04  0.12287119923E+04  0.00000000000E+00 0. -1.
         23    2    1    2    0    0 -0.39008257618E+03  0.30900724812E+03  0.19555586956E+03  0.54217719969E+03  0.89800457221E+02 0.  0.
        254    2    1    2    0    0  0.39008257618E+03 -0.30900724812E+03 -0.80490610812E+03  0.13058965464E+04  0.89991224644E+03 0.  0.
        -24    2    4    4    0    0  0.12103016239E+03  0.23771719627E+03 -0.59421946552E+03  0.65626213833E+03  0.80158938324E+02 0.  0.
         24    2    4    4    0    0  0.26905241379E+03 -0.54672444439E+03 -0.21068664260E+03  0.64963440804E+03  0.79618988176E+02 0.  0.
         11    1    3    3    0    0 -0.25947771281E+01  0.19601003609E+02 -0.17377870695E+01  0.19848226992E+02  0.00000000000E+00 0. -1.
        -11    1    3    3    0    0 -0.38748779905E+03  0.28940624451E+03  0.19729365663E+03  0.52232897270E+03  0.00000000000E+00 0.  1.
          2    1    6    6  502    0  0.30184897886E+02 -0.48686672680E+02 -0.45348802929E+02  0.73061851086E+02  0.00000000000E+00 0. -1.
          1    1    5    5  503    0  0.29121601726E+02  0.38762225182E+02 -0.50354544864E+02  0.69901058480E+02  0.00000000000E+00 0. -1.
         -2    1    5    5    0  503  0.91908560661E+02  0.19895497109E+03 -0.54386492065E+03  0.58636107985E+03  0.00000000000E+00 0.  1.
         -1    1    6    6    0  502  0.23886751590E+03 -0.49803777171E+03 -0.16533783967E+03  0.57657255695E+03  0.00000000000E+00 0.  1.
<mgrwt>
<rscale>  0 0.17447260E+04</rscale>
<asrwt>0</asrwt>
<pdfrwt beam="1">  1        1 0.18903262E+00 0.17447260E+04</pdfrwt>
<pdfrwt beam="2">  1       -1 0.95286423E-01 0.17447260E+04</pdfrwt>
<totfact> 0.10267594E+01</totfact>
</mgrwt>
</event>
<event>
12    1  0.1489233E-007  0.1701295E+04  0.7818608E-02  0.8760626E-01
          2   -1    0    0  501    0  0.00000000000E+00  0.00000000000E+00  0.22858922048E+04  0.22858922048E+04  0.00000000000E+00 0. -1.
         -2   -1    0    0    0  501 -0.00000000000E+00 -0.00000000000E+00 -0.31655098390E+03  0.31655098390E+03  0.00000000000E+00 0.  1.
         23    2    1    2    0    0 -0.55734396445E+02 -0.60653196456E+03  0.63253600814E+03  0.88237834426E+03  0.86616360180E+02 0.  0.
        254    2    1    2    0    0  0.55734396445E+02  0.60653196456E+03  0.13368052127E+04  0.17200648444E+04  0.89475557847E+03 0.  0.
        -24    2    4    4    0    0  0.35340825137E+02 -0.98143909830E+01 -0.11257409493E+03  0.14297435362E+03  0.80146383270E+02 0.  0.
         24    2    4    4    0    0  0.20393571308E+02  0.61634635554E+03  0.14493793077E+04  0.15770904908E+04  0.78837243165E+02 0.  0.
         13    1    3    3    0    0 -0.21192653399E+02 -0.36862354752E+02  0.27477992356E+02  0.50626098209E+02  0.00000000000E+00 0. -1.
        -13    1    3    3    0    0 -0.34541743046E+02 -0.56966960980E+03  0.60505801578E+03  0.83175224605E+03  0.00000000000E+00 0.  1.
          2    1    6    6  502    0  0.17181421799E+02  0.51175959485E+02  0.17177071632E+03  0.18005376717E+03  0.00000000000E+00 0. -1.
          3    1    5    5  503    0  0.26847497469E+02 -0.12282649160E+02  0.52650754293E+00  0.29528440544E+02  0.00000000000E+00 0. -1.
         -4    1    5    5    0  503  0.84933276676E+01  0.24682581768E+01 -0.11310060247E+03  0.11344591308E+03  0.00000000000E+00 0.  1.
         -1    1    6    6    0  502  0.32121495085E+01  0.56517039605E+03  0.12776085913E+04  0.13970367236E+04  0.00000000000E+00 0.  1.
<mgrwt>
<rscale>  0 0.17012953E+04</rscale>
<asrwt>0</asrwt>
<pdfrwt beam="1">  1        2 0.35167571E+00 0.17012953E+04</pdfrwt>
<pdfrwt beam="2">  1       -2 0.48700153E-01 0.17012953E+04</pdfrwt>
<totfact> 0.17557599E+01</totfact>
</mgrwt>
</event>
<event>
12    1  0.1489233E-007  0.1666674E+04  0.7818608E-02  0.8780603E-01
          1   -1    0    0  501    0  0.00000000000E+00  0.00000000000E+00  0.10602640336E+04  0.10602640336E+04  0.00000000000E+00 0.  1.
         -1   -1    0    0    0  501 -0.00000000000E+00 -0.00000000000E+00 -0.65497860812E+03  0.65497860812E+03  0.00000000000E+00 0. -1.
         23    2    1    2    0    0  0.53442241759E+03  0.64630552845E+02  0.36919246983E+03  0.66337060668E+03  0.11820766999E+03 0.  0.
        254    2    1    2    0    0 -0.53442241759E+03 -0.64630552845E+02  0.36092955652E+02  0.10518720350E+04  0.90296602808E+03 0.  0.
        -24    2    4    4    0    0 -0.30203303854E+03 -0.18108392108E+02  0.46233335153E+03  0.55857527738E+03  0.81867834484E+02 0.  0.
         24    2    4    4    0    0 -0.23238937905E+03 -0.46522160736E+02 -0.42624039588E+03  0.49329675767E+03  0.74105877672E+02 0.  0.
         11    1    3    3    0    0  0.14552173123E+03  0.66697822943E+02  0.13492508246E+03  0.20935604057E+03  0.00000000000E+00 0. -1.
        -11    1    3    3    0    0  0.38890068636E+03 -0.20672700983E+01  0.23426738736E+03  0.45401456611E+03  0.00000000000E+00 0.  1.
          4    1    6    6  502    0 -0.46137388028E+02  0.20024069389E+02 -0.95332367600E+02  0.10778628039E+03  0.00000000000E+00 0. -1.
          3    1    5    5  503    0 -0.10335380298E+02  0.79375505356E+01  0.57264605912E+02  0.58728697284E+02  0.00000000000E+00 0. -1.
         -4    1    5    5    0  503 -0.29169765824E+03 -0.26045942644E+02  0.40506874562E+03  0.49984658009E+03  0.00000000000E+00 0.  1.
         -3    1    6    6    0  502 -0.18625199103E+03 -0.66546230125E+02 -0.33090802828E+03  0.38551047727E+03  0.00000000000E+00 0.  1.
<mgrwt>
<rscale>  0 0.16666736E+04</rscale>
<asrwt>0</asrwt>
<pdfrwt beam="1">  1        1 0.16311754E+00 0.16666736E+04</pdfrwt>
<pdfrwt beam="2">  1       -1 0.10076594E+00 0.16666736E+04</pdfrwt>
<totfact> 0.12148824E+01</totfact>
</mgrwt>
</event>
<event>
12    1  0.1489233E-007  0.1716118E+04  0.7818608E-02  0.8752224E-01
         -1   -1    0    0    0  501 -0.00000000000E+00  0.00000000000E+00  0.54839647148E+03  0.54839647148E+03  0.00000000000E+00 0.  1.
          1   -1    0    0  501    0  0.00000000000E+00 -0.00000000000E+00 -0.13425791535E+04  0.13425791535E+04  0.00000000000E+00 0. -1.
         23    2    1    2    0    0  0.54390482847E+03  0.42247041057E+01  0.21280862440E+02  0.55160540579E+03  0.89248742509E+02 0.  0.
        254    2    1    2    0    0 -0.54390482847E+03 -0.42247041057E+01 -0.81546354444E+03  0.13393702192E+04  0.91273297362E+03 0.  0.
        -24    2    4    4    0    0  0.18385216022E+03 -0.20253606832E+03 -0.11823325396E+03  0.30907876042E+03  0.82025008457E+02 0.  0.
         24    2    4    4    0    0 -0.72775698869E+03  0.19831136421E+03 -0.69723029048E+03  0.10302914587E+04  0.80079836637E+02 0.  0.
         11    1    3    3    0    0  0.51519609264E+03  0.22620186269E+02  0.10339039536E+02  0.51579606672E+03  0.00000000000E+00 0.  1.
        -11    1    3    3    0    0  0.28708735825E+02 -0.18395482164E+02  0.10941822905E+02  0.35809339077E+02  0.00000000000E+00 0. -1.
          4    1    6    6  502    0 -0.45002503435E+03  0.12027340009E+03 -0.48244950372E+03  0.67063085669E+03  0.00000000000E+00 0. -1.
          1    1    5    5  503    0  0.18935940520E+03 -0.18915233484E+03 -0.12197289550E+03  0.29413088472E+03  0.00000000000E+00 0. -1.
         -2    1    5    5    0  503 -0.55072449709E+01 -0.13383733485E+02  0.37396415401E+01  0.14947875702E+02  0.00000000000E+00 0.  1.
         -3    1    6    6    0  502 -0.27773195434E+03  0.78037964127E+02 -0.21478078676E+03  0.35966060205E+03  0.00000000000E+00 0.  1.
<mgrwt>
<rscale>  0 0.17161185E+04</rscale>
<asrwt>0</asrwt>
<pdfrwt beam="1">  1        1 0.20655063E+00 0.17161185E+04</pdfrwt>
<pdfrwt beam="2">  1       -1 0.84368690E-01 0.17161185E+04</pdfrwt>
<totfact> 0.11153949E+01</totfact>
</mgrwt>
</event>
<event>
12    1  0.1489233E-007  0.1124291E+04  0.7818608E-02  0.9181834E-01
         -2   -1    0    0    0  501 -0.00000000000E+00  0.00000000000E+00  0.79241279594E+03  0.79241279594E+03  0.00000000000E+00 0.  1.
          2   -1    0    0  501    0  0.00000000000E+00 -0.00000000000E+00 -0.39879189670E+03  0.39879189670E+03  0.00000000000E+00 0. -1.
         23    2    1    2    0    0 -0.54656289251E+02  0.41777575988E+01 -0.10917853415E+03  0.15195586102E+03  0.90365191111E+02 0.  0.
        254    2    1    2    0    0  0.54656289251E+02 -0.41777575988E+01  0.50279943339E+03  0.10392488316E+04  0.90786898845E+03 0.  0.
        -24    2    4    4    0    0  0.97968430606E+02 -0.54565100071E+02 -0.24656432955E+03  0.28261969899E+03  0.80652105436E+02 0.  0.
         24    2    4    4    0    0 -0.43312141355E+02  0.50387342472E+02  0.74936376294E+03  0.75662913263E+03  0.80788422892E+02 0.  0.
         13    1    3    3    0    0 -0.78267033314E+02  0.18686571611E+01 -0.64774180133E+02  0.10161158790E+03  0.00000000000E+00 0.  1.
        -13    1    3    3    0    0  0.23610744063E+02  0.23091004378E+01 -0.44404354016E+02  0.50344273117E+02  0.00000000000E+00 0. -1.
          4    1    6    6  502    0 -0.33156745821E+02  0.62469426439E+02  0.71841907146E+03  0.72189179333E+03  0.00000000000E+00 0. -1.
          1    1    5    5  503    0  0.84739979893E+02 -0.74483509790E+02 -0.21717827247E+03  0.24473467155E+03  0.00000000000E+00 0. -1.
         -2    1    5    5    0  503  0.13228450713E+02  0.19918409719E+02 -0.29386057072E+02  0.37885027442E+02  0.00000000000E+00 0.  1.
         -3    1    6    6    0  502 -0.10155395534E+02 -0.12082083967E+02  0.30944691473E+02  0.34737339302E+02  0.00000000000E+00 0.  1.
<mgrwt>
<rscale>  0 0.11242914E+04</rscale>
<asrwt>0</asrwt>
<pdfrwt beam="1">  1        2 0.61352600E-01 0.11242914E+04</pdfrwt>
<pdfrwt beam="2">  1       -2 0.12190966E+00 0.11242914E+04</pdfrwt>
<totfact> 0.40367153E+01</totfact>
</mgrwt>
</event>
<event>
12    1  0.1489233E-007  0.1459015E+04  0.7818608E-02  0.8912174E-01
         -2   -1    0    0    0  501 -0.00000000000E+00  0.00000000000E+00  0.30770704318E+03  0.30770704318E+03  0.00000000000E+00 0.  1.
          2   -1    0    0  501    0  0.00000000000E+00 -0.00000000000E+00 -0.17295066228E+04  0.17295066228E+04  0.00000000000E+00 0. -1.
         23    2    1    2    0    0  0.11402829630E+03  0.95085870099E+02 -0.97719081803E+03  0.99270166571E+03  0.92254686622E+02 0.  0.
        254    2    1    2    0    0 -0.11402829630E+03 -0.95085870099E+02 -0.44460876160E+03  0.10445120003E+04  0.93342626533E+03 0.  0.
        -24    2    4    4    0    0  0.25045484733E+03 -0.38841251456E+03 -0.25026012305E+03  0.53172228642E+03  0.80663180337E+02 0.  0.
         24    2    4    4    0    0 -0.36448314363E+03  0.29332664447E+03 -0.19434863855E+03  0.51278971388E+03  0.79331046926E+02 0.  0.
         11    1    3    3    0    0  0.58767951619E+02  0.49986524168E+02 -0.76420369108E+03  0.76808828021E+03  0.00000000000E+00 0.  1.
        -11    1    3    3    0    0  0.55260344679E+02  0.45099345931E+02 -0.21298712695E+03  0.22461338550E+03  0.00000000000E+00 0. -1.
          2    1    6    6  502    0 -0.36568692837E+03  0.28498061356E+03 -0.19730335106E+03  0.50385463382E+03  0.00000000000E+00 0. -1.
          3    1    5    5  503    0  0.11618795560E+03 -0.23767451314E+03 -0.11338418003E+03  0.28782770455E+03  0.00000000000E+00 0. -1.
         -4    1    5    5    0  503  0.13426689173E+03 -0.15073800142E+03 -0.13687594302E+03  0.24389458187E+03  0.00000000000E+00 0.  1.
         -1    1    6    6    0  502  0.12037847383E+01  0.83460309103E+01  0.29547125053E+01  0.89350800578E+01  0.00000000000E+00 0.  1.
<mgrwt>
<rscale>  0 0.14590152E+04</rscale>
<asrwt>0</asrwt>
<pdfrwt beam="1">  1        2 0.26607795E+00 0.14590152E+04</pdfrwt>
<pdfrwt beam="2">  1       -2 0.47339544E-01 0.14590152E+04</pdfrwt>
<totfact> 0.38699286E+01</totfact>
</mgrwt>
</event>
<event>
12    1  0.1489233E-007  0.1446850E+04  0.7818608E-02  0.8920587E-01
          2   -1    0    0  501    0  0.00000000000E+00  0.00000000000E+00  0.83894537891E+03  0.83894537891E+03  0.00000000000E+00 0.  1.
         -2   -1    0    0    0  501 -0.00000000000E+00 -0.00000000000E+00 -0.62381180182E+03  0.62381180182E+03  0.00000000000E+00 0. -1.
         23    2    1    2    0    0  0.25152357168E+03 -0.34860924541E+03 -0.59222341590E+02  0.44323784026E+03  0.90332630853E+02 0.  0.
        254    2    1    2    0    0 -0.25152357168E+03  0.34860924541E+03  0.27435591868E+03  0.10195193405E+04  0.88281141950E+03 0.  0.
        -24    2    4    4    0    0 -0.15000542046E+03 -0.76605530699E+02 -0.26260367820E+03  0.32220078351E+03  0.80514716630E+02 0.  0.
         24    2    4    4    0    0 -0.10151815122E+03  0.42521477611E+03  0.53695959688E+03  0.69731855696E+03  0.82547079640E+02 0.  0.
         11    1    3    3    0    0  0.12526860899E+03 -0.22880739455E+03 -0.65940934098E+02  0.26905994683E+03  0.00000000000E+00 0.  1.
        -11    1    3    3    0    0  0.12625496269E+03 -0.11980185086E+03  0.67185925080E+01  0.17417789343E+03  0.00000000000E+00 0. -1.
          2    1    6    6  502    0 -0.11181914344E+03  0.32109676977E+03  0.42045001149E+03  0.54072624179E+03  0.00000000000E+00 0. -1.
          3    1    5    5  503    0 -0.12957944446E+03 -0.30960025671E+02 -0.21636264605E+03  0.25409083065E+03  0.00000000000E+00 0. -1.
         -4    1    5    5    0  503 -0.20425975998E+02 -0.45645505028E+02 -0.46241032148E+02  0.68109952861E+02  0.00000000000E+00 0.  1.
         -1    1    6    6    0  502  0.10300992217E+02  0.10411800634E+03  0.11650958539E+03  0.15659231517E+03  0.00000000000E+00 0.  1.
<mgrwt>
<rscale>  0 0.14468504E+04</rscale>
<asrwt>0</asrwt>
<pdfrwt beam="1">  1        2 0.12906852E+00 0.14468504E+04</pdfrwt>
<pdfrwt beam="2">  1       -2 0.95971045E-01 0.14468504E+04</pdfrwt>
<totfact> 0.28530226E+01</totfact>
</mgrwt>
</event>
<event>
12    1  0.1489233E-007  0.1669841E+04  0.7818608E-02  0.8778755E-01
          1   -1    0    0  501    0  0.00000000000E+00  0.00000000000E+00  0.90898537727E+03  0.90898537727E+03  0.00000000000E+00 0. -1.
         -1   -1    0    0    0  501 -0.00000000000E+00 -0.00000000000E+00 -0.76689021214E+03  0.76689021214E+03  0.00000000000E+00 0.  1.
         23    2    1    2    0    0 -0.25784449561E+03  0.38947323338E+03 -0.30757099767E+03  0.56635117231E+03  0.89333914777E+02 0.  0.
        254    2    1    2    0    0  0.25784449561E+03 -0.38947323338E+03  0.44966616280E+03  0.11095244171E+04  0.90037302866E+03 0.  0.
        -24    2    4    4    0    0 -0.18175852849E+03  0.19178933064E+03  0.17502777439E+03  0.32704296141E+03  0.80641594548E+02 0.  0.
         24    2    4    4    0    0  0.43960302410E+03 -0.58126256402E+03  0.27463838841E+03  0.78248145570E+03  0.75723160192E+02 0.  0.
         11    1    3    3    0    0 -0.81097422777E+02  0.11045499806E+03 -0.44421428343E+02  0.14404985899E+03  0.00000000000E+00 0. -1.
        -11    1    3    3    0    0 -0.17674707284E+03  0.27901823532E+03 -0.26314956933E+03  0.42230131332E+03  0.00000000000E+00 0.  1.
          2    1    6    6  502    0  0.28306803723E+03 -0.33741949844E+03  0.13381325487E+03  0.46031013329E+03  0.00000000000E+00 0. -1.
          3    1    5    5  503    0 -0.16949311931E+03  0.19405445786E+03  0.14765654532E+03  0.29696381174E+03  0.00000000000E+00 0. -1.
         -4    1    5    5    0  503 -0.12265409179E+02 -0.22651272177E+01  0.27371229075E+02  0.30079149668E+02  0.00000000000E+00 0.  1.
         -1    1    6    6    0  502  0.15653498687E+03 -0.24384306558E+03  0.14082513353E+03  0.32217132241E+03  0.00000000000E+00 0.  1.
<mgrwt>
<rscale>  0 0.16698407E+04</rscale>
<asrwt>0</asrwt>
<pdfrwt beam="1">  1        1 0.13984391E+00 0.16698407E+04</pdfrwt>
<pdfrwt beam="2">  1       -1 0.11798311E+00 0.16698407E+04</pdfrwt>
<totfact> 0.11015792E+01</totfact>
</mgrwt>
</event>
<event>
12    1  0.1489233E-007  0.2763397E+04  0.7818608E-02  0.8314723E-01
          2   -1    0    0  501    0  0.00000000000E+00  0.00000000000E+00  0.10149039639E+04  0.10149039639E+04  0.00000000000E+00 0. -1.
         -2   -1    0    0    0  501 -0.00000000000E+00 -0.00000000000E+00 -0.18810557420E+04  0.18810557420E+04  0.00000000000E+00 0.  1.
         23    2    1    2    0    0 -0.31605409709E+03 -0.68429391540E+02  0.85970470089E+03  0.92282302295E+03  0.89092003267E+02 0.  0.
        254    2    1    2    0    0  0.31605409709E+03  0.68429391540E+02 -0.17258564790E+04  0.19731366829E+04  0.90006389190E+03 0.  0.
        -24    2    4    4    0    0  0.31743270131E+03  0.42390211936E+03 -0.68026279822E+03  0.86587528768E+03  0.80783739206E+02 0.  0.
         24    2    4    4    0    0 -0.13786042238E+01 -0.35547272782E+03 -0.10455936808E+04  0.11072613953E+04  0.79993070561E+02 0.  0.
         11    1    3    3    0    0 -0.24688186208E+03 -0.46711014741E+02  0.75302557280E+03  0.79383882874E+03  0.00000000000E+00 0. -1.
        -11    1    3    3    0    0 -0.69172235010E+02 -0.21718376798E+02  0.10667912809E+03  0.12898419421E+03  0.00000000000E+00 0.  1.
          4    1    6    6  502    0 -0.33822069049E+02 -0.22972991615E+03 -0.60914178559E+03  0.65189990158E+03  0.00000000000E+00 0. -1.
          1    1    5    5  503    0  0.22578787900E+03  0.23695882264E+03 -0.42733079174E+03  0.53827618886E+03  0.00000000000E+00 0. -1.
         -2    1    5    5    0  503  0.91644822313E+02  0.18694329672E+03 -0.25293200648E+03  0.32759909882E+03  0.00000000000E+00 0.  1.
         -3    1    6    6    0  502  0.32443464825E+02 -0.12574281167E+03 -0.43645189521E+03  0.45536149368E+03  0.00000000000E+00 0.  1.
<mgrwt>
<rscale>  0 0.27633971E+04</rscale>
<asrwt>0</asrwt>
<pdfrwt beam="1">  1        2 0.15613907E+00 0.27633971E+04</pdfrwt>
<pdfrwt beam="2">  1       -2 0.28939319E+00 0.27633971E+04</pdfrwt>
<totfact> 0.79359581E-01</totfact>
</mgrwt>
</event>
<event>
12    1  0.1489233E-007  0.1707427E+04  0.7818608E-02  0.8757140E-01
         -1   -1    0    0    0  501 -0.00000000000E+00  0.00000000000E+00  0.50409940269E+03  0.50409940269E+03  0.00000000000E+00 0.  1.
          1   -1    0    0  501    0  0.00000000000E+00 -0.00000000000E+00 -0.14457999521E+04  0.14457999521E+04  0.00000000000E+00 0. -1.
         23    2    1    2    0    0  0.55916574804E+03  0.24647723303E+03 -0.42287562771E+03  0.74875348165E+03  0.91600325237E+02 0.  0.
        254    2    1    2    0    0 -0.55916574804E+03 -0.24647723303E+03 -0.51882492168E+03  0.12011458731E+04  0.89451369411E+03 0.  0.
        -24    2    4    4    0    0 -0.67453011892E+03 -0.34453147289E+03 -0.63738320639E+03  0.99293841145E+03  0.77307955544E+02 0.  0.
         24    2    4    4    0    0  0.11536437088E+03  0.98054239866E+02  0.11855828472E+03  0.20820746166E+03  0.79816716242E+02 0.  0.
         13    1    3    3    0    0  0.13969791636E+03  0.19888043470E+02 -0.92840549264E+02  0.16890947189E+03  0.00000000000E+00 0.  1.
        -13    1    3    3    0    0  0.41946783169E+03  0.22658918956E+03 -0.33003507844E+03  0.57984400975E+03  0.00000000000E+00 0. -1.
          4    1    6    6  502    0  0.26830915932E+02  0.32839778060E+02  0.82023287240E+02  0.92337255333E+02  0.00000000000E+00 0. -1.
          3    1    5    5  503    0 -0.53698798906E+03 -0.30736604244E+03 -0.52576161000E+03  0.81194535222E+03  0.00000000000E+00 0. -1.
         -4    1    5    5    0  503 -0.13754212986E+03 -0.37165430451E+02 -0.11162159639E+03  0.18099305923E+03  0.00000000000E+00 0.  1.
         -3    1    6    6    0  502  0.88533454948E+02  0.65214461806E+02  0.36534997477E+02  0.11587020633E+03  0.00000000000E+00 0.  1.
<mgrwt>
<rscale>  0 0.17074272E+04</rscale>
<asrwt>0</asrwt>
<pdfrwt beam="1">  1        1 0.22243076E+00 0.17074272E+04</pdfrwt>
<pdfrwt beam="2">  1       -1 0.77553756E-01 0.17074272E+04</pdfrwt>
<totfact> 0.11306837E+01</totfact>
</mgrwt>
</event>
<event>
12    1  0.1489233E-007  0.1318706E+04  0.7818608E-02  0.9014861E-01
         -1   -1    0    0    0  501 -0.00000000000E+00  0.00000000000E+00  0.85652732360E+03  0.85652732360E+03  0.00000000000E+00 0.  1.
          1   -1    0    0  501    0  0.00000000000E+00 -0.00000000000E+00 -0.50756895146E+03  0.50756895146E+03  0.00000000000E+00 0. -1.
         23    2    1    2    0    0  0.82144173794E+02  0.12704172372E+03  0.41583816252E+03  0.45144702035E+03  0.89419069096E+02 0.  0.
        254    2    1    2    0    0 -0.82144173794E+02 -0.12704172372E+03 -0.66879790379E+02  0.91264925472E+03  0.89753467394E+03 0.  0.
        -24    2    4    4    0    0 -0.35847077853E+03 -0.36341449565E+03 -0.13742709886E+03  0.53436152974E+03  0.78004116920E+02 0.  0.
         24    2    4    4    0    0  0.27632660474E+03  0.23637277193E+03  0.70547308481E+02  0.37828772498E+03  0.76786719806E+02 0.  0.
         11    1    3    3    0    0 -0.52180353348E+01 -0.36077380709E+01 -0.56664678619E+00  0.63690466574E+01  0.00000000000E+00 0. -1.
        -11    1    3    3    0    0  0.87362209129E+02  0.13064946179E+03  0.41640480931E+03  0.44507797369E+03  0.00000000000E+00 0.  1.
          2    1    6    6  502    0  0.20005785937E+03  0.20110475246E+03  0.30800308549E+02  0.28533301169E+03  0.00000000000E+00 0. -1.
          3    1    5    5  503    0 -0.24092857271E+03 -0.20012793940E+03 -0.60692721688E+02  0.31903193530E+03  0.00000000000E+00 0. -1.
         -4    1    5    5    0  503 -0.11754220582E+03 -0.16328655625E+03 -0.76734377171E+02  0.21532959444E+03  0.00000000000E+00 0.  1.
         -1    1    6    6    0  502  0.76268745370E+02  0.35268019471E+02  0.39746999931E+02  0.92954713281E+02  0.00000000000E+00 0.  1.
<mgrwt>
<rscale>  0 0.13187065E+04</rscale>
<asrwt>0</asrwt>
<pdfrwt beam="1">  1        1 0.78087531E-01 0.13187065E+04</pdfrwt>
<pdfrwt beam="2">  1       -1 0.13177343E+00 0.13187065E+04</pdfrwt>
<totfact> 0.20875512E+01</totfact>
</mgrwt>
</event>
<event>
12    1  0.1489233E-007  0.2013091E+04  0.7818608E-02  0.8600525E-01
         -1   -1    0    0    0  501 -0.00000000000E+00  0.00000000000E+00  0.15559304753E+04  0.15559304753E+04  0.00000000000E+00 0.  1.
          1   -1    0    0  501    0  0.00000000000E+00 -0.00000000000E+00 -0.65114327803E+03  0.65114327803E+03  0.00000000000E+00 0. -1.
         23    2    1    2    0    0  0.71107018844E+02  0.72190453889E+03  0.72855753626E+03  0.10321486302E+04  0.91281650592E+02 0.  0.
        254    2    1    2    0    0 -0.71107018844E+02 -0.72190453889E+03  0.17622966101E+03  0.11749251232E+04  0.90729806581E+03 0.  0.
        -24    2    4    4    0    0 -0.20969643343E+03  0.14650577826E+03 -0.22788421396E+02  0.26968372167E+03  0.82301034786E+02 0.  0.
         24    2    4    4    0    0  0.13858941458E+03 -0.86841031716E+03  0.19901808241E+03  0.90524140149E+03  0.80686387163E+02 0.  0.
         11    1    3    3    0    0  0.63166934198E+02  0.71779114946E+03  0.72591756903E+03  0.10228247713E+04  0.00000000000E+00 0.  1.
        -11    1    3    3    0    0  0.79400846458E+01  0.41133894313E+01  0.26399672252E+01  0.93238588442E+01  0.00000000000E+00 0. -1.
          4    1    6    6  502    0 -0.80927900559E+01 -0.12372909312E+03  0.32926316999E+02  0.12829077943E+03  0.00000000000E+00 0. -1.
          3    1    5    5  503    0 -0.12677966701E+03  0.40292436013E+02 -0.22618928202E+02  0.13493769036E+03  0.00000000000E+00 0. -1.
         -4    1    5    5    0  503 -0.82916766416E+02  0.10621334225E+03 -0.16949319341E+00  0.13474603131E+03  0.00000000000E+00 0.  1.
         -3    1    6    6    0  502  0.14668220464E+03 -0.74468122404E+03  0.16609176541E+03  0.77695062207E+03  0.00000000000E+00 0.  1.
<mgrwt>
<rscale>  0 0.20130908E+04</rscale>
<asrwt>0</asrwt>
<pdfrwt beam="1">  1        1 0.10017589E+00 0.20130908E+04</pdfrwt>
<pdfrwt beam="2">  1       -1 0.23937392E+00 0.20130908E+04</pdfrwt>
<totfact> 0.23036019E+00</totfact>
</mgrwt>
</event>
<event>
12    1  0.1489233E-007  0.1193003E+04  0.7818608E-02  0.9119003E-01
          3   -1    0    0  501    0  0.00000000000E+00  0.00000000000E+00  0.28164658354E+03  0.28164658354E+03  0.00000000000E+00 0. -1.
         -3   -1    0    0    0  501 -0.00000000000E+00 -0.00000000000E+00 -0.12633351432E+04  0.12633351432E+04  0.00000000000E+00 0.  1.
         23    2    1    2    0    0  0.20923119086E+03 -0.15283380251E+03 -0.20140677489E+03  0.34098174910E+03  0.92563501620E+02 0.  0.
        254    2    1    2    0    0 -0.20923119086E+03  0.15283380251E+03 -0.78028178475E+03  0.12039999776E+04  0.87956831461E+03 0.  0.
        -24    2    4    4    0    0 -0.29196154220E+03  0.44328932071E+03 -0.25887027478E+03  0.59624547628E+03  0.82145510197E+02 0.  0.
         24    2    4    4    0    0  0.82730351347E+02 -0.29045551819E+03 -0.52141150997E+03  0.60775450133E+03  0.79289671957E+02 0.  0.
         13    1    3    3    0    0 -0.58046387658E+01 -0.22489422917E+01 -0.22378471017E+02  0.23228162598E+02  0.00000000000E+00 0.  1.
        -13    1    3    3    0    0  0.21503582962E+03 -0.15058486022E+03 -0.17902830387E+03  0.31775358651E+03  0.00000000000E+00 0. -1.
          2    1    6    6  502    0  0.76276038778E+02 -0.17212168527E+03 -0.26274119276E+03  0.32322877812E+03  0.00000000000E+00 0. -1.
          3    1    5    5  503    0 -0.16194720372E+03  0.17583969693E+03 -0.10041472166E+03  0.25928673729E+03  0.00000000000E+00 0. -1.
         -4    1    5    5    0  503 -0.13001433849E+03  0.26744962377E+03 -0.15845555311E+03  0.33695873899E+03  0.00000000000E+00 0.  1.
         -1    1    6    6    0  502  0.64543125697E+01 -0.11833383292E+03 -0.25867031721E+03  0.28452572321E+03  0.00000000000E+00 0.  1.
<mgrwt>
<rscale>  0 0.11930030E+04</rscale>
<asrwt>0</asrwt>
<pdfrwt beam="1">  1        3 0.43330243E-01 0.11930030E+04</pdfrwt>
<pdfrwt beam="2">  1       -3 0.19435926E+00 0.11930030E+04</pdfrwt>
<totfact> 0.21843474E+00</totfact>
</mgrwt>
</event>
<event>
12    1  0.1489233E-007  0.1372649E+04  0.7818608E-02  0.8973858E-01
          1   -1    0    0  501    0  0.00000000000E+00  0.00000000000E+00  0.18431413066E+04  0.18431413066E+04  0.00000000000E+00 0. -1.
         -1   -1    0    0    0  501 -0.00000000000E+00 -0.00000000000E+00 -0.25556436652E+03  0.25556436652E+03  0.00000000000E+00 0.  1.
         23    2    1    2    0    0  0.97647560354E+02  0.36894399106E+03  0.47204439267E+03  0.61389513111E+03  0.91578429576E+02 0.  0.
        254    2    1    2    0    0 -0.97647560354E+02 -0.36894399106E+03  0.11155325474E+04  0.14848105420E+04  0.90254903842E+03 0.  0.
        -24    2    4    4    0    0  0.14185151672E+03  0.24984415634E+03  0.23700123093E+03  0.38110288172E+03  0.80782843109E+02 0.  0.
         24    2    4    4    0    0 -0.23949907708E+03 -0.61878814740E+03  0.87853131651E+03  0.11037076603E+04  0.78068854573E+02 0.  0.
         11    1    3    3    0    0  0.70905794921E+02  0.25819297332E+03  0.39175349217E+03  0.47451242540E+03  0.00000000000E+00 0.  1.
        -11    1    3    3    0    0  0.26741765433E+02  0.11075101774E+03  0.80290900496E+02  0.13938270571E+03  0.00000000000E+00 0. -1.
          4    1    6    6  502    0 -0.96680146489E+02 -0.19839290731E+03  0.34566805271E+03  0.41011364164E+03  0.00000000000E+00 0. -1.
          1    1    5    5  503    0  0.46825003021E+02  0.22846326036E+02  0.47576026450E+02  0.70555041025E+02  0.00000000000E+00 0. -1.
         -2    1    5    5    0  503  0.95026513700E+02  0.22699783031E+03  0.18942520448E+03  0.31054784070E+03  0.00000000000E+00 0.  1.
         -3    1    6    6    0  502 -0.14281893059E+03 -0.42039524009E+03  0.53286326380E+03  0.69359401867E+03  0.00000000000E+00 0.  1.
<mgrwt>
<rscale>  0 0.13726489E+04</rscale>
<asrwt>0</asrwt>
<pdfrwt beam="1">  1        1 0.28356019E+00 0.13726489E+04</pdfrwt>
<pdfrwt beam="2">  1       -1 0.39317596E-01 0.13726489E+04</pdfrwt>
<totfact> 0.23400716E+01</totfact>
</mgrwt>
</event>
<event>
12    1  0.1489233E-007  0.1673349E+04  0.7818608E-02  0.8776712E-01
          1   -1    0    0  501    0  0.00000000000E+00  0.00000000000E+00  0.61956437953E+03  0.61956437953E+03  0.00000000000E+00 0. -1.
         -1   -1    0    0    0  501 -0.00000000000E+00 -0.00000000000E+00 -0.11298654839E+04  0.11298654839E+04  0.00000000000E+00 0.  1.
         23    2    1    2    0    0  0.58758599873E+02 -0.52311423595E+03 -0.46996546960E+03  0.71144684309E+03  0.90487518556E+02 0.  0.
        254    2    1    2    0    0 -0.58758599873E+02  0.52311423595E+03 -0.40335634796E+02  0.10379830204E+04  0.89368938129E+03 0.  0.
        -24    2    4    4    0    0 -0.22622543920E+03  0.66272730795E+03 -0.22697007521E+03  0.74040181407E+03  0.79334716190E+02 0.  0.
         24    2    4    4    0    0  0.16746683933E+03 -0.13961307200E+03  0.18663444042E+03  0.29758120630E+03  0.78646092348E+02 0.  0.
         11    1    3    3    0    0  0.15882903125E+02 -0.33446078803E+02 -0.63985093447E+02  0.73925631431E+02  0.00000000000E+00 0. -1.
        -11    1    3    3    0    0  0.42875696747E+02 -0.48966815714E+03 -0.40598037616E+03  0.63752121166E+03  0.00000000000E+00 0.  1.
          4    1    6    6  502    0  0.61029346066E+02 -0.60639745410E+02  0.12417112983E+03  0.15106365972E+03  0.00000000000E+00 0. -1.
          1    1    5    5  503    0 -0.20767772130E+03  0.64579569826E+03 -0.21013779709E+03  0.71016900354E+03  0.00000000000E+00 0. -1.
         -2    1    5    5    0  503 -0.18547717902E+02  0.16931609689E+02 -0.16832278127E+02  0.30232810537E+02  0.00000000000E+00 0.  1.
         -3    1    6    6    0  502  0.10643749327E+03 -0.78973326595E+02  0.62463310590E+02  0.14651754658E+03  0.00000000000E+00 0.  1.
<mgrwt>
<rscale>  0 0.16733492E+04</rscale>
<asrwt>0</asrwt>
<pdfrwt beam="1">  1        1 0.95317598E-01 0.16733492E+04</pdfrwt>
<pdfrwt beam="2">  1       -1 0.17382546E+00 0.16733492E+04</pdfrwt>
<totfact> 0.71908638E+00</totfact>
</mgrwt>
</event>
<event>
12    1  0.1489233E-007  0.1017727E+04  0.7818608E-02  0.9289313E-01
          1   -1    0    0  501    0  0.00000000000E+00  0.00000000000E+00  0.16223833777E+04  0.16223833777E+04  0.00000000000E+00 0. -1.
         -1   -1    0    0    0  501 -0.00000000000E+00 -0.00000000000E+00 -0.15960587813E+03  0.15960587813E+03  0.00000000000E+00 0.  1.
         23    2    1    2    0    0 -0.73358337692E+02 -0.26270291230E+01  0.21044481578E+03  0.24157793289E+03  0.93190826691E+02 0.  0.
        254    2    1    2    0    0  0.73358337692E+02  0.26270291230E+01  0.12523326838E+04  0.15404113229E+04  0.89394717178E+03 0.  0.
        -24    2    4    4    0    0 -0.33715043918E+03  0.23825718198E+01  0.98390362566E+03  0.10433347516E+04  0.82492205660E+02 0.  0.
         24    2    4    4    0    0  0.41050877687E+03  0.24445730327E+00  0.26842905810E+03  0.49707657132E+03  0.80705903580E+02 0.  0.
         11    1    3    3    0    0 -0.35479886452E+02 -0.40815121675E+02  0.15572686159E+03  0.16485008924E+03  0.00000000000E+00 0. -1.
        -11    1    3    3    0    0 -0.37878451240E+02  0.38188092552E+02  0.54717954190E+02  0.76727843654E+02  0.00000000000E+00 0.  1.
          2    1    6    6  502    0  0.40556062432E+03 -0.10196768312E+02  0.26642132134E+03  0.48534906464E+03  0.00000000000E+00 0. -1.
          1    1    5    5  503    0 -0.26112610340E+03 -0.32187060201E+02  0.76975094925E+03  0.81347364591E+03  0.00000000000E+00 0. -1.
         -2    1    5    5    0  503 -0.76024335784E+02  0.34569632021E+02  0.21415267641E+03  0.22986110568E+03  0.00000000000E+00 0.  1.
         -1    1    6    6    0  502  0.49481525530E+01  0.10441225616E+02  0.20077367652E+01  0.11727506681E+02  0.00000000000E+00 0.  1.
<mgrwt>
<rscale>  0 0.10177267E+04</rscale>
<asrwt>0</asrwt>
<pdfrwt beam="1">  1        1 0.24959743E+00 0.10177267E+04</pdfrwt>
<pdfrwt beam="2">  1       -1 0.24554752E-01 0.10177267E+04</pdfrwt>
<totfact> 0.77983095E+01</totfact>
</mgrwt>
</event>
<event>
12    1  0.1489233E-007  0.2273609E+04  0.7818608E-02  0.8488400E-01
         -2   -1    0    0    0  501 -0.00000000000E+00  0.00000000000E+00  0.54296747037E+03  0.54296747037E+03  0.00000000000E+00 0. -1.
          2   -1    0    0  501    0  0.00000000000E+00 -0.00000000000E+00 -0.23801146136E+04  0.23801146136E+04  0.00000000000E+00 0.  1.
         23    2    1    2    0    0 -0.68683734166E+03 -0.60925308199E+03 -0.11421218194E+04  0.14683087516E+04  0.92485068188E+02 0.  0.
        254    2    1    2    0    0  0.68683734166E+03  0.60925308199E+03 -0.69502532384E+03  0.14547733324E+04  0.88902778135E+03 0.  0.
        -24    2    4    4    0    0  0.76845499496E+03  0.31171761105E+03 -0.18563778774E+03  0.85361322623E+03  0.80642441961E+02 0.  0.
         24    2    4    4    0    0 -0.81617653301E+02  0.29753547094E+03 -0.50938753610E+03  0.60116010615E+03  0.82030564363E+02 0.  0.
         13    1    3    3    0    0 -0.57560097986E+03 -0.47315125361E+03 -0.88586693990E+03  0.11575615889E+04  0.00000000000E+00 0. -1.
        -13    1    3    3    0    0 -0.11123636179E+03 -0.13610182838E+03 -0.25625487948E+03  0.31074716271E+03  0.00000000000E+00 0.  1.
          2    1    6    6  502    0 -0.88468576571E+02  0.22247128828E+03 -0.42665931742E+03  0.48924261496E+03  0.00000000000E+00 0. -1.
          1    1    5    5  503    0  0.61247932774E+03  0.21361682315E+03 -0.13569555096E+03  0.66270382267E+03  0.00000000000E+00 0. -1.
         -2    1    5    5    0  503  0.15597566722E+03  0.98100787899E+02 -0.49942236782E+02  0.19090940356E+03  0.00000000000E+00 0.  1.
         -1    1    6    6    0  502  0.68509232699E+01  0.75064182658E+02 -0.82728218682E+02  0.11191749119E+03  0.00000000000E+00 0.  1.
<mgrwt>
<rscale>  0 0.22736093E+04</rscale>
<asrwt>0</asrwt>
<pdfrwt beam="1">  1        2 0.36617148E+00 0.22736093E+04</pdfrwt>
<pdfrwt beam="2">  1       -2 0.83533457E-01 0.22736093E+04</pdfrwt>
<totfact> 0.46478559E+00</totfact>
</mgrwt>
</event>
<event>
12    1  0.1489233E-007  0.1690222E+04  0.7818608E-02  0.8766961E-01
         -1   -1    0    0    0  501 -0.00000000000E+00  0.00000000000E+00  0.77732760427E+03  0.77732760427E+03  0.00000000000E+00 0.  1.
          1   -1    0    0  501    0  0.00000000000E+00 -0.00000000000E+00 -0.91880494565E+03  0.91880494565E+03  0.00000000000E+00 0. -1.
         23    2    1    2    0    0 -0.11549468665E+03 -0.45909127899E+03  0.32288433428E+03  0.58023564905E+03  0.91188212037E+02 0.  0.
        254    2    1    2    0    0  0.11549468665E+03  0.45909127899E+03 -0.46436167566E+03  0.11158969009E+04  0.89749111553E+03 0.  0.
        -24    2    4    4    0    0 -0.28498908892E+03  0.47227037185E+01  0.70231561120E+02  0.30410617085E+03  0.79416662220E+02 0.  0.
         24    2    4    4    0    0  0.40048377557E+03  0.45436857527E+03 -0.53459323678E+03  0.81179073002E+03  0.79851135470E+02 0.  0.
         11    1    3    3    0    0 -0.89271912534E+02 -0.33606779104E+03  0.18604020608E+03  0.39436276804E+03  0.00000000000E+00 0.  1.
        -11    1    3    3    0    0 -0.26222774111E+02 -0.12302348796E+03  0.13684412820E+03  0.18587288101E+03  0.00000000000E+00 0. -1.
          2    1    6    6  502    0  0.32975250439E+03  0.35623946709E+03 -0.46512803821E+03  0.67230005503E+03  0.00000000000E+00 0. -1.
          3    1    5    5  503    0 -0.15365358792E+03  0.21380329090E+02  0.73529597273E+02  0.17167744531E+03  0.00000000000E+00 0. -1.
         -4    1    5    5    0  503 -0.13133550101E+03 -0.16657625372E+02 -0.32980361535E+01  0.13242872555E+03  0.00000000000E+00 0.  1.
         -1    1    6    6    0  502  0.70731271180E+02  0.98129108180E+02 -0.69465198573E+02  0.13949067499E+03  0.00000000000E+00 0.  1.
<mgrwt>
<rscale>  0 0.16902218E+04</rscale>
<asrwt>0</asrwt>
<pdfrwt beam="1">  1        1 0.14135461E+00 0.16902218E+04</pdfrwt>
<pdfrwt beam="2">  1       -1 0.11958886E+00 0.16902218E+04</pdfrwt>
<totfact> 0.10445587E+01</totfact>
</mgrwt>
</event>
<event>
12    1  0.1489233E-007  0.2458752E+04  0.7818608E-02  0.8417829E-01
          1   -1    0    0  501    0  0.00000000000E+00  0.00000000000E+00  0.32691962713E+04  0.32691962713E+04  0.00000000000E+00 0. -1.
         -1   -1    0    0    0  501 -0.00000000000E+00 -0.00000000000E+00 -0.46230484512E+03  0.46230484512E+03  0.00000000000E+00 0.  1.
         23    2    1    2    0    0  0.22469688007E+03 -0.10444034239E+04  0.11911527674E+04  0.16026241240E+04  0.91060242629E+02 0.  0.
        254    2    1    2    0    0 -0.22469688007E+03  0.10444034239E+04  0.16157386588E+04  0.21288769924E+04  0.88331117709E+03 0.  0.
        -24    2    4    4    0    0 -0.33307786332E+03  0.11548310994E+04  0.13276524014E+04  0.17927194259E+04  0.81279209256E+02 0.  0.
         24    2    4    4    0    0  0.10838098325E+03 -0.11042767546E+03  0.28808625732E+03  0.33615756649E+03  0.77894215563E+02 0.  0.
         13    1    3    3    0    0  0.39863457575E+02 -0.16959730400E+03  0.14692405497E+03  0.22790133546E+03  0.00000000000E+00 0. -1.
        -13    1    3    3    0    0  0.18483342249E+03 -0.87480611990E+03  0.10442287125E+04  0.13747227886E+04  0.00000000000E+00 0.  1.
          2    1    6    6  502    0  0.83359136092E+01 -0.23653677491E+02  0.11777373628E+03  0.12041443797E+03  0.00000000000E+00 0. -1.
          3    1    5    5  503    0 -0.54364421548E+02  0.23281929224E+03  0.22083689374E+03  0.32546773543E+03  0.00000000000E+00 0. -1.
         -4    1    5    5    0  503 -0.27871344177E+03  0.92201180713E+03  0.11068155077E+04  0.14672516905E+04  0.00000000000E+00 0.  1.
         -1    1    6    6    0  502  0.10004506964E+03 -0.86773997971E+02  0.17031252104E+03  0.21574312853E+03  0.00000000000E+00 0.  1.
<mgrwt>
<rscale>  0 0.24587519E+04</rscale>
<asrwt>0</asrwt>
<pdfrwt beam="1">  1        1 0.50295326E+00 0.24587519E+04</pdfrwt>
<pdfrwt beam="2">  1       -1 0.71123825E-01 0.24587519E+04</pdfrwt>
<totfact> 0.67133869E-01</totfact>
</mgrwt>
</event>
<event>
12    1  0.1489233E-007  0.2293781E+04  0.7818608E-02  0.8480377E-01
          2   -1    0    0  501    0  0.00000000000E+00  0.00000000000E+00  0.24318366693E+04  0.24318366693E+04  0.00000000000E+00 0.  1.
         -2   -1    0    0    0  501 -0.00000000000E+00 -0.00000000000E+00 -0.54089063025E+03  0.54089063025E+03  0.00000000000E+00 0. -1.
         23    2    1    2    0    0  0.35609306968E+03 -0.56243457537E+03 -0.10660761502E+03  0.68030228654E+03  0.91165188798E+02 0.  0.
        254    2    1    2    0    0 -0.35609306968E+03  0.56243457537E+03  0.19975536541E+04  0.22924250130E+04  0.90656324298E+03 0.  0.
        -24    2    4    4    0    0  0.96174558890E+02  0.63494671725E+03  0.98901975944E+03  0.11819181984E+04  0.79772573936E+02 0.  0.
         24    2    4    4    0    0 -0.45226762857E+03 -0.72512141880E+02  0.10085338947E+04  0.11105068147E+04  0.79251183954E+02 0.  0.
         13    1    3    3    0    0  0.25857506076E+03 -0.33574316198E+03 -0.88080593624E+02  0.43283105692E+03  0.00000000000E+00 0. -1.
        -13    1    3    3    0    0  0.97518008926E+02 -0.22669141339E+03 -0.18527021400E+02  0.24747122962E+03  0.00000000000E+00 0.  1.
          4    1    6    6  502    0 -0.95767813141E+02 -0.16369066422E+02  0.30026623221E+03  0.31559345775E+03  0.00000000000E+00 0. -1.
          3    1    5    5  503    0  0.41732837688E+02  0.46031177904E+03  0.66537302753E+03  0.81015420102E+03  0.00000000000E+00 0. -1.
         -4    1    5    5    0  503  0.54441721202E+02  0.17463493821E+03  0.32364673190E+03  0.37176399734E+03  0.00000000000E+00 0.  1.
         -3    1    6    6    0  502 -0.35649981543E+03 -0.56143075459E+02  0.70826766247E+03  0.79491335693E+03  0.00000000000E+00 0.  1.
<mgrwt>
<rscale>  0 0.22937809E+04</rscale>
<asrwt>0</asrwt>
<pdfrwt beam="1">  1        2 0.37412871E+00 0.22937809E+04</pdfrwt>
<pdfrwt beam="2">  1       -2 0.83213945E-01 0.22937809E+04</pdfrwt>
<totfact> 0.43716153E+00</totfact>
</mgrwt>
</event>
<event>
12    1  0.1489233E-007  0.1532799E+04  0.7818608E-02  0.8862930E-01
         -1   -1    0    0    0  501 -0.00000000000E+00  0.00000000000E+00  0.45278058411E+03  0.45278058411E+03  0.00000000000E+00 0.  1.
          1   -1    0    0  501    0  0.00000000000E+00 -0.00000000000E+00 -0.12972464433E+04  0.12972464433E+04  0.00000000000E+00 0. -1.
         23    2    1    2    0    0 -0.43099864029E+03  0.20601907788E+03 -0.41495262051E+03  0.63844996940E+03  0.85023513067E+02 0.  0.
        254    2    1    2    0    0  0.43099864029E+03 -0.20601907788E+03 -0.42951323869E+03  0.11115770580E+04  0.90714841418E+03 0.  0.
        -24    2    4    4    0    0 -0.91037291746E+02 -0.13431186766E+03 -0.53771905844E+03  0.56762099252E+03  0.82002067350E+02 0.  0.
         24    2    4    4    0    0  0.52203593203E+03 -0.71707210213E+02  0.10820581976E+03  0.54395606551E+03  0.80723376054E+02 0.  0.
         11    1    3    3    0    0 -0.23973593570E+03  0.84795164465E+02 -0.17606426372E+03  0.30929300630E+03  0.00000000000E+00 0. -1.
        -11    1    3    3    0    0 -0.19126270459E+03  0.12122391341E+03 -0.23888835679E+03  0.32915696310E+03  0.00000000000E+00 0.  1.
          4    1    6    6  502    0  0.32723827970E+03 -0.84088630308E+02  0.71113191301E+02  0.34527217586E+03  0.00000000000E+00 0. -1.
          3    1    5    5  503    0 -0.54294338735E+02 -0.14184014539E+02 -0.15917006383E+03  0.16877254133E+03  0.00000000000E+00 0. -1.
         -2    1    5    5    0  503 -0.36742953011E+02 -0.12012785313E+03 -0.37854899461E+03  0.39884845119E+03  0.00000000000E+00 0.  1.
         -1    1    6    6    0  502  0.19479765233E+03  0.12381420095E+02  0.37092628457E+02  0.19868388964E+03  0.00000000000E+00 0.  1.
<mgrwt>
<rscale>  0 0.15327988E+04</rscale>
<asrwt>0</asrwt>
<pdfrwt beam="1">  1        1 0.19957638E+00 0.15327988E+04</pdfrwt>
<pdfrwt beam="2">  1       -1 0.69658551E-01 0.15327988E+04</pdfrwt>
<totfact> 0.18270772E+01</totfact>
</mgrwt>
</event>
<event>
12    1  0.1489233E-007  0.1993254E+04  0.7818608E-02  0.8609781E-01
          2   -1    0    0  501    0  0.00000000000E+00  0.00000000000E+00  0.16036544107E+04  0.16036544107E+04  0.00000000000E+00 0.  1.
         -2   -1    0    0    0  501 -0.00000000000E+00 -0.00000000000E+00 -0.61937630300E+03  0.61937630300E+03  0.00000000000E+00 0. -1.
         23    2    1    2    0    0  0.35866363933E+02  0.41447513093E+03  0.11428066221E+04  0.12195203931E+04  0.90260642941E+02 0.  0.
        254    2    1    2    0    0 -0.35866363933E+02 -0.41447513093E+03 -0.15852851430E+03  0.10035103206E+04  0.89934734308E+03 0.  0.
        -24    2    4    4    0    0  0.23065031752E+03  0.11478780281E+03  0.17235154789E+03  0.32001896531E+03  0.79569299661E+02 0.  0.
         24    2    4    4    0    0 -0.26651668146E+03 -0.52926293374E+03 -0.33088006219E+03  0.68349135530E+03  0.80798655219E+02 0.  0.
         13    1    3    3    0    0  0.63136401813E+02  0.21113621886E+03  0.57461914176E+03  0.61542819746E+03  0.00000000000E+00 0. -1.
        -13    1    3    3    0    0 -0.27270037880E+02  0.20333891208E+03  0.56818748029E+03  0.60409219569E+03  0.00000000000E+00 0.  1.
          2    1    6    6  502    0 -0.19801628489E+03 -0.43085099129E+03 -0.23107129016E+03  0.52748172187E+03  0.00000000000E+00 0. -1.
          1    1    5    5  503    0  0.87511386632E+02  0.87612704617E+02  0.83855436728E+02  0.14955254284E+03  0.00000000000E+00 0. -1.
         -2    1    5    5    0  503  0.14313893089E+03  0.27175098195E+02  0.88496111160E+02  0.17046642247E+03  0.00000000000E+00 0.  1.
         -1    1    6    6    0  502 -0.68500396568E+02 -0.98411942459E+02 -0.99808772028E+02  0.15600963343E+03  0.00000000000E+00 0.  1.
<mgrwt>
<rscale>  0 0.19932542E+04</rscale>
<asrwt>0</asrwt>
<pdfrwt beam="1">  1        2 0.24671606E+00 0.19932542E+04</pdfrwt>
<pdfrwt beam="2">  1       -2 0.95288663E-01 0.19932542E+04</pdfrwt>
<totfact> 0.95486619E+00</totfact>
</mgrwt>
</event>
<event>
12    1  0.1489233E-007  0.1581754E+04  0.7818608E-02  0.8831836E-01
          2   -1    0    0  501    0  0.00000000000E+00  0.00000000000E+00  0.13677507510E+04  0.13677507510E+04  0.00000000000E+00 0. -1.
         -2   -1    0    0    0  501 -0.00000000000E+00 -0.00000000000E+00 -0.45731024529E+03  0.45731024529E+03  0.00000000000E+00 0.  1.
         23    2    1    2    0    0 -0.19317313927E+03  0.27252887351E+03  0.72616536777E+03  0.80435278056E+03  0.89885513867E+02 0.  0.
        254    2    1    2    0    0  0.19317313927E+03 -0.27252887351E+03  0.18427513796E+03  0.10207082158E+04  0.94673126420E+03 0.  0.
        -24    2    4    4    0    0 -0.13173354336E+03  0.44584664422E+02  0.45746653849E+03  0.48476236358E+03  0.79858603522E+02 0.  0.
         24    2    4    4    0    0  0.32490668263E+03 -0.31711353793E+03 -0.27319140052E+03  0.53594585218E+03  0.80492650563E+02 0.  0.
         11    1    3    3    0    0 -0.12919169600E+03  0.20980872931E+03  0.60824364569E+03  0.65625492740E+03  0.00000000000E+00 0. -1.
        -11    1    3    3    0    0 -0.63981443268E+02  0.62720144201E+02  0.11792172208E+03  0.14809785316E+03  0.00000000000E+00 0.  1.
          4    1    6    6  502    0  0.32223205471E+03 -0.30514927534E+03 -0.27695795057E+03  0.52312071619E+03  0.00000000000E+00 0. -1.
          3    1    5    5  503    0 -0.12289142655E+03  0.84700863603E+01  0.34948536644E+03  0.37055912678E+03  0.00000000000E+00 0. -1.
         -4    1    5    5    0  503 -0.88421168047E+01  0.36114578062E+02  0.10798117205E+03  0.11420323680E+03  0.00000000000E+00 0.  1.
         -3    1    6    6    0  502  0.26746279156E+01 -0.11964262595E+02  0.37665500479E+01  0.12825135991E+02  0.00000000000E+00 0.  1.
<mgrwt>
<rscale>  0 0.15817540E+04</rscale>
<asrwt>0</asrwt>
<pdfrwt beam="1">  1        2 0.21042319E+00 0.15817540E+04</pdfrwt>
<pdfrwt beam="2">  1       -2 0.70355423E-01 0.15817540E+04</pdfrwt>
<totfact> 0.26659566E+01</totfact>
</mgrwt>
</event>
<event>
12    1  0.1489233E-007  0.1405019E+04  0.7818608E-02  0.8950194E-01
          1   -1    0    0  501    0  0.00000000000E+00  0.00000000000E+00  0.62270784027E+03  0.62270784027E+03  0.00000000000E+00 0. -1.
         -1   -1    0    0    0  501 -0.00000000000E+00 -0.00000000000E+00 -0.79253763577E+03  0.79253763577E+03  0.00000000000E+00 0.  1.
         23    2    1    2    0    0  0.15018937821E+03  0.15774103723E+03  0.29889024859E+03  0.38062993428E+03  0.90026007434E+02 0.  0.
        254    2    1    2    0    0 -0.15018937821E+03 -0.15774103723E+03 -0.46872004409E+03  0.10346155418E+04  0.89626544917E+03 0.  0.
        -24    2    4    4    0    0  0.22525942782E+03 -0.39663516417E+02  0.15864759429E+03  0.28968692172E+03  0.80215017819E+02 0.  0.
         24    2    4    4    0    0 -0.37544880602E+03 -0.11807752081E+03 -0.62736763838E+03  0.74492862005E+03  0.80152282656E+02 0.  0.
         13    1    3    3    0    0  0.55294012163E+02  0.83295776913E+02  0.20394070492E+03  0.22712865375E+03  0.00000000000E+00 0. -1.
        -13    1    3    3    0    0  0.94895366043E+02  0.74445260316E+02  0.94949543674E+02  0.15350128053E+03  0.00000000000E+00 0.  1.
          4    1    6    6  502    0 -0.19871528348E+03 -0.90835419042E+02 -0.39869633184E+03  0.45464007991E+03  0.00000000000E+00 0. -1.
          3    1    5    5  503    0  0.98444779874E+02  0.12898484610E+01  0.11048734480E+03  0.14798814734E+03  0.00000000000E+00 0. -1.
         -4    1    5    5    0  503  0.12681464794E+03 -0.40953364878E+02  0.48160249497E+02  0.14169877437E+03  0.00000000000E+00 0.  1.
         -3    1    6    6    0  502 -0.17673352254E+03 -0.27242101770E+02 -0.22867130655E+03  0.29028854014E+03  0.00000000000E+00 0.  1.
<mgrwt>
<rscale>  0 0.14050187E+04</rscale>
<asrwt>0</asrwt>
<pdfrwt beam="1">  1        1 0.95801207E-01 0.14050187E+04</pdfrwt>
<pdfrwt beam="2">  1       -1 0.12192887E+00 0.14050187E+04</pdfrwt>
<totfact> 0.18830225E+01</totfact>
</mgrwt>
</event>
<event>
12    1  0.1489233E-007  0.2011897E+04  0.7818608E-02  0.8601078E-01
         -2   -1    0    0    0  501 -0.00000000000E+00  0.00000000000E+00  0.68469612293E+03  0.68469612293E+03  0.00000000000E+00 0.  1.
          2   -1    0    0  501    0  0.00000000000E+00 -0.00000000000E+00 -0.14779298056E+04  0.14779298056E+04  0.00000000000E+00 0. -1.
         23    2    1    2    0    0  0.35669369144E+03 -0.33309375649E+03 -0.10374253511E+04  0.11503045723E+04  0.93634447654E+02 0.  0.
        254    2    1    2    0    0 -0.35669369144E+03  0.33309375649E+03  0.24419166837E+03  0.10123213563E+04  0.85263304966E+03 0.  0.
        -24    2    4    4    0    0 -0.55848489976E+03  0.45299778847E+03  0.24689162251E+03  0.76444880039E+03  0.79461409066E+02 0.  0.
         24    2    4    4    0    0  0.20179120832E+03 -0.11990403198E+03 -0.26999541371E+01  0.24787255590E+03  0.79604306278E+02 0.  0.
         11    1    3    3    0    0  0.65568627924E+02 -0.98316522948E+02 -0.32237841006E+03  0.34335582553E+03  0.00000000000E+00 0.  1.
        -11    1    3    3    0    0  0.29112506352E+03 -0.23477723355E+03 -0.71504694101E+03  0.80694874673E+03  0.00000000000E+00 0. -1.
          2    1    6    6  502    0  0.13638824164E+03 -0.11767428514E+03 -0.16839711499E+02  0.18092143523E+03  0.00000000000E+00 0. -1.
          1    1    5    5  503    0 -0.43397083567E+03  0.34055050072E+03  0.22288982363E+03  0.59496655640E+03  0.00000000000E+00 0. -1.
         -2    1    5    5    0  503 -0.12451406409E+03  0.11244728775E+03  0.24001798874E+02  0.16948224399E+03  0.00000000000E+00 0.  1.
         -1    1    6    6    0  502  0.65402966678E+02 -0.22297468344E+01  0.14139757362E+02  0.66951120674E+02  0.00000000000E+00 0.  1.
<mgrwt>
<rscale>  0 0.20118974E+04</rscale>
<asrwt>0</asrwt>
<pdfrwt beam="1">  1        2 0.22737382E+00 0.20118974E+04</pdfrwt>
<pdfrwt beam="2">  1       -2 0.10533787E+00 0.20118974E+04</pdfrwt>
<totfact> 0.88461059E+00</totfact>
</mgrwt>
</event>
<event>
12    1  0.1489233E-007  0.1371363E+04  0.7818608E-02  0.8974812E-01
          2   -1    0    0  501    0  0.00000000000E+00  0.00000000000E+00  0.35326259057E+04  0.35326259057E+04  0.00000000000E+00 0. -1.
         -2   -1    0    0    0  501 -0.00000000000E+00 -0.00000000000E+00 -0.13309053944E+03  0.13309053944E+03  0.00000000000E+00 0.  1.
         23    2    1    2    0    0  0.28876680616E+03  0.38503107467E+02  0.16594314819E+04  0.16870955350E+04  0.87805144419E+02 0.  0.
        254    2    1    2    0    0 -0.28876680616E+03 -0.38503107467E+02  0.17401038843E+04  0.19786209101E+04  0.89560617470E+03 0.  0.
        -24    2    4    4    0    0 -0.28153630036E+03 -0.31065757043E+03  0.16115194150E+04  0.16670761263E+04  0.79857194952E+02 0.  0.
         24    2    4    4    0    0 -0.72305057970E+01  0.27215446296E+03  0.12858446937E+03  0.31154478384E+03  0.80036583201E+02 0.  0.
         11    1    3    3    0    0  0.24105057496E+01 -0.12818337408E+02  0.88115056953E+02  0.89075156883E+02  0.00000000000E+00 0. -1.
        -11    1    3    3    0    0  0.28635630041E+03  0.51321444875E+02  0.15713164249E+04  0.15980203781E+04  0.00000000000E+00 0.  1.
          2    1    6    6  502    0 -0.32957164368E+02  0.24087340332E+03  0.11374602730E+03  0.26841074836E+03  0.00000000000E+00 0. -1.
          1    1    5    5  503    0 -0.26291896623E+03 -0.28764737828E+03  0.13902566575E+04  0.14438424328E+04  0.00000000000E+00 0. -1.
         -2    1    5    5    0  503 -0.18617334133E+02 -0.23010192150E+02  0.22126275742E+03  0.22323369346E+03  0.00000000000E+00 0.  1.
         -1    1    6    6    0  502  0.25726658571E+02  0.31281059648E+02  0.14838442066E+02  0.43134035481E+02  0.00000000000E+00 0.  1.
<mgrwt>
<rscale>  0 0.13713630E+04</rscale>
<asrwt>0</asrwt>
<pdfrwt beam="1">  1        2 0.54348084E+00 0.13713630E+04</pdfrwt>
<pdfrwt beam="2">  1       -2 0.20475470E-01 0.13713630E+04</pdfrwt>
<totfact> 0.15717374E+01</totfact>
</mgrwt>
</event>
<event>
12    1  0.1489233E-007  0.1977348E+04  0.7818608E-02  0.8617285E-01
         -2   -1    0    0    0  501 -0.00000000000E+00  0.00000000000E+00  0.52272114806E+03  0.52272114806E+03  0.00000000000E+00 0.  1.
          2   -1    0    0  501    0  0.00000000000E+00 -0.00000000000E+00 -0.18699759734E+04  0.18699759734E+04  0.00000000000E+00 0. -1.
         23    2    1    2    0    0 -0.49722268972E+03 -0.52540052533E+03 -0.88715349092E+03  0.11482773238E+04  0.90682857222E+02 0.  0.
        254    2    1    2    0    0  0.49722268972E+03  0.52540052533E+03 -0.46010133443E+03  0.12444197977E+04  0.90200403537E+03 0.  0.
        -24    2    4    4    0    0 -0.14138313177E+02  0.57972008895E+03 -0.59682312811E+02  0.58836252929E+03  0.79581492703E+02 0.  0.
         24    2    4    4    0    0  0.51136100290E+03 -0.54319563616E+02 -0.40041902162E+03  0.65605726843E+03  0.75067012107E+02 0.  0.
         13    1    3    3    0    0 -0.50064229588E+03 -0.51810588329E+03 -0.88130933044E+03  0.11383244488E+04  0.00000000000E+00 0. -1.
        -13    1    3    3    0    0  0.34196061614E+01 -0.72946420482E+01 -0.58441604866E+01  0.99528749969E+01  0.00000000000E+00 0.  1.
          4    1    6    6  502    0  0.23115483007E+03 -0.61051033233E+02 -0.19581788007E+03  0.30903790427E+03  0.00000000000E+00 0. -1.
          3    1    5    5  503    0  0.71389200587E+01  0.10083574242E+03 -0.39653942897E+02  0.10858750534E+03  0.00000000000E+00 0. -1.
         -4    1    5    5    0  503 -0.21277233235E+02  0.47888434653E+03 -0.20028369915E+02  0.47977502395E+03  0.00000000000E+00 0.  1.
         -3    1    6    6    0  502  0.28020617283E+03  0.67314696177E+01 -0.20460114156E+03  0.34701936416E+03  0.00000000000E+00 0.  1.
<mgrwt>
<rscale>  0 0.19773477E+04</rscale>
<asrwt>0</asrwt>
<pdfrwt beam="1">  1        2 0.28768861E+00 0.19773477E+04</pdfrwt>
<pdfrwt beam="2">  1       -2 0.80418639E-01 0.19773477E+04</pdfrwt>
<totfact> 0.10032417E+01</totfact>
</mgrwt>
</event>
<event>
12    1  0.1489233E-007  0.1176968E+04  0.7818608E-02  0.9133259E-01
          2   -1    0    0  501    0  0.00000000000E+00  0.00000000000E+00  0.37040808572E+04  0.37040808572E+04  0.00000000000E+00 0. -1.
         -2   -1    0    0    0  501 -0.00000000000E+00 -0.00000000000E+00 -0.93495088489E+02  0.93495088489E+02  0.00000000000E+00 0.  1.
         23    2    1    2    0    0 -0.15559319821E+03 -0.54431432365E+02  0.13079241416E+04  0.13238981552E+04  0.12193744667E+03 0.  0.
        254    2    1    2    0    0  0.15559319821E+03  0.54431432365E+02  0.23026616271E+04  0.24736777905E+04  0.88862771632E+03 0.  0.
        -24    2    4    4    0    0  0.49378857374E+03  0.10032057209E+03  0.17148755709E+04  0.17893442526E+04  0.84043192130E+02 0.  0.
         24    2    4    4    0    0 -0.33819537553E+03 -0.45889139723E+02  0.58778605621E+03  0.68433353785E+03  0.79611669919E+02 0.  0.
         11    1    3    3    0    0 -0.17287802160E+02 -0.63284814755E+02  0.47828782841E+03  0.48276607449E+03  0.00000000000E+00 0. -1.
        -11    1    3    3    0    0 -0.13830539605E+03  0.88533823904E+01  0.82963631323E+03  0.84113208071E+03  0.00000000000E+00 0.  1.
          4    1    6    6  502    0 -0.24479044840E+03 -0.68460532799E+02  0.41661538890E+03  0.48803441523E+03  0.00000000000E+00 0. -1.
          1    1    5    5  503    0  0.25204077401E+03  0.82814639253E+02  0.99490579462E+03  0.10296700231E+04  0.00000000000E+00 0. -1.
         -2    1    5    5    0  503  0.24174779973E+03  0.17505932834E+02  0.71996977626E+03  0.75967422958E+03  0.00000000000E+00 0.  1.
         -3    1    6    6    0  502 -0.93404927127E+02  0.22571393076E+02  0.17117066731E+03  0.19629912263E+03  0.00000000000E+00 0.  1.
<mgrwt>
<rscale>  0 0.11769679E+04</rscale>
<asrwt>0</asrwt>
<pdfrwt beam="1">  1        2 0.56985848E+00 0.11769679E+04</pdfrwt>
<pdfrwt beam="2">  1       -2 0.14383863E-01 0.11769679E+04</pdfrwt>
<totfact> 0.22310679E+01</totfact>
</mgrwt>
</event>
<event>
12    1  0.1675314E-007  0.2555026E+04  0.7818608E-02  0.8383640E-01
         -2   -1    0    0    0  501 -0.00000000000E+00  0.00000000000E+00  0.77255428906E+03  0.77255428906E+03  0.00000000000E+00 0. -1.
          2   -1    0    0  501    0  0.00000000000E+00 -0.00000000000E+00 -0.21125232227E+04  0.21125232227E+04  0.00000000000E+00 0.  1.
         23    2    1    2    0    0  0.52332655641E+03  0.35039596109E+03 -0.16290499330E+04  0.17490790549E+04  0.93945952463E+02 0.  0.
        254    2    1    2    0    0 -0.52332655641E+03 -0.35039596109E+03  0.28908099933E+03  0.11359984569E+04  0.90015368443E+03 0.  0.
        -24    2    4    4    0    0 -0.31702488355E+03 -0.64054706688E+03  0.27672040088E+03  0.77091113981E+03  0.83213481705E+02 0.  0.
         24    2    4    4    0    0 -0.20630167286E+03  0.29015110579E+03  0.12360598453E+02  0.36508731704E+03  0.79924465922E+02 0.  0.
         11    1    3    3    0    0  0.38183435212E+03  0.27212573623E+03 -0.10970989050E+04  0.11930950910E+04  0.00000000000E+00 0.  1.
        -11    1    3    3    0    0  0.14149220429E+03  0.78270224867E+02 -0.53195102794E+03  0.55598396389E+03  0.00000000000E+00 0. -1.
          2    1    6    6  502    0 -0.54304790480E+01  0.42350739530E+02  0.17275710900E+02  0.46060019850E+02  0.00000000000E+00 0. -1.
          3    1    5    5  503    0 -0.81863376242E+01 -0.14925959398E+02 -0.60805799576E+01  0.18076886907E+02  0.00000000000E+00 0. -1.
         -4    1    5    5    0  503 -0.30883854593E+03 -0.62562110749E+03  0.28280098084E+03  0.75283425291E+03  0.00000000000E+00 0.  1.
         -1    1    6    6    0  502 -0.20087119381E+03  0.24780036626E+03 -0.49151124469E+01  0.31902729719E+03  0.00000000000E+00 0.  1.
<mgrwt>
<rscale>  0 0.25550255E+04</rscale>
<asrwt>0</asrwt>
<pdfrwt beam="1">  1        2 0.32500356E+00 0.25550255E+04</pdfrwt>
<pdfrwt beam="2">  1       -2 0.11885451E+00 0.25550255E+04</pdfrwt>
<totfact> 0.27914546E+00</totfact>
</mgrwt>
</event>
<event>
12    1  0.1489233E-007  0.1261196E+04  0.7818608E-02  0.9060916E-01
         -4   -1    0    0    0  501 -0.00000000000E+00  0.00000000000E+00  0.29329779679E+03  0.29329779679E+03  0.00000000000E+00 0.  1.
          4   -1    0    0  501    0  0.00000000000E+00 -0.00000000000E+00 -0.13558023711E+04  0.13558023711E+04  0.00000000000E+00 0. -1.
         23    2    1    2    0    0 -0.75161050609E+02  0.63101257614E+02  0.10411746457E+03  0.17117505162E+03  0.93965417186E+02 0.  0.
        254    2    1    2    0    0  0.75161050609E+02 -0.63101257614E+02 -0.11666220389E+04  0.14779251163E+04  0.90201148299E+03 0.  0.
        -24    2    4    4    0    0  0.29617864386E+03  0.15890763139E+03 -0.94161706515E+02  0.35783222216E+03  0.78765778428E+02 0.  0.
         24    2    4    4    0    0 -0.22101759325E+03 -0.22200888900E+03 -0.10724603324E+04  0.11200928941E+04  0.79373821910E+02 0.  0.
         11    1    3    3    0    0 -0.30043259940E+02  0.79113916608E+02  0.84023194405E+02  0.11925395787E+03  0.00000000000E+00 0.  1.
        -11    1    3    3    0    0 -0.45117790669E+02 -0.16012658994E+02  0.20094270169E+02  0.51921093754E+02  0.00000000000E+00 0. -1.
          4    1    6    6  502    0 -0.16967646890E+03 -0.13029584163E+03 -0.79852537526E+03  0.82668608635E+03  0.00000000000E+00 0. -1.
          1    1    5    5  503    0  0.23016325458E+03  0.13368727591E+03 -0.40802292784E+02  0.26928096589E+03  0.00000000000E+00 0. -1.
         -2    1    5    5    0  503  0.66015389280E+02  0.25220355483E+02 -0.53359413731E+02  0.88551256265E+02  0.00000000000E+00 0.  1.
         -3    1    6    6    0  502 -0.51341124351E+02 -0.91713047374E+02 -0.27393495713E+03  0.29340680778E+03  0.00000000000E+00 0.  1.
<mgrwt>
<rscale>  0 0.12611960E+04</rscale>
<asrwt>0</asrwt>
<pdfrwt beam="1">  1        4 0.20858498E+00 0.12611960E+04</pdfrwt>
<pdfrwt beam="2">  1       -4 0.45122737E-01 0.12611960E+04</pdfrwt>
<totfact> 0.10841306E+00</totfact>
</mgrwt>
</event>
<event>
12    1  0.2053254E-007  0.1644601E+04  0.7818608E-02  0.8793607E-01
         -2   -1    0    0    0  501 -0.00000000000E+00  0.00000000000E+00  0.89959930166E+03  0.89959930166E+03  0.00000000000E+00 0.  1.
          2   -1    0    0  501    0  0.00000000000E+00 -0.00000000000E+00 -0.75164370789E+03  0.75164370789E+03  0.00000000000E+00 0. -1.
         23    2    1    2    0    0  0.55722497721E+02 -0.93874324497E+02 -0.50272784312E+03  0.52246999221E+03  0.91226218556E+02 0.  0.
        254    2    1    2    0    0 -0.55722497721E+02  0.93874324497E+02  0.65068343690E+03  0.11287730173E+04  0.91587237325E+03 0.  0.
        -24    2    4    4    0    0 -0.85473917225E+02 -0.33883237684E+03  0.57967128214E+03  0.68156149739E+03  0.79963174424E+02 0.  0.
         24    2    4    4    0    0  0.29751419505E+02  0.43270670134E+03  0.71012154754E+02  0.44721151995E+03  0.82675154111E+02 0.  0.
         11    1    3    3    0    0  0.23000924226E+02 -0.68035840508E+02 -0.44773706142E+03  0.45346046606E+03  0.00000000000E+00 0. -1.
        -11    1    3    3    0    0  0.32721573494E+02 -0.25838483989E+02 -0.54990781705E+02  0.69009526149E+02  0.00000000000E+00 0.  1.
          4    1    6    6  502    0 -0.16701511790E+02  0.55433864274E+02  0.29067216926E+02  0.64782381125E+02  0.00000000000E+00 0. -1.
          3    1    5    5  503    0  0.90798386408E+01 -0.48260734214E+02  0.50092632364E+02  0.70148512128E+02  0.00000000000E+00 0. -1.
         -4    1    5    5    0  503 -0.94553755866E+02 -0.29057164263E+03  0.52957864978E+03  0.61141298526E+03  0.00000000000E+00 0.  1.
         -3    1    6    6    0  502  0.46452931295E+02  0.37727283707E+03  0.41944937828E+02  0.38242913883E+03  0.00000000000E+00 0.  1.
<mgrwt>
<rscale>  0 0.16446011E+04</rscale>
<asrwt>0</asrwt>
<pdfrwt beam="1">  1        2 0.11563749E+00 0.16446011E+04</pdfrwt>
<pdfrwt beam="2">  1       -2 0.13839989E+00 0.16446011E+04</pdfrwt>
<totfact> 0.13218884E+01</totfact>
</mgrwt>
</event>
<event>
12    1  0.1489233E-007  0.1371951E+04  0.7818608E-02  0.8974376E-01
         -2   -1    0    0    0  501 -0.00000000000E+00  0.00000000000E+00  0.15432519836E+04  0.15432519836E+04  0.00000000000E+00 0.  1.
          2   -1    0    0  501    0  0.00000000000E+00 -0.00000000000E+00 -0.30491602425E+03  0.30491602425E+03  0.00000000000E+00 0. -1.
         23    2    1    2    0    0  0.15535466508E+03  0.13086345046E+03  0.81525267282E+03  0.84525840134E+03  0.92544745257E+02 0.  0.
        254    2    1    2    0    0 -0.15535466508E+03 -0.13086345046E+03  0.42308328648E+03  0.10029096065E+04  0.88632268209E+03 0.  0.
        -24    2    4    4    0    0  0.12186736418E+03 -0.40442442272E+03  0.42504640701E+03  0.60533373948E+03  0.85753833160E+02 0.  0.
         24    2    4    4    0    0 -0.27722202926E+03  0.27356097226E+03 -0.19631205312E+01  0.39757586697E+03  0.79843954717E+02 0.  0.
         13    1    3    3    0    0  0.12314501091E+02  0.63385930808E+02  0.21177659192E+03  0.22140177968E+03  0.00000000000E+00 0. -1.
        -13    1    3    3    0    0  0.14304016399E+03  0.67477519650E+02  0.60347608090E+03  0.62385662166E+03  0.00000000000E+00 0.  1.
          2    1    6    6  502    0 -0.41167623119E+02  0.48414269169E+02 -0.29780035576E+02  0.70182370802E+02  0.00000000000E+00 0. -1.
          1    1    5    5  503    0  0.19980703136E+02 -0.10316245723E+03  0.15959803904E+03  0.19108441890E+03  0.00000000000E+00 0. -1.
         -2    1    5    5    0  503  0.10188666104E+03 -0.30126196549E+03  0.26544836797E+03  0.41424932059E+03  0.00000000000E+00 0.  1.
         -1    1    6    6    0  502 -0.23605440614E+03  0.22514670309E+03  0.27816915045E+02  0.32739349617E+03  0.00000000000E+00 0.  1.
<mgrwt>
<rscale>  0 0.13719508E+04</rscale>
<asrwt>0</asrwt>
<pdfrwt beam="1">  1        2 0.46910159E-01 0.13719508E+04</pdfrwt>
<pdfrwt beam="2">  1       -2 0.23742338E+00 0.13719508E+04</pdfrwt>
<totfact> 0.80853147E+00</totfact>
</mgrwt>
</event>
<event>
12    1  0.1489233E-007  0.2372155E+04  0.7818608E-02  0.8450002E-01
          2   -1    0    0  501    0  0.00000000000E+00  0.00000000000E+00  0.11932975184E+04  0.11932975184E+04  0.00000000000E+00 0. -1.
         -2   -1    0    0    0  501 -0.00000000000E+00 -0.00000000000E+00 -0.11789010758E+04  0.11789010758E+04  0.00000000000E+00 0.  1.
         23    2    1    2    0    0 -0.41331847389E+03 -0.76327647658E+03 -0.51022808952E+03  0.10121469275E+04  0.10337097702E+03 0.  0.
        254    2    1    2    0    0  0.41331847389E+03  0.76327647658E+03  0.52462453211E+03  0.13600516667E+04  0.90613823222E+03 0.  0.
        -24    2    4    4    0    0  0.38222227509E+03 -0.79620479914E+02  0.89181709098E+02  0.40752387601E+03  0.75425750820E+02 0.  0.
         24    2    4    4    0    0  0.31096198800E+02  0.84289695649E+03  0.43544282301E+03  0.95252779071E+03  0.79097958966E+02 0.  0.
         13    1    3    3    0    0 -0.32846103490E+03 -0.67964652615E+03 -0.44675257645E+03  0.87715102264E+03  0.00000000000E+00 0.  1.
        -13    1    3    3    0    0 -0.84857438987E+02 -0.83629950432E+02 -0.63475513061E+02  0.13499590482E+03  0.00000000000E+00 0. -1.
          4    1    6    6  502    0  0.12370961427E+02  0.79238880233E+03  0.39711300497E+03  0.88641513608E+03  0.00000000000E+00 0. -1.
          1    1    5    5  503    0  0.21486370890E+03 -0.38031907498E+02  0.87426393034E+02  0.23506640251E+03  0.00000000000E+00 0. -1.
         -2    1    5    5    0  503  0.16735856618E+03 -0.41588572415E+02  0.17553160643E+01  0.17245747350E+03  0.00000000000E+00 0.  1.
         -3    1    6    6    0  502  0.18725237373E+02  0.50508154164E+02  0.38329818039E+02  0.66112654633E+02  0.00000000000E+00 0.  1.
<mgrwt>
<rscale>  0 0.23721549E+04</rscale>
<asrwt>0</asrwt>
<pdfrwt beam="1">  1        2 0.18358423E+00 0.23721549E+04</pdfrwt>
<pdfrwt beam="2">  1       -2 0.18136940E+00 0.23721549E+04</pdfrwt>
<totfact> 0.30569430E+00</totfact>
</mgrwt>
</event>
<event>
12    1  0.1489233E-007  0.2773645E+04  0.7818608E-02  0.8311497E-01
         -1   -1    0    0    0  501 -0.00000000000E+00  0.00000000000E+00  0.57591896457E+03  0.57591896457E+03  0.00000000000E+00 0.  1.
          1   -1    0    0  501    0  0.00000000000E+00 -0.00000000000E+00 -0.33394920573E+04  0.33394920573E+04  0.00000000000E+00 0. -1.
         23    2    1    2    0    0  0.62810504418E+03  0.25610390688E+02 -0.27404221337E+04  0.28129879069E+04  0.88406191049E+02 0.  0.
        254    2    1    2    0    0 -0.62810504418E+03 -0.25610390688E+02 -0.23150958966E+02  0.11024231150E+04  0.90533359533E+03 0.  0.
        -24    2    4    4    0    0 -0.75580101579E+03  0.86261438693E+00  0.24027381066E+03  0.79746954128E+03  0.83607688637E+02 0.  0.
         24    2    4    4    0    0  0.12769597161E+03 -0.26473005075E+02 -0.26342476963E+03  0.30495357368E+03  0.81221867009E+02 0.  0.
         13    1    3    3    0    0  0.51864105005E+03 -0.89463553367E+01 -0.23098329030E+04  0.23673606856E+04  0.00000000000E+00 0. -1.
        -13    1    3    3    0    0  0.10946399413E+03  0.34556746025E+02 -0.43058923074E+03  0.44562722127E+03  0.00000000000E+00 0.  1.
          4    1    6    6  502    0  0.53765011969E+02  0.18895832554E+02 -0.55005619602E+02  0.79204464443E+02  0.00000000000E+00 0. -1.
          1    1    5    5  503    0 -0.22093661035E+03 -0.23323684532E+02  0.39478601423E+02  0.22564472080E+03  0.00000000000E+00 0. -1.
         -2    1    5    5    0  503 -0.53486440544E+03  0.24186298919E+02  0.20079520924E+03  0.57182482048E+03  0.00000000000E+00 0.  1.
         -3    1    6    6    0  502  0.73930959642E+02 -0.45368837630E+02 -0.20841915003E+03  0.22574910923E+03  0.00000000000E+00 0.  1.
<mgrwt>
<rscale>  0 0.27736451E+04</rscale>
<asrwt>0</asrwt>
<pdfrwt beam="1">  1        1 0.51376800E+00 0.27736451E+04</pdfrwt>
<pdfrwt beam="2">  1       -1 0.88602919E-01 0.27736451E+04</pdfrwt>
<totfact> 0.36126854E-01</totfact>
</mgrwt>
</event>
<event>
12    1  0.1489233E-007  0.1609565E+04  0.7818608E-02  0.8814693E-01
          2   -1    0    0  501    0  0.00000000000E+00  0.00000000000E+00  0.10164146843E+04  0.10164146843E+04  0.00000000000E+00 0. -1.
         -2   -1    0    0    0  501 -0.00000000000E+00 -0.00000000000E+00 -0.63721524734E+03  0.63721524734E+03  0.00000000000E+00 0.  1.
         23    2    1    2    0    0  0.27809416791E+02  0.42700984646E+03  0.49253335645E+03  0.65871574718E+03  0.90590042065E+02 0.  0.
        254    2    1    2    0    0 -0.27809416791E+02 -0.42700984646E+03 -0.11333391951E+03  0.99491418445E+03  0.89101003612E+03 0.  0.
        -24    2    4    4    0    0 -0.15445861111E+03 -0.19434437465E+03 -0.47404233608E+03  0.54054578816E+03  0.76461847990E+02 0.  0.
         24    2    4    4    0    0  0.12664919432E+03 -0.23266547181E+03  0.36070841656E+03  0.45436839629E+03  0.78529214786E+02 0.  0.
         11    1    3    3    0    0  0.56384508061E+02  0.25510363247E+03  0.26520010751E+03  0.37227432502E+03  0.00000000000E+00 0. -1.
        -11    1    3    3    0    0 -0.28575091270E+02  0.17190621400E+03  0.22733324894E+03  0.28644142215E+03  0.00000000000E+00 0.  1.
          2    1    6    6  502    0  0.47950449415E+02 -0.15733450775E+03  0.18420023497E+03  0.24694760475E+03  0.00000000000E+00 0. -1.
          3    1    5    5  503    0 -0.14926828893E+03 -0.17311055405E+03 -0.46232399230E+03  0.51574388979E+03  0.00000000000E+00 0. -1.
         -4    1    5    5    0  503 -0.51903221815E+01 -0.21233820601E+02 -0.11718343778E+02  0.24801898366E+02  0.00000000000E+00 0.  1.
         -1    1    6    6    0  502  0.78698744901E+02 -0.75330964066E+02  0.17650818159E+03  0.20742079155E+03  0.00000000000E+00 0.  1.
<mgrwt>
<rscale>  0 0.16095651E+04</rscale>
<asrwt>0</asrwt>
<pdfrwt beam="1">  1        2 0.15637149E+00 0.16095651E+04</pdfrwt>
<pdfrwt beam="2">  1       -2 0.98033115E-01 0.16095651E+04</pdfrwt>
<totfact> 0.20398746E+01</totfact>
</mgrwt>
</event>
<event>
12    1  0.1489233E-007  0.2339812E+04  0.7818608E-02  0.8462387E-01
         -2   -1    0    0    0  501 -0.00000000000E+00  0.00000000000E+00  0.91919524067E+03  0.91919524067E+03  0.00000000000E+00 0. -1.
          2   -1    0    0  501    0  0.00000000000E+00 -0.00000000000E+00 -0.14889980102E+04  0.14889980102E+04  0.00000000000E+00 0.  1.
         23    2    1    2    0    0  0.45466179578E+03  0.77922749881E+03  0.19484209337E+03  0.92778199324E+03  0.94356463382E+02 0.  0.
        254    2    1    2    0    0 -0.45466179578E+03 -0.77922749881E+03 -0.76464486292E+03  0.14804112576E+04  0.89051832206E+03 0.  0.
        -24    2    4    4    0    0 -0.53905141008E+03 -0.45970350273E+03 -0.81897499697E+02  0.71754243567E+03  0.79096228727E+02 0.  0.
         24    2    4    4    0    0  0.84389614307E+02 -0.31952399608E+03 -0.68274736322E+03  0.76286882197E+03  0.81287677257E+02 0.  0.
         13    1    3    3    0    0  0.40787605543E+03  0.64641151287E+03  0.18626600309E+03  0.78670562758E+03  0.00000000000E+00 0. -1.
        -13    1    3    3    0    0  0.46785740346E+02  0.13281598594E+03  0.85760902825E+01  0.14107636565E+03  0.00000000000E+00 0.  1.
          2    1    6    6  502    0  0.25892300794E+02 -0.21472393144E+03 -0.38064537022E+03  0.43779867045E+03  0.00000000000E+00 0. -1.
          3    1    5    5  503    0 -0.30195374873E+02 -0.35848043049E+02  0.12700149716E+02  0.48560649264E+02  0.00000000000E+00 0. -1.
         -4    1    5    5    0  503 -0.50885603521E+03 -0.42385545968E+03 -0.94597649413E+02  0.66898178641E+03  0.00000000000E+00 0.  1.
         -1    1    6    6    0  502  0.58497313513E+02 -0.10480006464E+03 -0.30210199300E+03  0.32507015152E+03  0.00000000000E+00 0.  1.
<mgrwt>
<rscale>  0 0.23398119E+04</rscale>
<asrwt>0</asrwt>
<pdfrwt beam="1">  1        2 0.22907662E+00 0.23398119E+04</pdfrwt>
<pdfrwt beam="2">  1       -2 0.14141465E+00 0.23398119E+04</pdfrwt>
<totfact> 0.40720808E+00</totfact>
</mgrwt>
</event>
<event>
12    1  0.1489233E-007  0.2811104E+04  0.7818608E-02  0.8299829E-01
         -2   -1    0    0    0  501 -0.00000000000E+00  0.00000000000E+00  0.39641493979E+04  0.39641493979E+04  0.00000000000E+00 0. -1.
          2   -1    0    0  501    0  0.00000000000E+00 -0.00000000000E+00 -0.49836069845E+03  0.49836069845E+03  0.00000000000E+00 0.  1.
         23    2    1    2    0    0  0.33923143014E+03 -0.81771474058E+03  0.14302765488E+03  0.90548164237E+03  0.12531853196E+03 0.  0.
        254    2    1    2    0    0 -0.33923143014E+03  0.81771474058E+03  0.33227610446E+04  0.35570284540E+04  0.90993137265E+03 0.  0.
        -24    2    4    4    0    0  0.19514800528E+02  0.15117000707E+03  0.27790110614E+02  0.17522262309E+03  0.81838126304E+02 0.  0.
         24    2    4    4    0    0 -0.35874623067E+03  0.66654473351E+03  0.32949709340E+04  0.33818058309E+04  0.82440781256E+02 0.  0.
         13    1    3    3    0    0  0.33809034924E+03 -0.71675064657E+03  0.11579096789E+03  0.80090206758E+03  0.00000000000E+00 0.  1.
        -13    1    3    3    0    0  0.11410808952E+01 -0.10096409401E+03  0.27236686989E+02  0.10457957479E+03  0.00000000000E+00 0. -1.
          2    1    6    6  502    0 -0.75464493735E+02  0.13947685842E+03  0.85096360738E+03  0.86561408545E+03  0.00000000000E+00 0. -1.
          3    1    5    5  503    0 -0.25593874670E+02  0.24523688653E+02  0.19668299973E+02  0.40537633744E+02  0.00000000000E+00 0. -1.
         -4    1    5    5    0  503  0.45108675198E+02  0.12664631842E+03  0.81218106413E+01  0.13468498934E+03  0.00000000000E+00 0.  1.
         -1    1    6    6    0  502 -0.28328173693E+03  0.52706787509E+03  0.24440073266E+04  0.25161917455E+04  0.00000000000E+00 0.  1.
<mgrwt>
<rscale>  0 0.28111039E+04</rscale>
<asrwt>0</asrwt>
<pdfrwt beam="1">  1        2 0.76670879E-01 0.28111039E+04</pdfrwt>
<pdfrwt beam="2">  1       -2 0.60986912E+00 0.28111039E+04</pdfrwt>
<totfact> 0.24624525E-02</totfact>
</mgrwt>
</event>
<event>
12    1  0.1489233E-007  0.1190594E+04  0.7818608E-02  0.9121129E-01
         -1   -1    0    0    0  501 -0.00000000000E+00  0.00000000000E+00  0.29169729510E+03  0.29169729510E+03  0.00000000000E+00 0.  1.
          1   -1    0    0  501    0  0.00000000000E+00 -0.00000000000E+00 -0.12148849649E+04  0.12148849649E+04  0.00000000000E+00 0. -1.
         23    2    1    2    0    0  0.15905948479E+03  0.10047277630E+03 -0.20958824528E+02  0.21032836512E+03  0.91673607798E+02 0.  0.
        254    2    1    2    0    0 -0.15905948479E+03 -0.10047277630E+03 -0.90222884532E+03  0.12962538949E+04  0.91151663304E+03 0.  0.
        -24    2    4    4    0    0  0.69489223391E+02  0.32628262269E+03 -0.10383363926E+03  0.35880630229E+03  0.81678858233E+02 0.  0.
         24    2    4    4    0    0 -0.22854870818E+03 -0.42675539899E+03 -0.79839520606E+03  0.93744759263E+03  0.83775899237E+02 0.  0.
         13    1    3    3    0    0  0.11143748523E+03  0.18661199315E+02  0.16588409466E+01  0.11300135056E+03  0.00000000000E+00 0.  1.
        -13    1    3    3    0    0  0.47621999560E+02  0.81811576987E+02 -0.22617665475E+02  0.97327014558E+02  0.00000000000E+00 0. -1.
          4    1    6    6  502    0  0.10392788341E+01 -0.34622870800E+02 -0.83028753049E+02  0.89964421388E+02  0.00000000000E+00 0. -1.
          1    1    5    5  503    0  0.55130734689E+02  0.29644540556E+03 -0.66256834029E+02  0.30872195328E+03  0.00000000000E+00 0. -1.
         -2    1    5    5    0  503  0.14358488702E+02  0.29837217132E+02 -0.37576805226E+02  0.50084349003E+02  0.00000000000E+00 0.  1.
         -3    1    6    6    0  502 -0.22958798702E+03 -0.39213252819E+03 -0.71536645301E+03  0.84748317125E+03  0.00000000000E+00 0.  1.
<mgrwt>
<rscale>  0 0.11905942E+04</rscale>
<asrwt>0</asrwt>
<pdfrwt beam="1">  1        1 0.18690538E+00 0.11905942E+04</pdfrwt>
<pdfrwt beam="2">  1       -1 0.44876507E-01 0.11905942E+04</pdfrwt>
<totfact> 0.50785548E+01</totfact>
</mgrwt>
</event>
<event>
12    1  0.1489233E-007  0.1325642E+04  0.7818608E-02  0.9009474E-01
         -2   -1    0    0    0  501 -0.00000000000E+00  0.00000000000E+00  0.10087829256E+03  0.10087829256E+03  0.00000000000E+00 0.  1.
          2   -1    0    0  501    0  0.00000000000E+00 -0.00000000000E+00 -0.43550660801E+04  0.43550660801E+04  0.00000000000E+00 0. -1.
         23    2    1    2    0    0  0.20333789281E+03  0.60067351048E+02 -0.20361234026E+04  0.20493269055E+04  0.94804376465E+02 0.  0.
        254    2    1    2    0    0 -0.20333789281E+03 -0.60067351048E+02 -0.22180643850E+04  0.24066174672E+04  0.90941939283E+03 0.  0.
        -24    2    4    4    0    0  0.32814276708E+03 -0.17396285417E+03 -0.78523221034E+03  0.87202890825E+03  0.76837767148E+02 0.  0.
         24    2    4    4    0    0 -0.53148065989E+03  0.11389550312E+03 -0.14328321746E+04  0.15345885589E+04  0.80685358006E+02 0.  0.
         13    1    3    3    0    0  0.18128894833E+03  0.82519177951E+02 -0.18312394419E+04  0.18420404423E+04  0.00000000000E+00 0. -1.
        -13    1    3    3    0    0  0.22048944484E+02 -0.22451826903E+02 -0.20488396068E+03  0.20728646321E+03  0.00000000000E+00 0.  1.
          4    1    6    6  502    0 -0.31721075779E+03  0.93190878018E+02 -0.77985257896E+03  0.84704028801E+03  0.00000000000E+00 0. -1.
          1    1    5    5  503    0  0.24251253260E+03 -0.15552454107E+03 -0.54749888763E+03  0.61867216141E+03  0.00000000000E+00 0. -1.
         -2    1    5    5    0  503  0.85630234476E+02 -0.18438313097E+02 -0.23773332271E+03  0.25335674685E+03  0.00000000000E+00 0.  1.
         -3    1    6    6    0  502 -0.21426990210E+03  0.20704625102E+02 -0.65297959568E+03  0.68754827091E+03  0.00000000000E+00 0.  1.
<mgrwt>
<rscale>  0 0.13256419E+04</rscale>
<asrwt>0</asrwt>
<pdfrwt beam="1">  1        2 0.67001023E+00 0.13256419E+04</pdfrwt>
<pdfrwt beam="2">  1       -2 0.15519736E-01 0.13256419E+04</pdfrwt>
<totfact> 0.57167160E+00</totfact>
</mgrwt>
</event>
<event>
12    1  0.1489233E-007  0.3347459E+04  0.7818608E-02  0.8150923E-01
          1   -1    0    0  501    0  0.00000000000E+00  0.00000000000E+00  0.19350066604E+04  0.19350066604E+04  0.00000000000E+00 0. -1.
         -1   -1    0    0    0  501 -0.00000000000E+00 -0.00000000000E+00 -0.14477316508E+04  0.14477316508E+04  0.00000000000E+00 0.  1.
         23    2    1    2    0    0  0.36302840728E+03  0.56427674791E+03 -0.11767803855E+04  0.13577151037E+04  0.91544275762E+02 0.  0.
        254    2    1    2    0    0 -0.36302840728E+03 -0.56427674791E+03  0.16640553951E+04  0.20250232075E+04  0.93885076564E+03 0.  0.
        -24    2    4    4    0    0 -0.33783443843E+03 -0.16551899650E+02  0.13375126645E+04  0.13819279673E+04  0.79866800471E+02 0.  0.
         24    2    4    4    0    0 -0.25193968849E+02 -0.54772484826E+03  0.32654273058E+03  0.64309524020E+03  0.79398284634E+02 0.  0.
         13    1    3    3    0    0  0.13114162558E+03  0.12958966694E+03 -0.30805054848E+03  0.35900800569E+03  0.00000000000E+00 0. -1.
        -13    1    3    3    0    0  0.23188678169E+03  0.43468708097E+03 -0.86872983706E+03  0.99870709805E+03  0.00000000000E+00 0.  1.
          4    1    6    6  502    0  0.25541401130E+02 -0.28999298214E+03  0.18088344168E+03  0.34273475508E+03  0.00000000000E+00 0. -1.
          3    1    5    5  503    0 -0.34178720036E+03 -0.19468746168E+02  0.13242444438E+04  0.13677795398E+04  0.00000000000E+00 0. -1.
         -2    1    5    5    0  503  0.39527619343E+01  0.29168465184E+01  0.13268220712E+02  0.14148427524E+02  0.00000000000E+00 0.  1.
         -3    1    6    6    0  502 -0.50735369978E+02 -0.25773186612E+03  0.14565928890E+03  0.30036048512E+03  0.00000000000E+00 0.  1.
<mgrwt>
<rscale>  0 0.33474590E+04</rscale>
<asrwt>0</asrwt>
<pdfrwt beam="1">  1        1 0.29769333E+00 0.33474590E+04</pdfrwt>
<pdfrwt beam="2">  1       -1 0.22272794E+00 0.33474590E+04</pdfrwt>
<totfact> 0.28763797E-01</totfact>
</mgrwt>
</event>
<event>
12    1  0.1489233E-007  0.1508198E+04  0.7818608E-02  0.8879019E-01
         -2   -1    0    0    0  501 -0.00000000000E+00  0.00000000000E+00  0.59371453699E+03  0.59371453699E+03  0.00000000000E+00 0.  1.
          2   -1    0    0  501    0  0.00000000000E+00 -0.00000000000E+00 -0.95780986269E+03  0.95780986269E+03  0.00000000000E+00 0. -1.
         23    2    1    2    0    0  0.47259938145E+03 -0.61668815649E+01 -0.33632196560E+02  0.48240752255E+03  0.90541081219E+02 0.  0.
        254    2    1    2    0    0 -0.47259938145E+03  0.61668815649E+01 -0.33046312914E+03  0.10691168771E+04  0.90023153215E+03 0.  0.
        -24    2    4    4    0    0 -0.50176356782E+03 -0.36302297004E+03 -0.12042160724E+03  0.63601004940E+03  0.80343417128E+02 0.  0.
         24    2    4    4    0    0  0.29164186372E+02  0.36918985160E+03 -0.21004152190E+03  0.43310682773E+03  0.79450531861E+02 0.  0.
         11    1    3    3    0    0  0.14796010210E+03 -0.31570822769E+02 -0.40804234485E+02  0.15669682261E+03  0.00000000000E+00 0. -1.
        -11    1    3    3    0    0  0.32463927935E+03  0.25403941204E+02  0.71720379254E+01  0.32571069994E+03  0.00000000000E+00 0.  1.
          4    1    6    6  502    0 -0.15458475506E+01  0.27199335071E+03 -0.18239488690E+03  0.32749147659E+03  0.00000000000E+00 0. -1.
          3    1    5    5  503    0 -0.97962857948E+02 -0.74182869639E+02  0.81802106023E+01  0.12315330093E+03  0.00000000000E+00 0. -1.
         -4    1    5    5    0  503 -0.40380070988E+03 -0.28884010040E+03 -0.12860181784E+03  0.51285674847E+03  0.00000000000E+00 0.  1.
         -3    1    6    6    0  502  0.30710033923E+02  0.97196500896E+02 -0.27646635006E+02  0.10561535114E+03  0.00000000000E+00 0.  1.
<mgrwt>
<rscale>  0 0.15081984E+04</rscale>
<asrwt>0</asrwt>
<pdfrwt beam="1">  1        2 0.14735536E+00 0.15081984E+04</pdfrwt>
<pdfrwt beam="2">  1       -2 0.91340698E-01 0.15081984E+04</pdfrwt>
<totfact> 0.26465133E+01</totfact>
</mgrwt>
</event>
<event>
12    1  0.1489233E-007  0.1797344E+04  0.7818608E-02  0.8707713E-01
          2   -1    0    0  501    0  0.00000000000E+00  0.00000000000E+00  0.12944323653E+04  0.12944323653E+04  0.00000000000E+00 0. -1.
         -2   -1    0    0    0  501 -0.00000000000E+00 -0.00000000000E+00 -0.62391172708E+03  0.62391172708E+03  0.00000000000E+00 0.  1.
         23    2    1    2    0    0  0.90465040243E+02  0.30627215335E+03  0.88523353744E+03  0.94563364401E+03  0.92725495176E+02 0.  0.
        254    2    1    2    0    0 -0.90465040243E+02 -0.30627215335E+03 -0.21471289918E+03  0.97271044841E+03  0.89335179630E+03 0.  0.
        -24    2    4    4    0    0 -0.25822409918E+03  0.23662866123E+03  0.13917215043E+01  0.35917431960E+03  0.79570385573E+02 0.  0.
         24    2    4    4    0    0  0.16775905894E+03 -0.54290081458E+03 -0.21610462069E+03  0.61353612881E+03  0.82710204626E+02 0.  0.
         13    1    3    3    0    0  0.96975635137E+02  0.31005108003E+03  0.86906987710E+03  0.92780299488E+03  0.00000000000E+00 0. -1.
        -13    1    3    3    0    0 -0.65105948937E+01 -0.37789266763E+01  0.16163660337E+02  0.17830649124E+02  0.00000000000E+00 0.  1.
          2    1    6    6  502    0  0.71648153972E+02 -0.34282965940E+03 -0.15717526435E+03  0.38388760993E+03  0.00000000000E+00 0. -1.
          3    1    5    5  503    0 -0.18918394665E+03  0.21595274481E+03  0.16391602743E+01  0.28710423283E+03  0.00000000000E+00 0. -1.
         -4    1    5    5    0  503 -0.69040152536E+02  0.20675916413E+02 -0.24743877003E+00  0.72070086775E+02  0.00000000000E+00 0.  1.
         -3    1    6    6    0  502  0.96110904966E+02 -0.20007115518E+03 -0.58929356340E+02  0.22964851889E+03  0.00000000000E+00 0.  1.
<mgrwt>
<rscale>  0 0.17973442E+04</rscale>
<asrwt>0</asrwt>
<pdfrwt beam="1">  1        2 0.19914344E+00 0.17973442E+04</pdfrwt>
<pdfrwt beam="2">  1       -2 0.95986420E-01 0.17973442E+04</pdfrwt>
<totfact> 0.14309852E+01</totfact>
</mgrwt>
</event>
<event>
12    1  0.1489233E-007  0.1475201E+04  0.7818608E-02  0.8901113E-01
          1   -1    0    0  501    0  0.00000000000E+00  0.00000000000E+00  0.25974892711E+03  0.25974892711E+03  0.00000000000E+00 0. -1.
         -1   -1    0    0    0  501 -0.00000000000E+00 -0.00000000000E+00 -0.20945400590E+04  0.20945400590E+04  0.00000000000E+00 0.  1.
         23    2    1    2    0    0 -0.35324285613E+03 -0.12930833246E+03 -0.16785606723E+03  0.42343454491E+03  0.98081569429E+02 0.  0.
        254    2    1    2    0    0  0.35324285613E+03  0.12930833246E+03 -0.16669350646E+04  0.19308544412E+04  0.89890222107E+03 0.  0.
        -24    2    4    4    0    0  0.21982829113E+03 -0.14240082660E+03 -0.40921551411E+02  0.27500007361E+03  0.73129980974E+02 0.  0.
         24    2    4    4    0    0  0.13341456500E+03  0.27170915906E+03 -0.16260135132E+04  0.16558543676E+04  0.79425613788E+02 0.  0.
         11    1    3    3    0    0 -0.26559501809E+03 -0.74393986072E+02 -0.16192296959E+03  0.31983468680E+03  0.00000000000E+00 0. -1.
        -11    1    3    3    0    0 -0.87647838047E+02 -0.54914346389E+02 -0.59330976435E+01  0.10359985811E+03  0.00000000000E+00 0.  1.
          2    1    6    6  502    0  0.11871865410E+03  0.24073816909E+03 -0.12619764487E+04  0.12902067826E+04  0.00000000000E+00 0. -1.
          3    1    5    5  503    0  0.21032813307E+03 -0.13499105206E+03 -0.55579015574E+02  0.25602643354E+03  0.00000000000E+00 0. -1.
         -4    1    5    5    0  503  0.95001580571E+01 -0.74097745431E+01  0.14657464163E+02  0.18973640072E+02  0.00000000000E+00 0.  1.
         -3    1    6    6    0  502  0.14695910906E+02  0.30970989970E+02 -0.36403706452E+03  0.36564758493E+03  0.00000000000E+00 0.  1.
<mgrwt>
<rscale>  0 0.14752010E+04</rscale>
<asrwt>0</asrwt>
<pdfrwt beam="1">  1        1 0.39961373E-01 0.14752010E+04</pdfrwt>
<pdfrwt beam="2">  1       -1 0.32223693E+00 0.14752010E+04</pdfrwt>
<totfact> 0.24365667E+00</totfact>
</mgrwt>
</event>
<event>
12    1  0.1489233E-007  0.1403020E+04  0.7818608E-02  0.8951635E-01
         -2   -1    0    0    0  501 -0.00000000000E+00  0.00000000000E+00  0.41500592959E+03  0.41500592959E+03  0.00000000000E+00 0.  1.
          2   -1    0    0  501    0  0.00000000000E+00 -0.00000000000E+00 -0.11858060277E+04  0.11858060277E+04  0.00000000000E+00 0. -1.
         23    2    1    2    0    0  0.16983834163E+03  0.17504119036E+03 -0.60376754723E+03  0.65755051530E+03  0.91394466366E+02 0.  0.
        254    2    1    2    0    0 -0.16983834163E+03 -0.17504119036E+03 -0.16703255088E+03  0.94326144198E+03  0.89574426834E+03 0.  0.
        -24    2    4    4    0    0 -0.18201696092E+03  0.34103833987E+03  0.28813049449E+00  0.39455690034E+03  0.78979372400E+02 0.  0.
         24    2    4    4    0    0  0.12178619293E+02 -0.51607953023E+03 -0.16732068137E+03  0.54870454164E+03  0.81203838010E+02 0.  0.
         11    1    3    3    0    0 -0.77507008304E+01  0.22283976021E+02 -0.87494743427E+02  0.90619970636E+02  0.00000000000E+00 0.  1.
        -11    1    3    3    0    0  0.17758904246E+03  0.15275721434E+03 -0.51627280380E+03  0.56693054467E+03  0.00000000000E+00 0. -1.
          4    1    6    6  502    0 -0.10357624231E+02 -0.14683076942E+02 -0.17095956788E+02  0.24802114158E+02  0.00000000000E+00 0. -1.
          1    1    5    5  503    0 -0.98636356926E+02  0.10609571202E+03 -0.83890186237E+01  0.14510619095E+03  0.00000000000E+00 0. -1.
         -2    1    5    5    0  503 -0.83380603999E+02  0.23494262784E+03  0.86771491182E+01  0.24945070940E+03  0.00000000000E+00 0.  1.
         -3    1    6    6    0  502  0.22536243523E+02 -0.50139645329E+03 -0.15022472458E+03  0.52390242748E+03  0.00000000000E+00 0.  1.
<mgrwt>
<rscale>  0 0.14030204E+04</rscale>
<asrwt>0</asrwt>
<pdfrwt beam="1">  1        2 0.18243169E+00 0.14030204E+04</pdfrwt>
<pdfrwt beam="2">  1       -2 0.63847068E-01 0.14030204E+04</pdfrwt>
<totfact> 0.42645165E+01</totfact>
</mgrwt>
</event>
<event>
12    1  0.1489233E-007  0.1647515E+04  0.7818608E-02  0.8791878E-01
          2   -1    0    0  501    0  0.00000000000E+00  0.00000000000E+00  0.29104613058E+04  0.29104613058E+04  0.00000000000E+00 0. -1.
         -2   -1    0    0    0  501 -0.00000000000E+00 -0.00000000000E+00 -0.23315072565E+03  0.23315072565E+03  0.00000000000E+00 0.  1.
         23    2    1    2    0    0 -0.28605131283E+03  0.23316123225E+03  0.10631608682E+03  0.39429908778E+03  0.89326068493E+02 0.  0.
        254    2    1    2    0    0  0.28605131283E+03 -0.23316123225E+03  0.25709944933E+04  0.27493129436E+04  0.90139861530E+03 0.  0.
        -24    2    4    4    0    0 -0.20085166450E+03 -0.30056562930E+03  0.52279534873E+03  0.64143856453E+03  0.86298127195E+02 0.  0.
         24    2    4    4    0    0  0.48690297733E+03  0.67404397054E+02  0.20481991446E+04  0.21078743791E+04  0.79979998860E+02 0.  0.
         13    1    3    3    0    0 -0.24644075947E+03  0.21921670173E+03  0.11866320464E+03  0.35052812495E+03  0.00000000000E+00 0.  1.
        -13    1    3    3    0    0 -0.39610553355E+02  0.13944530524E+02 -0.12347117820E+02  0.43770962830E+02  0.00000000000E+00 0. -1.
          4    1    6    6  502    0  0.12281411191E+03  0.80505019898E+01  0.38243619185E+03  0.40175310516E+03  0.00000000000E+00 0. -1.
          3    1    5    5  503    0  0.84857686200E+01 -0.18451003207E+02  0.30996098937E+02  0.37056793408E+02  0.00000000000E+00 0. -1.
         -4    1    5    5    0  503 -0.20933743312E+03 -0.28211462610E+03  0.49179924980E+03  0.60438177112E+03  0.00000000000E+00 0.  1.
         -3    1    6    6    0  502  0.36408886542E+03  0.59353895065E+02  0.16657629527E+04  0.17061212739E+04  0.00000000000E+00 0.  1.
<mgrwt>
<rscale>  0 0.16475147E+04</rscale>
<asrwt>0</asrwt>
<pdfrwt beam="1">  1        2 0.44776325E+00 0.16475147E+04</pdfrwt>
<pdfrwt beam="2">  1       -2 0.35869344E-01 0.16475147E+04</pdfrwt>
<totfact> 0.13886279E+01</totfact>
</mgrwt>
</event>
<event>
12    1  0.1489233E-007  0.1427504E+04  0.7818608E-02  0.8934147E-01
         -1   -1    0    0    0  501 -0.00000000000E+00  0.00000000000E+00  0.17919374241E+04  0.17919374241E+04  0.00000000000E+00 0.  1.
          1   -1    0    0  501    0  0.00000000000E+00 -0.00000000000E+00 -0.28429675318E+03  0.28429675318E+03  0.00000000000E+00 0. -1.
         23    2    1    2    0    0 -0.19745958020E+03 -0.27924943730E+03  0.55350471885E+03  0.65697446741E+03  0.90980453928E+02 0.  0.
        254    2    1    2    0    0  0.19745958020E+03  0.27924943730E+03  0.95413595203E+03  0.14192597098E+04  0.99345466679E+03 0.  0.
        -24    2    4    4    0    0  0.52701034427E+03  0.12268283131E+03  0.88342554120E+03  0.10389921509E+04  0.79202416055E+02 0.  0.
         24    2    4    4    0    0 -0.32955076408E+03  0.15656660599E+03  0.70710410829E+02  0.38026755894E+03  0.80539716711E+02 0.  0.
         13    1    3    3    0    0 -0.13305918222E+03 -0.20052057247E+03  0.30534338275E+03  0.38877734932E+03  0.00000000000E+00 0.  1.
        -13    1    3    3    0    0 -0.64400397978E+02 -0.78728864834E+02  0.24816133610E+03  0.26819711809E+03  0.00000000000E+00 0. -1.
          4    1    6    6  502    0 -0.26257047648E+03  0.93270704886E+02  0.32609885253E+02  0.28054604636E+03  0.00000000000E+00 0. -1.
          3    1    5    5  503    0  0.50134070357E+03  0.11674387818E+03  0.79819957529E+03  0.94978639501E+03  0.00000000000E+00 0. -1.
         -4    1    5    5    0  503  0.25669640701E+02  0.59389531314E+01  0.85225965911E+02  0.89205755888E+02  0.00000000000E+00 0.  1.
         -3    1    6    6    0  502 -0.66980287593E+02  0.63295901102E+02  0.38100525576E+02  0.99721512582E+02  0.00000000000E+00 0.  1.
<mgrwt>
<rscale>  0 0.14275041E+04</rscale>
<asrwt>0</asrwt>
<pdfrwt beam="1">  1        1 0.43737963E-01 0.14275041E+04</pdfrwt>
<pdfrwt beam="2">  1       -1 0.27568267E+00 0.14275041E+04</pdfrwt>
<totfact> 0.43520873E+00</totfact>
</mgrwt>
</event>
<event>
12    1  0.1489233E-007  0.1513399E+04  0.7818608E-02  0.8875591E-01
         -2   -1    0    0    0  501 -0.00000000000E+00  0.00000000000E+00  0.42974207053E+03  0.42974207053E+03  0.00000000000E+00 0.  1.
          2   -1    0    0  501    0  0.00000000000E+00 -0.00000000000E+00 -0.13324136569E+04  0.13324136569E+04  0.00000000000E+00 0. -1.
         23    2    1    2    0    0 -0.20771976795E+03  0.91904845820E+02  0.20870551355E+03  0.32151490755E+03  0.90663342705E+02 0.  0.
        254    2    1    2    0    0  0.20771976795E+03 -0.91904845820E+02 -0.11113770999E+04  0.14406408199E+04  0.88808384233E+03 0.  0.
        -24    2    4    4    0    0 -0.23707295315E+03 -0.44590212774E+02 -0.90859828691E+03  0.94346971262E+03  0.79952357422E+02 0.  0.
         24    2    4    4    0    0  0.44479272109E+03 -0.47314633046E+02 -0.20277881301E+03  0.49717110727E+03  0.77334492059E+02 0.  0.
         13    1    3    3    0    0 -0.12533522991E+03  0.12988313573E+02  0.78758677923E+02  0.14859524048E+03  0.00000000000E+00 0. -1.
        -13    1    3    3    0    0 -0.82384538035E+02  0.78916532247E+02  0.12994683562E+03  0.17291966706E+03  0.00000000000E+00 0.  1.
          2    1    6    6  502    0  0.69108847411E+02 -0.32909346768E+02 -0.19886402581E+02  0.79085566969E+02  0.00000000000E+00 0. -1.
          1    1    5    5  503    0 -0.14404527272E+03 -0.91910293123E+01 -0.40054264707E+03  0.42575571368E+03  0.00000000000E+00 0. -1.
         -2    1    5    5    0  503 -0.93027680424E+02 -0.35399183462E+02 -0.50805563984E+03  0.51771399893E+03  0.00000000000E+00 0.  1.
         -1    1    6    6    0  502  0.37568387368E+03 -0.14405286279E+02 -0.18289241043E+03  0.41808554030E+03  0.00000000000E+00 0.  1.
<mgrwt>
<rscale>  0 0.15133991E+04</rscale>
<asrwt>0</asrwt>
<pdfrwt beam="1">  1        2 0.20498671E+00 0.15133991E+04</pdfrwt>
<pdfrwt beam="2">  1       -2 0.66114167E-01 0.15133991E+04</pdfrwt>
<totfact> 0.32153755E+01</totfact>
</mgrwt>
</event>
<event>
12    1  0.1489233E-007  0.1797938E+04  0.7818608E-02  0.8707397E-01
          1   -1    0    0  501    0  0.00000000000E+00  0.00000000000E+00  0.22740484918E+04  0.22740484918E+04  0.00000000000E+00 0. -1.
         -1   -1    0    0    0  501 -0.00000000000E+00 -0.00000000000E+00 -0.35537750889E+03  0.35537750889E+03  0.00000000000E+00 0.  1.
         23    2    1    2    0    0  0.52177448750E+03  0.11332768542E+03  0.13319177868E+03  0.55775608361E+03  0.90884645566E+02 0.  0.
        254    2    1    2    0    0 -0.52177448750E+03 -0.11332768542E+03  0.17854792042E+04  0.20716699171E+04  0.90486931461E+03 0.  0.
        -24    2    4    4    0    0 -0.25367566300E+03 -0.15925501587E+03  0.51247662763E+02  0.31440402694E+03  0.80684987045E+02 0.  0.
         24    2    4    4    0    0 -0.26809882450E+03  0.45927330455E+02  0.17342315414E+04  0.17572658901E+04  0.80237584049E+02 0.  0.
         13    1    3    3    0    0  0.26875277312E+02  0.27798031412E+01  0.29804528063E+02  0.40228319990E+02  0.00000000000E+00 0. -1.
        -13    1    3    3    0    0  0.49489921019E+03  0.11054788228E+03  0.10338725062E+03  0.51752776362E+03  0.00000000000E+00 0.  1.
          2    1    6    6  502    0 -0.82357124057E+02  0.52594210931E+02  0.60542735369E+03  0.61326269045E+03  0.00000000000E+00 0. -1.
          3    1    5    5  503    0 -0.31373777289E+02 -0.14632428509E+02  0.34182290132E+02  0.48650291100E+02  0.00000000000E+00 0. -1.
         -4    1    5    5    0  503 -0.22230188572E+03 -0.14462258736E+03  0.17065372630E+02  0.26575373584E+03  0.00000000000E+00 0.  1.
         -1    1    6    6    0  502 -0.18574170044E+03 -0.66668804760E+01  0.11288041877E+04  0.11440031997E+04  0.00000000000E+00 0.  1.
<mgrwt>
<rscale>  0 0.17979385E+04</rscale>
<asrwt>0</asrwt>
<pdfrwt beam="1">  1        1 0.34985361E+00 0.17979385E+04</pdfrwt>
<pdfrwt beam="2">  1       -1 0.54673464E-01 0.17979385E+04</pdfrwt>
<totfact> 0.61883447E+00</totfact>
</mgrwt>
</event>
<event>
12    1  0.1612043E-007  0.2289542E+04  0.7818608E-02  0.8482056E-01
          2   -1    0    0  501    0  0.00000000000E+00  0.00000000000E+00  0.12976297487E+04  0.12976297487E+04  0.00000000000E+00 0. -1.
         -2   -1    0    0    0  501 -0.00000000000E+00 -0.00000000000E+00 -0.10099186249E+04  0.10099186249E+04  0.00000000000E+00 0.  1.
         23    2    1    2    0    0 -0.28479168333E+03 -0.76687645517E+03 -0.38277949373E+03  0.90714094245E+03  0.84727494043E+02 0.  0.
        254    2    1    2    0    0  0.28479168333E+03  0.76687645517E+03  0.67049061751E+03  0.14004074311E+04  0.91781125761E+03 0.  0.
        -24    2    4    4    0    0  0.12462921462E+03  0.91035248316E+03  0.31254282553E+03  0.97381413639E+03  0.79729980006E+02 0.  0.
         24    2    4    4    0    0  0.16016246871E+03 -0.14347602799E+03  0.35794779198E+03  0.42659329473E+03  0.87280182974E+02 0.  0.
         11    1    3    3    0    0 -0.10125065465E+03 -0.28950376559E+03 -0.99201189818E+02  0.32234298723E+03  0.00000000000E+00 0. -1.
        -11    1    3    3    0    0 -0.18354102869E+03 -0.47737268959E+03 -0.28357830392E+03  0.58479795522E+03  0.00000000000E+00 0.  1.
          2    1    6    6  502    0  0.35735589841E+02 -0.20066928616E+02  0.19329996315E+02  0.45314045978E+02  0.00000000000E+00 0. -1.
          3    1    5    5  503    0  0.64221627881E+01  0.25202749159E+03  0.10911520274E+03  0.27470935215E+03  0.00000000000E+00 0. -1.
         -4    1    5    5    0  503  0.11820705183E+03  0.65832499158E+03  0.20342762279E+03  0.69910478424E+03  0.00000000000E+00 0.  1.
         -1    1    6    6    0  502  0.12442687887E+03 -0.12340909937E+03  0.33861779566E+03  0.38127924876E+03  0.00000000000E+00 0.  1.
<mgrwt>
<rscale>  0 0.22895418E+04</rscale>
<asrwt>0</asrwt>
<pdfrwt beam="1">  1        2 0.19963535E+00 0.22895418E+04</pdfrwt>
<pdfrwt beam="2">  1       -2 0.15537210E+00 0.22895418E+04</pdfrwt>
<totfact> 0.41050270E+00</totfact>
</mgrwt>
</event>
<event>
12    1  0.1489233E-007  0.1481306E+04  0.7818608E-02  0.8896980E-01
          2   -1    0    0  501    0  0.00000000000E+00  0.00000000000E+00  0.21599845510E+04  0.21599845510E+04  0.00000000000E+00 0. -1.
         -2   -1    0    0    0  501 -0.00000000000E+00 -0.00000000000E+00 -0.25396791625E+03  0.25396791625E+03  0.00000000000E+00 0.  1.
         23    2    1    2    0    0  0.46569953457E+03  0.16624927011E+02  0.70062154202E+03  0.84702888000E+03  0.97133586893E+02 0.  0.
        254    2    1    2    0    0 -0.46569953457E+03 -0.16624927011E+02  0.12053950927E+04  0.15669235873E+04  0.88606983585E+03 0.  0.
        -24    2    4    4    0    0 -0.52497911105E+03  0.27632380077E+03  0.44611549172E+03  0.74666954461E+03  0.80860787719E+02 0.  0.
         24    2    4    4    0    0  0.59279576476E+02 -0.29294872778E+03  0.75927960101E+03  0.82025404264E+03  0.83535361701E+02 0.  0.
         13    1    3    3    0    0  0.44011955575E+03  0.30484861246E+02  0.68274887464E+03  0.81288410979E+03  0.00000000000E+00 0. -1.
        -13    1    3    3    0    0  0.25579978819E+02 -0.13859934235E+02  0.17872667386E+02  0.34144770212E+02  0.00000000000E+00 0.  1.
          4    1    6    6  502    0  0.59398271766E+02 -0.22721756777E+03  0.49447762329E+03  0.54741583620E+03  0.00000000000E+00 0. -1.
          1    1    5    5  503    0 -0.19844122288E+03  0.12737243724E+03  0.13514744186E+03  0.27178573868E+03  0.00000000000E+00 0. -1.
         -2    1    5    5    0  503 -0.32653788817E+03  0.14895136353E+03  0.31096804986E+03  0.47488380594E+03  0.00000000000E+00 0.  1.
         -1    1    6    6    0  502 -0.11869529019E+00 -0.65731160018E+02  0.26480197772E+03  0.27283820644E+03  0.00000000000E+00 0.  1.
<mgrwt>
<rscale>  0 0.14813059E+04</rscale>
<asrwt>0</asrwt>
<pdfrwt beam="1">  1        2 0.33230530E+00 0.14813059E+04</pdfrwt>
<pdfrwt beam="2">  1       -2 0.39071989E-01 0.14813059E+04</pdfrwt>
<totfact> 0.32614411E+01</totfact>
</mgrwt>
</event>
<event>
12    1  0.1489233E-007  0.1879774E+04  0.7818608E-02  0.8664990E-01
         -1   -1    0    0    0  501 -0.00000000000E+00  0.00000000000E+00  0.97386163740E+03  0.97386163740E+03  0.00000000000E+00 0. -1.
          1   -1    0    0  501    0  0.00000000000E+00 -0.00000000000E+00 -0.90709722659E+03  0.90709722659E+03  0.00000000000E+00 0.  1.
         23    2    1    2    0    0 -0.31102882787E+02 -0.49404272646E+03 -0.49181105319E+03  0.70377013758E+03  0.91480542317E+02 0.  0.
        254    2    1    2    0    0  0.31102882787E+02  0.49404272646E+03  0.55857546400E+03  0.11771887264E+04  0.91034122379E+03 0.  0.
        -24    2    4    4    0    0  0.42401502979E+03  0.46385876294E+03  0.32129508043E+03  0.71031202723E+03  0.79743023963E+02 0.  0.
         24    2    4    4    0    0 -0.39291214701E+03  0.30183963525E+02  0.23728038358E+03  0.46687669919E+03  0.79880190885E+02 0.  0.
         13    1    3    3    0    0  0.21892241796E+02 -0.33543207703E+03 -0.33185661558E+03  0.47235872158E+03  0.00000000000E+00 0.  1.
        -13    1    3    3    0    0 -0.52995124583E+02 -0.15861064943E+03 -0.15995443762E+03  0.23141141600E+03  0.00000000000E+00 0. -1.
          2    1    6    6  502    0 -0.28199011891E+03  0.40330751594E+02  0.13332129253E+03  0.31451480685E+03  0.00000000000E+00 0. -1.
          1    1    5    5  503    0  0.40758121339E+03  0.42775366123E+03  0.28280079450E+03  0.65503582312E+03  0.00000000000E+00 0. -1.
         -2    1    5    5    0  503  0.16433816403E+02  0.36105101704E+02  0.38494285932E+02  0.55276204103E+02  0.00000000000E+00 0.  1.
         -1    1    6    6    0  502 -0.11092202809E+03 -0.10146788069E+02  0.10395909105E+03  0.15236189233E+03  0.00000000000E+00 0.  1.
<mgrwt>
<rscale>  0 0.18797736E+04</rscale>
<asrwt>0</asrwt>
<pdfrwt beam="1">  1        1 0.13955342E+00 0.18797736E+04</pdfrwt>
<pdfrwt beam="2">  1       -1 0.14982487E+00 0.18797736E+04</pdfrwt>
<totfact> 0.58901135E+00</totfact>
</mgrwt>
</event>
<event>
12    1  0.1489233E-007  0.2313660E+04  0.7818608E-02  0.8472555E-01
          1   -1    0    0  501    0  0.00000000000E+00  0.00000000000E+00  0.23784097905E+04  0.23784097905E+04  0.00000000000E+00 0. -1.
         -1   -1    0    0    0  501 -0.00000000000E+00 -0.00000000000E+00 -0.56266806380E+03  0.56266806380E+03  0.00000000000E+00 0.  1.
         23    2    1    2    0    0 -0.66464207482E+03 -0.79781241588E+02 -0.14009546676E+03  0.68979680303E+03  0.89881897754E+02 0.  0.
        254    2    1    2    0    0  0.66464207482E+03  0.79781241588E+02  0.19558371934E+04  0.22512810513E+04  0.89154534958E+03 0.  0.
        -24    2    4    4    0    0  0.31229680267E+03  0.16280582251E+03  0.18230336073E+04  0.18584655948E+04  0.80048766460E+02 0.  0.
         24    2    4    4    0    0  0.35234527214E+03 -0.83024580920E+02  0.13280358613E+03  0.39281545642E+03  0.75012788715E+02 0.  0.
         13    1    3    3    0    0 -0.43065365302E+03 -0.24148371360E+02 -0.55717261512E+02  0.43491392934E+03  0.00000000000E+00 0.  1.
        -13    1    3    3    0    0 -0.23398842179E+03 -0.55632870228E+02 -0.84378205245E+02  0.25488287369E+03  0.00000000000E+00 0. -1.
          4    1    6    6  502    0  0.51487820816E+02 -0.39966724386E+02  0.32005523155E+02  0.72613278833E+02  0.00000000000E+00 0. -1.
          3    1    5    5  503    0  0.12233906071E+03  0.10711559559E+03  0.76872572149E+03  0.78573521715E+03  0.00000000000E+00 0. -1.
         -4    1    5    5    0  503  0.18995774196E+03  0.55690226918E+02  0.10543078858E+04  0.10727303777E+04  0.00000000000E+00 0.  1.
         -3    1    6    6    0  502  0.30085745133E+03 -0.43057856534E+02  0.10079806298E+03  0.32020217758E+03  0.00000000000E+00 0.  1.
<mgrwt>
<rscale>  0 0.23136596E+04</rscale>
<asrwt>0</asrwt>
<pdfrwt beam="1">  1        1 0.36590919E+00 0.23136596E+04</pdfrwt>
<pdfrwt beam="2">  1       -1 0.86564319E-01 0.23136596E+04</pdfrwt>
<totfact> 0.19526428E+00</totfact>
</mgrwt>
</event>
<event>
12    1  0.1489233E-007  0.1514541E+04  0.7818608E-02  0.8874840E-01
          2   -1    0    0  501    0  0.00000000000E+00  0.00000000000E+00  0.55376011211E+03  0.55376011211E+03  0.00000000000E+00 0.  1.
         -2   -1    0    0    0  501 -0.00000000000E+00 -0.00000000000E+00 -0.10355725956E+04  0.10355725956E+04  0.00000000000E+00 0. -1.
         23    2    1    2    0    0  0.10405535485E+03  0.31874488677E+03 -0.52260259067E+03  0.62744844977E+03  0.90289919872E+02 0.  0.
        254    2    1    2    0    0 -0.10405535485E+03 -0.31874488677E+03  0.40790107179E+02  0.96188425794E+03  0.90062848785E+03 0.  0.
        -24    2    4    4    0    0 -0.31759834901E+03 -0.12832086999E+03 -0.33314091044E+03  0.48408198174E+03  0.77572816516E+02 0.  0.
         24    2    4    4    0    0  0.21354299416E+03 -0.19042401678E+03  0.37393101762E+03  0.47780227620E+03  0.81293866217E+02 0.  0.
         11    1    3    3    0    0  0.41349871322E+02  0.25305473231E+03 -0.38303823051E+03  0.46093903657E+03  0.00000000000E+00 0. -1.
        -11    1    3    3    0    0  0.62705483529E+02  0.65690154462E+02 -0.13956436016E+03  0.16650941320E+03  0.00000000000E+00 0.  1.
          4    1    6    6  502    0  0.13289773426E+02 -0.43914696546E+02  0.87843473453E+02  0.99103957937E+02  0.00000000000E+00 0. -1.
          3    1    5    5  503    0 -0.18454892935E+01 -0.15659218203E+02 -0.18513031933E+02  0.24317674576E+02  0.00000000000E+00 0. -1.
         -4    1    5    5    0  503 -0.31575285972E+03 -0.11266165179E+03 -0.31462787851E+03  0.45976430716E+03  0.00000000000E+00 0.  1.
         -3    1    6    6    0  502  0.20025322074E+03 -0.14650932023E+03  0.28608754417E+03  0.37869831827E+03  0.00000000000E+00 0.  1.
<mgrwt>
<rscale>  0 0.15145412E+04</rscale>
<asrwt>0</asrwt>
<pdfrwt beam="1">  1        2 0.85193864E-01 0.15145412E+04</pdfrwt>
<pdfrwt beam="2">  1       -2 0.15931886E+00 0.15145412E+04</pdfrwt>
<totfact> 0.13418771E+01</totfact>
</mgrwt>
</event>
<event>
12    1  0.1489233E-007  0.1159503E+04  0.7818608E-02  0.9149061E-01
         -1   -1    0    0    0  501 -0.00000000000E+00  0.00000000000E+00  0.36350159032E+03  0.36350159032E+03  0.00000000000E+00 0.  1.
          1   -1    0    0  501    0  0.00000000000E+00 -0.00000000000E+00 -0.92465065832E+03  0.92465065832E+03  0.00000000000E+00 0. -1.
         23    2    1    2    0    0 -0.85011922912E+02 -0.61845873876E+02  0.98949392403E+02  0.17119574630E+03  0.92005772332E+02 0.  0.
        254    2    1    2    0    0  0.85011922912E+02  0.61845873876E+02 -0.66009846041E+03  0.11169565023E+04  0.89487983077E+03 0.  0.
        -24    2    4    4    0    0  0.43887644415E+03 -0.46461713920E+02 -0.13288117380E+03  0.46786863536E+03  0.80451410865E+02 0.  0.
         24    2    4    4    0    0 -0.35386452124E+03  0.10830758780E+03 -0.52721728661E+03  0.64908786697E+03  0.80039732552E+02 0.  0.
         11    1    3    3    0    0 -0.95401940297E+01 -0.33748699746E+01 -0.17742150737E+02  0.20425204093E+02  0.00000000000E+00 0. -1.
        -11    1    3    3    0    0 -0.75471728882E+02 -0.58471003902E+02  0.11669154314E+03  0.15077054221E+03  0.00000000000E+00 0.  1.
          4    1    6    6  502    0 -0.89311729967E+02 -0.12863767627E+01 -0.16202171576E+03  0.18501155708E+03  0.00000000000E+00 0. -1.
          1    1    5    5  503    0  0.26976098688E+03  0.83851031721E+01 -0.65369441277E+02  0.27769491146E+03  0.00000000000E+00 0. -1.
         -2    1    5    5    0  503  0.16911545727E+03 -0.54846817092E+02 -0.67511732525E+02  0.19017372390E+03  0.00000000000E+00 0.  1.
         -3    1    6    6    0  502 -0.26455279127E+03  0.10959396456E+03 -0.36519557084E+03  0.46407630989E+03  0.00000000000E+00 0.  1.
<mgrwt>
<rscale>  0 0.11595033E+04</rscale>
<asrwt>0</asrwt>
<pdfrwt beam="1">  1        1 0.14225395E+00 0.11595033E+04</pdfrwt>
<pdfrwt beam="2">  1       -1 0.55923322E-01 0.11595033E+04</pdfrwt>
<totfact> 0.55767586E+01</totfact>
</mgrwt>
</event>
<event>
12    1  0.1489233E-007  0.2071892E+04  0.7818608E-02  0.8573727E-01
          2   -1    0    0  501    0  0.00000000000E+00  0.00000000000E+00  0.25955879324E+04  0.25955879324E+04  0.00000000000E+00 0. -1.
         -2   -1    0    0    0  501 -0.00000000000E+00 -0.00000000000E+00 -0.41346461420E+03  0.41346461420E+03  0.00000000000E+00 0.  1.
         23    2    1    2    0    0  0.68757475267E+03  0.37223537284E+03  0.45294136009E+03  0.90809221814E+03  0.90318257587E+02 0.  0.
        254    2    1    2    0    0 -0.68757475267E+03 -0.37223537284E+03  0.17291819581E+04  0.21009603285E+04  0.90146871507E+03 0.  0.
        -24    2    4    4    0    0 -0.42877303370E+03  0.11630707040E+03  0.24189782120E+03  0.51204256981E+03  0.79368686175E+02 0.  0.
         24    2    4    4    0    0 -0.25880171896E+03 -0.48854244324E+03  0.14872841369E+04  0.15889177587E+04  0.83627096527E+02 0.  0.
         13    1    3    3    0    0  0.21507097699E+03  0.12017337906E+03  0.95502604674E+02  0.26423079623E+03  0.00000000000E+00 0. -1.
        -13    1    3    3    0    0  0.47250377568E+03  0.25206199379E+03  0.35743875542E+03  0.64386142190E+03  0.00000000000E+00 0.  1.
          2    1    6    6  502    0 -0.24931260902E+03 -0.48850311301E+03  0.14728031132E+04  0.15716046191E+04  0.00000000000E+00 0. -1.
          1    1    5    5  503    0 -0.35612375757E+03  0.70155866711E+02  0.17455935472E+03  0.40276164745E+03  0.00000000000E+00 0. -1.
         -2    1    5    5    0  503 -0.72649276137E+02  0.46151203686E+02  0.67338466474E+02  0.10928092236E+03  0.00000000000E+00 0.  1.
         -1    1    6    6    0  502 -0.94891099448E+01 -0.39330227448E-01  0.14481023701E+02  0.17313139572E+02  0.00000000000E+00 0.  1.
<mgrwt>
<rscale>  0 0.20718917E+04</rscale>
<asrwt>0</asrwt>
<pdfrwt beam="1">  1        2 0.39932121E+00 0.20718917E+04</pdfrwt>
<pdfrwt beam="2">  1       -2 0.63609942E-01 0.20718917E+04</pdfrwt>
<totfact> 0.64705245E+00</totfact>
</mgrwt>
</event>
<event>
12    1  0.1489233E-007  0.2689425E+04  0.7818608E-02  0.8338444E-01
         -2   -1    0    0    0  501 -0.00000000000E+00  0.00000000000E+00  0.67883672904E+03  0.67883672904E+03  0.00000000000E+00 0.  1.
          2   -1    0    0  501    0  0.00000000000E+00 -0.00000000000E+00 -0.26637499699E+04  0.26637499699E+04  0.00000000000E+00 0. -1.
         23    2    1    2    0    0 -0.88512724419E+03 -0.59407422099E+03 -0.21993943860E+03  0.10922948104E+04  0.91434007933E+02 0.  0.
        254    2    1    2    0    0  0.88512724419E+03  0.59407422099E+03 -0.17649738023E+04  0.22502918885E+04  0.90128055697E+03 0.  0.
        -24    2    4    4    0    0  0.28477444823E+03 -0.20904802997E+03 -0.68078310629E+03  0.77132802812E+03  0.81754045508E+02 0.  0.
         24    2    4    4    0    0  0.60035279596E+03  0.80312225096E+03 -0.10841906960E+04  0.14789638604E+04  0.80223472290E+02 0.  0.
         11    1    3    3    0    0 -0.83275068988E+03 -0.57933609431E+03 -0.19779555250E+03  0.10335507255E+04  0.00000000000E+00 0.  1.
        -11    1    3    3    0    0 -0.52376554311E+02 -0.14738126678E+02 -0.22143886099E+02  0.58744084903E+02  0.00000000000E+00 0. -1.
          2    1    6    6  502    0  0.14760365448E+03  0.14401553132E+03 -0.22917793638E+03  0.30830153844E+03  0.00000000000E+00 0. -1.
          3    1    5    5  503    0  0.78389504577E+02 -0.57432310316E+02 -0.27321210022E+03  0.28997971723E+03  0.00000000000E+00 0. -1.
         -4    1    5    5    0  503  0.20638494365E+03 -0.15161571965E+03 -0.40757100607E+03  0.48134831090E+03  0.00000000000E+00 0.  1.
         -1    1    6    6    0  502  0.45274914148E+03  0.65910671963E+03 -0.85501275959E+03  0.11706623220E+04  0.00000000000E+00 0.  1.
<mgrwt>
<rscale>  0 0.26894247E+04</rscale>
<asrwt>0</asrwt>
<pdfrwt beam="1">  1        2 0.40980769E+00 0.26894247E+04</pdfrwt>
<pdfrwt beam="2">  1       -2 0.10443642E+00 0.26894247E+04</pdfrwt>
<totfact> 0.18240849E+00</totfact>
</mgrwt>
</event>
<event>
12    1  0.1489233E-007  0.1611451E+04  0.7818608E-02  0.8813544E-01
         -1   -1    0    0    0  501 -0.00000000000E+00  0.00000000000E+00  0.16713275816E+04  0.16713275816E+04  0.00000000000E+00 0.  1.
          1   -1    0    0  501    0  0.00000000000E+00 -0.00000000000E+00 -0.38842984849E+03  0.38842984849E+03  0.00000000000E+00 0. -1.
         23    2    1    2    0    0  0.67649647880E+02  0.44809532258E+03  0.84454886963E+03  0.96251474642E+03  0.88351292581E+02 0.  0.
        254    2    1    2    0    0 -0.67649647880E+02 -0.44809532258E+03  0.43834886352E+03  0.10972426837E+04  0.89801218690E+03 0.  0.
        -24    2    4    4    0    0 -0.57720790639E+02  0.12193862275E+03 -0.18871560069E+03  0.24585613245E+03  0.81430599470E+02 0.  0.
         24    2    4    4    0    0 -0.99288572412E+01 -0.57003394533E+03  0.62706446421E+03  0.85138655125E+03  0.81313813989E+02 0.  0.
         13    1    3    3    0    0  0.28842576859E+02  0.14583810080E+03  0.19657956835E+03  0.24646332907E+03  0.00000000000E+00 0. -1.
        -13    1    3    3    0    0  0.38807071021E+02  0.30225722178E+03  0.64796930128E+03  0.71605141734E+03  0.00000000000E+00 0.  1.
          4    1    6    6  502    0  0.30749091111E+02 -0.24898812769E+03  0.24462715650E+03  0.35040410961E+03  0.00000000000E+00 0. -1.
          3    1    5    5  503    0 -0.29484189940E+02  0.87531793884E+02 -0.61210608686E+02  0.11080555497E+03  0.00000000000E+00 0. -1.
         -4    1    5    5    0  503 -0.28236600699E+02  0.34406828867E+02 -0.12750499200E+03  0.13505057748E+03  0.00000000000E+00 0.  1.
         -3    1    6    6    0  502 -0.40677948352E+02 -0.32104581764E+03  0.38243730771E+03  0.50098244164E+03  0.00000000000E+00 0.  1.
<mgrwt>
<rscale>  0 0.16114509E+04</rscale>
<asrwt>0</asrwt>
<pdfrwt beam="1">  1        1 0.59758440E-01 0.16114509E+04</pdfrwt>
<pdfrwt beam="2">  1       -1 0.25712731E+00 0.16114509E+04</pdfrwt>
<totfact> 0.37484873E+00</totfact>
</mgrwt>
</event>
<event>
12    1  0.1489233E-007  0.1057400E+04  0.7818608E-02  0.9247738E-01
         -2   -1    0    0    0  501 -0.00000000000E+00  0.00000000000E+00  0.25305679220E+03  0.25305679220E+03  0.00000000000E+00 0.  1.
          2   -1    0    0  501    0  0.00000000000E+00 -0.00000000000E+00 -0.11045880165E+04  0.11045880165E+04  0.00000000000E+00 0. -1.
         23    2    1    2    0    0  0.13110831478E+03 -0.43518903304E+02  0.13441973372E+02  0.16557098226E+03  0.90276122923E+02 0.  0.
        254    2    1    2    0    0 -0.13110831478E+03  0.43518903304E+02 -0.86497319772E+03  0.11920738265E+04  0.80856545180E+03 0.  0.
        -24    2    4    4    0    0 -0.10848492139E+03 -0.14302941397E+03 -0.95125066290E+03  0.97140198079E+03  0.80731611998E+02 0.  0.
         24    2    4    4    0    0 -0.22623393393E+02  0.18654831728E+03  0.86277465181E+02  0.22067184569E+03  0.77072497521E+02 0.  0.
         13    1    3    3    0    0  0.11429245290E+03 -0.27483158253E+02 -0.25443080325E+02  0.12027235390E+03  0.00000000000E+00 0. -1.
        -13    1    3    3    0    0  0.16815861883E+02 -0.16035745051E+02  0.38885053698E+02  0.45298628360E+02  0.00000000000E+00 0.  1.
          4    1    6    6  502    0 -0.49786537173E+02  0.14578109662E+03  0.62955410571E+02  0.16641577791E+03  0.00000000000E+00 0. -1.
          3    1    5    5  503    0 -0.10533516947E+03 -0.12371106909E+03 -0.66802538221E+03  0.68750115478E+03  0.00000000000E+00 0. -1.
         -4    1    5    5    0  503 -0.31497519188E+01 -0.19318344879E+02 -0.28322528069E+03  0.28390082601E+03  0.00000000000E+00 0.  1.
         -3    1    6    6    0  502  0.27163143780E+02  0.40767220653E+02  0.23322054610E+02  0.54256067781E+02  0.00000000000E+00 0.  1.
<mgrwt>
<rscale>  0 0.10573996E+04</rscale>
<asrwt>0</asrwt>
<pdfrwt beam="1">  1        2 0.16993662E+00 0.10573996E+04</pdfrwt>
<pdfrwt beam="2">  1       -2 0.38931815E-01 0.10573996E+04</pdfrwt>
<totfact> 0.13421397E+02</totfact>
</mgrwt>
</event>
<event>
12    1  0.1489233E-007  0.3164166E+04  0.7818608E-02  0.8198345E-01
          2   -1    0    0  501    0  0.00000000000E+00  0.00000000000E+00  0.18632102791E+04  0.18632102791E+04  0.00000000000E+00 0. -1.
         -2   -1    0    0    0  501 -0.00000000000E+00 -0.00000000000E+00 -0.13433730079E+04  0.13433730079E+04  0.00000000000E+00 0.  1.
         23    2    1    2    0    0  0.12243881876E+04  0.48388703015E+03 -0.37335572566E+03  0.13714649758E+04  0.90821748243E+02 0.  0.
        254    2    1    2    0    0 -0.12243881876E+04 -0.48388703015E+03  0.89319299688E+03  0.18351183112E+04  0.91465424872E+03 0.  0.
        -24    2    4    4    0    0  0.69346347834E+02 -0.19466306296E+02  0.33133681886E+03  0.34800638983E+03  0.78335858896E+02 0.  0.
         24    2    4    4    0    0 -0.12937345354E+04 -0.46442072385E+03  0.56185617801E+03  0.14871119214E+04  0.79898968154E+02 0.  0.
         11    1    3    3    0    0  0.38378749063E+03  0.18152225311E+03 -0.87087112364E+02  0.43339050691E+03  0.00000000000E+00 0.  1.
        -11    1    3    3    0    0  0.84060069697E+03  0.30236477704E+03 -0.28626861329E+03  0.93807446885E+03  0.00000000000E+00 0. -1.
          4    1    6    6  502    0 -0.61354601791E+03 -0.18444595376E+03  0.28456163591E+03  0.70102378746E+03  0.00000000000E+00 0. -1.
          3    1    5    5  503    0  0.11756411820E+02 -0.30764061970E+02  0.45273740877E+02  0.55985286824E+02  0.00000000000E+00 0. -1.
         -4    1    5    5    0  503  0.57589936014E+02  0.11297755675E+02  0.28606307799E+03  0.29202110301E+03  0.00000000000E+00 0.  1.
         -3    1    6    6    0  502 -0.68018851754E+03 -0.27997477009E+03  0.27729454210E+03  0.78608813396E+03  0.00000000000E+00 0.  1.
<mgrwt>
<rscale>  0 0.31641659E+04</rscale>
<asrwt>0</asrwt>
<pdfrwt beam="1">  1        2 0.28664774E+00 0.31641659E+04</pdfrwt>
<pdfrwt beam="2">  1       -2 0.20667277E+00 0.31641659E+04</pdfrwt>
<totfact> 0.80881443E-01</totfact>
</mgrwt>
</event>
<event>
12    1  0.1489233E-007  0.2189072E+04  0.7818608E-02  0.8522991E-01
         -1   -1    0    0    0  501 -0.00000000000E+00  0.00000000000E+00  0.41363925781E+03  0.41363925781E+03  0.00000000000E+00 0.  1.
          1   -1    0    0  501    0  0.00000000000E+00 -0.00000000000E+00 -0.28962644898E+04  0.28962644898E+04  0.00000000000E+00 0. -1.
         23    2    1    2    0    0  0.66566979607E+03 -0.52400366307E+03 -0.15229143480E+04  0.17450235314E+04  0.90238005385E+02 0.  0.
        254    2    1    2    0    0 -0.66566979607E+03  0.52400366307E+03 -0.95971088406E+03  0.15648802162E+04  0.90006055011E+03 0.  0.
        -24    2    4    4    0    0  0.16613266831E+03 -0.82415762351E+02 -0.17969532151E+03  0.27069371489E+03  0.81192717337E+02 0.  0.
         24    2    4    4    0    0 -0.83180246437E+03  0.60641942542E+03 -0.78001556256E+03  0.12941865013E+04  0.82792289177E+02 0.  0.
         13    1    3    3    0    0  0.33163915896E+03 -0.25595210759E+03 -0.84517840120E+03  0.94330405649E+03  0.00000000000E+00 0. -1.
        -13    1    3    3    0    0  0.33403063710E+03 -0.26805155549E+03 -0.67773594676E+03  0.80171947492E+03  0.00000000000E+00 0.  1.
          2    1    6    6  502    0 -0.52337484726E+03  0.35266184368E+03 -0.51854290035E+03  0.81680985929E+03  0.00000000000E+00 0. -1.
          1    1    5    5  503    0  0.11374914783E+03 -0.28560927000E+02 -0.66460038107E+02  0.13480182435E+03  0.00000000000E+00 0. -1.
         -2    1    5    5    0  503  0.52383520475E+02 -0.53854835351E+02 -0.11323528340E+03  0.13589189054E+03  0.00000000000E+00 0.  1.
         -1    1    6    6    0  502 -0.30842761711E+03  0.25375758174E+03 -0.26147266220E+03  0.47737664204E+03  0.00000000000E+00 0.  1.
<mgrwt>
<rscale>  0 0.21890717E+04</rscale>
<asrwt>0</asrwt>
<pdfrwt beam="1">  1        1 0.44557917E+00 0.21890717E+04</pdfrwt>
<pdfrwt beam="2">  1       -1 0.63636807E-01 0.21890717E+04</pdfrwt>
<totfact> 0.16258541E+00</totfact>
</mgrwt>
</event>
<event>
12    1  0.1489233E-007  0.2030131E+04  0.7818608E-02  0.8592661E-01
         -2   -1    0    0    0  501 -0.00000000000E+00  0.00000000000E+00  0.90038891897E+03  0.90038891897E+03  0.00000000000E+00 0. -1.
          2   -1    0    0  501    0  0.00000000000E+00 -0.00000000000E+00 -0.11443481993E+04  0.11443481993E+04  0.00000000000E+00 0.  1.
         23    2    1    2    0    0  0.19771237373E+03 -0.58039662201E+03 -0.62028903690E+03  0.87677521334E+03  0.89587185759E+02 0.  0.
        254    2    1    2    0    0 -0.19771237373E+03  0.58039662201E+03  0.37632975662E+03  0.11679619049E+04  0.92008722628E+03 0.  0.
        -24    2    4    4    0    0 -0.89716817553E+02  0.62039301365E+03 -0.12775754970E+03  0.64458208088E+03  0.78914312730E+02 0.  0.
         24    2    4    4    0    0 -0.10799555618E+03 -0.39996391639E+02  0.50408730632E+03  0.52337982400E+03  0.80991828470E+02 0.  0.
         11    1    3    3    0    0  0.13735637584E+03 -0.29916625511E+03 -0.28907654408E+03  0.43810098210E+03  0.00000000000E+00 0. -1.
        -11    1    3    3    0    0  0.60355997893E+02 -0.28123036690E+03 -0.33121249283E+03  0.43867423124E+03  0.00000000000E+00 0.  1.
          4    1    6    6  502    0 -0.21227046767E+02  0.70667341475E+01  0.24671777860E+03  0.24773007190E+03  0.00000000000E+00 0. -1.
          3    1    5    5  503    0 -0.96300794025E+02  0.41150471655E+03 -0.92702912894E+02  0.43267054988E+03  0.00000000000E+00 0. -1.
         -4    1    5    5    0  503  0.65839764728E+01  0.20888829710E+03 -0.35054636801E+02  0.21191153100E+03  0.00000000000E+00 0.  1.
         -3    1    6    6    0  502 -0.86768509413E+02 -0.47063125786E+02  0.25736952772E+03  0.27564975210E+03  0.00000000000E+00 0.  1.
<mgrwt>
<rscale>  0 0.20301315E+04</rscale>
<asrwt>0</asrwt>
<pdfrwt beam="1">  1        2 0.17605357E+00 0.20301315E+04</pdfrwt>
<pdfrwt beam="2">  1       -2 0.13852137E+00 0.20301315E+04</pdfrwt>
<totfact> 0.70027442E+00</totfact>
</mgrwt>
</event>
<event>
12    1  0.1489233E-007  0.1501088E+04  0.7818608E-02  0.8883730E-01
          2   -1    0    0  501    0  0.00000000000E+00  0.00000000000E+00  0.45419235942E+04  0.45419235942E+04  0.00000000000E+00 0.  1.
         -2   -1    0    0    0  501 -0.00000000000E+00 -0.00000000000E+00 -0.12402591815E+03  0.12402591815E+03  0.00000000000E+00 0. -1.
         23    2    1    2    0    0 -0.99771157910E+02 -0.24611651557E+03  0.26780319406E+04  0.26926636244E+04  0.89747960583E+02 0.  0.
        254    2    1    2    0    0  0.99771157910E+02  0.24611651557E+03  0.17398657355E+04  0.19732858880E+04  0.89229860184E+03 0.  0.
        -24    2    4    4    0    0 -0.47678097336E+02 -0.24064626151E+03  0.11984639882E+04  0.12258588904E+04  0.78932021951E+02 0.  0.
         24    2    4    4    0    0  0.14744925525E+03  0.48676277707E+03  0.54140174734E+03  0.74742699756E+03  0.82776691406E+02 0.  0.
         13    1    3    3    0    0 -0.55790793684E+02 -0.37773518036E+02  0.63167522617E+03  0.63525824881E+03  0.00000000000E+00 0. -1.
        -13    1    3    3    0    0 -0.43980364226E+02 -0.20834299753E+03  0.20463567144E+04  0.20574053756E+04  0.00000000000E+00 0.  1.
          4    1    6    6  502    0  0.13119964191E+03  0.34443466935E+03  0.42720111632E+03  0.56422458407E+03  0.00000000000E+00 0. -1.
          1    1    5    5  503    0 -0.58897274238E+02 -0.23897796846E+03  0.11555172289E+04  0.11814395560E+04  0.00000000000E+00 0. -1.
         -4    1    5    5    0  503  0.11219176903E+02 -0.16682930456E+01  0.42946759328E+02  0.44419334404E+02  0.00000000000E+00 0.  1.
         -3    1    6    6    0  502  0.16249613341E+02  0.14232810773E+03  0.11420063102E+03  0.18320241349E+03  0.00000000000E+00 0.  1.
<mgrwt>
<rscale>  0 0.15010879E+04</rscale>
<asrwt>0</asrwt>
<pdfrwt beam="1">  1        2 0.69875735E+00 0.15010879E+04</pdfrwt>
<pdfrwt beam="2">  1       -2 0.19080914E-01 0.15010879E+04</pdfrwt>
<totfact> 0.26029481E+00</totfact>
</mgrwt>
</event>
<event>
12    1  0.1489233E-007  0.1447529E+04  0.7818608E-02  0.8920116E-01
          1   -1    0    0  501    0  0.00000000000E+00  0.00000000000E+00  0.89059167265E+03  0.89059167265E+03  0.00000000000E+00 0. -1.
         -1   -1    0    0    0  501 -0.00000000000E+00 -0.00000000000E+00 -0.58818751662E+03  0.58818751662E+03  0.00000000000E+00 0.  1.
         23    2    1    2    0    0  0.35686397866E+03  0.22933007562E+03 -0.21451884285E+02  0.43537212702E+03  0.95626998271E+02 0.  0.
        254    2    1    2    0    0 -0.35686397866E+03 -0.22933007562E+03  0.32385604032E+03  0.10434070622E+04  0.89658874622E+03 0.  0.
        -24    2    4    4    0    0 -0.31846280630E+03  0.87382266122E+02  0.54868721519E+03  0.64536771191E+03  0.79922487668E+02 0.  0.
         24    2    4    4    0    0 -0.38401172363E+02 -0.31671234175E+03 -0.22483117487E+03  0.39803935034E+03  0.78133922041E+02 0.  0.
         13    1    3    3    0    0  0.36424432327E+02  0.33958792221E+02  0.27506201809E+02  0.56890508676E+02  0.00000000000E+00 0. -1.
        -13    1    3    3    0    0  0.32043954633E+03  0.19537128340E+03 -0.48958086094E+02  0.37848161835E+03  0.00000000000E+00 0.  1.
          2    1    6    6  502    0 -0.39818616418E+02 -0.14678481167E+03 -0.14557889574E+03  0.21053388809E+03  0.00000000000E+00 0. -1.
          1    1    5    5  503    0 -0.26338377115E+03  0.39374032356E+02  0.44294049110E+03  0.51683421324E+03  0.00000000000E+00 0. -1.
         -2    1    5    5    0  503 -0.55079035150E+02  0.48008233767E+02  0.10574672409E+03  0.12853349866E+03  0.00000000000E+00 0.  1.
         -1    1    6    6    0  502  0.14174440554E+01 -0.16992753008E+03 -0.79252279125E+02  0.18750546225E+03  0.00000000000E+00 0.  1.
<mgrwt>
<rscale>  0 0.14475288E+04</rscale>
<asrwt>0</asrwt>
<pdfrwt beam="1">  1        1 0.13701410E+00 0.14475288E+04</pdfrwt>
<pdfrwt beam="2">  1       -1 0.90490387E-01 0.14475288E+04</pdfrwt>
<totfact> 0.21484231E+01</totfact>
</mgrwt>
</event>
<event>
12    1  0.1489233E-007  0.1749184E+04  0.7818608E-02  0.8733800E-01
          1   -1    0    0  501    0  0.00000000000E+00  0.00000000000E+00  0.10606221387E+04  0.10606221387E+04  0.00000000000E+00 0. -1.
         -1   -1    0    0    0  501 -0.00000000000E+00 -0.00000000000E+00 -0.72119098352E+03  0.72119098352E+03  0.00000000000E+00 0.  1.
         23    2    1    2    0    0 -0.74144005592E+02 -0.63408208682E+03  0.11339239288E+03  0.65465218645E+03  0.90300742388E+02 0.  0.
        254    2    1    2    0    0  0.74144005592E+02  0.63408208682E+03  0.22603876232E+03  0.11271609358E+04  0.90102210112E+03 0.  0.
        -24    2    4    4    0    0  0.44597084654E+03  0.51935229099E+03  0.44752981255E+02  0.69057331681E+03  0.79195191974E+02 0.  0.
         24    2    4    4    0    0 -0.37182684095E+03  0.11472979583E+03  0.18128578107E+03  0.43658761898E+03  0.79536714339E+02 0.  0.
         11    1    3    3    0    0  0.12259991318E+02 -0.93660865136E+02 -0.54341184714E+01  0.94616038221E+02  0.00000000000E+00 0. -1.
        -11    1    3    3    0    0 -0.86403996910E+02 -0.54042122168E+03  0.11882651135E+03  0.56003614823E+03  0.00000000000E+00 0.  1.
          4    1    6    6  502    0 -0.29853157103E+02  0.31557305048E+02  0.75252911717E+01  0.44087464183E+02  0.00000000000E+00 0. -1.
          1    1    5    5  503    0  0.24977103552E+03  0.31113805542E+03  0.62860543104E+02  0.40391076687E+03  0.00000000000E+00 0. -1.
         -2    1    5    5    0  503  0.19619981102E+03  0.20821423557E+03 -0.18107561849E+02  0.28666254993E+03  0.00000000000E+00 0.  1.
         -3    1    6    6    0  502 -0.34197368385E+03  0.83172490781E+02  0.17376048989E+03  0.39250015480E+03  0.00000000000E+00 0.  1.
<mgrwt>
<rscale>  0 0.17491840E+04</rscale>
<asrwt>0</asrwt>
<pdfrwt beam="1">  1        1 0.16317264E+00 0.17491840E+04</pdfrwt>
<pdfrwt beam="2">  1       -1 0.11095246E+00 0.17491840E+04</pdfrwt>
<totfact> 0.96263594E+00</totfact>
</mgrwt>
</event>
<event>
12    1  0.1489233E-007  0.1953458E+04  0.7818608E-02  0.8628695E-01
         -2   -1    0    0    0  501 -0.00000000000E+00  0.00000000000E+00  0.13646909533E+04  0.13646909533E+04  0.00000000000E+00 0.  1.
          2   -1    0    0  501    0  0.00000000000E+00 -0.00000000000E+00 -0.69905926670E+03  0.69905926670E+03  0.00000000000E+00 0. -1.
         23    2    1    2    0    0  0.62037138054E+03 -0.40805778765E+03  0.61982532648E+02  0.75066550657E+03  0.91022307976E+02 0.  0.
        254    2    1    2    0    0 -0.62037138054E+03  0.40805778765E+03  0.60364915397E+03  0.13130847134E+04  0.89912588426E+03 0.  0.
        -24    2    4    4    0    0  0.14051477666E+03  0.35098599963E+03  0.11449350367E+03  0.40316420057E+03  0.80604192476E+02 0.  0.
         24    2    4    4    0    0 -0.76088615719E+03  0.57071788017E+02  0.48915565030E+03  0.90992051287E+03  0.80480782361E+02 0.  0.
         13    1    3    3    0    0  0.45679026561E+03 -0.29334310176E+03  0.49612029286E+01  0.54289237943E+03  0.00000000000E+00 0. -1.
        -13    1    3    3    0    0  0.16358111493E+03 -0.11471468589E+03  0.57021329719E+02  0.20777312714E+03  0.00000000000E+00 0.  1.
          2    1    6    6  502    0 -0.23614568480E+03  0.62412992366E+01  0.11027085795E+03  0.26069791019E+03  0.00000000000E+00 0. -1.
          3    1    5    5  503    0  0.30453075859E+02  0.83574816809E+02 -0.75923728817E+01  0.89273646502E+02  0.00000000000E+00 0. -1.
         -4    1    5    5    0  503  0.11006170080E+03  0.26741118282E+03  0.12208587655E+03  0.31389055407E+03  0.00000000000E+00 0.  1.
         -1    1    6    6    0  502 -0.52474047240E+03  0.50830488780E+02  0.37888479235E+03  0.64922260268E+03  0.00000000000E+00 0.  1.
<mgrwt>
<rscale>  0 0.19534583E+04</rscale>
<asrwt>0</asrwt>
<pdfrwt beam="1">  1        2 0.10754758E+00 0.19534583E+04</pdfrwt>
<pdfrwt beam="2">  1       -2 0.20995245E+00 0.19534583E+04</pdfrwt>
<totfact> 0.43831939E+00</totfact>
</mgrwt>
</event>
<event>
12    1  0.1489233E-007  0.1662214E+04  0.7818608E-02  0.8783213E-01
          1   -1    0    0  501    0  0.00000000000E+00  0.00000000000E+00  0.33227755651E+03  0.33227755651E+03  0.00000000000E+00 0. -1.
         -1   -1    0    0    0  501 -0.00000000000E+00 -0.00000000000E+00 -0.20788006462E+04  0.20788006462E+04  0.00000000000E+00 0.  1.
         23    2    1    2    0    0  0.22838523700E+03  0.37501504011E+03 -0.75571050432E+02  0.45475322296E+03  0.91068179585E+02 0.  0.
        254    2    1    2    0    0 -0.22838523700E+03 -0.37501504011E+03 -0.16709520393E+04  0.19563249798E+04  0.91778571144E+03 0.  0.
        -24    2    4    4    0    0  0.19029177970E+03  0.18969170212E+03 -0.70699346693E+03  0.76053329614E+03  0.79857554320E+02 0.  0.
         24    2    4    4    0    0 -0.41867701671E+03 -0.56470674223E+03 -0.96395857235E+03  0.11957916836E+04  0.80730863980E+02 0.  0.
         13    1    3    3    0    0  0.16231940931E+03  0.17930589869E+03 -0.39520702145E+02  0.24507158514E+03  0.00000000000E+00 0. -1.
        -13    1    3    3    0    0  0.66065827689E+02  0.19570914143E+03 -0.36050348287E+02  0.20968163782E+03  0.00000000000E+00 0.  1.
          4    1    6    6  502    0 -0.37341146517E+03 -0.51129222490E+03 -0.90369564791E+03  0.11034136512E+04  0.00000000000E+00 0. -1.
          1    1    5    5  503    0  0.19792885735E+03  0.17735474991E+03 -0.66777907748E+03  0.71872069416E+03  0.00000000000E+00 0. -1.
         -2    1    5    5    0  503 -0.76370776486E+01  0.12336952207E+02 -0.39214389450E+02  0.41812601985E+02  0.00000000000E+00 0.  1.
         -3    1    6    6    0  502 -0.45265551532E+02 -0.53414517332E+02 -0.60262924443E+02  0.92378032452E+02  0.00000000000E+00 0.  1.
<mgrwt>
<rscale>  0 0.16622139E+04</rscale>
<asrwt>0</asrwt>
<pdfrwt beam="1">  1        1 0.51119624E-01 0.16622139E+04</pdfrwt>
<pdfrwt beam="2">  1       -1 0.31981549E+00 0.16622139E+04</pdfrwt>
<totfact> 0.18010796E+00</totfact>
</mgrwt>
</event>
<event>
12    1  0.1489233E-007  0.3047676E+04  0.7818608E-02  0.8230246E-01
          1   -1    0    0  501    0  0.00000000000E+00  0.00000000000E+00  0.35418476604E+04  0.35418476604E+04  0.00000000000E+00 0. -1.
         -1   -1    0    0    0  501 -0.00000000000E+00 -0.00000000000E+00 -0.65561311411E+03  0.65561311411E+03  0.00000000000E+00 0.  1.
         23    2    1    2    0    0  0.89646232727E+03  0.86819601639E+03  0.47985694324E+03  0.13402621287E+04  0.92902425542E+02 0.  0.
        254    2    1    2    0    0 -0.89646232727E+03 -0.86819601639E+03  0.24063776031E+04  0.28571986458E+04  0.90306251488E+03 0.  0.
        -24    2    4    4    0    0 -0.12905833395E+03 -0.14801045625E+02 -0.36923366711E+02  0.15662018811E+03  0.79318495954E+02 0.  0.
         24    2    4    4    0    0 -0.76740399332E+03 -0.85339497077E+03  0.24433009698E+04  0.27005784577E+04  0.78819489943E+02 0.  0.
         13    1    3    3    0    0  0.29139570151E+03  0.29499054380E+03  0.11400475840E+03  0.43003251125E+03  0.00000000000E+00 0.  1.
        -13    1    3    3    0    0  0.60506662576E+03  0.57320547260E+03  0.36585218483E+03  0.91022961749E+03  0.00000000000E+00 0. -1.
          4    1    6    6  502    0 -0.22940999311E+03 -0.30296494697E+03  0.76414000521E+03  0.85342055963E+03  0.00000000000E+00 0. -1.
          1    1    5    5  503    0 -0.36680080085E+02 -0.33174404764E+02  0.11408746258E+02  0.50755579966E+02  0.00000000000E+00 0. -1.
         -2    1    5    5    0  503 -0.92378253865E+02  0.18373359139E+02 -0.48332112969E+02  0.10586460814E+03  0.00000000000E+00 0.  1.
         -3    1    6    6    0  502 -0.53799400021E+03 -0.55043002380E+03  0.16791609646E+04  0.18471578980E+04  0.00000000000E+00 0.  1.
<mgrwt>
<rscale>  0 0.30476757E+04</rscale>
<asrwt>0</asrwt>
<pdfrwt beam="1">  1        1 0.54489963E+00 0.30476757E+04</pdfrwt>
<pdfrwt beam="2">  1       -1 0.10086356E+00 0.30476757E+04</pdfrwt>
<totfact> 0.18320706E-01</totfact>
</mgrwt>
</event>
<event>
12    1  0.1489233E-007  0.2236440E+04  0.7818608E-02  0.8503412E-01
         -2   -1    0    0    0  501 -0.00000000000E+00  0.00000000000E+00  0.10756407813E+04  0.10756407813E+04  0.00000000000E+00 0.  1.
          2   -1    0    0  501    0  0.00000000000E+00 -0.00000000000E+00 -0.11624844356E+04  0.11624844356E+04  0.00000000000E+00 0. -1.
         23    2    1    2    0    0  0.35748219003E+03  0.85858942825E+03  0.25609800407E+02  0.93586462733E+03  0.10108123628E+03 0.  0.
        254    2    1    2    0    0 -0.35748219003E+03 -0.85858942825E+03 -0.11245345468E+03  0.13022605896E+04  0.90458141768E+03 0.  0.
        -24    2    4    4    0    0 -0.55148478465E+03 -0.20683371607E+03 -0.16198467683E+03  0.61588677139E+03  0.78497298319E+02 0.  0.
         24    2    4    4    0    0  0.19400259462E+03 -0.65175571218E+03  0.49531222148E+02  0.68637381819E+03  0.78950372044E+02 0.  0.
         13    1    3    3    0    0  0.34564667400E+03  0.76205298146E+03  0.68101124819E+01  0.83680508330E+03  0.00000000000E+00 0. -1.
        -13    1    3    3    0    0  0.11835516024E+02  0.96536446793E+02  0.18799687925E+02  0.99059544038E+02  0.00000000000E+00 0.  1.
          4    1    6    6  502    0  0.15438000005E+03 -0.59918096420E+03  0.45150018864E+02  0.62039466187E+03  0.00000000000E+00 0. -1.
          1    1    5    5  503    0 -0.43008696932E+03 -0.15723240642E+03 -0.15889373539E+03  0.48471027424E+03  0.00000000000E+00 0. -1.
         -2    1    5    5    0  503 -0.12139781533E+03 -0.49601309654E+02 -0.30909414396E+01  0.13117649715E+03  0.00000000000E+00 0.  1.
         -3    1    6    6    0  502  0.39622594578E+02 -0.52574747986E+02  0.43812032838E+01  0.65979156323E+02  0.00000000000E+00 0.  1.
<mgrwt>
<rscale>  0 0.22364397E+04</rscale>
<asrwt>0</asrwt>
<pdfrwt beam="1">  1        2 0.17884376E+00 0.22364397E+04</pdfrwt>
<pdfrwt beam="2">  1       -2 0.16548320E+00 0.22364397E+04</pdfrwt>
<totfact> 0.41757538E+00</totfact>
</mgrwt>
</event>
<event>
12    1  0.1489233E-007  0.1515185E+04  0.7818608E-02  0.8874418E-01
         -2   -1    0    0    0  501 -0.00000000000E+00  0.00000000000E+00  0.73352691765E+03  0.73352691765E+03  0.00000000000E+00 0. -1.
          2   -1    0    0  501    0  0.00000000000E+00 -0.00000000000E+00 -0.78244732393E+03  0.78244732393E+03  0.00000000000E+00 0.  1.
         23    2    1    2    0    0 -0.42548795594E+03 -0.22661622392E+03  0.12823482677E+02  0.49024607896E+03  0.88214866272E+02 0.  0.
        254    2    1    2    0    0  0.42548795594E+03  0.22661622392E+03 -0.61743888959E+02  0.10257281626E+04  0.90327794294E+03 0.  0.
        -24    2    4    4    0    0  0.55443263824E+03  0.47231225150E+03 -0.12490950133E+02  0.73296380027E+03  0.81274198931E+02 0.  0.
         24    2    4    4    0    0 -0.12894468230E+03 -0.24569602757E+03 -0.49252938826E+02  0.29276436236E+03  0.79321187761E+02 0.  0.
         13    1    3    3    0    0 -0.35964787171E+03 -0.16439415226E+03 -0.14254867646E+02  0.39569588092E+03  0.00000000000E+00 0.  1.
        -13    1    3    3    0    0 -0.65840084227E+02 -0.62222071664E+02  0.27078350323E+02  0.94550198040E+02  0.00000000000E+00 0. -1.
          2    1    6    6  502    0 -0.13304654793E+03 -0.24944171091E+03 -0.50203669369E+02  0.28712882035E+03  0.00000000000E+00 0. -1.
          1    1    5    5  503    0  0.39427043529E+03  0.28667339384E+03 -0.16439276563E+02  0.48775102326E+03  0.00000000000E+00 0. -1.
         -2    1    5    5    0  503  0.16016220295E+03  0.18563885766E+03  0.39483264299E+01  0.24521277701E+03  0.00000000000E+00 0.  1.
         -1    1    6    6    0  502  0.41018656236E+01  0.37456833358E+01  0.95073054275E+00  0.56355420157E+01  0.00000000000E+00 0.  1.
<mgrwt>
<rscale>  0 0.15151847E+04</rscale>
<asrwt>0</asrwt>
<pdfrwt beam="1">  1        2 0.12037651E+00 0.15151847E+04</pdfrwt>
<pdfrwt beam="2">  1       -2 0.11285029E+00 0.15151847E+04</pdfrwt>
<totfact> 0.21139926E+01</totfact>
</mgrwt>
</event>
<event>
12    1  0.1489233E-007  0.3307927E+04  0.7818608E-02  0.8160881E-01
         -2   -1    0    0    0  501 -0.00000000000E+00  0.00000000000E+00  0.73298690731E+03  0.73298690731E+03  0.00000000000E+00 0.  1.
          2   -1    0    0  501    0  0.00000000000E+00 -0.00000000000E+00 -0.37321191019E+04  0.37321191019E+04  0.00000000000E+00 0. -1.
         23    2    1    2    0    0  0.35250325762E+03 -0.14703028774E+04 -0.10820710242E+04  0.18615043236E+04  0.90948046779E+02 0.  0.
        254    2    1    2    0    0 -0.35250325762E+03  0.14703028774E+04 -0.19170611704E+04  0.26036016856E+04  0.90419528218E+03 0.  0.
        -24    2    4    4    0    0 -0.46437315151E+03  0.82632363724E+03 -0.58221105502E+03  0.11152237261E+04  0.79379275312E+02 0.  0.
         24    2    4    4    0    0  0.11186989389E+03  0.64397924021E+03 -0.13348501154E+04  0.14883779596E+04  0.78866881053E+02 0.  0.
         13    1    3    3    0    0  0.20958316609E+03 -0.78664969173E+03 -0.53252806385E+03  0.97279441805E+03  0.00000000000E+00 0. -1.
        -13    1    3    3    0    0  0.14292009153E+03 -0.68365318572E+03 -0.54954296032E+03  0.88870990551E+03  0.00000000000E+00 0.  1.
          2    1    6    6  502    0  0.10017263501E+03  0.60014223882E+03 -0.11890492145E+04  0.13356808369E+04  0.00000000000E+00 0. -1.
          3    1    5    5  503    0 -0.30504396060E+03  0.49956619327E+03 -0.32099936555E+03  0.66757680610E+03  0.00000000000E+00 0. -1.
         -4    1    5    5    0  503 -0.15932919091E+03  0.32675744397E+03 -0.26121168947E+03  0.44764691999E+03  0.00000000000E+00 0.  1.
         -1    1    6    6    0  502  0.11697258884E+02  0.43837001384E+02 -0.14580090093E+03  0.15269712265E+03  0.00000000000E+00 0.  1.
<mgrwt>
<rscale>  0 0.33079265E+04</rscale>
<asrwt>0</asrwt>
<pdfrwt beam="1">  1        2 0.57417216E+00 0.33079265E+04</pdfrwt>
<pdfrwt beam="2">  1       -2 0.11276722E+00 0.33079265E+04</pdfrwt>
<totfact> 0.28474453E-01</totfact>
</mgrwt>
</event>
<event>
12    1  0.1489233E-007  0.3210876E+04  0.7818608E-02  0.8185951E-01
         -1   -1    0    0    0  501 -0.00000000000E+00  0.00000000000E+00  0.74004849337E+03  0.74004849337E+03  0.00000000000E+00 0.  1.
          1   -1    0    0  501    0  0.00000000000E+00 -0.00000000000E+00 -0.34827876096E+04  0.34827876096E+04  0.00000000000E+00 0. -1.
         23    2    1    2    0    0  0.44035509274E+01 -0.14417061464E+04 -0.16914279867E+04  0.22242942144E+04  0.89555090456E+02 0.  0.
        254    2    1    2    0    0 -0.44035509274E+01  0.14417061464E+04 -0.10513111295E+04  0.19985418885E+04  0.90021030067E+03 0.  0.
        -24    2    4    4    0    0 -0.43333665787E+03  0.71210168201E+03 -0.40222302944E+03  0.92888890904E+03  0.78624266948E+02 0.  0.
         24    2    4    4    0    0  0.42893310694E+03  0.72960446439E+03 -0.64908810004E+03  0.10696529795E+04  0.80844605499E+02 0.  0.
         13    1    3    3    0    0 -0.21051108188E+02 -0.11440443504E+04 -0.13813693022E+04  0.17937284560E+04  0.00000000000E+00 0. -1.
        -13    1    3    3    0    0  0.25454659115E+02 -0.29766179604E+03 -0.31005868450E+03  0.43056575842E+03  0.00000000000E+00 0.  1.
          4    1    6    6  502    0  0.22199682539E+03  0.31010254076E+03 -0.31818944004E+03  0.49667967144E+03  0.00000000000E+00 0. -1.
          1    1    5    5  503    0 -0.38799017100E+03  0.67556510984E+03 -0.37410594569E+03  0.86422210631E+03  0.00000000000E+00 0. -1.
         -2    1    5    5    0  503 -0.45346486870E+02  0.36536572164E+02 -0.28117083747E+02  0.64666802731E+02  0.00000000000E+00 0.  1.
         -3    1    6    6    0  502  0.20693628155E+03  0.41950192363E+03 -0.33089865999E+03  0.57297330805E+03  0.00000000000E+00 0.  1.
<mgrwt>
<rscale>  0 0.32108763E+04</rscale>
<asrwt>0</asrwt>
<pdfrwt beam="1">  1        1 0.53581347E+00 0.32108763E+04</pdfrwt>
<pdfrwt beam="2">  1       -1 0.11385362E+00 0.32108763E+04</pdfrwt>
<totfact> 0.15132791E-01</totfact>
</mgrwt>
</event>
<event>
12    1  0.1489233E-007  0.1950080E+04  0.7818608E-02  0.8630322E-01
          2   -1    0    0  501    0  0.00000000000E+00  0.00000000000E+00  0.16319374381E+04  0.16319374381E+04  0.00000000000E+00 0. -1.
         -2   -1    0    0    0  501 -0.00000000000E+00 -0.00000000000E+00 -0.58256116256E+03  0.58256116256E+03  0.00000000000E+00 0.  1.
         23    2    1    2    0    0 -0.41892123110E+02  0.51758583925E+03  0.10564532153E+04  0.11807926599E+04  0.92346405548E+02 0.  0.
        254    2    1    2    0    0  0.41892123110E+02 -0.51758583925E+03 -0.70769397629E+01  0.10337059408E+04  0.89378288073E+03 0.  0.
        -24    2    4    4    0    0  0.17349868651E+03  0.78047490140E+02  0.28551299358E+03  0.35238885092E+03  0.80417832661E+02 0.  0.
         24    2    4    4    0    0 -0.13160656340E+03 -0.59563332939E+03 -0.29258993335E+03  0.68131708983E+03  0.80527990100E+02 0.  0.
         11    1    3    3    0    0  0.12636714012E+02  0.24618228794E+03  0.57137648915E+03  0.62228329384E+03  0.00000000000E+00 0.  1.
        -11    1    3    3    0    0 -0.54528837122E+02  0.27140355131E+03  0.48507672615E+03  0.55850936607E+03  0.00000000000E+00 0. -1.
          4    1    6    6  502    0 -0.13741109650E+03 -0.51873930454E+03 -0.27134014205E+03  0.60132998279E+03  0.00000000000E+00 0. -1.
          1    1    5    5  503    0  0.13777563982E+03  0.80169713678E+02  0.17734336490E+03  0.23845330568E+03  0.00000000000E+00 0. -1.
         -2    1    5    5    0  503  0.35723046685E+02 -0.21222235380E+01  0.10816962869E+03  0.11393554523E+03  0.00000000000E+00 0.  1.
         -3    1    6    6    0  502  0.58045331040E+01 -0.76894024856E+02 -0.21249791296E+02  0.79987107044E+02  0.00000000000E+00 0.  1.
<mgrwt>
<rscale>  0 0.19500804E+04</rscale>
<asrwt>0</asrwt>
<pdfrwt beam="1">  1        2 0.25106730E+00 0.19500804E+04</pdfrwt>
<pdfrwt beam="2">  1       -2 0.89624795E-01 0.19500804E+04</pdfrwt>
<totfact> 0.10652906E+01</totfact>
</mgrwt>
</event>
<event>
12    1  0.1489233E-007  0.2218737E+04  0.7818608E-02  0.8510670E-01
         -2   -1    0    0    0  501 -0.00000000000E+00  0.00000000000E+00  0.36065228885E+04  0.36065228885E+04  0.00000000000E+00 0.  1.
          2   -1    0    0  501    0  0.00000000000E+00 -0.00000000000E+00 -0.34124246720E+03  0.34124246720E+03  0.00000000000E+00 0. -1.
         23    2    1    2    0    0  0.90607682859E+03  0.20991188258E+03  0.15981310426E+04  0.18513652247E+04  0.92152851491E+02 0.  0.
        254    2    1    2    0    0 -0.90607682859E+03 -0.20991188258E+03  0.16671493787E+04  0.20964001310E+04  0.86629570051E+03 0.  0.
        -24    2    4    4    0    0 -0.24321784261E+03  0.17142839878E+03  0.58809891656E+02  0.31373313614E+03  0.80170209445E+02 0.  0.
         24    2    4    4    0    0 -0.66285898598E+03 -0.38134028136E+03  0.16083394870E+04  0.17826669949E+04  0.79644608132E+02 0.  0.
         11    1    3    3    0    0  0.77533140602E+03  0.17431813390E+03  0.12960789955E+04  0.15203112719E+04  0.00000000000E+00 0. -1.
        -11    1    3    3    0    0  0.13074542257E+03  0.35593748677E+02  0.30205204716E+03  0.33105395280E+03  0.00000000000E+00 0.  1.
          4    1    6    6  502    0 -0.65305433715E+03 -0.38518764529E+03  0.15899758559E+04  0.17614972925E+04  0.00000000000E+00 0. -1.
          3    1    5    5  503    0 -0.24339902926E+03  0.15388595591E+03  0.64853700235E+02  0.29517787401E+03  0.00000000000E+00 0. -1.
         -4    1    5    5    0  503  0.18118665166E+00  0.17542442870E+02 -0.60438085793E+01  0.18555262126E+02  0.00000000000E+00 0.  1.
         -3    1    6    6    0  502 -0.98046488281E+01  0.38473639353E+01  0.18363631174E+02  0.21169702354E+02  0.00000000000E+00 0.  1.
<mgrwt>
<rscale>  0 0.22187373E+04</rscale>
<asrwt>0</asrwt>
<pdfrwt beam="1">  1        2 0.52498844E-01 0.22187373E+04</pdfrwt>
<pdfrwt beam="2">  1       -2 0.55484965E+00 0.22187373E+04</pdfrwt>
<totfact> 0.69054444E-02</totfact>
</mgrwt>
</event>
<event>
12    1  0.1489233E-007  0.2028723E+04  0.7818608E-02  0.8593308E-01
          1   -1    0    0  501    0  0.00000000000E+00  0.00000000000E+00  0.10910509085E+04  0.10910509085E+04  0.00000000000E+00 0. -1.
         -1   -1    0    0    0  501 -0.00000000000E+00 -0.00000000000E+00 -0.94306257203E+03  0.94306257203E+03  0.00000000000E+00 0.  1.
         23    2    1    2    0    0  0.67137260004E+03  0.44629011360E+03  0.21001315023E+02  0.81119038652E+03  0.87594259906E+02 0.  0.
        254    2    1    2    0    0 -0.67137260004E+03 -0.44629011360E+03  0.12698702146E+03  0.12229230940E+04  0.91076844295E+03 0.  0.
        -24    2    4    4    0    0 -0.40079238465E+03  0.23015345263E+03  0.14118687409E+03  0.48975282119E+03  0.79491792647E+02 0.  0.
         24    2    4    4    0    0 -0.27058021539E+03 -0.67644356623E+03 -0.14199852630E+02  0.73317027283E+03  0.80916388254E+02 0.  0.
         11    1    3    3    0    0  0.63123936811E+02  0.56271710010E+02 -0.21939167711E+02  0.87363973271E+02  0.00000000000E+00 0. -1.
        -11    1    3    3    0    0  0.60824866323E+03  0.39001840359E+03  0.42940482734E+02  0.72382641325E+03  0.00000000000E+00 0.  1.
          4    1    6    6  502    0 -0.31033155026E+02 -0.14352092155E+03 -0.24093239166E+02  0.14880119558E+03  0.00000000000E+00 0. -1.
          1    1    5    5  503    0 -0.20930750329E+03  0.75574655345E+02  0.57799340982E+02  0.22991720963E+03  0.00000000000E+00 0. -1.
         -2    1    5    5    0  503 -0.19148488136E+03  0.15457879728E+03  0.83387533110E+02  0.25983561156E+03  0.00000000000E+00 0.  1.
         -3    1    6    6    0  502 -0.23954706037E+03 -0.53292264468E+03  0.98933865361E+01  0.58436907724E+03  0.00000000000E+00 0.  1.
<mgrwt>
<rscale>  0 0.20287230E+04</rscale>
<asrwt>0</asrwt>
<pdfrwt beam="1">  1        1 0.16785399E+00 0.20287230E+04</pdfrwt>
<pdfrwt beam="2">  1       -1 0.14508655E+00 0.20287230E+04</pdfrwt>
<totfact> 0.45462209E+00</totfact>
</mgrwt>
</event>
<event>
12    1  0.1489233E-007  0.2865874E+04  0.7818608E-02  0.8283104E-01
         -1   -1    0    0    0  501 -0.00000000000E+00  0.00000000000E+00  0.89216253822E+03  0.89216253822E+03  0.00000000000E+00 0.  1.
          1   -1    0    0  501    0  0.00000000000E+00 -0.00000000000E+00 -0.23014966195E+04  0.23014966195E+04  0.00000000000E+00 0. -1.
         23    2    1    2    0    0 -0.81845512817E+03 -0.83362407079E+03 -0.12443754067E+04  0.17091914110E+04  0.89817807399E+02 0.  0.
        254    2    1    2    0    0  0.81845512817E+03  0.83362407079E+03 -0.16495867461E+03  0.14844677467E+04  0.90090800779E+03 0.  0.
        -24    2    4    4    0    0  0.45503511383E+03  0.23907003268E+03 -0.48696967794E+03  0.71260592954E+03  0.80351155814E+02 0.  0.
         24    2    4    4    0    0  0.36342001435E+03  0.59455403811E+03  0.32201100333E+03  0.77186181718E+03  0.80690566371E+02 0.  0.
         11    1    3    3    0    0 -0.64801092450E+03 -0.67998554195E+03 -0.10461302568E+04  0.14059470152E+04  0.00000000000E+00 0. -1.
        -11    1    3    3    0    0 -0.17044420368E+03 -0.15363852884E+03 -0.19824514991E+03  0.30324439578E+03  0.00000000000E+00 0.  1.
          4    1    6    6  502    0  0.22314095268E+03  0.36545172168E+03  0.15415431244E+03  0.45509383394E+03  0.00000000000E+00 0. -1.
          1    1    5    5  503    0  0.25308080467E+03  0.91702095061E+02 -0.27525784680E+03  0.38500136383E+03  0.00000000000E+00 0. -1.
         -2    1    5    5    0  503  0.20195430916E+03  0.14736793762E+03 -0.21171183114E+03  0.32760456571E+03  0.00000000000E+00 0.  1.
         -3    1    6    6    0  502  0.14027906167E+03  0.22910231642E+03  0.16785669088E+03  0.31676798324E+03  0.00000000000E+00 0.  1.
<mgrwt>
<rscale>  0 0.28658744E+04</rscale>
<asrwt>0</asrwt>
<pdfrwt beam="1">  1        1 0.35407641E+00 0.28658744E+04</pdfrwt>
<pdfrwt beam="2">  1       -1 0.13725577E+00 0.28658744E+04</pdfrwt>
<totfact> 0.70530182E-01</totfact>
</mgrwt>
</event>
<event>
12    1  0.1489233E-007  0.1125057E+04  0.7818608E-02  0.9181108E-01
          2   -1    0    0  501    0  0.00000000000E+00  0.00000000000E+00  0.48832787430E+03  0.48832787430E+03  0.00000000000E+00 0. -1.
         -2   -1    0    0    0  501 -0.00000000000E+00 -0.00000000000E+00 -0.64800364596E+03  0.64800364596E+03  0.00000000000E+00 0.  1.
         23    2    1    2    0    0  0.15024004429E+03 -0.11531755828E+03  0.20920462460E+02  0.21222335357E+03  0.93439156119E+02 0.  0.
        254    2    1    2    0    0 -0.15024004429E+03  0.11531755828E+03 -0.18059623412E+03  0.92410816669E+03  0.88627912861E+03 0.  0.
        -24    2    4    4    0    0 -0.24068927117E+03  0.27245904061E+03  0.25114516618E+03  0.44889327198E+03  0.79158202796E+02 0.  0.
         24    2    4    4    0    0  0.90449226879E+02 -0.15714148232E+03 -0.43174140030E+03  0.47521489471E+03  0.80957095502E+02 0.  0.
         13    1    3    3    0    0  0.16078158087E+03 -0.11798967381E+03  0.15389717015E+02  0.20002280686E+03  0.00000000000E+00 0. -1.
        -13    1    3    3    0    0 -0.10541536585E+02  0.26721155259E+01  0.55307454444E+01  0.12200546715E+02  0.00000000000E+00 0.  1.
          2    1    6    6  502    0  0.56093035213E+02 -0.35358576282E+02 -0.20624521610E+03  0.21664197811E+03  0.00000000000E+00 0. -1.
          3    1    5    5  503    0 -0.11183514114E+03  0.83628274336E+02  0.12697651028E+03  0.18874273820E+03  0.00000000000E+00 0. -1.
         -4    1    5    5    0  503 -0.12885413003E+03  0.18883076627E+03  0.12416865590E+03  0.26015053378E+03  0.00000000000E+00 0.  1.
         -1    1    6    6    0  502  0.34356191666E+02 -0.12178290604E+03 -0.22549618420E+03  0.25857291660E+03  0.00000000000E+00 0.  1.
<mgrwt>
<rscale>  0 0.11250569E+04</rscale>
<asrwt>0</asrwt>
<pdfrwt beam="1">  1        2 0.75127365E-01 0.11250569E+04</pdfrwt>
<pdfrwt beam="2">  1       -2 0.99692869E-01 0.11250569E+04</pdfrwt>
<totfact> 0.52223488E+01</totfact>
</mgrwt>
</event>
<event>
12    1  0.1754835E-007  0.1797860E+04  0.7818608E-02  0.8707439E-01
          1   -1    0    0  501    0  0.00000000000E+00  0.00000000000E+00  0.11077388211E+04  0.11077388211E+04  0.00000000000E+00 0. -1.
         -1   -1    0    0    0  501 -0.00000000000E+00 -0.00000000000E+00 -0.72948138150E+03  0.72948138150E+03  0.00000000000E+00 0.  1.
         23    2    1    2    0    0 -0.28067916488E+03 -0.88762306627E+02  0.74339312419E+03  0.80463831597E+03  0.90277027868E+02 0.  0.
        254    2    1    2    0    0  0.28067916488E+03  0.88762306627E+02 -0.36513568461E+03  0.10325818866E+04  0.91991398712E+03 0.  0.
        -24    2    4    4    0    0  0.19069579493E+03 -0.21062313718E+03 -0.57622988988E+03  0.64726452885E+03  0.78635184183E+02 0.  0.
         24    2    4    4    0    0  0.89983369951E+02  0.29938544381E+03  0.21109420528E+03  0.38531735775E+03  0.78613305822E+02 0.  0.
         11    1    3    3    0    0 -0.25149272517E+03 -0.10255016691E+03  0.69765144058E+03  0.74865389873E+03  0.00000000000E+00 0. -1.
        -11    1    3    3    0    0 -0.29186439709E+02  0.13787860278E+02  0.45741683613E+02  0.55984417240E+02  0.00000000000E+00 0.  1.
          4    1    6    6  502    0  0.22517538742E+02  0.98052480235E+01  0.10913528832E+02  0.26875407929E+02  0.00000000000E+00 0. -1.
          1    1    5    5  503    0  0.37938180026E+01 -0.43875456102E+02 -0.96861485515E+02  0.10640298905E+03  0.00000000000E+00 0. -1.
         -2    1    5    5    0  503  0.18690197692E+03 -0.16674768108E+03 -0.47936840437E+03  0.54086153980E+03  0.00000000000E+00 0.  1.
         -3    1    6    6    0  502  0.67465831210E+02  0.28958019579E+03  0.20018067644E+03  0.35844194982E+03  0.00000000000E+00 0.  1.
<mgrwt>
<rscale>  0 0.17978597E+04</rscale>
<asrwt>0</asrwt>
<pdfrwt beam="1">  1        1 0.17042136E+00 0.17978597E+04</pdfrwt>
<pdfrwt beam="2">  1       -1 0.11222791E+00 0.17978597E+04</pdfrwt>
<totfact> 0.85925400E+00</totfact>
</mgrwt>
</event>
<event>
12    1  0.1489233E-007  0.1676909E+04  0.7818608E-02  0.8774645E-01
          3   -1    0    0  501    0  0.00000000000E+00  0.00000000000E+00  0.16396571126E+04  0.16396571126E+04  0.00000000000E+00 0. -1.
         -3   -1    0    0    0  501 -0.00000000000E+00 -0.00000000000E+00 -0.42875178672E+03  0.42875178672E+03  0.00000000000E+00 0.  1.
         23    2    1    2    0    0  0.15393965928E+03 -0.51781890664E+03  0.76383033717E+03  0.93994149050E+03  0.90660811865E+02 0.  0.
        254    2    1    2    0    0 -0.15393965928E+03  0.51781890664E+03  0.44707498866E+03  0.11284674088E+04  0.88415428994E+03 0.  0.
        -24    2    4    4    0    0 -0.44001202527E+03  0.47271302889E+03  0.82551173667E+02  0.65607252706E+03  0.80921408963E+02 0.  0.
         24    2    4    4    0    0  0.28607236598E+03  0.45105877753E+02  0.36452381499E+03  0.47239488172E+03  0.80046072915E+02 0.  0.
         11    1    3    3    0    0  0.10014391710E+03 -0.39907065639E+03  0.63510654526E+03  0.75673411232E+03  0.00000000000E+00 0. -1.
        -11    1    3    3    0    0  0.53795742185E+02 -0.11874825025E+03  0.12872379191E+03  0.18320737818E+03  0.00000000000E+00 0.  1.
          2    1    6    6  502    0  0.61839507356E+02  0.62118008893E+01  0.13772698120E+03  0.15110073623E+03  0.00000000000E+00 0. -1.
          1    1    5    5  503    0 -0.69737303635E+02  0.77567625928E+02  0.43920328310E+02  0.11317695591E+03  0.00000000000E+00 0. -1.
         -2    1    5    5    0  503 -0.37027472163E+03  0.39514540296E+03  0.38630845357E+02  0.54289557115E+03  0.00000000000E+00 0.  1.
         -1    1    6    6    0  502  0.22423285863E+03  0.38894076864E+02  0.22679683380E+03  0.32129414548E+03  0.00000000000E+00 0.  1.
<mgrwt>
<rscale>  0 0.16769090E+04</rscale>
<asrwt>0</asrwt>
<pdfrwt beam="1">  1        3 0.25225494E+00 0.16769090E+04</pdfrwt>
<pdfrwt beam="2">  1       -3 0.65961814E-01 0.16769090E+04</pdfrwt>
<totfact> 0.39747914E-01</totfact>
</mgrwt>
</event>
<event>
12    1  0.1489233E-007  0.1712497E+04  0.7818608E-02  0.8754269E-01
          2   -1    0    0  501    0  0.00000000000E+00  0.00000000000E+00  0.82240730741E+03  0.82240730741E+03  0.00000000000E+00 0. -1.
         -2   -1    0    0    0  501 -0.00000000000E+00 -0.00000000000E+00 -0.89148217904E+03  0.89148217904E+03  0.00000000000E+00 0.  1.
         23    2    1    2    0    0  0.35094303095E+03  0.41565598693E+03  0.27904063384E+03  0.61875583679E+03  0.95206091114E+02 0.  0.
        254    2    1    2    0    0 -0.35094303095E+03 -0.41565598693E+03 -0.34811550547E+03  0.10951336497E+04  0.88442206838E+03 0.  0.
        -24    2    4    4    0    0 -0.54062673794E+03 -0.50475302783E+03 -0.83221071815E+02  0.74856112708E+03  0.79781735320E+02 0.  0.
         24    2    4    4    0    0  0.18968370699E+03  0.89097040909E+02 -0.26489443366E+03  0.34657252259E+03  0.77622554952E+02 0.  0.
         11    1    3    3    0    0  0.12961002683E+03  0.87414372199E+02  0.75730967081E+02  0.17371013470E+03  0.00000000000E+00 0.  1.
        -11    1    3    3    0    0  0.22133300412E+03  0.32824161473E+03  0.20330966676E+03  0.44504570209E+03  0.00000000000E+00 0. -1.
          2    1    6    6  502    0  0.55289944361E+00  0.36988673888E+00 -0.38547341817E+02  0.38553081266E+02  0.00000000000E+00 0. -1.
          1    1    5    5  503    0 -0.66368971377E+02 -0.49991888467E+02  0.14272326562E+02  0.84307345941E+02  0.00000000000E+00 0. -1.
         -2    1    5    5    0  503 -0.47425776656E+03 -0.45476113937E+03 -0.97493398377E+02  0.66425378113E+03  0.00000000000E+00 0.  1.
         -1    1    6    6    0  502  0.18913080754E+03  0.88727154170E+02 -0.22634709184E+03  0.30801944133E+03  0.00000000000E+00 0.  1.
<mgrwt>
<rscale>  0 0.17124970E+04</rscale>
<asrwt>0</asrwt>
<pdfrwt beam="1">  1        2 0.12652420E+00 0.17124970E+04</pdfrwt>
<pdfrwt beam="2">  1       -2 0.13715110E+00 0.17124970E+04</pdfrwt>
<totfact> 0.11950838E+01</totfact>
</mgrwt>
</event>
<event>
12    1  0.1489233E-007  0.1786062E+04  0.7818608E-02  0.8713747E-01
          2   -1    0    0  501    0  0.00000000000E+00  0.00000000000E+00  0.67387786840E+03  0.67387786840E+03  0.00000000000E+00 0. -1.
         -2   -1    0    0    0  501 -0.00000000000E+00 -0.00000000000E+00 -0.11834549190E+04  0.11834549190E+04  0.00000000000E+00 0.  1.
         23    2    1    2    0    0  0.10041192708E+03 -0.65601554467E+03 -0.29499505952E+03  0.73188934449E+03  0.90559248461E+02 0.  0.
        254    2    1    2    0    0 -0.10041192708E+03  0.65601554467E+03 -0.21458199109E+03  0.11254434429E+04  0.88325452865E+03 0.  0.
        -24    2    4    4    0    0 -0.40645043463E+03  0.66546726725E+03 -0.10583041309E+03  0.79109359328E+03  0.81119402080E+02 0.  0.
         24    2    4    4    0    0  0.30603850756E+03 -0.94517225801E+01 -0.10875157800E+03  0.33434984965E+03  0.78829011632E+02 0.  0.
         11    1    3    3    0    0  0.91841793108E+02 -0.58464659744E+03 -0.22986330186E+03  0.63488872758E+03  0.00000000000E+00 0.  1.
        -11    1    3    3    0    0  0.85701339693E+01 -0.71368947229E+02 -0.65131757662E+02  0.97000616910E+02  0.00000000000E+00 0. -1.
          4    1    6    6  502    0  0.90551843718E+02  0.23761341662E+02 -0.59180202131E+02  0.11075438629E+03  0.00000000000E+00 0. -1.
          1    1    5    5  503    0 -0.66671831179E+02  0.12908261961E+03  0.10160094024E+02  0.14563887966E+03  0.00000000000E+00 0. -1.
         -2    1    5    5    0  503 -0.33977860345E+03  0.53638464764E+03 -0.11599050711E+03  0.64545471362E+03  0.00000000000E+00 0.  1.
         -3    1    6    6    0  502  0.21548666384E+03 -0.33213064242E+02 -0.49571375872E+02  0.22359546336E+03  0.00000000000E+00 0.  1.
<mgrwt>
<rscale>  0 0.17860617E+04</rscale>
<asrwt>0</asrwt>
<pdfrwt beam="1">  1        2 0.10367352E+00 0.17860617E+04</pdfrwt>
<pdfrwt beam="2">  1       -2 0.18206999E+00 0.17860617E+04</pdfrwt>
<totfact> 0.71230816E+00</totfact>
</mgrwt>
</event>
<event>
12    1  0.1489233E-007  0.1791933E+04  0.7818608E-02  0.8710601E-01
          2   -1    0    0  501    0  0.00000000000E+00  0.00000000000E+00  0.10354078644E+04  0.10354078644E+04  0.00000000000E+00 0. -1.
         -2   -1    0    0    0  501 -0.00000000000E+00 -0.00000000000E+00 -0.77530426638E+03  0.77530426638E+03  0.00000000000E+00 0.  1.
         23    2    1    2    0    0 -0.31733395743E+03  0.81510073740E+01  0.68610716031E+03  0.76117215261E+03  0.88728411580E+02 0.  0.
        254    2    1    2    0    0  0.31733395743E+03 -0.81510073740E+01 -0.42600356231E+03  0.10495399781E+04  0.90514520998E+03 0.  0.
        -24    2    4    4    0    0 -0.29138425144E+03 -0.70513746592E+02 -0.27379391383E+03  0.41372412442E+03  0.79546045964E+02 0.  0.
         24    2    4    4    0    0  0.60871820887E+03  0.62362739218E+02 -0.15220964848E+03  0.63581585372E+03  0.81652028116E+02 0.  0.
         13    1    3    3    0    0 -0.28976379071E+03 -0.19378988792E+02  0.61382836069E+03  0.67906101051E+03  0.00000000000E+00 0. -1.
        -13    1    3    3    0    0 -0.27570166723E+02  0.27529996166E+02  0.72278799620E+02  0.82111142097E+02  0.00000000000E+00 0.  1.
          4    1    6    6  502    0  0.58639409952E+03  0.68511974694E+02 -0.15948354185E+03  0.61154470871E+03  0.00000000000E+00 0. -1.
          3    1    5    5  503    0 -0.24744309301E+03 -0.28494999576E+02 -0.22705191317E+03  0.33703504351E+03  0.00000000000E+00 0. -1.
         -4    1    5    5    0  503 -0.43941158437E+02 -0.42018747015E+02 -0.46742000661E+02  0.76689080913E+02  0.00000000000E+00 0.  1.
         -3    1    6    6    0  502  0.22324109351E+02 -0.61492354759E+01  0.72738933732E+01  0.24271145009E+02  0.00000000000E+00 0.  1.
<mgrwt>
<rscale>  0 0.17919332E+04</rscale>
<asrwt>0</asrwt>
<pdfrwt beam="1">  1        2 0.15929352E+00 0.17919332E+04</pdfrwt>
<pdfrwt beam="2">  1       -2 0.11927758E+00 0.17919332E+04</pdfrwt>
<totfact> 0.12176646E+01</totfact>
</mgrwt>
</event>
<event>
12    1  0.1489233E-007  0.1775249E+04  0.7818608E-02  0.8719574E-01
          2   -1    0    0  501    0  0.00000000000E+00  0.00000000000E+00  0.20542322264E+04  0.20542322264E+04  0.00000000000E+00 0. -1.
         -2   -1    0    0    0  501 -0.00000000000E+00 -0.00000000000E+00 -0.38353854574E+03  0.38353854574E+03  0.00000000000E+00 0.  1.
         23    2    1    2    0    0 -0.22461172256E+03  0.60837878889E+03  0.70877522004E+03  0.96494939809E+03  0.90497799162E+02 0.  0.
        254    2    1    2    0    0  0.22461172256E+03 -0.60837878889E+03  0.96191846058E+03  0.14728213740E+04  0.90738112073E+03 0.  0.
        -24    2    4    4    0    0  0.47503742533E+03 -0.57903166430E+03  0.40229076859E+03  0.85389797049E+03  0.79785072433E+02 0.  0.
         24    2    4    4    0    0 -0.25042570277E+03 -0.29347124588E+02  0.55962769199E+03  0.61892340352E+03  0.79427573689E+02 0.  0.
         11    1    3    3    0    0 -0.90055758130E+02  0.35615170685E+03  0.36528689292E+03  0.51806234374E+03  0.00000000000E+00 0.  1.
        -11    1    3    3    0    0 -0.13455596443E+03  0.25222708204E+03  0.34348832712E+03  0.44688705435E+03  0.00000000000E+00 0. -1.
          4    1    6    6  502    0 -0.67075730816E+02  0.55673474554E+01  0.23516898102E+03  0.24461111720E+03  0.00000000000E+00 0. -1.
          1    1    5    5  503    0  0.40314121162E+03 -0.49766807346E+03  0.37410510708E+03  0.74172163174E+03  0.00000000000E+00 0. -1.
         -2    1    5    5    0  503  0.71896213708E+02 -0.81363590842E+02  0.28185661515E+02  0.11217633875E+03  0.00000000000E+00 0.  1.
         -3    1    6    6    0  502 -0.18334997195E+03 -0.34914472043E+02  0.32445871097E+03  0.37431228632E+03  0.00000000000E+00 0.  1.
<mgrwt>
<rscale>  0 0.17752490E+04</rscale>
<asrwt>0</asrwt>
<pdfrwt beam="1">  1        2 0.31603572E+00 0.17752490E+04</pdfrwt>
<pdfrwt beam="2">  1       -2 0.59005931E-01 0.17752490E+04</pdfrwt>
<totfact> 0.15818205E+01</totfact>
</mgrwt>
</event>
<event>
12    1  0.1489233E-007  0.1208238E+04  0.7818608E-02  0.9105676E-01
          2   -1    0    0  501    0  0.00000000000E+00  0.00000000000E+00  0.18716442499E+04  0.18716442499E+04  0.00000000000E+00 0. -1.
         -2   -1    0    0    0  501 -0.00000000000E+00 -0.00000000000E+00 -0.19499418329E+03  0.19499418329E+03  0.00000000000E+00 0.  1.
         23    2    1    2    0    0 -0.24227150871E+03  0.22818624435E+02  0.22599498446E+03  0.34442083257E+03  0.91300620766E+02 0.  0.
        254    2    1    2    0    0  0.24227150871E+03 -0.22818624435E+02  0.14506550822E+04  0.17222176007E+04  0.89577738474E+03 0.  0.
        -24    2    4    4    0    0  0.26055620520E+03 -0.20146782554E+03  0.14845840060E+04  0.15228172924E+04  0.80647470883E+02 0.  0.
         24    2    4    4    0    0 -0.18284696486E+02  0.17864920110E+03 -0.33928923786E+02  0.19940030823E+03  0.79746121361E+02 0.  0.
         13    1    3    3    0    0 -0.16081961841E+03  0.12014161797E+02  0.87734313869E+02  0.18358812483E+03  0.00000000000E+00 0.  1.
        -13    1    3    3    0    0 -0.81451890307E+02  0.10804462638E+02  0.13826067059E+03  0.16083270774E+03  0.00000000000E+00 0. -1.
          2    1    6    6  502    0 -0.13371781466E+02  0.17810551476E+03 -0.14322163479E+02  0.17918008621E+03  0.00000000000E+00 0. -1.
          3    1    5    5  503    0  0.25736236228E+03 -0.17229177230E+03  0.13618017966E+04  0.13965758030E+04  0.00000000000E+00 0. -1.
         -4    1    5    5    0  503  0.31938429224E+01 -0.29176053241E+02  0.12278220934E+03  0.12624148940E+03  0.00000000000E+00 0.  1.
         -1    1    6    6    0  502 -0.49129150207E+01  0.54368634502E+00 -0.19606760307E+02  0.20220222021E+02  0.00000000000E+00 0.  1.
<mgrwt>
<rscale>  0 0.12082380E+04</rscale>
<asrwt>0</asrwt>
<pdfrwt beam="1">  1        2 0.28794526E+00 0.12082380E+04</pdfrwt>
<pdfrwt beam="2">  1       -2 0.29999106E-01 0.12082380E+04</pdfrwt>
<totfact> 0.79676507E+01</totfact>
</mgrwt>
</event>
<event>
12    1  0.1489233E-007  0.2034454E+04  0.7818608E-02  0.8590679E-01
          2   -1    0    0  501    0  0.00000000000E+00  0.00000000000E+00  0.16551292632E+04  0.16551292632E+04  0.00000000000E+00 0. -1.
         -2   -1    0    0    0  501 -0.00000000000E+00 -0.00000000000E+00 -0.62517847434E+03  0.62517847434E+03  0.00000000000E+00 0.  1.
         23    2    1    2    0    0 -0.64901302022E+03 -0.18923169276E+03  0.92879220354E+03  0.11523764638E+04  0.91049563634E+02 0.  0.
        254    2    1    2    0    0  0.64901302022E+03  0.18923169276E+03  0.10115858532E+03  0.11279312737E+04  0.89720084981E+03 0.  0.
        -24    2    4    4    0    0  0.64182826760E+03 -0.51654383234E+02  0.37870575288E+03  0.75160188759E+03  0.82919537929E+02 0.  0.
         24    2    4    4    0    0  0.71847526250E+01  0.24088607599E+03 -0.27754716757E+03  0.37632938613E+03  0.80707213846E+02 0.  0.
         13    1    3    3    0    0 -0.60250559853E+03 -0.14928686024E+03  0.83928094346E+03  0.10438831663E+04  0.00000000000E+00 0. -1.
        -13    1    3    3    0    0 -0.46507421692E+02 -0.39944832519E+02  0.89511260071E+02  0.10849329747E+03  0.00000000000E+00 0.  1.
          4    1    6    6  502    0 -0.11849841270E+02  0.29703332296E+02 -0.81491247393E+02  0.87541590626E+02  0.00000000000E+00 0. -1.
          3    1    5    5  503    0  0.32441473926E+03  0.15292276543E+02  0.19407707838E+03  0.37834466974E+03  0.00000000000E+00 0. -1.
         -4    1    5    5    0  503  0.31741352834E+03 -0.66946659777E+02  0.18462867451E+03  0.37325721785E+03  0.00000000000E+00 0.  1.
         -3    1    6    6    0  502  0.19034593895E+02  0.21118274369E+03 -0.19605592017E+03  0.28878779551E+03  0.00000000000E+00 0.  1.
<mgrwt>
<rscale>  0 0.20344544E+04</rscale>
<asrwt>0</asrwt>
<pdfrwt beam="1">  1        2 0.25463527E+00 0.20344544E+04</pdfrwt>
<pdfrwt beam="2">  1       -2 0.96181304E-01 0.20344544E+04</pdfrwt>
<totfact> 0.87143525E+00</totfact>
</mgrwt>
</event>
<event>
12    1  0.1489233E-007  0.1548370E+04  0.7818608E-02  0.8852910E-01
          2   -1    0    0  501    0  0.00000000000E+00  0.00000000000E+00  0.23380058530E+04  0.23380058530E+04  0.00000000000E+00 0. -1.
         -2   -1    0    0    0  501 -0.00000000000E+00 -0.00000000000E+00 -0.25635625399E+03  0.25635625399E+03  0.00000000000E+00 0.  1.
         23    2    1    2    0    0  0.35709422517E+03 -0.27722766056E+03  0.31480999463E+03  0.55831909466E+03  0.90793266882E+02 0.  0.
        254    2    1    2    0    0 -0.35709422517E+03  0.27722766056E+03  0.17668396044E+04  0.20360430123E+04  0.90519472988E+03 0.  0.
        -24    2    4    4    0    0 -0.20930221780E+03 -0.24481730331E+03  0.12081655563E+04  0.12532197373E+04  0.84574039126E+02 0.  0.
         24    2    4    4    0    0 -0.14779200737E+03  0.52204496387E+03  0.55867404808E+03  0.78282327505E+03  0.79512050762E+02 0.  0.
         11    1    3    3    0    0  0.31632783147E+03 -0.25669877088E+03  0.24646120657E+03  0.47613095077E+03  0.00000000000E+00 0.  1.
        -11    1    3    3    0    0  0.40766393696E+02 -0.20528889675E+02  0.68348788059E+02  0.82188143885E+02  0.00000000000E+00 0. -1.
          2    1    6    6  502    0 -0.26855245299E+02  0.25975534251E+02  0.45962097286E+02  0.59232144707E+02  0.00000000000E+00 0. -1.
          1    1    5    5  503    0  0.17903070768E+01 -0.15307993630E+02  0.22763406627E+02  0.27490226439E+02  0.00000000000E+00 0. -1.
         -2    1    5    5    0  503 -0.21109252488E+03 -0.22950930968E+03  0.11854021496E+04  0.12257295108E+04  0.00000000000E+00 0.  1.
         -1    1    6    6    0  502 -0.12093676207E+03  0.49606942962E+03  0.51271195080E+03  0.72359113035E+03  0.00000000000E+00 0.  1.
<mgrwt>
<rscale>  0 0.15483700E+04</rscale>
<asrwt>0</asrwt>
<pdfrwt beam="1">  1        2 0.35969319E+00 0.15483700E+04</pdfrwt>
<pdfrwt beam="2">  1       -2 0.39439425E-01 0.15483700E+04</pdfrwt>
<totfact> 0.25286195E+01</totfact>
</mgrwt>
</event>
<event>
12    1  0.1489233E-007  0.1686818E+04  0.7818608E-02  0.8768918E-01
         -2   -1    0    0    0  501 -0.00000000000E+00  0.00000000000E+00  0.82830981448E+03  0.82830981448E+03  0.00000000000E+00 0.  1.
          2   -1    0    0  501    0  0.00000000000E+00 -0.00000000000E+00 -0.85878390664E+03  0.85878390664E+03  0.00000000000E+00 0. -1.
         23    2    1    2    0    0 -0.16526913785E+03  0.44867133949E+03  0.33109732496E+03  0.58867595600E+03  0.91071860524E+02 0.  0.
        254    2    1    2    0    0  0.16526913785E+03 -0.44867133949E+03 -0.36157141712E+03  0.10984177651E+04  0.92041720881E+03 0.  0.
        -24    2    4    4    0    0 -0.15015996706E+02 -0.29552331904E+03 -0.64942656612E+03  0.71791492795E+03  0.78022219558E+02 0.  0.
         24    2    4    4    0    0  0.18028513456E+03 -0.15314802045E+03  0.28785514900E+03  0.38050283717E+03  0.77231964744E+02 0.  0.
         13    1    3    3    0    0 -0.11323236921E+03  0.24207960594E+03  0.13631482847E+03  0.30000972903E+03  0.00000000000E+00 0. -1.
        -13    1    3    3    0    0 -0.52036768644E+02  0.20659173355E+03  0.19478249648E+03  0.28866622698E+03  0.00000000000E+00 0.  1.
          4    1    6    6  502    0  0.10121026217E+02  0.11013580873E+01 -0.23131257944E+01  0.10440244837E+02  0.00000000000E+00 0. -1.
          1    1    5    5  503    0  0.18530369015E+02 -0.18576023768E+02 -0.42548614869E+02  0.49988277246E+02  0.00000000000E+00 0. -1.
         -2    1    5    5    0  503 -0.33546365720E+02 -0.27694729527E+03 -0.60687795125E+03  0.66792665071E+03  0.00000000000E+00 0.  1.
         -3    1    6    6    0  502  0.17016410834E+03 -0.15424937854E+03  0.29016827480E+03  0.37006259234E+03  0.00000000000E+00 0.  1.
<mgrwt>
<rscale>  0 0.16868185E+04</rscale>
<asrwt>0</asrwt>
<pdfrwt beam="1">  1        2 0.13212060E+00 0.16868185E+04</pdfrwt>
<pdfrwt beam="2">  1       -2 0.12743228E+00 0.16868185E+04</pdfrwt>
<totfact> 0.13614547E+01</totfact>
</mgrwt>
</event>
<event>
12    1  0.1489233E-007  0.2090496E+04  0.7818608E-02  0.8565442E-01
         -2   -1    0    0    0  501 -0.00000000000E+00  0.00000000000E+00  0.87246251106E+03  0.87246251106E+03  0.00000000000E+00 0.  1.
          2   -1    0    0  501    0  0.00000000000E+00 -0.00000000000E+00 -0.12522526015E+04  0.12522526015E+04  0.00000000000E+00 0. -1.
         23    2    1    2    0    0  0.36250770638E+03 -0.75911519597E+03  0.20122016692E+02  0.84636239385E+03  0.90866320669E+02 0.  0.
        254    2    1    2    0    0 -0.36250770638E+03  0.75911519597E+03 -0.39991210717E+03  0.12783527187E+04  0.87555026247E+03 0.  0.
        -24    2    4    4    0    0 -0.42999291746E+03  0.87204747855E+03 -0.15363190612E+03  0.98780620546E+03  0.82447698867E+02 0.  0.
         24    2    4    4    0    0  0.67485211078E+02 -0.11293228258E+03 -0.24628020105E+03  0.29054651328E+03  0.80345409246E+02 0.  0.
         13    1    3    3    0    0  0.59634271666E+02 -0.21778419273E+03  0.26499838281E+01  0.22581679161E+03  0.00000000000E+00 0. -1.
        -13    1    3    3    0    0  0.30287343472E+03 -0.54133100324E+03  0.17472032863E+02  0.62054560224E+03  0.00000000000E+00 0.  1.
          4    1    6    6  502    0  0.47336278631E+02 -0.23862559796E+02 -0.45061165287E+02  0.69574806156E+02  0.00000000000E+00 0. -1.
          1    1    5    5  503    0 -0.10607134151E+03  0.14431614608E+03 -0.22330233975E+02  0.18049077223E+03  0.00000000000E+00 0. -1.
         -2    1    5    5    0  503 -0.32392157595E+03  0.72773133247E+03 -0.13130167215E+03  0.80731543323E+03  0.00000000000E+00 0.  1.
         -3    1    6    6    0  502  0.20148932446E+02 -0.89069722785E+02 -0.20121903577E+03  0.22097170713E+03  0.00000000000E+00 0.  1.
<mgrwt>
<rscale>  0 0.20904961E+04</rscale>
<asrwt>0</asrwt>
<pdfrwt beam="1">  1        2 0.19265425E+00 0.20904961E+04</pdfrwt>
<pdfrwt beam="2">  1       -2 0.13422500E+00 0.20904961E+04</pdfrwt>
<totfact> 0.65119877E+00</totfact>
</mgrwt>
</event>
<event>
12    1  0.1489233E-007  0.2186507E+04  0.7818608E-02  0.8524065E-01
          1   -1    0    0  501    0  0.00000000000E+00  0.00000000000E+00  0.30764234028E+04  0.30764234028E+04  0.00000000000E+00 0. -1.
         -1   -1    0    0    0  501 -0.00000000000E+00 -0.00000000000E+00 -0.38850423388E+03  0.38850423388E+03  0.00000000000E+00 0.  1.
         23    2    1    2    0    0  0.36793338054E+03  0.98495905105E+02  0.24146219885E+04  0.24460492988E+04  0.87643647917E+02 0.  0.
        254    2    1    2    0    0 -0.36793338054E+03 -0.98495905105E+02  0.27329718047E+03  0.10188783379E+04  0.90462439874E+03 0.  0.
        -24    2    4    4    0    0 -0.65898081780E+03 -0.12184576143E+03  0.23219103991E+03  0.71365291065E+03  0.79282344011E+02 0.  0.
         24    2    4    4    0    0  0.29104743725E+03  0.23349856324E+02  0.41106140566E+02  0.30522542727E+03  0.78860764243E+02 0.  0.
         11    1    3    3    0    0  0.35916157063E+03  0.10491929616E+03  0.22355074066E+04  0.22666050511E+04  0.00000000000E+00 0. -1.
        -11    1    3    3    0    0  0.87718099127E+01 -0.64233910499E+01  0.17911458187E+03  0.17944424772E+03  0.00000000000E+00 0.  1.
          4    1    6    6  502    0  0.11004696574E+01 -0.48662305545E+01  0.11343713991E+02  0.12392379932E+02  0.00000000000E+00 0. -1.
          3    1    5    5  503    0 -0.13839963959E+03 -0.17408147711E+02  0.16123313211E+02  0.14041889144E+03  0.00000000000E+00 0. -1.
         -4    1    5    5    0  503 -0.52058117821E+03 -0.10443761372E+03  0.21606772670E+03  0.57323401921E+03  0.00000000000E+00 0.  1.
         -3    1    6    6    0  502  0.28994696759E+03  0.28216086878E+02  0.29762426575E+02  0.29283304734E+03  0.00000000000E+00 0.  1.
<mgrwt>
<rscale>  0 0.21865073E+04</rscale>
<asrwt>0</asrwt>
<pdfrwt beam="1">  1        1 0.47329589E+00 0.21865073E+04</pdfrwt>
<pdfrwt beam="2">  1       -1 0.59769884E-01 0.21865073E+04</pdfrwt>
<totfact> 0.13624876E+00</totfact>
</mgrwt>
</event>
<event>
12    1  0.1489233E-007  0.1935527E+04  0.7818608E-02  0.8637372E-01
          1   -1    0    0  501    0  0.00000000000E+00  0.00000000000E+00  0.27658739886E+04  0.27658739886E+04  0.00000000000E+00 0. -1.
         -1   -1    0    0    0  501 -0.00000000000E+00 -0.00000000000E+00 -0.33861490717E+03  0.33861490717E+03  0.00000000000E+00 0.  1.
         23    2    1    2    0    0 -0.12692568728E+03  0.70512799879E+03  0.13256622715E+04  0.15092644382E+04  0.84752944463E+02 0.  0.
        254    2    1    2    0    0  0.12692568728E+03 -0.70512799879E+03  0.11015968099E+04  0.15952244575E+04  0.90438372028E+03 0.  0.
        -24    2    4    4    0    0 -0.65217118775E+02  0.99608934700E+02  0.61630156602E+03  0.63267508455E+03  0.79214455002E+02 0.  0.
         24    2    4    4    0    0  0.19214280605E+03 -0.80473693349E+03  0.48529524386E+03  0.96254937295E+03  0.80432776964E+02 0.  0.
         11    1    3    3    0    0  0.10820348833E+02  0.21685640757E+02  0.41901855422E+02  0.48405706810E+02  0.00000000000E+00 0.  1.
        -11    1    3    3    0    0 -0.13774603611E+03  0.68344235804E+03  0.12837604161E+04  0.14608587314E+04  0.00000000000E+00 0. -1.
          4    1    6    6  502    0  0.58057543774E+02 -0.26041956459E+03  0.20060563332E+03  0.33381379260E+03  0.00000000000E+00 0. -1.
          3    1    5    5  503    0  0.16010956258E+02  0.48854179912E+01  0.47988606187E+02  0.50824446412E+02  0.00000000000E+00 0. -1.
         -4    1    5    5    0  503 -0.81228075032E+02  0.94723516709E+02  0.56831295983E+03  0.58185063814E+03  0.00000000000E+00 0.  1.
         -3    1    6    6    0  502  0.13408526228E+03 -0.54431736891E+03  0.28468961054E+03  0.62873558035E+03  0.00000000000E+00 0.  1.
<mgrwt>
<rscale>  0 0.19355270E+04</rscale>
<asrwt>0</asrwt>
<pdfrwt beam="1">  1        1 0.42551906E+00 0.19355270E+04</pdfrwt>
<pdfrwt beam="2">  1       -1 0.52094603E-01 0.19355270E+04</pdfrwt>
<totfact> 0.30547831E+00</totfact>
</mgrwt>
</event>
<event>
12    1  0.1489233E-007  0.1557809E+04  0.7818608E-02  0.8846895E-01
         -1   -1    0    0    0  501 -0.00000000000E+00  0.00000000000E+00  0.29879175256E+03  0.29879175256E+03  0.00000000000E+00 0.  1.
          1   -1    0    0  501    0  0.00000000000E+00 -0.00000000000E+00 -0.20304853090E+04  0.20304853090E+04  0.00000000000E+00 0. -1.
         23    2    1    2    0    0  0.15087280618E+03 -0.40847375874E+03 -0.17505037657E+03  0.47825013683E+03  0.92017084388E+02 0.  0.
        254    2    1    2    0    0 -0.15087280618E+03  0.40847375874E+03 -0.15566431799E+04  0.18510269247E+04  0.90196966211E+03 0.  0.
        -24    2    4    4    0    0 -0.10494318575E+03  0.50154798149E+03 -0.16234116281E+04  0.17042287970E+04  0.79793660567E+02 0.  0.
         24    2    4    4    0    0 -0.45929620433E+02 -0.93074222755E+02  0.66768448204E+02  0.14679812775E+03  0.79494173756E+02 0.  0.
         13    1    3    3    0    0 -0.19045887134E+01  0.13077905981E+01  0.48397564269E+01  0.53629298604E+01  0.00000000000E+00 0. -1.
        -13    1    3    3    0    0  0.15277739489E+03 -0.40978154934E+03 -0.17989013299E+03  0.47288720697E+03  0.00000000000E+00 0.  1.
          2    1    6    6  502    0 -0.61740621105E+02 -0.79145715646E+02  0.73795466713E+02  0.12458619308E+03  0.00000000000E+00 0. -1.
          3    1    5    5  503    0 -0.85187304445E+02  0.48250387276E+03 -0.15599857479E+04  0.16351215238E+04  0.00000000000E+00 0. -1.
         -4    1    5    5    0  503 -0.19755881303E+02  0.19044108730E+02 -0.63425880211E+02  0.69107273162E+02  0.00000000000E+00 0.  1.
         -1    1    6    6    0  502  0.15811000672E+02 -0.13928507109E+02 -0.70270185094E+01  0.22211934668E+02  0.00000000000E+00 0.  1.
<mgrwt>
<rscale>  0 0.15578091E+04</rscale>
<asrwt>0</asrwt>
<pdfrwt beam="1">  1        1 0.31238236E+00 0.15578091E+04</pdfrwt>
<pdfrwt beam="2">  1       -1 0.45967961E-01 0.15578091E+04</pdfrwt>
<totfact> 0.12881520E+01</totfact>
</mgrwt>
</event>
<event>
12    1  0.1489233E-007  0.1346606E+04  0.7818608E-02  0.8993402E-01
          2   -1    0    0  501    0  0.00000000000E+00  0.00000000000E+00  0.99096901898E+03  0.99096901898E+03  0.00000000000E+00 0. -1.
         -2   -1    0    0    0  501 -0.00000000000E+00 -0.00000000000E+00 -0.45746806689E+03  0.45746806689E+03  0.00000000000E+00 0.  1.
         23    2    1    2    0    0 -0.61649942373E+02  0.31863256034E+03  0.34422480867E+03  0.48179517380E+03  0.91150681234E+02 0.  0.
        254    2    1    2    0    0  0.61649942373E+02 -0.31863256034E+03  0.18927614342E+03  0.96664191208E+03  0.89064229847E+03 0.  0.
        -24    2    4    4    0    0  0.24961897248E+03  0.38618993409E+02  0.41909732963E+03  0.49561427409E+03  0.78675783482E+02 0.  0.
         24    2    4    4    0    0 -0.18796903011E+03 -0.35725155375E+03 -0.22982118621E+03  0.47102763799E+03  0.78027105444E+02 0.  0.
         11    1    3    3    0    0 -0.26578045265E+02  0.28132165699E+03  0.31359943903E+03  0.42212897951E+03  0.00000000000E+00 0. -1.
        -11    1    3    3    0    0 -0.35071897108E+02  0.37310903349E+02  0.30625369642E+02  0.59666194291E+02  0.00000000000E+00 0.  1.
          2    1    6    6  502    0 -0.81877672074E+02 -0.17413475618E+03 -0.15317466105E+03  0.24594581371E+03  0.00000000000E+00 0. -1.
          1    1    5    5  503    0  0.41046702532E+02 -0.11781142580E+02  0.12104654893E+03  0.12835845947E+03  0.00000000000E+00 0. -1.
         -2    1    5    5    0  503  0.20857226995E+03  0.50400135988E+02  0.29805078070E+03  0.36725581462E+03  0.00000000000E+00 0.  1.
         -1    1    6    6    0  502 -0.10609135804E+03 -0.18311679757E+03 -0.76646525154E+02  0.22508182428E+03  0.00000000000E+00 0.  1.
<mgrwt>
<rscale>  0 0.13466056E+04</rscale>
<asrwt>0</asrwt>
<pdfrwt beam="1">  1        2 0.15245677E+00 0.13466056E+04</pdfrwt>
<pdfrwt beam="2">  1       -2 0.70379703E-01 0.13466056E+04</pdfrwt>
<totfact> 0.45830298E+01</totfact>
</mgrwt>
</event>
<event>
12    1  0.1489233E-007  0.2038110E+04  0.7818608E-02  0.8589007E-01
         -2   -1    0    0    0  501 -0.00000000000E+00  0.00000000000E+00  0.10048999402E+04  0.10048999402E+04  0.00000000000E+00 0. -1.
          2   -1    0    0  501    0  0.00000000000E+00 -0.00000000000E+00 -0.10334095211E+04  0.10334095211E+04  0.00000000000E+00 0.  1.
         23    2    1    2    0    0 -0.31777841885E+03  0.33833383819E+03  0.66052822582E+03  0.81246594068E+03  0.91380841009E+02 0.  0.
        254    2    1    2    0    0  0.31777841885E+03 -0.33833383819E+03 -0.68903780664E+03  0.12258435206E+04  0.90136914110E+03 0.  0.
        -24    2    4    4    0    0  0.38171006356E+02 -0.40278481206E+03  0.62303419597E+02  0.41709108010E+03  0.79941368831E+02 0.  0.
         24    2    4    4    0    0  0.27960741250E+03  0.64450973873E+02 -0.75134122623E+03  0.80875244053E+03  0.85044921447E+02 0.  0.
         11    1    3    3    0    0 -0.27641928575E+03  0.29141584586E+03  0.50796258816E+03  0.64757764610E+03  0.00000000000E+00 0.  1.
        -11    1    3    3    0    0 -0.41359133105E+02  0.46917992324E+02  0.15256563766E+03  0.16488829458E+03  0.00000000000E+00 0. -1.
          4    1    6    6  502    0  0.32376630527E+02  0.42564267900E+01 -0.31947415394E+02  0.45683703042E+02  0.00000000000E+00 0. -1.
          1    1    5    5  503    0  0.10823656829E+02 -0.27475135291E+03  0.72354244175E+01  0.27505964596E+03  0.00000000000E+00 0. -1.
         -2    1    5    5    0  503  0.27347349527E+02 -0.12803345916E+03  0.55067995180E+02  0.14203143414E+03  0.00000000000E+00 0.  1.
         -3    1    6    6    0  502  0.24723078197E+03  0.60194547083E+02 -0.71939381084E+03  0.76306873748E+03  0.00000000000E+00 0.  1.
<mgrwt>
<rscale>  0 0.20381101E+04</rscale>
<asrwt>0</asrwt>
<pdfrwt beam="1">  1        2 0.15898608E+00 0.20381101E+04</pdfrwt>
<pdfrwt beam="2">  1       -2 0.15459999E+00 0.20381101E+04</pdfrwt>
<totfact> 0.61391973E+00</totfact>
</mgrwt>
</event>
<event>
12    1  0.1489233E-007  0.1925705E+04  0.7818608E-02  0.8642166E-01
          1   -1    0    0  501    0  0.00000000000E+00  0.00000000000E+00  0.95911491625E+03  0.95911491625E+03  0.00000000000E+00 0. -1.
         -1   -1    0    0    0  501 -0.00000000000E+00 -0.00000000000E+00 -0.96660462560E+03  0.96660462560E+03  0.00000000000E+00 0.  1.
         23    2    1    2    0    0  0.10674774353E+03  0.37461608855E+03 -0.66190023997E+03  0.77360647831E+03  0.92858823302E+02 0.  0.
        254    2    1    2    0    0 -0.10674774353E+03 -0.37461608855E+03  0.65441053061E+03  0.11521130635E+04  0.86451088718E+03 0.  0.
        -24    2    4    4    0    0 -0.15617298183E+03 -0.17278734349E+02 -0.17238373721E+03  0.24656868474E+03  0.79946285233E+02 0.  0.
         24    2    4    4    0    0  0.49425238309E+02 -0.35733735420E+03  0.82679426783E+03  0.90554437880E+03  0.79303352824E+02 0.  0.
         13    1    3    3    0    0 -0.16579175137E+02  0.54612390839E+02 -0.10740254142E+03  0.12162519552E+03  0.00000000000E+00 0. -1.
        -13    1    3    3    0    0  0.12332691866E+03  0.32000369771E+03 -0.55449769854E+03  0.65198128278E+03  0.00000000000E+00 0.  1.
          4    1    6    6  502    0  0.42234719334E+02 -0.25927691086E+03  0.67886995912E+03  0.72792356015E+03  0.00000000000E+00 0. -1.
          1    1    5    5  503    0 -0.95395829415E+02 -0.34939716452E+02 -0.14629696979E+03  0.17811218775E+03  0.00000000000E+00 0. -1.
         -2    1    5    5    0  503 -0.60777152420E+02  0.17660982104E+02 -0.26086767420E+02  0.68456496986E+02  0.00000000000E+00 0.  1.
         -3    1    6    6    0  502  0.71905189752E+01 -0.98060443335E+02  0.14792430870E+03  0.17762081864E+03  0.00000000000E+00 0.  1.
<mgrwt>
<rscale>  0 0.19257050E+04</rscale>
<asrwt>0</asrwt>
<pdfrwt beam="1">  1        1 0.14755614E+00 0.19257050E+04</pdfrwt>
<pdfrwt beam="2">  1       -1 0.14870840E+00 0.19257050E+04</pdfrwt>
<totfact> 0.54346454E+00</totfact>
</mgrwt>
</event>
<event>
12    1  0.1489233E-007  0.1390383E+04  0.7818608E-02  0.8960809E-01
         -2   -1    0    0    0  501 -0.00000000000E+00  0.00000000000E+00  0.44860287983E+03  0.44860287983E+03  0.00000000000E+00 0. -1.
          2   -1    0    0  501    0  0.00000000000E+00 -0.00000000000E+00 -0.10773252414E+04  0.10773252414E+04  0.00000000000E+00 0.  1.
         23    2    1    2    0    0  0.36095404868E+03  0.65008993952E+02 -0.34776556617E+03  0.51383785293E+03  0.92598356014E+02 0.  0.
        254    2    1    2    0    0 -0.36095404868E+03 -0.65008993952E+02 -0.28095679536E+03  0.10120902682E+04  0.90048653275E+03 0.  0.
        -24    2    4    4    0    0 -0.43837748579E+03  0.32824416540E+03 -0.92505579859E+02  0.56162003020E+03  0.83311006747E+02 0.  0.
         24    2    4    4    0    0  0.77423437109E+02 -0.39325315935E+03 -0.18845121550E+03  0.45047023805E+03  0.82262620859E+02 0.  0.
         11    1    3    3    0    0  0.78280935714E+02  0.54509201408E+02 -0.89540241480E+02  0.13083047343E+03  0.00000000000E+00 0. -1.
        -11    1    3    3    0    0  0.28267311297E+03  0.10499792543E+02 -0.25822532469E+03  0.38300737950E+03  0.00000000000E+00 0.  1.
          4    1    6    6  502    0  0.38354026078E+02 -0.71933654584E+02 -0.13825451908E+02  0.82683886572E+02  0.00000000000E+00 0. -1.
          1    1    5    5  503    0 -0.62584051723E+02  0.30793874216E+02 -0.37541480678E+02  0.79211040839E+02  0.00000000000E+00 0. -1.
         -2    1    5    5    0  503 -0.37579343407E+03  0.29745029119E+03 -0.54964099181E+02  0.48240898936E+03  0.00000000000E+00 0.  1.
         -3    1    6    6    0  502  0.39069411031E+02 -0.32131950477E+03 -0.17462576359E+03  0.36778635148E+03  0.00000000000E+00 0.  1.
<mgrwt>
<rscale>  0 0.13903830E+04</rscale>
<asrwt>0</asrwt>
<pdfrwt beam="1">  1        2 0.16574235E+00 0.13903830E+04</pdfrwt>
<pdfrwt beam="2">  1       -2 0.69015827E-01 0.13903830E+04</pdfrwt>
<totfact> 0.42030182E+01</totfact>
</mgrwt>
</event>
<event>
12    1  0.1489233E-007  0.1506451E+04  0.7818608E-02  0.8880175E-01
          2   -1    0    0  501    0  0.00000000000E+00  0.00000000000E+00  0.83670698475E+03  0.83670698475E+03  0.00000000000E+00 0. -1.
         -2   -1    0    0    0  501 -0.00000000000E+00 -0.00000000000E+00 -0.67807310775E+03  0.67807310775E+03  0.00000000000E+00 0.  1.
         23    2    1    2    0    0  0.45634939274E+03 -0.15076123911E+03  0.71276379780E+02  0.49417694654E+03  0.90259695906E+02 0.  0.
        254    2    1    2    0    0 -0.45634939274E+03  0.15076123911E+03  0.87357497222E+02  0.10206031460E+04  0.89611144941E+03 0.  0.
        -24    2    4    4    0    0  0.68727790532E+02  0.28510992042E+03 -0.23613388547E+03  0.38426823759E+03  0.76757349077E+02 0.  0.
         24    2    4    4    0    0 -0.52507718327E+03 -0.13434868131E+03  0.32349138269E+03  0.63633490838E+03  0.80745429508E+02 0.  0.
         11    1    3    3    0    0  0.17182960160E+03 -0.52302107183E+02 -0.17031890013E+02  0.18041897815E+03  0.00000000000E+00 0.  1.
        -11    1    3    3    0    0  0.28451979114E+03 -0.98459131929E+02  0.88308269793E+02  0.31375796839E+03  0.00000000000E+00 0. -1.
          2    1    6    6  502    0 -0.12319677389E+02  0.62620522712E+01  0.19431944525E+02  0.23845087914E+02  0.00000000000E+00 0. -1.
          1    1    5    5  503    0 -0.12616819354E+02  0.97100421467E+02 -0.67405988348E+02  0.11887490587E+03  0.00000000000E+00 0. -1.
         -2    1    5    5    0  503  0.81344609886E+02  0.18800949896E+03 -0.16872789712E+03  0.26539333172E+03  0.00000000000E+00 0.  1.
         -1    1    6    6    0  502 -0.51275750588E+03 -0.14061073358E+03  0.30405943816E+03  0.61248982047E+03  0.00000000000E+00 0.  1.
<mgrwt>
<rscale>  0 0.15064508E+04</rscale>
<asrwt>0</asrwt>
<pdfrwt beam="1">  1        2 0.12872415E+00 0.15064508E+04</pdfrwt>
<pdfrwt beam="2">  1       -2 0.10431894E+00 0.15064508E+04</pdfrwt>
<totfact> 0.23386901E+01</totfact>
</mgrwt>
</event>
<event>
12    1  0.1489233E-007  0.1058662E+04  0.7818608E-02  0.9246446E-01
          1   -1    0    0  501    0  0.00000000000E+00  0.00000000000E+00  0.24039048303E+04  0.24039048303E+04  0.00000000000E+00 0. -1.
         -1   -1    0    0    0  501 -0.00000000000E+00 -0.00000000000E+00 -0.11655682155E+03  0.11655682155E+03  0.00000000000E+00 0.  1.
         23    2    1    2    0    0  0.97469136610E+01 -0.52651191504E+02  0.62245722901E+02  0.12278923311E+03  0.91299044107E+02 0.  0.
        254    2    1    2    0    0 -0.97469136610E+01  0.52651191504E+02  0.22251022858E+04  0.23976724187E+04  0.89156362356E+03 0.  0.
        -24    2    4    4    0    0  0.21199313164E+03  0.19731847852E+03  0.20475861795E+04  0.20694994554E+04  0.79643978382E+02 0.  0.
         24    2    4    4    0    0 -0.22174004530E+03 -0.14466728701E+03  0.17751610630E+03  0.32817296338E+03  0.78027266230E+02 0.  0.
         11    1    3    3    0    0  0.34947927195E+02 -0.64502863624E+02  0.60138197778E+02  0.94860844730E+02  0.00000000000E+00 0. -1.
        -11    1    3    3    0    0 -0.25201013534E+02  0.11851672121E+02  0.21075251232E+01  0.27928388377E+02  0.00000000000E+00 0.  1.
          4    1    6    6  502    0 -0.16727320449E+03 -0.67186707425E+02  0.12973249762E+03  0.22209209696E+03  0.00000000000E+00 0. -1.
          1    1    5    5  503    0  0.17781900393E+03  0.19261171342E+03  0.18960839876E+04  0.19141194733E+04  0.00000000000E+00 0. -1.
         -2    1    5    5    0  503  0.34174127711E+02  0.47067650995E+01  0.15150219196E+03  0.15537998202E+03  0.00000000000E+00 0.  1.
         -3    1    6    6    0  502 -0.54466840809E+02 -0.77480579586E+02  0.47783608687E+02  0.10608086642E+03  0.00000000000E+00 0.  1.
<mgrwt>
<rscale>  0 0.10586624E+04</rscale>
<asrwt>0</asrwt>
<pdfrwt beam="1">  1        1 0.36983148E+00 0.10586624E+04</pdfrwt>
<pdfrwt beam="2">  1       -1 0.17931820E-01 0.10586624E+04</pdfrwt>
<totfact> 0.39045333E+01</totfact>
</mgrwt>
</event>
<event>
12    1  0.1489233E-007  0.1191764E+04  0.7818608E-02  0.9120096E-01
         -2   -1    0    0    0  501 -0.00000000000E+00  0.00000000000E+00  0.20740086973E+03  0.20740086973E+03  0.00000000000E+00 0.  1.
          2   -1    0    0  501    0  0.00000000000E+00 -0.00000000000E+00 -0.17120241068E+04  0.17120241068E+04  0.00000000000E+00 0. -1.
         23    2    1    2    0    0  0.10969011406E+03 -0.20078298738E+03 -0.50000091826E+03  0.55741069622E+03  0.91433237118E+02 0.  0.
        254    2    1    2    0    0 -0.10969011406E+03  0.20078298738E+03 -0.10046223188E+04  0.13620142803E+04  0.89076998556E+03 0.  0.
        -24    2    4    4    0    0  0.24777783380E+03 -0.16072601880E+03 -0.70056284846E+03  0.76430037057E+03  0.78358431387E+02 0.  0.
         24    2    4    4    0    0 -0.35746794786E+03  0.36150900618E+03 -0.30405947033E+03  0.59771390972E+03  0.79609428320E+02 0.  0.
         11    1    3    3    0    0  0.73915506544E+02 -0.19616385902E+03 -0.41085923569E+03  0.46124730162E+03  0.00000000000E+00 0. -1.
        -11    1    3    3    0    0  0.35774607517E+02 -0.46191283568E+01 -0.89141682567E+02  0.96163394598E+02  0.00000000000E+00 0.  1.
          4    1    6    6  502    0 -0.68711873983E+01  0.62197609539E+01 -0.23180841635E+02  0.24964976697E+02  0.00000000000E+00 0. -1.
          1    1    5    5  503    0  0.15251533052E+03 -0.59514722504E+02 -0.32643899357E+03  0.36519220249E+03  0.00000000000E+00 0. -1.
         -2    1    5    5    0  503  0.95262503286E+02 -0.10121129630E+03 -0.37412385489E+03  0.39910816808E+03  0.00000000000E+00 0.  1.
         -3    1    6    6    0  502 -0.35059676047E+03  0.35528924523E+03 -0.28087862869E+03  0.57274893302E+03  0.00000000000E+00 0.  1.
<mgrwt>
<rscale>  0 0.11917639E+04</rscale>
<asrwt>0</asrwt>
<pdfrwt beam="1">  1        2 0.26338831E+00 0.11917639E+04</pdfrwt>
<pdfrwt beam="2">  1       -2 0.31907828E-01 0.11917639E+04</pdfrwt>
<totfact> 0.87070623E+01</totfact>
</mgrwt>
</event>
<event>
12    1  0.1489233E-007  0.2224037E+04  0.7818608E-02  0.8508490E-01
          2   -1    0    0  501    0  0.00000000000E+00  0.00000000000E+00  0.13096198462E+04  0.13096198462E+04  0.00000000000E+00 0. -1.
         -2   -1    0    0    0  501 -0.00000000000E+00 -0.00000000000E+00 -0.94423203583E+03  0.94423203583E+03  0.00000000000E+00 0.  1.
         23    2    1    2    0    0  0.34414886356E+03  0.56980137630E+03 -0.49790425878E+03  0.83631559366E+03  0.91668274622E+02 0.  0.
        254    2    1    2    0    0 -0.34414886356E+03 -0.56980137630E+03  0.86329206912E+03  0.14175362883E+04  0.90610368251E+03 0.  0.
        -24    2    4    4    0    0 -0.48425507803E+03 -0.63262196209E+03  0.93394087375E+03  0.12302396877E+04  0.80812165170E+02 0.  0.
         24    2    4    4    0    0  0.14010621447E+03  0.62820585785E+02 -0.70648804638E+02  0.18729660063E+03  0.80700592805E+02 0.  0.
         13    1    3    3    0    0  0.56511197730E+02  0.13648309301E+03 -0.73293281224E+02  0.16490316922E+03  0.00000000000E+00 0. -1.
        -13    1    3    3    0    0  0.28763766583E+03  0.43331828329E+03 -0.42461097755E+03  0.67141242444E+03  0.00000000000E+00 0.  1.
          4    1    6    6  502    0  0.84247620469E+02  0.67663443243E+02 -0.16423624336E+02  0.10929656235E+03  0.00000000000E+00 0. -1.
          3    1    5    5  503    0 -0.27465021378E+02 -0.47410005586E+02  0.37926785378E+02  0.66636904775E+02  0.00000000000E+00 0. -1.
         -4    1    5    5    0  503 -0.45679005665E+03 -0.58521195650E+03  0.89601408838E+03  0.11636027829E+04  0.00000000000E+00 0.  1.
         -3    1    6    6    0  502  0.55858594005E+02 -0.48428574583E+01 -0.54225180302E+02  0.78000038278E+02  0.00000000000E+00 0.  1.
<mgrwt>
<rscale>  0 0.22240369E+04</rscale>
<asrwt>0</asrwt>
<pdfrwt beam="1">  1        2 0.20147998E+00 0.22240369E+04</pdfrwt>
<pdfrwt beam="2">  1       -2 0.14526647E+00 0.22240369E+04</pdfrwt>
<totfact> 0.48553725E+00</totfact>
</mgrwt>
</event>
<event>
12    1  0.1489233E-007  0.2274767E+04  0.7818608E-02  0.8487937E-01
         -2   -1    0    0    0  501 -0.00000000000E+00  0.00000000000E+00  0.55061671339E+03  0.55061671339E+03  0.00000000000E+00 0. -1.
          2   -1    0    0  501    0  0.00000000000E+00 -0.00000000000E+00 -0.23494411106E+04  0.23494411106E+04  0.00000000000E+00 0.  1.
         23    2    1    2    0    0 -0.25608077745E+03 -0.64112314729E+03 -0.16073534051E+04  0.17519643121E+04  0.95800455579E+02 0.  0.
        254    2    1    2    0    0  0.25608077745E+03  0.64112314729E+03 -0.19147099217E+03  0.11480935120E+04  0.89712948721E+03 0.  0.
        -24    2    4    4    0    0 -0.14979174810E+03  0.63890711607E+03 -0.29172110174E+03  0.72258222560E+03  0.79899942355E+02 0.  0.
         24    2    4    4    0    0  0.40587252555E+03  0.22160312195E+01  0.10025010957E+03  0.42551128637E+03  0.79198185377E+02 0.  0.
         11    1    3    3    0    0 -0.18097889099E+03 -0.32617907441E+03 -0.83996440626E+03  0.91906819733E+03  0.00000000000E+00 0. -1.
        -11    1    3    3    0    0 -0.75101886464E+02 -0.31494407289E+03 -0.76738899883E+03  0.83289611472E+03  0.00000000000E+00 0.  1.
          4    1    6    6  502    0  0.39780945582E+02  0.22351566860E+02  0.21786960805E+02  0.50564689593E+02  0.00000000000E+00 0. -1.
          1    1    5    5  503    0 -0.21516297790E+02  0.37142786109E+02 -0.36946568139E+02  0.56635558863E+02  0.00000000000E+00 0. -1.
         -2    1    5    5    0  503 -0.12827545031E+03  0.60176432997E+03 -0.25477453360E+03  0.66594666674E+03  0.00000000000E+00 0.  1.
         -3    1    6    6    0  502  0.36609157997E+03 -0.20135535641E+02  0.78463148764E+02  0.37494659678E+03  0.00000000000E+00 0.  1.
<mgrwt>
<rscale>  0 0.22747673E+04</rscale>
<asrwt>0</asrwt>
<pdfrwt beam="1">  1        2 0.36145248E+00 0.22747673E+04</pdfrwt>
<pdfrwt beam="2">  1       -2 0.84710262E-01 0.22747673E+04</pdfrwt>
<totfact> 0.46871923E+00</totfact>
</mgrwt>
</event>
<event>
12    1  0.1489233E-007  0.1902224E+04  0.7818608E-02  0.8653750E-01
          2   -1    0    0  501    0  0.00000000000E+00  0.00000000000E+00  0.66241799537E+03  0.66241799537E+03  0.00000000000E+00 0. -1.
         -2   -1    0    0    0  501 -0.00000000000E+00 -0.00000000000E+00 -0.13656244644E+04  0.13656244644E+04  0.00000000000E+00 0.  1.
         23    2    1    2    0    0 -0.48453747161E+03  0.18413896560E+03 -0.83823920654E+03  0.98973639026E+03  0.90826399137E+02 0.  0.
        254    2    1    2    0    0  0.48453747161E+03 -0.18413896560E+03  0.13503273746E+03  0.10383060696E+04  0.88947284042E+03 0.  0.
        -24    2    4    4    0    0  0.37532353150E+03 -0.41634315314E+03 -0.20800865727E+03  0.60317683211E+03  0.79657484472E+02 0.  0.
         24    2    4    4    0    0  0.10921394011E+03  0.23220418754E+03  0.34304139472E+03  0.43512923745E+03  0.76246871189E+02 0.  0.
         11    1    3    3    0    0 -0.18075047424E+02 -0.88572768832E+01 -0.47620074038E+02  0.51699421124E+02  0.00000000000E+00 0. -1.
        -11    1    3    3    0    0 -0.46646242418E+03  0.19299624249E+03 -0.79061913250E+03  0.93803696913E+03  0.00000000000E+00 0.  1.
          4    1    6    6  502    0  0.87721818162E+02  0.17391390613E+03  0.30618901180E+03  0.36289512959E+03  0.00000000000E+00 0. -1.
          1    1    5    5  503    0  0.10160009536E+02  0.13093112443E+01 -0.94498750828E+01  0.13937009320E+02  0.00000000000E+00 0. -1.
         -2    1    5    5    0  503  0.36516352196E+03 -0.41765246438E+03 -0.19855878218E+03  0.58923982279E+03  0.00000000000E+00 0.  1.
         -3    1    6    6    0  502  0.21492121944E+02  0.58290281405E+02  0.36852382919E+02  0.72234107863E+02  0.00000000000E+00 0.  1.
<mgrwt>
<rscale>  0 0.19022242E+04</rscale>
<asrwt>0</asrwt>
<pdfrwt beam="1">  1        2 0.10191046E+00 0.19022242E+04</pdfrwt>
<pdfrwt beam="2">  1       -2 0.21009607E+00 0.19022242E+04</pdfrwt>
<totfact> 0.46991925E+00</totfact>
</mgrwt>
</event>
<event>
12    1  0.1489233E-007  0.1273749E+04  0.7818608E-02  0.9050646E-01
          1   -1    0    0  501    0  0.00000000000E+00  0.00000000000E+00  0.69196505609E+03  0.69196505609E+03  0.00000000000E+00 0. -1.
         -1   -1    0    0    0  501 -0.00000000000E+00 -0.00000000000E+00 -0.58616960432E+03  0.58616960432E+03  0.00000000000E+00 0.  1.
         23    2    1    2    0    0  0.32946309950E+02  0.17357983739E+03  0.28525710992E+03  0.34882882848E+03  0.95365158865E+02 0.  0.
        254    2    1    2    0    0 -0.32946309950E+02 -0.17357983739E+03 -0.17946165816E+03  0.92930583193E+03  0.89453195764E+03 0.  0.
        -24    2    4    4    0    0 -0.39954027808E+03  0.12064594531E+03 -0.15912730220E+02  0.42534250565E+03  0.80468342881E+02 0.  0.
         24    2    4    4    0    0  0.36659396813E+03 -0.29422578270E+03 -0.16354892794E+03  0.50396332628E+03  0.79188596000E+02 0.  0.
         11    1    3    3    0    0  0.17589691724E+02  0.15624156492E+03  0.17120110879E+03  0.23244492577E+03  0.00000000000E+00 0. -1.
        -11    1    3    3    0    0  0.15356618226E+02  0.17338272473E+02  0.11405600113E+03  0.11638390271E+03  0.00000000000E+00 0.  1.
          2    1    6    6  502    0  0.22378967101E+03 -0.16472035767E+03 -0.56874337474E+02  0.28363586400E+03  0.00000000000E+00 0. -1.
          3    1    5    5  503    0 -0.35688533349E+03  0.11437336537E+03 -0.38382405643E+02  0.37672485587E+03  0.00000000000E+00 0. -1.
         -4    1    5    5    0  503 -0.42654944591E+02  0.62725799369E+01  0.22469675424E+02  0.48617649787E+02  0.00000000000E+00 0.  1.
         -1    1    6    6    0  502  0.14280429712E+03 -0.12950542502E+03 -0.10667459046E+03  0.22032746228E+03  0.00000000000E+00 0.  1.
<mgrwt>
<rscale>  0 0.12737486E+04</rscale>
<asrwt>0</asrwt>
<pdfrwt beam="1">  1        1 0.10645616E+00 0.12737486E+04</pdfrwt>
<pdfrwt beam="2">  1       -1 0.90179939E-01 0.12737486E+04</pdfrwt>
<totfact> 0.32842495E+01</totfact>
</mgrwt>
</event>
<event>
12    1  0.1489233E-007  0.2075242E+04  0.7818608E-02  0.8572228E-01
         -1   -1    0    0    0  501 -0.00000000000E+00  0.00000000000E+00  0.12987283889E+04  0.12987283889E+04  0.00000000000E+00 0.  1.
          1   -1    0    0  501    0  0.00000000000E+00 -0.00000000000E+00 -0.82900920736E+03  0.82900920736E+03  0.00000000000E+00 0. -1.
         23    2    1    2    0    0  0.21715774197E+03 -0.81147117403E+03  0.14263460394E+03  0.85646172868E+03  0.86828055767E+02 0.  0.
        254    2    1    2    0    0 -0.21715774197E+03  0.81147117403E+03  0.32708457762E+03  0.12712758676E+04  0.89639001527E+03 0.  0.
        -24    2    4    4    0    0 -0.26154638408E+03  0.64855753856E+01  0.37017127423E+03  0.46008246321E+03  0.78743424961E+02 0.  0.
         24    2    4    4    0    0  0.44388642112E+02  0.80498559864E+03 -0.43086696608E+02  0.81119340440E+03  0.78778869928E+02 0.  0.
         11    1    3    3    0    0  0.18221687484E+03 -0.75067116180E+03  0.11452929237E+03  0.78091429840E+03  0.00000000000E+00 0. -1.
        -11    1    3    3    0    0  0.34940867131E+02 -0.60800012231E+02  0.28105311572E+02  0.75547430279E+02  0.00000000000E+00 0.  1.
          2    1    6    6  502    0  0.21153647758E+02  0.45392770689E+02 -0.12759009383E+01  0.50095991532E+02  0.00000000000E+00 0. -1.
          1    1    5    5  503    0 -0.26927704051E+02 -0.18574749596E+02  0.77653162130E+02  0.84262305670E+02  0.00000000000E+00 0. -1.
         -2    1    5    5    0  503 -0.23461868003E+03  0.25060324982E+02  0.29251811210E+03  0.37582015754E+03  0.00000000000E+00 0.  1.
         -1    1    6    6    0  502  0.23234994354E+02  0.75959282796E+03 -0.41810795670E+02  0.76109741287E+03  0.00000000000E+00 0.  1.
<mgrwt>
<rscale>  0 0.20752424E+04</rscale>
<asrwt>0</asrwt>
<pdfrwt beam="1">  1        1 0.12753988E+00 0.20752424E+04</pdfrwt>
<pdfrwt beam="2">  1       -1 0.19980437E+00 0.20752424E+04</pdfrwt>
<totfact> 0.29034674E+00</totfact>
</mgrwt>
</event>
<event>
12    1  0.1489233E-007  0.1359488E+04  0.7818608E-02  0.8983677E-01
         -2   -1    0    0    0  501 -0.00000000000E+00  0.00000000000E+00  0.38630224566E+03  0.38630224566E+03  0.00000000000E+00 0.  1.
          2   -1    0    0  501    0  0.00000000000E+00 -0.00000000000E+00 -0.11960893870E+04  0.11960893870E+04  0.00000000000E+00 0. -1.
         23    2    1    2    0    0  0.23682143581E+03  0.34706286575E+03 -0.26177505450E+03  0.50677921675E+03  0.10845261696E+03 0.  0.
        254    2    1    2    0    0 -0.23682143581E+03 -0.34706286575E+03 -0.54801208688E+03  0.10756124159E+04  0.82467435799E+03 0.  0.
        -24    2    4    4    0    0  0.62588696125E+02  0.24000995620E+03 -0.18237338910E+03  0.31788415370E+03  0.79171700544E+02 0.  0.
         24    2    4    4    0    0 -0.29941013194E+03 -0.58707282195E+03 -0.36563869778E+03  0.75772826224E+03  0.78482716025E+02 0.  0.
         13    1    3    3    0    0  0.21053932297E+02  0.51311621713E+02 -0.81822320726E+02  0.98848585002E+02  0.00000000000E+00 0. -1.
        -13    1    3    3    0    0  0.21576750351E+03  0.29575124404E+03 -0.17995273378E+03  0.40793063175E+03  0.00000000000E+00 0.  1.
          4    1    6    6  502    0 -0.22442813206E+03 -0.46319614916E+03 -0.31926927919E+03  0.60568269886E+03  0.00000000000E+00 0. -1.
          1    1    5    5  503    0  0.59911527212E+02  0.16450676036E+03 -0.16453217825E+03  0.24025549521E+03  0.00000000000E+00 0. -1.
         -2    1    5    5    0  503  0.26771689135E+01  0.75503195840E+02 -0.17841210846E+02  0.77628658496E+02  0.00000000000E+00 0.  1.
         -3    1    6    6    0  502 -0.74981999881E+02 -0.12387667278E+03 -0.46369418590E+02  0.15204556339E+03  0.00000000000E+00 0.  1.
<mgrwt>
<rscale>  0 0.13594882E+04</rscale>
<asrwt>0</asrwt>
<pdfrwt beam="1">  1        2 0.18401375E+00 0.13594882E+04</pdfrwt>
<pdfrwt beam="2">  1       -2 0.59431115E-01 0.13594882E+04</pdfrwt>
<totfact> 0.49122194E+01</totfact>
</mgrwt>
</event>
<event>
12    1  0.1489233E-007  0.1687965E+04  0.7818608E-02  0.8768258E-01
         -2   -1    0    0    0  501 -0.00000000000E+00  0.00000000000E+00  0.87067131069E+03  0.87067131069E+03  0.00000000000E+00 0.  1.
          2   -1    0    0  501    0  0.00000000000E+00 -0.00000000000E+00 -0.81811143991E+03  0.81811143991E+03  0.00000000000E+00 0. -1.
         23    2    1    2    0    0 -0.39596228284E+03 -0.16567703923E+03 -0.39833741014E+03  0.59260024416E+03  0.90924948742E+02 0.  0.
        254    2    1    2    0    0  0.39596228284E+03  0.16567703923E+03  0.45089728091E+03  0.10961825064E+04  0.90225978451E+03 0.  0.
        -24    2    4    4    0    0  0.45107015522E+03 -0.18121506089E+03 -0.31846765968E+02  0.49368977316E+03  0.80076166195E+02 0.  0.
         24    2    4    4    0    0 -0.55107872382E+02  0.34689210012E+03  0.48274404688E+03  0.60249273329E+03  0.81145992758E+02 0.  0.
         13    1    3    3    0    0 -0.33631577131E+03 -0.17343215134E+03 -0.33738628533E+03  0.50696796218E+03  0.00000000000E+00 0. -1.
        -13    1    3    3    0    0 -0.59646511535E+02  0.77551121095E+01 -0.60951124805E+02  0.85632281980E+02  0.00000000000E+00 0.  1.
          2    1    6    6  502    0 -0.50725589268E+02  0.25997935110E+03  0.41447796839E+03  0.49188853889E+03  0.00000000000E+00 0. -1.
          3    1    5    5  503    0  0.31389261352E+03 -0.15612116698E+03 -0.45739482624E+02  0.35354560084E+03  0.00000000000E+00 0. -1.
         -4    1    5    5    0  503  0.13717754170E+03 -0.25093893909E+02  0.13892716656E+02  0.14014417232E+03  0.00000000000E+00 0.  1.
         -3    1    6    6    0  502 -0.43822831141E+01  0.86912749011E+02  0.68266078492E+02  0.11060419440E+03  0.00000000000E+00 0.  1.
<mgrwt>
<rscale>  0 0.16879646E+04</rscale>
<asrwt>0</asrwt>
<pdfrwt beam="1">  1        2 0.12586330E+00 0.16879646E+04</pdfrwt>
<pdfrwt beam="2">  1       -2 0.13394943E+00 0.16879646E+04</pdfrwt>
<totfact> 0.12811412E+01</totfact>
</mgrwt>
</event>
<event>
12    1  0.1489233E-007  0.2135352E+04  0.7818608E-02  0.8545828E-01
          1   -1    0    0  501    0  0.00000000000E+00  0.00000000000E+00  0.15648316249E+04  0.15648316249E+04  0.00000000000E+00 0. -1.
         -1   -1    0    0    0  501 -0.00000000000E+00 -0.00000000000E+00 -0.72846942672E+03  0.72846942672E+03  0.00000000000E+00 0.  1.
         23    2    1    2    0    0 -0.29860865915E+03 -0.81981138647E+03  0.40860301248E+03  0.96773340096E+03  0.91069604237E+02 0.  0.
        254    2    1    2    0    0  0.29860865915E+03  0.81981138647E+03  0.42775918566E+03  0.13255676506E+04  0.90160625262E+03 0.  0.
        -24    2    4    4    0    0 -0.18256858964E+03  0.34248681920E+03  0.50225510067E+03  0.63906882632E+03  0.74298501846E+02 0.  0.
         24    2    4    4    0    0  0.48117724879E+03  0.47732456728E+03 -0.74495915011E+02  0.68649882431E+03  0.79754041573E+02 0.  0.
         11    1    3    3    0    0 -0.48647253363E+02 -0.25129434557E+03  0.10901474581E+03  0.27820786866E+03  0.00000000000E+00 0. -1.
        -11    1    3    3    0    0 -0.24996140578E+03 -0.56851704090E+03  0.29958826667E+03  0.68952553230E+03  0.00000000000E+00 0.  1.
          2    1    6    6  502    0  0.39027813360E+03  0.38530078655E+03 -0.91596525595E+02  0.55602485662E+03  0.00000000000E+00 0. -1.
          1    1    5    5  503    0 -0.77377717341E+02  0.22199704182E+03  0.29132547198E+03  0.37435348047E+03  0.00000000000E+00 0. -1.
         -2    1    5    5    0  503 -0.10519087230E+03  0.12048977738E+03  0.21092962869E+03  0.26471534585E+03  0.00000000000E+00 0.  1.
         -1    1    6    6    0  502  0.90899115189E+02  0.92023780727E+02  0.17100610584E+02  0.13047396769E+03  0.00000000000E+00 0.  1.
<mgrwt>
<rscale>  0 0.21353520E+04</rscale>
<asrwt>0</asrwt>
<pdfrwt beam="1">  1        1 0.24074333E+00 0.21353520E+04</pdfrwt>
<pdfrwt beam="2">  1       -1 0.11207222E+00 0.21353520E+04</pdfrwt>
<totfact> 0.39492325E+00</totfact>
</mgrwt>
</event>
<event>
12    1  0.1489233E-007  0.1439187E+04  0.7818608E-02  0.8925932E-01
          2   -1    0    0  501    0  0.00000000000E+00  0.00000000000E+00  0.19285760754E+04  0.19285760754E+04  0.00000000000E+00 0.  1.
         -2   -1    0    0    0  501 -0.00000000000E+00 -0.00000000000E+00 -0.26849579073E+03  0.26849579073E+03  0.00000000000E+00 0. -1.
         23    2    1    2    0    0 -0.41992302303E+03  0.81517103718E+02  0.51865287670E+03  0.67814398978E+03  0.88871147690E+02 0.  0.
        254    2    1    2    0    0  0.41992302303E+03 -0.81517103718E+02  0.11414274079E+04  0.15189278763E+04  0.90625878334E+03 0.  0.
        -24    2    4    4    0    0  0.22707813664E+03 -0.48185660598E+03  0.73852666047E+03  0.91407758408E+03  0.79786794787E+02 0.  0.
         24    2    4    4    0    0  0.19284488640E+03  0.40033950226E+03  0.40290074746E+03  0.60485029223E+03  0.77807431682E+02 0.  0.
         13    1    3    3    0    0 -0.17343231570E+03  0.52746187012E+02  0.28194281687E+03  0.33519051353E+03  0.00000000000E+00 0.  1.
        -13    1    3    3    0    0 -0.24649070733E+03  0.28770916706E+02  0.23671005983E+03  0.34295347625E+03  0.00000000000E+00 0. -1.
          2    1    6    6  502    0  0.49717481572E+02  0.16739935503E+03  0.19219053753E+03  0.25967590330E+03  0.00000000000E+00 0. -1.
          1    1    5    5  503    0  0.76335462675E+02 -0.20064498321E+03  0.23810948675E+03  0.32059575766E+03  0.00000000000E+00 0. -1.
         -2    1    5    5    0  503  0.15074267396E+03 -0.28121162277E+03  0.50041717372E+03  0.59348182642E+03  0.00000000000E+00 0.  1.
         -1    1    6    6    0  502  0.14312740483E+03  0.23294014723E+03  0.21071020993E+03  0.34517438893E+03  0.00000000000E+00 0.  1.
<mgrwt>
<rscale>  0 0.14391867E+04</rscale>
<asrwt>0</asrwt>
<pdfrwt beam="1">  1        2 0.29670400E+00 0.14391867E+04</pdfrwt>
<pdfrwt beam="2">  1       -2 0.41307046E-01 0.14391867E+04</pdfrwt>
<totfact> 0.39460137E+01</totfact>
</mgrwt>
</event>
<event>
12    1  0.1489233E-007  0.1052708E+04  0.7818608E-02  0.9252552E-01
         -2   -1    0    0    0  501 -0.00000000000E+00  0.00000000000E+00  0.16273558347E+03  0.16273558347E+03  0.00000000000E+00 0.  1.
          2   -1    0    0  501    0  0.00000000000E+00 -0.00000000000E+00 -0.17024470988E+04  0.17024470988E+04  0.00000000000E+00 0. -1.
         23    2    1    2    0    0  0.82180328026E+02 -0.38983387030E+02 -0.10180256674E+03  0.16460698539E+03  0.91969485518E+02 0.  0.
        254    2    1    2    0    0 -0.82180328026E+02  0.38983387030E+02 -0.14379089485E+04  0.17005756968E+04  0.90338377535E+03 0.  0.
        -24    2    4    4    0    0 -0.29833093389E+01  0.46038397383E+03 -0.65741479995E+03  0.80661271059E+03  0.80421030853E+02 0.  0.
         24    2    4    4    0    0 -0.79197018687E+02 -0.42140058680E+03 -0.78049414859E+03  0.89396298624E+03  0.78409708908E+02 0.  0.
         13    1    3    3    0    0  0.37649243877E+02 -0.22565870739E+02  0.83351435765E+01  0.44678391927E+02  0.00000000000E+00 0.  1.
        -13    1    3    3    0    0  0.44531084149E+02 -0.16417516291E+02 -0.11013771032E+03  0.11992859347E+03  0.00000000000E+00 0. -1.
          4    1    6    6  502    0 -0.91667967177E+02 -0.36707389987E+03 -0.70518400023E+03  0.80026916619E+03  0.00000000000E+00 0. -1.
          1    1    5    5  503    0  0.25220457159E+02  0.26282552487E+03 -0.42432286301E+03  0.49976316396E+03  0.00000000000E+00 0. -1.
         -2    1    5    5    0  503 -0.28203766498E+02  0.19755844896E+03 -0.23309193694E+03  0.30684954663E+03  0.00000000000E+00 0.  1.
         -3    1    6    6    0  502  0.12470948490E+02 -0.54326686926E+02 -0.75310148365E+02  0.93693820049E+02  0.00000000000E+00 0.  1.
<mgrwt>
<rscale>  0 0.10527084E+04</rscale>
<asrwt>0</asrwt>
<pdfrwt beam="1">  1        2 0.26191494E+00 0.10527084E+04</pdfrwt>
<pdfrwt beam="2">  1       -2 0.25036243E-01 0.10527084E+04</pdfrwt>
<totfact> 0.13927903E+02</totfact>
</mgrwt>
</event>
<event>
12    1  0.1489233E-007  0.1456721E+04  0.7818608E-02  0.8913755E-01
         -1   -1    0    0    0  501 -0.00000000000E+00  0.00000000000E+00  0.15531565470E+04  0.15531565470E+04  0.00000000000E+00 0.  1.
          1   -1    0    0  501    0  0.00000000000E+00 -0.00000000000E+00 -0.34156807716E+03  0.34156807716E+03  0.00000000000E+00 0. -1.
         23    2    1    2    0    0  0.27498492107E+02  0.39556062800E+03  0.10051945794E+03  0.42116224922E+03  0.10024520561E+03 0.  0.
        254    2    1    2    0    0 -0.27498492107E+02 -0.39556062800E+03  0.11110690119E+04  0.14735623749E+04  0.88299906348E+03 0.  0.
        -24    2    4    4    0    0 -0.62806214582E+02 -0.34754787687E+03  0.40939167785E+01  0.36216099808E+03  0.80060483787E+02 0.  0.
         24    2    4    4    0    0  0.35307722475E+02 -0.48012751131E+02  0.11069750951E+04  0.11114013768E+04  0.79166279068E+02 0.  0.
         11    1    3    3    0    0  0.41029440141E+02  0.31779698286E+03  0.11589016622E+03  0.34074751342E+03  0.00000000000E+00 0.  1.
        -11    1    3    3    0    0 -0.13530948034E+02  0.77763645144E+02 -0.15370708285E+02  0.80414735801E+02  0.00000000000E+00 0. -1.
          4    1    6    6  502    0 -0.19982302268E+02 -0.28515655458E+02  0.60754739765E+03  0.60854439066E+03  0.00000000000E+00 0. -1.
          3    1    5    5  503    0  0.76081506225E+01 -0.18261399311E+03 -0.24620200480E+00  0.18277257741E+03  0.00000000000E+00 0. -1.
         -4    1    5    5    0  503 -0.70414365204E+02 -0.16493388376E+03  0.43401187833E+01  0.17938842067E+03  0.00000000000E+00 0.  1.
         -1    1    6    6    0  502  0.55290024742E+02 -0.19497095673E+02  0.49942769742E+03  0.50285698616E+03  0.00000000000E+00 0.  1.
<mgrwt>
<rscale>  0 0.14567206E+04</rscale>
<asrwt>0</asrwt>
<pdfrwt beam="1">  1        1 0.52548936E-01 0.14567206E+04</pdfrwt>
<pdfrwt beam="2">  1       -1 0.23894716E+00 0.14567206E+04</pdfrwt>
<totfact> 0.59167609E+00</totfact>
</mgrwt>
</event>
<event>
12    1  0.1806291E-007  0.1426524E+04  0.7818608E-02  0.8934840E-01
          1   -1    0    0  501    0  0.00000000000E+00  0.00000000000E+00  0.40265861625E+03  0.40265861625E+03  0.00000000000E+00 0. -1.
         -1   -1    0    0    0  501 -0.00000000000E+00 -0.00000000000E+00 -0.12634593665E+04  0.12634593665E+04  0.00000000000E+00 0.  1.
         23    2    1    2    0    0 -0.34186110317E+03 -0.24420087872E+02  0.30950303355E+02  0.35571972900E+03  0.90073579766E+02 0.  0.
        254    2    1    2    0    0  0.34186110317E+03  0.24420087872E+02 -0.89175105362E+03  0.13103982538E+04  0.89691598675E+03 0.  0.
        -24    2    4    4    0    0  0.45963173046E+02  0.41837296880E+03 -0.24446370496E+03  0.49314530516E+03  0.79254240646E+02 0.  0.
         24    2    4    4    0    0  0.29589793012E+03 -0.39395288092E+03 -0.64728734866E+03  0.81725294861E+03  0.78530330684E+02 0.  0.
         13    1    3    3    0    0 -0.27141831953E+03 -0.17705597008E+02 -0.13197679651E+02  0.27231520540E+03  0.00000000000E+00 0.  1.
        -13    1    3    3    0    0 -0.70442783640E+02 -0.67144908635E+01  0.44147983006E+02  0.83404523606E+02  0.00000000000E+00 0. -1.
          4    1    6    6  502    0  0.29001566775E+03 -0.35222327119E+03 -0.60240971325E+03  0.75569026918E+03  0.00000000000E+00 0. -1.
          3    1    5    5  503    0  0.36612915908E+02  0.35110321838E+03 -0.16822259414E+03  0.39104068426E+03  0.00000000000E+00 0. -1.
         -4    1    5    5    0  503  0.93502571388E+01  0.67269750419E+02 -0.76241110818E+02  0.10210462090E+03  0.00000000000E+00 0.  1.
         -3    1    6    6    0  502  0.58822623729E+01 -0.41729609734E+02 -0.44877635406E+02  0.61562679431E+02  0.00000000000E+00 0.  1.
<mgrwt>
<rscale>  0 0.14265242E+04</rscale>
<asrwt>0</asrwt>
<pdfrwt beam="1">  1        1 0.61947480E-01 0.14265242E+04</pdfrwt>
<pdfrwt beam="2">  1       -1 0.19437836E+00 0.14265242E+04</pdfrwt>
<totfact> 0.95263961E+00</totfact>
</mgrwt>
</event>
<event>
12    1  0.1489233E-007  0.1321714E+04  0.7818608E-02  0.9012521E-01
          2   -1    0    0  501    0  0.00000000000E+00  0.00000000000E+00  0.10540404269E+04  0.10540404269E+04  0.00000000000E+00 0. -1.
         -2   -1    0    0    0  501 -0.00000000000E+00 -0.00000000000E+00 -0.41434106539E+03  0.41434106539E+03  0.00000000000E+00 0.  1.
         23    2    1    2    0    0 -0.27797738847E+02  0.22559547350E+03 -0.11444256119E+03  0.27059867998E+03  0.91981051555E+02 0.  0.
        254    2    1    2    0    0  0.27797738847E+02 -0.22559547350E+03  0.75414192273E+03  0.11977828123E+04  0.90237885279E+03 0.  0.
        -24    2    4    4    0    0  0.19815372587E+03 -0.48022123544E+03  0.70187444589E+03  0.87682128949E+03  0.79438667363E+02 0.  0.
         24    2    4    4    0    0 -0.17035598702E+03  0.25462576194E+03  0.52267476844E+02  0.32096152285E+03  0.80180852199E+02 0.  0.
         13    1    3    3    0    0 -0.35995061886E+02  0.23950746028E+02 -0.23975593431E+02  0.49437959058E+02  0.00000000000E+00 0. -1.
        -13    1    3    3    0    0  0.81973230385E+01  0.20164472747E+03 -0.90466967762E+02  0.22116072092E+03  0.00000000000E+00 0.  1.
          2    1    6    6  502    0 -0.17284084078E+03  0.24465549537E+03  0.62999898650E+02  0.30610334020E+03  0.00000000000E+00 0. -1.
          1    1    5    5  503    0  0.18980984248E+03 -0.39590898522E+03  0.56033110994E+03  0.71185859105E+03  0.00000000000E+00 0. -1.
         -2    1    5    5    0  503  0.83438833880E+01 -0.84312250215E+02  0.14154333594E+03  0.16496269844E+03  0.00000000000E+00 0.  1.
         -1    1    6    6    0  502  0.24848537621E+01  0.99702665721E+01 -0.10732421805E+02  0.14858182646E+02  0.00000000000E+00 0.  1.
<mgrwt>
<rscale>  0 0.13217144E+04</rscale>
<asrwt>0</asrwt>
<pdfrwt beam="1">  1        2 0.16216007E+00 0.13217144E+04</pdfrwt>
<pdfrwt beam="2">  1       -2 0.63744779E-01 0.13217144E+04</pdfrwt>
<totfact> 0.51858030E+01</totfact>
</mgrwt>
</event>
<event>
12    1  0.1489233E-007  0.1618521E+04  0.7818608E-02  0.8809250E-01
         -2   -1    0    0    0  501 -0.00000000000E+00  0.00000000000E+00  0.39910267503E+03  0.39910267503E+03  0.00000000000E+00 0.  1.
          2   -1    0    0  501    0  0.00000000000E+00 -0.00000000000E+00 -0.16409366653E+04  0.16409366653E+04  0.00000000000E+00 0. -1.
         23    2    1    2    0    0  0.15374899991E+03  0.53299247601E+03 -0.43970972114E+03  0.71362006327E+03  0.90494316821E+02 0.  0.
        254    2    1    2    0    0 -0.15374899991E+03 -0.53299247601E+03 -0.80212426908E+03  0.13264192770E+04  0.89903560604E+03 0.  0.
        -24    2    4    4    0    0  0.35015024135E+03 -0.76646389782E+02 -0.33929276346E+03  0.50014537849E+03  0.80907105417E+02 0.  0.
         24    2    4    4    0    0 -0.50389924126E+03 -0.45634608623E+03 -0.46283150562E+03  0.82627389852E+03  0.79682852760E+02 0.  0.
         13    1    3    3    0    0  0.82110763325E+02  0.22075172039E+03 -0.23918544018E+03  0.33568314570E+03  0.00000000000E+00 0.  1.
        -13    1    3    3    0    0  0.71638236586E+02  0.31224075561E+03 -0.20052428096E+03  0.37793691757E+03  0.00000000000E+00 0. -1.
          2    1    6    6  502    0 -0.23642412589E+03 -0.26616173571E+03 -0.25265931708E+03  0.43654915802E+03  0.00000000000E+00 0. -1.
          1    1    5    5  503    0  0.86433220830E+02  0.12565322400E+02 -0.10249055154E+03  0.13465846481E+03  0.00000000000E+00 0. -1.
         -2    1    5    5    0  503  0.26371702052E+03 -0.89211712182E+02 -0.23680221192E+03  0.36548691368E+03  0.00000000000E+00 0.  1.
         -1    1    6    6    0  502 -0.26747511537E+03 -0.19018435052E+03 -0.21017218855E+03  0.38972474051E+03  0.00000000000E+00 0.  1.
<mgrwt>
<rscale>  0 0.16185206E+04</rscale>
<asrwt>0</asrwt>
<pdfrwt beam="1">  1        2 0.25245179E+00 0.16185206E+04</pdfrwt>
<pdfrwt beam="2">  1       -2 0.61400412E-01 0.16185206E+04</pdfrwt>
<totfact> 0.24980711E+01</totfact>
</mgrwt>
</event>
<event>
12    1  0.1489233E-007  0.1636263E+04  0.7818608E-02  0.8798575E-01
         -2   -1    0    0    0  501 -0.00000000000E+00  0.00000000000E+00  0.10106216934E+04  0.10106216934E+04  0.00000000000E+00 0.  1.
          2   -1    0    0  501    0  0.00000000000E+00 -0.00000000000E+00 -0.66230399140E+03  0.66230399140E+03  0.00000000000E+00 0. -1.
         23    2    1    2    0    0  0.39732353449E+03 -0.24442456509E+03 -0.20435351992E+03  0.51760350159E+03  0.92431946151E+02 0.  0.
        254    2    1    2    0    0 -0.39732353449E+03  0.24442456509E+03  0.55267122189E+03  0.11553221832E+04  0.90095200116E+03 0.  0.
        -24    2    4    4    0    0 -0.45502927460E+03  0.53250456126E+03  0.33327929948E+03  0.77962742101E+03  0.78301185375E+02 0.  0.
         24    2    4    4    0    0  0.57705740105E+02 -0.28807999617E+03  0.21939192241E+03  0.37569476218E+03  0.81815047994E+02 0.  0.
         13    1    3    3    0    0  0.50963547264E+02 -0.65480790548E+02 -0.57756113343E+02  0.10109790161E+03  0.00000000000E+00 0.  1.
        -13    1    3    3    0    0  0.34635998723E+03 -0.17894377455E+03 -0.14659740658E+03  0.41650559998E+03  0.00000000000E+00 0. -1.
          4    1    6    6  502    0  0.64544957448E+02 -0.11613859319E+03  0.92774218145E+02  0.16205332428E+03  0.00000000000E+00 0. -1.
          1    1    5    5  503    0 -0.63407562498E+02  0.41918849279E+02  0.49700691519E+02  0.90817771632E+02  0.00000000000E+00 0. -1.
         -2    1    5    5    0  503 -0.39162171210E+03  0.49058571198E+03  0.28357860796E+03  0.68880964938E+03  0.00000000000E+00 0.  1.
         -3    1    6    6    0  502 -0.68392173428E+01 -0.17194140298E+03  0.12661770426E+03  0.21364143789E+03  0.00000000000E+00 0.  1.
<mgrwt>
<rscale>  0 0.16362625E+04</rscale>
<asrwt>0</asrwt>
<pdfrwt beam="1">  1        2 0.10189292E+00 0.16362625E+04</pdfrwt>
<pdfrwt beam="2">  1       -2 0.15548026E+00 0.16362625E+04</pdfrwt>
<totfact> 0.11428074E+01</totfact>
</mgrwt>
</event>
<event>
12    1  0.1489233E-007  0.1436072E+04  0.7818608E-02  0.8928114E-01
          2   -1    0    0  501    0  0.00000000000E+00  0.00000000000E+00  0.49941886330E+04  0.49941886330E+04  0.00000000000E+00 0. -1.
         -2   -1    0    0    0  501 -0.00000000000E+00 -0.00000000000E+00 -0.10323511118E+03  0.10323511118E+03  0.00000000000E+00 0.  1.
         23    2    1    2    0    0  0.22603851088E+03  0.12268968691E+03  0.31656822586E+04  0.31773773807E+04  0.89647582684E+02 0.  0.
        254    2    1    2    0    0 -0.22603851088E+03 -0.12268968691E+03  0.17252712632E+04  0.19200463635E+04  0.80241568946E+03 0.  0.
        -24    2    4    4    0    0 -0.21766724037E+03  0.75746562249E+02  0.16840099767E+04  0.17015984012E+04  0.80193192668E+02 0.  0.
         24    2    4    4    0    0 -0.83712705073E+01 -0.19843624916E+03  0.41261286461E+02  0.21844796226E+03  0.81055507531E+02 0.  0.
         11    1    3    3    0    0  0.10214016732E+03  0.21753049671E+02  0.16477173240E+04  0.16510233762E+04  0.00000000000E+00 0. -1.
        -11    1    3    3    0    0  0.12389834356E+03  0.10093663724E+03  0.15179649346E+04  0.15263540045E+04  0.00000000000E+00 0.  1.
          2    1    6    6  502    0 -0.42900680666E+02 -0.14127852941E+03  0.25485285477E+02  0.14983187595E+03  0.00000000000E+00 0. -1.
          3    1    5    5  503    0 -0.20295970513E+03  0.54577322313E+02  0.15993823330E+04  0.16131321003E+04  0.00000000000E+00 0. -1.
         -4    1    5    5    0  503 -0.14707535240E+02  0.21169239936E+02  0.84627643712E+02  0.88466300886E+02  0.00000000000E+00 0.  1.
         -3    1    6    6    0  502  0.34529410158E+02 -0.57157719753E+02  0.15776000985E+02  0.68616086309E+02  0.00000000000E+00 0.  1.
<mgrwt>
<rscale>  0 0.14360719E+04</rscale>
<asrwt>0</asrwt>
<pdfrwt beam="1">  1        2 0.76833653E+00 0.14360719E+04</pdfrwt>
<pdfrwt beam="2">  1       -2 0.15882329E-01 0.14360719E+04</pdfrwt>
<totfact> 0.11430183E+00</totfact>
</mgrwt>
</event>
<event>
12    1  0.1489233E-007  0.1431618E+04  0.7818608E-02  0.8931244E-01
          2   -1    0    0  501    0  0.00000000000E+00  0.00000000000E+00  0.27954890835E+03  0.27954890835E+03  0.00000000000E+00 0. -1.
         -2   -1    0    0    0  501 -0.00000000000E+00 -0.00000000000E+00 -0.18328915452E+04  0.18328915452E+04  0.00000000000E+00 0.  1.
         23    2    1    2    0    0 -0.36403079117E+03 -0.21840807180E+03 -0.43292162122E+03  0.61120749106E+03  0.77025737674E+02 0.  0.
        254    2    1    2    0    0  0.36403079117E+03  0.21840807180E+03 -0.11204210156E+04  0.15012329625E+04  0.90450906720E+03 0.  0.
        -24    2    4    4    0    0 -0.21808268708E+02  0.17723576789E+03 -0.10864739810E+04  0.11039573682E+04  0.80050243201E+02 0.  0.
         24    2    4    4    0    0  0.38583905988E+03  0.41172303908E+02 -0.33947034611E+02  0.39727559426E+03  0.78157263896E+02 0.  0.
         13    1    3    3    0    0 -0.14995001034E+03 -0.12996838054E+03 -0.17542410727E+03  0.26485921345E+03  0.00000000000E+00 0. -1.
        -13    1    3    3    0    0 -0.21408078083E+03 -0.88439691262E+02 -0.25749751395E+03  0.34634827761E+03  0.00000000000E+00 0.  1.
          2    1    6    6  502    0  0.27201465120E+03 -0.15109601983E+01 -0.42905251278E+02  0.27538176057E+03  0.00000000000E+00 0. -1.
          3    1    5    5  503    0 -0.48499988975E+02  0.13485759208E+03 -0.72486497901E+03  0.73889651297E+03  0.00000000000E+00 0. -1.
         -4    1    5    5    0  503  0.26691720267E+02  0.42378175809E+02 -0.36160900200E+03  0.36506085526E+03  0.00000000000E+00 0.  1.
         -1    1    6    6    0  502  0.11382440868E+03  0.42683264106E+02  0.89582166670E+01  0.12189383369E+03  0.00000000000E+00 0.  1.
<mgrwt>
<rscale>  0 0.14316184E+04</rscale>
<asrwt>0</asrwt>
<pdfrwt beam="1">  1        2 0.43007525E-01 0.14316184E+04</pdfrwt>
<pdfrwt beam="2">  1       -2 0.28198331E+00 0.14316184E+04</pdfrwt>
<totfact> 0.47391079E+00</totfact>
</mgrwt>
</event>
<event>
12    1  0.1489233E-007  0.2409800E+04  0.7818608E-02  0.8435844E-01
         -1   -1    0    0    0  501 -0.00000000000E+00  0.00000000000E+00  0.94777176676E+03  0.94777176676E+03  0.00000000000E+00 0.  1.
          1   -1    0    0  501    0  0.00000000000E+00 -0.00000000000E+00 -0.15317862347E+04  0.15317862347E+04  0.00000000000E+00 0. -1.
         23    2    1    2    0    0 -0.14755498220E+03  0.87929536212E+03 -0.80307640366E+03  0.12035400902E+04  0.92974361514E+02 0.  0.
        254    2    1    2    0    0  0.14755498220E+03 -0.87929536212E+03  0.21906193576E+03  0.12760179113E+04  0.88617197628E+03 0.  0.
        -24    2    4    4    0    0  0.40891758407E+03 -0.22961931431E+03 -0.12473686568E+03  0.49170815100E+03  0.79240141545E+02 0.  0.
         24    2    4    4    0    0 -0.26136260187E+03 -0.64967604782E+03  0.34379880144E+03  0.78430976027E+03  0.80961765173E+02 0.  0.
         13    1    3    3    0    0 -0.15804256230E+03  0.78320867136E+03 -0.70035075465E+03  0.10624897430E+04  0.00000000000E+00 0. -1.
        -13    1    3    3    0    0  0.10487580097E+02  0.96086690766E+02 -0.10272564900E+03  0.14105034719E+03  0.00000000000E+00 0.  1.
          4    1    6    6  502    0 -0.24077129766E+03 -0.63257151916E+03  0.33943375112E+03  0.75718743784E+03  0.00000000000E+00 0. -1.
          3    1    5    5  503    0  0.14970575519E+03 -0.78742426753E+02 -0.63689377451E+01  0.16927122105E+03  0.00000000000E+00 0. -1.
         -4    1    5    5    0  503  0.25921182888E+03 -0.15087688755E+03 -0.11836792794E+03  0.32243692995E+03  0.00000000000E+00 0.  1.
         -3    1    6    6    0  502 -0.20591304205E+02 -0.17104528655E+02  0.43650503234E+01  0.27122322425E+02  0.00000000000E+00 0.  1.
<mgrwt>
<rscale>  0 0.24097998E+04</rscale>
<asrwt>0</asrwt>
<pdfrwt beam="1">  1        1 0.23565942E+00 0.24097998E+04</pdfrwt>
<pdfrwt beam="2">  1       -1 0.14581104E+00 0.24097998E+04</pdfrwt>
<totfact> 0.20959594E+00</totfact>
</mgrwt>
</event>
<event>
12    1  0.1489233E-007  0.1861501E+04  0.7818608E-02  0.8674261E-01
          1   -1    0    0  501    0  0.00000000000E+00  0.00000000000E+00  0.13787559539E+04  0.13787559539E+04  0.00000000000E+00 0. -1.
         -1   -1    0    0    0  501 -0.00000000000E+00 -0.00000000000E+00 -0.62831768877E+03  0.62831768877E+03  0.00000000000E+00 0.  1.
         23    2    1    2    0    0  0.56462423283E+03  0.34692299399E+03  0.57277811028E+03  0.88034559289E+03  0.88190199191E+02 0.  0.
        254    2    1    2    0    0 -0.56462423283E+03 -0.34692299399E+03  0.17766015489E+03  0.11267280498E+04  0.89375437317E+03 0.  0.
        -24    2    4    4    0    0 -0.49134376324E+03 -0.50115903788E+03  0.41848180747E+03  0.82092050322E+03  0.78767851918E+02 0.  0.
         24    2    4    4    0    0 -0.73280469589E+02  0.15423604389E+03 -0.24082165258E+03  0.30580754660E+03  0.79777206962E+02 0.  0.
         11    1    3    3    0    0  0.40861176811E+03  0.24553122575E+03  0.46174333014E+03  0.66366863929E+03  0.00000000000E+00 0. -1.
        -11    1    3    3    0    0  0.15601246472E+03  0.10139176824E+03  0.11103478015E+03  0.21667695360E+03  0.00000000000E+00 0.  1.
          4    1    6    6  502    0 -0.32461871644E+02  0.13449483035E+02 -0.19049128552E+02  0.39969125624E+02  0.00000000000E+00 0. -1.
          1    1    5    5  503    0 -0.25145613047E+03 -0.26346723645E+03  0.17165264237E+03  0.40262861283E+03  0.00000000000E+00 0. -1.
         -4    1    5    5    0  503 -0.23988763277E+03 -0.23769180143E+03  0.24682916510E+03  0.41829189039E+03  0.00000000000E+00 0.  1.
         -3    1    6    6    0  502 -0.40818597945E+02  0.14078656085E+03 -0.22177252403E+03  0.26583842098E+03  0.00000000000E+00 0.  1.
<mgrwt>
<rscale>  0 0.18615013E+04</rscale>
<asrwt>0</asrwt>
<pdfrwt beam="1">  1        1 0.21211630E+00 0.18615013E+04</pdfrwt>
<pdfrwt beam="2">  1       -1 0.96664260E-01 0.18615013E+04</pdfrwt>
<totfact> 0.76857679E+00</totfact>
</mgrwt>
</event>
<event>
12    1  0.1489233E-007  0.2292800E+04  0.7818608E-02  0.8480765E-01
         -1   -1    0    0    0  501 -0.00000000000E+00  0.00000000000E+00  0.89046082968E+03  0.89046082968E+03  0.00000000000E+00 0.  1.
          1   -1    0    0  501    0  0.00000000000E+00 -0.00000000000E+00 -0.14759026624E+04  0.14759026624E+04  0.00000000000E+00 0. -1.
         23    2    1    2    0    0 -0.71558065317E+03  0.25219970278E+02 -0.91608463252E+03  0.11661811399E+04  0.89864782558E+02 0.  0.
        254    2    1    2    0    0  0.71558065317E+03 -0.25219970278E+02  0.33064279976E+03  0.12001823522E+04  0.90466640223E+03 0.  0.
        -24    2    4    4    0    0  0.48893601776E+01 -0.29603915061E+03  0.30925110027E+03  0.43498131983E+03  0.76872758811E+02 0.  0.
         24    2    4    4    0    0  0.71069129299E+03  0.27081918033E+03  0.21391699491E+02  0.76520103234E+03  0.81546751718E+02 0.  0.
         11    1    3    3    0    0 -0.31566489275E+03 -0.14138549070E+02 -0.34439309718E+03  0.46738723610E+03  0.00000000000E+00 0. -1.
        -11    1    3    3    0    0 -0.39991576042E+03  0.39358519349E+02 -0.57169153534E+03  0.69879390384E+03  0.00000000000E+00 0.  1.
          4    1    6    6  502    0  0.55569512287E+01  0.11074558491E-01 -0.74593016708E+01  0.93016671097E+01  0.00000000000E+00 0. -1.
          3    1    5    5  503    0  0.37573345721E+02 -0.97685164727E+02  0.11351047219E+03  0.15439810560E+03  0.00000000000E+00 0. -1.
         -4    1    5    5    0  503 -0.32683985544E+02 -0.19835398588E+03  0.19574062808E+03  0.28058321423E+03  0.00000000000E+00 0.  1.
         -3    1    6    6    0  502  0.70513434176E+03  0.27080810577E+03  0.28851001161E+02  0.75589936523E+03  0.00000000000E+00 0.  1.
<mgrwt>
<rscale>  0 0.22928005E+04</rscale>
<asrwt>0</asrwt>
<pdfrwt beam="1">  1        1 0.22706195E+00 0.22928005E+04</pdfrwt>
<pdfrwt beam="2">  1       -1 0.13699397E+00 0.22928005E+04</pdfrwt>
<totfact> 0.27276330E+00</totfact>
</mgrwt>
</event>
<event>
12    1  0.1489233E-007  0.1536531E+04  0.7818608E-02  0.8860517E-01
          1   -1    0    0  501    0  0.00000000000E+00  0.00000000000E+00  0.14579358514E+04  0.14579358514E+04  0.00000000000E+00 0. -1.
         -1   -1    0    0    0  501 -0.00000000000E+00 -0.00000000000E+00 -0.40484084728E+03  0.40484084728E+03  0.00000000000E+00 0.  1.
         23    2    1    2    0    0  0.15214872836E+03 -0.23313617407E+02  0.92648803095E+03  0.94401978008E+03  0.95396611017E+02 0.  0.
        254    2    1    2    0    0 -0.15214872836E+03  0.23313617407E+02  0.12660697314E+03  0.91875691857E+03  0.89687913872E+03 0.  0.
        -24    2    4    4    0    0 -0.17255459374E+03 -0.27561598630E+03  0.38879411846E+03  0.51301436013E+03  0.79269208507E+02 0.  0.
         24    2    4    4    0    0  0.20405865382E+02  0.29892960371E+03 -0.26218714532E+03  0.40574255844E+03  0.78164040604E+02 0.  0.
         11    1    3    3    0    0  0.42905425090E+02 -0.23067036363E+02  0.54573711337E+03  0.54790689043E+03  0.00000000000E+00 0. -1.
        -11    1    3    3    0    0  0.10924330327E+03 -0.24658104340E+00  0.38075091757E+03  0.39611288965E+03  0.00000000000E+00 0.  1.
          2    1    6    6  502    0  0.24751833238E+01  0.22608057631E+03 -0.23457997896E+03  0.32580104365E+03  0.00000000000E+00 0. -1.
          1    1    5    5  503    0 -0.17695675288E+03 -0.23862350148E+03  0.33756548067E+03  0.44967246034E+03  0.00000000000E+00 0. -1.
         -2    1    5    5    0  503  0.44021591361E+01 -0.36992484825E+02  0.51228637797E+02  0.63341899791E+02  0.00000000000E+00 0.  1.
         -1    1    6    6    0  502  0.17930682059E+02  0.72849027399E+02 -0.27607166361E+02  0.79941514788E+02  0.00000000000E+00 0.  1.
<mgrwt>
<rscale>  0 0.15365311E+04</rscale>
<asrwt>0</asrwt>
<pdfrwt beam="1">  1        1 0.22429782E+00 0.15365311E+04</pdfrwt>
<pdfrwt beam="2">  1       -1 0.62283208E-01 0.15365311E+04</pdfrwt>
<totfact> 0.17646036E+01</totfact>
</mgrwt>
</event>
<event>
12    1  0.1489233E-007  0.3113890E+04  0.7818608E-02  0.8211936E-01
          2   -1    0    0  501    0  0.00000000000E+00  0.00000000000E+00  0.13013909336E+04  0.13013909336E+04  0.00000000000E+00 0. -1.
         -2   -1    0    0    0  501 -0.00000000000E+00 -0.00000000000E+00 -0.18626822769E+04  0.18626822769E+04  0.00000000000E+00 0.  1.
         23    2    1    2    0    0 -0.21272152600E+03 -0.11523283971E+04  0.54825326829E+03  0.12968943589E+04  0.90786285017E+02 0.  0.
        254    2    1    2    0    0  0.21272152600E+03  0.11523283971E+04 -0.11095446116E+04  0.18671788516E+04  0.93923183319E+03 0.  0.
        -24    2    4    4    0    0  0.18003820189E+03 -0.44530294124E+02  0.39852625652E+02  0.20555084532E+03  0.79159440406E+02 0.  0.
         24    2    4    4    0    0  0.32683324112E+02  0.11968586912E+04 -0.11493972372E+04  0.16616280063E+04  0.79716346870E+02 0.  0.
         13    1    3    3    0    0 -0.17581867057E+03 -0.97809558022E+03  0.49950769455E+03  0.11122459736E+04  0.00000000000E+00 0. -1.
        -13    1    3    3    0    0 -0.36902855430E+02 -0.17423281685E+03  0.48745573739E+02  0.18464838522E+03  0.00000000000E+00 0.  1.
          4    1    6    6  502    0 -0.88318427150E+00  0.19134685182E+03 -0.22495100910E+03  0.29532584413E+03  0.00000000000E+00 0. -1.
          1    1    5    5  503    0 -0.27546066069E+01  0.10258303262E+02  0.74931112630E-01  0.10621970535E+02  0.00000000000E+00 0. -1.
         -2    1    5    5    0  503  0.18279280850E+03 -0.54788597386E+02  0.39777694540E+02  0.19492887478E+03  0.00000000000E+00 0.  1.
         -3    1    6    6    0  502  0.33566508383E+02  0.10055118394E+04 -0.92444622814E+03  0.13663021622E+04  0.00000000000E+00 0.  1.
<mgrwt>
<rscale>  0 0.31138901E+04</rscale>
<asrwt>0</asrwt>
<pdfrwt beam="1">  1        2 0.20021399E+00 0.31138901E+04</pdfrwt>
<pdfrwt beam="2">  1       -2 0.28656650E+00 0.31138901E+04</pdfrwt>
<totfact> 0.53731420E-01</totfact>
</mgrwt>
</event>
<event>
12    1  0.1489233E-007  0.1578537E+04  0.7818608E-02  0.8833843E-01
          2   -1    0    0  501    0  0.00000000000E+00  0.00000000000E+00  0.33322310229E+03  0.33322310229E+03  0.00000000000E+00 0. -1.
         -2   -1    0    0    0  501 -0.00000000000E+00 -0.00000000000E+00 -0.18694523204E+04  0.18694523204E+04  0.00000000000E+00 0.  1.
         23    2    1    2    0    0  0.46696432513E+03  0.34885293217E+02 -0.87809760006E+03  0.99931216544E+03  0.91086465127E+02 0.  0.
        254    2    1    2    0    0 -0.46696432513E+03 -0.34885293217E+02 -0.65813161803E+03  0.12033632572E+04  0.89200517800E+03 0.  0.
        -24    2    4    4    0    0 -0.36067503231E+03 -0.39660144251E+03 -0.14426002820E+03  0.56090397697E+03  0.80144447773E+02 0.  0.
         24    2    4    4    0    0 -0.10628929282E+03  0.36171614930E+03 -0.51387158983E+03  0.64245928026E+03  0.80956343314E+02 0.  0.
         13    1    3    3    0    0  0.44552258433E+03  0.47033469405E+02 -0.79388631577E+03  0.91156897861E+03  0.00000000000E+00 0.  1.
        -13    1    3    3    0    0  0.21441740805E+02 -0.12148176187E+02 -0.84211284289E+02  0.87743186830E+02  0.00000000000E+00 0. -1.
          4    1    6    6  502    0 -0.46251236391E+02  0.13195310593E+03 -0.25740307546E+03  0.29292856175E+03  0.00000000000E+00 0. -1.
          3    1    5    5  503    0 -0.18638392509E+03 -0.15427714984E+03 -0.43276465978E+02  0.24579108813E+03  0.00000000000E+00 0. -1.
         -4    1    5    5    0  503 -0.17429110722E+03 -0.24232429268E+03 -0.10098356222E+03  0.31511288884E+03  0.00000000000E+00 0.  1.
         -3    1    6    6    0  502 -0.60038056429E+02  0.22976304337E+03 -0.25646851437E+03  0.34953071851E+03  0.00000000000E+00 0.  1.
<mgrwt>
<rscale>  0 0.15785369E+04</rscale>
<asrwt>0</asrwt>
<pdfrwt beam="1">  1        2 0.51265091E-01 0.15785369E+04</pdfrwt>
<pdfrwt beam="2">  1       -2 0.28760806E+00 0.15785369E+04</pdfrwt>
<totfact> 0.35569495E+00</totfact>
</mgrwt>
</event>
<event>
12    1  0.1489233E-007  0.2240051E+04  0.7818608E-02  0.8501940E-01
         -2   -1    0    0    0  501 -0.00000000000E+00  0.00000000000E+00  0.35190688426E+03  0.35190688426E+03  0.00000000000E+00 0.  1.
          2   -1    0    0  501    0  0.00000000000E+00 -0.00000000000E+00 -0.35647421829E+04  0.35647421829E+04  0.00000000000E+00 0. -1.
         23    2    1    2    0    0  0.53690327832E+03 -0.36054426470E+03 -0.25391520736E+04  0.26225830197E+04  0.11131552249E+03 0.  0.
        254    2    1    2    0    0 -0.53690327832E+03  0.36054426470E+03 -0.67368322511E+03  0.12940660475E+04  0.89582395055E+03 0.  0.
        -24    2    4    4    0    0 -0.91012591039E+02  0.27167878669E+03  0.16142372459E+03  0.33989896325E+03  0.85912929727E+02 0.  0.
         24    2    4    4    0    0 -0.44589068728E+03  0.88865478009E+02 -0.83510694970E+03  0.95416708423E+03  0.79470931844E+02 0.  0.
         11    1    3    3    0    0  0.46207381614E+02 -0.11300493001E+02 -0.30427382640E+03  0.30796977886E+03  0.00000000000E+00 0.  1.
        -11    1    3    3    0    0  0.49069589671E+03 -0.34924377170E+03 -0.22348782472E+04  0.23146132409E+04  0.00000000000E+00 0. -1.
          4    1    6    6  502    0 -0.57779560578E+00 -0.58141987843E+01 -0.66017765836E+01  0.88160200389E+01  0.00000000000E+00 0. -1.
          1    1    5    5  503    0 -0.40237382286E+02  0.74789898818E+02  0.82441153209E+01  0.85326088249E+02  0.00000000000E+00 0. -1.
         -2    1    5    5    0  503 -0.50775208753E+02  0.19688888787E+03  0.15317960927E+03  0.25457287500E+03  0.00000000000E+00 0.  1.
         -3    1    6    6    0  502 -0.44531289167E+03  0.94679676793E+02 -0.82850517312E+03  0.94535106419E+03  0.00000000000E+00 0.  1.
<mgrwt>
<rscale>  0 0.22400512E+04</rscale>
<asrwt>0</asrwt>
<pdfrwt beam="1">  1        2 0.54842189E+00 0.22400512E+04</pdfrwt>
<pdfrwt beam="2">  1       -2 0.54139519E-01 0.22400512E+04</pdfrwt>
<totfact> 0.21491248E+00</totfact>
</mgrwt>
</event>
<event>
12    1  0.1489233E-007  0.1811117E+04  0.7818608E-02  0.8700410E-01
          2   -1    0    0  501    0  0.00000000000E+00  0.00000000000E+00  0.10372058489E+04  0.10372058489E+04  0.00000000000E+00 0. -1.
         -2   -1    0    0    0  501 -0.00000000000E+00 -0.00000000000E+00 -0.79062077942E+03  0.79062077942E+03  0.00000000000E+00 0.  1.
         23    2    1    2    0    0 -0.48484328500E+03  0.19295124608E+03 -0.34384071547E+03  0.63177014096E+03  0.92757096909E+02 0.  0.
        254    2    1    2    0    0  0.48484328500E+03 -0.19295124608E+03  0.59042578491E+03  0.11960564873E+04  0.89980293341E+03 0.  0.
        -24    2    4    4    0    0  0.14249081444E+03  0.52185921039E+02  0.72653418226E+03  0.74662786008E+03  0.81081692756E+02 0.  0.
         24    2    4    4    0    0  0.34235247056E+03 -0.24513716712E+03 -0.13610839735E+03  0.44942862723E+03  0.78505734465E+02 0.  0.
         11    1    3    3    0    0 -0.42844812190E+03  0.16278439909E+03 -0.26209372381E+03  0.52797696333E+03  0.00000000000E+00 0.  1.
        -11    1    3    3    0    0 -0.56395163100E+02  0.30166846988E+02 -0.81746991656E+02  0.10379317763E+03  0.00000000000E+00 0. -1.
          4    1    6    6  502    0  0.42267544228E+02 -0.52451692906E+02 -0.46091560811E+02  0.81622039681E+02  0.00000000000E+00 0. -1.
          3    1    5    5  503    0  0.69289122751E+01  0.34036938110E+02  0.12463148800E+03  0.12938133862E+03  0.00000000000E+00 0. -1.
         -4    1    5    5    0  503  0.13556190217E+03  0.18148982929E+02  0.60190269426E+03  0.61724652146E+03  0.00000000000E+00 0.  1.
         -3    1    6    6    0  502  0.30008492633E+03 -0.19268547421E+03 -0.90016836538E+02  0.36780658755E+03  0.00000000000E+00 0.  1.
<mgrwt>
<rscale>  0 0.18111173E+04</rscale>
<asrwt>0</asrwt>
<pdfrwt beam="1">  1        2 0.15957013E+00 0.18111173E+04</pdfrwt>
<pdfrwt beam="2">  1       -2 0.12163397E+00 0.18111173E+04</pdfrwt>
<totfact> 0.11549513E+01</totfact>
</mgrwt>
</event>
<event>
12    1  0.1489233E-007  0.1528271E+04  0.7818608E-02  0.8865868E-01
         -2   -1    0    0    0  501 -0.00000000000E+00  0.00000000000E+00  0.74429837137E+03  0.74429837137E+03  0.00000000000E+00 0.  1.
          2   -1    0    0  501    0  0.00000000000E+00 -0.00000000000E+00 -0.78450139381E+03  0.78450139381E+03  0.00000000000E+00 0. -1.
         23    2    1    2    0    0 -0.14055688553E+03 -0.32888207443E+03  0.32253792474E+03  0.48971095766E+03  0.88693022266E+02 0.  0.
        254    2    1    2    0    0  0.14055688553E+03  0.32888207443E+03 -0.36274094719E+03  0.10390888075E+04  0.90565164285E+03 0.  0.
        -24    2    4    4    0    0  0.35888311107E+03  0.38546134150E+03  0.77504296497E+02  0.53823340950E+03  0.79440253821E+02 0.  0.
         24    2    4    4    0    0 -0.21832622555E+03 -0.56579267064E+02 -0.44024524368E+03  0.50085539802E+03  0.78566538153E+02 0.  0.
         11    1    3    3    0    0 -0.13653839152E+02  0.93073945327E+00  0.48486748390E+01  0.14519064957E+02  0.00000000000E+00 0. -1.
        -11    1    3    3    0    0 -0.12690304638E+03 -0.32981281389E+03  0.31768924991E+03  0.47519189270E+03  0.00000000000E+00 0.  1.
          2    1    6    6  502    0 -0.11733442145E+03 -0.63586227739E+02 -0.29530796781E+03  0.32406383733E+03  0.00000000000E+00 0. -1.
          1    1    5    5  503    0  0.89726043262E+01 -0.26050642336E+01 -0.23681349090E+01  0.96385710042E+01  0.00000000000E+00 0. -1.
         -2    1    5    5    0  503  0.34991050675E+03  0.38806640573E+03  0.79872431406E+02  0.52859483850E+03  0.00000000000E+00 0.  1.
         -1    1    6    6    0  502 -0.10099180410E+03  0.70069606754E+01 -0.14493727588E+03  0.17679156069E+03  0.00000000000E+00 0.  1.
<mgrwt>
<rscale>  0 0.15282711E+04</rscale>
<asrwt>0</asrwt>
<pdfrwt beam="1">  1        2 0.12069252E+00 0.15282711E+04</pdfrwt>
<pdfrwt beam="2">  1       -2 0.11450744E+00 0.15282711E+04</pdfrwt>
<totfact> 0.20310543E+01</totfact>
</mgrwt>
</event>
<event>
12    1  0.1489233E-007  0.2999926E+04  0.7818608E-02  0.8243752E-01
         -2   -1    0    0    0  501 -0.00000000000E+00  0.00000000000E+00  0.53103907167E+03  0.53103907167E+03  0.00000000000E+00 0.  1.
          2   -1    0    0  501    0  0.00000000000E+00 -0.00000000000E+00 -0.42367659611E+04  0.42367659611E+04  0.00000000000E+00 0. -1.
         23    2    1    2    0    0  0.24346441525E+03 -0.82607928716E+03 -0.12811542388E+02  0.86773357947E+03  0.10543016247E+03 0.  0.
        254    2    1    2    0    0 -0.24346441525E+03  0.82607928716E+03 -0.36929153470E+04  0.39000714533E+04  0.91173004241E+03 0.  0.
        -24    2    4    4    0    0 -0.12474833925E+03  0.71231117574E+03 -0.36367215632E+04  0.37087870773E+04  0.80053087711E+02 0.  0.
         24    2    4    4    0    0 -0.11871607600E+03  0.11376811142E+03 -0.56193783780E+02  0.19128437599E+03  0.79970502607E+02 0.  0.
         13    1    3    3    0    0  0.23284103783E+03 -0.63818223258E+03 -0.15731752986E+02  0.67951379598E+03  0.00000000000E+00 0.  1.
        -13    1    3    3    0    0  0.10623377425E+02 -0.18789705458E+03  0.29202105985E+01  0.18821978349E+03  0.00000000000E+00 0. -1.
          4    1    6    6  502    0 -0.12002001027E+03  0.83640322041E+02 -0.25945630130E+02  0.14857214429E+03  0.00000000000E+00 0. -1.
          1    1    5    5  503    0 -0.66614496263E+02  0.47244998828E+03 -0.22153312281E+04  0.22661286223E+04  0.00000000000E+00 0. -1.
         -2    1    5    5    0  503 -0.58133842991E+02  0.23986118746E+03 -0.14213903351E+04  0.14426584550E+04  0.00000000000E+00 0.  1.
         -3    1    6    6    0  502  0.13039342764E+01  0.30127789381E+02 -0.30248153650E+02  0.42712231701E+02  0.00000000000E+00 0.  1.
<mgrwt>
<rscale>  0 0.29999255E+04</rscale>
<asrwt>0</asrwt>
<pdfrwt beam="1">  1        2 0.65181016E+00 0.29999255E+04</pdfrwt>
<pdfrwt beam="2">  1       -2 0.81698317E-01 0.29999255E+04</pdfrwt>
<totfact> 0.24354409E-01</totfact>
</mgrwt>
</event>
<event>
12    1  0.1489233E-007  0.1912694E+04  0.7818608E-02  0.8648563E-01
         -1   -1    0    0    0  501 -0.00000000000E+00  0.00000000000E+00  0.61461555550E+03  0.61461555550E+03  0.00000000000E+00 0.  1.
          1   -1    0    0  501    0  0.00000000000E+00 -0.00000000000E+00 -0.14880844902E+04  0.14880844902E+04  0.00000000000E+00 0. -1.
         23    2    1    2    0    0 -0.53453836333E+03  0.50379708043E+03 -0.45672115668E+03  0.86983585888E+03  0.92073048734E+02 0.  0.
        254    2    1    2    0    0  0.53453836333E+03 -0.50379708043E+03 -0.41674777806E+03  0.12328641869E+04  0.89818296165E+03 0.  0.
        -24    2    4    4    0    0 -0.19577282323E+03 -0.31031631487E+03 -0.22420718741E+02  0.37664752917E+03  0.82082026082E+02 0.  0.
         24    2    4    4    0    0  0.73031118656E+03 -0.19348076556E+03 -0.39432705932E+03  0.85621665769E+03  0.82606896502E+02 0.  0.
         11    1    3    3    0    0 -0.28879805059E+03  0.24482191146E+03 -0.28372381638E+03  0.47311868103E+03  0.00000000000E+00 0. -1.
        -11    1    3    3    0    0 -0.24574031273E+03  0.25897516897E+03 -0.17299734030E+03  0.39671717785E+03  0.00000000000E+00 0.  1.
          2    1    6    6  502    0  0.45057296532E+03 -0.93875756328E+02 -0.27534386837E+03  0.53632350364E+03  0.00000000000E+00 0. -1.
          3    1    5    5  503    0 -0.19120793270E+03 -0.30418723566E+03 -0.69118036287E+01  0.35935792866E+03  0.00000000000E+00 0. -1.
         -4    1    5    5    0  503 -0.45648905352E+01 -0.61290792160E+01 -0.15508915113E+02  0.17289600504E+02  0.00000000000E+00 0.  1.
         -1    1    6    6    0  502  0.27973822124E+03 -0.99605009230E+02 -0.11898319095E+03  0.31989315406E+03  0.00000000000E+00 0.  1.
<mgrwt>
<rscale>  0 0.19126943E+04</rscale>
<asrwt>0</asrwt>
<pdfrwt beam="1">  1        1 0.22893607E+00 0.19126943E+04</pdfrwt>
<pdfrwt beam="2">  1       -1 0.94556241E-01 0.19126943E+04</pdfrwt>
<totfact> 0.67427639E+00</totfact>
</mgrwt>
</event>
<event>
12    1  0.1489233E-007  0.2002238E+04  0.7818608E-02  0.8605575E-01
          2   -1    0    0  501    0  0.00000000000E+00  0.00000000000E+00  0.28159331267E+04  0.28159331267E+04  0.00000000000E+00 0. -1.
         -2   -1    0    0    0  501 -0.00000000000E+00 -0.00000000000E+00 -0.35591725784E+03  0.35591725784E+03  0.00000000000E+00 0.  1.
         23    2    1    2    0    0 -0.31948659422E+03 -0.68008254286E+03  0.56612662390E+03  0.94533392913E+03  0.92590141376E+02 0.  0.
        254    2    1    2    0    0  0.31948659422E+03  0.68008254286E+03  0.18938892450E+04  0.22265164554E+04  0.89776116261E+03 0.  0.
        -24    2    4    4    0    0  0.58498576703E+02  0.17063250854E+03  0.15315074379E+04  0.15441434621E+04  0.79539064422E+02 0.  0.
         24    2    4    4    0    0  0.26098801752E+03  0.50945003432E+03  0.36238180706E+03  0.68237299332E+03  0.81598070829E+02 0.  0.
         11    1    3    3    0    0 -0.91438400944E+02 -0.16441909344E+03  0.19107478624E+03  0.26814957280E+03  0.00000000000E+00 0. -1.
        -11    1    3    3    0    0 -0.22804819328E+03 -0.51566344942E+03  0.37505183766E+03  0.67718435633E+03  0.00000000000E+00 0.  1.
          4    1    6    6  502    0  0.40535848802E+02  0.49362030008E+02  0.16399746219E+02  0.65944800558E+02  0.00000000000E+00 0. -1.
          3    1    5    5  503    0  0.15488555175E+02 -0.92970664486E+00  0.57301268182E+02  0.59364930987E+02  0.00000000000E+00 0. -1.
         -4    1    5    5    0  503  0.43010021527E+02  0.17156221519E+03  0.14742061697E+04  0.14847785311E+04  0.00000000000E+00 0.  1.
         -3    1    6    6    0  502  0.22045216872E+03  0.46008800431E+03  0.34598206085E+03  0.61642819276E+03  0.00000000000E+00 0.  1.
<mgrwt>
<rscale>  0 0.20022379E+04</rscale>
<asrwt>0</asrwt>
<pdfrwt beam="1">  1        2 0.43322047E+00 0.20022379E+04</pdfrwt>
<pdfrwt beam="2">  1       -2 0.54756503E-01 0.20022379E+04</pdfrwt>
<totfact> 0.66019556E+00</totfact>
</mgrwt>
</event>
<event>
12    1  0.1489233E-007  0.1407306E+04  0.7818608E-02  0.8948547E-01
          1   -1    0    0  501    0  0.00000000000E+00  0.00000000000E+00  0.18152756127E+04  0.18152756127E+04  0.00000000000E+00 0. -1.
         -1   -1    0    0    0  501 -0.00000000000E+00 -0.00000000000E+00 -0.27275607639E+03  0.27275607639E+03  0.00000000000E+00 0.  1.
         23    2    1    2    0    0 -0.25837245581E+03  0.21690302672E+03  0.82660622259E+03  0.89723407399E+03  0.89150924711E+02 0.  0.
        254    2    1    2    0    0  0.25837245581E+03 -0.21690302672E+03  0.71591331368E+03  0.11907976151E+04  0.88975493165E+03 0.  0.
        -24    2    4    4    0    0 -0.82129421020E+02 -0.36745592950E+03  0.71251411172E+03  0.80989597172E+03  0.80535853363E+02 0.  0.
         24    2    4    4    0    0  0.34050187683E+03  0.15055290278E+03  0.33992019548E+01  0.38090164334E+03  0.80416432786E+02 0.  0.
         13    1    3    3    0    0 -0.19164572462E+03  0.20005738304E+03  0.70540476618E+03  0.75785679678E+03  0.00000000000E+00 0. -1.
        -13    1    3    3    0    0 -0.66726731188E+02  0.16845643681E+02  0.12120145641E+03  0.13937727721E+03  0.00000000000E+00 0.  1.
          4    1    6    6  502    0  0.42216810477E+02  0.35337583903E+02  0.24884785228E+02  0.60417352299E+02  0.00000000000E+00 0. -1.
          1    1    5    5  503    0 -0.49498502467E+01 -0.84609198420E+02  0.23203283475E+03  0.24702723307E+03  0.00000000000E+00 0. -1.
         -2    1    5    5    0  503 -0.77179570773E+02 -0.28284673108E+03  0.48048127697E+03  0.56286873865E+03  0.00000000000E+00 0.  1.
         -3    1    6    6    0  502  0.29828506636E+03  0.11521531887E+03 -0.21485583273E+02  0.32048429104E+03  0.00000000000E+00 0.  1.
<mgrwt>
<rscale>  0 0.14073059E+04</rscale>
<asrwt>0</asrwt>
<pdfrwt beam="1">  1        1 0.27927316E+00 0.14073059E+04</pdfrwt>
<pdfrwt beam="2">  1       -1 0.41962474E-01 0.14073059E+04</pdfrwt>
<totfact> 0.21625747E+01</totfact>
</mgrwt>
</event>
<event>
12    1  0.1489233E-007  0.2438062E+04  0.7818608E-02  0.8425390E-01
          2   -1    0    0  501    0  0.00000000000E+00  0.00000000000E+00  0.19561148990E+04  0.19561148990E+04  0.00000000000E+00 0.  1.
         -2   -1    0    0    0  501 -0.00000000000E+00 -0.00000000000E+00 -0.75968747781E+03  0.75968747781E+03  0.00000000000E+00 0. -1.
         23    2    1    2    0    0  0.37121860429E+03 -0.93597527362E+03  0.93232779081E+03  0.13754576719E+04  0.93785566951E+02 0.  0.
        254    2    1    2    0    0 -0.37121860429E+03  0.93597527362E+03  0.26409963042E+03  0.13403447050E+04  0.84434729134E+03 0.  0.
        -24    2    4    4    0    0 -0.49837596926E+03  0.90323821657E+03 -0.26063140266E+00  0.10345111291E+04  0.77429488736E+02 0.  0.
         24    2    4    4    0    0  0.12715736497E+03  0.32737057047E+02  0.26436026182E+03  0.30583357586E+03  0.80044473427E+02 0.  0.
         13    1    3    3    0    0  0.13898086059E+03 -0.26164245276E+03  0.23700917322E+03  0.37940189890E+03  0.00000000000E+00 0. -1.
        -13    1    3    3    0    0  0.23223774369E+03 -0.67433282086E+03  0.69531861759E+03  0.99605577296E+03  0.00000000000E+00 0.  1.
          4    1    6    6  502    0  0.74084663072E+02 -0.21791366250E+02  0.14500594320E+03  0.16428671434E+03  0.00000000000E+00 0. -1.
          3    1    5    5  503    0 -0.11713063332E+03  0.15027663885E+03  0.29510464097E+00  0.19053278073E+03  0.00000000000E+00 0. -1.
         -4    1    5    5    0  503 -0.38124533593E+03  0.75296157772E+03 -0.55573604363E+00  0.84397834839E+03  0.00000000000E+00 0.  1.
         -3    1    6    6    0  502  0.53072701901E+02  0.54528423296E+02  0.11935431862E+03  0.14154686152E+03  0.00000000000E+00 0.  1.
<mgrwt>
<rscale>  0 0.24380615E+04</rscale>
<asrwt>0</asrwt>
<pdfrwt beam="1">  1        2 0.30094075E+00 0.24380615E+04</pdfrwt>
<pdfrwt beam="2">  1       -2 0.11687500E+00 0.24380615E+04</pdfrwt>
<totfact> 0.35907632E+00</totfact>
</mgrwt>
</event>
<event>
12    1  0.1489233E-007  0.1526994E+04  0.7818608E-02  0.8866698E-01
         -1   -1    0    0    0  501 -0.00000000000E+00  0.00000000000E+00  0.22947978759E+03  0.22947978759E+03  0.00000000000E+00 0.  1.
          1   -1    0    0  501    0  0.00000000000E+00 -0.00000000000E+00 -0.25402127233E+04  0.25402127233E+04  0.00000000000E+00 0. -1.
         23    2    1    2    0    0 -0.27415622948E+02 -0.12180562975E+03  0.10815600672E+03  0.18743375933E+03  0.88574626873E+02 0.  0.
        254    2    1    2    0    0  0.27415622948E+02  0.12180562975E+03 -0.24188889424E+04  0.25822587516E+04  0.89523645840E+03 0.  0.
        -24    2    4    4    0    0 -0.41310906282E+03  0.89269247503E+02 -0.14929930064E+04  0.15536657719E+04  0.78874059954E+02 0.  0.
         24    2    4    4    0    0  0.44052468576E+03  0.32536382247E+02 -0.92589593603E+03  0.10285929797E+04  0.74830598738E+02 0.  0.
         13    1    3    3    0    0 -0.13862229749E+01 -0.10434923093E+03  0.11506490911E+03  0.15534032612E+03  0.00000000000E+00 0.  1.
        -13    1    3    3    0    0 -0.26029399973E+02 -0.17456398823E+02 -0.69089023949E+01  0.32093433209E+02  0.00000000000E+00 0. -1.
          4    1    6    6  502    0  0.38456146129E+03  0.30030099326E+02 -0.85691830750E+03  0.93973310578E+03  0.00000000000E+00 0. -1.
          1    1    5    5  503    0 -0.38123201339E+03  0.10126784180E+03 -0.14046530094E+04  0.14589870118E+04  0.00000000000E+00 0. -1.
         -2    1    5    5    0  503 -0.31877049427E+02 -0.11998594295E+02 -0.88339997007E+02  0.94678760113E+02  0.00000000000E+00 0.  1.
         -3    1    6    6    0  502  0.55963224474E+02  0.25062829203E+01 -0.68977628534E+02  0.88859873879E+02  0.00000000000E+00 0.  1.
<mgrwt>
<rscale>  0 0.15269937E+04</rscale>
<asrwt>0</asrwt>
<pdfrwt beam="1">  1        1 0.39080192E+00 0.15269937E+04</pdfrwt>
<pdfrwt beam="2">  1       -1 0.35304586E-01 0.15269937E+04</pdfrwt>
<totfact> 0.93922259E+00</totfact>
</mgrwt>
</event>
<event>
12    1  0.1489233E-007  0.1470031E+04  0.7818608E-02  0.8904630E-01
         -2   -1    0    0    0  501 -0.00000000000E+00  0.00000000000E+00  0.95348000141E+03  0.95348000141E+03  0.00000000000E+00 0. -1.
          2   -1    0    0  501    0  0.00000000000E+00 -0.00000000000E+00 -0.56660641880E+03  0.56660641880E+03  0.00000000000E+00 0.  1.
         23    2    1    2    0    0  0.35408566627E+03 -0.27325174413E+03  0.38177341713E+02  0.45841882897E+03  0.92989991928E+02 0.  0.
        254    2    1    2    0    0 -0.35408566627E+03  0.27325174413E+03  0.34869624089E+03  0.10616675912E+04  0.89749976666E+03 0.  0.
        -24    2    4    4    0    0 -0.45457586602E+03  0.29167841906E+03  0.58060544373E+03  0.79700093228E+03  0.79951777051E+02 0.  0.
         24    2    4    4    0    0  0.10049019975E+03 -0.18426674933E+02 -0.23190920284E+03  0.26466665896E+03  0.76346181355E+02 0.  0.
         11    1    3    3    0    0  0.22762542194E+03 -0.22716904263E+03  0.37982720630E+02  0.32382370777E+03  0.00000000000E+00 0. -1.
        -11    1    3    3    0    0  0.12646024433E+03 -0.46082701501E+02  0.19462108286E+00  0.13459512120E+03  0.00000000000E+00 0.  1.
          4    1    6    6  502    0  0.49114006106E+02  0.18880954890E+02 -0.52399386856E+02  0.74258816286E+02  0.00000000000E+00 0. -1.
          3    1    5    5  503    0 -0.67692589423E+02  0.76231878810E+02  0.13023027671E+03  0.16538896874E+03  0.00000000000E+00 0. -1.
         -4    1    5    5    0  503 -0.38688327660E+03  0.21544654025E+03  0.45037516702E+03  0.63161196354E+03  0.00000000000E+00 0.  1.
         -3    1    6    6    0  502  0.51376193641E+02 -0.37307629823E+02 -0.17950981599E+03  0.19040784267E+03  0.00000000000E+00 0.  1.
<mgrwt>
<rscale>  0 0.14700311E+04</rscale>
<asrwt>0</asrwt>
<pdfrwt beam="1">  1        2 0.87170218E-01 0.14700311E+04</pdfrwt>
<pdfrwt beam="2">  1       -2 0.14668923E+00 0.14700311E+04</pdfrwt>
<totfact> 0.16341770E+01</totfact>
</mgrwt>
</event>
<event>
12    1  0.1489233E-007  0.1657062E+04  0.7818608E-02  0.8786240E-01
         -1   -1    0    0    0  501 -0.00000000000E+00  0.00000000000E+00  0.96035546051E+03  0.96035546051E+03  0.00000000000E+00 0.  1.
          1   -1    0    0  501    0  0.00000000000E+00 -0.00000000000E+00 -0.71480132019E+03  0.71480132019E+03  0.00000000000E+00 0. -1.
         23    2    1    2    0    0 -0.31371207279E+03  0.38603305370E+03  0.38429284207E+03  0.63517753276E+03  0.91283769068E+02 0.  0.
        254    2    1    2    0    0  0.31371207279E+03 -0.38603305370E+03 -0.13873870175E+03  0.10399792479E+04  0.90270240147E+03 0.  0.
        -24    2    4    4    0    0  0.49934750472E+03 -0.31949255514E+03  0.20807176446E+03  0.63291223181E+03  0.76554625920E+02 0.  0.
         24    2    4    4    0    0 -0.18563543193E+03 -0.66540498558E+02 -0.34681046621E+03  0.40706701612E+03  0.80857310179E+02 0.  0.
         13    1    3    3    0    0 -0.24576952571E+02  0.35763573291E+02  0.71716146890E+02  0.83822822053E+02  0.00000000000E+00 0. -1.
        -13    1    3    3    0    0 -0.28913512022E+03  0.35026948041E+03  0.31257669518E+03  0.55135471071E+03  0.00000000000E+00 0.  1.
          2    1    6    6  502    0 -0.80929585294E+02 -0.36287374632E+02 -0.82349011275E+02  0.12102781082E+03  0.00000000000E+00 0. -1.
          3    1    5    5  503    0  0.42583803474E+03 -0.25605775844E+03  0.14690124041E+03  0.51815401371E+03  0.00000000000E+00 0. -1.
         -4    1    5    5    0  503  0.73509469979E+02 -0.63434796698E+02  0.61170524053E+02  0.11475821810E+03  0.00000000000E+00 0.  1.
         -1    1    6    6    0  502 -0.10470584664E+03 -0.30253123926E+02 -0.26446145493E+03  0.28603920531E+03  0.00000000000E+00 0.  1.
<mgrwt>
<rscale>  0 0.16570617E+04</rscale>
<asrwt>0</asrwt>
<pdfrwt beam="1">  1        1 0.10996943E+00 0.16570617E+04</pdfrwt>
<pdfrwt beam="2">  1       -1 0.14774699E+00 0.16570617E+04</pdfrwt>
<totfact> 0.91583686E+00</totfact>
</mgrwt>
</event>
<event>
12    1  0.1489233E-007  0.2633234E+04  0.7818608E-02  0.8356999E-01
         -1   -1    0    0    0  501 -0.00000000000E+00  0.00000000000E+00  0.10445125726E+04  0.10445125726E+04  0.00000000000E+00 0.  1.
          1   -1    0    0  501    0  0.00000000000E+00 -0.00000000000E+00 -0.16596064972E+04  0.16596064972E+04  0.00000000000E+00 0. -1.
         23    2    1    2    0    0  0.55193418441E+03  0.18857857266E+03  0.76567751804E+03  0.96737041839E+03  0.96696653250E+02 0.  0.
        254    2    1    2    0    0 -0.55193418441E+03 -0.18857857266E+03 -0.13807714426E+04  0.17367486515E+04  0.87725303058E+03 0.  0.
        -24    2    4    4    0    0  0.17692338405E+03  0.98934539957E+02 -0.55083595505E+03  0.59243909983E+03  0.80460615308E+02 0.  0.
         24    2    4    4    0    0 -0.72885756847E+03 -0.28751311262E+03 -0.82993548758E+03  0.11443095516E+04  0.82184496161E+02 0.  0.
         13    1    3    3    0    0  0.42953062727E+03  0.10865314419E+03  0.60859330470E+03  0.75278674007E+03  0.00000000000E+00 0.  1.
        -13    1    3    3    0    0  0.12240355715E+03  0.79925428477E+02  0.15708421333E+03  0.21458367831E+03  0.00000000000E+00 0. -1.
          4    1    6    6  502    0 -0.46166993153E+03 -0.13993532922E+03 -0.51977229764E+03  0.70914333067E+03  0.00000000000E+00 0. -1.
          3    1    5    5  503    0  0.11124900295E+03  0.76136774236E+02 -0.45148410394E+03  0.47118048045E+03  0.00000000000E+00 0. -1.
         -4    1    5    5    0  503  0.65674381108E+02  0.22797765721E+02 -0.99351851105E+02  0.12125861938E+03  0.00000000000E+00 0.  1.
         -3    1    6    6    0  502 -0.26718763694E+03 -0.14757778340E+03 -0.31016318994E+03  0.43516622098E+03  0.00000000000E+00 0.  1.
<mgrwt>
<rscale>  0 0.26332336E+04</rscale>
<asrwt>0</asrwt>
<pdfrwt beam="1">  1        1 0.25532407E+00 0.26332336E+04</pdfrwt>
<pdfrwt beam="2">  1       -1 0.16069424E+00 0.26332336E+04</pdfrwt>
<totfact> 0.12878104E+00</totfact>
</mgrwt>
</event>
<event>
12    1  0.1489233E-007  0.2682971E+04  0.7818608E-02  0.8340551E-01
          2   -1    0    0  501    0  0.00000000000E+00  0.00000000000E+00  0.30952742542E+04  0.30952742542E+04  0.00000000000E+00 0. -1.
         -2   -1    0    0    0  501 -0.00000000000E+00 -0.00000000000E+00 -0.58139727495E+03  0.58139727495E+03  0.00000000000E+00 0.  1.
         23    2    1    2    0    0  0.83390628843E+03  0.72182546271E+03  0.17516548358E+04  0.20719830826E+04  0.91583483100E+02 0.  0.
        254    2    1    2    0    0 -0.83390628843E+03 -0.72182546271E+03  0.76222214339E+03  0.16046884465E+04  0.88182238454E+03 0.  0.
        -24    2    4    4    0    0  0.13977547046E+03 -0.19800142598E+03 -0.69139792892E+01  0.25545607150E+03  0.80425459433E+02 0.  0.
         24    2    4    4    0    0 -0.97368175889E+03 -0.52382403673E+03  0.76913612268E+03  0.13492323750E+04  0.80061460258E+02 0.  0.
         13    1    3    3    0    0  0.61058812828E+03  0.53056164326E+03  0.12060521898E+04  0.14521967512E+04  0.00000000000E+00 0. -1.
        -13    1    3    3    0    0  0.22331816016E+03  0.19126381945E+03  0.54560264600E+03  0.61978633142E+03  0.00000000000E+00 0.  1.
          4    1    6    6  502    0 -0.18701752707E+02 -0.14996157561E+02  0.31792595932E+02  0.39817200454E+02  0.00000000000E+00 0. -1.
          3    1    5    5  503    0  0.21082056447E+02 -0.59692336659E+02  0.29102269310E+02  0.69674746062E+02  0.00000000000E+00 0. -1.
         -4    1    5    5    0  503  0.11869341401E+03 -0.13830908932E+03 -0.36016248599E+02  0.18578132544E+03  0.00000000000E+00 0.  1.
         -3    1    6    6    0  502 -0.95498000619E+03 -0.50882787917E+03  0.73734352675E+03  0.13094151745E+04  0.00000000000E+00 0.  1.
<mgrwt>
<rscale>  0 0.26829715E+04</rscale>
<asrwt>0</asrwt>
<pdfrwt beam="1">  1        2 0.47619603E+00 0.26829715E+04</pdfrwt>
<pdfrwt beam="2">  1       -2 0.89445737E-01 0.26829715E+04</pdfrwt>
<totfact> 0.14268021E+00</totfact>
</mgrwt>
</event>
<event>
12    1  0.1489233E-007  0.1435467E+04  0.7818608E-02  0.8928539E-01
          1   -1    0    0  501    0  0.00000000000E+00  0.00000000000E+00  0.68463141822E+03  0.68463141822E+03  0.00000000000E+00 0. -1.
         -1   -1    0    0    0  501 -0.00000000000E+00 -0.00000000000E+00 -0.75243588212E+03  0.75243588212E+03  0.00000000000E+00 0.  1.
         23    2    1    2    0    0  0.24897721797E+03 -0.30440549179E+03 -0.34916596947E+01  0.40377013835E+03  0.91464607575E+02 0.  0.
        254    2    1    2    0    0 -0.24897721797E+03  0.30440549179E+03 -0.64312804208E+02  0.10332971620E+04  0.95337009063E+03 0.  0.
        -24    2    4    4    0    0 -0.41994418966E+03  0.38747817203E+03 -0.35460914233E+03  0.67727408310E+03  0.80374645166E+02 0.  0.
         24    2    4    4    0    0  0.17096697169E+03 -0.83072680244E+02  0.29029633812E+03  0.35602307890E+03  0.79684962003E+02 0.  0.
         11    1    3    3    0    0  0.67374589662E+02 -0.73667058753E+02 -0.40663474592E+02  0.10779466148E+03  0.00000000000E+00 0. -1.
        -11    1    3    3    0    0  0.18160262831E+03 -0.23073843303E+03  0.37171814897E+02  0.29597547687E+03  0.00000000000E+00 0.  1.
          4    1    6    6  502    0  0.91529310545E+02 -0.68606342524E+02  0.11103025992E+03  0.15941193036E+03  0.00000000000E+00 0. -1.
          3    1    5    5  503    0 -0.12270697553E+03  0.95830519096E+02 -0.58569176993E+02  0.16634554015E+03  0.00000000000E+00 0. -1.
         -4    1    5    5    0  503 -0.29723721414E+03  0.29164765293E+03 -0.29603996533E+03  0.51092854295E+03  0.00000000000E+00 0.  1.
         -3    1    6    6    0  502  0.79437661147E+02 -0.14466337719E+02  0.17926607820E+03  0.19661114854E+03  0.00000000000E+00 0.  1.
<mgrwt>
<rscale>  0 0.14354668E+04</rscale>
<asrwt>0</asrwt>
<pdfrwt beam="1">  1        1 0.10532791E+00 0.14354668E+04</pdfrwt>
<pdfrwt beam="2">  1       -1 0.11575937E+00 0.14354668E+04</pdfrwt>
<totfact> 0.18517843E+01</totfact>
</mgrwt>
</event>
<event>
12    1  0.1489233E-007  0.1967761E+04  0.7818608E-02  0.8621843E-01
         -1   -1    0    0    0  501 -0.00000000000E+00  0.00000000000E+00  0.45627441699E+03  0.45627441699E+03  0.00000000000E+00 0.  1.
          1   -1    0    0  501    0  0.00000000000E+00 -0.00000000000E+00 -0.21215766984E+04  0.21215766984E+04  0.00000000000E+00 0. -1.
         23    2    1    2    0    0  0.20167296830E+01  0.46044970856E+03 -0.14746778194E+04  0.15470225607E+04  0.81154980916E+02 0.  0.
        254    2    1    2    0    0 -0.20167296830E+01 -0.46044970856E+03 -0.19062446194E+03  0.10308285546E+04  0.90235903180E+03 0.  0.
        -24    2    4    4    0    0  0.64207157802E+02 -0.35145856951E+03  0.32776604301E+03  0.49123547095E+03  0.78968498594E+02 0.  0.
         24    2    4    4    0    0 -0.66223887485E+02 -0.10899113904E+03 -0.51839050495E+03  0.53959308369E+03  0.78532214328E+02 0.  0.
         11    1    3    3    0    0 -0.39048524702E+02  0.20638489808E+03 -0.68174760372E+03  0.71337178849E+03  0.00000000000E+00 0. -1.
        -11    1    3    3    0    0  0.41065254385E+02  0.25406481048E+03 -0.79293021571E+03  0.83365077222E+03  0.00000000000E+00 0.  1.
          2    1    6    6  502    0  0.91231573914E+01  0.61378885752E+01 -0.23746242735E+02  0.26168487174E+02  0.00000000000E+00 0. -1.
          3    1    5    5  503    0 -0.47884102024E+01 -0.15363636240E+03  0.10975620836E+03  0.18887425975E+03  0.00000000000E+00 0. -1.
         -4    1    5    5    0  503  0.68995568004E+02 -0.19782220711E+03  0.21800983465E+03  0.30236121119E+03  0.00000000000E+00 0.  1.
         -1    1    6    6    0  502 -0.75347044876E+02 -0.11512902762E+03 -0.49464426221E+03  0.51342459652E+03  0.00000000000E+00 0.  1.
<mgrwt>
<rscale>  0 0.19677613E+04</rscale>
<asrwt>0</asrwt>
<pdfrwt beam="1">  1        1 0.32639641E+00 0.19677613E+04</pdfrwt>
<pdfrwt beam="2">  1       -1 0.70196064E-01 0.19677613E+04</pdfrwt>
<totfact> 0.47016109E+00</totfact>
</mgrwt>
</event>
<event>
12    1  0.1489233E-007  0.2142659E+04  0.7818608E-02  0.8542681E-01
          2   -1    0    0  501    0  0.00000000000E+00  0.00000000000E+00  0.12445548540E+04  0.12445548540E+04  0.00000000000E+00 0. -1.
         -2   -1    0    0    0  501 -0.00000000000E+00 -0.00000000000E+00 -0.92221478399E+03  0.92221478399E+03  0.00000000000E+00 0.  1.
         23    2    1    2    0    0  0.11325529366E+03 -0.13512356216E+03 -0.73657162932E+03  0.76252876784E+03  0.88471566452E+02 0.  0.
        254    2    1    2    0    0 -0.11325529366E+03  0.13512356216E+03  0.10589116993E+04  0.14042408701E+04  0.90526973649E+03 0.  0.
        -24    2    4    4    0    0  0.10030411951E+03 -0.31656332932E+03  0.71545622558E+03  0.79274426376E+03  0.79325904574E+02 0.  0.
         24    2    4    4    0    0 -0.21355941316E+03  0.45168689148E+03  0.34345547374E+03  0.61149660637E+03  0.79610089065E+02 0.  0.
         11    1    3    3    0    0  0.27107450366E+02 -0.57389667628E+02 -0.43136040402E+03  0.43600480040E+03  0.00000000000E+00 0. -1.
        -11    1    3    3    0    0  0.86147843290E+02 -0.77733894530E+02 -0.30521122530E+03  0.32652396744E+03  0.00000000000E+00 0.  1.
          4    1    6    6  502    0 -0.15037660242E+03  0.36009354087E+03  0.23191219414E+03  0.45394244847E+03  0.00000000000E+00 0. -1.
          1    1    5    5  503    0  0.69673426596E+02 -0.14623427227E+03  0.42251953332E+03  0.45250591687E+03  0.00000000000E+00 0. -1.
         -2    1    5    5    0  503  0.30630692912E+02 -0.17032905705E+03  0.29293669226E+03  0.34023834689E+03  0.00000000000E+00 0.  1.
         -3    1    6    6    0  502 -0.63182810741E+02  0.91593350608E+02  0.11154327960E+03  0.15755415790E+03  0.00000000000E+00 0.  1.
<mgrwt>
<rscale>  0 0.21426590E+04</rscale>
<asrwt>0</asrwt>
<pdfrwt beam="1">  1        2 0.19146998E+00 0.21426590E+04</pdfrwt>
<pdfrwt beam="2">  1       -2 0.14187920E+00 0.21426590E+04</pdfrwt>
<totfact> 0.56773984E+00</totfact>
</mgrwt>
</event>
<event>
12    1  0.1489233E-007  0.2833794E+04  0.7818608E-02  0.8292853E-01
          2   -1    0    0  501    0  0.00000000000E+00  0.00000000000E+00  0.11788815312E+04  0.11788815312E+04  0.00000000000E+00 0. -1.
         -2   -1    0    0    0  501 -0.00000000000E+00 -0.00000000000E+00 -0.17029677743E+04  0.17029677743E+04  0.00000000000E+00 0.  1.
         23    2    1    2    0    0  0.11256234955E+04 -0.55755881839E+03 -0.42892332242E+03  0.13304591121E+04  0.90808274959E+02 0.  0.
        254    2    1    2    0    0 -0.11256234955E+04  0.55755881839E+03 -0.95162920715E+02  0.15513901934E+04  0.90545870206E+03 0.  0.
        -24    2    4    4    0    0  0.14482871085E+03  0.86122405471E+02  0.31898802433E+02  0.18784615674E+03  0.76656511766E+02 0.  0.
         24    2    4    4    0    0 -0.12704522063E+04  0.47143641292E+03 -0.12706172315E+03  0.13635440367E+04  0.82501869006E+02 0.  0.
         13    1    3    3    0    0  0.10408892449E+04 -0.52450415768E+03 -0.42055648993E+03  0.12391217829E+04  0.00000000000E+00 0. -1.
        -13    1    3    3    0    0  0.84734250615E+02 -0.33054660713E+02 -0.83668324922E+01  0.91337329215E+02  0.00000000000E+00 0.  1.
          4    1    6    6  502    0 -0.11234614911E+04  0.40869285382E+03 -0.86268626934E+02  0.11985982841E+04  0.00000000000E+00 0. -1.
          1    1    5    5  503    0  0.64183678540E+02  0.35353083059E+00 -0.52419939930E+01  0.64398354607E+02  0.00000000000E+00 0. -1.
         -2    1    5    5    0  503  0.80645032309E+02  0.85768874641E+02  0.37140796426E+02  0.12344780214E+03  0.00000000000E+00 0.  1.
         -3    1    6    6    0  502 -0.14699071529E+03  0.62743559098E+02 -0.40793096215E+02  0.16494575256E+03  0.00000000000E+00 0.  1.
<mgrwt>
<rscale>  0 0.28337941E+04</rscale>
<asrwt>0</asrwt>
<pdfrwt beam="1">  1        2 0.18136639E+00 0.28337941E+04</pdfrwt>
<pdfrwt beam="2">  1       -2 0.26199504E+00 0.28337941E+04</pdfrwt>
<totfact> 0.91798780E-01</totfact>
</mgrwt>
</event>
<event>
12    1  0.1489233E-007  0.2572505E+04  0.7818608E-02  0.8377601E-01
          2   -1    0    0  501    0  0.00000000000E+00  0.00000000000E+00  0.88729867068E+03  0.88729867068E+03  0.00000000000E+00 0. -1.
         -2   -1    0    0    0  501 -0.00000000000E+00 -0.00000000000E+00 -0.18645869577E+04  0.18645869577E+04  0.00000000000E+00 0.  1.
         23    2    1    2    0    0  0.78458143775E+03 -0.12474680006E+02 -0.12929174268E+04  0.15150579704E+04  0.89674583798E+02 0.  0.
        254    2    1    2    0    0 -0.78458143775E+03  0.12474680006E+02  0.31562913983E+03  0.12368276579E+04  0.90243961097E+03 0.  0.
        -24    2    4    4    0    0 -0.98220672637E+03  0.12420664824E+02  0.25658264377E+03  0.10181328126E+04  0.76651449969E+02 0.  0.
         24    2    4    4    0    0  0.19762528862E+03  0.54015182373E-01  0.59046496060E+02  0.21869484534E+03  0.72699305776E+02 0.  0.
         11    1    3    3    0    0  0.69219199566E+03 -0.90233102069E+01 -0.10784200156E+04  0.12814838700E+04  0.00000000000E+00 0.  1.
        -11    1    3    3    0    0  0.92389442094E+02 -0.34513697993E+01 -0.21449741121E+03  0.23357410040E+03  0.00000000000E+00 0. -1.
          2    1    6    6  502    0  0.18906787744E+03  0.17735320699E+02  0.59638702920E+02  0.19904265564E+03  0.00000000000E+00 0. -1.
          3    1    5    5  503    0 -0.95279266387E+03  0.24213921987E+02  0.25384129701E+03  0.98632427650E+03  0.00000000000E+00 0. -1.
         -4    1    5    5    0  503 -0.29414062507E+02 -0.11793257163E+02  0.27413467529E+01  0.31808536114E+02  0.00000000000E+00 0.  1.
         -1    1    6    6    0  502  0.85574111858E+01 -0.17681305517E+02 -0.59220685996E+00  0.19652189698E+02  0.00000000000E+00 0.  1.
<mgrwt>
<rscale>  0 0.25725050E+04</rscale>
<asrwt>0</asrwt>
<pdfrwt beam="1">  1        2 0.13650749E+00 0.25725050E+04</pdfrwt>
<pdfrwt beam="2">  1       -2 0.28685953E+00 0.25725050E+04</pdfrwt>
<totfact> 0.10141506E+00</totfact>
</mgrwt>
</event>
<event>
12    1  0.1489233E-007  0.1283172E+04  0.7818608E-02  0.9043018E-01
          2   -1    0    0  501    0  0.00000000000E+00  0.00000000000E+00  0.14771350841E+04  0.14771350841E+04  0.00000000000E+00 0.  1.
         -2   -1    0    0    0  501 -0.00000000000E+00 -0.00000000000E+00 -0.27866940132E+03  0.27866940132E+03  0.00000000000E+00 0. -1.
         23    2    1    2    0    0  0.10992622091E+03  0.29673440527E+03  0.50253152942E+03  0.60175482758E+03  0.97138319622E+02 0.  0.
        254    2    1    2    0    0 -0.10992622091E+03 -0.29673440527E+03  0.69593415334E+03  0.11540496578E+04  0.86450632479E+03 0.  0.
        -24    2    4    4    0    0  0.43704491863E+02 -0.51657403715E+03  0.15812599581E+03  0.54797000232E+03  0.80675116520E+02 0.  0.
         24    2    4    4    0    0 -0.15363071278E+03  0.21983963188E+03  0.53780815753E+03  0.60607965549E+03  0.78505253623E+02 0.  0.
         11    1    3    3    0    0  0.76000723746E+02  0.16084130420E+03  0.19572263094E+03  0.26448701936E+03  0.00000000000E+00 0. -1.
        -11    1    3    3    0    0  0.33925497168E+02  0.13589310107E+03  0.30680889848E+03  0.33726780822E+03  0.00000000000E+00 0.  1.
          2    1    6    6  502    0 -0.12329157478E+03  0.15398836273E+03  0.45556660259E+03  0.49644149470E+03  0.00000000000E+00 0. -1.
          1    1    5    5  503    0  0.35764226981E+02 -0.20517674708E+03  0.27060503732E+02  0.21002106641E+03  0.00000000000E+00 0. -1.
         -2    1    5    5    0  503  0.79402648819E+01 -0.31139729007E+03  0.13106549208E+03  0.33794893591E+03  0.00000000000E+00 0.  1.
         -1    1    6    6    0  502 -0.30339137996E+02  0.65851269148E+02  0.82241554939E+02  0.10963816079E+03  0.00000000000E+00 0.  1.
<mgrwt>
<rscale>  0 0.12831716E+04</rscale>
<asrwt>0</asrwt>
<pdfrwt beam="1">  1        2 0.22725155E+00 0.12831716E+04</pdfrwt>
<pdfrwt beam="2">  1       -2 0.42872216E-01 0.12831716E+04</pdfrwt>
<totfact> 0.66167766E+01</totfact>
</mgrwt>
</event>
<event>
12    1  0.1489233E-007  0.1621238E+04  0.7818608E-02  0.8807606E-01
         -1   -1    0    0    0  501 -0.00000000000E+00  0.00000000000E+00  0.54578053494E+03  0.54578053494E+03  0.00000000000E+00 0.  1.
          1   -1    0    0  501    0  0.00000000000E+00 -0.00000000000E+00 -0.12039697777E+04  0.12039697777E+04  0.00000000000E+00 0. -1.
         23    2    1    2    0    0 -0.12658493865E+03 -0.52947729590E+03 -0.99479876286E+02  0.56090761314E+03  0.91384632903E+02 0.  0.
        254    2    1    2    0    0  0.12658493865E+03  0.52947729590E+03 -0.55870936648E+03  0.11888426995E+04  0.89711808277E+03 0.  0.
        -24    2    4    4    0    0  0.39689760227E+03  0.61538874020E+03 -0.49330263165E+03  0.88687363996E+03  0.83464714742E+02 0.  0.
         24    2    4    4    0    0 -0.27031266362E+03 -0.85911444302E+02 -0.65406734824E+02  0.30196905955E+03  0.80358942216E+02 0.  0.
         11    1    3    3    0    0 -0.11485929397E+03 -0.28877564831E+03 -0.47675870646E+02  0.31441536398E+03  0.00000000000E+00 0.  1.
        -11    1    3    3    0    0 -0.11725644683E+02 -0.24070164759E+03 -0.51804005639E+02  0.24649224916E+03  0.00000000000E+00 0. -1.
          4    1    6    6  502    0 -0.13955275996E+03 -0.41043991040E+02 -0.74491326152E+02  0.16342747531E+03  0.00000000000E+00 0. -1.
          3    1    5    5  503    0  0.34789248555E+03  0.50083058878E+03 -0.38035560022E+03  0.71870080199E+03  0.00000000000E+00 0. -1.
         -4    1    5    5    0  503  0.49005116712E+02  0.11455815142E+03 -0.11294703143E+03  0.16817283796E+03  0.00000000000E+00 0.  1.
         -3    1    6    6    0  502 -0.13075990365E+03 -0.44867453263E+02  0.90845913280E+01  0.13854158424E+03  0.00000000000E+00 0.  1.
<mgrwt>
<rscale>  0 0.16212381E+04</rscale>
<asrwt>0</asrwt>
<pdfrwt beam="1">  1        1 0.18522612E+00 0.16212381E+04</pdfrwt>
<pdfrwt beam="2">  1       -1 0.83966236E-01 0.16212381E+04</pdfrwt>
<totfact> 0.14295260E+01</totfact>
</mgrwt>
</event>
<event>
12    1  0.1489233E-007  0.1472522E+04  0.7818608E-02  0.8902934E-01
         -1   -1    0    0    0  501 -0.00000000000E+00  0.00000000000E+00  0.35395833300E+03  0.35395833300E+03  0.00000000000E+00 0.  1.
          1   -1    0    0  501    0  0.00000000000E+00 -0.00000000000E+00 -0.15314804127E+04  0.15314804127E+04  0.00000000000E+00 0. -1.
         23    2    1    2    0    0  0.29757785337E+02 -0.44717145025E+03 -0.50766588880E+03  0.68382933376E+03  0.95131862976E+02 0.  0.
        254    2    1    2    0    0 -0.29757785337E+02  0.44717145025E+03 -0.66985619090E+03  0.12016094119E+04  0.89124072544E+03 0.  0.
        -24    2    4    4    0    0 -0.31881616098E+03  0.56662671037E+03 -0.55593231279E+03  0.85911565929E+03  0.79431770882E+02 0.  0.
         24    2    4    4    0    0  0.28905837564E+03 -0.11945526013E+03 -0.11392387812E+03  0.34249375266E+03  0.80616480335E+02 0.  0.
         11    1    3    3    0    0  0.19864128913E+01 -0.27534201152E+02 -0.43638565221E+01  0.27948547601E+02  0.00000000000E+00 0.  1.
        -11    1    3    3    0    0  0.27771372445E+02 -0.41963724909E+03 -0.50330203227E+03  0.65588078615E+03  0.00000000000E+00 0. -1.
          2    1    6    6  502    0  0.18927837215E+03 -0.88154772483E+02 -0.11405303649E+03  0.23791944268E+03  0.00000000000E+00 0. -1.
          1    1    5    5  503    0 -0.15120193997E+03  0.25277723633E+03 -0.30299434791E+03  0.42256825806E+03  0.00000000000E+00 0. -1.
         -2    1    5    5    0  503 -0.16761422101E+03  0.31384947404E+03 -0.25293796488E+03  0.43654740123E+03  0.00000000000E+00 0.  1.
         -1    1    6    6    0  502  0.99780003496E+02 -0.31300487644E+02  0.12915837283E+00  0.10457430997E+03  0.00000000000E+00 0.  1.
<mgrwt>
<rscale>  0 0.14725220E+04</rscale>
<asrwt>0</asrwt>
<pdfrwt beam="1">  1        1 0.23561237E+00 0.14725220E+04</pdfrwt>
<pdfrwt beam="2">  1       -1 0.54455128E-01 0.14725220E+04</pdfrwt>
<totfact> 0.20543914E+01</totfact>
</mgrwt>
</event>
<event>
12    1  0.1489233E-007  0.2621838E+04  0.7818608E-02  0.8360821E-01
          2   -1    0    0  501    0  0.00000000000E+00  0.00000000000E+00  0.21393523621E+04  0.21393523621E+04  0.00000000000E+00 0. -1.
         -2   -1    0    0    0  501 -0.00000000000E+00 -0.00000000000E+00 -0.80328427219E+03  0.80328427219E+03  0.00000000000E+00 0.  1.
         23    2    1    2    0    0 -0.43937586601E+03  0.54814852351E+03  0.16192879217E+04  0.17673959229E+04  0.89872239904E+02 0.  0.
        254    2    1    2    0    0  0.43937586601E+03 -0.54814852351E+03 -0.28321983182E+03  0.11752407113E+04  0.89858739196E+03 0.  0.
        -24    2    4    4    0    0 -0.22643208873E+03 -0.59190217148E+01  0.60816613762E+02  0.24670908231E+03  0.76551846221E+02 0.  0.
         24    2    4    4    0    0  0.66580795474E+03 -0.54222950180E+03 -0.34403644558E+03  0.92853162902E+03  0.80603008570E+02 0.  0.
         13    1    3    3    0    0 -0.25612694060E+03  0.25095305883E+03  0.85380823903E+03  0.92604911127E+03  0.00000000000E+00 0.  1.
        -13    1    3    3    0    0 -0.18324892541E+03  0.29719546468E+03  0.76547968265E+03  0.84134681163E+03  0.00000000000E+00 0. -1.
          2    1    6    6  502    0  0.25897360375E+03 -0.21470625612E+03 -0.92852650683E+02  0.34898097168E+03  0.00000000000E+00 0. -1.
          3    1    5    5  503    0 -0.41200522253E+02  0.13364512287E+02 -0.14710949360E+02  0.45743909470E+02  0.00000000000E+00 0. -1.
         -4    1    5    5    0  503 -0.18523156648E+03 -0.19283534002E+02  0.75527563122E+02  0.20096517284E+03  0.00000000000E+00 0.  1.
         -1    1    6    6    0  502  0.40683435099E+03 -0.32752324567E+03 -0.25118379490E+03  0.57955065734E+03  0.00000000000E+00 0.  1.
<mgrwt>
<rscale>  0 0.26218376E+04</rscale>
<asrwt>0</asrwt>
<pdfrwt beam="1">  1        2 0.32913113E+00 0.26218376E+04</pdfrwt>
<pdfrwt beam="2">  1       -2 0.12358220E+00 0.26218376E+04</pdfrwt>
<totfact> 0.24331074E+00</totfact>
</mgrwt>
</event>
<event>
12    1  0.1489233E-007  0.1215056E+04  0.7818608E-02  0.9099780E-01
          2   -1    0    0  501    0  0.00000000000E+00  0.00000000000E+00  0.14342113030E+04  0.14342113030E+04  0.00000000000E+00 0.  1.
         -2   -1    0    0    0  501 -0.00000000000E+00 -0.00000000000E+00 -0.25734701307E+03  0.25734701307E+03  0.00000000000E+00 0. -1.
         23    2    1    2    0    0 -0.86719280277E+01  0.19266073209E+03  0.37911066793E+03  0.43534527533E+03  0.92775267122E+02 0.  0.
        254    2    1    2    0    0  0.86719280277E+01 -0.19266073209E+03  0.79775362195E+03  0.12562130407E+04  0.95103470086E+03 0.  0.
        -24    2    4    4    0    0 -0.35996897841E+03 -0.36585495019E+03  0.60944271269E+03  0.80078387512E+03  0.80043017222E+02 0.  0.
         24    2    4    4    0    0  0.36864090644E+03  0.17319421810E+03  0.18831090926E+03  0.45542916557E+03  0.77861230545E+02 0.  0.
         13    1    3    3    0    0  0.50853520090E+01  0.14455490643E+03  0.34687765834E+03  0.37582720981E+03  0.00000000000E+00 0.  1.
        -13    1    3    3    0    0 -0.13757280037E+02  0.48105825658E+02  0.32233009594E+02  0.59518065524E+02  0.00000000000E+00 0. -1.
          2    1    6    6  502    0  0.32349760666E+03  0.12981377440E+03  0.17990180260E+03  0.39225881267E+03  0.00000000000E+00 0. -1.
          3    1    5    5  503    0 -0.14981944546E+03 -0.98284018693E+02  0.21524387383E+03  0.28006345672E+03  0.00000000000E+00 0. -1.
         -4    1    5    5    0  503 -0.21014953295E+03 -0.26757093150E+03  0.39419883886E+03  0.52072041840E+03  0.00000000000E+00 0.  1.
         -1    1    6    6    0  502  0.45143299779E+02  0.43380443704E+02  0.84091066600E+01  0.63170352902E+02  0.00000000000E+00 0.  1.
<mgrwt>
<rscale>  0 0.12150555E+04</rscale>
<asrwt>0</asrwt>
<pdfrwt beam="1">  1        2 0.22064789E+00 0.12150555E+04</pdfrwt>
<pdfrwt beam="2">  1       -2 0.39591849E-01 0.12150555E+04</pdfrwt>
<totfact> 0.82241606E+01</totfact>
</mgrwt>
</event>
<event>
12    1  0.1489233E-007  0.1724115E+04  0.7818608E-02  0.8747729E-01
          2   -1    0    0  501    0  0.00000000000E+00  0.00000000000E+00  0.13422368149E+04  0.13422368149E+04  0.00000000000E+00 0. -1.
         -2   -1    0    0    0  501 -0.00000000000E+00 -0.00000000000E+00 -0.55366007928E+03  0.55366007928E+03  0.00000000000E+00 0.  1.
         23    2    1    2    0    0 -0.41131529972E+03 -0.38132940550E+03  0.58780178079E+03  0.81761350896E+03  0.91588892640E+02 0.  0.
        254    2    1    2    0    0  0.41131529972E+03  0.38132940550E+03  0.20077495479E+03  0.10782833852E+04  0.89877254352E+03 0.  0.
        -24    2    4    4    0    0  0.59383972386E+03  0.67041056338E+02  0.32727073967E+03  0.68586597528E+03  0.78523105657E+02 0.  0.
         24    2    4    4    0    0 -0.18252442415E+03  0.31428834917E+03 -0.12649578488E+03  0.39241740989E+03  0.76797839575E+02 0.  0.
         13    1    3    3    0    0 -0.38860938627E+03 -0.37111978730E+03  0.53033116687E+03  0.75498231646E+03  0.00000000000E+00 0. -1.
        -13    1    3    3    0    0 -0.22705913452E+02 -0.10209618205E+02  0.57470613919E+02  0.62631192499E+02  0.00000000000E+00 0.  1.
          4    1    6    6  502    0 -0.14065784587E+03  0.18492126609E+03 -0.54850394072E+02  0.23872383624E+03  0.00000000000E+00 0. -1.
          1    1    5    5  503    0  0.42681379315E+03  0.58962994592E+02  0.27293128338E+03  0.51003738510E+03  0.00000000000E+00 0. -1.
         -2    1    5    5    0  503  0.16702593072E+03  0.80780617460E+01  0.54339456293E+02  0.17582859018E+03  0.00000000000E+00 0.  1.
         -3    1    6    6    0  502 -0.41866578281E+02  0.12936708307E+03 -0.71645390808E+02  0.15369357366E+03  0.00000000000E+00 0.  1.
<mgrwt>
<rscale>  0 0.17241148E+04</rscale>
<asrwt>0</asrwt>
<pdfrwt beam="1">  1        2 0.20649797E+00 0.17241148E+04</pdfrwt>
<pdfrwt beam="2">  1       -2 0.85178474E-01 0.17241148E+04</pdfrwt>
<totfact> 0.17794219E+01</totfact>
</mgrwt>
</event>
<event>
12    1  0.1489233E-007  0.2227247E+04  0.7818608E-02  0.8507172E-01
         -2   -1    0    0    0  501 -0.00000000000E+00  0.00000000000E+00  0.10927343407E+04  0.10927343407E+04  0.00000000000E+00 0.  1.
          2   -1    0    0  501    0  0.00000000000E+00 -0.00000000000E+00 -0.11349119447E+04  0.11349119447E+04  0.00000000000E+00 0. -1.
         23    2    1    2    0    0  0.16650104306E+03 -0.17140839055E+02  0.89607477763E+03  0.91619462011E+03  0.91903041837E+02 0.  0.
        254    2    1    2    0    0 -0.16650104306E+03  0.17140839055E+02 -0.93825238166E+03  0.13114516653E+04  0.90087265089E+03 0.  0.
        -24    2    4    4    0    0 -0.14571237892E+03 -0.78923712171E+01  0.14761579055E+03  0.22215735726E+03  0.79177540185E+02 0.  0.
         24    2    4    4    0    0 -0.20788664141E+02  0.25033210272E+02 -0.10858681722E+04  0.10892943081E+04  0.79959815061E+02 0.  0.
         11    1    3    3    0    0  0.17676579788E+02  0.29991820604E+02  0.15733522821E+03  0.16114076086E+03  0.00000000000E+00 0. -1.
        -11    1    3    3    0    0  0.14882446327E+03 -0.47132659659E+02  0.73873954943E+03  0.75505385925E+03  0.00000000000E+00 0.  1.
          2    1    6    6  502    0 -0.30404591343E+02  0.45246398506E+02 -0.95267374112E+03  0.95423211682E+03  0.00000000000E+00 0. -1.
          3    1    5    5  503    0 -0.13735834933E+03 -0.76362903331E+00  0.15635519330E+03  0.20812218943E+03  0.00000000000E+00 0. -1.
         -4    1    5    5    0  503 -0.83540295829E+01 -0.71287421838E+01 -0.87394027516E+01  0.14035167824E+02  0.00000000000E+00 0.  1.
         -1    1    6    6    0  502  0.96159272022E+01 -0.20213188234E+02 -0.13319443109E+03  0.13506219126E+03  0.00000000000E+00 0.  1.
<mgrwt>
<rscale>  0 0.22272470E+04</rscale>
<asrwt>0</asrwt>
<pdfrwt beam="1">  1        2 0.17460184E+00 0.22272470E+04</pdfrwt>
<pdfrwt beam="2">  1       -2 0.16811298E+00 0.22272470E+04</pdfrwt>
<totfact> 0.41577406E+00</totfact>
</mgrwt>
</event>
<event>
12    1  0.1489233E-007  0.2789033E+04  0.7818608E-02  0.8306681E-01
          2   -1    0    0  501    0  0.00000000000E+00  0.00000000000E+00  0.26023634731E+04  0.26023634731E+04  0.00000000000E+00 0. -1.
         -2   -1    0    0    0  501 -0.00000000000E+00 -0.00000000000E+00 -0.74727294370E+03  0.74727294370E+03  0.00000000000E+00 0.  1.
         23    2    1    2    0    0 -0.10009858234E+04 -0.70140484125E+03  0.11227869668E+04  0.16627171299E+04  0.10018139300E+03 0.  0.
        254    2    1    2    0    0  0.10009858234E+04  0.70140484125E+03  0.73230356264E+03  0.16869192869E+04  0.90304307911E+03 0.  0.
        -24    2    4    4    0    0  0.19346154101E+02 -0.10021834724E+03 -0.10381629397E+03  0.16639280252E+03  0.80565197416E+02 0.  0.
         24    2    4    4    0    0  0.98163966925E+03  0.80162318848E+03  0.83611985662E+03  0.15205264844E+04  0.81781406544E+02 0.  0.
         11    1    3    3    0    0 -0.86971263768E+03 -0.57668087021E+03  0.92399590630E+03  0.13938182568E+04  0.00000000000E+00 0. -1.
        -11    1    3    3    0    0 -0.13127318567E+03 -0.12472397104E+03  0.19879106046E+03  0.26889887308E+03  0.00000000000E+00 0.  1.
          4    1    6    6  502    0  0.52421941051E+03  0.41309216756E+03  0.48702860186E+03  0.82622514382E+03  0.00000000000E+00 0. -1.
          1    1    5    5  503    0  0.90631183319E+00 -0.85945823952E+02 -0.11244251044E+03  0.14153029432E+03  0.00000000000E+00 0. -1.
         -2    1    5    5    0  503  0.18439842268E+02 -0.14272523284E+02  0.86262164620E+01  0.24862508204E+02  0.00000000000E+00 0.  1.
         -3    1    6    6    0  502  0.45742025875E+03  0.38853102093E+03  0.34909125475E+03  0.69430134054E+03  0.00000000000E+00 0.  1.
<mgrwt>
<rscale>  0 0.27890327E+04</rscale>
<asrwt>0</asrwt>
<pdfrwt beam="1">  1        2 0.40036361E+00 0.27890327E+04</pdfrwt>
<pdfrwt beam="2">  1       -2 0.11496507E+00 0.27890327E+04</pdfrwt>
<totfact> 0.15585620E+00</totfact>
</mgrwt>
</event>
<event>
12    1  0.1489233E-007  0.2062288E+04  0.7818608E-02  0.8578040E-01
         -1   -1    0    0    0  501 -0.00000000000E+00  0.00000000000E+00  0.74918010696E+03  0.74918010696E+03  0.00000000000E+00 0.  1.
          1   -1    0    0  501    0  0.00000000000E+00 -0.00000000000E+00 -0.14192292105E+04  0.14192292105E+04  0.00000000000E+00 0. -1.
         23    2    1    2    0    0 -0.63124048064E+03 -0.18427095049E+03 -0.80908199218E+03  0.10463748511E+04  0.88692340516E+02 0.  0.
        254    2    1    2    0    0  0.63124048064E+03  0.18427095049E+03  0.13903288860E+03  0.11220344664E+04  0.89844914834E+03 0.  0.
        -24    2    4    4    0    0  0.76234946055E+03 -0.49023644277E+02  0.27057113456E+03  0.81418504741E+03  0.78157116615E+02 0.  0.
         24    2    4    4    0    0 -0.13110897990E+03  0.23329459477E+03 -0.13153824595E+03  0.30784941903E+03  0.76505046154E+02 0.  0.
         11    1    3    3    0    0 -0.48004319431E+03 -0.16164553198E+03 -0.66813364633E+03  0.83843503968E+03  0.00000000000E+00 0. -1.
        -11    1    3    3    0    0 -0.15119728634E+03 -0.22625418507E+02 -0.14094834585E+03  0.20793981138E+03  0.00000000000E+00 0.  1.
          4    1    6    6  502    0 -0.23375349390E+02  0.58987790731E+02  0.16207449569E+01  0.63471199993E+02  0.00000000000E+00 0. -1.
          1    1    5    5  503    0  0.14046610280E+03 -0.20757198840E+02  0.21177291589E+02  0.14356205982E+03  0.00000000000E+00 0. -1.
         -2    1    5    5    0  503  0.62188335775E+03 -0.28266445437E+02  0.24939384297E+03  0.67062298759E+03  0.00000000000E+00 0.  1.
         -3    1    6    6    0  502 -0.10773363051E+03  0.17430680404E+03 -0.13315899091E+03  0.24437821903E+03  0.00000000000E+00 0.  1.
<mgrwt>
<rscale>  0 0.20622883E+04</rscale>
<asrwt>0</asrwt>
<pdfrwt beam="1">  1        1 0.21834295E+00 0.20622883E+04</pdfrwt>
<pdfrwt beam="2">  1       -1 0.11525848E+00 0.20622883E+04</pdfrwt>
<totfact> 0.46915350E+00</totfact>
</mgrwt>
</event>
<event>
12    1  0.1489233E-007  0.3260256E+04  0.7818608E-02  0.8173082E-01
         -2   -1    0    0    0  501 -0.00000000000E+00  0.00000000000E+00  0.90315114591E+03  0.90315114591E+03  0.00000000000E+00 0.  1.
          2   -1    0    0  501    0  0.00000000000E+00 -0.00000000000E+00 -0.29422736298E+04  0.29422736298E+04  0.00000000000E+00 0. -1.
         23    2    1    2    0    0 -0.21123193012E+02 -0.92664604440E+03 -0.23389788248E+04  0.25176244572E+04  0.92151419349E+02 0.  0.
        254    2    1    2    0    0  0.21123193012E+02  0.92664604440E+03  0.29985634092E+03  0.13278003184E+04  0.90223100120E+03 0.  0.
        -24    2    4    4    0    0 -0.22159324316E+03 -0.81578350011E+02  0.17574444085E+02  0.25005952582E+03  0.80388511386E+02 0.  0.
         24    2    4    4    0    0  0.24271643617E+03  0.10082243944E+04  0.28228189684E+03  0.10777407926E+04  0.80090254640E+02 0.  0.
         11    1    3    3    0    0  0.23845014369E+02 -0.65963536069E+03 -0.16996400565E+04  0.18233111954E+04  0.00000000000E+00 0. -1.
        -11    1    3    3    0    0 -0.44968207381E+02 -0.26701068371E+03 -0.63933876832E+03  0.69431326184E+03  0.00000000000E+00 0.  1.
          4    1    6    6  502    0  0.24436779461E+03  0.10090161545E+04  0.28112450439E+03  0.10755743610E+04  0.00000000000E+00 0. -1.
          3    1    5    5  503    0 -0.20148741265E+03 -0.45949093490E+02  0.26002220032E+02  0.20828973113E+03  0.00000000000E+00 0. -1.
         -4    1    5    5    0  503 -0.20105830513E+02 -0.35629256521E+02 -0.84277759472E+01  0.41769794688E+02  0.00000000000E+00 0.  1.
         -3    1    6    6    0  502 -0.16513584326E+01 -0.79176006796E+00  0.11573924534E+01  0.21664316212E+01  0.00000000000E+00 0.  1.
<mgrwt>
<rscale>  0 0.32602563E+04</rscale>
<asrwt>0</asrwt>
<pdfrwt beam="1">  1        2 0.45265749E+00 0.32602563E+04</pdfrwt>
<pdfrwt beam="2">  1       -2 0.13894633E+00 0.32602563E+04</pdfrwt>
<totfact> 0.58020900E-01</totfact>
</mgrwt>
</event>
<event>
12    1  0.1489233E-007  0.1466329E+04  0.7818608E-02  0.8907158E-01
          1   -1    0    0  501    0  0.00000000000E+00  0.00000000000E+00  0.21456008166E+04  0.21456008166E+04  0.00000000000E+00 0. -1.
         -1   -1    0    0    0  501 -0.00000000000E+00 -0.00000000000E+00 -0.25052660524E+03  0.25052660524E+03  0.00000000000E+00 0.  1.
         23    2    1    2    0    0 -0.16417688032E+03 -0.15507448453E+03 -0.42067511820E+02  0.24733504751E+03  0.91666822729E+02 0.  0.
        254    2    1    2    0    0  0.16417688032E+03  0.15507448453E+03  0.19371417231E+04  0.21487923743E+04  0.90210224949E+03 0.  0.
        -24    2    4    4    0    0 -0.23598498827E+02 -0.30737466556E+03  0.12840698340E+04  0.13229785336E+04  0.80004923361E+02 0.  0.
         24    2    4    4    0    0  0.18777537915E+03  0.46244915009E+03  0.65307188916E+03  0.82581384066E+03  0.79666790988E+02 0.  0.
         13    1    3    3    0    0 -0.27190334439E+02 -0.25837683365E+02 -0.45510542493E+02  0.58975500392E+02  0.00000000000E+00 0.  1.
        -13    1    3    3    0    0 -0.13698654588E+03 -0.12923680117E+03  0.34430306729E+01  0.18835954711E+03  0.00000000000E+00 0. -1.
          4    1    6    6  502    0  0.12184469995E+03  0.27356018764E+03  0.32831309870E+03  0.44437686477E+03  0.00000000000E+00 0. -1.
          3    1    5    5  503    0 -0.43473670146E+02 -0.28120875119E+03  0.11142717337E+04  0.11500303554E+04  0.00000000000E+00 0. -1.
         -4    1    5    5    0  503  0.19875171319E+02 -0.26165914365E+02  0.16979810023E+03  0.17294817822E+03  0.00000000000E+00 0.  1.
         -3    1    6    6    0  502  0.65930679203E+02  0.18888896245E+03  0.32475879046E+03  0.38143697589E+03  0.00000000000E+00 0.  1.
<mgrwt>
<rscale>  0 0.14663289E+04</rscale>
<asrwt>0</asrwt>
<pdfrwt beam="1">  1        1 0.33009242E+00 0.14663289E+04</pdfrwt>
<pdfrwt beam="2">  1       -1 0.38542556E-01 0.14663289E+04</pdfrwt>
<totfact> 0.15019856E+01</totfact>
</mgrwt>
</event>
<event>
12    1  0.1489233E-007  0.2043801E+04  0.7818608E-02  0.8586412E-01
         -1   -1    0    0    0  501 -0.00000000000E+00  0.00000000000E+00  0.51759348639E+03  0.51759348639E+03  0.00000000000E+00 0.  1.
          1   -1    0    0  501    0  0.00000000000E+00 -0.00000000000E+00 -0.20175697650E+04  0.20175697650E+04  0.00000000000E+00 0. -1.
         23    2    1    2    0    0  0.37912085162E+03 -0.58860968805E+03 -0.22542708655E+03  0.74197566455E+03  0.97552705923E+02 0.  0.
        254    2    1    2    0    0 -0.37912085162E+03  0.58860968805E+03 -0.12745491920E+04  0.17931875868E+04  0.10492149892E+04 0.  0.
        -24    2    4    4    0    0  0.11561879912E+03  0.74201650363E+02 -0.10185351393E+04  0.10305906605E+04  0.76352392944E+02 0.  0.
         24    2    4    4    0    0 -0.49473965075E+03  0.51440803768E+03 -0.25601405272E+03  0.76259692630E+03  0.81412072584E+02 0.  0.
         13    1    3    3    0    0  0.45500284526E+02 -0.14252782481E+03 -0.39722000184E+02  0.15479759053E+03  0.00000000000E+00 0. -1.
        -13    1    3    3    0    0  0.33362056710E+03 -0.44608186324E+03 -0.18570508637E+03  0.58717807401E+03  0.00000000000E+00 0.  1.
          2    1    6    6  502    0 -0.15433858384E+03  0.18566062930E+03 -0.12336701852E+03  0.27112670284E+03  0.00000000000E+00 0. -1.
          3    1    5    5  503    0  0.31016626588E+02  0.25391471460E+02 -0.57656129727E+03  0.57795301492E+03  0.00000000000E+00 0. -1.
         -4    1    5    5    0  503  0.84602172536E+02  0.48810178903E+02 -0.44197384205E+03  0.45263764561E+03  0.00000000000E+00 0.  1.
         -1    1    6    6    0  502 -0.34040106691E+03  0.32874740838E+03 -0.13264703420E+03  0.49147022346E+03  0.00000000000E+00 0.  1.
<mgrwt>
<rscale>  0 0.20438013E+04</rscale>
<asrwt>0</asrwt>
<pdfrwt beam="1">  1        1 0.31039535E+00 0.20438013E+04</pdfrwt>
<pdfrwt beam="2">  1       -1 0.79629766E-01 0.20438013E+04</pdfrwt>
<totfact> 0.42206927E+00</totfact>
</mgrwt>
</event>
<event>
12    1  0.1489233E-007  0.2749192E+04  0.7818608E-02  0.8319218E-01
          2   -1    0    0  501    0  0.00000000000E+00  0.00000000000E+00  0.12394651041E+04  0.12394651041E+04  0.00000000000E+00 0. -1.
         -2   -1    0    0    0  501 -0.00000000000E+00 -0.00000000000E+00 -0.15244594619E+04  0.15244594619E+04  0.00000000000E+00 0.  1.
         23    2    1    2    0    0 -0.38677802182E+03 -0.52722845026E+03  0.91399833557E+03  0.11274325789E+04  0.90245142082E+02 0.  0.
        254    2    1    2    0    0  0.38677802182E+03  0.52722845026E+03 -0.11989926934E+04  0.16364919870E+04  0.90164043159E+03 0.  0.
        -24    2    4    4    0    0  0.43252028972E+03  0.73015193380E+03 -0.11016399053E+04  0.13928496559E+04  0.78892556827E+02 0.  0.
         24    2    4    4    0    0 -0.45742267900E+02 -0.20292348355E+03 -0.97352788036E+02  0.24364233109E+03  0.81324811167E+02 0.  0.
         11    1    3    3    0    0 -0.38364455878E+03 -0.53013996896E+03  0.91251615845E+03  0.11229057278E+04  0.00000000000E+00 0. -1.
        -11    1    3    3    0    0 -0.31334630460E+01  0.29115186996E+01  0.14821771195E+01  0.45268510924E+01  0.00000000000E+00 0.  1.
          2    1    6    6  502    0 -0.59172476900E+02 -0.18645534691E+03 -0.10377716828E+03  0.22144227029E+03  0.00000000000E+00 0. -1.
          1    1    5    5  503    0  0.35985704145E+03  0.62912788899E+03 -0.89536837894E+03  0.11519477093E+04  0.00000000000E+00 0. -1.
         -2    1    5    5    0  503  0.72663248275E+02  0.10102404481E+03 -0.20627152638E+03  0.24090194660E+03  0.00000000000E+00 0.  1.
         -1    1    6    6    0  502  0.13430209001E+02 -0.16468136637E+02  0.64243802399E+01  0.22200060801E+02  0.00000000000E+00 0.  1.
<mgrwt>
<rscale>  0 0.27491921E+04</rscale>
<asrwt>0</asrwt>
<pdfrwt beam="1">  1        2 0.19068694E+00 0.27491921E+04</pdfrwt>
<pdfrwt beam="2">  1       -2 0.23453222E+00 0.27491921E+04</pdfrwt>
<totfact> 0.12558771E+00</totfact>
</mgrwt>
</event>
<event>
12    1  0.1489233E-007  0.1617145E+04  0.7818608E-02  0.8810084E-01
          2   -1    0    0  501    0  0.00000000000E+00  0.00000000000E+00  0.16539189525E+04  0.16539189525E+04  0.00000000000E+00 0.  1.
         -2   -1    0    0    0  501 -0.00000000000E+00 -0.00000000000E+00 -0.39529701406E+03  0.39529701406E+03  0.00000000000E+00 0. -1.
         23    2    1    2    0    0 -0.42122326523E+03  0.35047264817E+03  0.36066524591E+03  0.66237473827E+03  0.91655649051E+02 0.  0.
        254    2    1    2    0    0  0.42122326523E+03 -0.35047264817E+03  0.89795669249E+03  0.13868412283E+04  0.90373793465E+03 0.  0.
        -24    2    4    4    0    0  0.23121693574E+03  0.29112575534E+03  0.26887495643E+03  0.46577607610E+03  0.80237983994E+02 0.  0.
         24    2    4    4    0    0  0.19000632949E+03 -0.64159840351E+03  0.62908173606E+03  0.92106515216E+03  0.69758635672E+02 0.  0.
         13    1    3    3    0    0 -0.35105851984E+03  0.33119971077E+03  0.30771475105E+03  0.57238422478E+03  0.00000000000E+00 0.  1.
        -13    1    3    3    0    0 -0.70164745388E+02  0.19272937401E+02  0.52950494863E+02  0.89990513487E+02  0.00000000000E+00 0. -1.
          2    1    6    6  502    0  0.14384160702E+02 -0.10174072132E+03  0.12546818927E+03  0.16217381099E+03  0.00000000000E+00 0. -1.
          3    1    5    5  503    0  0.24754220993E+02  0.76709382454E+02  0.38209836139E+02  0.89202535789E+02  0.00000000000E+00 0. -1.
         -4    1    5    5    0  503  0.20646271475E+03  0.21441637289E+03  0.23066512029E+03  0.37657354031E+03  0.00000000000E+00 0.  1.
         -1    1    6    6    0  502  0.17562216879E+03 -0.53985768219E+03  0.50361354679E+03  0.75889134116E+03  0.00000000000E+00 0.  1.
<mgrwt>
<rscale>  0 0.16171447E+04</rscale>
<asrwt>0</asrwt>
<pdfrwt beam="1">  1        2 0.25444907E+00 0.16171447E+04</pdfrwt>
<pdfrwt beam="2">  1       -2 0.60814926E-01 0.16171447E+04</pdfrwt>
<totfact> 0.25075353E+01</totfact>
</mgrwt>
</event>
<event>
12    1  0.1489233E-007  0.1677180E+04  0.7818608E-02  0.8774488E-01
          2   -1    0    0  501    0  0.00000000000E+00  0.00000000000E+00  0.22128635143E+04  0.22128635143E+04  0.00000000000E+00 0.  1.
         -2   -1    0    0    0  501 -0.00000000000E+00 -0.00000000000E+00 -0.31779318172E+03  0.31779318172E+03  0.00000000000E+00 0. -1.
         23    2    1    2    0    0 -0.46035473082E+03 -0.36638794677E+03  0.55160613170E+03  0.81159718918E+03  0.90851897268E+02 0.  0.
        254    2    1    2    0    0  0.46035473082E+03  0.36638794677E+03  0.13434642009E+04  0.17190595068E+04  0.89671786157E+03 0.  0.
        -24    2    4    4    0    0 -0.58365687291E+02  0.46958057825E+02  0.10176125112E+04  0.10233977322E+04  0.78715200249E+02 0.  0.
         24    2    4    4    0    0  0.51872041811E+03  0.31942988894E+03  0.32585168968E+03  0.69566177459E+03  0.81606708338E+02 0.  0.
         11    1    3    3    0    0 -0.43751318020E+03 -0.36860814295E+03  0.53498120399E+03  0.78325898305E+03  0.00000000000E+00 0.  1.
        -11    1    3    3    0    0 -0.22841550617E+02  0.22201961833E+01  0.16624927707E+02  0.28338206135E+02  0.00000000000E+00 0. -1.
          4    1    6    6  502    0  0.51452971135E+03  0.30183022665E+03  0.31691885166E+03  0.67548491332E+03  0.00000000000E+00 0. -1.
          3    1    5    5  503    0  0.32609368068E+01 -0.18346514672E+02  0.20190437523E+03  0.20276243500E+03  0.00000000000E+00 0. -1.
         -4    1    5    5    0  503 -0.61626624097E+02  0.65304572498E+02  0.81570813597E+03  0.82063529724E+03  0.00000000000E+00 0.  1.
         -3    1    6    6    0  502  0.41907067635E+01  0.17599662287E+02  0.89328380238E+01  0.20176861276E+02  0.00000000000E+00 0.  1.
<mgrwt>
<rscale>  0 0.16771797E+04</rscale>
<asrwt>0</asrwt>
<pdfrwt beam="1">  1        2 0.34044053E+00 0.16771797E+04</pdfrwt>
<pdfrwt beam="2">  1       -2 0.48891260E-01 0.16771797E+04</pdfrwt>
<totfact> 0.19188003E+01</totfact>
</mgrwt>
</event>
<event>
12    1  0.1489233E-007  0.2094413E+04  0.7818608E-02  0.8563708E-01
         -2   -1    0    0    0  501 -0.00000000000E+00  0.00000000000E+00  0.74268140673E+03  0.74268140673E+03  0.00000000000E+00 0.  1.
          2   -1    0    0  501    0  0.00000000000E+00 -0.00000000000E+00 -0.14765980819E+04  0.14765980819E+04  0.00000000000E+00 0. -1.
         23    2    1    2    0    0  0.85362587374E+03  0.46289678128E+02 -0.17044048046E+03  0.87651363437E+03  0.91686025301E+02 0.  0.
        254    2    1    2    0    0 -0.85362587374E+03 -0.46289678128E+02 -0.56347619467E+03  0.13427658542E+04  0.86873174840E+03 0.  0.
        -24    2    4    4    0    0 -0.47804175611E+03  0.35846287531E+03 -0.49624733743E+03  0.78074189969E+03  0.79227144810E+02 0.  0.
         24    2    4    4    0    0 -0.37558411763E+03 -0.40475255343E+03 -0.67228857234E+02  0.56202395453E+03  0.80393701785E+02 0.  0.
         13    1    3    3    0    0  0.49074103651E+03  0.54726552749E+02 -0.61886407046E+02  0.49764614724E+03  0.00000000000E+00 0.  1.
        -13    1    3    3    0    0  0.36288483723E+03 -0.84368746212E+01 -0.10855407341E+03  0.37886748713E+03  0.00000000000E+00 0. -1.
          4    1    6    6  502    0 -0.29356097849E+03 -0.35805494168E+03 -0.65500627835E+02  0.46762348273E+03  0.00000000000E+00 0. -1.
          1    1    5    5  503    0 -0.46488280682E+03  0.35638946537E+03 -0.46893084580E+03  0.75035032702E+03  0.00000000000E+00 0. -1.
         -2    1    5    5    0  503 -0.13158949281E+02  0.20734099392E+01 -0.27316491629E+02  0.30391572678E+02  0.00000000000E+00 0.  1.
         -3    1    6    6    0  502 -0.82023139142E+02 -0.46697611751E+02 -0.17282293988E+01  0.94400471794E+02  0.00000000000E+00 0.  1.
<mgrwt>
<rscale>  0 0.20944135E+04</rscale>
<asrwt>0</asrwt>
<pdfrwt beam="1">  1        2 0.22716893E+00 0.20944135E+04</pdfrwt>
<pdfrwt beam="2">  1       -2 0.11425868E+00 0.20944135E+04</pdfrwt>
<totfact> 0.72289897E+00</totfact>
</mgrwt>
</event>
<event>
12    1  0.1489233E-007  0.1328060E+04  0.7818608E-02  0.9007604E-01
          2   -1    0    0  501    0  0.00000000000E+00  0.00000000000E+00  0.10399264009E+04  0.10399264009E+04  0.00000000000E+00 0.  1.
         -2   -1    0    0    0  501 -0.00000000000E+00 -0.00000000000E+00 -0.42400706292E+03  0.42400706292E+03  0.00000000000E+00 0. -1.
         23    2    1    2    0    0 -0.24358557928E+03 -0.11712535731E+03 -0.80660337997E+02  0.29696157699E+03  0.92885974871E+02 0.  0.
        254    2    1    2    0    0  0.24358557928E+03  0.11712535731E+03  0.69657967597E+03  0.11669718868E+04  0.89640830870E+03 0.  0.
        -24    2    4    4    0    0  0.42974267423E+03 -0.11645065248E+03  0.72904417102E+03  0.85799730160E+03  0.80090234965E+02 0.  0.
         24    2    4    4    0    0 -0.18615709495E+03  0.23357600978E+03 -0.32464495047E+02  0.30897458523E+03  0.72105024319E+02 0.  0.
         13    1    3    3    0    0 -0.16193940647E+03 -0.80521681107E+02 -0.98182632689E+02  0.20578615566E+03  0.00000000000E+00 0. -1.
        -13    1    3    3    0    0 -0.81646172801E+02 -0.36603676201E+02  0.17522294692E+02  0.91175421336E+02  0.00000000000E+00 0.  1.
          2    1    6    6  502    0  0.49577199229E+01  0.19367685971E+02 -0.48916787160E+01  0.20581903881E+02  0.00000000000E+00 0. -1.
          1    1    5    5  503    0  0.17973807088E+03 -0.13442853740E+02  0.32913188741E+03  0.37525229347E+03  0.00000000000E+00 0. -1.
         -2    1    5    5    0  503  0.25000460335E+03 -0.10300779874E+03  0.39991228360E+03  0.48274500813E+03  0.00000000000E+00 0.  1.
         -1    1    6    6    0  502 -0.19111481487E+03  0.21420832381E+03 -0.27572816331E+02  0.28839268135E+03  0.00000000000E+00 0.  1.
<mgrwt>
<rscale>  0 0.13280604E+04</rscale>
<asrwt>0</asrwt>
<pdfrwt beam="1">  1        2 0.15998868E+00 0.13280604E+04</pdfrwt>
<pdfrwt beam="2">  1       -2 0.65231856E-01 0.13280604E+04</pdfrwt>
<totfact> 0.50352024E+01</totfact>
</mgrwt>
</event>
<event>
12    1  0.1489233E-007  0.1432610E+04  0.7818608E-02  0.8930546E-01
          2   -1    0    0  501    0  0.00000000000E+00  0.00000000000E+00  0.41976151260E+04  0.41976151260E+04  0.00000000000E+00 0. -1.
         -2   -1    0    0    0  501 -0.00000000000E+00 -0.00000000000E+00 -0.12223437592E+03  0.12223437592E+03  0.00000000000E+00 0.  1.
         23    2    1    2    0    0  0.26023558169E+03 -0.33677410617E+03  0.13282399129E+04  0.13978504061E+04  0.92871604507E+02 0.  0.
        254    2    1    2    0    0 -0.26023558169E+03  0.33677410617E+03  0.27471408371E+04  0.29219990958E+04  0.90008698490E+03 0.  0.
        -24    2    4    4    0    0 -0.39490459332E+03  0.46370347953E+03  0.25990320062E+04  0.26706190791E+04  0.79172858368E+02 0.  0.
         24    2    4    4    0    0  0.13466901163E+03 -0.12692937335E+03  0.14810883092E+03  0.25138001674E+03  0.83719045061E+02 0.  0.
         11    1    3    3    0    0  0.60385458683E+02 -0.51805445882E+02  0.36725543373E+03  0.37577488135E+03  0.00000000000E+00 0. -1.
        -11    1    3    3    0    0  0.19985012301E+03 -0.28496866029E+03  0.96098447921E+03  0.10220755247E+04  0.00000000000E+00 0.  1.
          4    1    6    6  502    0  0.19846591590E+02 -0.19346386216E+02 -0.88866472257E+01  0.29105710029E+02  0.00000000000E+00 0. -1.
          1    1    5    5  503    0 -0.37355417255E+02  0.50931833711E+02  0.39035582966E+03  0.39543286742E+03  0.00000000000E+00 0. -1.
         -2    1    5    5    0  503 -0.35754917607E+03  0.41277164581E+03  0.22086761765E+04  0.22751862117E+04  0.00000000000E+00 0.  1.
         -3    1    6    6    0  502  0.11482242004E+03 -0.10758298714E+03  0.15699547815E+03  0.22227430671E+03  0.00000000000E+00 0.  1.
<mgrwt>
<rscale>  0 0.14326100E+04</rscale>
<asrwt>0</asrwt>
<pdfrwt beam="1">  1        2 0.64578683E+00 0.14326100E+04</pdfrwt>
<pdfrwt beam="2">  1       -2 0.18805292E-01 0.14326100E+04</pdfrwt>
<totfact> 0.55748286E+00</totfact>
</mgrwt>
</event>
<event>
12    1  0.1489233E-007  0.2670099E+04  0.7818608E-02  0.8344772E-01
         -1   -1    0    0    0  501 -0.00000000000E+00  0.00000000000E+00  0.13298307718E+04  0.13298307718E+04  0.00000000000E+00 0.  1.
          1   -1    0    0  501    0  0.00000000000E+00 -0.00000000000E+00 -0.13402892095E+04  0.13402892095E+04  0.00000000000E+00 0. -1.
         23    2    1    2    0    0  0.10672125624E+04  0.26386911672E+03 -0.43170199701E+03  0.11846173308E+04  0.91553493342E+02 0.  0.
        254    2    1    2    0    0 -0.10672125624E+04 -0.26386911672E+03  0.42124355931E+03  0.14855026506E+04  0.90592627983E+03 0.  0.
        -24    2    4    4    0    0 -0.19975375284E+03 -0.46006472289E+03  0.24481497278E+02  0.50821403076E+03  0.78237116071E+02 0.  0.
         24    2    4    4    0    0 -0.86745880955E+03  0.19619560617E+03  0.39676206204E+03  0.97728861981E+03  0.81825487341E+02 0.  0.
         11    1    3    3    0    0  0.91357147708E+03  0.25131297988E+03 -0.34946077374E+03  0.10098979602E+04  0.00000000000E+00 0. -1.
        -11    1    3    3    0    0  0.15364108532E+03  0.12556136838E+02 -0.82241223271E+02  0.17471937063E+03  0.00000000000E+00 0.  1.
          2    1    6    6  502    0 -0.18094964165E+03  0.21079295452E+02  0.52514358208E+02  0.18959131660E+03  0.00000000000E+00 0. -1.
          1    1    5    5  503    0 -0.61032051812E+02 -0.76526763162E+02  0.22123835074E+02  0.10035298155E+03  0.00000000000E+00 0. -1.
         -2    1    5    5    0  503 -0.13872170103E+03 -0.38353795973E+03  0.23576622041E+01  0.40786104921E+03  0.00000000000E+00 0.  1.
         -1    1    6    6    0  502 -0.68650916790E+03  0.17511631072E+03  0.34424770383E+03  0.78769730321E+03  0.00000000000E+00 0.  1.
<mgrwt>
<rscale>  0 0.26700995E+04</rscale>
<asrwt>0</asrwt>
<pdfrwt beam="1">  1        1 0.20619834E+00 0.26700995E+04</pdfrwt>
<pdfrwt beam="2">  1       -1 0.20458935E+00 0.26700995E+04</pdfrwt>
<totfact> 0.10373648E+00</totfact>
</mgrwt>
</event>
<event>
12    1  0.1489233E-007  0.2387895E+04  0.7818608E-02  0.8444049E-01
         -1   -1    0    0    0  501 -0.00000000000E+00  0.00000000000E+00  0.96141395988E+03  0.96141395988E+03  0.00000000000E+00 0.  1.
          1   -1    0    0  501    0  0.00000000000E+00 -0.00000000000E+00 -0.14827232197E+04  0.14827232197E+04  0.00000000000E+00 0. -1.
         23    2    1    2    0    0 -0.93869773348E+03 -0.14408707517E+03  0.16420831144E+03  0.96828716504E+03  0.93279924708E+02 0.  0.
        254    2    1    2    0    0  0.93869773348E+03  0.14408707517E+03 -0.68551757130E+03  0.14758500146E+04  0.89793340783E+03 0.  0.
        -24    2    4    4    0    0 -0.12580626829E+03  0.13053878651E+03  0.15311111572E+02  0.19880402601E+03  0.80131259175E+02 0.  0.
         24    2    4    4    0    0  0.10645040018E+04  0.13548288662E+02 -0.70082868287E+03  0.12770459886E+04  0.79581959417E+02 0.  0.
         11    1    3    3    0    0 -0.43550432330E+03 -0.83375107061E+02  0.32453704936E+02  0.44459944563E+03  0.00000000000E+00 0. -1.
        -11    1    3    3    0    0 -0.50319341019E+03 -0.60711968110E+02  0.13175460651E+03  0.52368771941E+03  0.00000000000E+00 0.  1.
          2    1    6    6  502    0  0.67186912320E+03 -0.18408672083E+02 -0.47433137849E+03  0.82264041630E+03  0.00000000000E+00 0. -1.
          1    1    5    5  503    0 -0.53088760456E+02  0.58414259281E+02  0.46660069811E+02  0.91694079901E+02  0.00000000000E+00 0. -1.
         -2    1    5    5    0  503 -0.72717507833E+02  0.72124527227E+02 -0.31348958239E+02  0.10710994611E+03  0.00000000000E+00 0.  1.
         -1    1    6    6    0  502  0.39263487857E+03  0.31956960745E+02 -0.22649730439E+03  0.45440557226E+03  0.00000000000E+00 0.  1.
<mgrwt>
<rscale>  0 0.23878951E+04</rscale>
<asrwt>0</asrwt>
<pdfrwt beam="1">  1        1 0.22811126E+00 0.23878951E+04</pdfrwt>
<pdfrwt beam="2">  1       -1 0.14790984E+00 0.23878951E+04</pdfrwt>
<totfact> 0.21859062E+00</totfact>
</mgrwt>
</event>
<event>
12    1  0.1489233E-007  0.1100944E+04  0.7818608E-02  0.9204272E-01
          2   -1    0    0  501    0  0.00000000000E+00  0.00000000000E+00  0.27453405319E+04  0.27453405319E+04  0.00000000000E+00 0.  1.
         -2   -1    0    0    0  501 -0.00000000000E+00 -0.00000000000E+00 -0.11037585059E+03  0.11037585059E+03  0.00000000000E+00 0. -1.
         23    2    1    2    0    0  0.37426611409E+02 -0.15627545528E+03  0.35359216662E+03  0.39901893413E+03  0.91465405099E+02 0.  0.
        254    2    1    2    0    0 -0.37426611409E+02  0.15627545528E+03  0.22813725147E+04  0.24566974484E+04  0.89715050737E+03 0.  0.
        -24    2    4    4    0    0  0.29820992537E+03 -0.22916619384E+02  0.27650274920E+03  0.41459779935E+03  0.77351366395E+02 0.  0.
         24    2    4    4    0    0 -0.33563653678E+03  0.17919207467E+03  0.20048697655E+04  0.20420996490E+04  0.76853857852E+02 0.  0.
         13    1    3    3    0    0 -0.22471860499E+02 -0.10075158239E+03  0.19756733413E+03  0.22290966193E+03  0.00000000000E+00 0.  1.
        -13    1    3    3    0    0  0.59898471909E+02 -0.55523872892E+02  0.15602483250E+03  0.17610927220E+03  0.00000000000E+00 0. -1.
          4    1    6    6  502    0 -0.88770054359E+02  0.22718322008E+02  0.36094266934E+03  0.37239207195E+03  0.00000000000E+00 0. -1.
          3    1    5    5  503    0  0.32841006926E+01  0.58926812567E+01  0.25103550679E+02  0.25994177549E+02  0.00000000000E+00 0. -1.
         -4    1    5    5    0  503  0.29492582468E+03 -0.28809300641E+02  0.25139919852E+03  0.38860362181E+03  0.00000000000E+00 0.  1.
         -3    1    6    6    0  502 -0.24686648242E+03  0.15647375266E+03  0.16439270962E+04  0.16697075771E+04  0.00000000000E+00 0.  1.
<mgrwt>
<rscale>  0 0.11009438E+04</rscale>
<asrwt>0</asrwt>
<pdfrwt beam="1">  1        2 0.42236003E+00 0.11009438E+04</pdfrwt>
<pdfrwt beam="2">  1       -2 0.16980902E-01 0.11009438E+04</pdfrwt>
<totfact> 0.71312908E+01</totfact>
</mgrwt>
</event>
<event>
12    1  0.1489233E-007  0.1647346E+04  0.7818608E-02  0.8791978E-01
          1   -1    0    0  501    0  0.00000000000E+00  0.00000000000E+00  0.44060907405E+03  0.44060907405E+03  0.00000000000E+00 0. -1.
         -1   -1    0    0    0  501 -0.00000000000E+00 -0.00000000000E+00 -0.15397714878E+04  0.15397714878E+04  0.00000000000E+00 0.  1.
         23    2    1    2    0    0 -0.41507367270E+02 -0.51420957390E+03 -0.96911228895E+02  0.53345593810E+03  0.95126779497E+02 0.  0.
        254    2    1    2    0    0  0.41507367270E+02  0.51420957390E+03 -0.10022511848E+04  0.14469246237E+04  0.90716541039E+03 0.  0.
        -24    2    4    4    0    0  0.41222147804E+03  0.70447620310E+02 -0.61042863777E+03  0.74410823844E+03  0.78641811648E+02 0.  0.
         24    2    4    4    0    0 -0.37071411077E+03  0.44376195359E+03 -0.39182254707E+03  0.70281638529E+03  0.77925218363E+02 0.  0.
         13    1    3    3    0    0 -0.36948173617E+02 -0.74452734120E+02 -0.31267317992E+02  0.88803278802E+02  0.00000000000E+00 0.  1.
        -13    1    3    3    0    0 -0.45591936530E+01 -0.43975683978E+03 -0.65643910903E+02  0.44465265929E+03  0.00000000000E+00 0. -1.
          4    1    6    6  502    0 -0.30169094905E+03  0.37906236672E+03 -0.35784360142E+03  0.60229374036E+03  0.00000000000E+00 0. -1.
          3    1    5    5  503    0  0.22399246960E+03  0.43869671283E+02 -0.26431620160E+03  0.34922804716E+03  0.00000000000E+00 0. -1.
         -4    1    5    5    0  503  0.18822900845E+03  0.26577949026E+02 -0.34611243617E+03  0.39488019128E+03  0.00000000000E+00 0.  1.
         -3    1    6    6    0  502 -0.69023161721E+02  0.64699586872E+02 -0.33978945647E+02  0.10052264492E+03  0.00000000000E+00 0.  1.
<mgrwt>
<rscale>  0 0.16473461E+04</rscale>
<asrwt>0</asrwt>
<pdfrwt beam="1">  1        1 0.67786011E-01 0.16473461E+04</pdfrwt>
<pdfrwt beam="2">  1       -1 0.23688792E+00 0.16473461E+04</pdfrwt>
<totfact> 0.42804185E+00</totfact>
</mgrwt>
</event>
<event>
12    1  0.1489233E-007  0.1809347E+04  0.7818608E-02  0.8701344E-01
         -2   -1    0    0    0  501 -0.00000000000E+00  0.00000000000E+00  0.54174989278E+03  0.54174989278E+03  0.00000000000E+00 0.  1.
          2   -1    0    0  501    0  0.00000000000E+00 -0.00000000000E+00 -0.15107239439E+04  0.15107239439E+04  0.00000000000E+00 0. -1.
         23    2    1    2    0    0  0.19668346775E+03 -0.54130675211E+02  0.37078310217E+03  0.43318531981E+03  0.92492680590E+02 0.  0.
        254    2    1    2    0    0 -0.19668346775E+03  0.54130675211E+02 -0.13397571533E+04  0.16192885169E+04  0.88630218018E+03 0.  0.
        -24    2    4    4    0    0  0.12104677030E+03 -0.32765752783E+03 -0.82621824180E+03  0.90037254000E+03  0.77603811538E+02 0.  0.
         24    2    4    4    0    0 -0.31773023805E+03  0.38178820304E+03 -0.51353891148E+03  0.71891597685E+03  0.80020197555E+02 0.  0.
         11    1    3    3    0    0  0.11549141734E+03  0.15893142418E+02  0.20200996314E+03  0.23323568480E+03  0.00000000000E+00 0. -1.
        -11    1    3    3    0    0  0.81192050409E+02 -0.70023817629E+02  0.16877313902E+03  0.19994963501E+03  0.00000000000E+00 0.  1.
          4    1    6    6  502    0 -0.10600436318E+03  0.17269946458E+03 -0.17072795292E+03  0.26497181734E+03  0.00000000000E+00 0. -1.
          3    1    5    5  503    0  0.46915440069E+02 -0.21791202059E+03 -0.56799010956E+03  0.61016347956E+03  0.00000000000E+00 0. -1.
         -4    1    5    5    0  503  0.74131330234E+02 -0.10974550725E+03 -0.25822813224E+03  0.29020906044E+03  0.00000000000E+00 0.  1.
         -3    1    6    6    0  502 -0.21172587488E+03  0.20908873846E+03 -0.34281095856E+03  0.45394415951E+03  0.00000000000E+00 0.  1.
<mgrwt>
<rscale>  0 0.18093474E+04</rscale>
<asrwt>0</asrwt>
<pdfrwt beam="1">  1        2 0.23241907E+00 0.18093474E+04</pdfrwt>
<pdfrwt beam="2">  1       -2 0.83346138E-01 0.18093474E+04</pdfrwt>
<totfact> 0.14879204E+01</totfact>
</mgrwt>
</event>
<event>
12    1  0.1489233E-007  0.1197358E+04  0.7818608E-02  0.9115172E-01
          2   -1    0    0  501    0  0.00000000000E+00  0.00000000000E+00  0.60578543064E+03  0.60578543064E+03  0.00000000000E+00 0. -1.
         -2   -1    0    0    0  501 -0.00000000000E+00 -0.00000000000E+00 -0.59165584517E+03  0.59165584517E+03  0.00000000000E+00 0.  1.
         23    2    1    2    0    0 -0.24533550886E+03 -0.27291968854E+02  0.64020538569E+02  0.27059790222E+03  0.90499899772E+02 0.  0.
        254    2    1    2    0    0  0.24533550886E+03  0.27291968854E+02 -0.49890953107E+02  0.92684337359E+03  0.89197262766E+03 0.  0.
        -24    2    4    4    0    0 -0.44475841704E+02  0.24750157935E+03 -0.35777160410E+03  0.44350479783E+03  0.73897582683E+02 0.  0.
         24    2    4    4    0    0  0.28981135056E+03 -0.22020961050E+03  0.30788065099E+03  0.48333857575E+03  0.79641647952E+02 0.  0.
         13    1    3    3    0    0 -0.17080730610E+03  0.17909198260E+02  0.19868291053E+02  0.17288905168E+03  0.00000000000E+00 0. -1.
        -13    1    3    3    0    0 -0.74528202754E+02 -0.45201167114E+02  0.44152247517E+02  0.97708850546E+02  0.00000000000E+00 0.  1.
          4    1    6    6  502    0  0.12046336415E+03 -0.94923993183E+02  0.18173873220E+03  0.23780444354E+03  0.00000000000E+00 0. -1.
          1    1    5    5  503    0  0.88718833744E+01  0.15524594780E+03 -0.21559158444E+03  0.26581900967E+03  0.00000000000E+00 0. -1.
         -2    1    5    5    0  503 -0.53347725079E+02  0.92255631549E+02 -0.14218001966E+03  0.17768578816E+03  0.00000000000E+00 0.  1.
         -1    1    6    6    0  502  0.16934798641E+03 -0.12528561731E+03  0.12614191879E+03  0.24553413221E+03  0.00000000000E+00 0.  1.
<mgrwt>
<rscale>  0 0.11973579E+04</rscale>
<asrwt>0</asrwt>
<pdfrwt beam="1">  1        2 0.93197759E-01 0.11973579E+04</pdfrwt>
<pdfrwt beam="2">  1       -2 0.91023976E-01 0.11973579E+04</pdfrwt>
<totfact> 0.49829347E+01</totfact>
</mgrwt>
</event>
<event>
12    1  0.1489233E-007  0.1849943E+04  0.7818608E-02  0.8680182E-01
         -2   -1    0    0    0  501 -0.00000000000E+00  0.00000000000E+00  0.38976461940E+03  0.38976461940E+03  0.00000000000E+00 0. -1.
          2   -1    0    0  501    0  0.00000000000E+00 -0.00000000000E+00 -0.21951006599E+04  0.21951006599E+04  0.00000000000E+00 0.  1.
         23    2    1    2    0    0 -0.25072429510E+03 -0.25794619349E+03 -0.15525668791E+04  0.15961607618E+04  0.88692459344E+02 0.  0.
        254    2    1    2    0    0  0.25072429510E+03  0.25794619349E+03 -0.25276916132E+03  0.98870451748E+03  0.88557634514E+03 0.  0.
        -24    2    4    4    0    0  0.32264736582E+03  0.36524171295E+03 -0.49691078359E+03  0.70074487346E+03  0.81364729923E+02 0.  0.
         24    2    4    4    0    0 -0.71923070724E+02 -0.10729551946E+03  0.24414162227E+03  0.28795964402E+03  0.81427073274E+02 0.  0.
         13    1    3    3    0    0 -0.12924389976E+03 -0.18757109562E+03 -0.87171870638E+03  0.90098857073E+03  0.00000000000E+00 0.  1.
        -13    1    3    3    0    0 -0.12148039534E+03 -0.70375097877E+02 -0.68084817275E+03  0.69517219104E+03  0.00000000000E+00 0. -1.
          4    1    6    6  502    0 -0.79255595420E+02 -0.50850214014E+02  0.17175140282E+03  0.19587173875E+03  0.00000000000E+00 0. -1.
          3    1    5    5  503    0  0.17674941149E+03  0.13911441945E+03 -0.22129573717E+03  0.31553918846E+03  0.00000000000E+00 0. -1.
         -4    1    5    5    0  503  0.14589795433E+03  0.22612729350E+03 -0.27561504642E+03  0.38520568500E+03  0.00000000000E+00 0.  1.
         -3    1    6    6    0  502  0.73325246962E+01 -0.56445305442E+02  0.72390219448E+02  0.92087905267E+02  0.00000000000E+00 0.  1.
<mgrwt>
<rscale>  0 0.18499433E+04</rscale>
<asrwt>0</asrwt>
<pdfrwt beam="1">  1        2 0.33770779E+00 0.18499433E+04</pdfrwt>
<pdfrwt beam="2">  1       -2 0.59963788E-01 0.18499433E+04</pdfrwt>
<totfact> 0.12674403E+01</totfact>
</mgrwt>
</event>
<event>
12    1  0.1489233E-007  0.2111964E+04  0.7818608E-02  0.8555992E-01
         -1   -1    0    0    0  501 -0.00000000000E+00  0.00000000000E+00  0.83683078086E+03  0.83683078086E+03  0.00000000000E+00 0.  1.
          1   -1    0    0  501    0  0.00000000000E+00 -0.00000000000E+00 -0.13325244577E+04  0.13325244577E+04  0.00000000000E+00 0. -1.
         23    2    1    2    0    0 -0.39528692748E+03 -0.31989151880E+02 -0.99373004319E+03  0.10732019838E+04  0.83594487339E+02 0.  0.
        254    2    1    2    0    0  0.39528692748E+03  0.31989151880E+02  0.49803636637E+03  0.10961532548E+04  0.89232094837E+03 0.  0.
        -24    2    4    4    0    0 -0.15141259631E+03 -0.11450983661E+03 -0.13276698489E+03  0.24479425604E+03  0.79113074209E+02 0.  0.
         24    2    4    4    0    0  0.54669952380E+03  0.14649898849E+03  0.63080335126E+03  0.85135899875E+03  0.80975019968E+02 0.  0.
         11    1    3    3    0    0 -0.27309217891E+02 -0.10227500077E+02 -0.32240959351E+02  0.43472687972E+02  0.00000000000E+00 0.  1.
        -11    1    3    3    0    0 -0.36797770959E+03 -0.21761651803E+02 -0.96148908384E+03  0.10297292958E+04  0.00000000000E+00 0. -1.
          2    1    6    6  502    0  0.16783142660E+03  0.57379672237E+02  0.14653170603E+03  0.23006815385E+03  0.00000000000E+00 0. -1.
          1    1    5    5  503    0 -0.56218781537E+02 -0.74020902388E+02 -0.26869521594E+02  0.96755447281E+02  0.00000000000E+00 0. -1.
         -2    1    5    5    0  503 -0.95193814777E+02 -0.40488934217E+02 -0.10589746330E+03  0.14803880876E+03  0.00000000000E+00 0.  1.
         -1    1    6    6    0  502  0.37886809719E+03  0.89119316248E+02  0.48427164522E+03  0.62129084491E+03  0.00000000000E+00 0.  1.
<mgrwt>
<rscale>  0 0.21119635E+04</rscale>
<asrwt>0</asrwt>
<pdfrwt beam="1">  1        1 0.20500376E+00 0.21119635E+04</pdfrwt>
<pdfrwt beam="2">  1       -1 0.12874320E+00 0.21119635E+04</pdfrwt>
<totfact> 0.40947697E+00</totfact>
</mgrwt>
</event>
<event>
12    1  0.1489233E-007  0.1546551E+04  0.7818608E-02  0.8854074E-01
          1   -1    0    0  501    0  0.00000000000E+00  0.00000000000E+00  0.15027053772E+04  0.15027053772E+04  0.00000000000E+00 0.  1.
         -1   -1    0    0    0  501 -0.00000000000E+00 -0.00000000000E+00 -0.39791894480E+03  0.39791894480E+03  0.00000000000E+00 0. -1.
         23    2    1    2    0    0 -0.19444240114E+03  0.42380012540E+03  0.48527154666E+03  0.67834481074E+03  0.85139970702E+02 0.  0.
        254    2    1    2    0    0  0.19444240114E+03 -0.42380012540E+03  0.61951488578E+03  0.12222795113E+04  0.94485666447E+03 0.  0.
        -24    2    4    4    0    0  0.22000211370E+01  0.28691082138E+03  0.81453623866E+02  0.30694617024E+03  0.72516198668E+02 0.  0.
         24    2    4    4    0    0  0.19224238000E+03 -0.71071094678E+03  0.53806126191E+03  0.91533334106E+03  0.79107655402E+02 0.  0.
         13    1    3    3    0    0 -0.37134706023E+02  0.13681930070E+03  0.19366191221E+03  0.24000717422E+03  0.00000000000E+00 0.  1.
        -13    1    3    3    0    0 -0.15730769511E+03  0.28698082470E+03  0.29160963445E+03  0.43833763652E+03  0.00000000000E+00 0. -1.
          2    1    6    6  502    0  0.17412009607E+03 -0.51673841550E+03  0.38326196382E+03  0.66650291133E+03  0.00000000000E+00 0. -1.
          3    1    5    5  503    0  0.15085350209E+02  0.27107497786E+03  0.88172253836E+02  0.28545324969E+03  0.00000000000E+00 0. -1.
         -4    1    5    5    0  503 -0.12885329072E+02  0.15835843522E+02 -0.67186299694E+01  0.21492920556E+02  0.00000000000E+00 0.  1.
         -1    1    6    6    0  502  0.18122283928E+02 -0.19397253128E+03  0.15479929809E+03  0.24883042973E+03  0.00000000000E+00 0.  1.
<mgrwt>
<rscale>  0 0.15465509E+04</rscale>
<asrwt>0</asrwt>
<pdfrwt beam="1">  1        1 0.23118544E+00 0.15465509E+04</pdfrwt>
<pdfrwt beam="2">  1       -1 0.61218300E-01 0.15465509E+04</pdfrwt>
<totfact> 0.16986452E+01</totfact>
</mgrwt>
</event>
<event>
12    1  0.1489233E-007  0.2370864E+04  0.7818608E-02  0.8450493E-01
         -1   -1    0    0    0  501 -0.00000000000E+00  0.00000000000E+00  0.68946628079E+03  0.68946628079E+03  0.00000000000E+00 0.  1.
          1   -1    0    0  501    0  0.00000000000E+00 -0.00000000000E+00 -0.20381698002E+04  0.20381698002E+04  0.00000000000E+00 0. -1.
         23    2    1    2    0    0  0.71499987318E+03  0.37955205859E+03  0.11894854246E+03  0.82328056020E+03  0.91419588861E+02 0.  0.
        254    2    1    2    0    0 -0.71499987318E+03 -0.37955205859E+03 -0.14676520619E+04  0.19043555208E+04  0.90403694117E+03 0.  0.
        -24    2    4    4    0    0 -0.41284641690E+02  0.25613568562E+03 -0.45420278113E+03  0.52908813482E+03  0.79524693815E+02 0.  0.
         24    2    4    4    0    0 -0.67371523149E+03 -0.63568774421E+03 -0.10134492808E+04  0.13752673860E+04  0.79308366486E+02 0.  0.
         11    1    3    3    0    0  0.53207096234E+03  0.32008409366E+03  0.70487036029E+02  0.62491740112E+03  0.00000000000E+00 0.  1.
        -11    1    3    3    0    0  0.18292891084E+03  0.59467964931E+02  0.48461506435E+02  0.19836315908E+03  0.00000000000E+00 0. -1.
          4    1    6    6  502    0 -0.47414302880E+02 -0.20231311577E+02 -0.53765246080E+02  0.74485728645E+02  0.00000000000E+00 0. -1.
          3    1    5    5  503    0 -0.33471708288E+02  0.32299395511E+02 -0.63057560731E+02  0.78357272614E+02  0.00000000000E+00 0. -1.
         -4    1    5    5    0  503 -0.78129334017E+01  0.22383629011E+03 -0.39114522040E+03  0.45073086220E+03  0.00000000000E+00 0.  1.
         -3    1    6    6    0  502 -0.62630092861E+03 -0.61545643263E+03 -0.95968403469E+03  0.13007816573E+04  0.00000000000E+00 0.  1.
<mgrwt>
<rscale>  0 0.23708643E+04</rscale>
<asrwt>0</asrwt>
<pdfrwt beam="1">  1        1 0.31356459E+00 0.23708643E+04</pdfrwt>
<pdfrwt beam="2">  1       -1 0.10607174E+00 0.23708643E+04</pdfrwt>
<totfact> 0.20964076E+00</totfact>
</mgrwt>
</event>
<event>
12    1  0.1489233E-007  0.1414301E+04  0.7818608E-02  0.8943531E-01
         -1   -1    0    0    0  501 -0.00000000000E+00  0.00000000000E+00  0.31025904159E+03  0.31025904159E+03  0.00000000000E+00 0.  1.
          1   -1    0    0  501    0  0.00000000000E+00 -0.00000000000E+00 -0.16117562747E+04  0.16117562747E+04  0.00000000000E+00 0. -1.
         23    2    1    2    0    0  0.30589507354E+03 -0.12135690889E+03 -0.85253822113E+02  0.35238126374E+03  0.92763384477E+02 0.  0.
        254    2    1    2    0    0 -0.30589507354E+03  0.12135690889E+03 -0.12162434110E+04  0.15696340525E+04  0.93605754565E+03 0.  0.
        -24    2    4    4    0    0 -0.51784942659E+03 -0.21857191092E+03 -0.56516593612E+03  0.80110744712E+03  0.80118023032E+02 0.  0.
         24    2    4    4    0    0  0.21195435305E+03  0.33992881980E+03 -0.65107747485E+03  0.76852660541E+03  0.79088650601E+02 0.  0.
         11    1    3    3    0    0  0.28234771930E+03 -0.13419614262E+03 -0.89618755408E+02  0.32520818041E+03  0.00000000000E+00 0. -1.
        -11    1    3    3    0    0  0.23547354239E+02  0.12839233737E+02  0.43649332953E+01  0.27173083323E+02  0.00000000000E+00 0.  1.
          4    1    6    6  502    0  0.20874926631E+03  0.31308956450E+03 -0.63163460643E+03  0.73523030924E+03  0.00000000000E+00 0. -1.
          1    1    5    5  503    0 -0.51223310325E+03 -0.20652485936E+03 -0.56083334299E+03  0.78712725032E+03  0.00000000000E+00 0. -1.
         -2    1    5    5    0  503 -0.56163233423E+01 -0.12047051560E+02 -0.43325931356E+01  0.13980196796E+02  0.00000000000E+00 0.  1.
         -3    1    6    6    0  502  0.32050867425E+01  0.26839255305E+02 -0.19442868424E+02  0.33296296174E+02  0.00000000000E+00 0.  1.
<mgrwt>
<rscale>  0 0.14143012E+04</rscale>
<asrwt>0</asrwt>
<pdfrwt beam="1">  1        1 0.24796250E+00 0.14143012E+04</pdfrwt>
<pdfrwt beam="2">  1       -1 0.47732161E-01 0.14143012E+04</pdfrwt>
<totfact> 0.23385906E+01</totfact>
</mgrwt>
</event>
<event>
12    1  0.1489233E-007  0.2143409E+04  0.7818608E-02  0.8542359E-01
          2   -1    0    0  501    0  0.00000000000E+00  0.00000000000E+00  0.65351379459E+03  0.65351379459E+03  0.00000000000E+00 0. -1.
         -2   -1    0    0    0  501 -0.00000000000E+00 -0.00000000000E+00 -0.17575007899E+04  0.17575007899E+04  0.00000000000E+00 0.  1.
         23    2    1    2    0    0 -0.83772644183E+03 -0.20808746474E+02 -0.33876273671E+03  0.90977644316E+03  0.10351033515E+03 0.  0.
        254    2    1    2    0    0  0.83772644183E+03  0.20808746474E+02 -0.76522425858E+03  0.15012381413E+04  0.98281696960E+03 0.  0.
        -24    2    4    4    0    0  0.38041204236E+03  0.30323850258E+03 -0.81853158288E+03  0.95546296980E+03  0.79048232594E+02 0.  0.
         24    2    4    4    0    0  0.45731439946E+03 -0.28242975610E+03  0.53307324292E+02  0.54577517151E+03  0.78267745098E+02 0.  0.
         11    1    3    3    0    0 -0.16950618633E+03 -0.33423838872E+02 -0.38095523077E+02  0.17692023369E+03  0.00000000000E+00 0. -1.
        -11    1    3    3    0    0 -0.66822025549E+03  0.12615092399E+02 -0.30066721363E+03  0.73285620947E+03  0.00000000000E+00 0.  1.
          4    1    6    6  502    0  0.26578922860E+03 -0.18307010949E+03  0.66847816621E+02  0.32958642207E+03  0.00000000000E+00 0. -1.
          3    1    5    5  503    0  0.29482128164E+03  0.26701877155E+03 -0.62618458931E+03  0.74183943840E+03  0.00000000000E+00 0. -1.
         -4    1    5    5    0  503  0.85590760719E+02  0.36219731025E+02 -0.19234699357E+03  0.21362353140E+03  0.00000000000E+00 0.  1.
         -3    1    6    6    0  502  0.19152517087E+03 -0.99359646614E+02 -0.13540492329E+02  0.21618874944E+03  0.00000000000E+00 0.  1.
<mgrwt>
<rscale>  0 0.21434094E+04</rscale>
<asrwt>0</asrwt>
<pdfrwt beam="1">  1        2 0.10054058E+00 0.21434094E+04</pdfrwt>
<pdfrwt beam="2">  1       -2 0.27038473E+00 0.21434094E+04</pdfrwt>
<totfact> 0.19772476E+00</totfact>
</mgrwt>
</event>
<event>
12    1  0.1489233E-007  0.2077875E+04  0.7818608E-02  0.8571053E-01
          2   -1    0    0  501    0  0.00000000000E+00  0.00000000000E+00  0.89315475467E+03  0.89315475467E+03  0.00000000000E+00 0. -1.
         -2   -1    0    0    0  501 -0.00000000000E+00 -0.00000000000E+00 -0.12085155769E+04  0.12085155769E+04  0.00000000000E+00 0.  1.
         23    2    1    2    0    0 -0.84085923331E+03  0.84688041995E+02 -0.20952154036E+03  0.87541338384E+03  0.90735891729E+02 0.  0.
        254    2    1    2    0    0  0.84085923331E+03 -0.84688041995E+02 -0.10583928184E+03  0.12262569477E+04  0.88220623070E+03 0.  0.
        -24    2    4    4    0    0  0.19208112375E+03  0.36862359407E+03 -0.79088392822E+02  0.43033253657E+03  0.78438548859E+02 0.  0.
         24    2    4    4    0    0  0.64877810955E+03 -0.45331163607E+03 -0.26750889014E+02  0.79592441112E+03  0.79847249963E+02 0.  0.
         13    1    3    3    0    0 -0.50802940619E+03  0.65433308375E+02 -0.83414146505E+02  0.51897332806E+03  0.00000000000E+00 0. -1.
        -13    1    3    3    0    0 -0.33282982712E+03  0.19254733620E+02 -0.12610739385E+03  0.35644005579E+03  0.00000000000E+00 0.  1.
          4    1    6    6  502    0  0.46554390028E+02 -0.45403051458E+02  0.17091033579E+02  0.67237279402E+02  0.00000000000E+00 0. -1.
          1    1    5    5  503    0  0.46692078247E+02  0.49201534535E+02 -0.35861861125E+02  0.76726880915E+02  0.00000000000E+00 0. -1.
         -2    1    5    5    0  503  0.14538904551E+03  0.31942205954E+03 -0.43226531697E+02  0.35360565566E+03  0.00000000000E+00 0.  1.
         -3    1    6    6    0  502  0.60222371953E+03 -0.40790858461E+03 -0.43841922594E+02  0.72868713172E+03  0.00000000000E+00 0.  1.
<mgrwt>
<rscale>  0 0.20778753E+04</rscale>
<asrwt>0</asrwt>
<pdfrwt beam="1">  1        2 0.13740842E+00 0.20778753E+04</pdfrwt>
<pdfrwt beam="2">  1       -2 0.18592547E+00 0.20778753E+04</pdfrwt>
<totfact> 0.45167897E+00</totfact>
</mgrwt>
</event>
<event>
12    1  0.1489233E-007  0.2287914E+04  0.7818608E-02  0.8482702E-01
         -2   -1    0    0    0  501 -0.00000000000E+00  0.00000000000E+00  0.50642826739E+03  0.50642826739E+03  0.00000000000E+00 0. -1.
          2   -1    0    0  501    0  0.00000000000E+00 -0.00000000000E+00 -0.25840536205E+04  0.25840536205E+04  0.00000000000E+00 0.  1.
         23    2    1    2    0    0  0.55724112536E+03 -0.58946538025E+03 -0.13847373728E+04  0.16074726715E+04  0.92106958512E+02 0.  0.
        254    2    1    2    0    0 -0.55724112536E+03  0.58946538025E+03 -0.69288798028E+03  0.14830092163E+04  0.10301628396E+04 0.  0.
        -24    2    4    4    0    0 -0.14748835106E+03  0.61654436284E+03  0.38995400431E+02  0.64022413961E+03  0.80539075212E+02 0.  0.
         24    2    4    4    0    0 -0.40975277429E+03 -0.27078982585E+02 -0.73188338072E+03  0.84278507671E+03  0.77477707896E+02 0.  0.
         11    1    3    3    0    0  0.32331742712E+03 -0.35598019091E+03 -0.73202749942E+03  0.87585404887E+03  0.00000000000E+00 0. -1.
        -11    1    3    3    0    0  0.23392369824E+03 -0.23348518934E+03 -0.65270987338E+03  0.73161862268E+03  0.00000000000E+00 0.  1.
          2    1    6    6  502    0 -0.29112293204E+03  0.11265081649E+02 -0.47464040278E+03  0.55692277344E+03  0.00000000000E+00 0. -1.
          1    1    5    5  503    0 -0.11504799620E+03  0.44303932129E+03  0.63143982274E+02  0.46206822455E+03  0.00000000000E+00 0. -1.
         -2    1    5    5    0  503 -0.32440354861E+02  0.17350504155E+03 -0.24148581843E+02  0.17815591506E+03  0.00000000000E+00 0.  1.
         -1    1    6    6    0  502 -0.11862984226E+03 -0.38344064234E+02 -0.25724297793E+03  0.28586230327E+03  0.00000000000E+00 0.  1.
<mgrwt>
<rscale>  0 0.22879142E+04</rscale>
<asrwt>0</asrwt>
<pdfrwt beam="1">  1        2 0.39754672E+00 0.22879142E+04</pdfrwt>
<pdfrwt beam="2">  1       -2 0.77912039E-01 0.22879142E+04</pdfrwt>
<totfact> 0.41396021E+00</totfact>
</mgrwt>
</event>
<event>
12    1  0.1489233E-007  0.1595833E+04  0.7818608E-02  0.8823112E-01
          1   -1    0    0  501    0  0.00000000000E+00  0.00000000000E+00  0.16685091503E+04  0.16685091503E+04  0.00000000000E+00 0. -1.
         -1   -1    0    0    0  501 -0.00000000000E+00 -0.00000000000E+00 -0.38158040038E+03  0.38158040038E+03  0.00000000000E+00 0.  1.
         23    2    1    2    0    0  0.28866598947E+03  0.21932956303E+03 -0.73441882343E+02  0.38020332245E+03  0.87905321936E+02 0.  0.
        254    2    1    2    0    0 -0.28866598947E+03 -0.21932956303E+03  0.13603706322E+04  0.16698862282E+04  0.89804133948E+03 0.  0.
        -24    2    4    4    0    0 -0.44487388133E+03 -0.11542714850E+03  0.22825145196E+03  0.51954193994E+03  0.81172071167E+02 0.  0.
         24    2    4    4    0    0  0.15620789186E+03 -0.10390241453E+03  0.11321191803E+04  0.11503442882E+04  0.80009536769E+02 0.  0.
         11    1    3    3    0    0  0.11955946592E+03  0.11505413895E+03 -0.73633105612E+02  0.18153169151E+03  0.00000000000E+00 0. -1.
        -11    1    3    3    0    0  0.16910652355E+03  0.10427542408E+03  0.19122326882E+00  0.19867163094E+03  0.00000000000E+00 0.  1.
          4    1    6    6  502    0  0.30974990597E+02 -0.18305478833E+02  0.45602112613E+03  0.45743831068E+03  0.00000000000E+00 0. -1.
          1    1    5    5  503    0 -0.13278555339E+03 -0.17183384291E+01  0.85955802285E+02  0.15818772336E+03  0.00000000000E+00 0. -1.
         -2    1    5    5    0  503 -0.31208832794E+03 -0.11370881007E+03  0.14229564967E+03  0.36135421658E+03  0.00000000000E+00 0.  1.
         -3    1    6    6    0  502  0.12523290126E+03 -0.85596935696E+02  0.67609805412E+03  0.69290597757E+03  0.00000000000E+00 0.  1.
<mgrwt>
<rscale>  0 0.15958326E+04</rscale>
<asrwt>0</asrwt>
<pdfrwt beam="1">  1        1 0.25669371E+00 0.15958326E+04</pdfrwt>
<pdfrwt beam="2">  1       -1 0.58704678E-01 0.15958326E+04</pdfrwt>
<totfact> 0.14136499E+01</totfact>
</mgrwt>
</event>
<event>
12    1  0.1489233E-007  0.2470613E+04  0.7818608E-02  0.8413530E-01
          1   -1    0    0  501    0  0.00000000000E+00  0.00000000000E+00  0.12732294043E+04  0.12732294043E+04  0.00000000000E+00 0. -1.
         -1   -1    0    0    0  501 -0.00000000000E+00 -0.00000000000E+00 -0.11985135081E+04  0.11985135081E+04  0.00000000000E+00 0.  1.
         23    2    1    2    0    0 -0.53389369265E+03  0.89080547745E+03 -0.26441414474E+03  0.10754841862E+04  0.90413058314E+02 0.  0.
        254    2    1    2    0    0  0.53389369265E+03 -0.89080547745E+03  0.33913004095E+03  0.13962587262E+04  0.86945521576E+03 0.  0.
        -24    2    4    4    0    0 -0.34142417135E+02 -0.69789767612E+03  0.20429598234E+01  0.70344230707E+03  0.81240597634E+02 0.  0.
         24    2    4    4    0    0  0.56803610978E+03 -0.19290780133E+03  0.33708708112E+03  0.69281641917E+03  0.80550906735E+02 0.  0.
         11    1    3    3    0    0 -0.37256766309E+03  0.57450179978E+03 -0.21040838248E+03  0.71633139604E+03  0.00000000000E+00 0.  1.
        -11    1    3    3    0    0 -0.16132602956E+03  0.31630367768E+03 -0.54005762257E+02  0.35915279016E+03  0.00000000000E+00 0. -1.
          2    1    6    6  502    0  0.13227592873E+03 -0.66280938855E+02  0.51580144625E+02  0.15668629645E+03  0.00000000000E+00 0. -1.
          3    1    5    5  503    0  0.26914058767E+02 -0.21375084623E+03  0.30173502163E+01  0.21545972994E+03  0.00000000000E+00 0. -1.
         -4    1    5    5    0  503 -0.61056475902E+02 -0.48414682989E+03 -0.97439039295E+00  0.48798257713E+03  0.00000000000E+00 0.  1.
         -1    1    6    6    0  502  0.43576018105E+03 -0.12662686247E+03  0.28550693650E+03  0.53613012271E+03  0.00000000000E+00 0.  1.
<mgrwt>
<rscale>  0 0.24706134E+04</rscale>
<asrwt>0</asrwt>
<pdfrwt beam="1">  1        1 0.19588145E+00 0.24706134E+04</pdfrwt>
<pdfrwt beam="2">  1       -1 0.18438669E+00 0.24706134E+04</pdfrwt>
<totfact> 0.16304537E+00</totfact>
</mgrwt>
</event>
<event>
12    1  0.1489233E-007  0.1999806E+04  0.7818608E-02  0.8606711E-01
          2   -1    0    0  501    0  0.00000000000E+00  0.00000000000E+00  0.11465848460E+04  0.11465848460E+04  0.00000000000E+00 0. -1.
         -2   -1    0    0    0  501 -0.00000000000E+00 -0.00000000000E+00 -0.87198618162E+03  0.87198618162E+03  0.00000000000E+00 0.  1.
         23    2    1    2    0    0  0.57947062795E+03 -0.36755995878E+03  0.49639520690E+03  0.85182422028E+03  0.91157933606E+02 0.  0.
        254    2    1    2    0    0 -0.57947062795E+03  0.36755995878E+03 -0.22179654252E+03  0.11667468073E+04  0.91717930319E+03 0.  0.
        -24    2    4    4    0    0 -0.75032958425E+03  0.45523057915E+03 -0.25914254870E+02  0.88207601149E+03  0.84600095989E+02 0.  0.
         24    2    4    4    0    0  0.17085895630E+03 -0.87670620368E+02 -0.19588228765E+03  0.28467079585E+03  0.76083314681E+02 0.  0.
         11    1    3    3    0    0  0.87921680640E+02 -0.65555182442E+02  0.12213582217E+03  0.16414890474E+03  0.00000000000E+00 0. -1.
        -11    1    3    3    0    0  0.49154894731E+03 -0.30200477634E+03  0.37425938473E+03  0.68767531554E+03  0.00000000000E+00 0.  1.
          2    1    6    6  502    0  0.70731882684E+02 -0.39807260744E+02 -0.33093185641E+02  0.87651447060E+02  0.00000000000E+00 0. -1.
          1    1    5    5  503    0 -0.80130636900E+02  0.76208510558E+02 -0.18301679154E+02  0.11208749935E+03  0.00000000000E+00 0. -1.
         -2    1    5    5    0  503 -0.67019894735E+03  0.37902206859E+03 -0.76125757163E+01  0.76998851213E+03  0.00000000000E+00 0.  1.
         -1    1    6    6    0  502  0.10012707361E+03 -0.47863359624E+02 -0.16278910201E+03  0.19701934879E+03  0.00000000000E+00 0.  1.
<mgrwt>
<rscale>  0 0.19998061E+04</rscale>
<asrwt>0</asrwt>
<pdfrwt beam="1">  1        2 0.17639767E+00 0.19998061E+04</pdfrwt>
<pdfrwt beam="2">  1       -2 0.13415172E+00 0.19998061E+04</pdfrwt>
<totfact> 0.75993264E+00</totfact>
</mgrwt>
</event>
<event>
12    1  0.1489233E-007  0.1490729E+04  0.7818608E-02  0.8890642E-01
          2   -1    0    0  501    0  0.00000000000E+00  0.00000000000E+00  0.13242940105E+04  0.13242940105E+04  0.00000000000E+00 0. -1.
         -2   -1    0    0    0  501 -0.00000000000E+00 -0.00000000000E+00 -0.41952006844E+03  0.41952006844E+03  0.00000000000E+00 0.  1.
         23    2    1    2    0    0 -0.27556008010E+03  0.28607157890E+03  0.10112250534E+01  0.40678151829E+03  0.87748931880E+02 0.  0.
        254    2    1    2    0    0  0.27556008010E+03 -0.28607157890E+03  0.90376271701E+03  0.13370325607E+04  0.90171986425E+03 0.  0.
        -24    2    4    4    0    0  0.44017544102E+03 -0.49838222575E+03  0.78726237319E+03  0.10334116207E+04  0.77577520994E+02 0.  0.
         24    2    4    4    0    0 -0.16461536092E+03  0.21231064686E+03  0.11650034382E+03  0.30362093994E+03  0.80245356516E+02 0.  0.
         11    1    3    3    0    0 -0.90512549090E+02  0.41544658771E+02 -0.87339477179E+01  0.99973806859E+02  0.00000000000E+00 0. -1.
        -11    1    3    3    0    0 -0.18504753101E+03  0.24452692012E+03  0.97451727714E+01  0.30680771143E+03  0.00000000000E+00 0.  1.
          4    1    6    6  502    0 -0.16371224794E+03  0.17447082865E+03  0.11570508434E+03  0.26576199262E+03  0.00000000000E+00 0. -1.
          3    1    5    5  503    0  0.38536420992E+03 -0.39236096826E+03  0.63876408192E+03  0.84289516315E+03  0.00000000000E+00 0. -1.
         -4    1    5    5    0  503  0.54811231098E+02 -0.10602125749E+03  0.14849829127E+03  0.19051645756E+03  0.00000000000E+00 0.  1.
         -3    1    6    6    0  502 -0.90311297170E+00  0.37839818207E+02  0.79525947951E+00  0.37858947325E+02  0.00000000000E+00 0.  1.
<mgrwt>
<rscale>  0 0.14907286E+04</rscale>
<asrwt>0</asrwt>
<pdfrwt beam="1">  1        2 0.20373754E+00 0.14907286E+04</pdfrwt>
<pdfrwt beam="2">  1       -2 0.64541550E-01 0.14907286E+04</pdfrwt>
<totfact> 0.34293067E+01</totfact>
</mgrwt>
</event>
<event>
12    1  0.1489233E-007  0.1981295E+04  0.7818608E-02  0.8615416E-01
          2   -1    0    0  501    0  0.00000000000E+00  0.00000000000E+00  0.14524854320E+04  0.14524854320E+04  0.00000000000E+00 0. -1.
         -2   -1    0    0    0  501 -0.00000000000E+00 -0.00000000000E+00 -0.67565738054E+03  0.67565738054E+03  0.00000000000E+00 0.  1.
         23    2    1    2    0    0  0.35027218562E+03 -0.67840947652E+03  0.61631365612E+03  0.98549909161E+03  0.91847237230E+02 0.  0.
        254    2    1    2    0    0 -0.35027218562E+03  0.67840947652E+03  0.16051439534E+03  0.11426437209E+04  0.83482919213E+03 0.  0.
        -24    2    4    4    0    0 -0.31091460545E+03  0.57841361865E+03  0.46733176185E+03  0.81019057157E+03  0.82338208089E+02 0.  0.
         24    2    4    4    0    0 -0.39357580163E+02  0.99995857874E+02 -0.30681736651E+03  0.33245314937E+03  0.69570176252E+02 0.  0.
         13    1    3    3    0    0  0.95398845060E+00 -0.45370664590E+01  0.19193872979E+02  0.19745881240E+02  0.00000000000E+00 0. -1.
        -13    1    3    3    0    0  0.34931819717E+03 -0.67387241006E+03  0.59711978314E+03  0.96575321037E+03  0.00000000000E+00 0.  1.
          4    1    6    6  502    0  0.15551580572E+02  0.53086219772E+02 -0.11896778025E+03  0.13119958508E+03  0.00000000000E+00 0. -1.
          3    1    5    5  503    0 -0.20361489370E+03  0.29356080624E+03  0.26142957795E+03  0.44269899042E+03  0.00000000000E+00 0. -1.
         -4    1    5    5    0  503 -0.10729971175E+03  0.28485281241E+03  0.20590218390E+03  0.36749158115E+03  0.00000000000E+00 0.  1.
         -3    1    6    6    0  502 -0.54909160736E+02  0.46909638101E+02 -0.18784958626E+03  0.20125356429E+03  0.00000000000E+00 0.  1.
<mgrwt>
<rscale>  0 0.19812950E+04</rscale>
<asrwt>0</asrwt>
<pdfrwt beam="1">  1        2 0.22345930E+00 0.19812950E+04</pdfrwt>
<pdfrwt beam="2">  1       -2 0.10394729E+00 0.19812950E+04</pdfrwt>
<totfact> 0.94651849E+00</totfact>
</mgrwt>
</event>
<event>
12    1  0.1489233E-007  0.2008394E+04  0.7818608E-02  0.8602706E-01
          2   -1    0    0  501    0  0.00000000000E+00  0.00000000000E+00  0.12879378844E+04  0.12879378844E+04  0.00000000000E+00 0. -1.
         -2   -1    0    0    0  501 -0.00000000000E+00 -0.00000000000E+00 -0.78296604630E+03  0.78296604630E+03  0.00000000000E+00 0.  1.
         23    2    1    2    0    0  0.34681608971E+03  0.10568737504E+03  0.93557340158E+03  0.10074971701E+04  0.91113866439E+02 0.  0.
        254    2    1    2    0    0 -0.34681608971E+03 -0.10568737504E+03 -0.43060156351E+03  0.10634067606E+04  0.90220009456E+03 0.  0.
        -24    2    4    4    0    0  0.21569091465E+03 -0.13351188452E+03 -0.41630451383E+03  0.49449008535E+03  0.82843239307E+02 0.  0.
         24    2    4    4    0    0 -0.56250700436E+03  0.27824509487E+02 -0.14297049678E+02  0.56891667523E+03  0.79205078435E+02 0.  0.
         11    1    3    3    0    0  0.20493487407E+03  0.10809413155E+03  0.56260358197E+03  0.60844509557E+03  0.00000000000E+00 0. -1.
        -11    1    3    3    0    0  0.14188121564E+03 -0.24067565107E+01  0.37296981961E+03  0.39905207451E+03  0.00000000000E+00 0.  1.
          4    1    6    6  502    0 -0.34492618595E+02 -0.13183239608E+02 -0.13485811155E+02  0.39311647722E+02  0.00000000000E+00 0. -1.
          3    1    5    5  503    0  0.52211227345E+02 -0.72947402470E+02 -0.17676666626E+03  0.19822661296E+03  0.00000000000E+00 0. -1.
         -4    1    5    5    0  503  0.16347968730E+03 -0.60564482053E+02 -0.23953784758E+03  0.29626347238E+03  0.00000000000E+00 0.  1.
         -3    1    6    6    0  502 -0.52801438576E+03  0.41007749095E+02 -0.81123852329E+00  0.52960502751E+03  0.00000000000E+00 0.  1.
<mgrwt>
<rscale>  0 0.20083940E+04</rscale>
<asrwt>0</asrwt>
<pdfrwt beam="1">  1        2 0.19814429E+00 0.20083940E+04</pdfrwt>
<pdfrwt beam="2">  1       -2 0.12045632E+00 0.20083940E+04</pdfrwt>
<totfact> 0.82069516E+00</totfact>
</mgrwt>
</event>
<event>
12    1  0.1489233E-007  0.2063076E+04  0.7818608E-02  0.8577685E-01
          1   -1    0    0  501    0  0.00000000000E+00  0.00000000000E+00  0.16827979858E+04  0.16827979858E+04  0.00000000000E+00 0. -1.
         -1   -1    0    0    0  501 -0.00000000000E+00 -0.00000000000E+00 -0.63232218648E+03  0.63232218648E+03  0.00000000000E+00 0.  1.
         23    2    1    2    0    0 -0.54781531516E+03 -0.61621190353E+03  0.29840900223E+03  0.88159067875E+03  0.91298755072E+02 0.  0.
        254    2    1    2    0    0  0.54781531516E+03  0.61621190353E+03  0.75206679710E+03  0.14335294936E+04  0.89976864360E+03 0.  0.
        -24    2    4    4    0    0 -0.24285761240E+03  0.12660267290E+03  0.20750479844E+03  0.35289009284E+03  0.80405967224E+02 0.  0.
         24    2    4    4    0    0  0.79067292756E+03  0.48960923063E+03  0.54456199866E+03  0.10806394007E+04  0.79704873662E+02 0.  0.
         11    1    3    3    0    0 -0.56382160549E+02 -0.92102755036E+02  0.14067642971E+02  0.10890254401E+03  0.00000000000E+00 0. -1.
        -11    1    3    3    0    0 -0.49143315461E+03 -0.52410914849E+03  0.28434135926E+03  0.77268813474E+03  0.00000000000E+00 0.  1.
          2    1    6    6  502    0  0.23670582432E+03  0.17481564962E+03  0.13978636762E+03  0.32577659092E+03  0.00000000000E+00 0. -1.
          1    1    5    5  503    0 -0.66421465232E+02  0.37431253102E+02  0.10625973448E+03  0.13078241825E+03  0.00000000000E+00 0. -1.
         -2    1    5    5    0  503 -0.17643614717E+03  0.89171419796E+02  0.10124506397E+03  0.22210767459E+03  0.00000000000E+00 0.  1.
         -1    1    6    6    0  502  0.55396710324E+03  0.31479358101E+03  0.40477563104E+03  0.75486280979E+03  0.00000000000E+00 0.  1.
<mgrwt>
<rscale>  0 0.20630759E+04</rscale>
<asrwt>0</asrwt>
<pdfrwt beam="1">  1        1 0.25889200E+00 0.20630759E+04</pdfrwt>
<pdfrwt beam="2">  1       -1 0.97280337E-01 0.20630759E+04</pdfrwt>
<totfact> 0.45847463E+00</totfact>
</mgrwt>
</event>
<event>
12    1  0.1489233E-007  0.1596426E+04  0.7818608E-02  0.8822746E-01
         -3   -1    0    0    0  501 -0.00000000000E+00  0.00000000000E+00  0.15255800611E+04  0.15255800611E+04  0.00000000000E+00 0.  1.
          3   -1    0    0  501    0  0.00000000000E+00 -0.00000000000E+00 -0.41764067286E+03  0.41764067286E+03  0.00000000000E+00 0. -1.
         23    2    1    2    0    0  0.46804779111E+03  0.14429125180E+03  0.66200465782E+03  0.82854678532E+03  0.91383304676E+02 0.  0.
        254    2    1    2    0    0 -0.46804779111E+03 -0.14429125180E+03  0.44593473041E+03  0.11146739486E+04  0.89652190596E+03 0.  0.
        -24    2    4    4    0    0 -0.32434937913E+03  0.32398482464E+03  0.40429449456E+03  0.61658730707E+03  0.80976432115E+02 0.  0.
         24    2    4    4    0    0 -0.14369841198E+03 -0.46827607644E+03  0.41640235842E+02  0.49808664157E+03  0.80154075962E+02 0.  0.
         13    1    3    3    0    0  0.17306672654E+02  0.25907823505E+02  0.29576201090E+02  0.42959142310E+02  0.00000000000E+00 0. -1.
        -13    1    3    3    0    0  0.45074111845E+03  0.11838342830E+03  0.63242845673E+03  0.78558764301E+03  0.00000000000E+00 0.  1.
          4    1    6    6  502    0  0.55730137371E+00 -0.88300652032E+02  0.22872342920E+02  0.91216554445E+02  0.00000000000E+00 0. -1.
          1    1    5    5  503    0 -0.24217987862E+03  0.25492486417E+03  0.26275317769E+03  0.43894989733E+03  0.00000000000E+00 0. -1.
         -2    1    5    5    0  503 -0.82169500513E+02  0.69059960473E+02  0.14154131688E+03  0.17763740974E+03  0.00000000000E+00 0.  1.
         -3    1    6    6    0  502 -0.14425571335E+03 -0.37997542441E+03  0.18767892922E+02  0.40687008712E+03  0.00000000000E+00 0.  1.
<mgrwt>
<rscale>  0 0.15964264E+04</rscale>
<asrwt>0</asrwt>
<pdfrwt beam="1">  1        3 0.64252412E-01 0.15964264E+04</pdfrwt>
<pdfrwt beam="2">  1       -3 0.23470462E+00 0.15964264E+04</pdfrwt>
<totfact> 0.53041298E-01</totfact>
</mgrwt>
</event>
<event>
12    1  0.1489233E-007  0.2545058E+04  0.7818608E-02  0.8387107E-01
          1   -1    0    0  501    0  0.00000000000E+00  0.00000000000E+00  0.22273540197E+04  0.22273540197E+04  0.00000000000E+00 0. -1.
         -1   -1    0    0    0  501 -0.00000000000E+00 -0.00000000000E+00 -0.72701964410E+03  0.72701964410E+03  0.00000000000E+00 0.  1.
         23    2    1    2    0    0 -0.24954229970E+03  0.20776024635E+03  0.18866120672E+04  0.19163762178E+04  0.88074040834E+02 0.  0.
        254    2    1    2    0    0  0.24954229970E+03 -0.20776024635E+03 -0.38627769158E+03  0.10379974460E+04  0.90707913859E+03 0.  0.
        -24    2    4    4    0    0  0.48609611983E+03  0.69786671268E+02  0.21039521541E+01  0.49797765950E+03  0.82569398353E+02 0.  0.
         24    2    4    4    0    0 -0.23655382013E+03 -0.27754691762E+03 -0.38838164373E+03  0.54001978654E+03  0.88267023108E+02 0.  0.
         13    1    3    3    0    0 -0.65734116270E+02  0.49969804855E+02  0.73085941916E+03  0.73550897072E+03  0.00000000000E+00 0. -1.
        -13    1    3    3    0    0 -0.18380818343E+03  0.15779044150E+03  0.11557526480E+04  0.11808672471E+04  0.00000000000E+00 0.  1.
          4    1    6    6  502    0 -0.17143536211E+03 -0.16258523029E+03 -0.19790428558E+03  0.30820471563E+03  0.00000000000E+00 0. -1.
          1    1    5    5  503    0  0.46005812188E+03  0.66839190041E+02  0.21485868719E+02  0.46538435232E+03  0.00000000000E+00 0. -1.
         -2    1    5    5    0  503  0.26037997946E+02  0.29474812267E+01 -0.19381916564E+02  0.32593307171E+02  0.00000000000E+00 0.  1.
         -3    1    6    6    0  502 -0.65118458020E+02 -0.11496168733E+03 -0.19047735816E+03  0.23181507091E+03  0.00000000000E+00 0.  1.
<mgrwt>
<rscale>  0 0.25450581E+04</rscale>
<asrwt>0</asrwt>
<pdfrwt beam="1">  1        1 0.34266985E+00 0.25450581E+04</pdfrwt>
<pdfrwt beam="2">  1       -1 0.11184918E+00 0.25450581E+04</pdfrwt>
<totfact> 0.13543095E+00</totfact>
</mgrwt>
</event>
<event>
12    1  0.1489233E-007  0.1219420E+04  0.7818608E-02  0.9096026E-01
         -1   -1    0    0    0  501 -0.00000000000E+00  0.00000000000E+00  0.55550748489E+03  0.55550748489E+03  0.00000000000E+00 0.  1.
          1   -1    0    0  501    0  0.00000000000E+00 -0.00000000000E+00 -0.66920079627E+03  0.66920079627E+03  0.00000000000E+00 0. -1.
         23    2    1    2    0    0 -0.17797314743E+03  0.13241932873E+03  0.13363093244E+03  0.26663552476E+03  0.63466188896E+02 0.  0.
        254    2    1    2    0    0  0.17797314743E+03 -0.13241932873E+03 -0.24732424382E+03  0.95807275641E+03  0.89862383963E+03 0.  0.
        -24    2    4    4    0    0 -0.20229990292E+03  0.20832303788E+03 -0.31621779071E+03  0.43667980695E+03  0.79823704529E+02 0.  0.
         24    2    4    4    0    0  0.38027305035E+03 -0.34074236661E+03  0.68893546893E+02  0.52139294945E+03  0.79945817345E+02 0.  0.
         11    1    3    3    0    0 -0.15173873190E+03  0.80802618890E+02  0.89364213151E+02  0.19375156405E+03  0.00000000000E+00 0.  1.
        -11    1    3    3    0    0 -0.26234415526E+02  0.51616709839E+02  0.44266719289E+02  0.72883960712E+02  0.00000000000E+00 0. -1.
          4    1    6    6  502    0  0.30936075415E+03 -0.23340295329E+03  0.40442715585E+02  0.38963653327E+03  0.00000000000E+00 0. -1.
          1    1    5    5  503    0 -0.19794227803E+03  0.20732843903E+03 -0.32084832569E+03  0.43024397167E+03  0.00000000000E+00 0. -1.
         -2    1    5    5    0  503 -0.43576248934E+01  0.99459884535E+00  0.46305349777E+01  0.64358352802E+01  0.00000000000E+00 0.  1.
         -3    1    6    6    0  502  0.70912296199E+02 -0.10733941332E+03  0.28450831307E+02  0.13175641618E+03  0.00000000000E+00 0.  1.
<mgrwt>
<rscale>  0 0.12194196E+04</rscale>
<asrwt>0</asrwt>
<pdfrwt beam="1">  1        1 0.10295397E+00 0.12194196E+04</pdfrwt>
<pdfrwt beam="2">  1       -1 0.85462690E-01 0.12194196E+04</pdfrwt>
<totfact> 0.39017347E+01</totfact>
</mgrwt>
</event>
<event>
12    1  0.1489233E-007  0.1318702E+04  0.7818608E-02  0.9014864E-01
         -2   -1    0    0    0  501 -0.00000000000E+00  0.00000000000E+00  0.45002957281E+03  0.45002957281E+03  0.00000000000E+00 0.  1.
          2   -1    0    0  501    0  0.00000000000E+00 -0.00000000000E+00 -0.96603399664E+03  0.96603399664E+03  0.00000000000E+00 0. -1.
         23    2    1    2    0    0 -0.12971634030E+03 -0.28978362594E+03  0.34945849373E+01  0.33047574006E+03  0.91657644743E+02 0.  0.
        254    2    1    2    0    0  0.12971634030E+03  0.28978362594E+03 -0.51949900877E+03  0.10855878294E+04  0.89878853820E+03 0.  0.
        -24    2    4    4    0    0 -0.22040151312E+02  0.47385908417E+03 -0.64537455695E+03  0.80413397488E+03  0.71378784479E+02 0.  0.
         24    2    4    4    0    0  0.15175649161E+03 -0.18407545823E+03  0.12587554818E+03  0.28145385451E+03  0.80360509704E+02 0.  0.
         13    1    3    3    0    0  0.52179908691E+01  0.34704271573E+01  0.44156362155E+01  0.76661030878E+01  0.00000000000E+00 0. -1.
        -13    1    3    3    0    0 -0.13493433117E+03 -0.29325405310E+03 -0.92105127822E+00  0.32280963697E+03  0.00000000000E+00 0.  1.
          4    1    6    6  502    0  0.13402979030E+03 -0.15753476136E+03  0.72330677955E+02  0.21911849009E+03  0.00000000000E+00 0. -1.
          3    1    5    5  503    0 -0.16249729936E+02  0.47360083420E+03 -0.63860418668E+03  0.79522142269E+03  0.00000000000E+00 0. -1.
         -4    1    5    5    0  503 -0.57904213758E+01  0.25824997489E+00 -0.67703702764E+01  0.89125521843E+01  0.00000000000E+00 0.  1.
         -3    1    6    6    0  502  0.17726701305E+02 -0.26540696869E+02  0.53544870230E+02  0.62335364420E+02  0.00000000000E+00 0.  1.
<mgrwt>
<rscale>  0 0.13187022E+04</rscale>
<asrwt>0</asrwt>
<pdfrwt beam="1">  1        2 0.14862061E+00 0.13187022E+04</pdfrwt>
<pdfrwt beam="2">  1       -2 0.69235320E-01 0.13187022E+04</pdfrwt>
<totfact> 0.49405576E+01</totfact>
</mgrwt>
</event>
<event>
12    1  0.1489233E-007  0.1810492E+04  0.7818608E-02  0.8700740E-01
         -1   -1    0    0    0  501 -0.00000000000E+00  0.00000000000E+00  0.15737968342E+04  0.15737968342E+04  0.00000000000E+00 0.  1.
          1   -1    0    0  501    0  0.00000000000E+00 -0.00000000000E+00 -0.52069650936E+03  0.52069650936E+03  0.00000000000E+00 0. -1.
         23    2    1    2    0    0  0.67397714442E+03  0.42823855294E+02  0.33596952321E+03  0.75988325516E+03  0.92021558179E+02 0.  0.
        254    2    1    2    0    0 -0.67397714442E+03 -0.42823855294E+02  0.71713080163E+03  0.13346100884E+04  0.90046011994E+03 0.  0.
        -24    2    4    4    0    0 -0.84853678062E+03 -0.84986592787E+02  0.74698150157E+03  0.11364498700E+04  0.79369731772E+02 0.  0.
         24    2    4    4    0    0  0.17455963620E+03  0.42162737493E+02 -0.29850699938E+02  0.19816021839E+03  0.78279274689E+02 0.  0.
         11    1    3    3    0    0  0.56827518469E+03  0.20982768208E+02  0.24692518378E+03  0.61995887644E+03  0.00000000000E+00 0. -1.
        -11    1    3    3    0    0  0.10570195973E+03  0.21841087086E+02  0.89044339432E+02  0.13992437873E+03  0.00000000000E+00 0.  1.
          4    1    6    6  502    0  0.12463398625E+03  0.36693503392E+02  0.15049254430E+02  0.13079191022E+03  0.00000000000E+00 0. -1.
          1    1    5    5  503    0 -0.23641458438E+03 -0.29196830673E+02  0.16328458885E+03  0.28880125967E+03  0.00000000000E+00 0. -1.
         -2    1    5    5    0  503 -0.61212219624E+03 -0.55789762115E+02  0.58369691272E+03  0.84764861033E+03  0.00000000000E+00 0.  1.
         -3    1    6    6    0  502  0.49925649940E+02  0.54692341013E+01 -0.44899954368E+02  0.67368308171E+02  0.00000000000E+00 0.  1.
<mgrwt>
<rscale>  0 0.18104922E+04</rscale>
<asrwt>0</asrwt>
<pdfrwt beam="1">  1        1 0.80107156E-01 0.18104922E+04</pdfrwt>
<pdfrwt beam="2">  1       -1 0.24212259E+00 0.18104922E+04</pdfrwt>
<totfact> 0.31009032E+00</totfact>
</mgrwt>
</event>
<event>
12    1  0.1489233E-007  0.2346418E+04  0.7818608E-02  0.8459841E-01
          1   -1    0    0  501    0  0.00000000000E+00  0.00000000000E+00  0.37317894631E+03  0.37317894631E+03  0.00000000000E+00 0. -1.
         -1   -1    0    0    0  501 -0.00000000000E+00 -0.00000000000E+00 -0.36883641795E+04  0.36883641795E+04  0.00000000000E+00 0.  1.
         23    2    1    2    0    0  0.10210215111E+03 -0.61466204344E+03 -0.70087782955E+02  0.63357201493E+03  0.90922625717E+02 0.  0.
        254    2    1    2    0    0 -0.10210215111E+03  0.61466204344E+03 -0.32450974502E+04  0.34279711109E+04  0.91219197466E+03 0.  0.
        -24    2    4    4    0    0  0.72690475890E+02  0.79324751747E+03 -0.27892514731E+04  0.29018410791E+04  0.78945162009E+02 0.  0.
         24    2    4    4    0    0 -0.17479262700E+03 -0.17858547403E+03 -0.45584597710E+03  0.52613003180E+03  0.81068005661E+02 0.  0.
         13    1    3    3    0    0  0.32754834370E+02 -0.44423187004E+03 -0.57659141042E+02  0.44915410504E+03  0.00000000000E+00 0. -1.
        -13    1    3    3    0    0  0.69347316736E+02 -0.17043017341E+03 -0.12428641914E+02  0.18441790988E+03  0.00000000000E+00 0.  1.
          2    1    6    6  502    0 -0.15874788790E+03 -0.16953160476E+03 -0.45066579843E+03  0.50699262204E+03  0.00000000000E+00 0. -1.
          1    1    5    5  503    0  0.44070696829E+02  0.68866228796E+03 -0.23355631752E+04  0.24353753958E+04  0.00000000000E+00 0. -1.
         -2    1    5    5    0  503  0.28619779062E+02  0.10458522951E+03 -0.45368829794E+03  0.46646568328E+03  0.00000000000E+00 0.  1.
         -1    1    6    6    0  502 -0.16044739096E+02 -0.90538692651E+01 -0.51801786624E+01  0.19137409760E+02  0.00000000000E+00 0.  1.
<mgrwt>
<rscale>  0 0.23464184E+04</rscale>
<asrwt>0</asrwt>
<pdfrwt beam="1">  1        1 0.57412141E-01 0.23464184E+04</pdfrwt>
<pdfrwt beam="2">  1       -1 0.56744068E+00 0.23464184E+04</pdfrwt>
<totfact> 0.35740414E-02</totfact>
</mgrwt>
</event>
<event>
12    1  0.1489233E-007  0.2677557E+04  0.7818608E-02  0.8342324E-01
         -2   -1    0    0    0  501 -0.00000000000E+00  0.00000000000E+00  0.62120634179E+03  0.62120634179E+03  0.00000000000E+00 0. -1.
          2   -1    0    0  501    0  0.00000000000E+00 -0.00000000000E+00 -0.28852374633E+04  0.28852374633E+04  0.00000000000E+00 0.  1.
         23    2    1    2    0    0 -0.67106903740E+03 -0.93672569232E+03 -0.13855242675E+04  0.18054884888E+04  0.11100680947E+03 0.  0.
        254    2    1    2    0    0  0.67106903740E+03  0.93672569232E+03 -0.87850685399E+03  0.17009553163E+04  0.89089057678E+03 0.  0.
        -24    2    4    4    0    0  0.41094818939E+03  0.10328342437E+04 -0.49079322875E+03  0.12171590812E+04  0.70521246829E+02 0.  0.
         24    2    4    4    0    0  0.26012084801E+03 -0.96108551359E+02 -0.38771362523E+03  0.48379623506E+03  0.82687560480E+02 0.  0.
         11    1    3    3    0    0 -0.22637161158E+03 -0.26287224683E+03 -0.48107282657E+03  0.59310790684E+03  0.00000000000E+00 0. -1.
        -11    1    3    3    0    0 -0.44469742582E+03 -0.67385344550E+03 -0.90445144090E+03  0.12123805819E+04  0.00000000000E+00 0.  1.
          4    1    6    6  502    0  0.19504506661E+03 -0.10241044645E+03 -0.32886650525E+03  0.39583286350E+03  0.00000000000E+00 0. -1.
          3    1    5    5  503    0  0.30720429786E+03  0.72938638057E+03 -0.31859772487E+03  0.85316087760E+03  0.00000000000E+00 0. -1.
         -4    1    5    5    0  503  0.10374389154E+03  0.30344786312E+03 -0.17219550389E+03  0.36399820359E+03  0.00000000000E+00 0.  1.
         -3    1    6    6    0  502  0.65075781402E+02  0.63018950926E+01 -0.58847119979E+02  0.87963371563E+02  0.00000000000E+00 0.  1.
<mgrwt>
<rscale>  0 0.26775570E+04</rscale>
<asrwt>0</asrwt>
<pdfrwt beam="1">  1        2 0.44388269E+00 0.26775570E+04</pdfrwt>
<pdfrwt beam="2">  1       -2 0.95570207E-01 0.26775570E+04</pdfrwt>
<totfact> 0.16566552E+00</totfact>
</mgrwt>
</event>
<event>
12    1  0.1489233E-007  0.1594593E+04  0.7818608E-02  0.8823877E-01
         -2   -1    0    0    0  501 -0.00000000000E+00  0.00000000000E+00  0.54070229966E+03  0.54070229966E+03  0.00000000000E+00 0.  1.
          2   -1    0    0  501    0  0.00000000000E+00 -0.00000000000E+00 -0.11756586410E+04  0.11756586410E+04  0.00000000000E+00 0. -1.
         23    2    1    2    0    0 -0.45832921893E+02  0.13987616481E+03  0.34088044546E+03  0.38300178656E+03  0.93940897361E+02 0.  0.
        254    2    1    2    0    0  0.45832921893E+02 -0.13987616481E+03 -0.97583678685E+03  0.13333591541E+04  0.89661764491E+03 0.  0.
        -24    2    4    4    0    0 -0.38307794542E+03 -0.20286835418E+03 -0.32632082481E+03  0.54836981176E+03  0.79497725453E+02 0.  0.
         24    2    4    4    0    0  0.42891086731E+03  0.62992189366E+02 -0.64951596203E+03  0.78498934238E+03  0.80029586400E+02 0.  0.
         11    1    3    3    0    0 -0.48946442813E+02  0.26669294152E+02  0.70585626525E+02  0.89940737080E+02  0.00000000000E+00 0. -1.
        -11    1    3    3    0    0  0.31135209200E+01  0.11320687066E+03  0.27029481894E+03  0.29306104948E+03  0.00000000000E+00 0.  1.
          2    1    6    6  502    0  0.39129946280E+03  0.47254042041E+02 -0.61992171577E+03  0.73460952060E+03  0.00000000000E+00 0. -1.
          1    1    5    5  503    0 -0.34856699430E+03 -0.17388988043E+03 -0.31730400305E+03  0.50241264950E+03  0.00000000000E+00 0. -1.
         -2    1    5    5    0  503 -0.34510951121E+02 -0.28978473753E+02 -0.90168217634E+01  0.45957162260E+02  0.00000000000E+00 0.  1.
         -1    1    6    6    0  502  0.37611404516E+02  0.15738147324E+02 -0.29594246261E+02  0.50379821781E+02  0.00000000000E+00 0.  1.
<mgrwt>
<rscale>  0 0.15945925E+04</rscale>
<asrwt>0</asrwt>
<pdfrwt beam="1">  1        2 0.18087056E+00 0.15945925E+04</pdfrwt>
<pdfrwt beam="2">  1       -2 0.83184970E-01 0.15945925E+04</pdfrwt>
<totfact> 0.23786172E+01</totfact>
</mgrwt>
</event>
<event>
12    1  0.1489233E-007  0.1152847E+04  0.7818608E-02  0.9155161E-01
         -2   -1    0    0    0  501 -0.00000000000E+00  0.00000000000E+00  0.18169232941E+03  0.18169232941E+03  0.00000000000E+00 0.  1.
          2   -1    0    0  501    0  0.00000000000E+00 -0.00000000000E+00 -0.18287169889E+04  0.18287169889E+04  0.00000000000E+00 0. -1.
         23    2    1    2    0    0  0.12919647598E+03 -0.44242973570E+02 -0.23782601354E+02  0.14913705983E+03  0.55018909212E+02 0.  0.
        254    2    1    2    0    0 -0.12919647598E+03  0.44242973570E+02 -0.16232420581E+04  0.18612722585E+04  0.90042793757E+03 0.  0.
        -24    2    4    4    0    0  0.14633626007E+03 -0.13770852204E+02  0.42679205599E+02  0.16979034013E+03  0.73507194418E+02 0.  0.
         24    2    4    4    0    0 -0.27553273605E+03  0.58013825774E+02 -0.16659212637E+04  0.16914819183E+04  0.80830257446E+02 0.  0.
         11    1    3    3    0    0  0.14253261865E+02  0.76775385933E+01  0.93984362011E+01  0.18719793687E+02  0.00000000000E+00 0. -1.
        -11    1    3    3    0    0  0.11494321412E+03 -0.51920512164E+02 -0.33181037556E+02  0.13041726614E+03  0.00000000000E+00 0.  1.
          4    1    6    6  502    0 -0.75866517850E+02 -0.19826495820E+02 -0.47648820644E+03  0.48289732795E+03  0.00000000000E+00 0. -1.
          1    1    5    5  503    0  0.60290146648E+02  0.10741687589E+02 -0.15370107479E+02  0.63138940750E+02  0.00000000000E+00 0. -1.
         -2    1    5    5    0  503  0.86046113417E+02 -0.24512539793E+02  0.58049313078E+02  0.10665139938E+03  0.00000000000E+00 0.  1.
         -3    1    6    6    0  502 -0.19966621820E+03  0.77840321594E+02 -0.11894330573E+04  0.12085845904E+04  0.00000000000E+00 0.  1.
<mgrwt>
<rscale>  0 0.11528466E+04</rscale>
<asrwt>0</asrwt>
<pdfrwt beam="1">  1        2 0.28134107E+00 0.11528466E+04</pdfrwt>
<pdfrwt beam="2">  1       -2 0.27952667E-01 0.11528466E+04</pdfrwt>
<totfact> 0.96311684E+01</totfact>
</mgrwt>
</event>
<event>
12    1  0.1489233E-007  0.1061799E+04  0.7818608E-02  0.9243246E-01
          2   -1    0    0  501    0  0.00000000000E+00  0.00000000000E+00  0.22466950651E+04  0.22466950651E+04  0.00000000000E+00 0. -1.
         -2   -1    0    0    0  501 -0.00000000000E+00 -0.00000000000E+00 -0.12545286510E+03  0.12545286510E+03  0.00000000000E+00 0.  1.
         23    2    1    2    0    0  0.39033303493E+02  0.82949937300E+02  0.14921586647E+03  0.19532098079E+03  0.86490576673E+02 0.  0.
        254    2    1    2    0    0 -0.39033303493E+02 -0.82949937300E+02  0.19720263335E+04  0.21768269494E+04  0.91721503291E+03 0.  0.
        -24    2    4    4    0    0  0.18993028383E+03 -0.39240234811E+03  0.57819934354E+03  0.72865909659E+03  0.81095515608E+02 0.  0.
         24    2    4    4    0    0 -0.22896358732E+03  0.30945241081E+03  0.13938269900E+04  0.14481678528E+04  0.79065371792E+02 0.  0.
         13    1    3    3    0    0  0.17326165157E+02  0.15993082474E+01 -0.62756443292E+01  0.18496959147E+02  0.00000000000E+00 0.  1.
        -13    1    3    3    0    0  0.21707138335E+02  0.81350629053E+02  0.15549151080E+03  0.17682402165E+03  0.00000000000E+00 0. -1.
          2    1    6    6  502    0 -0.14711595274E+03  0.13275405291E+03  0.71861895181E+03  0.74543942746E+03  0.00000000000E+00 0. -1.
          3    1    5    5  503    0 -0.38611324431E+01 -0.23617159309E+02  0.54077367141E+02  0.59135777618E+02  0.00000000000E+00 0. -1.
         -4    1    5    5    0  503  0.19379141627E+03 -0.36878518880E+03  0.52412197640E+03  0.66952331897E+03  0.00000000000E+00 0.  1.
         -1    1    6    6    0  502 -0.81847634578E+02  0.17669835790E+03  0.67520803819E+03  0.70272842536E+03  0.00000000000E+00 0.  1.
<mgrwt>
<rscale>  0 0.10617991E+04</rscale>
<asrwt>0</asrwt>
<pdfrwt beam="1">  1        2 0.34564536E+00 0.10617991E+04</pdfrwt>
<pdfrwt beam="2">  1       -2 0.19300443E-01 0.10617991E+04</pdfrwt>
<totfact> 0.11067172E+02</totfact>
</mgrwt>
</event>
<event>
12    1  0.1489233E-007  0.1301762E+04  0.7818608E-02  0.9028169E-01
          1   -1    0    0  501    0  0.00000000000E+00  0.00000000000E+00  0.16850240506E+04  0.16850240506E+04  0.00000000000E+00 0. -1.
         -1   -1    0    0    0  501 -0.00000000000E+00 -0.00000000000E+00 -0.25141849666E+03  0.25141849666E+03  0.00000000000E+00 0.  1.
         23    2    1    2    0    0  0.14470449352E+03 -0.24580075270E+03  0.13671062092E+03  0.33164967728E+03  0.99721181768E+02 0.  0.
        254    2    1    2    0    0 -0.14470449352E+03  0.24580075270E+03  0.12968949330E+04  0.16047928700E+04  0.90114720648E+03 0.  0.
        -24    2    4    4    0    0 -0.32624929959E+03  0.41186676280E+03  0.12237101160E+04  0.13341868685E+04  0.80717509397E+02 0.  0.
         24    2    4    4    0    0  0.18154480606E+03 -0.16606601010E+03  0.73184816969E+02  0.27060600142E+03  0.85645515041E+02 0.  0.
         13    1    3    3    0    0  0.48248996356E+02 -0.70888185854E+02 -0.63087751390E+01  0.85981981756E+02  0.00000000000E+00 0. -1.
        -13    1    3    3    0    0  0.96455497169E+02 -0.17491256685E+03  0.14301939606E+03  0.24566769552E+03  0.00000000000E+00 0.  1.
          2    1    6    6  502    0  0.48839382695E+01 -0.43695158633E+02  0.12594515178E+01  0.43985292532E+02  0.00000000000E+00 0. -1.
          1    1    5    5  503    0 -0.20842411524E+03  0.32095987234E+03  0.87083937840E+03  0.95121873112E+03  0.00000000000E+00 0. -1.
         -2    1    5    5    0  503 -0.11782518435E+03  0.90906890465E+02  0.35287073763E+03  0.38296813742E+03  0.00000000000E+00 0.  1.
         -3    1    6    6    0  502  0.17666086779E+03 -0.12237085147E+03  0.71925365452E+02  0.22662070888E+03  0.00000000000E+00 0.  1.
<mgrwt>
<rscale>  0 0.13017622E+04</rscale>
<asrwt>0</asrwt>
<pdfrwt beam="1">  1        1 0.25923446E+00 0.13017622E+04</pdfrwt>
<pdfrwt beam="2">  1       -1 0.38679770E-01 0.13017622E+04</pdfrwt>
<totfact> 0.31050330E+01</totfact>
</mgrwt>
</event>
<event>
12    1  0.1489233E-007  0.2775236E+04  0.7818608E-02  0.8310998E-01
          2   -1    0    0  501    0  0.00000000000E+00  0.00000000000E+00  0.17990899315E+04  0.17990899315E+04  0.00000000000E+00 0. -1.
         -2   -1    0    0    0  501 -0.00000000000E+00 -0.00000000000E+00 -0.10702545428E+04  0.10702545428E+04  0.00000000000E+00 0.  1.
         23    2    1    2    0    0 -0.56008597521E+03  0.10985767630E+04  0.39821415721E+03  0.12989178981E+04  0.89699427113E+02 0.  0.
        254    2    1    2    0    0  0.56008597521E+03 -0.10985767630E+04  0.33062123157E+03  0.15704265762E+04  0.91452830936E+03 0.  0.
        -24    2    4    4    0    0  0.44515847961E+03 -0.68042510073E+03  0.63505164791E+03  0.10346978558E+04  0.78515396612E+02 0.  0.
         24    2    4    4    0    0  0.11492749559E+03 -0.41815166226E+03 -0.30443041635E+03  0.53572872043E+03  0.79172227462E+02 0.  0.
         13    1    3    3    0    0 -0.41257059832E+03  0.84882142775E+03  0.26892528287E+03  0.98134251033E+03  0.00000000000E+00 0. -1.
        -13    1    3    3    0    0 -0.14751537688E+03  0.24975533525E+03  0.12928887434E+03  0.31757538779E+03  0.00000000000E+00 0.  1.
          2    1    6    6  502    0  0.64376863520E+02 -0.27086161595E+03 -0.14926219311E+03  0.31589491582E+03  0.00000000000E+00 0. -1.
          3    1    5    5  503    0  0.28234639055E+03 -0.36537842226E+03  0.37711478081E+03  0.59618489884E+03  0.00000000000E+00 0. -1.
         -4    1    5    5    0  503  0.16281208906E+03 -0.31504667848E+03  0.25793686711E+03  0.43851295691E+03  0.00000000000E+00 0.  1.
         -1    1    6    6    0  502  0.50550632074E+02 -0.14729004632E+03 -0.15516822324E+03  0.21983380461E+03  0.00000000000E+00 0.  1.
<mgrwt>
<rscale>  0 0.27752363E+04</rscale>
<asrwt>0</asrwt>
<pdfrwt beam="1">  1        2 0.27678307E+00 0.27752363E+04</pdfrwt>
<pdfrwt beam="2">  1       -2 0.16465455E+00 0.27752363E+04</pdfrwt>
<totfact> 0.17542333E+00</totfact>
</mgrwt>
</event>
<event>
12    1  0.1489233E-007  0.1943044E+04  0.7818608E-02  0.8633723E-01
          2   -1    0    0  501    0  0.00000000000E+00  0.00000000000E+00  0.65258178827E+03  0.65258178827E+03  0.00000000000E+00 0. -1.
         -2   -1    0    0    0  501 -0.00000000000E+00 -0.00000000000E+00 -0.14463392615E+04  0.14463392615E+04  0.00000000000E+00 0.  1.
         23    2    1    2    0    0 -0.14866654688E+03 -0.63908178280E+03 -0.72008331121E+03  0.97850964161E+03  0.91836138716E+02 0.  0.
        254    2    1    2    0    0  0.14866654688E+03  0.63908178280E+03 -0.73674161973E+02  0.11204114081E+04  0.90518869526E+03 0.  0.
        -24    2    4    4    0    0  0.10170742648E+03  0.84833985720E+03 -0.16648351800E+03  0.87411245790E+03  0.79567036987E+02 0.  0.
         24    2    4    4    0    0  0.46959120397E+02 -0.20925807440E+03  0.92809356028E+02  0.24629895022E+03  0.77817065116E+02 0.  0.
         11    1    3    3    0    0 -0.15877198373E+03 -0.59702167241E+03 -0.65508546972E+03  0.90043344717E+03  0.00000000000E+00 0.  1.
        -11    1    3    3    0    0  0.10105436852E+02 -0.42060110395E+02 -0.64997841491E+02  0.78076194444E+02  0.00000000000E+00 0. -1.
          2    1    6    6  502    0 -0.19541549604E+02 -0.82262307397E+02  0.29015666527E+02  0.89391656676E+02  0.00000000000E+00 0. -1.
          3    1    5    5  503    0  0.10117337647E+03  0.58250369973E+03 -0.94763515175E+02  0.59877102143E+03  0.00000000000E+00 0. -1.
         -4    1    5    5    0  503  0.53405001191E+00  0.26583615747E+03 -0.71720002827E+02  0.27534143647E+03  0.00000000000E+00 0.  1.
         -1    1    6    6    0  502  0.66500670002E+02 -0.12699576700E+03  0.63793689502E+02  0.15690729354E+03  0.00000000000E+00 0.  1.
<mgrwt>
<rscale>  0 0.19430437E+04</rscale>
<asrwt>0</asrwt>
<pdfrwt beam="1">  1        2 0.10039720E+00 0.19430437E+04</pdfrwt>
<pdfrwt beam="2">  1       -2 0.22251373E+00 0.19430437E+04</pdfrwt>
<totfact> 0.39766230E+00</totfact>
</mgrwt>
</event>
<event>
12    1  0.1489233E-007  0.1447736E+04  0.7818608E-02  0.8919972E-01
         -1   -1    0    0    0  501 -0.00000000000E+00  0.00000000000E+00  0.27811085660E+03  0.27811085660E+03  0.00000000000E+00 0.  1.
          1   -1    0    0  501    0  0.00000000000E+00 -0.00000000000E+00 -0.18840855580E+04  0.18840855580E+04  0.00000000000E+00 0. -1.
         23    2    1    2    0    0  0.89900695723E+02  0.26380167445E+03  0.53004315932E+01  0.29335206531E+03  0.91399568447E+02 0.  0.
        254    2    1    2    0    0 -0.89900695723E+02 -0.26380167445E+03 -0.16112751330E+04  0.18688443493E+04  0.90481942352E+03 0.  0.
        -24    2    4    4    0    0  0.27574841064E+03 -0.40940175316E+03 -0.11705292946E+04  0.12728562888E+04  0.79858130342E+02 0.  0.
         24    2    4    4    0    0 -0.36564910636E+03  0.14560007871E+03 -0.44074583842E+03  0.59598806052E+03  0.77757458091E+02 0.  0.
         13    1    3    3    0    0  0.81920451163E+02  0.18381085528E+03  0.41032874449E+02  0.20538034868E+03  0.00000000000E+00 0.  1.
        -13    1    3    3    0    0  0.79802445597E+01  0.79990819169E+02 -0.35732442856E+02  0.87971716631E+02  0.00000000000E+00 0. -1.
          2    1    6    6  502    0 -0.33721953791E+03  0.15029470191E+03 -0.42565665351E+03  0.56346171196E+03  0.00000000000E+00 0. -1.
          3    1    5    5  503    0  0.26847561721E+03 -0.38342482376E+03 -0.11385944762E+04  0.12310528558E+04  0.00000000000E+00 0. -1.
         -4    1    5    5    0  503  0.72727934277E+01 -0.25976929405E+02 -0.31934818358E+02  0.41803432983E+02  0.00000000000E+00 0.  1.
         -1    1    6    6    0  502 -0.28429568446E+02 -0.46946231919E+01 -0.15089184916E+02  0.32526348556E+02  0.00000000000E+00 0.  1.
<mgrwt>
<rscale>  0 0.14477357E+04</rscale>
<asrwt>0</asrwt>
<pdfrwt beam="1">  1        1 0.28985932E+00 0.14477357E+04</pdfrwt>
<pdfrwt beam="2">  1       -1 0.42786285E-01 0.14477357E+04</pdfrwt>
<totfact> 0.18674870E+01</totfact>
</mgrwt>
</event>
<event>
12    1  0.1489233E-007  0.2502136E+04  0.7818608E-02  0.8402225E-01
         -2   -1    0    0    0  501 -0.00000000000E+00  0.00000000000E+00  0.19019303195E+04  0.19019303195E+04  0.00000000000E+00 0. -1.
          2   -1    0    0  501    0  0.00000000000E+00 -0.00000000000E+00 -0.82293792714E+03  0.82293792714E+03  0.00000000000E+00 0.  1.
         23    2    1    2    0    0  0.10890001100E+04  0.75907095590E+02  0.45780510345E+03  0.11873685451E+04  0.92603576718E+02 0.  0.
        254    2    1    2    0    0 -0.10890001100E+04 -0.75907095590E+02  0.62118728890E+03  0.15374997015E+04  0.88676296568E+03 0.  0.
        -24    2    4    4    0    0  0.13509561118E+03 -0.73692321112E+02  0.34968747783E+02  0.17787709939E+03  0.82073545157E+02 0.  0.
         24    2    4    4    0    0 -0.12240957212E+04 -0.22147744776E+01  0.58621854111E+03  0.13596226021E+04  0.80661032856E+02 0.  0.
         11    1    3    3    0    0  0.51858521072E+03  0.65333858193E+01  0.25578353961E+03  0.57827201648E+03  0.00000000000E+00 0. -1.
        -11    1    3    3    0    0  0.57041489933E+03  0.69373709770E+02  0.20202156385E+03  0.60909652867E+03  0.00000000000E+00 0.  1.
          2    1    6    6  502    0 -0.67532829494E+03 -0.41273934726E+02  0.32580514478E+03  0.75094662660E+03  0.00000000000E+00 0. -1.
          1    1    5    5  503    0  0.10944267860E+02  0.17294049905E+02  0.32934830776E+01  0.20729404041E+02  0.00000000000E+00 0. -1.
         -2    1    5    5    0  503  0.12415134332E+03 -0.90986371018E+02  0.31675264705E+02  0.15714769535E+03  0.00000000000E+00 0.  1.
         -1    1    6    6    0  502 -0.54876742629E+03  0.39059160248E+02  0.26041339633E+03  0.60867597549E+03  0.00000000000E+00 0.  1.
<mgrwt>
<rscale>  0 0.25021356E+04</rscale>
<asrwt>0</asrwt>
<pdfrwt beam="1">  1        2 0.12660584E+00 0.25021356E+04</pdfrwt>
<pdfrwt beam="2">  1       -2 0.29260466E+00 0.25021356E+04</pdfrwt>
<totfact> 0.10432778E+00</totfact>
</mgrwt>
</event>
<event>
12    1  0.1489233E-007  0.1234782E+04  0.7818608E-02  0.9082945E-01
         -2   -1    0    0    0  501 -0.00000000000E+00  0.00000000000E+00  0.57180546715E+03  0.57180546715E+03  0.00000000000E+00 0. -1.
          2   -1    0    0  501    0  0.00000000000E+00 -0.00000000000E+00 -0.66661091375E+03  0.66661091375E+03  0.00000000000E+00 0.  1.
         23    2    1    2    0    0 -0.63401795035E+02  0.14348365426E+03 -0.24673985569E+03  0.30646661057E+03  0.91836160402E+02 0.  0.
        254    2    1    2    0    0  0.63401795035E+02 -0.14348365426E+03  0.15193440909E+03  0.93194977032E+03  0.90600163525E+03 0.  0.
        -24    2    4    4    0    0 -0.53118373013E+02  0.34564754263E+03  0.21697628553E+03  0.41831065891E+03  0.74908701721E+02 0.  0.
         24    2    4    4    0    0  0.11652016805E+03 -0.48913119689E+03 -0.65041876438E+02  0.51363911142E+03  0.82270369819E+02 0.  0.
         13    1    3    3    0    0  0.23566874142E+02  0.22897690062E+02 -0.38828699261E+02  0.50866193619E+02  0.00000000000E+00 0. -1.
        -13    1    3    3    0    0 -0.86968669177E+02  0.12058596420E+03 -0.20791115643E+03  0.25560041695E+03  0.00000000000E+00 0.  1.
          4    1    6    6  502    0  0.12154178989E+02 -0.54257747716E+02  0.18664175847E+02  0.58651331734E+02  0.00000000000E+00 0. -1.
          1    1    5    5  503    0 -0.40779230345E+02  0.67530643851E+02  0.40247986859E+02  0.88562034376E+02  0.00000000000E+00 0. -1.
         -2    1    5    5    0  503 -0.12339142668E+02  0.27811689878E+03  0.17672829867E+03  0.32974862453E+03  0.00000000000E+00 0.  1.
         -3    1    6    6    0  502  0.10436598906E+03 -0.43487344918E+03 -0.83706052285E+02  0.45498777968E+03  0.00000000000E+00 0.  1.
<mgrwt>
<rscale>  0 0.12347822E+04</rscale>
<asrwt>0</asrwt>
<pdfrwt beam="1">  1        2 0.10255553E+00 0.12347822E+04</pdfrwt>
<pdfrwt beam="2">  1       -2 0.87970072E-01 0.12347822E+04</pdfrwt>
<totfact> 0.47801341E+01</totfact>
</mgrwt>
</event>
<event>
12    1  0.1489233E-007  0.1641694E+04  0.7818608E-02  0.8795336E-01
         -2   -1    0    0    0  501 -0.00000000000E+00  0.00000000000E+00  0.18181998857E+03  0.18181998857E+03  0.00000000000E+00 0.  1.
          2   -1    0    0  501    0  0.00000000000E+00 -0.00000000000E+00 -0.37058048833E+04  0.37058048833E+04  0.00000000000E+00 0. -1.
         23    2    1    2    0    0 -0.54275650199E+03  0.16003679796E+03 -0.11985461923E+04  0.13283722558E+04  0.88676253308E+02 0.  0.
        254    2    1    2    0    0  0.54275650199E+03 -0.16003679796E+03 -0.23254387025E+04  0.25592526161E+04  0.90659384330E+03 0.  0.
        -24    2    4    4    0    0  0.49475508904E+03 -0.50235786920E+03 -0.14341552422E+04  0.16000736668E+04  0.79299771369E+02 0.  0.
         24    2    4    4    0    0  0.48001412948E+02  0.34232107124E+03 -0.89128346032E+03  0.95917894925E+03  0.78423201861E+02 0.  0.
         13    1    3    3    0    0 -0.41870492337E+03  0.11147607726E+03 -0.82641020440E+03  0.93311015137E+03  0.00000000000E+00 0.  1.
        -13    1    3    3    0    0 -0.12405157862E+03  0.48560720700E+02 -0.37213598788E+03  0.39526210447E+03  0.00000000000E+00 0. -1.
          2    1    6    6  502    0  0.21070855652E+02  0.29964055848E+03 -0.80504896221E+03  0.85926263552E+03  0.00000000000E+00 0. -1.
          1    1    5    5  503    0  0.36368831397E+03 -0.31931939782E+03 -0.95265158998E+03  0.10685406494E+04  0.00000000000E+00 0. -1.
         -2    1    5    5    0  503  0.13106677507E+03 -0.18303847138E+03 -0.48150365219E+03  0.53153301742E+03  0.00000000000E+00 0.  1.
         -1    1    6    6    0  502  0.26930557295E+02  0.42680512764E+02 -0.86234498104E+02  0.99916313729E+02  0.00000000000E+00 0.  1.
<mgrwt>
<rscale>  0 0.16416935E+04</rscale>
<asrwt>0</asrwt>
<pdfrwt beam="1">  1        2 0.57012383E+00 0.16416935E+04</pdfrwt>
<pdfrwt beam="2">  1       -2 0.27972306E-01 0.16416935E+04</pdfrwt>
<totfact> 0.65426700E+00</totfact>
</mgrwt>
</event>
<event>
12    1  0.1537529E-007  0.1850738E+04  0.7818608E-02  0.8679774E-01
         -1   -1    0    0    0  501 -0.00000000000E+00  0.00000000000E+00  0.37087549842E+03  0.37087549842E+03  0.00000000000E+00 0.  1.
          1   -1    0    0  501    0  0.00000000000E+00 -0.00000000000E+00 -0.23088814031E+04  0.23088814031E+04  0.00000000000E+00 0. -1.
         23    2    1    2    0    0  0.43910935199E+02  0.15890944366E+03  0.24697312152E+03  0.31092933309E+03  0.92200574311E+02 0.  0.
        254    2    1    2    0    0 -0.43910935199E+02 -0.15890944366E+03 -0.21849790262E+04  0.23688275684E+04  0.90001684569E+03 0.  0.
        -24    2    4    4    0    0 -0.23999013606E+03  0.18024852743E+03 -0.26543494507E+03  0.40838187542E+03  0.78963593250E+02 0.  0.
         24    2    4    4    0    0  0.19607920086E+03 -0.33915797109E+03 -0.19195440811E+04  0.19604456930E+04  0.72267928546E+02 0.  0.
         13    1    3    3    0    0 -0.27870297715E+01 -0.10809135939E+02  0.26861392434E+02  0.29088474663E+02  0.00000000000E+00 0. -1.
        -13    1    3    3    0    0  0.46697964971E+02  0.16971857960E+03  0.22011172909E+03  0.28184085842E+03  0.00000000000E+00 0.  1.
          4    1    6    6  502    0  0.20256127515E+02 -0.39954575064E+02 -0.12835925698E+03  0.13595137962E+03  0.00000000000E+00 0. -1.
          3    1    5    5  503    0 -0.41109059454E+02  0.14519300373E+02 -0.75912967092E+02  0.87541666795E+02  0.00000000000E+00 0. -1.
         -4    1    5    5    0  503 -0.19888107660E+03  0.16572922706E+03 -0.18952197798E+03  0.32084020862E+03  0.00000000000E+00 0.  1.
         -3    1    6    6    0  502  0.17582307334E+03 -0.29920339603E+03 -0.17911848242E+04  0.18244943134E+04  0.00000000000E+00 0.  1.
<mgrwt>
<rscale>  0 0.18507377E+04</rscale>
<asrwt>0</asrwt>
<pdfrwt beam="1">  1        1 0.35521252E+00 0.18507377E+04</pdfrwt>
<pdfrwt beam="2">  1       -1 0.57057770E-01 0.18507377E+04</pdfrwt>
<totfact> 0.53650458E+00</totfact>
</mgrwt>
</event>
<event>
12    1  0.1489233E-007  0.1544137E+04  0.7818608E-02  0.8855621E-01
         -1   -1    0    0    0  501 -0.00000000000E+00  0.00000000000E+00  0.25609148739E+03  0.25609148739E+03  0.00000000000E+00 0.  1.
          1   -1    0    0  501    0  0.00000000000E+00 -0.00000000000E+00 -0.23276437694E+04  0.23276437694E+04  0.00000000000E+00 0. -1.
         23    2    1    2    0    0  0.40667880864E+03  0.23613483927E+03 -0.38301741701E+03  0.61319481839E+03  0.90322908816E+02 0.  0.
        254    2    1    2    0    0 -0.40667880864E+03 -0.23613483927E+03 -0.16885348650E+04  0.19705404384E+04  0.90040674880E+03 0.  0.
        -24    2    4    4    0    0  0.25724581187E+03  0.58279597084E+02 -0.59087062648E+03  0.65194939204E+03  0.79611515452E+02 0.  0.
         24    2    4    4    0    0 -0.66392462051E+03 -0.29441443636E+03 -0.10976642386E+04  0.13185910464E+04  0.79622891898E+02 0.  0.
         13    1    3    3    0    0  0.33146314971E+03  0.15110185955E+03 -0.27425331749E+03  0.45597639602E+03  0.00000000000E+00 0.  1.
        -13    1    3    3    0    0  0.75215658931E+02  0.85032979724E+02 -0.10876409951E+03  0.15721842237E+03  0.00000000000E+00 0. -1.
          2    1    6    6  502    0 -0.59418553507E+03 -0.24781390652E+03 -0.92964617185E+03  0.11308006841E+04  0.00000000000E+00 0. -1.
          3    1    5    5  503    0  0.22970217005E+03  0.23133112096E+02 -0.49499579907E+03  0.54618592887E+03  0.00000000000E+00 0. -1.
         -4    1    5    5    0  503  0.27543641817E+02  0.35146484988E+02 -0.95874827405E+02  0.10576346317E+03  0.00000000000E+00 0.  1.
         -1    1    6    6    0  502 -0.69739085446E+02 -0.46600529832E+02 -0.16801806670E+03  0.18779036226E+03  0.00000000000E+00 0.  1.
<mgrwt>
<rscale>  0 0.15441370E+04</rscale>
<asrwt>0</asrwt>
<pdfrwt beam="1">  1        1 0.35809904E+00 0.15441370E+04</pdfrwt>
<pdfrwt beam="2">  1       -1 0.39398690E-01 0.15441370E+04</pdfrwt>
<totfact> 0.10771121E+01</totfact>
</mgrwt>
</event>
<event>
12    1  0.1489233E-007  0.1762972E+04  0.7818608E-02  0.8726242E-01
         -1   -1    0    0    0  501 -0.00000000000E+00  0.00000000000E+00  0.19300551069E+03  0.19300551069E+03  0.00000000000E+00 0.  1.
          1   -1    0    0  501    0  0.00000000000E+00 -0.00000000000E+00 -0.40258830106E+04  0.40258830106E+04  0.00000000000E+00 0. -1.
         23    2    1    2    0    0 -0.10328160688E+03  0.59241425693E+03 -0.85749276897E+03  0.10517089062E+04  0.95791609053E+02 0.  0.
        254    2    1    2    0    0  0.10328160688E+03 -0.59241425693E+03 -0.29753847309E+04  0.31671796151E+04  0.90359873569E+03 0.  0.
        -24    2    4    4    0    0 -0.13839101326E+03  0.33420765364E+02 -0.18319631013E+04  0.18392578854E+04  0.80695379650E+02 0.  0.
         24    2    4    4    0    0  0.24167262014E+03 -0.62583502229E+03 -0.11434216296E+04  0.13279217297E+04  0.76733087384E+02 0.  0.
         13    1    3    3    0    0 -0.33319753886E+02  0.99126612902E+02 -0.21115884924E+03  0.23563605623E+03  0.00000000000E+00 0. -1.
        -13    1    3    3    0    0 -0.69961852990E+02  0.49328764403E+03 -0.64633391973E+03  0.81607284995E+03  0.00000000000E+00 0.  1.
          2    1    6    6  502    0  0.24279518908E+03 -0.57904892872E+03 -0.10770606215E+04  0.12467183917E+04  0.00000000000E+00 0. -1.
          3    1    5    5  503    0 -0.10901133579E+03 -0.11790754940E+02 -0.12551642475E+04  0.12599443565E+04  0.00000000000E+00 0. -1.
         -4    1    5    5    0  503 -0.29379677466E+02  0.45211520304E+02 -0.57679885384E+03  0.57931352894E+03  0.00000000000E+00 0.  1.
         -1    1    6    6    0  502 -0.11225689407E+01 -0.46786093571E+02 -0.66361008041E+02  0.81203337991E+02  0.00000000000E+00 0.  1.
<mgrwt>
<rscale>  0 0.17629720E+04</rscale>
<asrwt>0</asrwt>
<pdfrwt beam="1">  1        1 0.61936657E+00 0.17629720E+04</pdfrwt>
<pdfrwt beam="2">  1       -1 0.29693158E-01 0.17629720E+04</pdfrwt>
<totfact> 0.90673907E-01</totfact>
</mgrwt>
</event>
<event>
12    1  0.1489233E-007  0.2359759E+04  0.7818608E-02  0.8454725E-01
          2   -1    0    0  501    0  0.00000000000E+00  0.00000000000E+00  0.19104201925E+04  0.19104201925E+04  0.00000000000E+00 0.  1.
         -2   -1    0    0    0  501 -0.00000000000E+00 -0.00000000000E+00 -0.72869579207E+03  0.72869579207E+03  0.00000000000E+00 0. -1.
         23    2    1    2    0    0 -0.98796018484E+03  0.14567610551E+03  0.47407560810E+03  0.11092778963E+04  0.91994100662E+02 0.  0.
        254    2    1    2    0    0  0.98796018484E+03 -0.14567610551E+03  0.70764879231E+03  0.15298380882E+04  0.91779676856E+03 0.  0.
        -24    2    4    4    0    0  0.76812579702E+03  0.91149103032E+02  0.86364375600E+03  0.11621646073E+04  0.80128885231E+02 0.  0.
         24    2    4    4    0    0  0.21983438781E+03 -0.23682520854E+03 -0.15599496370E+03  0.36767348088E+03  0.80224823951E+02 0.  0.
         13    1    3    3    0    0 -0.77811531975E+03  0.99171915871E+02  0.40941011131E+03  0.88482493126E+03  0.00000000000E+00 0.  1.
        -13    1    3    3    0    0 -0.20984486508E+03  0.46504189634E+02  0.64665496789E+02  0.22445296507E+03  0.00000000000E+00 0. -1.
          4    1    6    6  502    0  0.19416009987E+03 -0.21803991589E+03 -0.16400339399E+03  0.33486812709E+03  0.00000000000E+00 0. -1.
          3    1    5    5  503    0  0.57965209282E+03  0.50164203387E+02  0.60313517895E+03  0.83802448657E+03  0.00000000000E+00 0. -1.
         -4    1    5    5    0  503  0.18847370420E+03  0.40984899645E+02  0.26050857706E+03  0.32414012077E+03  0.00000000000E+00 0.  1.
         -3    1    6    6    0  502  0.25674287948E+02 -0.18785292647E+02  0.80084302901E+01  0.32805353788E+02  0.00000000000E+00 0.  1.
<mgrwt>
<rscale>  0 0.23597586E+04</rscale>
<asrwt>0</asrwt>
<pdfrwt beam="1">  1        2 0.29391080E+00 0.23597586E+04</pdfrwt>
<pdfrwt beam="2">  1       -2 0.11210705E+00 0.23597586E+04</pdfrwt>
<totfact> 0.42415895E+00</totfact>
</mgrwt>
</event>
<event>
12    1  0.1489233E-007  0.1446840E+04  0.7818608E-02  0.8920594E-01
         -1   -1    0    0    0  501 -0.00000000000E+00  0.00000000000E+00  0.11507950861E+04  0.11507950861E+04  0.00000000000E+00 0.  1.
          1   -1    0    0  501    0  0.00000000000E+00 -0.00000000000E+00 -0.45476069614E+03  0.45476069614E+03  0.00000000000E+00 0. -1.
         23    2    1    2    0    0  0.15128398175E+03  0.16272680335E+01 -0.23908999617E+03  0.29711737611E+03  0.90692986404E+02 0.  0.
        254    2    1    2    0    0 -0.15128398175E+03 -0.16272680335E+01  0.93512438615E+03  0.13084384061E+04  0.90258736640E+03 0.  0.
        -24    2    4    4    0    0 -0.28195529594E+03  0.83933094042E+02 -0.49139606153E+02  0.30871470168E+03  0.79665004594E+02 0.  0.
         24    2    4    4    0    0  0.13067131420E+03 -0.85560362075E+02  0.98426399230E+03  0.99972370446E+03  0.79223170944E+02 0.  0.
         13    1    3    3    0    0  0.13433605829E+03  0.34907743220E+02 -0.19465588980E+03  0.23907246292E+03  0.00000000000E+00 0. -1.
        -13    1    3    3    0    0  0.16947923460E+02 -0.33280475186E+02 -0.44434106370E+02  0.58044913190E+02  0.00000000000E+00 0.  1.
          2    1    6    6  502    0  0.14121436925E+03 -0.83049235706E+02  0.93870313360E+03  0.95289151883E+03  0.00000000000E+00 0. -1.
          1    1    5    5  503    0 -0.22605242762E+03  0.33117343457E+02 -0.46327735867E+02  0.23311524528E+03  0.00000000000E+00 0. -1.
         -2    1    5    5    0  503 -0.55902868322E+02  0.50815750585E+02 -0.28118702856E+01  0.75599456404E+02  0.00000000000E+00 0.  1.
         -1    1    6    6    0  502 -0.10543055049E+02 -0.25111263690E+01  0.45560858698E+02  0.46832185628E+02  0.00000000000E+00 0.  1.
<mgrwt>
<rscale>  0 0.14468398E+04</rscale>
<asrwt>0</asrwt>
<pdfrwt beam="1">  1        1 0.69963185E-01 0.14468398E+04</pdfrwt>
<pdfrwt beam="2">  1       -1 0.17704540E+00 0.14468398E+04</pdfrwt>
<totfact> 0.10717374E+01</totfact>
</mgrwt>
</event>
<event>
12    1  0.1489233E-007  0.1105544E+04  0.7818608E-02  0.9199805E-01
         -2   -1    0    0    0  501 -0.00000000000E+00  0.00000000000E+00  0.10643597340E+04  0.10643597340E+04  0.00000000000E+00 0.  1.
          2   -1    0    0  501    0  0.00000000000E+00 -0.00000000000E+00 -0.28708033291E+03  0.28708033291E+03  0.00000000000E+00 0. -1.
         23    2    1    2    0    0  0.19226712090E+02  0.15165941324E+03  0.13265541474E+03  0.22234090090E+03  0.92020503547E+02 0.  0.
        254    2    1    2    0    0 -0.19226712090E+02 -0.15165941324E+03  0.64462398633E+03  0.11290991660E+04  0.91430552814E+03 0.  0.
        -24    2    4    4    0    0 -0.92956109992E+02  0.35934092781E+03  0.40215965432E+03  0.55312744848E+03  0.80317158251E+02 0.  0.
         24    2    4    4    0    0  0.73729397902E+02 -0.51100034105E+03  0.24246433201E+03  0.57597171751E+03  0.79981837933E+02 0.  0.
         13    1    3    3    0    0 -0.10466132416E+02  0.13944520947E+03  0.12859771678E+03  0.18997862809E+03  0.00000000000E+00 0.  1.
        -13    1    3    3    0    0  0.29692844506E+02  0.12214203771E+02  0.40576979581E+01  0.32362272809E+02  0.00000000000E+00 0. -1.
          4    1    6    6  502    0  0.72529537153E+02 -0.41104886529E+03  0.16231462373E+03  0.44784789884E+03  0.00000000000E+00 0. -1.
          1    1    5    5  503    0 -0.83373036085E+02  0.33831573931E+03  0.34009683758E+03  0.48690292825E+03  0.00000000000E+00 0. -1.
         -2    1    5    5    0  503 -0.95830739065E+01  0.21025188506E+02  0.62062816741E+02  0.66224520226E+02  0.00000000000E+00 0.  1.
         -3    1    6    6    0  502  0.11998607495E+01 -0.99951475762E+02  0.80149708282E+02  0.12812381867E+03  0.00000000000E+00 0.  1.
<mgrwt>
<rscale>  0 0.11055438E+04</rscale>
<asrwt>0</asrwt>
<pdfrwt beam="1">  1        2 0.44166205E-01 0.11055438E+04</pdfrwt>
<pdfrwt beam="2">  1       -2 0.16374765E+00 0.11055438E+04</pdfrwt>
<totfact> 0.27030806E+01</totfact>
</mgrwt>
</event>
<event>
12    1  0.1489233E-007  0.1871466E+04  0.7818608E-02  0.8669191E-01
          2   -1    0    0  501    0  0.00000000000E+00  0.00000000000E+00  0.22225984441E+04  0.22225984441E+04  0.00000000000E+00 0. -1.
         -2   -1    0    0    0  501 -0.00000000000E+00 -0.00000000000E+00 -0.39395164570E+03  0.39395164570E+03  0.00000000000E+00 0.  1.
         23    2    1    2    0    0 -0.80690667473E+02 -0.26174706174E+03 -0.21858911063E+03  0.36206640235E+03  0.91040498007E+02 0.  0.
        254    2    1    2    0    0  0.80690667473E+02  0.26174706174E+03  0.20472359090E+04  0.22544836874E+04  0.90360352015E+03 0.  0.
        -24    2    4    4    0    0  0.12515913395E+03 -0.25518849234E+03  0.26661726342E+03  0.39801514889E+03  0.80903140585E+02 0.  0.
         24    2    4    4    0    0 -0.44468466480E+02  0.51693555408E+03  0.17806186456E+04  0.18564685385E+04  0.81687587933E+02 0.  0.
         11    1    3    3    0    0 -0.54996667052E+02 -0.73292020268E+02 -0.10958353499E+03  0.14284573764E+03  0.00000000000E+00 0. -1.
        -11    1    3    3    0    0 -0.25694000421E+02 -0.18845504148E+03 -0.10900557564E+03  0.21922066471E+03  0.00000000000E+00 0.  1.
          4    1    6    6  502    0 -0.12203969614E+02  0.42011648770E+03  0.13494412798E+04  0.14133784234E+04  0.00000000000E+00 0. -1.
          1    1    5    5  503    0  0.20368325840E+02 -0.87917533189E+02  0.43702983758E+02  0.10027119292E+03  0.00000000000E+00 0. -1.
         -2    1    5    5    0  503  0.10479080811E+03 -0.16727095915E+03  0.22291427967E+03  0.29774395597E+03  0.00000000000E+00 0.  1.
         -3    1    6    6    0  502 -0.32264496865E+02  0.96819066383E+02  0.43117736577E+03  0.44309011513E+03  0.00000000000E+00 0.  1.
<mgrwt>
<rscale>  0 0.18714661E+04</rscale>
<asrwt>0</asrwt>
<pdfrwt beam="1">  1        2 0.34193822E+00 0.18714661E+04</pdfrwt>
<pdfrwt beam="2">  1       -2 0.60607947E-01 0.18714661E+04</pdfrwt>
<totfact> 0.11936219E+01</totfact>
</mgrwt>
</event>
<event>
12    1  0.1489233E-007  0.1111840E+04  0.7818608E-02  0.9193728E-01
         -2   -1    0    0    0  501 -0.00000000000E+00  0.00000000000E+00  0.19946620875E+04  0.19946620875E+04  0.00000000000E+00 0.  1.
          2   -1    0    0  501    0  0.00000000000E+00 -0.00000000000E+00 -0.15493704075E+03  0.15493704075E+03  0.00000000000E+00 0. -1.
         23    2    1    2    0    0  0.13167643142E+03  0.10404377980E+03  0.38777393649E+03  0.43225014373E+03  0.91146970502E+02 0.  0.
        254    2    1    2    0    0 -0.13167643142E+03 -0.10404377980E+03  0.14519511102E+04  0.17173489845E+04  0.90164389719E+03 0.  0.
        -24    2    4    4    0    0 -0.31771653422E+03 -0.70405879249E+02  0.14734537245E+04  0.15110927295E+04  0.80215802668E+02 0.  0.
         24    2    4    4    0    0  0.18604010280E+03 -0.33637900547E+02 -0.21502614232E+02  0.20625625502E+03  0.79604347321E+02 0.  0.
         13    1    3    3    0    0  0.41581027826E+02  0.78381171826E+02  0.25307621352E+03  0.26817934265E+03  0.00000000000E+00 0.  1.
        -13    1    3    3    0    0  0.90095403595E+02  0.25662607970E+02  0.13469772297E+03  0.16407080109E+03  0.00000000000E+00 0. -1.
          4    1    6    6  502    0  0.17859323872E+03 -0.87144042035E+01 -0.22555364813E+02  0.18022272398E+03  0.00000000000E+00 0. -1.
          1    1    5    5  503    0 -0.31752766573E+03 -0.67266818158E+02  0.14724391994E+04  0.15077883934E+04  0.00000000000E+00 0. -1.
         -2    1    5    5    0  503 -0.18886848531E+00 -0.31390610903E+01  0.10145250628E+01  0.33043360811E+01  0.00000000000E+00 0.  1.
         -3    1    6    6    0  502  0.74468640826E+01 -0.24923496344E+02  0.10527505812E+01  0.26033531041E+02  0.00000000000E+00 0.  1.
<mgrwt>
<rscale>  0 0.11118400E+04</rscale>
<asrwt>0</asrwt>
<pdfrwt beam="1">  1        2 0.23836469E-01 0.11118400E+04</pdfrwt>
<pdfrwt beam="2">  1       -2 0.30687107E+00 0.11118400E+04</pdfrwt>
<totfact> 0.67129964E+00</totfact>
</mgrwt>
</event>
<event>
12    1  0.1489233E-007  0.2399739E+04  0.7818608E-02  0.8439601E-01
         -1   -1    0    0    0  501 -0.00000000000E+00  0.00000000000E+00  0.74618229239E+03  0.74618229239E+03  0.00000000000E+00 0.  1.
          1   -1    0    0  501    0  0.00000000000E+00 -0.00000000000E+00 -0.19294030940E+04  0.19294030940E+04  0.00000000000E+00 0. -1.
         23    2    1    2    0    0  0.55263288746E+01  0.79211659869E+03 -0.10799906409E+04  0.13424076561E+04  0.90549901074E+02 0.  0.
        254    2    1    2    0    0 -0.55263288746E+01 -0.79211659869E+03 -0.10323016071E+03  0.13331777303E+04  0.10673458428E+04 0.  0.
        -24    2    4    4    0    0  0.21701272897E+03 -0.62209529840E+03 -0.50590350049E+03  0.83455053818E+03  0.80244402638E+02 0.  0.
         24    2    4    4    0    0 -0.22253905784E+03 -0.17002130029E+03  0.40267333977E+03  0.49862719208E+03  0.89735072844E+02 0.  0.
         11    1    3    3    0    0  0.45188578762E+02  0.55837907193E+03 -0.75559199139E+03  0.94061068093E+03  0.00000000000E+00 0. -1.
        -11    1    3    3    0    0 -0.39662249887E+02  0.23373752675E+03 -0.32439864953E+03  0.40179697522E+03  0.00000000000E+00 0.  1.
          2    1    6    6  502    0 -0.19235751400E+03 -0.11763285507E+03  0.35941381406E+03  0.42428432863E+03  0.00000000000E+00 0. -1.
          3    1    5    5  503    0  0.14343311930E+03 -0.50780942228E+03 -0.39560720001E+03  0.65950627424E+03  0.00000000000E+00 0. -1.
         -4    1    5    5    0  503  0.73579609671E+02 -0.11428587612E+03 -0.11029630048E+03  0.17504426395E+03  0.00000000000E+00 0.  1.
         -1    1    6    6    0  502 -0.30181543847E+02 -0.52388445213E+02  0.43259525716E+02  0.74342863450E+02  0.00000000000E+00 0.  1.
<mgrwt>
<rscale>  0 0.23997387E+04</rscale>
<asrwt>0</asrwt>
<pdfrwt beam="1">  1        1 0.29683125E+00 0.23997387E+04</pdfrwt>
<pdfrwt beam="2">  1       -1 0.11479728E+00 0.23997387E+04</pdfrwt>
<totfact> 0.20552330E+00</totfact>
</mgrwt>
</event>
<event>
12    1  0.1489233E-007  0.1177257E+04  0.7818608E-02  0.9133000E-01
         -1   -1    0    0    0  501 -0.00000000000E+00  0.00000000000E+00  0.17355209844E+03  0.17355209844E+03  0.00000000000E+00 0.  1.
          1   -1    0    0  501    0  0.00000000000E+00 -0.00000000000E+00 -0.19964226740E+04  0.19964226740E+04  0.00000000000E+00 0. -1.
         23    2    1    2    0    0 -0.33104120770E+02  0.14220270073E+03 -0.73052541825E+03  0.75024905538E+03  0.88818733906E+02 0.  0.
        254    2    1    2    0    0  0.33104120770E+02 -0.14220270073E+03 -0.10923451573E+04  0.14197257170E+04  0.89503389771E+03 0.  0.
        -24    2    4    4    0    0 -0.78101015184E+02 -0.42396837248E+03 -0.10019896163E+04  0.10937678955E+04  0.80598192329E+02 0.  0.
         24    2    4    4    0    0  0.11120513595E+03  0.28176567175E+03 -0.90355540934E+02  0.32595782149E+03  0.79535536551E+02 0.  0.
         11    1    3    3    0    0 -0.13395018801E+02  0.12657830470E+02 -0.17952483107E+02  0.25728172313E+02  0.00000000000E+00 0.  1.
        -11    1    3    3    0    0 -0.19709101969E+02  0.12954487026E+03 -0.71257293514E+03  0.72452088307E+03  0.00000000000E+00 0. -1.
          2    1    6    6  502    0  0.86205672751E+01  0.29570020776E+02  0.14702470107E+02  0.34130088428E+02  0.00000000000E+00 0. -1.
          1    1    5    5  503    0 -0.48526949410E+02 -0.19134211786E+03 -0.55395791755E+03  0.58807826461E+03  0.00000000000E+00 0. -1.
         -2    1    5    5    0  503 -0.29574065774E+02 -0.23262625462E+03 -0.44803169878E+03  0.50568963091E+03  0.00000000000E+00 0.  1.
         -1    1    6    6    0  502  0.10258456868E+03  0.25219565098E+03 -0.10505801104E+03  0.29182773306E+03  0.00000000000E+00 0.  1.
<mgrwt>
<rscale>  0 0.11772567E+04</rscale>
<asrwt>0</asrwt>
<pdfrwt beam="1">  1        1 0.30714193E+00 0.11772567E+04</pdfrwt>
<pdfrwt beam="2">  1       -1 0.26700325E-01 0.11772567E+04</pdfrwt>
<totfact> 0.37223083E+01</totfact>
</mgrwt>
</event>
<event>
12    1  0.1489233E-007  0.3111385E+04  0.7818608E-02  0.8212620E-01
          1   -1    0    0  501    0  0.00000000000E+00  0.00000000000E+00  0.16125284228E+04  0.16125284228E+04  0.00000000000E+00 0. -1.
         -1   -1    0    0    0  501 -0.00000000000E+00 -0.00000000000E+00 -0.15008596091E+04  0.15008596091E+04  0.00000000000E+00 0.  1.
         23    2    1    2    0    0  0.49632291213E+03 -0.99486069337E+03 -0.83747650404E+03  0.13952703194E+04  0.96582280929E+02 0.  0.
        254    2    1    2    0    0 -0.49632291213E+03  0.99486069337E+03  0.94914531776E+03  0.17181177125E+04  0.90275545281E+03 0.  0.
        -24    2    4    4    0    0  0.51225775394E+02  0.24760054485E+03  0.71051825679E+03  0.75824317466E+03  0.78526484774E+02 0.  0.
         24    2    4    4    0    0 -0.54754868752E+03  0.74726014852E+03  0.23862706097E+03  0.95987453787E+03  0.78796950811E+02 0.  0.
         13    1    3    3    0    0  0.22387275415E+03 -0.42978196374E+03 -0.42431347308E+03  0.64410672240E+03  0.00000000000E+00 0.  1.
        -13    1    3    3    0    0  0.27245015798E+03 -0.56507872964E+03 -0.41316303097E+03  0.75116359698E+03  0.00000000000E+00 0. -1.
          4    1    6    6  502    0 -0.53013766541E+03  0.70174777197E+03  0.21341395478E+03  0.90500905843E+03  0.00000000000E+00 0. -1.
          1    1    5    5  503    0  0.70986401509E+02  0.21600378148E+03  0.61821225974E+03  0.65869803469E+03  0.00000000000E+00 0. -1.
         -2    1    5    5    0  503 -0.19760626116E+02  0.31596763372E+02  0.92305997053E+02  0.99545139971E+02  0.00000000000E+00 0.  1.
         -3    1    6    6    0  502 -0.17411022107E+02  0.45512376552E+02  0.25213106193E+02  0.54865479440E+02  0.00000000000E+00 0.  1.
<mgrwt>
<rscale>  0 0.31113848E+04</rscale>
<asrwt>0</asrwt>
<pdfrwt beam="1">  1        1 0.24808130E+00 0.31113848E+04</pdfrwt>
<pdfrwt beam="2">  1       -1 0.23090148E+00 0.31113848E+04</pdfrwt>
<totfact> 0.42937817E-01</totfact>
</mgrwt>
</event>
<event>
12    1  0.1489233E-007  0.1331232E+04  0.7818608E-02  0.9005158E-01
          1   -1    0    0  501    0  0.00000000000E+00  0.00000000000E+00  0.14821594793E+04  0.14821594793E+04  0.00000000000E+00 0. -1.
         -1   -1    0    0    0  501 -0.00000000000E+00 -0.00000000000E+00 -0.29891830612E+03  0.29891830612E+03  0.00000000000E+00 0.  1.
         23    2    1    2    0    0  0.34131991687E+02 -0.18655471675E+03  0.73198516299E+03  0.76150434617E+03  0.90105134151E+02 0.  0.
        254    2    1    2    0    0 -0.34131991687E+02  0.18655471675E+03  0.45125601019E+03  0.10195734392E+04  0.89438825802E+03 0.  0.
        -24    2    4    4    0    0  0.20695882738E+03 -0.29374525204E+03  0.14542381388E+03  0.39587504943E+03  0.80316497619E+02 0.  0.
         24    2    4    4    0    0 -0.24109081907E+03  0.48029996879E+03  0.30583219631E+03  0.62369838981E+03  0.81569026561E+02 0.  0.
         11    1    3    3    0    0 -0.11521262032E+02 -0.14592078432E+03  0.56612692813E+03  0.58474380161E+03  0.00000000000E+00 0. -1.
        -11    1    3    3    0    0  0.45653253720E+02 -0.40633932426E+02  0.16585823486E+03  0.17676054455E+03  0.00000000000E+00 0.  1.
          4    1    6    6  502    0 -0.91809156572E+02  0.25209271590E+03  0.12132925915E+03  0.29444939763E+03  0.00000000000E+00 0. -1.
          1    1    5    5  503    0  0.35810513885E+02 -0.11100857957E+03  0.61182343826E+02  0.13171399637E+03  0.00000000000E+00 0. -1.
         -2    1    5    5    0  503  0.17114831349E+03 -0.18273667247E+03  0.84241470051E+02  0.26416105306E+03  0.00000000000E+00 0.  1.
         -3    1    6    6    0  502 -0.14928166249E+03  0.22820725289E+03  0.18450293717E+03  0.32924899218E+03  0.00000000000E+00 0.  1.
<mgrwt>
<rscale>  0 0.13312319E+04</rscale>
<asrwt>0</asrwt>
<pdfrwt beam="1">  1        1 0.22802453E+00 0.13312319E+04</pdfrwt>
<pdfrwt beam="2">  1       -1 0.45987433E-01 0.13312319E+04</pdfrwt>
<totfact> 0.31020729E+01</totfact>
</mgrwt>
</event>
<event>
12    1  0.1489233E-007  0.1516723E+04  0.7818608E-02  0.8873408E-01
          1   -1    0    0  501    0  0.00000000000E+00  0.00000000000E+00  0.49950610148E+03  0.49950610148E+03  0.00000000000E+00 0. -1.
         -1   -1    0    0    0  501 -0.00000000000E+00 -0.00000000000E+00 -0.11513620384E+04  0.11513620384E+04  0.00000000000E+00 0.  1.
         23    2    1    2    0    0  0.17765293056E+03  0.44709158402E+03 -0.17824776745E+03  0.52048125875E+03  0.87618638835E+02 0.  0.
        254    2    1    2    0    0 -0.17765293056E+03 -0.44709158402E+03 -0.47360816952E+03  0.11303868812E+04  0.90665227879E+03 0.  0.
        -24    2    4    4    0    0 -0.20999827755E+03 -0.15507657801E+03 -0.69945515336E+03  0.75093097032E+03  0.80695656670E+02 0.  0.
         24    2    4    4    0    0  0.32345346985E+02 -0.29201500602E+03  0.22584698383E+03  0.37945591085E+03  0.81614600159E+02 0.  0.
         11    1    3    3    0    0  0.15105282511E+02  0.23227535205E+01 -0.31452956479E+01  0.15603128801E+02  0.00000000000E+00 0. -1.
        -11    1    3    3    0    0  0.16254764805E+03  0.44476883050E+03 -0.17510247180E+03  0.50487812995E+03  0.00000000000E+00 0.  1.
          4    1    6    6  502    0  0.18299205137E+02 -0.25395114865E+03  0.22354288181E+03  0.33881774867E+03  0.00000000000E+00 0. -1.
          1    1    5    5  503    0 -0.59652650796E+02 -0.88768444486E+02 -0.23281534242E+03  0.25620550179E+03  0.00000000000E+00 0. -1.
         -2    1    5    5    0  503 -0.15034562675E+03 -0.66308133519E+02 -0.46663981094E+03  0.49472546852E+03  0.00000000000E+00 0.  1.
         -3    1    6    6    0  502  0.14046141847E+02 -0.38063857372E+02  0.23041020231E+01  0.40638162175E+02  0.00000000000E+00 0.  1.
<mgrwt>
<rscale>  0 0.15167233E+04</rscale>
<asrwt>0</asrwt>
<pdfrwt beam="1">  1        1 0.76847093E-01 0.15167233E+04</pdfrwt>
<pdfrwt beam="2">  1       -1 0.17713262E+00 0.15167233E+04</pdfrwt>
<totfact> 0.93570455E+00</totfact>
</mgrwt>
</event>
<event>
12    1  0.1489233E-007  0.1387383E+04  0.7818608E-02  0.8963002E-01
         -2   -1    0    0    0  501 -0.00000000000E+00  0.00000000000E+00  0.15417343957E+03  0.15417343957E+03  0.00000000000E+00 0.  1.
          2   -1    0    0  501    0  0.00000000000E+00 -0.00000000000E+00 -0.31212125981E+04  0.31212125981E+04  0.00000000000E+00 0. -1.
         23    2    1    2    0    0  0.15840950467E+03  0.35079174634E+03 -0.68901216048E+03  0.79750012495E+03  0.11454375377E+03 0.  0.
        254    2    1    2    0    0 -0.15840950467E+03 -0.35079174634E+03 -0.22780269981E+04  0.24778859127E+04  0.89574727027E+03 0.  0.
        -24    2    4    4    0    0 -0.33026498635E+03 -0.38304121439E+03 -0.60276039205E+03  0.79164866013E+03  0.87131955827E+02 0.  0.
         24    2    4    4    0    0  0.17185548169E+03  0.32249468051E+02 -0.16752666060E+04  0.16862372526E+04  0.79394811555E+02 0.  0.
         11    1    3    3    0    0  0.44384692349E+02  0.32084995538E+02 -0.16331723400E+03  0.17225552756E+03  0.00000000000E+00 0. -1.
        -11    1    3    3    0    0  0.11402481232E+03  0.31870675080E+03 -0.52569492648E+03  0.62524459738E+03  0.00000000000E+00 0.  1.
          2    1    6    6  502    0  0.73043003017E+02  0.53419377559E+02 -0.85170201864E+03  0.85649590702E+03  0.00000000000E+00 0. -1.
          1    1    5    5  503    0 -0.19697261790E+03 -0.17483584164E+03 -0.27087975325E+03  0.37781162561E+03  0.00000000000E+00 0. -1.
         -2    1    5    5    0  503 -0.13329236846E+03 -0.20820537275E+03 -0.33188063880E+03  0.41383703452E+03  0.00000000000E+00 0.  1.
         -1    1    6    6    0  502  0.98812478672E+02 -0.21169909509E+02 -0.82356458738E+03  0.82974134560E+03  0.00000000000E+00 0.  1.
<mgrwt>
<rscale>  0 0.13873833E+04</rscale>
<asrwt>0</asrwt>
<pdfrwt beam="1">  1        2 0.48018650E+00 0.13873833E+04</pdfrwt>
<pdfrwt beam="2">  1       -2 0.23718993E-01 0.13873833E+04</pdfrwt>
<totfact> 0.22669316E+01</totfact>
</mgrwt>
</event>
<event>
12    1  0.1489233E-007  0.2049790E+04  0.7818608E-02  0.8583690E-01
          2   -1    0    0  501    0  0.00000000000E+00  0.00000000000E+00  0.15644298280E+04  0.15644298280E+04  0.00000000000E+00 0.  1.
         -2   -1    0    0    0  501 -0.00000000000E+00 -0.00000000000E+00 -0.67143273283E+03  0.67143273283E+03  0.00000000000E+00 0. -1.
         23    2    1    2    0    0  0.22948584739E+03 -0.13003647738E+03 -0.49189171198E+03  0.56515492672E+03  0.88709612135E+02 0.  0.
        254    2    1    2    0    0 -0.22948584739E+03  0.13003647738E+03  0.13848888071E+04  0.16707076341E+04  0.89653429991E+03 0.  0.
        -24    2    4    4    0    0  0.20842479308E+03  0.36203446906E+03  0.53366326647E+03  0.68254426770E+03  0.80995951932E+02 0.  0.
         24    2    4    4    0    0 -0.43791064046E+03 -0.23199799168E+03  0.85122554065E+03  0.98816336639E+03  0.79329190359E+02 0.  0.
         13    1    3    3    0    0  0.13600757621E+03 -0.69440272134E+02 -0.36864605320E+03  0.39902371448E+03  0.00000000000E+00 0. -1.
        -13    1    3    3    0    0  0.93478271174E+02 -0.60596205247E+02 -0.12324565878E+03  0.16613121224E+03  0.00000000000E+00 0.  1.
          2    1    6    6  502    0 -0.35290533917E+03 -0.14913391938E+03  0.64424301535E+03  0.74955464588E+03  0.00000000000E+00 0. -1.
          1    1    5    5  503    0  0.19648789274E+03  0.28632151657E+03  0.41292954545E+03  0.53953527443E+03  0.00000000000E+00 0. -1.
         -2    1    5    5    0  503  0.11936900332E+02  0.75712952491E+02  0.12073372103E+03  0.14300899328E+03  0.00000000000E+00 0.  1.
         -1    1    6    6    0  502 -0.85005301291E+02 -0.82864072297E+02  0.20698252529E+03  0.23860872051E+03  0.00000000000E+00 0.  1.
<mgrwt>
<rscale>  0 0.20497896E+04</rscale>
<asrwt>0</asrwt>
<pdfrwt beam="1">  1        2 0.24068151E+00 0.20497896E+04</pdfrwt>
<pdfrwt beam="2">  1       -2 0.10329734E+00 0.20497896E+04</pdfrwt>
<totfact> 0.82603888E+00</totfact>
</mgrwt>
</event>
<event>
12    1  0.1489233E-007  0.2482386E+04  0.7818608E-02  0.8409287E-01
          2   -1    0    0  501    0  0.00000000000E+00  0.00000000000E+00  0.18956002506E+04  0.18956002506E+04  0.00000000000E+00 0. -1.
         -2   -1    0    0    0  501 -0.00000000000E+00 -0.00000000000E+00 -0.81270331313E+03  0.81270331313E+03  0.00000000000E+00 0.  1.
         23    2    1    2    0    0 -0.35759705794E+03  0.27679534705E+03  0.15329628411E+04  0.16006636267E+04  0.87508019868E+02 0.  0.
        254    2    1    2    0    0  0.35759705794E+03 -0.27679534705E+03 -0.45006590363E+03  0.11076399371E+04  0.90543668611E+03 0.  0.
        -24    2    4    4    0    0  0.42939874224E+03  0.20481363523E+03 -0.75350460717E+02  0.48792832407E+03  0.77874594588E+02 0.  0.
         24    2    4    4    0    0 -0.71801684306E+02 -0.48160898228E+03 -0.37471544291E+03  0.61971161299E+03  0.80796821936E+02 0.  0.
         11    1    3    3    0    0 -0.24886055848E+03  0.14645556488E+03  0.88992936700E+03  0.93560413012E+03  0.00000000000E+00 0.  1.
        -11    1    3    3    0    0 -0.10873649946E+03  0.13033978216E+03  0.64303347411E+03  0.66505949656E+03  0.00000000000E+00 0. -1.
          2    1    6    6  502    0 -0.63984137556E+02 -0.31023592578E+03 -0.19871745968E+03  0.37393706460E+03  0.00000000000E+00 0. -1.
          1    1    5    5  503    0  0.21846830692E+03  0.96245970981E+02 -0.76524264871E+02  0.25069433813E+03  0.00000000000E+00 0. -1.
         -2    1    5    5    0  503  0.21093043533E+03  0.10856766425E+03  0.11738041545E+01  0.23723398594E+03  0.00000000000E+00 0.  1.
         -1    1    6    6    0  502 -0.78175467501E+01 -0.17137305650E+03 -0.17599798324E+03  0.24577454838E+03  0.00000000000E+00 0.  1.
<mgrwt>
<rscale>  0 0.24823864E+04</rscale>
<asrwt>0</asrwt>
<pdfrwt beam="1">  1        2 0.29163080E+00 0.24823864E+04</pdfrwt>
<pdfrwt beam="2">  1       -2 0.12503128E+00 0.24823864E+04</pdfrwt>
<totfact> 0.32684458E+00</totfact>
</mgrwt>
</event>
<event>
12    1  0.1489233E-007  0.2270099E+04  0.7818608E-02  0.8489805E-01
          2   -1    0    0  501    0  0.00000000000E+00  0.00000000000E+00  0.35424154164E+04  0.35424154164E+04  0.00000000000E+00 0. -1.
         -2   -1    0    0    0  501 -0.00000000000E+00 -0.00000000000E+00 -0.36368891697E+03  0.36368891697E+03  0.00000000000E+00 0.  1.
         23    2    1    2    0    0 -0.81388512814E+03 -0.28189680739E+02  0.22140176042E+04  0.23608012214E+04  0.91130649208E+02 0.  0.
        254    2    1    2    0    0  0.81388512814E+03  0.28189680739E+02  0.96470889517E+03  0.15453031119E+04  0.89111996691E+03 0.  0.
        -24    2    4    4    0    0  0.50849056149E+03  0.41052916782E+03  0.31970947702E+03  0.73172320457E+03  0.78152732882E+02 0.  0.
         24    2    4    4    0    0  0.30539456665E+03 -0.38233948708E+03  0.64499941815E+03  0.81357990737E+03  0.80241457743E+02 0.  0.
         11    1    3    3    0    0 -0.78254268540E+03 -0.44424137776E+02  0.21035660529E+04  0.22448466980E+04  0.00000000000E+00 0. -1.
        -11    1    3    3    0    0 -0.31342442736E+02  0.16234457037E+02  0.11045155134E+03  0.11595452343E+03  0.00000000000E+00 0.  1.
          2    1    6    6  502    0  0.25827808664E+03 -0.27230631947E+03  0.50901643431E+03  0.63242077137E+03  0.00000000000E+00 0. -1.
          3    1    5    5  503    0  0.49391401054E+03  0.38481118832E+03  0.29074085232E+03  0.69033393635E+03  0.00000000000E+00 0. -1.
         -4    1    5    5    0  503  0.14576550949E+02  0.25717979491E+02  0.28968624703E+02  0.41389268221E+02  0.00000000000E+00 0.  1.
         -1    1    6    6    0  502  0.47116480015E+02 -0.11003316760E+03  0.13598298384E+03  0.18115913600E+03  0.00000000000E+00 0.  1.
<mgrwt>
<rscale>  0 0.22700989E+04</rscale>
<asrwt>0</asrwt>
<pdfrwt beam="1">  1        2 0.54498696E+00 0.22700989E+04</pdfrwt>
<pdfrwt beam="2">  1       -2 0.55952143E-01 0.22700989E+04</pdfrwt>
<totfact> 0.20754850E+00</totfact>
</mgrwt>
</event>
<event>
12    1  0.1489233E-007  0.1416568E+04  0.7818608E-02  0.8941913E-01
          1   -1    0    0  501    0  0.00000000000E+00  0.00000000000E+00  0.11946925817E+04  0.11946925817E+04  0.00000000000E+00 0. -1.
         -1   -1    0    0    0  501 -0.00000000000E+00 -0.00000000000E+00 -0.41991225465E+03  0.41991225465E+03  0.00000000000E+00 0.  1.
         23    2    1    2    0    0  0.13881447741E+02  0.41151592801E+03  0.30822122615E+03  0.52239150295E+03  0.91402978662E+02 0.  0.
        254    2    1    2    0    0 -0.13881447741E+02 -0.41151592801E+03  0.46655910085E+03  0.10922133333E+04  0.89761601888E+03 0.  0.
        -24    2    4    4    0    0  0.36339659654E+03 -0.39684579345E+03  0.44767093729E+03  0.70545861235E+03  0.87857358819E+02 0.  0.
         24    2    4    4    0    0 -0.37727804428E+03 -0.14670134565E+02  0.18888163564E+02  0.38675472099E+03  0.81660981784E+02 0.  0.
         13    1    3    3    0    0  0.46991482283E+02  0.25616038218E+03  0.21853619286E+03  0.33997707040E+03  0.00000000000E+00 0. -1.
        -13    1    3    3    0    0 -0.33110034542E+02  0.15535554583E+03  0.89685033289E+02  0.18241443256E+03  0.00000000000E+00 0.  1.
          4    1    6    6  502    0 -0.12741828177E+03  0.14750909283E+01 -0.31708669106E+02  0.13131273403E+03  0.00000000000E+00 0. -1.
          1    1    5    5  503    0  0.13663834368E+03 -0.13929596251E+03  0.21785088499E+03  0.29245924541E+03  0.00000000000E+00 0. -1.
         -2    1    5    5    0  503  0.22675825286E+03 -0.25754983094E+03  0.22982005229E+03  0.41299936694E+03  0.00000000000E+00 0.  1.
         -3    1    6    6    0  502 -0.24985976251E+03 -0.16145225493E+02  0.50596832671E+02  0.25544198696E+03  0.00000000000E+00 0.  1.
<mgrwt>
<rscale>  0 0.14165678E+04</rscale>
<asrwt>0</asrwt>
<pdfrwt beam="1">  1        1 0.18379886E+00 0.14165678E+04</pdfrwt>
<pdfrwt beam="2">  1       -1 0.64601886E-01 0.14165678E+04</pdfrwt>
<totfact> 0.25509703E+01</totfact>
</mgrwt>
</event>
<event>
12    1  0.1489234E-007  0.2269194E+04  0.7818608E-02  0.8490167E-01
         -2   -1    0    0    0  501 -0.00000000000E+00  0.00000000000E+00  0.95803209085E+03  0.95803209085E+03  0.00000000000E+00 0. -1.
          2   -1    0    0  501    0  0.00000000000E+00 -0.00000000000E+00 -0.13437031951E+04  0.13437031951E+04  0.00000000000E+00 0.  1.
         23    2    1    2    0    0  0.49899292783E+03 -0.79473215803E+03 -0.33387099603E+03  0.99976361236E+03  0.86396143281E+02 0.  0.
        254    2    1    2    0    0 -0.49899292783E+03  0.79473215803E+03 -0.51800108255E+02  0.13019716736E+04  0.90102932401E+03 0.  0.
        -24    2    4    4    0    0  0.11175613067E+03  0.65318272415E+03 -0.57184045120E+02  0.67003638629E+03  0.80880405942E+02 0.  0.
         24    2    4    4    0    0 -0.61074905850E+03  0.14154943387E+03  0.53839368648E+01  0.63193528735E+03  0.79136375502E+02 0.  0.
         11    1    3    3    0    0  0.42951051690E+03 -0.71021314305E+03 -0.26864276662E+03  0.87238232946E+03  0.00000000000E+00 0. -1.
        -11    1    3    3    0    0  0.69482410932E+02 -0.84519014977E+02 -0.65228229411E+02  0.12738128290E+03  0.00000000000E+00 0.  1.
          4    1    6    6  502    0 -0.16129393397E+03  0.48747960244E+02  0.34808085837E+02  0.17205725676E+03  0.00000000000E+00 0. -1.
          1    1    5    5  503    0  0.76919493696E+01  0.93144218481E+01  0.81141903262E+01  0.14552134693E+02  0.00000000000E+00 0. -1.
         -2    1    5    5    0  503  0.10406418130E+03  0.64386830231E+03 -0.65298235446E+02  0.65548425160E+03  0.00000000000E+00 0.  1.
         -3    1    6    6    0  502 -0.44945512453E+03  0.92801473631E+02 -0.29424148973E+02  0.45987803059E+03  0.00000000000E+00 0.  1.
<mgrwt>
<rscale>  0 0.22691944E+04</rscale>
<asrwt>0</asrwt>
<pdfrwt beam="1">  1        2 0.20672357E+00 0.22691944E+04</pdfrwt>
<pdfrwt beam="2">  1       -2 0.14738955E+00 0.22691944E+04</pdfrwt>
<totfact> 0.44487115E+00</totfact>
</mgrwt>
</event>
<event>
12    1  0.1489233E-007  0.1803822E+04  0.7818608E-02  0.8704270E-01
         -1   -1    0    0    0  501 -0.00000000000E+00  0.00000000000E+00  0.94404920940E+03  0.94404920940E+03  0.00000000000E+00 0.  1.
          1   -1    0    0  501    0  0.00000000000E+00 -0.00000000000E+00 -0.86165331682E+03  0.86165331682E+03  0.00000000000E+00 0. -1.
         23    2    1    2    0    0 -0.45457463630E+03  0.33398967705E+03 -0.33863500411E+03  0.66368276107E+03  0.87257876332E+02 0.  0.
        254    2    1    2    0    0  0.45457463630E+03 -0.33398967705E+03  0.42103089669E+03  0.11420197652E+04  0.89930802492E+03 0.  0.
        -24    2    4    4    0    0  0.42582763737E+03  0.20346672038E+02 -0.15512229589E+03  0.46035300793E+03  0.78222767861E+02 0.  0.
         24    2    4    4    0    0  0.28746998933E+02 -0.35433634909E+03  0.57615319258E+03  0.68166675723E+03  0.79601685622E+02 0.  0.
         13    1    3    3    0    0 -0.96496552196E+02  0.10414471124E+03 -0.54712624133E+02  0.15215510739E+03  0.00000000000E+00 0.  1.
        -13    1    3    3    0    0 -0.35807808411E+03  0.22984496581E+03 -0.28392237998E+03  0.51152765368E+03  0.00000000000E+00 0. -1.
          2    1    6    6  502    0 -0.39049971351E+01 -0.16348894189E+03  0.19779953846E+03  0.25664867141E+03  0.00000000000E+00 0. -1.
          3    1    5    5  503    0  0.33886977146E+03  0.34715800173E+02 -0.94931223095E+02  0.35362387633E+03  0.00000000000E+00 0. -1.
         -4    1    5    5    0  503  0.86957865911E+02 -0.14369128135E+02 -0.60191072799E+02  0.10672913160E+03  0.00000000000E+00 0.  1.
         -1    1    6    6    0  502  0.32651996068E+02 -0.19084740720E+03  0.37835365413E+03  0.42501808582E+03  0.00000000000E+00 0.  1.
<mgrwt>
<rscale>  0 0.18038216E+04</rscale>
<asrwt>0</asrwt>
<pdfrwt beam="1">  1        1 0.13256205E+00 0.18038216E+04</pdfrwt>
<pdfrwt beam="2">  1       -1 0.14523834E+00 0.18038216E+04</pdfrwt>
<totfact> 0.70270641E+00</totfact>
</mgrwt>
</event>
<event>
12    1  0.1489233E-007  0.1176378E+04  0.7818608E-02  0.9133788E-01
         -2   -1    0    0    0  501 -0.00000000000E+00  0.00000000000E+00  0.17527563458E+03  0.17527563458E+03  0.00000000000E+00 0.  1.
          2   -1    0    0  501    0  0.00000000000E+00 -0.00000000000E+00 -0.19738421537E+04  0.19738421537E+04  0.00000000000E+00 0. -1.
         23    2    1    2    0    0 -0.77789564489E+02  0.19686499485E+03 -0.77370347121E+03  0.80744510501E+03  0.92431021281E+02 0.  0.
        254    2    1    2    0    0  0.77789564489E+02 -0.19686499485E+03 -0.10248630479E+04  0.13416726832E+04  0.83960364429E+03 0.  0.
        -24    2    4    4    0    0  0.15210878137E+02 -0.45657085115E+03 -0.94298307000E+03  0.10507313825E+04  0.78301053364E+02 0.  0.
         24    2    4    4    0    0  0.62578686352E+02  0.25970585629E+03 -0.81879977862E+02  0.29094130072E+03  0.81112797448E+02 0.  0.
         13    1    3    3    0    0 -0.57982034282E+02  0.18219577420E+03 -0.74710166171E+03  0.77117968682E+03  0.00000000000E+00 0. -1.
        -13    1    3    3    0    0 -0.19807530207E+02  0.14669220653E+02 -0.26601809498E+02  0.36265418183E+02  0.00000000000E+00 0.  1.
          4    1    6    6  502    0 -0.31871542953E+01  0.10026568567E+03 -0.69720432458E+00  0.10031875083E+03  0.00000000000E+00 0. -1.
          1    1    5    5  503    0 -0.18913274865E+02 -0.29595683844E+02 -0.74489669741E+02  0.82354886718E+02  0.00000000000E+00 0. -1.
         -4    1    5    5    0  503  0.34124153002E+02 -0.42697516730E+03 -0.86849340026E+03  0.96837649579E+03  0.00000000000E+00 0.  1.
         -3    1    6    6    0  502  0.65765840647E+02  0.15944017063E+03 -0.81182773538E+02  0.19062254989E+03  0.00000000000E+00 0.  1.
<mgrwt>
<rscale>  0 0.11763782E+04</rscale>
<asrwt>0</asrwt>
<pdfrwt beam="1">  1        2 0.30366804E+00 0.11763782E+04</pdfrwt>
<pdfrwt beam="2">  1       -2 0.26965481E-01 0.11763782E+04</pdfrwt>
<totfact> 0.85420151E+01</totfact>
</mgrwt>
</event>
<event>
12    1  0.1489233E-007  0.2410640E+04  0.7818608E-02  0.8435531E-01
          3   -1    0    0  501    0  0.00000000000E+00  0.00000000000E+00  0.14226190331E+04  0.14226190331E+04  0.00000000000E+00 0. -1.
         -3   -1    0    0    0  501 -0.00000000000E+00 -0.00000000000E+00 -0.10212123694E+04  0.10212123694E+04  0.00000000000E+00 0.  1.
         23    2    1    2    0    0 -0.42925847077E+03  0.91796215432E+03  0.27673890883E+03  0.10543768784E+04  0.90602574994E+02 0.  0.
        254    2    1    2    0    0  0.42925847077E+03 -0.91796215432E+03  0.12466775489E+03  0.13894545241E+04  0.94240356208E+03 0.  0.
        -24    2    4    4    0    0 -0.19000755470E+03 -0.68903179032E+03  0.77589745281E+02  0.72260371164E+03  0.72582894645E+02 0.  0.
         24    2    4    4    0    0  0.61926602547E+03 -0.22893036400E+03  0.47078009613E+02  0.66685081242E+03  0.81081102384E+02 0.  0.
         11    1    3    3    0    0 -0.15238026619E+03  0.33709075143E+03  0.14626074106E+03  0.39779658696E+03  0.00000000000E+00 0. -1.
        -11    1    3    3    0    0 -0.27687820458E+03  0.58087140289E+03  0.13047816777E+03  0.65658029146E+03  0.00000000000E+00 0.  1.
          4    1    6    6  502    0  0.33810359121E+02  0.59382453653E+01  0.42202160633E+01  0.34586317606E+02  0.00000000000E+00 0. -1.
          1    1    5    5  503    0 -0.13537216460E+02 -0.13294501573E+03  0.31991399089E+02  0.13740845335E+03  0.00000000000E+00 0. -1.
         -2    1    5    5    0  503 -0.17647033824E+03 -0.55608677458E+03  0.45598346192E+02  0.58519525828E+03  0.00000000000E+00 0.  1.
         -3    1    6    6    0  502  0.58545566635E+03 -0.23486860937E+03  0.42857793550E+02  0.63226449481E+03  0.00000000000E+00 0.  1.
<mgrwt>
<rscale>  0 0.24106399E+04</rscale>
<asrwt>0</asrwt>
<pdfrwt beam="1">  1        3 0.21886447E+00 0.24106399E+04</pdfrwt>
<pdfrwt beam="2">  1       -3 0.15710960E+00 0.24106399E+04</pdfrwt>
<totfact> 0.75366290E-02</totfact>
</mgrwt>
</event>
<event>
12    1  0.1489233E-007  0.3512681E+04  0.7818608E-02  0.8110791E-01
         -1   -1    0    0    0  501 -0.00000000000E+00  0.00000000000E+00  0.12875628618E+04  0.12875628618E+04  0.00000000000E+00 0.  1.
          1   -1    0    0  501    0  0.00000000000E+00 -0.00000000000E+00 -0.23957912355E+04  0.23957912355E+04  0.00000000000E+00 0. -1.
         23    2    1    2    0    0 -0.62743059000E+02 -0.93672910898E+03  0.91400933757E+03  0.13130001659E+04  0.84606449485E+02 0.  0.
        254    2    1    2    0    0  0.62743059000E+02  0.93672910898E+03 -0.20222377114E+04  0.23703539314E+04  0.80481941081E+03 0.  0.
        -24    2    4    4    0    0 -0.13294500906E+03  0.96614749262E+03 -0.18606413037E+04  0.21022109970E+04  0.78674405650E+02 0.  0.
         24    2    4    4    0    0  0.19568806806E+03 -0.29418383636E+02 -0.16159640769E+03  0.26814293444E+03  0.81412364139E+02 0.  0.
         11    1    3    3    0    0 -0.10415751673E+02 -0.60837382492E+03  0.55319819843E+03  0.82234752111E+03  0.00000000000E+00 0.  1.
        -11    1    3    3    0    0 -0.52327307327E+02 -0.32835528406E+03  0.36081113915E+03  0.49065264475E+03  0.00000000000E+00 0. -1.
          2    1    6    6  502    0  0.36447388488E+02  0.15910594314E+02 -0.47015127672E+01  0.40045765835E+02  0.00000000000E+00 0. -1.
          1    1    5    5  503    0 -0.46517980984E+02  0.15024589946E+03 -0.27155709792E+03  0.31381684195E+03  0.00000000000E+00 0. -1.
         -2    1    5    5    0  503 -0.86427028072E+02  0.81590159316E+03 -0.15890842057E+04  0.17883941551E+04  0.00000000000E+00 0.  1.
         -1    1    6    6    0  502  0.15924067957E+03 -0.45328977950E+02 -0.15689489492E+03  0.22809716860E+03  0.00000000000E+00 0.  1.
<mgrwt>
<rscale>  0 0.35126809E+04</rscale>
<asrwt>0</asrwt>
<pdfrwt beam="1">  1        1 0.36858326E+00 0.35126809E+04</pdfrwt>
<pdfrwt beam="2">  1       -1 0.19808660E+00 0.35126809E+04</pdfrwt>
<totfact> 0.20222744E-01</totfact>
</mgrwt>
</event>
<event>
12    1  0.1489233E-007  0.2030853E+04  0.7818608E-02  0.8592330E-01
         -2   -1    0    0    0  501 -0.00000000000E+00  0.00000000000E+00  0.52250529775E+03  0.52250529775E+03  0.00000000000E+00 0.  1.
          2   -1    0    0  501    0  0.00000000000E+00 -0.00000000000E+00 -0.19733600932E+04  0.19733600932E+04  0.00000000000E+00 0. -1.
         23    2    1    2    0    0  0.30717766323E+02 -0.69011788939E+03 -0.46767809332E+02  0.69871486601E+03  0.93856025717E+02 0.  0.
        254    2    1    2    0    0 -0.30717766323E+02  0.69011788939E+03 -0.14040869862E+04  0.17971505250E+04  0.88378926351E+03 0.  0.
        -24    2    4    4    0    0 -0.34394041595E+03  0.10978335780E+03 -0.19583207356E+03  0.41839037364E+03  0.79705133778E+02 0.  0.
         24    2    4    4    0    0  0.31322264963E+03  0.58033453159E+03 -0.12082549126E+04  0.13787601513E+04  0.78759280565E+02 0.  0.
         11    1    3    3    0    0 -0.16527200010E+02 -0.23999328537E+03 -0.51863752145E+02  0.24608895576E+03  0.00000000000E+00 0. -1.
        -11    1    3    3    0    0  0.47244966333E+02 -0.45012460402E+03  0.50959428130E+01  0.45262591024E+03  0.00000000000E+00 0.  1.
          2    1    6    6  502    0  0.15655313742E+03  0.22549335724E+03 -0.55060208247E+03  0.61523880909E+03  0.00000000000E+00 0. -1.
          1    1    5    5  503    0 -0.38826932499E+01  0.47894503011E+01  0.65328019481E+01  0.89828526845E+01  0.00000000000E+00 0. -1.
         -2    1    5    5    0  503 -0.34005772270E+03  0.10499390750E+03 -0.20236487550E+03  0.40940752096E+03  0.00000000000E+00 0.  1.
         -1    1    6    6    0  502  0.15666951221E+03  0.35484117436E+03 -0.65765283014E+03  0.76352134225E+03  0.00000000000E+00 0.  1.
<mgrwt>
<rscale>  0 0.20308531E+04</rscale>
<asrwt>0</asrwt>
<pdfrwt beam="1">  1        2 0.30359387E+00 0.20308531E+04</pdfrwt>
<pdfrwt beam="2">  1       -2 0.80385429E-01 0.20308531E+04</pdfrwt>
<totfact> 0.87598936E+00</totfact>
</mgrwt>
</event>
<event>
12    1  0.1489233E-007  0.2405097E+04  0.7818608E-02  0.8437598E-01
          2   -1    0    0  501    0  0.00000000000E+00  0.00000000000E+00  0.30201206743E+04  0.30201206743E+04  0.00000000000E+00 0. -1.
         -2   -1    0    0    0  501 -0.00000000000E+00 -0.00000000000E+00 -0.47882966868E+03  0.47882966868E+03  0.00000000000E+00 0.  1.
         23    2    1    2    0    0 -0.23139903270E+03  0.94729894737E+03  0.15880383359E+04  0.18657064827E+04  0.89856081700E+02 0.  0.
        254    2    1    2    0    0  0.23139903270E+03 -0.94729894737E+03  0.95325266979E+03  0.16332438603E+04  0.89881813886E+03 0.  0.
        -24    2    4    4    0    0 -0.24714636597E+03 -0.48544194552E+01  0.25329130764E+03  0.36285300606E+03  0.80005786546E+02 0.  0.
         24    2    4    4    0    0  0.47854539866E+03 -0.94244452792E+03  0.69996136215E+03  0.12703908543E+04  0.82095232997E+02 0.  0.
         11    1    3    3    0    0 -0.78487817875E+02  0.22771809580E+03  0.33347136747E+03  0.41136239696E+03  0.00000000000E+00 0. -1.
        -11    1    3    3    0    0 -0.15291121482E+03  0.71958085157E+03  0.12545669684E+04  0.14543440858E+04  0.00000000000E+00 0.  1.
          2    1    6    6  502    0  0.12954663274E+03 -0.32477583920E+03  0.25800717767E+03  0.43454502587E+03  0.00000000000E+00 0. -1.
          3    1    5    5  503    0 -0.11377839157E+02  0.14766575493E+02  0.40781409149E+02  0.44840052496E+02  0.00000000000E+00 0. -1.
         -4    1    5    5    0  503 -0.23576852681E+03 -0.19620994948E+02  0.21250989849E+03  0.31801295356E+03  0.00000000000E+00 0.  1.
         -1    1    6    6    0  502  0.34899876593E+03 -0.61766868872E+03  0.44195418448E+03  0.83584582838E+03  0.00000000000E+00 0.  1.
<mgrwt>
<rscale>  0 0.24050974E+04</rscale>
<asrwt>0</asrwt>
<pdfrwt beam="1">  1        2 0.46463394E+00 0.24050974E+04</pdfrwt>
<pdfrwt beam="2">  1       -2 0.73666105E-01 0.24050974E+04</pdfrwt>
<totfact> 0.25270187E+00</totfact>
</mgrwt>
</event>
<event>
12    1  0.1489233E-007  0.1775814E+04  0.7818608E-02  0.8719268E-01
         -1   -1    0    0    0  501 -0.00000000000E+00  0.00000000000E+00  0.11757182561E+04  0.11757182561E+04  0.00000000000E+00 0.  1.
          1   -1    0    0  501    0  0.00000000000E+00 -0.00000000000E+00 -0.67055094552E+03  0.67055094552E+03  0.00000000000E+00 0. -1.
         23    2    1    2    0    0  0.42913888456E+03  0.18729054873E+02 -0.32466918379E+03  0.54556460275E+03  0.87861807016E+02 0.  0.
        254    2    1    2    0    0 -0.42913888456E+03 -0.18729054873E+02  0.82983649433E+03  0.13007045988E+04  0.90481649320E+03 0.  0.
        -24    2    4    4    0    0 -0.57499795780E+03 -0.16908661894E+02  0.14866173527E+03  0.59945765825E+03  0.79627998716E+02 0.  0.
         24    2    4    4    0    0  0.14585907324E+03 -0.18203929796E+01  0.68117475906E+03  0.70124694058E+03  0.80436535316E+02 0.  0.
         11    1    3    3    0    0  0.81300430589E+02 -0.26853357540E+02 -0.85363715604E+02  0.12090420492E+03  0.00000000000E+00 0.  1.
        -11    1    3    3    0    0  0.34783845397E+03  0.45582412413E+02 -0.23930546818E+03  0.42466039783E+03  0.00000000000E+00 0. -1.
          4    1    6    6  502    0  0.11698343369E+03 -0.27015764390E+02  0.59412779262E+03  0.60613761577E+03  0.00000000000E+00 0. -1.
          3    1    5    5  503    0 -0.56605128198E+03 -0.13618285624E+02  0.13381263661E+03  0.58181211164E+03  0.00000000000E+00 0. -1.
         -4    1    5    5    0  503 -0.89466758193E+01 -0.32903762697E+01  0.14849098655E+02  0.17645546608E+02  0.00000000000E+00 0.  1.
         -3    1    6    6    0  502  0.28875639547E+02  0.25195371410E+02  0.87046966439E+02  0.95109324810E+02  0.00000000000E+00 0.  1.
<mgrwt>
<rscale>  0 0.17758142E+04</rscale>
<asrwt>0</asrwt>
<pdfrwt beam="1">  1        1 0.10316168E+00 0.17758142E+04</pdfrwt>
<pdfrwt beam="2">  1       -1 0.18087973E+00 0.17758142E+04</pdfrwt>
<totfact> 0.56377911E+00</totfact>
</mgrwt>
</event>
<event>
12    1  0.1489233E-007  0.1057773E+04  0.7818608E-02  0.9247355E-01
          1   -1    0    0  501    0  0.00000000000E+00  0.00000000000E+00  0.59260630365E+03  0.59260630365E+03  0.00000000000E+00 0. -1.
         -1   -1    0    0    0  501 -0.00000000000E+00 -0.00000000000E+00 -0.47201815318E+03  0.47201815318E+03  0.00000000000E+00 0.  1.
         23    2    1    2    0    0  0.10253223826E+03  0.96337418128E+02  0.96088376975E+02  0.19396932865E+03  0.92721983657E+02 0.  0.
        254    2    1    2    0    0 -0.10253223826E+03 -0.96337418128E+02  0.24499773498E+02  0.87065512817E+03  0.85886340899E+03 0.  0.
        -24    2    4    4    0    0 -0.37454379084E+03 -0.30987693086E+03  0.11155983727E+03  0.50507433160E+03  0.79672577541E+02 0.  0.
         24    2    4    4    0    0  0.27201155258E+03  0.21353951273E+03 -0.87060063775E+02  0.36558079657E+03  0.80501278784E+02 0.  0.
         11    1    3    3    0    0  0.23609909729E+02  0.69847752448E+02  0.80700020975E+02  0.10930978796E+03  0.00000000000E+00 0. -1.
        -11    1    3    3    0    0  0.78922328533E+02  0.26489665680E+02  0.15388356000E+02  0.84659540687E+02  0.00000000000E+00 0.  1.
          4    1    6    6  502    0  0.85456592832E+02  0.25206034123E+02 -0.10851853784E+02  0.89754866973E+02  0.00000000000E+00 0. -1.
          3    1    5    5  503    0 -0.19288690133E+03 -0.11219969406E+03  0.66551785105E+02  0.23285890181E+03  0.00000000000E+00 0. -1.
         -4    1    5    5    0  503 -0.18165688951E+03 -0.19767723680E+03  0.45008052168E+02  0.27221542979E+03  0.00000000000E+00 0.  1.
         -3    1    6    6    0  502  0.18655495974E+03  0.18833347861E+03 -0.76208209991E+02  0.27582592960E+03  0.00000000000E+00 0.  1.
<mgrwt>
<rscale>  0 0.10577730E+04</rscale>
<asrwt>0</asrwt>
<pdfrwt beam="1">  1        1 0.91170200E-01 0.10577730E+04</pdfrwt>
<pdfrwt beam="2">  1       -1 0.72618178E-01 0.10577730E+04</pdfrwt>
<totfact> 0.66657478E+01</totfact>
</mgrwt>
</event>
<event>
12    1  0.1489233E-007  0.2757887E+04  0.7818608E-02  0.8316463E-01
         -1   -1    0    0    0  501 -0.00000000000E+00  0.00000000000E+00  0.14341245736E+04  0.14341245736E+04  0.00000000000E+00 0.  1.
          1   -1    0    0  501    0  0.00000000000E+00 -0.00000000000E+00 -0.13258857824E+04  0.13258857824E+04  0.00000000000E+00 0. -1.
         23    2    1    2    0    0  0.79358940439E+03 -0.49028741256E+03 -0.75359844576E+03  0.12025558081E+04  0.89799579245E+02 0.  0.
        254    2    1    2    0    0 -0.79358940439E+03  0.49028741256E+03  0.86183723697E+03  0.15574545479E+04  0.90151836148E+03 0.  0.
        -24    2    4    4    0    0  0.60718969282E+02  0.33689559268E+03  0.30535015979E+02  0.35300532787E+03  0.80591194952E+02 0.  0.
         24    2    4    4    0    0 -0.85430837367E+03  0.15339181987E+03  0.83130222099E+03  0.12044492200E+04  0.79137180170E+02 0.  0.
         13    1    3    3    0    0  0.66964653077E+03 -0.41945706915E+03 -0.67711659415E+03  0.10406044355E+04  0.00000000000E+00 0. -1.
        -13    1    3    3    0    0  0.12394287362E+03 -0.70830343405E+02 -0.76481851613E+02  0.16195137262E+03  0.00000000000E+00 0.  1.
          4    1    6    6  502    0 -0.53994948543E+03  0.10993647605E+03  0.47705774956E+03  0.72884536906E+03  0.00000000000E+00 0. -1.
          3    1    5    5  503    0  0.48747768419E+02  0.16150703318E+03  0.50447144037E+02  0.17608458488E+03  0.00000000000E+00 0. -1.
         -4    1    5    5    0  503  0.11971200863E+02  0.17538855950E+03 -0.19912128059E+02  0.17692074299E+03  0.00000000000E+00 0.  1.
         -3    1    6    6    0  502 -0.31435888824E+03  0.43455343827E+02  0.35424447143E+03  0.47560385097E+03  0.00000000000E+00 0.  1.
<mgrwt>
<rscale>  0 0.27578871E+04</rscale>
<asrwt>0</asrwt>
<pdfrwt beam="1">  1        1 0.20398243E+00 0.27578871E+04</pdfrwt>
<pdfrwt beam="2">  1       -1 0.22063455E+00 0.27578871E+04</pdfrwt>
<totfact> 0.82082078E-01</totfact>
</mgrwt>
</event>
<event>
12    1  0.1489233E-007  0.1571159E+04  0.7818608E-02  0.8838465E-01
         -1   -1    0    0    0  501 -0.00000000000E+00  0.00000000000E+00  0.13851709125E+04  0.13851709125E+04  0.00000000000E+00 0.  1.
          1   -1    0    0  501    0  0.00000000000E+00 -0.00000000000E+00 -0.44552981046E+03  0.44552981046E+03  0.00000000000E+00 0. -1.
         23    2    1    2    0    0 -0.40939183736E+02 -0.56196204405E+01 -0.28894644740E+03  0.30623471117E+03  0.92639365070E+02 0.  0.
        254    2    1    2    0    0  0.40939183736E+02  0.56196204405E+01  0.12285875494E+04  0.15244660118E+04  0.90158840808E+03 0.  0.
        -24    2    4    4    0    0 -0.33960812506E+03 -0.25559043506E+03  0.62466180268E+03  0.76004703194E+03  0.82516507108E+02 0.  0.
         24    2    4    4    0    0  0.38054730879E+03  0.26121005550E+03  0.60392574676E+03  0.76441897985E+03  0.81013096656E+02 0.  0.
         13    1    3    3    0    0  0.75613490426E+01 -0.12662337373E+02 -0.17097433628E+01  0.14846952867E+02  0.00000000000E+00 0.  1.
        -13    1    3    3    0    0 -0.48500532778E+02  0.70427169320E+01 -0.28723670404E+03  0.29138775830E+03  0.00000000000E+00 0. -1.
          4    1    6    6  502    0  0.37471216505E+03  0.25475729818E+03  0.60476441358E+03  0.75567882301E+03  0.00000000000E+00 0. -1.
          1    1    5    5  503    0 -0.19965009744E+03 -0.19576743069E+03  0.37749436796E+03  0.46977339874E+03  0.00000000000E+00 0. -1.
         -2    1    5    5    0  503 -0.13995802762E+03 -0.59823004370E+02  0.24716743472E+03  0.29027363320E+03  0.00000000000E+00 0.  1.
         -3    1    6    6    0  502  0.58351437452E+01  0.64527573199E+01 -0.83866682014E+00  0.87401568402E+01  0.00000000000E+00 0.  1.
<mgrwt>
<rscale>  0 0.15711587E+04</rscale>
<asrwt>0</asrwt>
<pdfrwt beam="1">  1        1 0.68543048E-01 0.15711587E+04</pdfrwt>
<pdfrwt beam="2">  1       -1 0.21310322E+00 0.15711587E+04</pdfrwt>
<totfact> 0.61131534E+00</totfact>
</mgrwt>
</event>
<event>
12    1  0.1489233E-007  0.1950103E+04  0.7818608E-02  0.8630311E-01
          2   -1    0    0  501    0  0.00000000000E+00  0.00000000000E+00  0.33463859048E+04  0.33463859048E+04  0.00000000000E+00 0. -1.
         -2   -1    0    0    0  501 -0.00000000000E+00 -0.00000000000E+00 -0.28410508521E+03  0.28410508521E+03  0.00000000000E+00 0.  1.
         23    2    1    2    0    0  0.39866482545E+03  0.31270466507E+03  0.22878038237E+04  0.23451965432E+04  0.95826092641E+02 0.  0.
        254    2    1    2    0    0 -0.39866482545E+03 -0.31270466507E+03  0.77447699595E+03  0.12852944468E+04  0.89187967080E+03 0.  0.
        -24    2    4    4    0    0 -0.47739530511E+03 -0.54643266475E+03  0.70826303984E+03  0.10170877750E+04  0.79599460034E+02 0.  0.
         24    2    4    4    0    0  0.78730479658E+02  0.23372799968E+03  0.66213956113E+02  0.26820667182E+03  0.81995515500E+02 0.  0.
         11    1    3    3    0    0  0.79474180553E+02  0.19636403215E+02  0.40137096838E+03  0.40963445652E+03  0.00000000000E+00 0.  1.
        -11    1    3    3    0    0  0.31919064490E+03  0.29306826185E+03  0.18864328553E+04  0.19355620867E+04  0.00000000000E+00 0. -1.
          4    1    6    6  502    0  0.21644332530E+02  0.29135203119E+02  0.40282467905E+02  0.54221899745E+02  0.00000000000E+00 0. -1.
          1    1    5    5  503    0 -0.35623468921E+03 -0.39603107235E+03  0.47002669312E+03  0.71040049008E+03  0.00000000000E+00 0. -1.
         -2    1    5    5    0  503 -0.12116061590E+03 -0.15040159240E+03  0.23823634672E+03  0.30668728494E+03  0.00000000000E+00 0.  1.
         -3    1    6    6    0  502  0.57086147128E+02  0.20459279656E+03  0.25931488209E+02  0.21398477207E+03  0.00000000000E+00 0.  1.
<mgrwt>
<rscale>  0 0.19501028E+04</rscale>
<asrwt>0</asrwt>
<pdfrwt beam="1">  1        2 0.51482857E+00 0.19501028E+04</pdfrwt>
<pdfrwt beam="2">  1       -2 0.43708477E-01 0.19501028E+04</pdfrwt>
<totfact> 0.48244536E+00</totfact>
</mgrwt>
</event>
<event>
12    1  0.1489233E-007  0.2401319E+04  0.7818608E-02  0.8439010E-01
         -2   -1    0    0    0  501 -0.00000000000E+00  0.00000000000E+00  0.14908115763E+04  0.14908115763E+04  0.00000000000E+00 0.  1.
          2   -1    0    0  501    0  0.00000000000E+00 -0.00000000000E+00 -0.96697886060E+03  0.96697886060E+03  0.00000000000E+00 0. -1.
         23    2    1    2    0    0  0.30843651430E+03 -0.71241580870E+03 -0.45695593679E+03  0.90624240221E+03  0.98980783808E+02 0.  0.
        254    2    1    2    0    0 -0.30843651430E+03  0.71241580870E+03  0.98078865249E+03  0.15515480347E+04  0.91797906034E+03 0.  0.
        -24    2    4    4    0    0  0.26333669546E+03  0.22426161948E+03  0.60881370943E+02  0.36073957239E+03  0.82383302967E+02 0.  0.
         24    2    4    4    0    0 -0.57177320976E+03  0.48815418922E+03  0.91990728154E+03  0.11908084623E+04  0.81094212938E+02 0.  0.
         11    1    3    3    0    0  0.92939070554E+02 -0.33712160929E+03 -0.19570171080E+03  0.40073408876E+03  0.00000000000E+00 0. -1.
        -11    1    3    3    0    0  0.21549744374E+03 -0.37529419941E+03 -0.26125422599E+03  0.50550831345E+03  0.00000000000E+00 0.  1.
          4    1    6    6  502    0 -0.20439726629E+03  0.12699950625E+03  0.27581638492E+03  0.36603523771E+03  0.00000000000E+00 0. -1.
          3    1    5    5  503    0  0.18149850646E+03  0.20002657278E+03  0.50204134159E+02  0.27472312017E+03  0.00000000000E+00 0. -1.
         -4    1    5    5    0  503  0.81838189000E+02  0.24235046701E+02  0.10677236784E+02  0.86016452222E+02  0.00000000000E+00 0.  1.
         -3    1    6    6    0  502 -0.36737594347E+03  0.36115468297E+03  0.64409089662E+03  0.82477322458E+03  0.00000000000E+00 0.  1.
<mgrwt>
<rscale>  0 0.24013190E+04</rscale>
<asrwt>0</asrwt>
<pdfrwt beam="1">  1        2 0.14876598E+00 0.24013190E+04</pdfrwt>
<pdfrwt beam="2">  1       -2 0.22935563E+00 0.24013190E+04</pdfrwt>
<totfact> 0.20528356E+00</totfact>
</mgrwt>
</event>
<event>
12    1  0.1489233E-007  0.1808186E+04  0.7818608E-02  0.8701958E-01
         -1   -1    0    0    0  501 -0.00000000000E+00  0.00000000000E+00  0.43469008298E+03  0.43469008298E+03  0.00000000000E+00 0.  1.
          1   -1    0    0  501    0  0.00000000000E+00 -0.00000000000E+00 -0.18803837415E+04  0.18803837415E+04  0.00000000000E+00 0. -1.
         23    2    1    2    0    0  0.81588115130E+02  0.43325556497E+03  0.11501411570E+03  0.46451489746E+03  0.90436928560E+02 0.  0.
        254    2    1    2    0    0 -0.81588115130E+02 -0.43325556497E+03 -0.15607077743E+04  0.18505589271E+04  0.89128703612E+03 0.  0.
        -24    2    4    4    0    0  0.12906164758E+03  0.13073498418E+03 -0.26630605101E+02  0.20066459172E+03  0.76213806341E+02 0.  0.
         24    2    4    4    0    0 -0.21064976271E+03 -0.56399054915E+03 -0.15340771692E+04  0.16498943353E+04  0.79371876525E+02 0.  0.
         13    1    3    3    0    0  0.25308057363E+02  0.12395682814E+03 -0.83731728352E+01  0.12679078450E+03  0.00000000000E+00 0. -1.
        -13    1    3    3    0    0  0.56280057767E+02  0.30929873683E+03  0.12338728854E+03  0.33772411297E+03  0.00000000000E+00 0.  1.
          2    1    6    6  502    0 -0.66948340880E+02 -0.14346479917E+03 -0.31959214668E+03  0.35665581331E+03  0.00000000000E+00 0. -1.
          3    1    5    5  503    0 -0.50937345624E+01  0.15066762175E+02 -0.16982390511E+02  0.23267037665E+02  0.00000000000E+00 0. -1.
         -4    1    5    5    0  503  0.13415538214E+03  0.11566822200E+03 -0.96482145899E+01  0.17739755405E+03  0.00000000000E+00 0.  1.
         -1    1    6    6    0  502 -0.14370142183E+03 -0.42052574998E+03 -0.12144850225E+04  0.12932385220E+04  0.00000000000E+00 0.  1.
<mgrwt>
<rscale>  0 0.18081860E+04</rscale>
<asrwt>0</asrwt>
<pdfrwt beam="1">  1        1 0.28928981E+00 0.18081860E+04</pdfrwt>
<pdfrwt beam="2">  1       -1 0.66875397E-01 0.18081860E+04</pdfrwt>
<totfact> 0.76738411E+00</totfact>
</mgrwt>
</event>
<event>
12    1  0.1489233E-007  0.1525151E+04  0.7818608E-02  0.8867898E-01
         -2   -1    0    0    0  501 -0.00000000000E+00  0.00000000000E+00  0.25268611953E+03  0.25268611953E+03  0.00000000000E+00 0.  1.
          2   -1    0    0  501    0  0.00000000000E+00 -0.00000000000E+00 -0.23013597354E+04  0.23013597354E+04  0.00000000000E+00 0. -1.
         23    2    1    2    0    0  0.72547916817E+02 -0.46723859665E+03 -0.47256428336E+03  0.67502818366E+03  0.93653298940E+02 0.  0.
        254    2    1    2    0    0 -0.72547916817E+02  0.46723859665E+03 -0.15761093325E+04  0.18790176713E+04  0.90719990877E+03 0.  0.
        -24    2    4    4    0    0  0.23853197488E+03  0.59732288248E+03 -0.80471019258E+03  0.10332572585E+04  0.79811898492E+02 0.  0.
         24    2    4    4    0    0 -0.31107989170E+03 -0.13008428583E+03 -0.77139913991E+03  0.84576041279E+03  0.81002607065E+02 0.  0.
         13    1    3    3    0    0  0.60803637790E+02 -0.19217525428E+03 -0.15191893276E+03  0.25240398740E+03  0.00000000000E+00 0. -1.
        -13    1    3    3    0    0  0.11744279027E+02 -0.27506334237E+03 -0.32064535060E+03  0.42262419626E+03  0.00000000000E+00 0.  1.
          2    1    6    6  502    0 -0.46534876104E+02 -0.24197281438E+02 -0.20656767287E+03  0.21312251546E+03  0.00000000000E+00 0. -1.
          1    1    5    5  503    0 -0.45305029133E+01  0.11411402492E+02 -0.71720974817E+01  0.14219161219E+02  0.00000000000E+00 0. -1.
         -2    1    5    5    0  503  0.24306247779E+03  0.58591147999E+03 -0.79753809510E+03  0.10190380972E+04  0.00000000000E+00 0.  1.
         -1    1    6    6    0  502 -0.26454501559E+03 -0.10588700440E+03 -0.56483146704E+03  0.63263789733E+03  0.00000000000E+00 0.  1.
<mgrwt>
<rscale>  0 0.15251514E+04</rscale>
<asrwt>0</asrwt>
<pdfrwt beam="1">  1        2 0.35405534E+00 0.15251514E+04</pdfrwt>
<pdfrwt beam="2">  1       -2 0.38874788E-01 0.15251514E+04</pdfrwt>
<totfact> 0.27332396E+01</totfact>
</mgrwt>
</event>
<event>
12    1  0.1489233E-007  0.1671356E+04  0.7818608E-02  0.8777872E-01
         -2   -1    0    0    0  501 -0.00000000000E+00  0.00000000000E+00  0.42147305649E+03  0.42147305649E+03  0.00000000000E+00 0.  1.
          2   -1    0    0  501    0  0.00000000000E+00 -0.00000000000E+00 -0.16569447289E+04  0.16569447289E+04  0.00000000000E+00 0. -1.
         23    2    1    2    0    0 -0.30303537367E+03 -0.71792487383E+02  0.17869423957E+03  0.37026818777E+03  0.90456070398E+02 0.  0.
        254    2    1    2    0    0  0.30303537367E+03  0.71792487383E+02 -0.14141659120E+04  0.17081495976E+04  0.90604923836E+03 0.  0.
        -24    2    4    4    0    0  0.38559939380E+03 -0.23474848184E+03 -0.30257174700E+03  0.54944686605E+03  0.80922520341E+02 0.  0.
         24    2    4    4    0    0 -0.82564020127E+02  0.30654096923E+03 -0.11115941650E+04  0.11587027316E+04  0.78525469234E+02 0.  0.
         11    1    3    3    0    0 -0.27477857789E+02  0.19600107504E+02  0.22921101745E+02  0.40799188571E+02  0.00000000000E+00 0. -1.
        -11    1    3    3    0    0 -0.27555751589E+03 -0.91392594888E+02  0.15577313783E+03  0.32946899919E+03  0.00000000000E+00 0.  1.
          2    1    6    6  502    0  0.32107422621E+01  0.55202292839E+02 -0.29091806663E+03  0.29612653291E+03  0.00000000000E+00 0. -1.
          3    1    5    5  503    0  0.86587519355E+02 -0.94826802426E+02 -0.89611269999E+02  0.15658767728E+03  0.00000000000E+00 0. -1.
         -4    1    5    5    0  503  0.29901187445E+03 -0.13992167942E+03 -0.21296047701E+03  0.39285918877E+03  0.00000000000E+00 0.  1.
         -1    1    6    6    0  502 -0.85774762389E+02  0.25133867639E+03 -0.82067609836E+03  0.86257619868E+03  0.00000000000E+00 0.  1.
<mgrwt>
<rscale>  0 0.16713558E+04</rscale>
<asrwt>0</asrwt>
<pdfrwt beam="1">  1        2 0.25491457E+00 0.16713558E+04</pdfrwt>
<pdfrwt beam="2">  1       -2 0.64842010E-01 0.16713558E+04</pdfrwt>
<totfact> 0.21688795E+01</totfact>
</mgrwt>
</event>
<event>
12    1  0.1514622E-007  0.1348105E+04  0.7818608E-02  0.8992264E-01
          2   -1    0    0  501    0  0.00000000000E+00  0.00000000000E+00  0.19491432245E+04  0.19491432245E+04  0.00000000000E+00 0. -1.
         -2   -1    0    0    0  501 -0.00000000000E+00 -0.00000000000E+00 -0.23310059624E+03  0.23310059624E+03  0.00000000000E+00 0.  1.
         23    2    1    2    0    0 -0.21258135429E+03  0.22473510459E+03  0.16915667565E+03  0.36336619181E+03  0.87888048128E+02 0.  0.
        254    2    1    2    0    0  0.21258135429E+03 -0.22473510459E+03  0.15468859526E+04  0.18188776290E+04  0.90540763152E+03 0.  0.
        -24    2    4    4    0    0 -0.17210539633E+03 -0.41759061202E+03  0.11058542842E+04  0.11973664872E+04  0.82283776937E+02 0.  0.
         24    2    4    4    0    0  0.38468675062E+03  0.19285550743E+03  0.44103166843E+03  0.62151114181E+03  0.81178962682E+02 0.  0.
         11    1    3    3    0    0 -0.48673321170E+02  0.71863463683E+01  0.26675610985E+02  0.55967168852E+02  0.00000000000E+00 0. -1.
        -11    1    3    3    0    0 -0.16390803312E+03  0.21754875823E+03  0.14248106466E+03  0.30739902296E+03  0.00000000000E+00 0.  1.
          2    1    6    6  502    0  0.38366083049E+03  0.18183699820E+03  0.41724424311E+03  0.59527563798E+03  0.00000000000E+00 0. -1.
          3    1    5    5  503    0 -0.16956045466E+03 -0.39674289183E+03  0.99466930800E+03  0.10842152472E+04  0.00000000000E+00 0. -1.
         -4    1    5    5    0  503 -0.25449416695E+01 -0.20847720197E+02  0.11118497622E+03  0.11315123995E+03  0.00000000000E+00 0.  1.
         -1    1    6    6    0  502  0.10259201373E+01  0.11018509225E+02  0.23787425322E+02  0.26235503828E+02  0.00000000000E+00 0.  1.
<mgrwt>
<rscale>  0 0.13481045E+04</rscale>
<asrwt>0</asrwt>
<pdfrwt beam="1">  1        2 0.29986818E+00 0.13481045E+04</pdfrwt>
<pdfrwt beam="2">  1       -2 0.35861631E-01 0.13481045E+04</pdfrwt>
<totfact> 0.50959648E+01</totfact>
</mgrwt>
</event>
<event>
12    1  0.1489233E-007  0.2507654E+04  0.7818608E-02  0.8400264E-01
         -2   -1    0    0    0  501 -0.00000000000E+00  0.00000000000E+00  0.99924891284E+03  0.99924891284E+03  0.00000000000E+00 0.  1.
          2   -1    0    0  501    0  0.00000000000E+00 -0.00000000000E+00 -0.15732636327E+04  0.15732636327E+04  0.00000000000E+00 0. -1.
         23    2    1    2    0    0 -0.52642546101E+03  0.86403707286E+03 -0.64901212000E+03  0.12055671213E+04  0.92149458555E+02 0.  0.
        254    2    1    2    0    0  0.52642546101E+03 -0.86403707286E+03  0.74997400160E+02  0.13669454242E+04  0.91609571199E+03 0.  0.
        -24    2    4    4    0    0  0.60207627058E+03 -0.63265941851E+03  0.39223299160E+03  0.96075974140E+03  0.80366570004E+02 0.  0.
         24    2    4    4    0    0 -0.75650809573E+02 -0.23137765436E+03 -0.31723559144E+03  0.40618568283E+03  0.71342305401E+02 0.  0.
         13    1    3    3    0    0 -0.26812407729E+03  0.52422803331E+03 -0.39083889331E+03  0.70672525939E+03  0.00000000000E+00 0. -1.
        -13    1    3    3    0    0 -0.25830138372E+03  0.33980903955E+03 -0.25817322669E+03  0.49884186189E+03  0.00000000000E+00 0.  1.
          2    1    6    6  502    0  0.10576622541E+02 -0.67944460008E+02 -0.91702488771E+02  0.11461963635E+03  0.00000000000E+00 0. -1.
          3    1    5    5  503    0  0.56445444487E+03 -0.58894818038E+03  0.34303128064E+03  0.88495154613E+03  0.00000000000E+00 0. -1.
         -4    1    5    5    0  503  0.37621825715E+02 -0.43711238126E+02  0.49201710957E+02  0.75808195267E+02  0.00000000000E+00 0.  1.
         -1    1    6    6    0  502 -0.86227432114E+02 -0.16343319435E+03 -0.22553310267E+03  0.29156604649E+03  0.00000000000E+00 0.  1.
<mgrwt>
<rscale>  0 0.25076539E+04</rscale>
<asrwt>0</asrwt>
<pdfrwt beam="1">  1        2 0.24204056E+00 0.25076539E+04</pdfrwt>
<pdfrwt beam="2">  1       -2 0.15373060E+00 0.25076539E+04</pdfrwt>
<totfact> 0.28879389E+00</totfact>
</mgrwt>
</event>
<event>
12    1  0.1489233E-007  0.1140172E+04  0.7818608E-02  0.9166899E-01
          1   -1    0    0  501    0  0.00000000000E+00  0.00000000000E+00  0.37307340220E+03  0.37307340220E+03  0.00000000000E+00 0. -1.
         -1   -1    0    0    0  501 -0.00000000000E+00 -0.00000000000E+00 -0.87113637385E+03  0.87113637385E+03  0.00000000000E+00 0.  1.
         23    2    1    2    0    0 -0.84478481364E+02  0.13095246088E+03  0.41755708432E+02  0.18566877027E+03  0.91892286093E+02 0.  0.
        254    2    1    2    0    0  0.84478481364E+02 -0.13095246088E+03 -0.53981868009E+03  0.10585410058E+04  0.89711743530E+03 0.  0.
        -24    2    4    4    0    0 -0.14754319188E+03 -0.42796988496E+03 -0.91438438386E+02  0.46746068244E+03  0.72327627549E+02 0.  0.
         24    2    4    4    0    0  0.23202167325E+03  0.29701742409E+03 -0.44838024171E+03  0.59108032334E+03  0.79231940678E+02 0.  0.
         11    1    3    3    0    0 -0.17254190035E+02 -0.48305169426E+01 -0.15506957637E+02  0.23696132656E+02  0.00000000000E+00 0.  1.
        -11    1    3    3    0    0 -0.67224291329E+02  0.13578297782E+03  0.57262666069E+02  0.16197263761E+03  0.00000000000E+00 0. -1.
          2    1    6    6  502    0  0.14817951413E+03  0.13544402556E+03 -0.26759600216E+03  0.33452933032E+03  0.00000000000E+00 0. -1.
          1    1    5    5  503    0 -0.88370039860E+02 -0.17274767745E+03 -0.15357785553E+02  0.19464553832E+03  0.00000000000E+00 0. -1.
         -2    1    5    5    0  503 -0.59173152023E+02 -0.25522220751E+03 -0.76080652833E+02  0.27281514412E+03  0.00000000000E+00 0.  1.
         -1    1    6    6    0  502  0.83842159120E+02  0.16157339852E+03 -0.18078423954E+03  0.25655099303E+03  0.00000000000E+00 0.  1.
<mgrwt>
<rscale>  0 0.11401716E+04</rscale>
<asrwt>0</asrwt>
<pdfrwt beam="1">  1        1 0.57395909E-01 0.11401716E+04</pdfrwt>
<pdfrwt beam="2">  1       -1 0.13402098E+00 0.11401716E+04</pdfrwt>
<totfact> 0.30708010E+01</totfact>
</mgrwt>
</event>
<event>
12    1  0.1489233E-007  0.1494118E+04  0.7818608E-02  0.8888374E-01
         -2   -1    0    0    0  501 -0.00000000000E+00  0.00000000000E+00  0.11239123577E+04  0.11239123577E+04  0.00000000000E+00 0.  1.
          2   -1    0    0  501    0  0.00000000000E+00 -0.00000000000E+00 -0.49656622255E+03  0.49656622255E+03  0.00000000000E+00 0. -1.
         23    2    1    2    0    0 -0.18527623632E+03 -0.13816360428E+03 -0.23932550314E+03  0.34567297159E+03  0.93790412859E+02 0.  0.
        254    2    1    2    0    0  0.18527623632E+03  0.13816360428E+03  0.86667163826E+03  0.12748056086E+04  0.90586596468E+03 0.  0.
        -24    2    4    4    0    0  0.23316446330E+03  0.84555998008E+00  0.10190074848E+04  0.10479242852E+04  0.73502868590E+02 0.  0.
         24    2    4    4    0    0 -0.47888226974E+02  0.13731804430E+03 -0.15233584650E+03  0.22688132340E+03  0.84376520462E+02 0.  0.
         13    1    3    3    0    0 -0.13140161268E+03 -0.11941588792E+03 -0.22543532992E+03  0.28696276079E+03  0.00000000000E+00 0. -1.
        -13    1    3    3    0    0 -0.53874623636E+02 -0.18747716365E+02 -0.13890173220E+02  0.58710210806E+02  0.00000000000E+00 0.  1.
          4    1    6    6  502    0 -0.58877091913E+02  0.13319125375E+03 -0.15710092569E+03  0.21421279813E+03  0.00000000000E+00 0. -1.
          3    1    5    5  503    0  0.17850912664E+03  0.32264493554E+02  0.74859185556E+03  0.77025727653E+03  0.00000000000E+00 0. -1.
         -4    1    5    5    0  503  0.54655336657E+02 -0.31418933574E+02  0.27041562921E+03  0.27766700872E+03  0.00000000000E+00 0.  1.
         -3    1    6    6    0  502  0.10988864939E+02  0.41267905489E+01  0.47650791920E+01  0.12668525272E+02  0.00000000000E+00 0.  1.
<mgrwt>
<rscale>  0 0.14941177E+04</rscale>
<asrwt>0</asrwt>
<pdfrwt beam="1">  1        2 0.76394804E-01 0.14941177E+04</pdfrwt>
<pdfrwt beam="2">  1       -2 0.17290959E+00 0.14941177E+04</pdfrwt>
<totfact> 0.12182729E+01</totfact>
</mgrwt>
</event>
<event>
12    1  0.1489233E-007  0.1566814E+04  0.7818608E-02  0.8841199E-01
          1   -1    0    0  501    0  0.00000000000E+00  0.00000000000E+00  0.22813007461E+04  0.22813007461E+04  0.00000000000E+00 0. -1.
         -1   -1    0    0    0  501 -0.00000000000E+00 -0.00000000000E+00 -0.26902489929E+03  0.26902489929E+03  0.00000000000E+00 0.  1.
         23    2    1    2    0    0  0.27759230289E+03  0.40268206088E+03  0.87369720613E+03  0.10056817413E+04  0.94013977211E+02 0.  0.
        254    2    1    2    0    0 -0.27759230289E+03 -0.40268206088E+03  0.11385786407E+04  0.15446439041E+04  0.92214594331E+03 0.  0.
        -24    2    4    4    0    0 -0.28315318269E+03 -0.66553363681E+03  0.61201150544E+03  0.95070464827E+03  0.78552522916E+02 0.  0.
         24    2    4    4    0    0  0.55608798019E+01  0.26285157593E+03  0.52656713523E+03  0.59393925584E+03  0.79806123676E+02 0.  0.
         11    1    3    3    0    0 -0.73733950941E+01  0.14746305081E+02  0.24078329969E+02  0.29181954061E+02  0.00000000000E+00 0.  1.
        -11    1    3    3    0    0  0.28496569798E+03  0.38793575580E+03  0.84961887616E+03  0.97649978719E+03  0.00000000000E+00 0. -1.
          4    1    6    6  502    0  0.26289480429E+02  0.76898179252E+02  0.10549272615E+03  0.13316599424E+03  0.00000000000E+00 0. -1.
          1    1    5    5  503    0 -0.68092707477E+02 -0.19407719235E+03  0.13227073802E+03  0.24453654438E+03  0.00000000000E+00 0. -1.
         -2    1    5    5    0  503 -0.21506047521E+03 -0.47145644446E+03  0.47974076742E+03  0.70616810389E+03  0.00000000000E+00 0.  1.
         -3    1    6    6    0  502 -0.20728600628E+02  0.18595339668E+03  0.42107440908E+03  0.46077326160E+03  0.00000000000E+00 0.  1.
<mgrwt>
<rscale>  0 0.15668142E+04</rscale>
<asrwt>0</asrwt>
<pdfrwt beam="1">  1        1 0.35096933E+00 0.15668142E+04</pdfrwt>
<pdfrwt beam="2">  1       -1 0.41388448E-01 0.15668142E+04</pdfrwt>
<totfact> 0.10564013E+01</totfact>
</mgrwt>
</event>
<event>
12    1  0.1489233E-007  0.2267360E+04  0.7818608E-02  0.8490903E-01
         -1   -1    0    0    0  501 -0.00000000000E+00  0.00000000000E+00  0.12043370661E+04  0.12043370661E+04  0.00000000000E+00 0.  1.
          1   -1    0    0  501    0  0.00000000000E+00 -0.00000000000E+00 -0.10671679728E+04  0.10671679728E+04  0.00000000000E+00 0. -1.
         23    2    1    2    0    0  0.41621678632E+03 -0.28831822630E+03  0.86176505537E+03  0.10042256035E+04  0.97294599910E+02 0.  0.
        254    2    1    2    0    0 -0.41621678632E+03  0.28831822630E+03 -0.72459596209E+03  0.12672794354E+04  0.90807160860E+03 0.  0.
        -24    2    4    4    0    0 -0.47578678406E+03  0.17800496928E+03 -0.90073095521E+03  0.10369963138E+04  0.77370977274E+02 0.  0.
         24    2    4    4    0    0  0.59569997739E+02  0.11031325701E+03  0.17613499312E+03  0.23028312165E+03  0.79304356830E+02 0.  0.
         11    1    3    3    0    0  0.27774473301E+03 -0.16554843497E+03  0.46434217690E+03  0.56582866513E+03  0.00000000000E+00 0.  1.
        -11    1    3    3    0    0  0.13847205331E+03 -0.12276979132E+03  0.39742287847E+03  0.43839693834E+03  0.00000000000E+00 0. -1.
          2    1    6    6  502    0 -0.15839749760E+00 -0.12120057409E+02  0.14290255283E+02  0.18738523886E+02  0.00000000000E+00 0. -1.
          1    1    5    5  503    0 -0.75987320335E+01  0.78008036597E+00 -0.44571130768E+02  0.45220956998E+02  0.00000000000E+00 0. -1.
         -2    1    5    5    0  503 -0.46818805203E+03  0.17722488892E+03 -0.85615982444E+03  0.99177535677E+03  0.00000000000E+00 0.  1.
         -1    1    6    6    0  502  0.59728395237E+02  0.12243331442E+03  0.16184473784E+03  0.21154459776E+03  0.00000000000E+00 0.  1.
<mgrwt>
<rscale>  0 0.22673596E+04</rscale>
<asrwt>0</asrwt>
<pdfrwt beam="1">  1        1 0.16417969E+00 0.22673596E+04</pdfrwt>
<pdfrwt beam="2">  1       -1 0.18528263E+00 0.22673596E+04</pdfrwt>
<totfact> 0.23220386E+00</totfact>
</mgrwt>
</event>
<event>
12    1  0.1489233E-007  0.1323529E+04  0.7818608E-02  0.9011112E-01
         -2   -1    0    0    0  501 -0.00000000000E+00  0.00000000000E+00  0.14051578364E+03  0.14051578364E+03  0.00000000000E+00 0.  1.
          2   -1    0    0  501    0  0.00000000000E+00 -0.00000000000E+00 -0.31166052189E+04  0.31166052189E+04  0.00000000000E+00 0. -1.
         23    2    1    2    0    0  0.63887080875E+02  0.77658423631E+02 -0.16584346994E+04  0.16639460405E+04  0.90544927458E+02 0.  0.
        254    2    1    2    0    0 -0.63887080875E+02 -0.77658423631E+02 -0.13176547358E+04  0.15931749620E+04  0.88987643337E+03 0.  0.
        -24    2    4    4    0    0  0.22906149899E+03 -0.36633261983E+03 -0.89981032415E+03  0.10014226345E+04  0.80745989331E+02 0.  0.
         24    2    4    4    0    0 -0.29294857986E+03  0.28867419619E+03 -0.41784441169E+03  0.59175232745E+03  0.80157361913E+02 0.  0.
         13    1    3    3    0    0 -0.13935519566E+02 -0.31356771679E+01 -0.47294146055E+03  0.47315711585E+03  0.00000000000E+00 0.  1.
        -13    1    3    3    0    0  0.77822600441E+02  0.80794100799E+02 -0.11854932388E+04  0.11907889247E+04  0.00000000000E+00 0. -1.
          4    1    6    6  502    0 -0.27207224062E+03  0.23914751181E+03 -0.33755871523E+03  0.49513707471E+03  0.00000000000E+00 0. -1.
          3    1    5    5  503    0  0.22512012236E+03 -0.35303032379E+03 -0.89228817282E+03  0.98564073697E+03  0.00000000000E+00 0. -1.
         -4    1    5    5    0  503  0.39413766288E+01 -0.13302296032E+02 -0.75221513274E+01  0.15781897542E+02  0.00000000000E+00 0.  1.
         -3    1    6    6    0  502 -0.20876339241E+02  0.49526684381E+02 -0.80285696466E+02  0.96615252744E+02  0.00000000000E+00 0.  1.
<mgrwt>
<rscale>  0 0.13235290E+04</rscale>
<asrwt>0</asrwt>
<pdfrwt beam="1">  1        2 0.47947770E+00 0.13235290E+04</pdfrwt>
<pdfrwt beam="2">  1       -2 0.21617814E-01 0.13235290E+04</pdfrwt>
<totfact> 0.27110205E+01</totfact>
</mgrwt>
</event>
<event>
12    1  0.1489233E-007  0.2844604E+04  0.7818608E-02  0.8289553E-01
          2   -1    0    0  501    0  0.00000000000E+00  0.00000000000E+00  0.26658155993E+04  0.26658155993E+04  0.00000000000E+00 0. -1.
         -2   -1    0    0    0  501 -0.00000000000E+00 -0.00000000000E+00 -0.75884592953E+03  0.75884592953E+03  0.00000000000E+00 0.  1.
         23    2    1    2    0    0  0.77294672578E+03 -0.10105471186E+04  0.92565937542E+03  0.15761359927E+04  0.93312745220E+02 0.  0.
        254    2    1    2    0    0 -0.77294672578E+03  0.10105471186E+04  0.98131029432E+03  0.18485255361E+04  0.91401566949E+03 0.  0.
        -24    2    4    4    0    0 -0.67983601573E+03  0.10761854737E+04  0.53871748714E+03  0.13845430578E+04  0.79942265762E+02 0.  0.
         24    2    4    4    0    0 -0.93110710043E+02 -0.65638355076E+02  0.44259280718E+03  0.46398247832E+03  0.80083389293E+02 0.  0.
         11    1    3    3    0    0  0.76132896867E+03 -0.98080497591E+03  0.88650177152E+03  0.15256099076E+04  0.00000000000E+00 0. -1.
        -11    1    3    3    0    0  0.11617757106E+02 -0.29742142668E+02  0.39157603896E+02  0.50526085080E+02  0.00000000000E+00 0.  1.
          4    1    6    6  502    0 -0.27543218471E+02  0.11426324027E+02  0.18215659008E+03  0.18458118288E+03  0.00000000000E+00 0. -1.
          3    1    5    5  503    0 -0.18891933163E+03  0.35492254133E+03  0.14606002270E+03  0.42777804343E+03  0.00000000000E+00 0. -1.
         -4    1    5    5    0  503 -0.49091668410E+03  0.72126293233E+03  0.39265746444E+03  0.95676501434E+03  0.00000000000E+00 0.  1.
         -3    1    6    6    0  502 -0.65567491572E+02 -0.77064679103E+02  0.26043621710E+03  0.27940129544E+03  0.00000000000E+00 0.  1.
<mgrwt>
<rscale>  0 0.28446042E+04</rscale>
<asrwt>0</asrwt>
<pdfrwt beam="1">  1        2 0.41012547E+00 0.28446042E+04</pdfrwt>
<pdfrwt beam="2">  1       -2 0.11674553E+00 0.28446042E+04</pdfrwt>
<totfact> 0.13706589E+00</totfact>
</mgrwt>
</event>
<event>
12    1  0.1489233E-007  0.1437009E+04  0.7818608E-02  0.8927457E-01
          1   -1    0    0  501    0  0.00000000000E+00  0.00000000000E+00  0.17589600133E+04  0.17589600133E+04  0.00000000000E+00 0. -1.
         -1   -1    0    0    0  501 -0.00000000000E+00 -0.00000000000E+00 -0.29349645586E+03  0.29349645586E+03  0.00000000000E+00 0.  1.
         23    2    1    2    0    0  0.12138020964E+03  0.25857361987E+02  0.10402597175E+04  0.10515506844E+04  0.90646585944E+02 0.  0.
        254    2    1    2    0    0 -0.12138020964E+03 -0.25857361987E+02  0.42520383994E+03  0.10009057848E+04  0.89755909331E+03 0.  0.
        -24    2    4    4    0    0  0.37295257268E+03 -0.11310464386E+03  0.18539611526E+03  0.43884021002E+03  0.79515586176E+02 0.  0.
         24    2    4    4    0    0 -0.49433278232E+03  0.87247281876E+02  0.23980772468E+03  0.56206557473E+03  0.80205845245E+02 0.  0.
         11    1    3    3    0    0  0.19589145212E+02 -0.29856423225E+02  0.32255062996E+03  0.32452126202E+03  0.00000000000E+00 0.  1.
        -11    1    3    3    0    0  0.10179106442E+03  0.55713785213E+02  0.71770908750E+03  0.72702942233E+03  0.00000000000E+00 0. -1.
          2    1    6    6  502    0 -0.17737683409E+03  0.30553240689E+02  0.12939815855E+03  0.22167526976E+03  0.00000000000E+00 0. -1.
          3    1    5    5  503    0  0.31604977477E+02 -0.19429522320E+02 -0.41258761982E+01  0.37328324277E+02  0.00000000000E+00 0. -1.
         -4    1    5    5    0  503  0.34134759520E+03 -0.93675121543E+02  0.18952199146E+03  0.40151188574E+03  0.00000000000E+00 0.  1.
         -1    1    6    6    0  502 -0.31695594823E+03  0.56694041187E+02  0.11040956613E+03  0.34039030497E+03  0.00000000000E+00 0.  1.
<mgrwt>
<rscale>  0 0.14370087E+04</rscale>
<asrwt>0</asrwt>
<pdfrwt beam="1">  1        1 0.27060923E+00 0.14370087E+04</pdfrwt>
<pdfrwt beam="2">  1       -1 0.45153302E-01 0.14370087E+04</pdfrwt>
<totfact> 0.20559676E+01</totfact>
</mgrwt>
</event>
<event>
12    1  0.2186447E-007  0.1802564E+04  0.7818608E-02  0.8704937E-01
         -2   -1    0    0    0  501 -0.00000000000E+00  0.00000000000E+00  0.81382094971E+03  0.81382094971E+03  0.00000000000E+00 0.  1.
          2   -1    0    0  501    0  0.00000000000E+00 -0.00000000000E+00 -0.99814277460E+03  0.99814277460E+03  0.00000000000E+00 0. -1.
         23    2    1    2    0    0 -0.54761242458E+02 -0.97919627229E+02  0.58740610560E+03  0.60551889017E+03  0.94974451231E+02 0.  0.
        254    2    1    2    0    0  0.54761242458E+02  0.97919627229E+02 -0.77172793049E+03  0.12064448341E+04  0.92052055494E+03 0.  0.
        -24    2    4    4    0    0  0.25725083493E+03 -0.30932857844E+03 -0.15984706135E+03  0.43976596239E+03  0.77336001643E+02 0.  0.
         24    2    4    4    0    0 -0.20248959247E+03  0.40724820567E+03 -0.61188086915E+03  0.76667887175E+03  0.80902152541E+02 0.  0.
         13    1    3    3    0    0 -0.47029901120E+01  0.14255403890E+02  0.16310856929E+03  0.16379786333E+03  0.00000000000E+00 0. -1.
        -13    1    3    3    0    0 -0.50058252345E+02 -0.11217503112E+03  0.42429753631E+03  0.44172102684E+03  0.00000000000E+00 0.  1.
          4    1    6    6  502    0 -0.69891933643E+02  0.87106798653E+02 -0.10967213381E+03  0.15652620769E+03  0.00000000000E+00 0. -1.
          1    1    5    5  503    0  0.87802823197E+02 -0.72818384826E+02 -0.75674435898E+02  0.13688854290E+03  0.00000000000E+00 0. -1.
         -2    1    5    5    0  503  0.16944801173E+03 -0.23651019361E+03 -0.84172625447E+02  0.30287741949E+03  0.00000000000E+00 0.  1.
         -1    1    6    6    0  502 -0.13259765882E+03  0.32014140701E+03 -0.50220873534E+03  0.61015266406E+03  0.00000000000E+00 0.  1.
<mgrwt>
<rscale>  0 0.18025643E+04</rscale>
<asrwt>0</asrwt>
<pdfrwt beam="1">  1        2 0.15356043E+00 0.18025643E+04</pdfrwt>
<pdfrwt beam="2">  1       -2 0.12520322E+00 0.18025643E+04</pdfrwt>
<totfact> 0.11384816E+01</totfact>
</mgrwt>
</event>
<event>
12    1  0.1489233E-007  0.2333256E+04  0.7818608E-02  0.8464923E-01
         -1   -1    0    0    0  501 -0.00000000000E+00  0.00000000000E+00  0.69464082305E+03  0.69464082305E+03  0.00000000000E+00 0.  1.
          1   -1    0    0  501    0  0.00000000000E+00 -0.00000000000E+00 -0.19593161884E+04  0.19593161884E+04  0.00000000000E+00 0. -1.
         23    2    1    2    0    0  0.17985704013E+02  0.81341424821E+03 -0.12118087660E+04  0.14626434473E+04  0.94229208448E+02 0.  0.
        254    2    1    2    0    0 -0.17985704013E+02 -0.81341424821E+03 -0.52866599288E+02  0.11913135641E+04  0.86860054457E+03 0.  0.
        -24    2    4    4    0    0  0.34868281786E+03 -0.57610776096E+03 -0.22622453814E+03  0.71460666357E+03  0.77493756243E+02 0.  0.
         24    2    4    4    0    0 -0.36666852188E+03 -0.23730648725E+03  0.17335793885E+03  0.47670690056E+03  0.80226680421E+02 0.  0.
         13    1    3    3    0    0  0.95924139213E+00  0.35287539151E+03 -0.60904794764E+03  0.70389016516E+03  0.00000000000E+00 0. -1.
        -13    1    3    3    0    0  0.17026462621E+02  0.46053885670E+03 -0.60276081838E+03  0.75875328212E+03  0.00000000000E+00 0.  1.
          4    1    6    6  502    0 -0.44708691437E+02 -0.13314171824E+02  0.42874190356E+02  0.63358744149E+02  0.00000000000E+00 0. -1.
          3    1    5    5  503    0  0.15057299607E+03 -0.17963743178E+03 -0.69135722063E+02  0.24437999531E+03  0.00000000000E+00 0. -1.
         -4    1    5    5    0  503  0.19810982179E+03 -0.39647032918E+03 -0.15708881608E+03  0.47022666826E+03  0.00000000000E+00 0.  1.
         -3    1    6    6    0  502 -0.32195983044E+03 -0.22399231542E+03  0.13048374850E+03  0.41334815641E+03  0.00000000000E+00 0.  1.
<mgrwt>
<rscale>  0 0.23332561E+04</rscale>
<asrwt>0</asrwt>
<pdfrwt beam="1">  1        1 0.30143326E+00 0.23332561E+04</pdfrwt>
<pdfrwt beam="2">  1       -1 0.10686782E+00 0.23332561E+04</pdfrwt>
<totfact> 0.23378690E+00</totfact>
</mgrwt>
</event>
<event>
12    1  0.1604186E-007  0.1880052E+04  0.7818608E-02  0.8664850E-01
          2   -1    0    0  501    0  0.00000000000E+00  0.00000000000E+00  0.20668749444E+04  0.20668749444E+04  0.00000000000E+00 0. -1.
         -2   -1    0    0    0  501 -0.00000000000E+00 -0.00000000000E+00 -0.42752900326E+03  0.42752900326E+03  0.00000000000E+00 0.  1.
         23    2    1    2    0    0 -0.29596735374E+03  0.31246760127E+03 -0.13421092118E+03  0.45998621453E+03  0.91334932320E+02 0.  0.
        254    2    1    2    0    0  0.29596735374E+03 -0.31246760127E+03  0.17735568623E+04  0.20344177331E+04  0.89895433293E+03 0.  0.
        -24    2    4    4    0    0  0.30071440754E+03  0.11579572848E+03  0.17058796731E+03  0.37343249292E+03  0.80707908777E+02 0.  0.
         24    2    4    4    0    0 -0.47470537990E+01 -0.42826332975E+03  0.16029688950E+04  0.16609852402E+04  0.77010880499E+02 0.  0.
         11    1    3    3    0    0 -0.46299950683E+01  0.38973945636E+02 -0.28412251307E+01  0.39350703336E+02  0.00000000000E+00 0. -1.
        -11    1    3    3    0    0 -0.29133735867E+03  0.27349365564E+03 -0.13136969605E+03  0.42063551119E+03  0.00000000000E+00 0.  1.
          4    1    6    6  502    0 -0.50623739073E+01 -0.94640324191E+02  0.24651893588E+03  0.26410983386E+03  0.00000000000E+00 0. -1.
          1    1    5    5  503    0  0.10601306644E+03  0.70099299219E+02  0.98683392746E+02  0.16090709745E+03  0.00000000000E+00 0. -1.
         -2    1    5    5    0  503  0.19470134110E+03  0.45696429257E+02  0.71904574561E+02  0.21252539546E+03  0.00000000000E+00 0.  1.
         -3    1    6    6    0  502  0.31532010834E+00 -0.33362300556E+03  0.13564499591E+04  0.13968754064E+04  0.00000000000E+00 0.  1.
<mgrwt>
<rscale>  0 0.18800521E+04</rscale>
<asrwt>0</asrwt>
<pdfrwt beam="1">  1        2 0.31798076E+00 0.18800521E+04</pdfrwt>
<pdfrwt beam="2">  1       -2 0.65773694E-01 0.18800521E+04</pdfrwt>
<totfact> 0.12240970E+01</totfact>
</mgrwt>
</event>
<event>
12    1  0.1489233E-007  0.1137725E+04  0.7818608E-02  0.9169183E-01
         -2   -1    0    0    0  501 -0.00000000000E+00  0.00000000000E+00  0.67331945714E+03  0.67331945714E+03  0.00000000000E+00 0.  1.
          2   -1    0    0  501    0  0.00000000000E+00 -0.00000000000E+00 -0.48061068217E+03  0.48061068217E+03  0.00000000000E+00 0. -1.
         23    2    1    2    0    0 -0.62563383110E+01 -0.59725490984E+02  0.22582494709E+03  0.25124350019E+03  0.92304461527E+02 0.  0.
        254    2    1    2    0    0  0.62563383110E+01  0.59725490984E+02 -0.33116172113E+02  0.90268663913E+03  0.90007789194E+03 0.  0.
        -24    2    4    4    0    0 -0.10132279965E+03  0.29575681476E+03 -0.35629186831E+03  0.48060885174E+03  0.79388725540E+02 0.  0.
         24    2    4    4    0    0  0.10757913796E+03 -0.23603132378E+03  0.32317569620E+03  0.42207778739E+03  0.80144065709E+02 0.  0.
         11    1    3    3    0    0  0.26849507257E+02  0.10924966579E+02  0.90598867785E+02  0.95123108542E+02  0.00000000000E+00 0. -1.
        -11    1    3    3    0    0 -0.33105845568E+02 -0.70650457562E+02  0.13522607930E+03  0.15612039164E+03  0.00000000000E+00 0.  1.
          2    1    6    6  502    0  0.11351625334E+03 -0.23053836245E+03  0.32445379533E+03  0.41388904508E+03  0.00000000000E+00 0. -1.
          1    1    5    5  503    0 -0.59474281275E+02  0.17574269043E+03 -0.15126835827E+03  0.23938420914E+03  0.00000000000E+00 0. -1.
         -2    1    5    5    0  503 -0.41848518375E+02  0.12001412433E+03 -0.20502351004E+03  0.24122464260E+03  0.00000000000E+00 0.  1.
         -3    1    6    6    0  502 -0.59371153803E+01 -0.54929613304E+01 -0.12780991363E+01  0.81887423100E+01  0.00000000000E+00 0.  1.
<mgrwt>
<rscale>  0 0.11377250E+04</rscale>
<asrwt>0</asrwt>
<pdfrwt beam="1">  1        2 0.73940105E-01 0.11377250E+04</pdfrwt>
<pdfrwt beam="2">  1       -2 0.10358761E+00 0.11377250E+04</pdfrwt>
<totfact> 0.48506511E+01</totfact>
</mgrwt>
</event>
<event>
12    1  0.1489233E-007  0.1524941E+04  0.7818608E-02  0.8868035E-01
         -2   -1    0    0    0  501 -0.00000000000E+00  0.00000000000E+00  0.80592737446E+03  0.80592737446E+03  0.00000000000E+00 0. -1.
          2   -1    0    0  501    0  0.00000000000E+00 -0.00000000000E+00 -0.72135652074E+03  0.72135652074E+03  0.00000000000E+00 0.  1.
         23    2    1    2    0    0 -0.22827042135E+02  0.60255252203E+01  0.52722477599E+03  0.53661576017E+03  0.97124295847E+02 0.  0.
        254    2    1    2    0    0  0.22827042135E+02 -0.60255252203E+01 -0.44265392227E+03  0.99066813502E+03  0.88595907244E+03 0.  0.
        -24    2    4    4    0    0 -0.21232385622E+03 -0.97758796189E+02 -0.62209271379E+03  0.66917161300E+03  0.78441704035E+02 0.  0.
         24    2    4    4    0    0  0.23515089835E+03  0.91733270969E+02  0.17943879153E+03  0.32149652203E+03  0.86317992161E+02 0.  0.
         13    1    3    3    0    0  0.26719481476E+02 -0.21622719548E+01  0.49795366761E+02  0.56552494739E+02  0.00000000000E+00 0.  1.
        -13    1    3    3    0    0 -0.49546523611E+02  0.81877971751E+01  0.47742940923E+03  0.48006326544E+03  0.00000000000E+00 0. -1.
          4    1    6    6  502    0  0.73366885479E+02 -0.90289510708E+01  0.32095250171E+02  0.80587386891E+02  0.00000000000E+00 0. -1.
          1    1    5    5  503    0 -0.18738162383E+03 -0.53627544428E+02 -0.46831357495E+03  0.50725278802E+03  0.00000000000E+00 0. -1.
         -2    1    5    5    0  503 -0.24942232392E+02 -0.44131251761E+02 -0.15377913884E+03  0.16191882498E+03  0.00000000000E+00 0.  1.
         -1    1    6    6    0  502  0.16178401288E+03  0.10076222204E+03  0.14734354136E+03  0.24090913514E+03  0.00000000000E+00 0.  1.
<mgrwt>
<rscale>  0 0.15249406E+04</rscale>
<asrwt>0</asrwt>
<pdfrwt beam="1">  1        2 0.11097793E+00 0.15249406E+04</pdfrwt>
<pdfrwt beam="2">  1       -2 0.12398883E+00 0.15249406E+04</pdfrwt>
<totfact> 0.18606126E+01</totfact>
</mgrwt>
</event>
<event>
12    1  0.1489233E-007  0.1807649E+04  0.7818608E-02  0.8702242E-01
         -2   -1    0    0    0  501 -0.00000000000E+00  0.00000000000E+00  0.62444329347E+03  0.62444329347E+03  0.00000000000E+00 0.  1.
          2   -1    0    0  501    0  0.00000000000E+00 -0.00000000000E+00 -0.13082029827E+04  0.13082029827E+04  0.00000000000E+00 0. -1.
         23    2    1    2    0    0 -0.44033487245E+03  0.39320222471E+03  0.90841984143E+02  0.60452460690E+03  0.93246688109E+02 0.  0.
        254    2    1    2    0    0  0.44033487245E+03 -0.39320222471E+03 -0.77460167333E+03  0.13281216692E+04  0.90299314867E+03 0.  0.
        -24    2    4    4    0    0  0.33979355223E+03 -0.15280604938E+03 -0.93652838122E+03  0.10114246309E+04  0.84172609787E+02 0.  0.
         24    2    4    4    0    0  0.10054132022E+03 -0.24039617533E+03  0.16192670789E+03  0.31669703837E+03  0.78599473254E+02 0.  0.
         13    1    3    3    0    0 -0.43601226433E+03  0.36478138592E+03  0.91334837054E+02  0.57577270396E+03  0.00000000000E+00 0.  1.
        -13    1    3    3    0    0 -0.43226081189E+01  0.28420838792E+02 -0.49285291035E+00  0.28751902938E+02  0.00000000000E+00 0. -1.
          2    1    6    6  502    0  0.51184745344E+02 -0.10912112934E+03  0.30125034522E+02  0.12423693786E+03  0.00000000000E+00 0. -1.
          3    1    5    5  503    0  0.10232266786E+03 -0.42068765154E+02 -0.18532498192E+03  0.21583572059E+03  0.00000000000E+00 0. -1.
         -4    1    5    5    0  503  0.23747088437E+03 -0.11073728423E+03 -0.75120339931E+03  0.79558891029E+03  0.00000000000E+00 0.  1.
         -1    1    6    6    0  502  0.49356574880E+02 -0.13127504599E+03  0.13180167337E+03  0.19246010050E+03  0.00000000000E+00 0.  1.
<mgrwt>
<rscale>  0 0.18076488E+04</rscale>
<asrwt>0</asrwt>
<pdfrwt beam="1">  1        2 0.20126200E+00 0.18076488E+04</pdfrwt>
<pdfrwt beam="2">  1       -2 0.96068200E-01 0.18076488E+04</pdfrwt>
<totfact> 0.14007830E+01</totfact>
</mgrwt>
</event>
<event>
12    1  0.1489233E-007  0.2474292E+04  0.7818608E-02  0.8412202E-01
         -2   -1    0    0    0  501 -0.00000000000E+00  0.00000000000E+00  0.39958981130E+03  0.39958981130E+03  0.00000000000E+00 0.  1.
          2   -1    0    0  501    0  0.00000000000E+00 -0.00000000000E+00 -0.38302532191E+04  0.38302532191E+04  0.00000000000E+00 0. -1.
         23    2    1    2    0    0 -0.17712769660E+03 -0.24774353252E+03 -0.32472793489E+04  0.32627943281E+04  0.90843708548E+02 0.  0.
        254    2    1    2    0    0  0.17712769660E+03  0.24774353252E+03 -0.18338405896E+03  0.96704870228E+03  0.89933442094E+03 0.  0.
        -24    2    4    4    0    0 -0.33234889802E+03  0.18824485324E+03 -0.21791312425E+03  0.44673932443E+03  0.78727247389E+02 0.  0.
         24    2    4    4    0    0  0.50947659462E+03  0.59498679279E+02  0.34529065286E+02  0.52030937785E+03  0.80144238913E+02 0.  0.
         13    1    3    3    0    0 -0.12044839674E+03 -0.90806878452E+02 -0.15845628201E+04  0.15917264326E+04  0.00000000000E+00 0.  1.
        -13    1    3    3    0    0 -0.56679299857E+02 -0.15693665407E+03 -0.16627165288E+04  0.16710678955E+04  0.00000000000E+00 0. -1.
          4    1    6    6  502    0  0.12694798104E+02  0.15092099908E+02  0.64804871921E+01  0.20758759423E+02  0.00000000000E+00 0. -1.
          3    1    5    5  503    0 -0.55640273929E+02  0.23130039200E+02 -0.69475731181E+02  0.91965841590E+02  0.00000000000E+00 0. -1.
         -4    1    5    5    0  503 -0.27670862409E+03  0.16511481404E+03 -0.14843739307E+03  0.35477348284E+03  0.00000000000E+00 0.  1.
         -3    1    6    6    0  502  0.49678179652E+03  0.44406579371E+02  0.28048578094E+02  0.49955061843E+03  0.00000000000E+00 0.  1.
<mgrwt>
<rscale>  0 0.24742919E+04</rscale>
<asrwt>0</asrwt>
<pdfrwt beam="1">  1        2 0.58926975E+00 0.24742919E+04</pdfrwt>
<pdfrwt beam="2">  1       -2 0.61475353E-01 0.24742919E+04</pdfrwt>
<totfact> 0.10266475E+00</totfact>
</mgrwt>
</event>
<event>
12    1  0.1489233E-007  0.1555079E+04  0.7818608E-02  0.8848630E-01
          1   -1    0    0  501    0  0.00000000000E+00  0.00000000000E+00  0.17875089961E+04  0.17875089961E+04  0.00000000000E+00 0. -1.
         -1   -1    0    0    0  501 -0.00000000000E+00 -0.00000000000E+00 -0.33821801160E+03  0.33821801160E+03  0.00000000000E+00 0.  1.
         23    2    1    2    0    0  0.33582209910E+03 -0.13528237673E+03 -0.92021801162E+01  0.37362188085E+03  0.91819529721E+02 0.  0.
        254    2    1    2    0    0 -0.33582209910E+03  0.13528237673E+03  0.14584931646E+04  0.17521051269E+04  0.90088415494E+03 0.  0.
        -24    2    4    4    0    0  0.25368961566E+03  0.25019071501E+03  0.56629586482E+03  0.67372999611E+03  0.79166193420E+02 0.  0.
         24    2    4    4    0    0 -0.58951171475E+03 -0.11490833828E+03  0.89219729982E+03  0.10783751308E+04  0.78415003666E+02 0.  0.
         11    1    3    3    0    0  0.12475851410E+03 -0.28983846008E+02 -0.42542370029E+02  0.13496148864E+03  0.00000000000E+00 0. -1.
        -11    1    3    3    0    0  0.21106358500E+03 -0.10629853072E+03  0.33340189913E+02  0.23866039221E+03  0.00000000000E+00 0.  1.
          2    1    6    6  502    0 -0.28780618188E+03 -0.91618989566E+02  0.41374618271E+03  0.51226198501E+03  0.00000000000E+00 0. -1.
          1    1    5    5  503    0  0.51666984563E+01  0.31769879248E+02  0.72631458710E+02  0.79443997852E+02  0.00000000000E+00 0. -1.
         -2    1    5    5    0  503  0.24852291720E+03  0.21842083576E+03  0.49366440611E+03  0.59428599826E+03  0.00000000000E+00 0.  1.
         -1    1    6    6    0  502 -0.30170553287E+03 -0.23289348712E+02  0.47845111711E+03  0.56611314575E+03  0.00000000000E+00 0.  1.
<mgrwt>
<rscale>  0 0.15550791E+04</rscale>
<asrwt>0</asrwt>
<pdfrwt beam="1">  1        1 0.27500138E+00 0.15550791E+04</pdfrwt>
<pdfrwt beam="2">  1       -1 0.52033541E-01 0.15550791E+04</pdfrwt>
<totfact> 0.14881534E+01</totfact>
</mgrwt>
</event>
<event>
12    1  0.1489233E-007  0.1265691E+04  0.7818608E-02  0.9057224E-01
          1   -1    0    0  501    0  0.00000000000E+00  0.00000000000E+00  0.82396067289E+03  0.82396067289E+03  0.00000000000E+00 0. -1.
         -1   -1    0    0    0  501 -0.00000000000E+00 -0.00000000000E+00 -0.48605920319E+03  0.48605920319E+03  0.00000000000E+00 0.  1.
         23    2    1    2    0    0 -0.91512502218E+02  0.19733510667E+03 -0.13723087373E+03  0.27334923796E+03  0.92584074245E+02 0.  0.
        254    2    1    2    0    0  0.91512502218E+02 -0.19733510667E+03  0.47513234343E+03  0.10366706381E+04  0.89533210921E+03 0.  0.
        -24    2    4    4    0    0  0.32873491275E+03  0.16914909923E+03  0.45432231128E+03  0.59206819830E+03  0.86359297558E+02 0.  0.
         24    2    4    4    0    0 -0.23722241053E+03 -0.36648420590E+03  0.20810032152E+02  0.44460243982E+03  0.81566701683E+02 0.  0.
         11    1    3    3    0    0 -0.96105095783E+02  0.18170330858E+03 -0.14846169205E+03  0.25356095084E+03  0.00000000000E+00 0.  1.
        -11    1    3    3    0    0  0.45925935647E+01  0.15631798089E+02  0.11230818320E+02  0.19788287124E+02  0.00000000000E+00 0. -1.
          4    1    6    6  502    0 -0.22396475927E+03 -0.28989473364E+03  0.19816462886E+02  0.36686763579E+03  0.00000000000E+00 0. -1.
          3    1    5    5  503    0  0.14333841263E+03  0.10732703528E+03  0.16893820173E+03  0.24618104931E+03  0.00000000000E+00 0. -1.
         -4    1    5    5    0  503  0.18539650012E+03  0.61822063953E+02  0.28538410955E+03  0.34588714899E+03  0.00000000000E+00 0.  1.
         -3    1    6    6    0  502 -0.13257651262E+02 -0.76589472262E+02  0.99356926648E+00  0.77734804034E+02  0.00000000000E+00 0.  1.
<mgrwt>
<rscale>  0 0.12656914E+04</rscale>
<asrwt>0</asrwt>
<pdfrwt beam="1">  1        1 0.12676318E+00 0.12656914E+04</pdfrwt>
<pdfrwt beam="2">  1       -1 0.74778339E-01 0.12656914E+04</pdfrwt>
<totfact> 0.37364142E+01</totfact>
</mgrwt>
</event>
<event>
12    1  0.1489233E-007  0.1700725E+04  0.7818608E-02  0.8760951E-01
          1   -1    0    0  501    0  0.00000000000E+00  0.00000000000E+00  0.17442211550E+04  0.17442211550E+04  0.00000000000E+00 0. -1.
         -1   -1    0    0    0  501 -0.00000000000E+00 -0.00000000000E+00 -0.41457842633E+03  0.41457842633E+03  0.00000000000E+00 0.  1.
         23    2    1    2    0    0 -0.84035921170E+02 -0.58327804059E+03  0.43899965503E+03  0.74036996628E+03  0.90286661086E+02 0.  0.
        254    2    1    2    0    0  0.84035921170E+02  0.58327804059E+03  0.89064307367E+03  0.14184296151E+04  0.93349996227E+03 0.  0.
        -24    2    4    4    0    0 -0.37691318936E+03  0.16024702096E+03  0.58152975102E+03  0.71593477794E+03  0.81505183353E+02 0.  0.
         24    2    4    4    0    0  0.46094911053E+03  0.42303101964E+03  0.30911332266E+03  0.70249483714E+03  0.80737995305E+02 0.  0.
         13    1    3    3    0    0 -0.57527727812E+02 -0.34048514131E+03  0.20204044537E+03  0.40007488360E+03  0.00000000000E+00 0.  1.
        -13    1    3    3    0    0 -0.26508193358E+02 -0.24279289929E+03  0.23695920965E+03  0.34029508268E+03  0.00000000000E+00 0. -1.
          4    1    6    6  502    0  0.38074478707E+03  0.33317794007E+03  0.28130558080E+03  0.57888423922E+03  0.00000000000E+00 0. -1.
          3    1    5    5  503    0 -0.35689650971E+03  0.14468242444E+03  0.57042570215E+03  0.68825402597E+03  0.00000000000E+00 0. -1.
         -4    1    5    5    0  503 -0.20016679646E+02  0.15564596518E+02  0.11104048869E+02  0.27680751978E+02  0.00000000000E+00 0.  1.
         -3    1    6    6    0  502  0.80204323464E+02  0.89853079570E+02  0.27807741855E+02  0.12361059792E+03  0.00000000000E+00 0.  1.
<mgrwt>
<rscale>  0 0.17007251E+04</rscale>
<asrwt>0</asrwt>
<pdfrwt beam="1">  1        1 0.26834171E+00 0.17007251E+04</pdfrwt>
<pdfrwt beam="2">  1       -1 0.63781297E-01 0.17007251E+04</pdfrwt>
<totfact> 0.10547392E+01</totfact>
</mgrwt>
</event>
<event>
12    1  0.1489233E-007  0.1709246E+04  0.7818608E-02  0.8756108E-01
         -2   -1    0    0    0  501 -0.00000000000E+00  0.00000000000E+00  0.72642784119E+03  0.72642784119E+03  0.00000000000E+00 0.  1.
          2   -1    0    0  501    0  0.00000000000E+00 -0.00000000000E+00 -0.10054415328E+04  0.10054415328E+04  0.00000000000E+00 0. -1.
         23    2    1    2    0    0 -0.27123833076E+03 -0.33793317603E+03  0.33133313258E+03  0.55321944238E+03  0.92201101646E+02 0.  0.
        254    2    1    2    0    0  0.27123833076E+03  0.33793317603E+03 -0.61034682415E+03  0.11786499316E+04  0.91045227876E+03 0.  0.
        -24    2    4    4    0    0 -0.94859888769E+02  0.42871814682E+03 -0.65479812155E+03  0.79247132642E+03  0.80327923544E+02 0.  0.
         24    2    4    4    0    0  0.36609821952E+03 -0.90784970781E+02  0.44451297407E+02  0.38617860515E+03  0.69915520269E+02 0.  0.
         13    1    3    3    0    0 -0.16201371633E+03 -0.13078598604E+03  0.14125448472E+03  0.25160732875E+03  0.00000000000E+00 0. -1.
        -13    1    3    3    0    0 -0.10922461442E+03 -0.20714718999E+03  0.19007864786E+03  0.30161211363E+03  0.00000000000E+00 0.  1.
          4    1    6    6  502    0  0.22211245306E+03 -0.19705433527E+02  0.28987688837E+02  0.22486113942E+03  0.00000000000E+00 0. -1.
          1    1    5    5  503    0 -0.80793490663E+02  0.18672953066E+03 -0.31789382101E+03  0.37742812189E+03  0.00000000000E+00 0. -1.
         -2    1    5    5    0  503 -0.14066398106E+02  0.24198861616E+03 -0.33690430054E+03  0.41504320453E+03  0.00000000000E+00 0.  1.
         -3    1    6    6    0  502  0.14398576646E+03 -0.71079537254E+02  0.15463608570E+02  0.16131746573E+03  0.00000000000E+00 0.  1.
<mgrwt>
<rscale>  0 0.17092463E+04</rscale>
<asrwt>0</asrwt>
<pdfrwt beam="1">  1        2 0.15468331E+00 0.17092463E+04</pdfrwt>
<pdfrwt beam="2">  1       -2 0.11175813E+00 0.17092463E+04</pdfrwt>
<totfact> 0.15022300E+01</totfact>
</mgrwt>
</event>
<event>
12    1  0.2040117E-007  0.1293651E+04  0.7818608E-02  0.9034615E-01
          1   -1    0    0  501    0  0.00000000000E+00  0.00000000000E+00  0.10006753670E+04  0.10006753670E+04  0.00000000000E+00 0. -1.
         -1   -1    0    0    0  501 -0.00000000000E+00 -0.00000000000E+00 -0.41810065360E+03  0.41810065360E+03  0.00000000000E+00 0.  1.
         23    2    1    2    0    0 -0.16779650903E+03 -0.49665573160E+02 -0.16037943329E+03  0.25699497048E+03  0.98501343285E+02 0.  0.
        254    2    1    2    0    0  0.16779650903E+03  0.49665573160E+02  0.74295414672E+03  0.11617810501E+04  0.87586072337E+03 0.  0.
        -24    2    4    4    0    0  0.42727387127E+03  0.23877765600E+03  0.64956435633E+03  0.81761583045E+03  0.83570707244E+02 0.  0.
         24    2    4    4    0    0 -0.25947736224E+03 -0.18911208284E+03  0.93389790387E+02  0.34416521970E+03  0.81462654682E+02 0.  0.
         11    1    3    3    0    0 -0.23505942445E+02  0.15281985687E+02  0.45854281797E+01  0.28409409856E+02  0.00000000000E+00 0. -1.
        -11    1    3    3    0    0 -0.14429056659E+03 -0.64947558847E+02 -0.16496486147E+03  0.22858556062E+03  0.00000000000E+00 0.  1.
          4    1    6    6  502    0 -0.25913517344E+03 -0.19402707150E+03  0.97127262256E+02  0.33798113507E+03  0.00000000000E+00 0. -1.
          3    1    5    5  503    0  0.42751057240E+03  0.24204730954E+03  0.64945403841E+03  0.81433576464E+03  0.00000000000E+00 0. -1.
         -4    1    5    5    0  503 -0.23670112607E+00 -0.32696535324E+01  0.11031791530E+00  0.32800658054E+01  0.00000000000E+00 0.  1.
         -3    1    6    6    0  502 -0.34218880110E+00  0.49149886598E+01 -0.37374718694E+01  0.61840846272E+01  0.00000000000E+00 0.  1.
<mgrwt>
<rscale>  0 0.12936507E+04</rscale>
<asrwt>0</asrwt>
<pdfrwt beam="1">  1        1 0.15395006E+00 0.12936507E+04</pdfrwt>
<pdfrwt beam="2">  1       -1 0.64323178E-01 0.12936507E+04</pdfrwt>
<totfact> 0.36412755E+01</totfact>
</mgrwt>
</event>
<event>
12    1  0.1489233E-007  0.2084791E+04  0.7818608E-02  0.8567973E-01
         -1   -1    0    0    0  501 -0.00000000000E+00  0.00000000000E+00  0.12073155996E+04  0.12073155996E+04  0.00000000000E+00 0. -1.
          1   -1    0    0  501    0  0.00000000000E+00 -0.00000000000E+00 -0.90000342967E+03  0.90000342967E+03  0.00000000000E+00 0.  1.
         23    2    1    2    0    0  0.25262651054E+03 -0.78488670540E+03 -0.65303940838E+02  0.83190133906E+03  0.89038975168E+02 0.  0.
        254    2    1    2    0    0 -0.25262651054E+03  0.78488670540E+03  0.37261611080E+03  0.12754176902E+04  0.89887720209E+03 0.  0.
        -24    2    4    4    0    0 -0.26711808081E+03 -0.12430904365E+03  0.11549458425E+03  0.32714749479E+03  0.82955873378E+02 0.  0.
         24    2    4    4    0    0  0.14491570272E+02  0.90919574905E+03  0.25712152654E+03  0.94827019546E+03  0.79107322601E+02 0.  0.
         11    1    3    3    0    0  0.58272669349E+02 -0.85721887300E+02 -0.91870806630E+01  0.10405935040E+03  0.00000000000E+00 0.  1.
        -11    1    3    3    0    0  0.19435384119E+03 -0.69916481810E+03 -0.56116860175E+02  0.72784198865E+03  0.00000000000E+00 0. -1.
          4    1    6    6  502    0 -0.17085295521E+00  0.64689832770E+02 -0.21911640653E+01  0.64727157010E+02  0.00000000000E+00 0. -1.
          3    1    5    5  503    0 -0.36819409079E+02  0.11098295468E+02  0.20689244080E+02  0.43667904321E+02  0.00000000000E+00 0. -1.
         -4    1    5    5    0  503 -0.23029867173E+03 -0.13540733912E+03  0.94805340175E+02  0.28347959047E+03  0.00000000000E+00 0.  1.
         -3    1    6    6    0  502  0.14662423228E+02  0.84450591628E+03  0.25931269061E+03  0.88354303845E+03  0.00000000000E+00 0.  1.
<mgrwt>
<rscale>  0 0.20847908E+04</rscale>
<asrwt>0</asrwt>
<pdfrwt beam="1">  1        1 0.13846207E+00 0.20847908E+04</pdfrwt>
<pdfrwt beam="2">  1       -1 0.18574086E+00 0.20847908E+04</pdfrwt>
<totfact> 0.31730640E+00</totfact>
</mgrwt>
</event>
<event>
12    1  0.1489233E-007  0.1236441E+04  0.7818608E-02  0.9081545E-01
         -2   -1    0    0    0  501 -0.00000000000E+00  0.00000000000E+00  0.63801001621E+03  0.63801001621E+03  0.00000000000E+00 0.  1.
          2   -1    0    0  501    0  0.00000000000E+00 -0.00000000000E+00 -0.59904446081E+03  0.59904446081E+03  0.00000000000E+00 0. -1.
         23    2    1    2    0    0 -0.40100815505E+01  0.11126032450E+03  0.26083818380E+03  0.29691269306E+03  0.87895668883E+02 0.  0.
        254    2    1    2    0    0  0.40100815505E+01 -0.11126032450E+03 -0.22187262840E+03  0.94014178396E+03  0.90677680284E+03 0.  0.
        -24    2    4    4    0    0  0.15375670770E+03  0.34965178166E+03  0.24901950686E+02  0.39061947284E+03  0.77884349103E+02 0.  0.
         24    2    4    4    0    0 -0.14974662615E+03 -0.46091210616E+03 -0.24677457909E+03  0.54952231112E+03  0.78822940146E+02 0.  0.
         13    1    3    3    0    0  0.29831881667E+02  0.10118888751E+02  0.91663027603E+02  0.96924938497E+02  0.00000000000E+00 0. -1.
        -13    1    3    3    0    0 -0.33841963218E+02  0.10114143574E+03  0.16917515620E+03  0.19998775456E+03  0.00000000000E+00 0.  1.
          2    1    6    6  502    0 -0.10098922763E+02 -0.97021534752E+02 -0.23506302902E+02  0.10033799242E+03  0.00000000000E+00 0. -1.
          1    1    5    5  503    0  0.14029572646E+03  0.34892924194E+03  0.26676899400E+02  0.37702276285E+03  0.00000000000E+00 0. -1.
         -2    1    5    5    0  503  0.13460981242E+02  0.72253971498E+00 -0.17749487141E+01  0.13596709991E+02  0.00000000000E+00 0.  1.
         -1    1    6    6    0  502 -0.13964770339E+03 -0.36389057140E+03 -0.22326827618E+03  0.44918431870E+03  0.00000000000E+00 0.  1.
<mgrwt>
<rscale>  0 0.12364406E+04</rscale>
<asrwt>0</asrwt>
<pdfrwt beam="1">  1        2 0.92160687E-01 0.12364406E+04</pdfrwt>
<pdfrwt beam="2">  1       -2 0.98155387E-01 0.12364406E+04</pdfrwt>
<totfact> 0.42235043E+01</totfact>
</mgrwt>
</event>
<event>
12    1  0.1489233E-007  0.1000085E+04  0.7818608E-02  0.9308451E-01
         -1   -1    0    0    0  501 -0.00000000000E+00  0.00000000000E+00  0.70382771459E+03  0.70382771459E+03  0.00000000000E+00 0.  1.
          1   -1    0    0  501    0  0.00000000000E+00 -0.00000000000E+00 -0.35526100169E+03  0.35526100169E+03  0.00000000000E+00 0. -1.
         23    2    1    2    0    0 -0.16043399154E+02 -0.32820960727E+02  0.14077423283E+02  0.99934605711E+02  0.91946427081E+02 0.  0.
        254    2    1    2    0    0  0.16043399154E+02  0.32820960727E+02  0.33448928962E+03  0.95915411057E+03  0.89819759342E+03 0.  0.
        -24    2    4    4    0    0  0.20577510051E+02  0.89192311967E+02 -0.29713419984E+03  0.32096684009E+03  0.79701174977E+02 0.  0.
         24    2    4    4    0    0 -0.45341108975E+01 -0.56371351240E+02  0.63162348946E+03  0.63818727047E+03  0.71669186961E+02 0.  0.
         13    1    3    3    0    0 -0.58614242669E+01 -0.64903079558E+02  0.70265927570E+01  0.65544939060E+02  0.00000000000E+00 0. -1.
        -13    1    3    3    0    0 -0.10181974887E+02  0.32082118831E+02  0.70508305260E+01  0.34389666651E+02  0.00000000000E+00 0.  1.
          4    1    6    6  502    0  0.12975745603E+01 -0.61696017714E+02  0.29094839009E+03  0.29742065832E+03  0.00000000000E+00 0. -1.
          3    1    5    5  503    0 -0.19716487895E+02  0.27221492344E+01 -0.10002110912E+03  0.10198221541E+03  0.00000000000E+00 0. -1.
         -4    1    5    5    0  503  0.40293997947E+02  0.86470162733E+02 -0.19711309072E+03  0.21898462468E+03  0.00000000000E+00 0.  1.
         -3    1    6    6    0  502 -0.58316854578E+01  0.53246664739E+01  0.34067509937E+03  0.34076661215E+03  0.00000000000E+00 0.  1.
<mgrwt>
<rscale>  0 0.10000851E+04</rscale>
<asrwt>0</asrwt>
<pdfrwt beam="1">  1        1 0.54655539E-01 0.10000851E+04</pdfrwt>
<pdfrwt beam="2">  1       -1 0.10828119E+00 0.10000851E+04</pdfrwt>
<totfact> 0.55798935E+01</totfact>
</mgrwt>
</event>
<event>
12    1  0.1489233E-007  0.1352466E+04  0.7818608E-02  0.8988963E-01
         -1   -1    0    0    0  501 -0.00000000000E+00  0.00000000000E+00  0.33685564632E+03  0.33685564632E+03  0.00000000000E+00 0.  1.
          1   -1    0    0  501    0  0.00000000000E+00 -0.00000000000E+00 -0.13575284475E+04  0.13575284475E+04  0.00000000000E+00 0. -1.
         23    2    1    2    0    0  0.32823784745E+03 -0.63043653581E+02 -0.50102725188E+02  0.34944106598E+03  0.88792954486E+02 0.  0.
        254    2    1    2    0    0 -0.32823784745E+03  0.63043653581E+02 -0.97057007602E+03  0.13449430279E+04  0.86899418236E+03 0.  0.
        -24    2    4    4    0    0 -0.60641823668E+03  0.12788630922E+03 -0.56423634703E+03  0.84197607497E+03  0.80393218915E+02 0.  0.
         24    2    4    4    0    0  0.27818038923E+03 -0.64842655641E+02 -0.40633372899E+03  0.50296695289E+03  0.79244920645E+02 0.  0.
         11    1    3    3    0    0  0.59416617551E+02  0.93260589875E+01  0.18114358864E+02  0.62812736085E+02  0.00000000000E+00 0.  1.
        -11    1    3    3    0    0  0.26882122990E+03 -0.72369712569E+02 -0.68217084051E+02  0.28662832990E+03  0.00000000000E+00 0. -1.
          4    1    6    6  502    0  0.26993935324E+03 -0.75201704363E+02 -0.36888803432E+03  0.46325039949E+03  0.00000000000E+00 0. -1.
          3    1    5    5  503    0 -0.33050802360E+03  0.10764001862E+03 -0.29428366628E+03  0.45543913261E+03  0.00000000000E+00 0. -1.
         -4    1    5    5    0  503 -0.27591021308E+03  0.20246290599E+02 -0.26995268076E+03  0.38653694236E+03  0.00000000000E+00 0.  1.
         -3    1    6    6    0  502  0.82410359828E+01  0.10359048723E+02 -0.37445694670E+02  0.39716553398E+02  0.00000000000E+00 0.  1.
<mgrwt>
<rscale>  0 0.13524661E+04</rscale>
<asrwt>0</asrwt>
<pdfrwt beam="1">  1        1 0.20885052E+00 0.13524661E+04</pdfrwt>
<pdfrwt beam="2">  1       -1 0.51823947E-01 0.13524661E+04</pdfrwt>
<totfact> 0.30188473E+01</totfact>
</mgrwt>
</event>
<event>
12    1  0.1489233E-007  0.2139857E+04  0.7818608E-02  0.8543886E-01
         -1   -1    0    0    0  501 -0.00000000000E+00  0.00000000000E+00  0.12747791424E+04  0.12747791424E+04  0.00000000000E+00 0.  1.
          1   -1    0    0  501    0  0.00000000000E+00 -0.00000000000E+00 -0.89799641640E+03  0.89799641640E+03  0.00000000000E+00 0. -1.
         23    2    1    2    0    0 -0.51106949723E+02 -0.31067988809E+03 -0.65751564388E+03  0.73365309114E+03  0.82377927997E+02 0.  0.
        254    2    1    2    0    0  0.51106949723E+02  0.31067988809E+03  0.10342983699E+04  0.14391224677E+04  0.94982442894E+03 0.  0.
        -24    2    4    4    0    0  0.10438885660E+03 -0.32901625583E+03  0.34474696638E+03  0.49367388139E+03  0.75595637145E+02 0.  0.
         24    2    4    4    0    0 -0.53281906877E+02  0.63969614392E+03  0.68955140352E+03  0.94544858629E+03  0.79635250160E+02 0.  0.
         11    1    3    3    0    0 -0.50462168055E+02 -0.14886783183E+03 -0.25150396046E+03  0.29658439589E+03  0.00000000000E+00 0.  1.
        -11    1    3    3    0    0 -0.64478166844E+00 -0.16181205626E+03 -0.40601168342E+03  0.43706869525E+03  0.00000000000E+00 0. -1.
          4    1    6    6  502    0 -0.41245587363E+02  0.19943855129E+03  0.17858104269E+03  0.27086550726E+03  0.00000000000E+00 0. -1.
          3    1    5    5  503    0  0.37394352545E+02 -0.10561385364E+03  0.16393901395E+03  0.19856642208E+03  0.00000000000E+00 0. -1.
         -4    1    5    5    0  503  0.66994504055E+02 -0.22340240219E+03  0.18080795243E+03  0.29510745931E+03  0.00000000000E+00 0.  1.
         -3    1    6    6    0  502 -0.12036319514E+02  0.44025759263E+03  0.51097036083E+03  0.67458307902E+03  0.00000000000E+00 0.  1.
<mgrwt>
<rscale>  0 0.21398571E+04</rscale>
<asrwt>0</asrwt>
<pdfrwt beam="1">  1        1 0.13815329E+00 0.21398571E+04</pdfrwt>
<pdfrwt beam="2">  1       -1 0.19611987E+00 0.21398571E+04</pdfrwt>
<totfact> 0.26803084E+00</totfact>
</mgrwt>
</event>
<event>
12    1  0.1489233E-007  0.2405971E+04  0.7818608E-02  0.8437271E-01
          1   -1    0    0  501    0  0.00000000000E+00  0.00000000000E+00  0.64163043258E+03  0.64163043258E+03  0.00000000000E+00 0. -1.
         -1   -1    0    0    0  501 -0.00000000000E+00 -0.00000000000E+00 -0.22554644467E+04  0.22554644467E+04  0.00000000000E+00 0.  1.
         23    2    1    2    0    0 -0.96300077246E+03 -0.31791650745E+03 -0.92569669352E+03  0.13762013704E+04  0.92598326730E+02 0.  0.
        254    2    1    2    0    0  0.96300077246E+03  0.31791650745E+03 -0.68813732057E+03  0.15208935088E+04  0.90063460945E+03 0.  0.
        -24    2    4    4    0    0  0.73394688584E+03 -0.17935670297E+03 -0.58322575614E+03  0.95782035479E+03  0.80129216106E+02 0.  0.
         24    2    4    4    0    0  0.22905388662E+03  0.49727321042E+03 -0.10491156443E+03  0.56307315404E+03  0.79363793191E+02 0.  0.
         11    1    3    3    0    0 -0.24515015288E+03 -0.62547957840E+02 -0.28109069649E+03  0.37818358523E+03  0.00000000000E+00 0. -1.
        -11    1    3    3    0    0 -0.71785061958E+03 -0.25536854961E+03 -0.64460599703E+03  0.99801778520E+03  0.00000000000E+00 0.  1.
          2    1    6    6  502    0  0.23774166059E+02  0.20352788876E+02 -0.19493489500E+02  0.36870626788E+02  0.00000000000E+00 0. -1.
          1    1    5    5  503    0  0.15674126344E+03 -0.58957997316E+02 -0.96681892585E+02  0.19336819145E+03  0.00000000000E+00 0. -1.
         -2    1    5    5    0  503  0.57720562240E+03 -0.12039870566E+03 -0.48654386356E+03  0.76445216333E+03  0.00000000000E+00 0.  1.
         -1    1    6    6    0  502  0.20527972056E+03  0.47692042154E+03 -0.85418074930E+02  0.52620252725E+03  0.00000000000E+00 0.  1.
<mgrwt>
<rscale>  0 0.24059714E+04</rscale>
<asrwt>0</asrwt>
<pdfrwt beam="1">  1        1 0.98712372E-01 0.24059714E+04</pdfrwt>
<pdfrwt beam="2">  1       -1 0.34699454E+00 0.24059714E+04</pdfrwt>
<totfact> 0.45254004E-01</totfact>
</mgrwt>
</event>
<event>
12    1  0.1489233E-007  0.2331748E+04  0.7818608E-02  0.8465507E-01
          2   -1    0    0  501    0  0.00000000000E+00  0.00000000000E+00  0.13361299453E+04  0.13361299453E+04  0.00000000000E+00 0.  1.
         -2   -1    0    0    0  501 -0.00000000000E+00 -0.00000000000E+00 -0.10173130251E+04  0.10173130251E+04  0.00000000000E+00 0. -1.
         23    2    1    2    0    0  0.45733246218E+03 -0.17781800558E+03 -0.73204285782E+03  0.88555213673E+03  0.86853998852E+02 0.  0.
        254    2    1    2    0    0 -0.45733246218E+03  0.17781800558E+03  0.10508597780E+04  0.14678908336E+04  0.89979164383E+03 0.  0.
        -24    2    4    4    0    0  0.12389782147E+03 -0.10039514141E+03  0.71407787340E+03  0.73606568813E+03  0.80346956298E+02 0.  0.
         24    2    4    4    0    0 -0.58123028365E+03  0.27821314699E+03  0.33678190462E+03  0.73182514549E+03  0.83155243437E+02 0.  0.
         13    1    3    3    0    0  0.31477079716E+03 -0.15190790366E+03 -0.56559045492E+03  0.66486782795E+03  0.00000000000E+00 0. -1.
        -13    1    3    3    0    0  0.14256166502E+03 -0.25910101922E+02 -0.16645240290E+03  0.22068430878E+03  0.00000000000E+00 0.  1.
          2    1    6    6  502    0 -0.47785424029E+03  0.24089203086E+03  0.31095848047E+03  0.61892553839E+03  0.00000000000E+00 0. -1.
          3    1    5    5  503    0  0.12881229244E+03 -0.92414629250E+02  0.56862942829E+03  0.59031559110E+03  0.00000000000E+00 0. -1.
         -4    1    5    5    0  503 -0.49144709744E+01 -0.79805121570E+01  0.14544844511E+03  0.14575009703E+03  0.00000000000E+00 0.  1.
         -1    1    6    6    0  502 -0.10337604335E+03  0.37321116132E+02  0.25823424147E+02  0.11289960710E+03  0.00000000000E+00 0.  1.
<mgrwt>
<rscale>  0 0.23317482E+04</rscale>
<asrwt>0</asrwt>
<pdfrwt beam="1">  1        2 0.20555845E+00 0.23317482E+04</pdfrwt>
<pdfrwt beam="2">  1       -2 0.15650970E+00 0.23317482E+04</pdfrwt>
<totfact> 0.38094807E+00</totfact>
</mgrwt>
</event>
<event>
12    1  0.1489233E-007  0.1618879E+04  0.7818608E-02  0.8809033E-01
         -1   -1    0    0    0  501 -0.00000000000E+00  0.00000000000E+00  0.12159523067E+04  0.12159523067E+04  0.00000000000E+00 0.  1.
          1   -1    0    0  501    0  0.00000000000E+00 -0.00000000000E+00 -0.53883045029E+03  0.53883045029E+03  0.00000000000E+00 0. -1.
         23    2    1    2    0    0 -0.42728656971E+03 -0.33254881260E+03  0.21228479677E+03  0.58881036397E+03  0.92034147792E+02 0.  0.
        254    2    1    2    0    0  0.42728656971E+03  0.33254881260E+03  0.46483705962E+03  0.11659723930E+04  0.92209305595E+03 0.  0.
        -24    2    4    4    0    0  0.53749222023E+03  0.37944625213E+03 -0.16483680570E+02  0.66342700509E+03  0.83584294540E+02 0.  0.
         24    2    4    4    0    0 -0.11020565052E+03 -0.46897439531E+02  0.48132074019E+03  0.50254538791E+03  0.80855158952E+02 0.  0.
         11    1    3    3    0    0 -0.16862298684E+03 -0.17431448434E+03  0.61693086928E+02  0.25025045078E+03  0.00000000000E+00 0.  1.
        -11    1    3    3    0    0 -0.25866358287E+03 -0.15823432826E+03  0.15059170984E+03  0.33855991319E+03  0.00000000000E+00 0. -1.
          4    1    6    6  502    0 -0.92351295932E+02 -0.27695789884E+02  0.45604854007E+03  0.46612883363E+03  0.00000000000E+00 0. -1.
          1    1    5    5  503    0  0.35556736328E+03  0.27433006094E+03  0.22818915805E+02  0.44967303131E+03  0.00000000000E+00 0. -1.
         -2    1    5    5    0  503  0.18192485695E+03  0.10511619119E+03 -0.39302596374E+02  0.21375397378E+03  0.00000000000E+00 0.  1.
         -3    1    6    6    0  502 -0.17854354588E+02 -0.19201649647E+02  0.25272200124E+02  0.36416554286E+02  0.00000000000E+00 0.  1.
<mgrwt>
<rscale>  0 0.16188788E+04</rscale>
<asrwt>0</asrwt>
<pdfrwt beam="1">  1        1 0.82896993E-01 0.16188788E+04</pdfrwt>
<pdfrwt beam="2">  1       -1 0.18706958E+00 0.16188788E+04</pdfrwt>
<totfact> 0.70877871E+00</totfact>
</mgrwt>
</event>
<event>
12    1  0.1489233E-007  0.1117194E+04  0.7818608E-02  0.9188594E-01
         -2   -1    0    0    0  501 -0.00000000000E+00  0.00000000000E+00  0.24342712584E+03  0.24342712584E+03  0.00000000000E+00 0.  1.
          2   -1    0    0  501    0  0.00000000000E+00 -0.00000000000E+00 -0.12818234165E+04  0.12818234165E+04  0.00000000000E+00 0. -1.
         23    2    1    2    0    0  0.14316301420E+03 -0.28698920083E+02 -0.33962167979E+02  0.17633025874E+03  0.92842095227E+02 0.  0.
        254    2    1    2    0    0 -0.14316301420E+03  0.28698920083E+02 -0.10044341227E+04  0.13489202836E+04  0.88846989146E+03 0.  0.
        -24    2    4    4    0    0  0.13867453286E+03  0.49413992523E+02 -0.10406168706E+04  0.10538054304E+04  0.77136534871E+02 0.  0.
         24    2    4    4    0    0 -0.28183754705E+03 -0.20715072440E+02  0.36182747925E+02  0.29511485321E+03  0.76954975028E+02 0.  0.
         11    1    3    3    0    0  0.14685438988E+03 -0.19204813283E+02 -0.78627215501E+01  0.14831338129E+03  0.00000000000E+00 0. -1.
        -11    1    3    3    0    0 -0.36913756787E+01 -0.94941068005E+01 -0.26099446429E+02  0.28016877453E+02  0.00000000000E+00 0.  1.
          4    1    6    6  502    0 -0.17957788422E+03  0.69310119940E+01 -0.90309639709E+01  0.17993836095E+03  0.00000000000E+00 0. -1.
          3    1    5    5  503    0  0.12982146052E+03  0.31030148010E+02 -0.99395425401E+03  0.10028766329E+04  0.00000000000E+00 0. -1.
         -4    1    5    5    0  503  0.88530723413E+01  0.18383844513E+02 -0.46662616567E+02  0.50928797491E+02  0.00000000000E+00 0.  1.
         -3    1    6    6    0  502 -0.10225966283E+03 -0.27646084434E+02  0.45213711896E+02  0.11517649226E+03  0.00000000000E+00 0.  1.
<mgrwt>
<rscale>  0 0.11171940E+04</rscale>
<asrwt>0</asrwt>
<pdfrwt beam="1">  1        2 0.19720360E+00 0.11171940E+04</pdfrwt>
<pdfrwt beam="2">  1       -2 0.37450327E-01 0.11171940E+04</pdfrwt>
<totfact> 0.11289375E+02</totfact>
</mgrwt>
</event>
<event>
12    1  0.1489233E-007  0.2455935E+04  0.7818608E-02  0.8418854E-01
          2   -1    0    0  501    0  0.00000000000E+00  0.00000000000E+00  0.24287736175E+04  0.24287736175E+04  0.00000000000E+00 0. -1.
         -2   -1    0    0    0  501 -0.00000000000E+00 -0.00000000000E+00 -0.62084992603E+03  0.62084992603E+03  0.00000000000E+00 0.  1.
         23    2    1    2    0    0 -0.21442733592E+02  0.15597068877E+03 -0.51770365927E+03  0.54877464437E+03  0.91377704632E+02 0.  0.
        254    2    1    2    0    0  0.21442733592E+02 -0.15597068877E+03  0.23256273507E+04  0.25008488991E+04  0.90604414643E+03 0.  0.
        -24    2    4    4    0    0  0.26576258078E+03  0.25635347382E+03  0.14608355960E+04  0.15089215675E+04  0.80354250766E+02 0.  0.
         24    2    4    4    0    0 -0.24431984719E+03 -0.41232416259E+03  0.86479175478E+03  0.99192733163E+03  0.79697235281E+02 0.  0.
         13    1    3    3    0    0 -0.45568149901E+02  0.14106511069E+03 -0.47430841168E+03  0.49693489626E+03  0.00000000000E+00 0.  1.
        -13    1    3    3    0    0  0.24125416309E+02  0.14905578081E+02 -0.43395247596E+02  0.51839748108E+02  0.00000000000E+00 0. -1.
          4    1    6    6  502    0 -0.13349511602E+03 -0.29676227051E+03  0.59671009928E+03  0.67967031256E+03  0.00000000000E+00 0. -1.
          3    1    5    5  503    0  0.14204075740E+03  0.19021099449E+03  0.94216931646E+03  0.97161660137E+03  0.00000000000E+00 0. -1.
         -4    1    5    5    0  503  0.12372182338E+03  0.66142479331E+02  0.51866627950E+03  0.53730496614E+03  0.00000000000E+00 0.  1.
         -3    1    6    6    0  502 -0.11082473116E+03 -0.11556189208E+03  0.26808165551E+03  0.31225701907E+03  0.00000000000E+00 0.  1.
<mgrwt>
<rscale>  0 0.24559348E+04</rscale>
<asrwt>0</asrwt>
<pdfrwt beam="1">  1        2 0.37365747E+00 0.24559348E+04</pdfrwt>
<pdfrwt beam="2">  1       -2 0.95515375E-01 0.24559348E+04</pdfrwt>
<totfact> 0.31520527E+00</totfact>
</mgrwt>
</event>
<event>
12    1  0.1489233E-007  0.1641482E+04  0.7818608E-02  0.8795462E-01
          2   -1    0    0  501    0  0.00000000000E+00  0.00000000000E+00  0.36335296366E+04  0.36335296366E+04  0.00000000000E+00 0. -1.
         -2   -1    0    0    0  501 -0.00000000000E+00 -0.00000000000E+00 -0.18538881274E+03  0.18538881274E+03  0.00000000000E+00 0.  1.
         23    2    1    2    0    0 -0.39001649887E+03 -0.25351733707E+03  0.44998362312E+03  0.65363588770E+03  0.91491546174E+02 0.  0.
        254    2    1    2    0    0  0.39001649887E+03  0.25351733707E+03  0.29981572007E+04  0.31652825617E+04  0.90204389312E+03 0.  0.
        -24    2    4    4    0    0  0.86099028945E+02  0.94265834363E+02  0.27009340431E+04  0.27051973991E+04  0.82153348753E+02 0.  0.
         24    2    4    4    0    0  0.30391746993E+03  0.15925150271E+03  0.29722315769E+03  0.46008516258E+03  0.74899143596E+02 0.  0.
         11    1    3    3    0    0 -0.75256021192E+02 -0.19536073268E+02  0.10928004627E+03  0.13411657391E+03  0.00000000000E+00 0. -1.
        -11    1    3    3    0    0 -0.31476047768E+03 -0.23398126381E+03  0.34070357685E+03  0.51951931379E+03  0.00000000000E+00 0.  1.
          2    1    6    6  502    0  0.62695996343E+01  0.69017818715E+01 -0.39004770737E+01  0.10107234735E+02  0.00000000000E+00 0. -1.
          1    1    5    5  503    0  0.12461603354E+02  0.20250346092E+02  0.13080376698E+03  0.13294733367E+03  0.00000000000E+00 0. -1.
         -2    1    5    5    0  503  0.73637425591E+02  0.74015488271E+02  0.25701302761E+04  0.25722500654E+04  0.00000000000E+00 0.  1.
         -1    1    6    6    0  502  0.29764787029E+03  0.15234972084E+03  0.30112363477E+03  0.44997792784E+03  0.00000000000E+00 0.  1.
<mgrwt>
<rscale>  0 0.16414819E+04</rscale>
<asrwt>0</asrwt>
<pdfrwt beam="1">  1        2 0.55900451E+00 0.16414819E+04</pdfrwt>
<pdfrwt beam="2">  1       -2 0.28521358E-01 0.16414819E+04</pdfrwt>
<totfact> 0.71227933E+00</totfact>
</mgrwt>
</event>
<event>
12    1  0.1489233E-007  0.4344005E+04  0.7818608E-02  0.7938531E-01
          2   -1    0    0  501    0  0.00000000000E+00  0.00000000000E+00  0.20516601168E+04  0.20516601168E+04  0.00000000000E+00 0.  1.
         -2   -1    0    0    0  501 -0.00000000000E+00 -0.00000000000E+00 -0.22994037457E+04  0.22994037457E+04  0.00000000000E+00 0. -1.
         23    2    1    2    0    0  0.16610180857E+03 -0.63992256086E+03  0.18529639770E+04  0.19694855109E+04  0.91142650313E+02 0.  0.
        254    2    1    2    0    0 -0.16610180857E+03  0.63992256086E+03 -0.21007076058E+04  0.23815783516E+04  0.90656070118E+03 0.  0.
        -24    2    4    4    0    0 -0.50058638209E+03  0.21018664831E+03 -0.12905704240E+04  0.14021118099E+04  0.74701773794E+02 0.  0.
         24    2    4    4    0    0  0.33448457351E+03  0.42973591255E+03 -0.81013718186E+03  0.97946654176E+03  0.80495767267E+02 0.  0.
         13    1    3    3    0    0  0.96490852283E+02 -0.28145471447E+03  0.71741794956E+03  0.77666965644E+03  0.00000000000E+00 0.  1.
        -13    1    3    3    0    0  0.69610956292E+02 -0.35846784639E+03  0.11355460275E+04  0.11928158544E+04  0.00000000000E+00 0. -1.
          4    1    6    6  502    0  0.15204342891E+03  0.25843954291E+03 -0.42335484663E+03  0.51878466417E+03  0.00000000000E+00 0. -1.
          3    1    5    5  503    0 -0.37119547526E+03  0.19005266024E+03 -0.97256485284E+03  0.10582005894E+04  0.00000000000E+00 0. -1.
         -4    1    5    5    0  503 -0.12939090683E+03  0.20133988068E+02 -0.31800557115E+03  0.34391122042E+03  0.00000000000E+00 0.  1.
         -3    1    6    6    0  502  0.18244114461E+03  0.17129636965E+03 -0.38678233523E+03  0.46068187759E+03  0.00000000000E+00 0.  1.
<mgrwt>
<rscale>  0 0.43440050E+04</rscale>
<asrwt>0</asrwt>
<pdfrwt beam="1">  1        2 0.31564002E+00 0.43440050E+04</pdfrwt>
<pdfrwt beam="2">  1       -2 0.35375442E+00 0.43440050E+04</pdfrwt>
<totfact> 0.70671101E-02</totfact>
</mgrwt>
</event>
<event>
12    1  0.1489233E-007  0.1659819E+04  0.7818608E-02  0.8784619E-01
         -3   -1    0    0    0  501 -0.00000000000E+00  0.00000000000E+00  0.37244136307E+03  0.37244136307E+03  0.00000000000E+00 0.  1.
          3   -1    0    0  501    0  0.00000000000E+00 -0.00000000000E+00 -0.18492829601E+04  0.18492829601E+04  0.00000000000E+00 0. -1.
         23    2    1    2    0    0 -0.25269284827E+03  0.85556053094E+02  0.16765228887E+03  0.32806010250E+03  0.91337982805E+02 0.  0.
        254    2    1    2    0    0  0.25269284827E+03 -0.85556053094E+02 -0.16444938859E+04  0.18936642207E+04  0.90023914936E+03 0.  0.
        -24    2    4    4    0    0  0.61393205065E+02  0.12499129473E+03  0.54788487255E+02  0.16895858310E+03  0.78442814072E+02 0.  0.
         24    2    4    4    0    0  0.19129964321E+03 -0.21054734783E+03 -0.16992823732E+04  0.17247056376E+04  0.78250963908E+02 0.  0.
         11    1    3    3    0    0 -0.19279656521E+03  0.53728477273E+02  0.16630334361E+03  0.26021926701E+03  0.00000000000E+00 0. -1.
        -11    1    3    3    0    0 -0.59896283065E+02  0.31827575821E+02  0.13489452601E+01  0.67840835498E+02  0.00000000000E+00 0.  1.
          2    1    6    6  502    0  0.56146501689E+02 -0.60782242088E+02 -0.72850921783E+03  0.73319341996E+03  0.00000000000E+00 0. -1.
          3    1    5    5  503    0  0.51518912762E+02  0.71712023825E+02  0.69996923457E+02  0.11267822339E+03  0.00000000000E+00 0. -1.
         -4    1    5    5    0  503  0.98742923030E+01  0.53279270906E+02 -0.15208436202E+02  0.56280359705E+02  0.00000000000E+00 0.  1.
         -1    1    6    6    0  502  0.13515314152E+03 -0.14976510574E+03 -0.97077315534E+03  0.99151221761E+03  0.00000000000E+00 0.  1.
<mgrwt>
<rscale>  0 0.16598186E+04</rscale>
<asrwt>0</asrwt>
<pdfrwt beam="1">  1        3 0.28450507E+00 0.16598186E+04</pdfrwt>
<pdfrwt beam="2">  1       -3 0.57298672E-01 0.16598186E+04</pdfrwt>
<totfact> 0.35331185E-01</totfact>
</mgrwt>
</event>
<event>
12    1  0.1489233E-007  0.2661793E+04  0.7818608E-02  0.8347509E-01
         -2   -1    0    0    0  501 -0.00000000000E+00  0.00000000000E+00  0.80404915452E+03  0.80404915452E+03  0.00000000000E+00 0. -1.
          2   -1    0    0  501    0  0.00000000000E+00 -0.00000000000E+00 -0.22029566879E+04  0.22029566879E+04  0.00000000000E+00 0.  1.
         23    2    1    2    0    0 -0.14848878245E+03  0.75488527257E+02 -0.19364842613E+04  0.19457053113E+04  0.89724177205E+02 0.  0.
        254    2    1    2    0    0  0.14848878245E+03 -0.75488527257E+02  0.53757672790E+03  0.10613005311E+04  0.89979033265E+03 0.  0.
        -24    2    4    4    0    0  0.43095499117E+03 -0.19744870384E+03  0.56534212366E+03  0.74254426060E+03  0.83976586613E+02 0.  0.
         24    2    4    4    0    0 -0.28246620872E+03  0.12196017659E+03 -0.27765395765E+02  0.31875627052E+03  0.78569708262E+02 0.  0.
         11    1    3    3    0    0 -0.59475124975E+02  0.41715360278E+02 -0.13115763401E+04  0.13135866768E+04  0.00000000000E+00 0.  1.
        -11    1    3    3    0    0 -0.89013657473E+02  0.33773166979E+02 -0.62490792125E+03  0.63211863448E+03  0.00000000000E+00 0. -1.
          2    1    6    6  502    0 -0.13680989584E+02  0.17787581871E+02 -0.20506349809E+02  0.30398650090E+02  0.00000000000E+00 0. -1.
          3    1    5    5  503    0  0.72845935820E+02 -0.17361346803E+02  0.13541678342E+03  0.15474382689E+03  0.00000000000E+00 0. -1.
         -4    1    5    5    0  503  0.35810905535E+03 -0.18008735704E+03  0.42992534025E+03  0.58780043371E+03  0.00000000000E+00 0.  1.
         -1    1    6    6    0  502 -0.26878521913E+03  0.10417259472E+03 -0.72590459563E+01  0.28835762043E+03  0.00000000000E+00 0.  1.
<mgrwt>
<rscale>  0 0.26617930E+04</rscale>
<asrwt>0</asrwt>
<pdfrwt beam="1">  1        2 0.33891641E+00 0.26617930E+04</pdfrwt>
<pdfrwt beam="2">  1       -2 0.12369987E+00 0.26617930E+04</pdfrwt>
<totfact> 0.22281499E+00</totfact>
</mgrwt>
</event>
<event>
12    1  0.1489233E-007  0.1896698E+04  0.7818608E-02  0.8656502E-01
         -2   -1    0    0    0  501 -0.00000000000E+00  0.00000000000E+00  0.22302676026E+04  0.22302676026E+04  0.00000000000E+00 0. -1.
          2   -1    0    0  501    0  0.00000000000E+00 -0.00000000000E+00 -0.40325475097E+03  0.40325475097E+03  0.00000000000E+00 0.  1.
         23    2    1    2    0    0  0.24363160150E+03  0.30759437283E+03  0.16089659581E+04  0.16589238253E+04  0.96364663298E+02 0.  0.
        254    2    1    2    0    0 -0.24363160150E+03 -0.30759437283E+03  0.21804689351E+03  0.97459852827E+03  0.86505906624E+03 0.  0.
        -24    2    4    4    0    0 -0.53531913696E+03 -0.21990459477E+03 -0.11480257627E+02  0.58444578498E+03  0.80749427682E+02 0.  0.
         24    2    4    4    0    0  0.29168753546E+03 -0.87689778064E+02  0.22952715113E+03  0.39015274328E+03  0.82251653240E+02 0.  0.
         13    1    3    3    0    0  0.58150927248E+02  0.14478982995E+03  0.68716143253E+03  0.70465343223E+03  0.00000000000E+00 0. -1.
        -13    1    3    3    0    0  0.18548067425E+03  0.16280454288E+03  0.92180452555E+03  0.95427039304E+03  0.00000000000E+00 0.  1.
          2    1    6    6  502    0  0.22173733003E+03 -0.30237113350E+02  0.17836813920E+03  0.28617637854E+03  0.00000000000E+00 0. -1.
          3    1    5    5  503    0 -0.38561716120E+03 -0.11814050649E+03 -0.64249894752E+01  0.40335970892E+03  0.00000000000E+00 0. -1.
         -4    1    5    5    0  503 -0.14970197576E+03 -0.10176408827E+03 -0.50552681518E+01  0.18108607606E+03  0.00000000000E+00 0.  1.
         -1    1    6    6    0  502  0.69950205434E+02 -0.57452664714E+02  0.51159011938E+02  0.10397636474E+03  0.00000000000E+00 0.  1.
<mgrwt>
<rscale>  0 0.18966982E+04</rscale>
<asrwt>0</asrwt>
<pdfrwt beam="1">  1        2 0.62039194E-01 0.18966982E+04</pdfrwt>
<pdfrwt beam="2">  1       -2 0.34311809E+00 0.18966982E+04</pdfrwt>
<totfact> 0.12723901E+00</totfact>
</mgrwt>
</event>
<event>
12    1  0.1489233E-007  0.1590097E+04  0.7818608E-02  0.8826655E-01
         -2   -1    0    0    0  501 -0.00000000000E+00  0.00000000000E+00  0.76303812142E+03  0.76303812142E+03  0.00000000000E+00 0.  1.
          2   -1    0    0  501    0  0.00000000000E+00 -0.00000000000E+00 -0.82840136334E+03  0.82840136334E+03  0.00000000000E+00 0. -1.
         23    2    1    2    0    0 -0.32628226089E+03 -0.36247396080E+03 -0.21981578814E+03  0.54200991612E+03  0.87225468892E+02 0.  0.
        254    2    1    2    0    0  0.32628226089E+03  0.36247396080E+03  0.15445254622E+03  0.10494295686E+04  0.91629653742E+03 0.  0.
        -24    2    4    4    0    0 -0.70881639933E+02 -0.18453359740E+03 -0.19087746814E+03  0.28619850335E+03  0.79990749646E+02 0.  0.
         24    2    4    4    0    0  0.39716390082E+03  0.54700755820E+03  0.34533001436E+03  0.76323106530E+03  0.79450659969E+02 0.  0.
         11    1    3    3    0    0 -0.10275072594E+03 -0.91652614609E+02 -0.10294095902E+03  0.17191496296E+03  0.00000000000E+00 0. -1.
        -11    1    3    3    0    0 -0.22353153495E+03 -0.27082134619E+03 -0.11687482912E+03  0.37009495316E+03  0.00000000000E+00 0.  1.
          2    1    6    6  502    0  0.27685792741E+03  0.39163307325E+03  0.20407303674E+03  0.52122219864E+03  0.00000000000E+00 0. -1.
          3    1    5    5  503    0 -0.28843300579E+02 -0.16386324059E+03 -0.15062742454E+03  0.22443644675E+03  0.00000000000E+00 0. -1.
         -4    1    5    5    0  503 -0.42038339354E+02 -0.20670356808E+02 -0.40250043596E+02  0.61762056601E+02  0.00000000000E+00 0.  1.
         -1    1    6    6    0  502  0.12030597341E+03  0.15537448495E+03  0.14125697762E+03  0.24200886665E+03  0.00000000000E+00 0.  1.
<mgrwt>
<rscale>  0 0.15900966E+04</rscale>
<asrwt>0</asrwt>
<pdfrwt beam="1">  1        2 0.12744636E+00 0.15900966E+04</pdfrwt>
<pdfrwt beam="2">  1       -2 0.11739048E+00 0.15900966E+04</pdfrwt>
<totfact> 0.17685611E+01</totfact>
</mgrwt>
</event>
<event>
12    1  0.1489233E-007  0.1325291E+04  0.7818608E-02  0.9009747E-01
          1   -1    0    0  501    0  0.00000000000E+00  0.00000000000E+00  0.10866802842E+04  0.10866802842E+04  0.00000000000E+00 0. -1.
         -1   -1    0    0    0  501 -0.00000000000E+00 -0.00000000000E+00 -0.40407352728E+03  0.40407352728E+03  0.00000000000E+00 0.  1.
         23    2    1    2    0    0  0.10884286137E+02 -0.10334085839E+03 -0.19578565962E+03  0.23983096882E+03  0.91591857695E+02 0.  0.
        254    2    1    2    0    0 -0.10884286137E+02  0.10334085839E+03  0.87839241655E+03  0.12509228427E+04  0.88455464509E+03 0.  0.
        -24    2    4    4    0    0 -0.46983211967E+02 -0.38372711940E+03  0.35907591119E+03  0.53360829650E+03  0.79676720085E+02 0.  0.
         24    2    4    4    0    0  0.36098925830E+02  0.48706797778E+03  0.51931650536E+03  0.71731454617E+03  0.79449216357E+02 0.  0.
         13    1    3    3    0    0 -0.33647490288E+02 -0.23512689111E+02 -0.31181467458E+02  0.51548851246E+02  0.00000000000E+00 0.  1.
        -13    1    3    3    0    0  0.44531776425E+02 -0.79828169274E+02 -0.16460419216E+03  0.18828211757E+03  0.00000000000E+00 0. -1.
          4    1    6    6  502    0  0.88986010325E+01  0.43439959831E+03  0.47139545350E+03  0.64108959568E+03  0.00000000000E+00 0. -1.
          3    1    5    5  503    0 -0.30137216702E+02 -0.37361920298E+03  0.34505062642E+03  0.50946981801E+03  0.00000000000E+00 0. -1.
         -4    1    5    5    0  503 -0.16845995266E+02 -0.10107916411E+02  0.14025284769E+02  0.24138478484E+02  0.00000000000E+00 0.  1.
         -3    1    6    6    0  502  0.27200324798E+02  0.52668379473E+02  0.47921051861E+02  0.76224950488E+02  0.00000000000E+00 0.  1.
<mgrwt>
<rscale>  0 0.13252905E+04</rscale>
<asrwt>0</asrwt>
<pdfrwt beam="1">  1        1 0.16718158E+00 0.13252905E+04</pdfrwt>
<pdfrwt beam="2">  1       -1 0.62165158E-01 0.13252905E+04</pdfrwt>
<totfact> 0.33399433E+01</totfact>
</mgrwt>
</event>
<event>
12    1  0.1489233E-007  0.1963095E+04  0.7818608E-02  0.8624072E-01
         -1   -1    0    0    0  501 -0.00000000000E+00  0.00000000000E+00  0.54388864582E+03  0.54388864582E+03  0.00000000000E+00 0.  1.
          1   -1    0    0  501    0  0.00000000000E+00 -0.00000000000E+00 -0.17713843126E+04  0.17713843126E+04  0.00000000000E+00 0. -1.
         23    2    1    2    0    0 -0.18171311588E+03  0.73340575669E+03 -0.71239798144E+03  0.10424922252E+04  0.91517731341E+02 0.  0.
        254    2    1    2    0    0  0.18171311588E+03 -0.73340575669E+03 -0.51509768538E+03  0.12727807333E+04  0.88529176497E+03 0.  0.
        -24    2    4    4    0    0  0.53207366019E+03 -0.46023988805E+03 -0.26702559807E+03  0.75771209806E+03  0.88892176861E+02 0.  0.
         24    2    4    4    0    0 -0.35036054430E+03 -0.27316586865E+03 -0.24807208731E+03  0.51506863523E+03  0.79898909240E+02 0.  0.
         11    1    3    3    0    0 -0.16684500241E+03  0.61243803479E+03 -0.55315029165E+03  0.84195774623E+03  0.00000000000E+00 0.  1.
        -11    1    3    3    0    0 -0.14868113469E+02  0.12096772190E+03 -0.15924768978E+03  0.20053447894E+03  0.00000000000E+00 0. -1.
          4    1    6    6  502    0 -0.15911147210E+03 -0.15037945457E+03 -0.16070713309E+03  0.27158281156E+03  0.00000000000E+00 0. -1.
          1    1    5    5  503    0  0.49073951562E+03 -0.42012993029E+03 -0.21718494819E+03  0.68154510653E+03  0.00000000000E+00 0. -1.
         -2    1    5    5    0  503  0.41334144571E+02 -0.40109957753E+02 -0.49840649874E+02  0.76166991527E+02  0.00000000000E+00 0.  1.
         -3    1    6    6    0  502 -0.19124907221E+03 -0.12278641408E+03 -0.87364954219E+02  0.24348582367E+03  0.00000000000E+00 0.  1.
<mgrwt>
<rscale>  0 0.19630953E+04</rscale>
<asrwt>0</asrwt>
<pdfrwt beam="1">  1        1 0.27252066E+00 0.19630953E+04</pdfrwt>
<pdfrwt beam="2">  1       -1 0.83675178E-01 0.19630953E+04</pdfrwt>
<totfact> 0.56159179E+00</totfact>
</mgrwt>
</event>
<event>
12    1  0.1489233E-007  0.1662357E+04  0.7818608E-02  0.8783130E-01
          2   -1    0    0  501    0  0.00000000000E+00  0.00000000000E+00  0.15395167440E+04  0.15395167440E+04  0.00000000000E+00 0. -1.
         -2   -1    0    0    0  501 -0.00000000000E+00 -0.00000000000E+00 -0.44874979252E+03  0.44874979252E+03  0.00000000000E+00 0.  1.
         23    2    1    2    0    0  0.12913814968E+03  0.73049790138E+02  0.10509936162E+04  0.10652525515E+04  0.90346464509E+02 0.  0.
        254    2    1    2    0    0 -0.12913814968E+03 -0.73049790138E+02  0.39773335241E+02  0.92301398497E+03  0.91014282655E+03 0.  0.
        -24    2    4    4    0    0 -0.28215349859E+03 -0.40127797656E+03 -0.13196028886E+03  0.51466009629E+03  0.82624969804E+02 0.  0.
         24    2    4    4    0    0  0.15301534891E+03  0.32822818643E+03  0.17173362410E+03  0.40835388868E+03  0.78185813215E+02 0.  0.
         13    1    3    3    0    0  0.37953489433E+02 -0.83711464688E+01  0.11684933285E+03  0.12314345309E+03  0.00000000000E+00 0.  1.
        -13    1    3    3    0    0  0.91184660244E+02  0.81420936607E+02  0.93414428339E+03  0.94210909844E+03  0.00000000000E+00 0. -1.
          4    1    6    6  502    0  0.11931691398E+03  0.26782675423E+03  0.17050943490E+03  0.33917718620E+03  0.00000000000E+00 0. -1.
          1    1    5    5  503    0 -0.19576722665E+03 -0.23254476659E+03 -0.11240111542E+03  0.32409240387E+03  0.00000000000E+00 0. -1.
         -2    1    5    5    0  503 -0.86386271938E+02 -0.16873320998E+03 -0.19559173436E+02  0.19056769242E+03  0.00000000000E+00 0.  1.
         -3    1    6    6    0  502  0.33698434928E+02  0.60401432191E+02  0.12241891980E+01  0.69176702484E+02  0.00000000000E+00 0.  1.
<mgrwt>
<rscale>  0 0.16623571E+04</rscale>
<asrwt>0</asrwt>
<pdfrwt beam="1">  1        2 0.23684873E+00 0.16623571E+04</pdfrwt>
<pdfrwt beam="2">  1       -2 0.69038430E-01 0.16623571E+04</pdfrwt>
<totfact> 0.22046917E+01</totfact>
</mgrwt>
</event>
<event>
12    1  0.1489233E-007  0.1368344E+04  0.7818608E-02  0.8977057E-01
          2   -1    0    0  501    0  0.00000000000E+00  0.00000000000E+00  0.74443608581E+03  0.74443608581E+03  0.00000000000E+00 0. -1.
         -2   -1    0    0    0  501 -0.00000000000E+00 -0.00000000000E+00 -0.62878689832E+03  0.62878689832E+03  0.00000000000E+00 0.  1.
         23    2    1    2    0    0  0.12073233868E+03  0.28315623470E+03 -0.19932667808E+03  0.37759140737E+03  0.89946625701E+02 0.  0.
        254    2    1    2    0    0 -0.12073233868E+03 -0.28315623470E+03  0.31497586557E+03  0.99563157676E+03  0.89292703504E+03 0.  0.
        -24    2    4    4    0    0  0.37432317100E+03 -0.10047458711E+03  0.22072045050E+03  0.45344003649E+03  0.81715178600E+02 0.  0.
         24    2    4    4    0    0 -0.49505550968E+03 -0.18268164758E+03  0.94255415067E+02  0.54219154027E+03  0.81455761257E+02 0.  0.
         13    1    3    3    0    0  0.99606008249E+02  0.16257151583E+03 -0.16032241257E+03  0.24910666513E+03  0.00000000000E+00 0.  1.
        -13    1    3    3    0    0  0.21126330428E+02  0.12058471886E+03 -0.39004265513E+02  0.12848474224E+03  0.00000000000E+00 0. -1.
          4    1    6    6  502    0 -0.43029407542E+02 -0.20789695257E+02 -0.14395202191E+02  0.49909550072E+02  0.00000000000E+00 0. -1.
          3    1    5    5  503    0  0.94996765667E+01 -0.11851491207E+02  0.26986915726E+02  0.30967649557E+02  0.00000000000E+00 0. -1.
         -4    1    5    5    0  503  0.36482349444E+03 -0.88623095907E+02  0.19373353477E+03  0.42247238693E+03  0.00000000000E+00 0.  1.
         -3    1    6    6    0  502 -0.45202610214E+03 -0.16189195232E+03  0.10865061726E+03  0.49228199020E+03  0.00000000000E+00 0.  1.
<mgrwt>
<rscale>  0 0.13683445E+04</rscale>
<asrwt>0</asrwt>
<pdfrwt beam="1">  1        2 0.11452863E+00 0.13683445E+04</pdfrwt>
<pdfrwt beam="2">  1       -2 0.96736446E-01 0.13683445E+04</pdfrwt>
<totfact> 0.33003458E+01</totfact>
</mgrwt>
</event>
<event>
12    1  0.1489233E-007  0.1383874E+04  0.7818608E-02  0.8965575E-01
         -2   -1    0    0    0  501 -0.00000000000E+00  0.00000000000E+00  0.60533723232E+03  0.60533723232E+03  0.00000000000E+00 0.  1.
          2   -1    0    0  501    0  0.00000000000E+00 -0.00000000000E+00 -0.79092521916E+03  0.79092521916E+03  0.00000000000E+00 0. -1.
         23    2    1    2    0    0 -0.91111530014E+02 -0.16236929817E+03 -0.41140065698E+03  0.46277688466E+03  0.10122669866E+03 0.  0.
        254    2    1    2    0    0  0.91111530014E+02  0.16236929817E+03  0.22581267014E+03  0.93348556682E+03  0.88641911170E+03 0.  0.
        -24    2    4    4    0    0  0.42221571028E+03  0.29810654008E+03  0.21836525510E+03  0.56661739257E+03  0.78982717620E+02 0.  0.
         24    2    4    4    0    0 -0.33110418026E+03 -0.13573724191E+03  0.74474150413E+01  0.36686817425E+03  0.80512211873E+02 0.  0.
         11    1    3    3    0    0 -0.48179947528E+02 -0.46994951732E+01 -0.87997031958E+02  0.10043341193E+03  0.00000000000E+00 0.  1.
        -11    1    3    3    0    0 -0.42931582485E+02 -0.15766980300E+03 -0.32340362502E+03  0.36234347273E+03  0.00000000000E+00 0. -1.
          4    1    6    6  502    0 -0.20724536824E+03 -0.11785017745E+03 -0.18271074669E+02  0.23910905284E+03  0.00000000000E+00 0. -1.
          1    1    5    5  503    0  0.37504701439E+03  0.29174168387E+03  0.19530393756E+03  0.51372862597E+03  0.00000000000E+00 0. -1.
         -2    1    5    5    0  503  0.47168695884E+02  0.63648562131E+01  0.23061317538E+02  0.52888766601E+02  0.00000000000E+00 0.  1.
         -3    1    6    6    0  502 -0.12385881202E+03 -0.17887064459E+02  0.25718489710E+02  0.12775912141E+03  0.00000000000E+00 0.  1.
<mgrwt>
<rscale>  0 0.13838735E+04</rscale>
<asrwt>0</asrwt>
<pdfrwt beam="1">  1        2 0.12168080E+00 0.13838735E+04</pdfrwt>
<pdfrwt beam="2">  1       -2 0.93128805E-01 0.13838735E+04</pdfrwt>
<totfact> 0.33281153E+01</totfact>
</mgrwt>
</event>
<event>
12    1  0.1489233E-007  0.1307733E+04  0.7818608E-02  0.9023455E-01
         -1   -1    0    0    0  501 -0.00000000000E+00  0.00000000000E+00  0.48763093477E+03  0.48763093477E+03  0.00000000000E+00 0.  1.
          1   -1    0    0  501    0  0.00000000000E+00 -0.00000000000E+00 -0.87677308589E+03  0.87677308589E+03  0.00000000000E+00 0. -1.
         23    2    1    2    0    0 -0.14352333347E+03  0.17527493433E+03 -0.35214219568E+03  0.42937728188E+03  0.95081409105E+02 0.  0.
        254    2    1    2    0    0  0.14352333347E+03 -0.17527493433E+03 -0.36999955442E+02  0.93502673878E+03  0.90641367800E+03 0.  0.
        -24    2    4    4    0    0  0.24604969256E+03 -0.26443927844E+03 -0.39689470706E+03  0.54250747544E+03  0.79500749799E+02 0.  0.
         24    2    4    4    0    0 -0.10252635908E+03  0.89164344111E+02  0.35989475162E+03  0.39251926334E+03  0.78007725767E+02 0.  0.
         13    1    3    3    0    0 -0.11294588055E+03  0.16907767105E+03 -0.33946157080E+03  0.39569961945E+03  0.00000000000E+00 0. -1.
        -13    1    3    3    0    0 -0.30577452920E+02  0.61972632799E+01 -0.12680624880E+02  0.33677662428E+02  0.00000000000E+00 0.  1.
          4    1    6    6  502    0 -0.54795400936E+02  0.24684750440E+01  0.94400206224E+02  0.10917888197E+03  0.00000000000E+00 0. -1.
          1    1    5    5  503    0  0.11939796129E+03 -0.75528602967E+02 -0.17297249578E+03  0.22333814569E+03  0.00000000000E+00 0. -1.
         -2    1    5    5    0  503  0.12665173127E+03 -0.18891067548E+03 -0.22392221129E+03  0.31916932975E+03  0.00000000000E+00 0.  1.
         -3    1    6    6    0  502 -0.47730958148E+02  0.86695869067E+02  0.26549454540E+03  0.28334038137E+03  0.00000000000E+00 0.  1.
<mgrwt>
<rscale>  0 0.13077334E+04</rscale>
<asrwt>0</asrwt>
<pdfrwt beam="1">  1        1 0.13488817E+00 0.13077334E+04</pdfrwt>
<pdfrwt beam="2">  1       -1 0.75020144E-01 0.13077334E+04</pdfrwt>
<totfact> 0.33382234E+01</totfact>
</mgrwt>
</event>
<event>
12    1  0.1489233E-007  0.1064453E+04  0.7818608E-02  0.9240548E-01
          2   -1    0    0  501    0  0.00000000000E+00  0.00000000000E+00  0.89079040439E+03  0.89079040439E+03  0.00000000000E+00 0.  1.
         -2   -1    0    0    0  501 -0.00000000000E+00 -0.00000000000E+00 -0.31799301039E+03  0.31799301039E+03  0.00000000000E+00 0. -1.
         23    2    1    2    0    0 -0.70847741563E+00 -0.93462340362E+02  0.17365362713E+03  0.21601575074E+03  0.88156175874E+02 0.  0.
        254    2    1    2    0    0  0.70847741563E+00  0.93462340362E+02  0.39914376687E+03  0.99276766404E+03  0.90417707177E+03 0.  0.
        -24    2    4    4    0    0  0.10358807054E+03 -0.25131075839E+03  0.53071619390E+03  0.60135943982E+03  0.78012253886E+02 0.  0.
         24    2    4    4    0    0 -0.10287959312E+03  0.34477309875E+03 -0.13157242702E+03  0.39140822422E+03  0.80227140855E+02 0.  0.
         11    1    3    3    0    0 -0.25856241562E+02 -0.16838065738E+02  0.81567433372E+01  0.31915484445E+02  0.00000000000E+00 0. -1.
        -11    1    3    3    0    0  0.25147764147E+02 -0.76624274625E+02  0.16549688379E+03  0.18410026629E+03  0.00000000000E+00 0.  1.
          2    1    6    6  502    0 -0.69626099571E+02  0.31521938249E+03 -0.12615098976E+03  0.34659071692E+03  0.00000000000E+00 0. -1.
          1    1    5    5  503    0  0.10265517152E+03 -0.17145501426E+03  0.33651440593E+03  0.39137814394E+03  0.00000000000E+00 0. -1.
         -2    1    5    5    0  503  0.93289902384E+00 -0.79855744128E+02  0.19420178796E+03  0.20998129588E+03  0.00000000000E+00 0.  1.
         -1    1    6    6    0  502 -0.33253493554E+02  0.29553716255E+02 -0.54214372693E+01  0.44817507294E+02  0.00000000000E+00 0.  1.
<mgrwt>
<rscale>  0 0.10644531E+04</rscale>
<asrwt>0</asrwt>
<pdfrwt beam="1">  1        2 0.13704468E+00 0.10644531E+04</pdfrwt>
<pdfrwt beam="2">  1       -2 0.48922002E-01 0.10644531E+04</pdfrwt>
<totfact> 0.11706735E+02</totfact>
</mgrwt>
</event>
<event>
12    1  0.1489233E-007  0.3083420E+04  0.7818608E-02  0.8220303E-01
         -2   -1    0    0    0  501 -0.00000000000E+00  0.00000000000E+00  0.77377706494E+03  0.77377706494E+03  0.00000000000E+00 0.  1.
          2   -1    0    0  501    0  0.00000000000E+00 -0.00000000000E+00 -0.30717756573E+04  0.30717756573E+04  0.00000000000E+00 0. -1.
         23    2    1    2    0    0  0.36486706093E+03  0.13258216706E+04 -0.66903803907E+03  0.15319203195E+04  0.90757330931E+02 0.  0.
        254    2    1    2    0    0 -0.36486706093E+03 -0.13258216706E+04 -0.16289605533E+04  0.23136324028E+04  0.89913921975E+03 0.  0.
        -24    2    4    4    0    0 -0.34858666903E+03 -0.41535572715E+03 -0.11672879000E+04  0.12895100131E+04  0.79006243384E+02 0.  0.
         24    2    4    4    0    0 -0.16280391904E+02 -0.91046594347E+03 -0.46167265326E+03  0.10241223896E+04  0.80447155413E+02 0.  0.
         13    1    3    3    0    0  0.26778130920E+03  0.11027093474E+04 -0.55443391676E+03  0.12629614810E+04  0.00000000000E+00 0.  1.
        -13    1    3    3    0    0  0.97085751730E+02  0.22311232325E+03 -0.11460412230E+03  0.26895883853E+03  0.00000000000E+00 0. -1.
          4    1    6    6  502    0 -0.27142818634E+01 -0.88524116559E+03 -0.44271828851E+03  0.98977713226E+03  0.00000000000E+00 0. -1.
          3    1    5    5  503    0 -0.33780168440E+03 -0.39975529751E+03 -0.10792961549E+04  0.11994975890E+04  0.00000000000E+00 0. -1.
         -4    1    5    5    0  503 -0.10784984621E+02 -0.15600429638E+02 -0.87991745099E+02  0.90012424163E+02  0.00000000000E+00 0.  1.
         -3    1    6    6    0  502 -0.13566110040E+02 -0.25224777878E+02 -0.18954364757E+02  0.34345257372E+02  0.00000000000E+00 0.  1.
<mgrwt>
<rscale>  0 0.30834199E+04</rscale>
<asrwt>0</asrwt>
<pdfrwt beam="1">  1        2 0.47258087E+00 0.30834199E+04</pdfrwt>
<pdfrwt beam="2">  1       -2 0.11904262E+00 0.30834199E+04</pdfrwt>
<totfact> 0.72183781E-01</totfact>
</mgrwt>
</event>
<event>
12    1  0.1489233E-007  0.1514631E+04  0.7818608E-02  0.8874781E-01
         -2   -1    0    0    0  501 -0.00000000000E+00  0.00000000000E+00  0.76330179531E+03  0.76330179531E+03  0.00000000000E+00 0.  1.
          2   -1    0    0  501    0  0.00000000000E+00 -0.00000000000E+00 -0.75137601370E+03  0.75137601370E+03  0.00000000000E+00 0. -1.
         23    2    1    2    0    0  0.39184189842E+03  0.13295074260E+03 -0.23866288877E+03  0.48715857520E+03  0.95642718508E+02 0.  0.
        254    2    1    2    0    0 -0.39184189842E+03 -0.13295074260E+03  0.25058867038E+03  0.10275192338E+04  0.90652364602E+03 0.  0.
        -24    2    4    4    0    0 -0.25215572330E+03  0.29585488751E+03 -0.14492646025E+03  0.42245970392E+03  0.79723894145E+02 0.  0.
         24    2    4    4    0    0 -0.13968617512E+03 -0.42880563011E+03  0.39551513063E+03  0.60505952988E+03  0.79235851771E+02 0.  0.
         13    1    3    3    0    0  0.10465643927E+03  0.71458270934E+02 -0.10457443407E+03  0.16430175601E+03  0.00000000000E+00 0. -1.
        -13    1    3    3    0    0  0.28718545915E+03  0.61492471663E+02 -0.13408845470E+03  0.32285681920E+03  0.00000000000E+00 0.  1.
          4    1    6    6  502    0 -0.44262533024E+02 -0.73638764606E+02  0.44888004638E+02  0.96936950864E+02  0.00000000000E+00 0. -1.
          1    1    5    5  503    0 -0.16664704747E+03  0.16398176682E+03 -0.50775305557E+02  0.23924754948E+03  0.00000000000E+00 0. -1.
         -2    1    5    5    0  503 -0.85508675838E+02  0.13187312070E+03 -0.94151154694E+02  0.18321215444E+03  0.00000000000E+00 0.  1.
         -3    1    6    6    0  502 -0.95423642092E+02 -0.35516686551E+03  0.35062712599E+03  0.50812257901E+03  0.00000000000E+00 0.  1.
<mgrwt>
<rscale>  0 0.15146309E+04</rscale>
<asrwt>0</asrwt>
<pdfrwt beam="1">  1        2 0.11559631E+00 0.15146309E+04</pdfrwt>
<pdfrwt beam="2">  1       -2 0.11743105E+00 0.15146309E+04</pdfrwt>
<totfact> 0.20225840E+01</totfact>
</mgrwt>
</event>
<event>
12    1  0.1489233E-007  0.1324827E+04  0.7818608E-02  0.9010105E-01
         -2   -1    0    0    0  501 -0.00000000000E+00  0.00000000000E+00  0.21022047735E+03  0.21022047735E+03  0.00000000000E+00 0.  1.
          2   -1    0    0  501    0  0.00000000000E+00 -0.00000000000E+00 -0.20872938465E+04  0.20872938465E+04  0.00000000000E+00 0. -1.
         23    2    1    2    0    0  0.19884577561E+03  0.25582475967E+03 -0.28067708395E+03  0.43789810807E+03  0.89382198796E+02 0.  0.
        254    2    1    2    0    0 -0.19884577561E+03 -0.25582475967E+03 -0.15963962852E+04  0.18596162158E+04  0.89705374448E+03 0.  0.
        -24    2    4    4    0    0 -0.22434882516E+03  0.27023300994E+03 -0.33977639842E+03  0.49476204220E+03  0.77351163335E+02 0.  0.
         24    2    4    4    0    0  0.25503049551E+02 -0.52605776960E+03 -0.12566198868E+04  0.13648541736E+04  0.79662995200E+02 0.  0.
         11    1    3    3    0    0  0.17486931592E+03  0.25686719422E+03 -0.26990246613E+03  0.41159127097E+03  0.00000000000E+00 0.  1.
        -11    1    3    3    0    0  0.23976459691E+02 -0.10424345511E+01 -0.10774617817E+02  0.26306837100E+02  0.00000000000E+00 0. -1.
          4    1    6    6  502    0 -0.28151922010E+01 -0.18060576682E+03 -0.52685394089E+03  0.55695730837E+03  0.00000000000E+00 0. -1.
          1    1    5    5  503    0 -0.83270707763E+01  0.36473371626E+02 -0.61460024229E+02  0.71951244074E+02  0.00000000000E+00 0. -1.
         -2    1    5    5    0  503 -0.21602175438E+03  0.23375963831E+03 -0.27831637419E+03  0.42281079813E+03  0.00000000000E+00 0.  1.
         -3    1    6    6    0  502  0.28318241753E+02 -0.34545200279E+03 -0.72976594593E+03  0.80789686525E+03  0.00000000000E+00 0.  1.
<mgrwt>
<rscale>  0 0.13248274E+04</rscale>
<asrwt>0</asrwt>
<pdfrwt beam="1">  1        2 0.32112215E+00 0.13248274E+04</pdfrwt>
<pdfrwt beam="2">  1       -2 0.32341610E-01 0.13248274E+04</pdfrwt>
<totfact> 0.52101323E+01</totfact>
</mgrwt>
</event>
<event>
12    1  0.1489233E-007  0.1598900E+04  0.7818608E-02  0.8821224E-01
         -1   -1    0    0    0  501 -0.00000000000E+00  0.00000000000E+00  0.62812412173E+03  0.62812412173E+03  0.00000000000E+00 0.  1.
          1   -1    0    0  501    0  0.00000000000E+00 -0.00000000000E+00 -0.10175068743E+04  0.10175068743E+04  0.00000000000E+00 0. -1.
         23    2    1    2    0    0 -0.11904361980E+03 -0.30131869217E+03  0.30991199200E+03  0.45736905640E+03  0.90424959512E+02 0.  0.
        254    2    1    2    0    0  0.11904361980E+03  0.30131869217E+03 -0.69929474453E+03  0.11882619396E+04  0.90442742091E+03 0.  0.
        -24    2    4    4    0    0  0.23126451893E+03  0.42672419572E+03 -0.28704378270E+02  0.49247618451E+03  0.78307305179E+02 0.  0.
         24    2    4    4    0    0 -0.11222089914E+03 -0.12540550355E+03 -0.67059036626E+03  0.69578575508E+03  0.78142863605E+02 0.  0.
         13    1    3    3    0    0 -0.99010575095E+02 -0.29153286703E+03  0.26104805983E+03  0.40365900966E+03  0.00000000000E+00 0.  1.
        -13    1    3    3    0    0 -0.20033044703E+02 -0.97858251405E+01  0.48863932173E+02  0.53710046743E+02  0.00000000000E+00 0. -1.
          4    1    6    6  502    0 -0.26439048655E+02  0.44260309672E+01 -0.60686030382E+02  0.66343103089E+02  0.00000000000E+00 0. -1.
          1    1    5    5  503    0  0.11143665269E+01  0.12385192421E+02 -0.13371320270E+02  0.18259983840E+02  0.00000000000E+00 0. -1.
         -2    1    5    5    0  503  0.23015015241E+03  0.41433900330E+03 -0.15333057999E+02  0.47421620067E+03  0.00000000000E+00 0.  1.
         -3    1    6    6    0  502 -0.85781850481E+02 -0.12983153452E+03 -0.60990433588E+03  0.62944265200E+03  0.00000000000E+00 0.  1.
<mgrwt>
<rscale>  0 0.15989004E+04</rscale>
<asrwt>0</asrwt>
<pdfrwt beam="1">  1        1 0.15653952E+00 0.15989004E+04</pdfrwt>
<pdfrwt beam="2">  1       -1 0.96634481E-01 0.15989004E+04</pdfrwt>
<totfact> 0.14500648E+01</totfact>
</mgrwt>
</event>
<event>
12    1  0.1489233E-007  0.2561165E+04  0.7818608E-02  0.8381513E-01
          1   -1    0    0  501    0  0.00000000000E+00  0.00000000000E+00  0.17512947499E+04  0.17512947499E+04  0.00000000000E+00 0. -1.
         -1   -1    0    0    0  501 -0.00000000000E+00 -0.00000000000E+00 -0.93638807715E+03  0.93638807715E+03  0.00000000000E+00 0.  1.
         23    2    1    2    0    0  0.54069219729E+03  0.65539175292E+03  0.11174529431E+04  0.14066554382E+04  0.89955766251E+02 0.  0.
        254    2    1    2    0    0 -0.54069219729E+03 -0.65539175292E+03 -0.30254627033E+03  0.12810273888E+04  0.90973101699E+03 0.  0.
        -24    2    4    4    0    0 -0.55480770855E+03  0.59999725869E+01 -0.32145550548E+02  0.56192362154E+03  0.82929047308E+02 0.  0.
         24    2    4    4    0    0  0.14115511261E+02 -0.66139172551E+03 -0.27040071978E+03  0.71910376731E+03  0.79720867203E+02 0.  0.
         11    1    3    3    0    0  0.54168332292E+03  0.64808903770E+03  0.11151625273E+04  0.13989380563E+04  0.00000000000E+00 0. -1.
        -11    1    3    3    0    0 -0.99112563457E+00  0.73027152206E+01  0.22904158546E+01  0.77173819656E+01  0.00000000000E+00 0.  1.
          2    1    6    6  502    0  0.20204416308E+02 -0.26327293633E+03 -0.69069314006E+02  0.27293117737E+03  0.00000000000E+00 0. -1.
          1    1    5    5  503    0 -0.75604362475E+00 -0.24641631007E+01  0.59652181933E+01  0.64982712965E+01  0.00000000000E+00 0. -1.
         -2    1    5    5    0  503 -0.55405166492E+03  0.84641356876E+01 -0.38110768741E+02  0.55542535024E+03  0.00000000000E+00 0.  1.
         -1    1    6    6    0  502 -0.60889050470E+01 -0.39811878918E+03 -0.20133140577E+03  0.44617258994E+03  0.00000000000E+00 0.  1.
<mgrwt>
<rscale>  0 0.25611650E+04</rscale>
<asrwt>0</asrwt>
<pdfrwt beam="1">  1        1 0.26942996E+00 0.25611650E+04</pdfrwt>
<pdfrwt beam="2">  1       -1 0.14405970E+00 0.25611650E+04</pdfrwt>
<totfact> 0.15105214E+00</totfact>
</mgrwt>
</event>
<event>
12    1  0.1489233E-007  0.1524127E+04  0.7818608E-02  0.8868566E-01
          2   -1    0    0  501    0  0.00000000000E+00  0.00000000000E+00  0.49191642435E+03  0.49191642435E+03  0.00000000000E+00 0. -1.
         -2   -1    0    0    0  501 -0.00000000000E+00 -0.00000000000E+00 -0.11805673460E+04  0.11805673460E+04  0.00000000000E+00 0.  1.
         23    2    1    2    0    0  0.27957738344E+03 -0.15396117786E+03  0.17065141481E+03  0.37430576796E+03  0.95474315549E+02 0.  0.
        254    2    1    2    0    0 -0.27957738344E+03  0.15396117786E+03 -0.85930233647E+03  0.12981780024E+04  0.91923776186E+03 0.  0.
        -24    2    4    4    0    0  0.13505173688E+03 -0.27217601215E+03 -0.52153756130E+03  0.60871185667E+03  0.78803193941E+02 0.  0.
         24    2    4    4    0    0 -0.41462912032E+03  0.42613719001E+03 -0.33776477517E+03  0.68946614573E+03  0.88138020393E+02 0.  0.
         11    1    3    3    0    0  0.14455765892E+03 -0.34698276890E+02  0.10729906832E+03  0.18334114987E+03  0.00000000000E+00 0.  1.
        -11    1    3    3    0    0  0.13501972452E+03 -0.11926290097E+03  0.63352346496E+02  0.19096461809E+03  0.00000000000E+00 0. -1.
          2    1    6    6  502    0 -0.38823720998E+03  0.42237069683E+03 -0.31545688588E+03  0.65470465372E+03  0.00000000000E+00 0. -1.
          3    1    5    5  503    0  0.43902283441E+02 -0.93971069851E+02 -0.25576105536E+03  0.27599219173E+03  0.00000000000E+00 0. -1.
         -4    1    5    5    0  503  0.91149453436E+02 -0.17820494230E+03 -0.26577650594E+03  0.33271966493E+03  0.00000000000E+00 0.  1.
         -1    1    6    6    0  502 -0.26391910341E+02  0.37664931787E+01 -0.22307889292E+02  0.34761492013E+02  0.00000000000E+00 0.  1.
<mgrwt>
<rscale>  0 0.15241266E+04</rscale>
<asrwt>0</asrwt>
<pdfrwt beam="1">  1        2 0.75679450E-01 0.15241266E+04</pdfrwt>
<pdfrwt beam="2">  1       -2 0.18162574E+00 0.15241266E+04</pdfrwt>
<totfact> 0.10683789E+01</totfact>
</mgrwt>
</event>
<event>
12    1  0.1489233E-007  0.1779763E+04  0.7818608E-02  0.8717136E-01
          1   -1    0    0  501    0  0.00000000000E+00  0.00000000000E+00  0.53072268486E+03  0.53072268486E+03  0.00000000000E+00 0. -1.
         -1   -1    0    0    0  501 -0.00000000000E+00 -0.00000000000E+00 -0.14920957502E+04  0.14920957502E+04  0.00000000000E+00 0.  1.
         23    2    1    2    0    0  0.49767787156E+03 -0.30965982317E+03 -0.15218286901E+02  0.59314443607E+03  0.89533545955E+02 0.  0.
        254    2    1    2    0    0 -0.49767787156E+03  0.30965982317E+03 -0.94615477847E+03  0.14296739990E+04  0.89732179776E+03 0.  0.
        -24    2    4    4    0    0 -0.52479629496E+03  0.55995103567E+03 -0.85061857730E+03  0.11482290952E+04  0.76953086691E+02 0.  0.
         24    2    4    4    0    0  0.27118423399E+02 -0.25029121251E+03 -0.95536201172E+02  0.28144490379E+03  0.81871656801E+02 0.  0.
         13    1    3    3    0    0  0.44161834412E+03 -0.23904210018E+03 -0.22657785483E+02  0.50267411189E+03  0.00000000000E+00 0.  1.
        -13    1    3    3    0    0  0.56059527443E+02 -0.70617722989E+02  0.74394985824E+01  0.90470324176E+02  0.00000000000E+00 0. -1.
          4    1    6    6  502    0  0.38864807753E+02 -0.19879108143E+03 -0.43249742193E+02  0.20712051453E+03  0.00000000000E+00 0. -1.
          1    1    5    5  503    0 -0.21410076212E+03  0.19796023739E+03 -0.36952716898E+03  0.47072042716E+03  0.00000000000E+00 0. -1.
         -4    1    5    5    0  503 -0.31069553284E+03  0.36199079828E+03 -0.48109140831E+03  0.67750866808E+03  0.00000000000E+00 0.  1.
         -3    1    6    6    0  502 -0.11746384353E+02 -0.51500131074E+02 -0.52286458979E+02  0.74324389258E+02  0.00000000000E+00 0.  1.
<mgrwt>
<rscale>  0 0.17797630E+04</rscale>
<asrwt>0</asrwt>
<pdfrwt beam="1">  1        1 0.81649644E-01 0.17797630E+04</pdfrwt>
<pdfrwt beam="2">  1       -1 0.22955319E+00 0.17797630E+04</pdfrwt>
<totfact> 0.36640338E+00</totfact>
</mgrwt>
</event>
<event>
12    1  0.1489233E-007  0.2543528E+04  0.7818608E-02  0.8387640E-01
          2   -1    0    0  501    0  0.00000000000E+00  0.00000000000E+00  0.28791511808E+04  0.28791511808E+04  0.00000000000E+00 0.  1.
         -2   -1    0    0    0  501 -0.00000000000E+00 -0.00000000000E+00 -0.56175719501E+03  0.56175719501E+03  0.00000000000E+00 0. -1.
         23    2    1    2    0    0  0.67550546081E+03  0.20736119903E+03  0.21805186826E+04  0.22940148413E+04  0.92390866695E+02 0.  0.
        254    2    1    2    0    0 -0.67550546081E+03 -0.20736119903E+03  0.13687530315E+03  0.11468935345E+04  0.89292980490E+03 0.  0.
        -24    2    4    4    0    0 -0.46988338334E+03 -0.53380131680E+03 -0.36364448855E+02  0.71644808303E+03  0.79001536559E+02 0.  0.
         24    2    4    4    0    0 -0.20562207747E+03  0.32644011777E+03  0.17323975200E+03  0.43044545149E+03  0.80172849531E+02 0.  0.
         13    1    3    3    0    0  0.38394836384E+03  0.12188562777E+03  0.13871974378E+04  0.14445030923E+04  0.00000000000E+00 0.  1.
        -13    1    3    3    0    0  0.29155709697E+03  0.85475571253E+02  0.79332124484E+03  0.84951174894E+03  0.00000000000E+00 0. -1.
          4    1    6    6  502    0 -0.58643971908E+02  0.72394516210E+02  0.77091779086E+01  0.93485361648E+02  0.00000000000E+00 0. -1.
          3    1    5    5  503    0 -0.42803952032E+02 -0.86573120344E+02  0.47175346838E+01  0.96691977998E+02  0.00000000000E+00 0. -1.
         -4    1    5    5    0  503 -0.42707943131E+03 -0.44722819646E+03 -0.41081983539E+02  0.61975610503E+03  0.00000000000E+00 0.  1.
         -3    1    6    6    0  502 -0.14697810556E+03  0.25404560156E+03  0.16553057409E+03  0.33696008985E+03  0.00000000000E+00 0.  1.
<mgrwt>
<rscale>  0 0.25435282E+04</rscale>
<asrwt>0</asrwt>
<pdfrwt beam="1">  1        2 0.44294633E+00 0.25435282E+04</pdfrwt>
<pdfrwt beam="2">  1       -2 0.86424185E-01 0.25435282E+04</pdfrwt>
<totfact> 0.21330869E+00</totfact>
</mgrwt>
</event>
<event>
12    1  0.1489233E-007  0.2746407E+04  0.7818608E-02  0.8320103E-01
          2   -1    0    0  501    0  0.00000000000E+00  0.00000000000E+00  0.47184022315E+04  0.47184022315E+04  0.00000000000E+00 0. -1.
         -2   -1    0    0    0  501 -0.00000000000E+00 -0.00000000000E+00 -0.39964541801E+03  0.39964541801E+03  0.00000000000E+00 0.  1.
         23    2    1    2    0    0  0.53904670651E+03 -0.10557302988E+04  0.24937139419E+04  0.27625466717E+04  0.88977938228E+02 0.  0.
        254    2    1    2    0    0 -0.53904670651E+03  0.10557302988E+04  0.18250428716E+04  0.23555009779E+04  0.90136871373E+03 0.  0.
        -24    2    4    4    0    0 -0.12322777810E+03  0.38652593887E+03  0.13934747891E+04  0.14535014343E+04  0.79416906131E+02 0.  0.
         24    2    4    4    0    0 -0.41581892841E+03  0.66920435990E+03  0.43156808252E+03  0.90199954358E+03  0.81316113110E+02 0.  0.
         13    1    3    3    0    0  0.17238494329E+03 -0.41802830108E+03  0.89634804160E+03  0.10039442419E+04  0.00000000000E+00 0.  1.
        -13    1    3    3    0    0  0.36666176322E+03 -0.63770199768E+03  0.15973659003E+04  0.17586024298E+04  0.00000000000E+00 0. -1.
          4    1    6    6  502    0 -0.17097599407E+03  0.32600597089E+03  0.23590592760E+03  0.43722338716E+03  0.00000000000E+00 0. -1.
          3    1    5    5  503    0 -0.98648946163E+02  0.27474619117E+03  0.11112465074E+04  0.11489499051E+04  0.00000000000E+00 0. -1.
         -4    1    5    5    0  503 -0.24578831934E+02  0.11177974769E+03  0.28222828165E+03  0.30455152920E+03  0.00000000000E+00 0.  1.
         -3    1    6    6    0  502 -0.24484293434E+03  0.34319838900E+03  0.19566215492E+03  0.46477615642E+03  0.00000000000E+00 0.  1.
<mgrwt>
<rscale>  0 0.27464070E+04</rscale>
<asrwt>0</asrwt>
<pdfrwt beam="1">  1        2 0.72590799E+00 0.27464070E+04</pdfrwt>
<pdfrwt beam="2">  1       -2 0.61483914E-01 0.27464070E+04</pdfrwt>
<totfact> 0.15799500E-01</totfact>
</mgrwt>
</event>
<event>
12    1  0.1489233E-007  0.2267609E+04  0.7818608E-02  0.8490803E-01
         -1   -1    0    0    0  501 -0.00000000000E+00  0.00000000000E+00  0.17842177349E+04  0.17842177349E+04  0.00000000000E+00 0.  1.
          1   -1    0    0  501    0  0.00000000000E+00 -0.00000000000E+00 -0.72049083969E+03  0.72049083969E+03  0.00000000000E+00 0. -1.
         23    2    1    2    0    0  0.21549746605E+03  0.51515919462E+03 -0.41153057002E+03  0.69975555953E+03  0.92044985459E+02 0.  0.
        254    2    1    2    0    0 -0.21549746605E+03 -0.51515919462E+03  0.14752574652E+04  0.18049530151E+04  0.87729279274E+03 0.  0.
        -24    2    4    4    0    0 -0.50211115122E+02 -0.29713758562E+03  0.93658874242E+01  0.31171261419E+03  0.79152593943E+02 0.  0.
         24    2    4    4    0    0 -0.16528635093E+03 -0.21802160901E+03  0.14658915778E+04  0.14932404009E+04  0.77947271492E+02 0.  0.
         13    1    3    3    0    0  0.26433300920E+02  0.21394584619E+02 -0.88194641892E+01  0.35131618196E+02  0.00000000000E+00 0.  1.
        -13    1    3    3    0    0  0.18906416513E+03  0.49376461001E+03 -0.40271110583E+03  0.66462394133E+03  0.00000000000E+00 0. -1.
          2    1    6    6  502    0  0.32441019262E+01  0.23761034205E+01  0.60290059091E+01  0.72469977939E+01  0.00000000000E+00 0. -1.
          1    1    5    5  503    0 -0.22245228543E+02 -0.11390396366E+03 -0.34813229498E+02  0.12116486322E+03  0.00000000000E+00 0. -1.
         -2    1    5    5    0  503 -0.27965886579E+02 -0.18323362196E+03  0.44179116922E+02  0.19054775097E+03  0.00000000000E+00 0.  1.
         -1    1    6    6    0  502 -0.16853045286E+03 -0.22039771243E+03  0.14598625719E+04  0.14859934031E+04  0.00000000000E+00 0.  1.
<mgrwt>
<rscale>  0 0.22676089E+04</rscale>
<asrwt>0</asrwt>
<pdfrwt beam="1">  1        1 0.11084475E+00 0.22676089E+04</pdfrwt>
<pdfrwt beam="2">  1       -1 0.27449503E+00 0.22676089E+04</pdfrwt>
<totfact> 0.11416260E+00</totfact>
</mgrwt>
</event>
<event>
12    1  0.1489233E-007  0.2203740E+04  0.7818608E-02  0.8516873E-01
          1   -1    0    0  501    0  0.00000000000E+00  0.00000000000E+00  0.26908828242E+04  0.26908828242E+04  0.00000000000E+00 0. -1.
         -1   -1    0    0    0  501 -0.00000000000E+00 -0.00000000000E+00 -0.45119668527E+03  0.45119668527E+03  0.00000000000E+00 0.  1.
         23    2    1    2    0    0 -0.47318904498E+03  0.15977284459E+03  0.20630544490E+04  0.21246386473E+04  0.91980910928E+02 0.  0.
        254    2    1    2    0    0  0.47318904498E+03 -0.15977284459E+03  0.17663168999E+03  0.10174408622E+04  0.86864948055E+03 0.  0.
        -24    2    4    4    0    0  0.12960069452E+03 -0.42860228950E+03 -0.13628991235E+03  0.47457805140E+03  0.78441851562E+02 0.  0.
         24    2    4    4    0    0  0.34358835045E+03  0.26882944491E+03  0.31292160234E+03  0.54286281082E+03  0.80360917978E+02 0.  0.
         13    1    3    3    0    0 -0.25116931786E+03  0.11101545780E+03  0.12874365992E+04  0.13163979090E+04  0.00000000000E+00 0.  1.
        -13    1    3    3    0    0 -0.22201972712E+03  0.48757386785E+02  0.77561784983E+03  0.80824073826E+03  0.00000000000E+00 0. -1.
          4    1    6    6  502    0 -0.34419752761E+01 -0.14425813868E+01  0.29111429445E+01  0.47331794919E+01  0.00000000000E+00 0. -1.
          1    1    5    5  503    0 -0.89215728016E+01 -0.28103446190E+02 -0.20557289890E+00  0.29486274930E+02  0.00000000000E+00 0. -1.
         -2    1    5    5    0  503  0.13852226733E+03 -0.40049884331E+03 -0.13608433945E+03  0.44509177647E+03  0.00000000000E+00 0.  1.
         -3    1    6    6    0  502  0.34703032573E+03  0.27027202630E+03  0.31001045940E+03  0.53812963133E+03  0.00000000000E+00 0.  1.
<mgrwt>
<rscale>  0 0.22037399E+04</rscale>
<asrwt>0</asrwt>
<pdfrwt beam="1">  1        1 0.41398196E+00 0.22037399E+04</pdfrwt>
<pdfrwt beam="2">  1       -1 0.69414876E-01 0.22037399E+04</pdfrwt>
<totfact> 0.19061294E+00</totfact>
</mgrwt>
</event>
<event>
12    1  0.1489233E-007  0.1796483E+04  0.7818608E-02  0.8708172E-01
         -1   -1    0    0    0  501 -0.00000000000E+00  0.00000000000E+00  0.83665401045E+03  0.83665401045E+03  0.00000000000E+00 0.  1.
          1   -1    0    0  501    0  0.00000000000E+00 -0.00000000000E+00 -0.96436230015E+03  0.96436230015E+03  0.00000000000E+00 0. -1.
         23    2    1    2    0    0 -0.25684087163E+03 -0.31150072318E+03 -0.58338063470E+03  0.71529406660E+03  0.91174025288E+02 0.  0.
        254    2    1    2    0    0  0.25684087163E+03  0.31150072318E+03  0.45567234500E+03  0.10857222440E+04  0.89897473336E+03 0.  0.
        -24    2    4    4    0    0  0.47350192238E+03  0.42809781435E+03  0.10774028531E+03  0.65219026235E+03  0.79198232829E+02 0.  0.
         24    2    4    4    0    0 -0.21666105074E+03 -0.11659709117E+03  0.34793205969E+03  0.43353198164E+03  0.79726835936E+02 0.  0.
         11    1    3    3    0    0 -0.36633821303E+02 -0.70886171988E+01 -0.40322025490E+02  0.54937701960E+02  0.00000000000E+00 0.  1.
        -11    1    3    3    0    0 -0.22020705033E+03 -0.30441210598E+03 -0.54305860921E+03  0.66035636464E+03  0.00000000000E+00 0. -1.
          2    1    6    6  502    0 -0.64303494201E+02 -0.56878686015E+01  0.13193699386E+03  0.14688315616E+03  0.00000000000E+00 0. -1.
          3    1    5    5  503    0  0.31803838198E+01  0.18587086661E+02  0.86529186960E+01  0.20747713941E+02  0.00000000000E+00 0. -1.
         -4    1    5    5    0  503  0.47032153856E+03  0.40951072769E+03  0.99087366613E+02  0.63144254841E+03  0.00000000000E+00 0.  1.
         -1    1    6    6    0  502 -0.15235755654E+03 -0.11090922257E+03  0.21599506584E+03  0.28664882548E+03  0.00000000000E+00 0.  1.
<mgrwt>
<rscale>  0 0.17964828E+04</rscale>
<asrwt>0</asrwt>
<pdfrwt beam="1">  1        1 0.14836343E+00 0.17964828E+04</pdfrwt>
<pdfrwt beam="2">  1       -1 0.12871600E+00 0.17964828E+04</pdfrwt>
<totfact> 0.79248978E+00</totfact>
</mgrwt>
</event>
<event>
12    1  0.1489233E-007  0.1082220E+04  0.7818608E-02  0.9222697E-01
         -1   -1    0    0    0  501 -0.00000000000E+00  0.00000000000E+00  0.71707345038E+03  0.71707345038E+03  0.00000000000E+00 0.  1.
          1   -1    0    0  501    0  0.00000000000E+00 -0.00000000000E+00 -0.40832641741E+03  0.40832641741E+03  0.00000000000E+00 0. -1.
         23    2    1    2    0    0 -0.11440142773E+02 -0.95906339518E+02 -0.63585991125E+02  0.14804323626E+03  0.92437647684E+02 0.  0.
        254    2    1    2    0    0  0.11440142773E+02  0.95906339518E+02  0.37233302410E+03  0.97735663153E+03  0.89847938292E+03 0.  0.
        -24    2    4    4    0    0 -0.29794651705E+03 -0.18904772276E+03  0.41154880191E+03  0.54799054757E+03  0.80062821434E+02 0.  0.
         24    2    4    4    0    0  0.30938665982E+03  0.28495406227E+03 -0.39215777811E+02  0.42936608396E+03  0.76801262632E+02 0.  0.
         13    1    3    3    0    0 -0.27894707831E+02 -0.15659204944E+02 -0.57626379686E+02  0.65909976939E+02  0.00000000000E+00 0. -1.
        -13    1    3    3    0    0  0.16454565058E+02 -0.80247134574E+02 -0.59596114391E+01  0.82133259323E+02  0.00000000000E+00 0.  1.
          4    1    6    6  502    0  0.69511781510E+02  0.72984529043E+02 -0.42132469336E+02  0.10924181535E+03  0.00000000000E+00 0. -1.
          3    1    5    5  503    0  0.31093452025E+01 -0.17942403134E+01  0.17742239532E+02  0.18101778628E+02  0.00000000000E+00 0. -1.
         -4    1    5    5    0  503 -0.30105586225E+03 -0.18725348244E+03  0.39380656238E+03  0.52988876895E+03  0.00000000000E+00 0.  1.
         -3    1    6    6    0  502  0.23987487831E+03  0.21196953323E+03  0.29166915244E+01  0.32012426861E+03  0.00000000000E+00 0.  1.
<mgrwt>
<rscale>  0 0.10822200E+04</rscale>
<asrwt>0</asrwt>
<pdfrwt beam="1">  1        1 0.62819449E-01 0.10822200E+04</pdfrwt>
<pdfrwt beam="2">  1       -1 0.11031899E+00 0.10822200E+04</pdfrwt>
<totfact> 0.44156809E+01</totfact>
</mgrwt>
</event>
<event>
12    1  0.1489233E-007  0.2457984E+04  0.7818608E-02  0.8418109E-01
         -1   -1    0    0    0  501 -0.00000000000E+00  0.00000000000E+00  0.14061143258E+04  0.14061143258E+04  0.00000000000E+00 0.  1.
          1   -1    0    0  501    0  0.00000000000E+00 -0.00000000000E+00 -0.10741809925E+04  0.10741809925E+04  0.00000000000E+00 0. -1.
         23    2    1    2    0    0  0.32612684778E+03 -0.20081368050E+02 -0.87643164455E+03  0.93954847115E+03  0.88639268286E+02 0.  0.
        254    2    1    2    0    0 -0.32612684778E+03  0.20081368050E+02  0.12083649778E+04  0.15407468471E+04  0.89832786068E+03 0.  0.
        -24    2    4    4    0    0 -0.16348007184E+03 -0.14520929884E+03 -0.66891281349E+02  0.24214814775E+03  0.79685679878E+02 0.  0.
         24    2    4    4    0    0 -0.16264677594E+03  0.16529066689E+03  0.12752562591E+04  0.12985986994E+04  0.79404517065E+02 0.  0.
         13    1    3    3    0    0  0.42685127673E+02  0.25227422043E+02 -0.96895913985E+02  0.10884512435E+03  0.00000000000E+00 0.  1.
        -13    1    3    3    0    0  0.28344172011E+03 -0.45308790093E+02 -0.77953573057E+03  0.83070334680E+03  0.00000000000E+00 0. -1.
          4    1    6    6  502    0 -0.13140572517E+03  0.12705436861E+03  0.11410521669E+04  0.11555995521E+04  0.00000000000E+00 0. -1.
          3    1    5    5  503    0 -0.12489319156E+03 -0.14595092259E+03 -0.67329736596E+02  0.20355165077E+03  0.00000000000E+00 0. -1.
         -4    1    5    5    0  503 -0.38586880283E+02  0.74162374636E+00  0.43845524647E+00  0.38596496975E+02  0.00000000000E+00 0.  1.
         -3    1    6    6    0  502 -0.31241050769E+02  0.38236298285E+02  0.13420409222E+03  0.14299914730E+03  0.00000000000E+00 0.  1.
<mgrwt>
<rscale>  0 0.24579840E+04</rscale>
<asrwt>0</asrwt>
<pdfrwt beam="1">  1        1 0.16525861E+00 0.24579840E+04</pdfrwt>
<pdfrwt beam="2">  1       -1 0.21632528E+00 0.24579840E+04</pdfrwt>
<totfact> 0.13775405E+00</totfact>
</mgrwt>
</event>
<event>
12    1  0.1489233E-007  0.1226801E+04  0.7818608E-02  0.9089716E-01
         -1   -1    0    0    0  501 -0.00000000000E+00  0.00000000000E+00  0.31562898652E+03  0.31562898652E+03  0.00000000000E+00 0.  1.
          1   -1    0    0  501    0  0.00000000000E+00 -0.00000000000E+00 -0.11920959806E+04  0.11920959806E+04  0.00000000000E+00 0. -1.
         23    2    1    2    0    0  0.20906543256E+03 -0.14940158473E+03 -0.34139240548E+03  0.43719381623E+03  0.92522807025E+02 0.  0.
        254    2    1    2    0    0 -0.20906543256E+03  0.14940158473E+03 -0.53507458859E+03  0.10705311509E+04  0.89090007355E+03 0.  0.
        -24    2    4    4    0    0 -0.11905726488E+03  0.51711792229E+03 -0.26308758680E+03  0.59754036307E+03  0.79081156427E+02 0.  0.
         24    2    4    4    0    0 -0.90008167680E+02 -0.36771633756E+03 -0.27198700178E+03  0.47299078781E+03  0.80165959496E+02 0.  0.
         11    1    3    3    0    0  0.16661559816E+03 -0.13419103372E+03 -0.32524497749E+03  0.38929716987E+03  0.00000000000E+00 0.  1.
        -11    1    3    3    0    0  0.42449834399E+02 -0.15210551008E+02 -0.16147427990E+02  0.47896646366E+02  0.00000000000E+00 0. -1.
          4    1    6    6  502    0 -0.89683431943E+02 -0.33158105904E+03 -0.21411992173E+03  0.40476716463E+03  0.00000000000E+00 0. -1.
          3    1    5    5  503    0 -0.41573562032E+02  0.34474347182E+03 -0.17949664680E+03  0.39089060955E+03  0.00000000000E+00 0. -1.
         -4    1    5    5    0  503 -0.77483702848E+02  0.17237445047E+03 -0.83590940006E+02  0.20664975353E+03  0.00000000000E+00 0.  1.
         -3    1    6    6    0  502 -0.32473573640E+00 -0.36135278518E+02 -0.57867080051E+02  0.68223623185E+02  0.00000000000E+00 0.  1.
<mgrwt>
<rscale>  0 0.12268008E+04</rscale>
<asrwt>0</asrwt>
<pdfrwt beam="1">  1        1 0.18339938E+00 0.12268008E+04</pdfrwt>
<pdfrwt beam="2">  1       -1 0.48558306E-01 0.12268008E+04</pdfrwt>
<totfact> 0.45380573E+01</totfact>
</mgrwt>
</event>
<event>
12    1  0.1489233E-007  0.1965407E+04  0.7818608E-02  0.8622967E-01
         -1   -1    0    0    0  501 -0.00000000000E+00  0.00000000000E+00  0.89990525378E+03  0.89990525378E+03  0.00000000000E+00 0.  1.
          1   -1    0    0  501    0  0.00000000000E+00 -0.00000000000E+00 -0.10731199247E+04  0.10731199247E+04  0.00000000000E+00 0. -1.
         23    2    1    2    0    0  0.22870355079E+03  0.35453136209E+03  0.58942151811E+03  0.73069028422E+03  0.92156196664E+02 0.  0.
        254    2    1    2    0    0 -0.22870355079E+03 -0.35453136209E+03 -0.76263618904E+03  0.12423348943E+04  0.88531589383E+03 0.  0.
        -24    2    4    4    0    0 -0.16508263446E+03 -0.59477141049E+03 -0.25738935002E+03  0.67353635452E+03  0.79978974818E+02 0.  0.
         24    2    4    4    0    0 -0.63620916327E+02  0.24024004840E+03 -0.50524683901E+03  0.56879853976E+03  0.80588514366E+02 0.  0.
         11    1    3    3    0    0  0.15593823475E+03  0.25354756101E+03  0.48083271901E+03  0.56551145207E+03  0.00000000000E+00 0.  1.
        -11    1    3    3    0    0  0.72765316031E+02  0.10098380108E+03  0.10858879910E+03  0.16517883215E+03  0.00000000000E+00 0. -1.
          4    1    6    6  502    0 -0.16242601930E+02  0.61869940960E+02 -0.21952884227E+03  0.22865831343E+03  0.00000000000E+00 0. -1.
          3    1    5    5  503    0 -0.16630218635E+03 -0.57516625888E+03 -0.23359446795E+03  0.64268111688E+03  0.00000000000E+00 0. -1.
         -4    1    5    5    0  503  0.12195518956E+01 -0.19605151613E+02 -0.23794882077E+02  0.30855237637E+02  0.00000000000E+00 0.  1.
         -3    1    6    6    0  502 -0.47378314397E+02  0.17837010744E+03 -0.28571799674E+03  0.34014022633E+03  0.00000000000E+00 0.  1.
<mgrwt>
<rscale>  0 0.19654071E+04</rscale>
<asrwt>0</asrwt>
<pdfrwt beam="1">  1        1 0.16509537E+00 0.19654071E+04</pdfrwt>
<pdfrwt beam="2">  1       -1 0.13844696E+00 0.19654071E+04</pdfrwt>
<totfact> 0.53357793E+00</totfact>
</mgrwt>
</event>
<event>
12    1  0.1489233E-007  0.2044293E+04  0.7818608E-02  0.8586188E-01
         -2   -1    0    0    0  501 -0.00000000000E+00  0.00000000000E+00  0.73551593872E+03  0.73551593872E+03  0.00000000000E+00 0. -1.
          2   -1    0    0  501    0  0.00000000000E+00 -0.00000000000E+00 -0.14204764618E+04  0.14204764618E+04  0.00000000000E+00 0.  1.
         23    2    1    2    0    0 -0.20818300339E+03  0.79824615718E+03 -0.20819610625E+03  0.85568427928E+03  0.91174979009E+02 0.  0.
        254    2    1    2    0    0  0.20818300339E+03 -0.79824615718E+03 -0.47676441682E+03  0.13003081212E+04  0.88485016281E+03 0.  0.
        -24    2    4    4    0    0 -0.20449955695E+03 -0.73839487310E+03 -0.21223569269E+03  0.79922100527E+03  0.81628234130E+02 0.  0.
         24    2    4    4    0    0  0.41268256034E+03 -0.59851284082E+02 -0.26452872412E+03  0.50108711595E+03  0.84992823641E+02 0.  0.
         11    1    3    3    0    0 -0.16496891073E+03  0.71910450440E+03 -0.16649714578E+03  0.75633810516E+03  0.00000000000E+00 0. -1.
        -11    1    3    3    0    0 -0.43214092659E+02  0.79141652778E+02 -0.41698960472E+02  0.99346174125E+02  0.00000000000E+00 0.  1.
          4    1    6    6  502    0  0.20766993054E+03 -0.38101355624E+02 -0.18294110710E+03  0.27936707397E+03  0.00000000000E+00 0. -1.
          3    1    5    5  503    0 -0.15744217631E+03 -0.61814004533E+03 -0.20450256345E+03  0.66985554635E+03  0.00000000000E+00 0. -1.
         -4    1    5    5    0  503 -0.47057380637E+02 -0.12025482777E+03 -0.77331292469E+01  0.12936545892E+03  0.00000000000E+00 0.  1.
         -3    1    6    6    0  502  0.20501262980E+03 -0.21749928458E+02 -0.81587617027E+02  0.22172004198E+03  0.00000000000E+00 0.  1.
<mgrwt>
<rscale>  0 0.20442926E+04</rscale>
<asrwt>0</asrwt>
<pdfrwt beam="1">  1        2 0.21853484E+00 0.20442926E+04</pdfrwt>
<pdfrwt beam="2">  1       -2 0.11315630E+00 0.20442926E+04</pdfrwt>
<totfact> 0.79992981E+00</totfact>
</mgrwt>
</event>
<event>
12    1  0.1489233E-007  0.3489591E+04  0.7818608E-02  0.8116261E-01
          1   -1    0    0  501    0  0.00000000000E+00  0.00000000000E+00  0.12789793508E+04  0.12789793508E+04  0.00000000000E+00 0. -1.
         -1   -1    0    0    0  501 -0.00000000000E+00 -0.00000000000E+00 -0.23802661168E+04  0.23802661168E+04  0.00000000000E+00 0.  1.
         23    2    1    2    0    0 -0.10270521054E+04  0.82215171213E+03 -0.15170362085E+04  0.20101479318E+04  0.92338426407E+02 0.  0.
        254    2    1    2    0    0  0.10270521054E+04 -0.82215171213E+03  0.41574944244E+03  0.16490975358E+04  0.90327494077E+03 0.  0.
        -24    2    4    4    0    0  0.83168280667E+03 -0.58950127299E+03 -0.11896447940E+03  0.10288631897E+04  0.72103218236E+02 0.  0.
         24    2    4    4    0    0  0.19536929878E+03 -0.23265043914E+03  0.53471392185E+03  0.62023434606E+03  0.80475313467E+02 0.  0.
         13    1    3    3    0    0 -0.44753956417E+03  0.30042171067E+03 -0.62718086366E+03  0.82698289068E+03  0.00000000000E+00 0. -1.
        -13    1    3    3    0    0 -0.57951254127E+03  0.52173000146E+03 -0.88985534483E+03  0.11831650412E+04  0.00000000000E+00 0.  1.
          4    1    6    6  502    0  0.95173720703E+02 -0.58533651951E+02  0.16139664846E+03  0.19629850651E+03  0.00000000000E+00 0. -1.
          3    1    5    5  503    0  0.15043674653E+03 -0.13638703181E+03 -0.81802119593E+01  0.20322291461E+03  0.00000000000E+00 0. -1.
         -4    1    5    5    0  503  0.68124606014E+03 -0.45311424117E+03 -0.11078426744E+03  0.82564027514E+03  0.00000000000E+00 0.  1.
         -3    1    6    6    0  502  0.10019557807E+03 -0.17411678719E+03  0.37331727339E+03  0.42393583955E+03  0.00000000000E+00 0.  1.
<mgrwt>
<rscale>  0 0.34895909E+04</rscale>
<asrwt>0</asrwt>
<pdfrwt beam="1">  1        1 0.19676606E+00 0.34895909E+04</pdfrwt>
<pdfrwt beam="2">  1       -1 0.36619478E+00 0.34895909E+04</pdfrwt>
<totfact> 0.92612104E-02</totfact>
</mgrwt>
</event>
<event>
12    1  0.1489233E-007  0.1823884E+04  0.7818608E-02  0.8693700E-01
          2   -1    0    0  501    0  0.00000000000E+00  0.00000000000E+00  0.61620801400E+03  0.61620801400E+03  0.00000000000E+00 0. -1.
         -2   -1    0    0    0  501 -0.00000000000E+00 -0.00000000000E+00 -0.13496065302E+04  0.13496065302E+04  0.00000000000E+00 0.  1.
         23    2    1    2    0    0  0.19437940900E+02 -0.11316459690E+03 -0.10111113456E+04  0.10207028397E+04  0.79398200503E+02 0.  0.
        254    2    1    2    0    0 -0.19437940900E+02  0.11316459690E+03  0.27771282939E+03  0.94511170451E+03  0.89606230746E+03 0.  0.
        -24    2    4    4    0    0  0.70481155949E+02  0.70518199431E+02 -0.31464586836E+03  0.33940867454E+03  0.79093717081E+02 0.  0.
         24    2    4    4    0    0 -0.89919096849E+02  0.42646397464E+02  0.59235869774E+03  0.60570302997E+03  0.77994708330E+02 0.  0.
         11    1    3    3    0    0 -0.29083173407E+02 -0.22838966176E+02 -0.28428721948E+03  0.28668218031E+03  0.00000000000E+00 0. -1.
        -11    1    3    3    0    0  0.48521114307E+02 -0.90325630719E+02 -0.72682412610E+03  0.73402065937E+03  0.00000000000E+00 0.  1.
          4    1    6    6  502    0 -0.80898247172E+02  0.70341552954E+01  0.29114103991E+03  0.30225338850E+03  0.00000000000E+00 0. -1.
          1    1    5    5  503    0 -0.10308051614E+02  0.31453564906E+02 -0.12947513146E+03  0.13363903749E+03  0.00000000000E+00 0. -1.
         -2    1    5    5    0  503  0.80789207564E+02  0.39064634525E+02 -0.18517073690E+03  0.20576963705E+03  0.00000000000E+00 0.  1.
         -3    1    6    6    0  502 -0.90208496771E+01  0.35612242168E+02  0.30121765783E+03  0.30344964147E+03  0.00000000000E+00 0.  1.
<mgrwt>
<rscale>  0 0.18238842E+04</rscale>
<asrwt>0</asrwt>
<pdfrwt beam="1">  1        2 0.94801234E-01 0.18238842E+04</pdfrwt>
<pdfrwt beam="2">  1       -2 0.20763177E+00 0.18238842E+04</pdfrwt>
<totfact> 0.53619788E+00</totfact>
</mgrwt>
</event>
<event>
12    1  0.1489233E-007  0.2901580E+04  0.7818608E-02  0.8272408E-01
         -2   -1    0    0    0  501 -0.00000000000E+00  0.00000000000E+00  0.90619413404E+03  0.90619413404E+03  0.00000000000E+00 0.  1.
          2   -1    0    0  501    0  0.00000000000E+00 -0.00000000000E+00 -0.23226712200E+04  0.23226712200E+04  0.00000000000E+00 0. -1.
         23    2    1    2    0    0  0.12203189834E+04 -0.11626847553E+03 -0.11589755018E+04  0.16895003703E+04  0.92143950531E+02 0.  0.
        254    2    1    2    0    0 -0.12203189834E+04  0.11626847553E+03 -0.25750158415E+03  0.15393649838E+04  0.89478528578E+03 0.  0.
        -24    2    4    4    0    0  0.86282242528E+02 -0.88347652480E+02  0.85437647138E+02  0.17078875486E+03  0.81358921847E+02 0.  0.
         24    2    4    4    0    0 -0.13066012260E+04  0.20461612801E+03 -0.34293923129E+03  0.13685762289E+04  0.79492480274E+02 0.  0.
         13    1    3    3    0    0  0.83863879471E+03 -0.70305884945E+02 -0.73711527623E+03  0.11187479054E+04  0.00000000000E+00 0. -1.
        -13    1    3    3    0    0  0.38168018872E+03 -0.45962590589E+02 -0.42186022556E+03  0.57075246483E+03  0.00000000000E+00 0.  1.
          4    1    6    6  502    0 -0.99029693483E+01  0.90590565226E+01 -0.54296274030E+01  0.14478126976E+02  0.00000000000E+00 0. -1.
          3    1    5    5  503    0  0.15451721375E+02  0.58064184706E+01  0.42149745844E+02  0.45266668351E+02  0.00000000000E+00 0. -1.
         -4    1    5    5    0  503  0.70830521153E+02 -0.94154070951E+02  0.43287901294E+02  0.12552208651E+03  0.00000000000E+00 0.  1.
         -3    1    6    6    0  502 -0.12966982566E+04  0.19555707149E+03 -0.33750960389E+03  0.13540981019E+04  0.00000000000E+00 0.  1.
<mgrwt>
<rscale>  0 0.29015796E+04</rscale>
<asrwt>0</asrwt>
<pdfrwt beam="1">  1        2 0.35733403E+00 0.29015796E+04</pdfrwt>
<pdfrwt beam="2">  1       -2 0.13941448E+00 0.29015796E+04</pdfrwt>
<totfact> 0.13788565E+00</totfact>
</mgrwt>
</event>
<event>
12    1  0.1489233E-007  0.2092013E+04  0.7818608E-02  0.8564770E-01
          2   -1    0    0  501    0  0.00000000000E+00  0.00000000000E+00  0.64335884827E+03  0.64335884827E+03  0.00000000000E+00 0. -1.
         -2   -1    0    0    0  501 -0.00000000000E+00 -0.00000000000E+00 -0.17006528186E+04  0.17006528186E+04  0.00000000000E+00 0.  1.
         23    2    1    2    0    0 -0.74763745208E+03 -0.23921903876E+03 -0.68934730760E+02  0.79292919950E+03  0.88301812252E+02 0.  0.
        254    2    1    2    0    0  0.74763745208E+03  0.23921903876E+03 -0.98835923960E+03  0.15510824674E+04  0.90156271325E+03 0.  0.
        -24    2    4    4    0    0  0.49716286295E+03 -0.30630609973E+03 -0.50617001343E+03  0.77700195622E+03  0.80806054534E+02 0.  0.
         24    2    4    4    0    0  0.25047458914E+03  0.54552513849E+03 -0.48218922617E+03  0.77408051118E+03  0.79743284521E+02 0.  0.
         11    1    3    3    0    0 -0.59229947258E+03 -0.15183830625E+03 -0.45076833010E+02  0.61311129279E+03  0.00000000000E+00 0. -1.
        -11    1    3    3    0    0 -0.15533797950E+03 -0.87380732508E+02 -0.23857897750E+02  0.17981790671E+03  0.00000000000E+00 0.  1.
          2    1    6    6  502    0  0.23568076260E+03  0.52716353991E+03 -0.47905447416E+03  0.75029328191E+03  0.00000000000E+00 0. -1.
          1    1    5    5  503    0  0.49085796561E+03 -0.28569063893E+03 -0.48683145370E+03  0.74804114050E+03  0.00000000000E+00 0. -1.
         -2    1    5    5    0  503  0.63048973350E+01 -0.20615460803E+02 -0.19338559731E+02  0.28960815717E+02  0.00000000000E+00 0.  1.
         -1    1    6    6    0  502  0.14793826539E+02  0.18361598585E+02 -0.31347520102E+01  0.23787229272E+02  0.00000000000E+00 0.  1.
<mgrwt>
<rscale>  0 0.20920134E+04</rscale>
<asrwt>0</asrwt>
<pdfrwt beam="1">  1        2 0.98978286E-01 0.20920134E+04</pdfrwt>
<pdfrwt beam="2">  1       -2 0.26163889E+00 0.20920134E+04</pdfrwt>
<totfact> 0.22893511E+00</totfact>
</mgrwt>
</event>
<event>
12    1  0.1559032E-007  0.2041694E+04  0.7818608E-02  0.8587372E-01
         -2   -1    0    0    0  501 -0.00000000000E+00  0.00000000000E+00  0.96395964373E+03  0.96395964373E+03  0.00000000000E+00 0.  1.
          2   -1    0    0  501    0  0.00000000000E+00 -0.00000000000E+00 -0.10810910073E+04  0.10810910073E+04  0.00000000000E+00 0. -1.
         23    2    1    2    0    0 -0.79028344920E+03  0.33517649703E+02  0.17293892406E+03  0.81453180012E+03  0.88785241131E+02 0.  0.
        254    2    1    2    0    0  0.79028344920E+03 -0.33517649703E+02 -0.29007028765E+03  0.12305188509E+04  0.89686370637E+03 0.  0.
        -24    2    4    4    0    0  0.97702863442E+03 -0.95089834030E+02 -0.23816002124E+03  0.10133959077E+04  0.81388211677E+02 0.  0.
         24    2    4    4    0    0 -0.18674518522E+03  0.61572184327E+02 -0.51910266416E+02  0.21712294324E+03  0.76044714691E+02 0.  0.
         13    1    3    3    0    0 -0.36104843531E+03  0.12411090728E+02  0.33912556857E+02  0.36284992673E+03  0.00000000000E+00 0.  1.
        -13    1    3    3    0    0 -0.42923501388E+03  0.21106558975E+02  0.13902636720E+03  0.45168187340E+03  0.00000000000E+00 0. -1.
          2    1    6    6  502    0 -0.26616564664E+02  0.36710090122E+02  0.44326088259E+01  0.45560073005E+02  0.00000000000E+00 0. -1.
          3    1    5    5  503    0  0.45989057492E+02 -0.37125910884E+01  0.60494923103E+01  0.46533569590E+02  0.00000000000E+00 0. -1.
         -4    1    5    5    0  503  0.93103957693E+03 -0.91377242941E+02 -0.24420951355E+03  0.96686233810E+03  0.00000000000E+00 0.  1.
         -1    1    6    6    0  502 -0.16012862056E+03  0.24862094205E+02 -0.56342875242E+02  0.17156287023E+03  0.00000000000E+00 0.  1.
<mgrwt>
<rscale>  0 0.20416935E+04</rscale>
<asrwt>0</asrwt>
<pdfrwt beam="1">  1        2 0.16632169E+00 0.20416935E+04</pdfrwt>
<pdfrwt beam="2">  1       -2 0.14830148E+00 0.20416935E+04</pdfrwt>
<totfact> 0.63995683E+00</totfact>
</mgrwt>
</event>
<event>
12    1  0.1489233E-007  0.1762889E+04  0.7818608E-02  0.8726287E-01
         -3   -1    0    0    0  501 -0.00000000000E+00  0.00000000000E+00  0.43627596119E+03  0.43627596119E+03  0.00000000000E+00 0. -1.
          3   -1    0    0  501    0  0.00000000000E+00 -0.00000000000E+00 -0.17808560215E+04  0.17808560215E+04  0.00000000000E+00 0.  1.
         23    2    1    2    0    0 -0.37550975626E+03 -0.36586279403E+03 -0.22324120817E+02  0.53306524348E+03  0.93792464149E+02 0.  0.
        254    2    1    2    0    0  0.37550975626E+03  0.36586279403E+03 -0.13222559395E+04  0.16840667392E+04  0.90158574273E+03 0.  0.
        -24    2    4    4    0    0  0.19391430991E+03 -0.28987683890E+03 -0.43687379381E+03  0.56460037341E+03  0.79268711510E+02 0.  0.
         24    2    4    4    0    0  0.18159544636E+03  0.65573963293E+03 -0.88538214573E+03  0.11194663658E+04  0.79574040621E+02 0.  0.
         11    1    3    3    0    0 -0.18162543328E+03 -0.15604395747E+03 -0.54497276451E+02  0.24557578833E+03  0.00000000000E+00 0. -1.
        -11    1    3    3    0    0 -0.19388432299E+03 -0.20981883656E+03  0.32173155634E+02  0.28748945515E+03  0.00000000000E+00 0.  1.
          4    1    6    6  502    0  0.56012317864E+02  0.14588770073E+03 -0.15671226027E+03  0.22131275041E+03  0.00000000000E+00 0. -1.
          3    1    5    5  503    0  0.30445354088E+02 -0.19103282295E+02 -0.80201743097E+02  0.87887283356E+02  0.00000000000E+00 0. -1.
         -4    1    5    5    0  503  0.16346895582E+03 -0.27077355660E+03 -0.35667205071E+03  0.47671309005E+03  0.00000000000E+00 0.  1.
         -3    1    6    6    0  502  0.12558312849E+03  0.50985193220E+03 -0.72866988546E+03  0.89815361543E+03  0.00000000000E+00 0.  1.
<mgrwt>
<rscale>  0 0.17628893E+04</rscale>
<asrwt>0</asrwt>
<pdfrwt beam="1">  1        3 0.27397785E+00 0.17628893E+04</pdfrwt>
<pdfrwt beam="2">  1       -3 0.67119379E-01 0.17628893E+04</pdfrwt>
<totfact> 0.28629189E-01</totfact>
</mgrwt>
</event>
<event>
12    1  0.1489233E-007  0.2334080E+04  0.7818608E-02  0.8464604E-01
          2   -1    0    0  501    0  0.00000000000E+00  0.00000000000E+00  0.14688028639E+04  0.14688028639E+04  0.00000000000E+00 0.  1.
         -2   -1    0    0    0  501 -0.00000000000E+00 -0.00000000000E+00 -0.92727370925E+03  0.92727370925E+03  0.00000000000E+00 0. -1.
         23    2    1    2    0    0  0.94452192931E+03  0.13228370113E+03 -0.49761771739E+02  0.95940461312E+03  0.91434813978E+02 0.  0.
        254    2    1    2    0    0 -0.94452192931E+03 -0.13228370113E+03  0.59129092639E+03  0.14366719600E+04  0.89709570758E+03 0.  0.
        -24    2    4    4    0    0 -0.94393761570E+02 -0.13238464004E+03 -0.20192599812E+03  0.27144404983E+03  0.80448047384E+02 0.  0.
         24    2    4    4    0    0 -0.85012816774E+03  0.10093890416E+00  0.79321692451E+03  0.11652279102E+04  0.76453133376E+02 0.  0.
         11    1    3    3    0    0  0.80761705191E+03  0.11955343443E+03 -0.10776691407E+02  0.81648910789E+03  0.00000000000E+00 0.  1.
        -11    1    3    3    0    0  0.13690487740E+03  0.12730266704E+02 -0.38985080332E+02  0.14291550523E+03  0.00000000000E+00 0. -1.
          4    1    6    6  502    0 -0.88900937938E+02 -0.11506260073E+02  0.57420771431E+02  0.10645616835E+03  0.00000000000E+00 0. -1.
          3    1    5    5  503    0  0.63077934311E+01 -0.20266638223E+02 -0.62988982285E+02  0.66469066280E+02  0.00000000000E+00 0. -1.
         -4    1    5    5    0  503 -0.10070155500E+03 -0.11211800181E+03 -0.13893701584E+03  0.20497498355E+03  0.00000000000E+00 0.  1.
         -3    1    6    6    0  502 -0.76122722980E+03  0.11607198978E+02  0.73579615308E+03  0.10587717419E+04  0.00000000000E+00 0.  1.
<mgrwt>
<rscale>  0 0.23340799E+04</rscale>
<asrwt>0</asrwt>
<pdfrwt beam="1">  1        2 0.22596967E+00 0.23340799E+04</pdfrwt>
<pdfrwt beam="2">  1       -2 0.14265749E+00 0.23340799E+04</pdfrwt>
<totfact> 0.40882580E+00</totfact>
</mgrwt>
</event>
<event>
12    1  0.1489233E-007  0.2129221E+04  0.7818608E-02  0.8548479E-01
         -2   -1    0    0    0  501 -0.00000000000E+00  0.00000000000E+00  0.34401674033E+03  0.34401674033E+03  0.00000000000E+00 0.  1.
          2   -1    0    0  501    0  0.00000000000E+00 -0.00000000000E+00 -0.32945948102E+04  0.32945948102E+04  0.00000000000E+00 0. -1.
         23    2    1    2    0    0  0.34044282783E+03  0.79378704332E+03 -0.14950473111E+04  0.17290647528E+04  0.92191472748E+02 0.  0.
        254    2    1    2    0    0 -0.34044282783E+03 -0.79378704332E+03 -0.14555307588E+04  0.19095467978E+04  0.88419454531E+03 0.  0.
        -24    2    4    4    0    0 -0.35652438737E+03 -0.23187229595E+03 -0.10657154018E+03  0.44597221946E+03  0.81604699198E+02 0.  0.
         24    2    4    4    0    0  0.16081559543E+02 -0.56191474737E+03 -0.13489592186E+04  0.14635745783E+04  0.79704284488E+02 0.  0.
         11    1    3    3    0    0  0.58514223567E+02  0.19397985456E+03 -0.41632056493E+03  0.46300638345E+03  0.00000000000E+00 0. -1.
        -11    1    3    3    0    0  0.28192860426E+03  0.59980718876E+03 -0.10787267462E+04  0.12660583693E+04  0.00000000000E+00 0.  1.
          4    1    6    6  502    0  0.18036472026E+01 -0.47076384734E+03 -0.10500574688E+04  0.11507573771E+04  0.00000000000E+00 0. -1.
          1    1    5    5  503    0 -0.22188870741E+03 -0.16514081812E+03 -0.10453689310E+03  0.29569249281E+03  0.00000000000E+00 0. -1.
         -2    1    5    5    0  503 -0.13463567996E+03 -0.66731477824E+02 -0.20346470802E+01  0.15027972664E+03  0.00000000000E+00 0.  1.
         -3    1    6    6    0  502  0.14277912341E+02 -0.91150900028E+02 -0.29890174980E+03  0.31281720124E+03  0.00000000000E+00 0.  1.
<mgrwt>
<rscale>  0 0.21292212E+04</rscale>
<asrwt>0</asrwt>
<pdfrwt beam="1">  1        2 0.50686073E+00 0.21292212E+04</pdfrwt>
<pdfrwt beam="2">  1       -2 0.52925654E-01 0.21292212E+04</pdfrwt>
<totfact> 0.34870728E+00</totfact>
</mgrwt>
</event>
<event>
12    1  0.1489233E-007  0.2373509E+04  0.7818608E-02  0.8449489E-01
         -2   -1    0    0    0  501 -0.00000000000E+00  0.00000000000E+00  0.93406752914E+03  0.93406752914E+03  0.00000000000E+00 0.  1.
          2   -1    0    0  501    0  0.00000000000E+00 -0.00000000000E+00 -0.15077987645E+04  0.15077987645E+04  0.00000000000E+00 0. -1.
         23    2    1    2    0    0  0.67741838032E+03  0.56026528237E+03 -0.74921956244E+03  0.11586985652E+04  0.91975886706E+02 0.  0.
        254    2    1    2    0    0 -0.67741838032E+03 -0.56026528237E+03  0.17548832706E+03  0.12831677284E+04  0.91811242106E+03 0.  0.
        -24    2    4    4    0    0  0.21165848948E+03 -0.81724439437E+02 -0.43979887572E+02  0.24687909918E+03  0.86815084686E+02 0.  0.
         24    2    4    4    0    0 -0.88907686980E+03 -0.47854084293E+03  0.21946821464E+03  0.10362886292E+04  0.79175798709E+02 0.  0.
         13    1    3    3    0    0  0.52447810691E+03  0.44338939879E+03 -0.53398971566E+03  0.86995198719E+03  0.00000000000E+00 0. -1.
        -13    1    3    3    0    0  0.15294027341E+03  0.11687588357E+03 -0.21522984678E+03  0.28874657805E+03  0.00000000000E+00 0.  1.
          2    1    6    6  502    0 -0.34740299498E+03 -0.20439958388E+03  0.12412786981E+03  0.42175319664E+03  0.00000000000E+00 0. -1.
          3    1    5    5  503    0  0.51045614927E+02 -0.61892308279E+02 -0.24465369655E+02  0.83874113645E+02  0.00000000000E+00 0. -1.
         -4    1    5    5    0  503  0.16061287456E+03 -0.19832131158E+02 -0.19514517917E+02  0.16300498553E+03  0.00000000000E+00 0.  1.
         -1    1    6    6    0  502 -0.54167387482E+03 -0.27414125905E+03  0.95340344822E+02  0.61453543260E+03  0.00000000000E+00 0.  1.
<mgrwt>
<rscale>  0 0.23735087E+04</rscale>
<asrwt>0</asrwt>
<pdfrwt beam="1">  1        2 0.23196904E+00 0.23735087E+04</pdfrwt>
<pdfrwt beam="2">  1       -2 0.14370270E+00 0.23735087E+04</pdfrwt>
<totfact> 0.37998222E+00</totfact>
</mgrwt>
</event>
<event>
12    1  0.1489233E-007  0.3518831E+04  0.7818608E-02  0.8109342E-01
         -2   -1    0    0    0  501 -0.00000000000E+00  0.00000000000E+00  0.12617740572E+04  0.12617740572E+04  0.00000000000E+00 0. -1.
          2   -1    0    0  501    0  0.00000000000E+00 -0.00000000000E+00 -0.24533253258E+04  0.24533253258E+04  0.00000000000E+00 0.  1.
         23    2    1    2    0    0 -0.10821629238E+04 -0.91254506567E+03 -0.14375063229E+04  0.20195443751E+04  0.91213837523E+02 0.  0.
        254    2    1    2    0    0  0.10821629238E+04  0.91254506567E+03  0.24595505433E+03  0.16955550080E+04  0.90033205302E+03 0.  0.
        -24    2    4    4    0    0  0.79730436039E+02  0.43807816576E+03 -0.20365759517E+03  0.49616803783E+03  0.80230193460E+02 0.  0.
         24    2    4    4    0    0  0.10024324878E+04  0.47446689991E+03  0.44961264951E+03  0.11993869701E+04  0.79923950514E+02 0.  0.
         13    1    3    3    0    0 -0.52670098458E+03 -0.40987217229E+03 -0.62437089943E+03  0.91391911285E+03  0.00000000000E+00 0. -1.
        -13    1    3    3    0    0 -0.55546193923E+03 -0.50267289338E+03 -0.81313542348E+03  0.11056252623E+04  0.00000000000E+00 0.  1.
          2    1    6    6  502    0  0.71766606865E+03  0.36374164672E+03  0.29499577925E+03  0.85695687255E+03  0.00000000000E+00 0. -1.
          3    1    5    5  503    0  0.94503552816E+02  0.37009306697E+03 -0.18334085294E+03  0.42369053337E+03  0.00000000000E+00 0. -1.
         -4    1    5    5    0  503 -0.14773116777E+02  0.67985098792E+02 -0.20316742237E+02  0.72477504456E+02  0.00000000000E+00 0.  1.
         -1    1    6    6    0  502  0.28476641912E+03  0.11072525319E+03  0.15461687026E+03  0.34243009757E+03  0.00000000000E+00 0.  1.
<mgrwt>
<rscale>  0 0.35188306E+04</rscale>
<asrwt>0</asrwt>
<pdfrwt beam="1">  1        2 0.37743467E+00 0.35188306E+04</pdfrwt>
<pdfrwt beam="2">  1       -2 0.19411908E+00 0.35188306E+04</pdfrwt>
<totfact> 0.44208975E-01</totfact>
</mgrwt>
</event>
<event>
12    1  0.1489233E-007  0.1821682E+04  0.7818608E-02  0.8694853E-01
         -1   -1    0    0    0  501 -0.00000000000E+00  0.00000000000E+00  0.56071896276E+03  0.56071896276E+03  0.00000000000E+00 0.  1.
          1   -1    0    0  501    0  0.00000000000E+00 -0.00000000000E+00 -0.14795850943E+04  0.14795850943E+04  0.00000000000E+00 0. -1.
         23    2    1    2    0    0 -0.21646802498E+03  0.11769723018E+03  0.37325527605E+03  0.45705694580E+03  0.94183367784E+02 0.  0.
        254    2    1    2    0    0  0.21646802498E+03 -0.11769723018E+03 -0.12921214076E+04  0.15832471112E+04  0.88112577960E+03 0.  0.
        -24    2    4    4    0    0  0.53451411591E+03 -0.13316535788E+02 -0.58342923045E+03  0.79535080022E+03  0.79439022127E+02 0.  0.
         24    2    4    4    0    0 -0.31804609093E+03 -0.10438069440E+03 -0.70869217711E+03  0.78789631100E+03  0.80544085259E+02 0.  0.
         13    1    3    3    0    0 -0.59970819700E+02  0.18619720063E+02  0.17411581533E+03  0.18509324769E+03  0.00000000000E+00 0.  1.
        -13    1    3    3    0    0 -0.15649720528E+03  0.99077510122E+02  0.19913946072E+03  0.27196369811E+03  0.00000000000E+00 0. -1.
          4    1    6    6  502    0 -0.45131283207E+02  0.11234320645E+02 -0.12251063315E+03  0.13104158851E+03  0.00000000000E+00 0. -1.
          3    1    5    5  503    0  0.10284002493E+03  0.14344939002E+02 -0.76616104931E+02  0.12904214636E+03  0.00000000000E+00 0. -1.
         -4    1    5    5    0  503  0.43167409098E+03 -0.27661474790E+02 -0.50681312552E+03  0.66630865386E+03  0.00000000000E+00 0.  1.
         -3    1    6    6    0  502 -0.27291480772E+03 -0.11561501504E+03 -0.58618154396E+03  0.65685472249E+03  0.00000000000E+00 0.  1.
<mgrwt>
<rscale>  0 0.18216821E+04</rscale>
<asrwt>0</asrwt>
<pdfrwt beam="1">  1        1 0.22762847E+00 0.18216821E+04</pdfrwt>
<pdfrwt beam="2">  1       -1 0.86264457E-01 0.18216821E+04</pdfrwt>
<totfact> 0.84395219E+00</totfact>
</mgrwt>
</event>
<event>
12    1  0.1489233E-007  0.1754647E+04  0.7818608E-02  0.8730797E-01
         -1   -1    0    0    0  501 -0.00000000000E+00  0.00000000000E+00  0.56212037512E+03  0.56212037512E+03  0.00000000000E+00 0.  1.
          1   -1    0    0  501    0  0.00000000000E+00 -0.00000000000E+00 -0.13692735368E+04  0.13692735368E+04  0.00000000000E+00 0. -1.
         23    2    1    2    0    0  0.14864748864E+03 -0.19939106729E+03  0.35023182121E+03  0.44216803138E+03  0.10486832596E+03 0.  0.
        254    2    1    2    0    0 -0.14864748864E+03  0.19939106729E+03 -0.11573849829E+04  0.14892258805E+04  0.90354903080E+03 0.  0.
        -24    2    4    4    0    0  0.37010041696E+03  0.11571713135E+02 -0.42964930273E+03  0.57248110485E+03  0.77639351399E+02 0.  0.
         24    2    4    4    0    0 -0.51874790561E+03  0.18781935416E+03 -0.72773568013E+03  0.91674477567E+03  0.80288630713E+02 0.  0.
         13    1    3    3    0    0  0.12844195522E+01  0.29612969719E+01 -0.59799919228E+01  0.67955365306E+01  0.00000000000E+00 0. -1.
        -13    1    3    3    0    0  0.14736306909E+03 -0.20235236426E+03  0.35621181313E+03  0.43537249485E+03  0.00000000000E+00 0.  1.
          4    1    6    6  502    0 -0.25186676270E+03  0.55870054632E+02 -0.37479978871E+03  0.45500902274E+03  0.00000000000E+00 0. -1.
          1    1    5    5  503    0  0.11305876873E+03  0.39057619206E+02 -0.14489719884E+03  0.18789087534E+03  0.00000000000E+00 0. -1.
         -4    1    5    5    0  503  0.25704164824E+03 -0.27485906071E+02 -0.28475210389E+03  0.38459022951E+03  0.00000000000E+00 0.  1.
         -3    1    6    6    0  502 -0.26688114291E+03  0.13194929952E+03 -0.35293589142E+03  0.46173575293E+03  0.00000000000E+00 0.  1.
<mgrwt>
<rscale>  0 0.17546470E+04</rscale>
<asrwt>0</asrwt>
<pdfrwt beam="1">  1        1 0.21065747E+00 0.17546470E+04</pdfrwt>
<pdfrwt beam="2">  1       -1 0.86480058E-01 0.17546470E+04</pdfrwt>
<totfact> 0.10086909E+01</totfact>
</mgrwt>
</event>
<event>
12    1  0.1489233E-007  0.1928211E+04  0.7818608E-02  0.8640940E-01
          1   -1    0    0  501    0  0.00000000000E+00  0.00000000000E+00  0.15547827371E+04  0.15547827371E+04  0.00000000000E+00 0. -1.
         -1   -1    0    0    0  501 -0.00000000000E+00 -0.00000000000E+00 -0.59783212110E+03  0.59783212110E+03  0.00000000000E+00 0.  1.
         23    2    1    2    0    0  0.67755091920E+03  0.31541490094E+03  0.35479368666E+03  0.83254918196E+03  0.93261848852E+02 0.  0.
        254    2    1    2    0    0 -0.67755091920E+03 -0.31541490094E+03  0.60215692932E+03  0.13200656762E+04  0.90632147394E+03 0.  0.
        -24    2    4    4    0    0 -0.55224898619E+03  0.13996706839E+03  0.32765153156E+02  0.57631204584E+03  0.80574784728E+02 0.  0.
         24    2    4    4    0    0 -0.12530193301E+03 -0.45538196933E+03  0.56939177616E+03  0.74375363037E+03  0.76740833419E+02 0.  0.
         13    1    3    3    0    0  0.14688200712E+03  0.90134969256E+02  0.45151731739E+02  0.17814969991E+03  0.00000000000E+00 0. -1.
        -13    1    3    3    0    0  0.53066891208E+03  0.22527993169E+03  0.30964195492E+03  0.65439948206E+03  0.00000000000E+00 0.  1.
          4    1    6    6  502    0 -0.11923589099E+03 -0.35244568474E+03  0.47975837151E+03  0.60712704884E+03  0.00000000000E+00 0. -1.
          1    1    5    5  503    0 -0.51055853198E+03  0.13929884835E+03  0.49181961383E+02  0.53150075169E+03  0.00000000000E+00 0. -1.
         -2    1    5    5    0  503 -0.41690454218E+02  0.66822004570E+00 -0.16416808227E+02  0.44811294149E+02  0.00000000000E+00 0.  1.
         -3    1    6    6    0  502 -0.60660420129E+01 -0.10293628459E+03  0.89633404648E+02  0.13662658153E+03  0.00000000000E+00 0.  1.
<mgrwt>
<rscale>  0 0.19282106E+04</rscale>
<asrwt>0</asrwt>
<pdfrwt beam="1">  1        1 0.23919734E+00 0.19282106E+04</pdfrwt>
<pdfrwt beam="2">  1       -1 0.91974173E-01 0.19282106E+04</pdfrwt>
<totfact> 0.64410227E+00</totfact>
</mgrwt>
</event>
<event>
12    1  0.1489233E-007  0.2446860E+04  0.7818608E-02  0.8422165E-01
         -1   -1    0    0    0  501 -0.00000000000E+00  0.00000000000E+00  0.10138051571E+04  0.10138051571E+04  0.00000000000E+00 0.  1.
          1   -1    0    0  501    0  0.00000000000E+00 -0.00000000000E+00 -0.14763986740E+04  0.14763986740E+04  0.00000000000E+00 0. -1.
         23    2    1    2    0    0  0.99356441353E+03  0.75741955626E+02 -0.55132924550E+03  0.11424835448E+04  0.91638558807E+02 0.  0.
        254    2    1    2    0    0 -0.99356441353E+03 -0.75741955626E+02  0.88735728662E+02  0.13477202863E+04  0.90308850781E+03 0.  0.
        -24    2    4    4    0    0 -0.79303839813E+02 -0.10437472383E+03  0.35848059891E+03  0.39083401634E+03  0.84022059930E+02 0.  0.
         24    2    4    4    0    0 -0.91426057372E+03  0.28632768200E+02 -0.26974487025E+03  0.95688626997E+03  0.78592662319E+02 0.  0.
         11    1    3    3    0    0  0.35344818002E+02 -0.84802617016E+01 -0.62966803380E+01  0.36889282744E+02  0.00000000000E+00 0.  1.
        -11    1    3    3    0    0  0.95821959553E+03  0.84222217328E+02 -0.54503256516E+03  0.11055942620E+04  0.00000000000E+00 0. -1.
          2    1    6    6  502    0 -0.10807383323E+03  0.15038019783E+02 -0.56438268000E+02  0.12284695179E+03  0.00000000000E+00 0. -1.
          3    1    5    5  503    0  0.16565553481E+02 -0.26212961778E+02  0.55471507018E+02  0.63550177169E+02  0.00000000000E+00 0. -1.
         -4    1    5    5    0  503 -0.95869393295E+02 -0.78161762048E+02  0.30300909189E+03  0.32728383918E+03  0.00000000000E+00 0.  1.
         -1    1    6    6    0  502 -0.80618674049E+03  0.13594748417E+02 -0.21330660225E+03  0.83403931819E+03  0.00000000000E+00 0.  1.
<mgrwt>
<rscale>  0 0.24468597E+04</rscale>
<asrwt>0</asrwt>
<pdfrwt beam="1">  1        1 0.22713826E+00 0.24468597E+04</pdfrwt>
<pdfrwt beam="2">  1       -1 0.15597002E+00 0.24468597E+04</pdfrwt>
<totfact> 0.19020377E+00</totfact>
</mgrwt>
</event>
<event>
12    1  0.1489233E-007  0.2258281E+04  0.7818608E-02  0.8494554E-01
         -2   -1    0    0    0  501 -0.00000000000E+00  0.00000000000E+00  0.76072346452E+03  0.76072346452E+03  0.00000000000E+00 0.  1.
          2   -1    0    0  501    0  0.00000000000E+00 -0.00000000000E+00 -0.16759819102E+04  0.16759819102E+04  0.00000000000E+00 0. -1.
         23    2    1    2    0    0  0.44338026525E+03 -0.58597506242E+03  0.25577207578E+03  0.78322414675E+03  0.89821355539E+02 0.  0.
        254    2    1    2    0    0 -0.44338026525E+03  0.58597506242E+03 -0.11710305215E+04  0.16534812280E+04  0.90704732823E+03 0.  0.
        -24    2    4    4    0    0 -0.58731893419E+03  0.72693373383E+03 -0.84864862065E+03  0.12649218835E+04  0.80291382274E+02 0.  0.
         24    2    4    4    0    0  0.14393866894E+03 -0.14095867141E+03 -0.32238190082E+03  0.38855934452E+03  0.80377775413E+02 0.  0.
         13    1    3    3    0    0  0.11544468272E+03 -0.14876784318E+03  0.10796900264E+03  0.21706370370E+03  0.00000000000E+00 0. -1.
        -13    1    3    3    0    0  0.32793558253E+03 -0.43720721924E+03  0.14780307314E+03  0.56616044305E+03  0.00000000000E+00 0.  1.
          4    1    6    6  502    0  0.43017551452E+02 -0.98328527061E+02 -0.15664346209E+03  0.18988465757E+03  0.00000000000E+00 0. -1.
          3    1    5    5  503    0 -0.11269344484E+03  0.18308746932E+03 -0.16876952021E+03  0.27332029724E+03  0.00000000000E+00 0. -1.
         -4    1    5    5    0  503 -0.47462548935E+03  0.54384626451E+03 -0.67987910044E+03  0.99160158621E+03  0.00000000000E+00 0.  1.
         -3    1    6    6    0  502  0.10092111749E+03 -0.42630144345E+02 -0.16573843873E+03  0.19867468695E+03  0.00000000000E+00 0.  1.
<mgrwt>
<rscale>  0 0.22582814E+04</rscale>
<asrwt>0</asrwt>
<pdfrwt beam="1">  1        2 0.25784337E+00 0.22582814E+04</pdfrwt>
<pdfrwt beam="2">  1       -2 0.11703438E+00 0.22582814E+04</pdfrwt>
<totfact> 0.51976642E+00</totfact>
</mgrwt>
</event>
<event>
12    1  0.1489233E-007  0.2138245E+04  0.7818608E-02  0.8544581E-01
         -2   -1    0    0    0  501 -0.00000000000E+00  0.00000000000E+00  0.48685993481E+03  0.48685993481E+03  0.00000000000E+00 0.  1.
          2   -1    0    0  501    0  0.00000000000E+00 -0.00000000000E+00 -0.23477444292E+04  0.23477444292E+04  0.00000000000E+00 0. -1.
         23    2    1    2    0    0 -0.65050057263E+03 -0.16642910486E+03 -0.19353097575E+02  0.67790316005E+03  0.91260671100E+02 0.  0.
        254    2    1    2    0    0  0.65050057263E+03  0.16642910486E+03 -0.18415313968E+04  0.21567012040E+04  0.89959577356E+03 0.  0.
        -24    2    4    4    0    0  0.24746836273E+03 -0.31018140002E+03 -0.33900276293E+03  0.52771158655E+03  0.78125244560E+02 0.  0.
         24    2    4    4    0    0  0.40303220989E+03  0.47661050488E+03 -0.15025286339E+04  0.16289896174E+04  0.80139518466E+02 0.  0.
         11    1    3    3    0    0 -0.60283888886E+03 -0.17092586123E+03 -0.91786535466E+00  0.62660291927E+03  0.00000000000E+00 0.  1.
        -11    1    3    3    0    0 -0.47661683764E+02  0.44967563702E+01 -0.18435232220E+02  0.51300240780E+02  0.00000000000E+00 0. -1.
          4    1    6    6  502    0  0.81631007216E+02  0.10098390116E+03 -0.23539978367E+03  0.26883903694E+03  0.00000000000E+00 0. -1.
          3    1    5    5  503    0  0.90968473317E+01 -0.52906779112E+02 -0.46179403851E+02  0.70812550070E+02  0.00000000000E+00 0. -1.
         -4    1    5    5    0  503  0.23837151540E+03 -0.25727462091E+03 -0.29282335908E+03  0.45689903648E+03  0.00000000000E+00 0.  1.
         -3    1    6    6    0  502  0.32140120268E+03  0.37562660372E+03 -0.12671288502E+04  0.13601505805E+04  0.00000000000E+00 0.  1.
<mgrwt>
<rscale>  0 0.21382448E+04</rscale>
<asrwt>0</asrwt>
<pdfrwt beam="1">  1        2 0.36119144E+00 0.21382448E+04</pdfrwt>
<pdfrwt beam="2">  1       -2 0.74901530E-01 0.21382448E+04</pdfrwt>
<totfact> 0.62656599E+00</totfact>
</mgrwt>
</event>
<event>
12    1  0.1489233E-007  0.1436362E+04  0.7818608E-02  0.8927910E-01
         -2   -1    0    0    0  501 -0.00000000000E+00  0.00000000000E+00  0.70762156711E+03  0.70762156711E+03  0.00000000000E+00 0. -1.
          2   -1    0    0  501    0  0.00000000000E+00 -0.00000000000E+00 -0.72889841574E+03  0.72889841574E+03  0.00000000000E+00 0.  1.
         23    2    1    2    0    0 -0.19120250689E+03 -0.34210369906E+03 -0.17479844488E+03  0.43936445385E+03  0.94304228018E+02 0.  0.
        254    2    1    2    0    0  0.19120250689E+03  0.34210369906E+03  0.15352159625E+03  0.99715552899E+03  0.90396732736E+03 0.  0.
        -24    2    4    4    0    0 -0.34356924950E+03  0.42876535655E+02 -0.17427926922E+02  0.35606518233E+03  0.81243183849E+02 0.  0.
         24    2    4    4    0    0  0.53477175639E+03  0.29922716341E+03  0.17094952318E+03  0.64109034666E+03  0.79090874064E+02 0.  0.
         13    1    3    3    0    0 -0.90999639581E+01 -0.14135402654E+02  0.11648719306E+02  0.20452667643E+02  0.00000000000E+00 0. -1.
        -13    1    3    3    0    0 -0.18210254293E+03 -0.32796829641E+03 -0.18644716419E+03  0.41891178621E+03  0.00000000000E+00 0.  1.
          4    1    6    6  502    0  0.22430147345E+03  0.81470273184E+02  0.68289414213E+02  0.24821764743E+03  0.00000000000E+00 0. -1.
          1    1    5    5  503    0 -0.14721581842E+03  0.45721244588E+02  0.22170555696E+02  0.15573844400E+03  0.00000000000E+00 0. -1.
         -2    1    5    5    0  503 -0.19635343107E+03 -0.28447089330E+01 -0.39598482618E+02  0.20032673833E+03  0.00000000000E+00 0.  1.
         -3    1    6    6    0  502  0.31047028294E+03  0.21775689022E+03  0.10266010896E+03  0.39287269923E+03  0.00000000000E+00 0.  1.
<mgrwt>
<rscale>  0 0.14363624E+04</rscale>
<asrwt>0</asrwt>
<pdfrwt beam="1">  1        2 0.11213822E+00 0.14363624E+04</pdfrwt>
<pdfrwt beam="2">  1       -2 0.10886486E+00 0.14363624E+04</pdfrwt>
<totfact> 0.25449996E+01</totfact>
</mgrwt>
</event>
<event>
12    1  0.1489233E-007  0.1029822E+04  0.7818608E-02  0.9276428E-01
         -2   -1    0    0    0  501 -0.00000000000E+00  0.00000000000E+00  0.14847884800E+03  0.14847884800E+03  0.00000000000E+00 0.  1.
          2   -1    0    0  501    0  0.00000000000E+00 -0.00000000000E+00 -0.17856628424E+04  0.17856628424E+04  0.00000000000E+00 0. -1.
         23    2    1    2    0    0  0.12590929724E+02  0.65923755564E+02 -0.18412857699E+03  0.21612587641E+03  0.91118541096E+02 0.  0.
        254    2    1    2    0    0 -0.12590929724E+02 -0.65923755564E+02 -0.14530554174E+04  0.17180158139E+04  0.91416837505E+03 0.  0.
        -24    2    4    4    0    0  0.30340415470E+03  0.29258397973E+03 -0.75152191057E+03  0.86535165339E+03  0.79930192467E+02 0.  0.
         24    2    4    4    0    0 -0.31599508443E+03 -0.35850773529E+03 -0.70153350680E+03  0.85266416056E+03  0.80661142365E+02 0.  0.
         13    1    3    3    0    0  0.12804021989E+02  0.70500922461E+02 -0.64496332665E+02  0.96405912548E+02  0.00000000000E+00 0.  1.
        -13    1    3    3    0    0 -0.21309226496E+00 -0.45771668978E+01 -0.11963224433E+03  0.11971996387E+03  0.00000000000E+00 0. -1.
          4    1    6    6  502    0 -0.22724762532E+02 -0.20058130388E+01 -0.27990520595E+02  0.36109657452E+02  0.00000000000E+00 0. -1.
          3    1    5    5  503    0  0.77439812637E+02  0.43028612033E+02 -0.11375073806E+03  0.14417911237E+03  0.00000000000E+00 0. -1.
         -2    1    5    5    0  503  0.22596434207E+03  0.24955536769E+03 -0.63777117251E+03  0.72117254102E+03  0.00000000000E+00 0.  1.
         -3    1    6    6    0  502 -0.29327032189E+03 -0.35650192225E+03 -0.67354298620E+03  0.81655450310E+03  0.00000000000E+00 0.  1.
<mgrwt>
<rscale>  0 0.10298217E+04</rscale>
<asrwt>0</asrwt>
<pdfrwt beam="1">  1        2 0.27471737E+00 0.10298217E+04</pdfrwt>
<pdfrwt beam="2">  1       -2 0.22842899E-01 0.10298217E+04</pdfrwt>
<totfact> 0.14802853E+02</totfact>
</mgrwt>
</event>
<event>
12    1  0.1862319E-007  0.1694687E+04  0.7818608E-02  0.8764400E-01
          2   -1    0    0  501    0  0.00000000000E+00  0.00000000000E+00  0.18324553254E+04  0.18324553254E+04  0.00000000000E+00 0. -1.
         -2   -1    0    0    0  501 -0.00000000000E+00 -0.00000000000E+00 -0.39181920369E+03  0.39181920369E+03  0.00000000000E+00 0.  1.
         23    2    1    2    0    0 -0.42955270475E+02  0.44213701983E+03  0.10488647667E+04  0.11427279763E+04  0.91540316170E+02 0.  0.
        254    2    1    2    0    0  0.42955270475E+02 -0.44213701983E+03  0.39177135508E+03  0.10815465528E+04  0.90494632532E+03 0.  0.
        -24    2    4    4    0    0  0.36646341073E+03 -0.13335764556E+03  0.47480157690E+03  0.61967806754E+03  0.80527491728E+02 0.  0.
         24    2    4    4    0    0 -0.32350814025E+03 -0.30877937427E+03 -0.83030221820E+02  0.46186848530E+03  0.80163964398E+02 0.  0.
         11    1    3    3    0    0 -0.30404661912E+02  0.43640832724E+03  0.10323093725E+04  0.11211776452E+04  0.00000000000E+00 0. -1.
        -11    1    3    3    0    0 -0.12550608563E+02  0.57286925973E+01  0.16555394153E+02  0.21550331082E+02  0.00000000000E+00 0.  1.
          2    1    6    6  502    0 -0.27909762733E+03 -0.27571288726E+03 -0.98275592761E+02  0.40443933280E+03  0.00000000000E+00 0. -1.
          3    1    5    5  503    0  0.36801728759E+03 -0.12355893982E+03  0.46475974246E+03  0.60556184968E+03  0.00000000000E+00 0. -1.
         -4    1    5    5    0  503 -0.15538768660E+01 -0.97987057442E+01  0.10041834441E+02  0.14116217855E+02  0.00000000000E+00 0.  1.
         -1    1    6    6    0  502 -0.44410512924E+02 -0.33066487016E+02  0.15245370941E+02  0.57429152500E+02  0.00000000000E+00 0.  1.
<mgrwt>
<rscale>  0 0.16946872E+04</rscale>
<asrwt>0</asrwt>
<pdfrwt beam="1">  1        2 0.28191620E+00 0.16946872E+04</pdfrwt>
<pdfrwt beam="2">  1       -2 0.60279879E-01 0.16946872E+04</pdfrwt>
<totfact> 0.20208058E+01</totfact>
</mgrwt>
</event>
<event>
12    1  0.1489233E-007  0.1342943E+04  0.7818608E-02  0.8996188E-01
         -4   -1    0    0    0  501 -0.00000000000E+00  0.00000000000E+00  0.14922547703E+04  0.14922547703E+04  0.00000000000E+00 0.  1.
          4   -1    0    0  501    0  0.00000000000E+00 -0.00000000000E+00 -0.30214253547E+03  0.30214253547E+03  0.00000000000E+00 0. -1.
         23    2    1    2    0    0 -0.30093486793E+03  0.12432195940E+03  0.12146146609E+03  0.36104129969E+03  0.97878434862E+02 0.  0.
        254    2    1    2    0    0  0.30093486793E+03 -0.12432195940E+03  0.10686507688E+04  0.14333560061E+04  0.89804077322E+03 0.  0.
        -24    2    4    4    0    0 -0.11236397052E+03  0.17184382376E+03  0.84319437275E+03  0.87158236621E+03  0.80765767647E+02 0.  0.
         24    2    4    4    0    0  0.41329883844E+03 -0.29616578317E+03  0.22545639604E+03  0.56177363992E+03  0.78923602417E+02 0.  0.
         13    1    3    3    0    0 -0.19240785749E+03  0.47309504522E+02  0.11206507585E+03  0.22763469434E+03  0.00000000000E+00 0. -1.
        -13    1    3    3    0    0 -0.10852701043E+03  0.77012454879E+02  0.93963902438E+01  0.13340660534E+03  0.00000000000E+00 0.  1.
          4    1    6    6  502    0  0.41251571960E+03 -0.28665709106E+03  0.21190851961E+03  0.54520338173E+03  0.00000000000E+00 0. -1.
          1    1    5    5  503    0 -0.10484634413E+03  0.10490480343E+03  0.65826818875E+03  0.67477016975E+03  0.00000000000E+00 0. -1.
         -2    1    5    5    0  503 -0.75176263851E+01  0.66939020332E+02  0.18492618399E+03  0.19681219646E+03  0.00000000000E+00 0.  1.
         -3    1    6    6    0  502  0.78311884680E+00 -0.95086921022E+01  0.13547876430E+02  0.16570258187E+02  0.00000000000E+00 0.  1.
<mgrwt>
<rscale>  0 0.13429425E+04</rscale>
<asrwt>0</asrwt>
<pdfrwt beam="1">  1        4 0.46483468E-01 0.13429425E+04</pdfrwt>
<pdfrwt beam="2">  1       -4 0.22957765E+00 0.13429425E+04</pdfrwt>
<totfact> 0.74513379E-01</totfact>
</mgrwt>
</event>
<event>
12    1  0.1489233E-007  0.1369691E+04  0.7818608E-02  0.8976055E-01
          1   -1    0    0  501    0  0.00000000000E+00  0.00000000000E+00  0.29503493998E+03  0.29503493998E+03  0.00000000000E+00 0. -1.
         -1   -1    0    0    0  501 -0.00000000000E+00 -0.00000000000E+00 -0.15896879416E+04  0.15896879416E+04  0.00000000000E+00 0.  1.
         23    2    1    2    0    0 -0.20010400035E+03  0.16405390664E+03  0.15501179633E+02  0.27420037491E+03  0.89388275455E+02 0.  0.
        254    2    1    2    0    0  0.20010400035E+03 -0.16405390664E+03 -0.13101541813E+04  0.16105225067E+04  0.90017968796E+03 0.  0.
        -24    2    4    4    0    0  0.35807866834E+03 -0.16875535104E+03 -0.14021463920E+03  0.42782209020E+03  0.81687787260E+02 0.  0.
         24    2    4    4    0    0 -0.15797466799E+03  0.47014444017E+01 -0.11699395421E+04  0.11827004165E+04  0.71018615698E+02 0.  0.
         13    1    3    3    0    0 -0.18359791775E+02  0.50175452689E+02 -0.19524790807E+02  0.56884755978E+02  0.00000000000E+00 0.  1.
        -13    1    3    3    0    0 -0.18174420858E+03  0.11387845395E+03  0.35025970440E+02  0.21731561893E+03  0.00000000000E+00 0. -1.
          4    1    6    6  502    0 -0.15955079596E+03  0.16294431024E+02 -0.11189813636E+04  0.11304164087E+04  0.00000000000E+00 0. -1.
          1    1    5    5  503    0  0.36063206666E+03 -0.16218003946E+03 -0.14264195200E+03  0.42036243787E+03  0.00000000000E+00 0. -1.
         -2    1    5    5    0  503 -0.25533983210E+01 -0.65753115805E+01  0.24273127972E+01  0.74596523231E+01  0.00000000000E+00 0.  1.
         -3    1    6    6    0  502  0.15761279743E+01 -0.11592986622E+02 -0.50958178473E+02  0.52284007799E+02  0.00000000000E+00 0.  1.
<mgrwt>
<rscale>  0 0.13696912E+04</rscale>
<asrwt>0</asrwt>
<pdfrwt beam="1">  1        1 0.45389991E-01 0.13696912E+04</pdfrwt>
<pdfrwt beam="2">  1       -1 0.24456738E+00 0.13696912E+04</pdfrwt>
<totfact> 0.66331141E+00</totfact>
</mgrwt>
</event>
<event>
12    1  0.1489233E-007  0.1638432E+04  0.7818608E-02  0.8797279E-01
          3   -1    0    0  501    0  0.00000000000E+00  0.00000000000E+00  0.25480612180E+03  0.25480612180E+03  0.00000000000E+00 0. -1.
         -3   -1    0    0    0  501 -0.00000000000E+00 -0.00000000000E+00 -0.26338270002E+04  0.26338270002E+04  0.00000000000E+00 0.  1.
         23    2    1    2    0    0  0.45327918633E+03 -0.13788577650E+03 -0.31142107707E+03  0.57450543812E+03  0.92730270471E+02 0.  0.
        254    2    1    2    0    0 -0.45327918633E+03  0.13788577650E+03 -0.20675998014E+04  0.23141276839E+04  0.92506404684E+03 0.  0.
        -24    2    4    4    0    0  0.83669086057E+01 -0.16796884085E+03 -0.15193974559E+04  0.15308777451E+04  0.82064028282E+02 0.  0.
         24    2    4    4    0    0 -0.46164609494E+03  0.30585461735E+03 -0.54820234549E+03  0.78324993886E+03  0.79312616876E+02 0.  0.
         13    1    3    3    0    0  0.35131754439E+03 -0.96393766976E+02 -0.19093872487E+03  0.41130690726E+03  0.00000000000E+00 0. -1.
        -13    1    3    3    0    0  0.10196164195E+03 -0.41492009524E+02 -0.12048235220E+03  0.16319853086E+03  0.00000000000E+00 0.  1.
          2    1    6    6  502    0 -0.30729196123E+03  0.17961555403E+03 -0.39559193802E+03  0.53214948851E+03  0.00000000000E+00 0. -1.
          3    1    5    5  503    0  0.17589525429E+02 -0.17349559954E+03 -0.13628519576E+04  0.13739634539E+04  0.00000000000E+00 0. -1.
         -4    1    5    5    0  503 -0.92226168234E+01  0.55267586889E+01 -0.15654549833E+03  0.15691429116E+03  0.00000000000E+00 0.  1.
         -1    1    6    6    0  502 -0.15435413370E+03  0.12623906333E+03 -0.15261040746E+03  0.25110045035E+03  0.00000000000E+00 0.  1.
<mgrwt>
<rscale>  0 0.16384325E+04</rscale>
<asrwt>0</asrwt>
<pdfrwt beam="1">  1        3 0.39200944E-01 0.16384325E+04</pdfrwt>
<pdfrwt beam="2">  1       -3 0.40520413E+00 0.16384325E+04</pdfrwt>
<totfact> 0.16162377E-01</totfact>
</mgrwt>
</event>
<event>
12    1  0.1489233E-007  0.1958710E+04  0.7818608E-02  0.8626172E-01
         -1   -1    0    0    0  501 -0.00000000000E+00  0.00000000000E+00  0.12200572353E+04  0.12200572353E+04  0.00000000000E+00 0.  1.
          1   -1    0    0  501    0  0.00000000000E+00 -0.00000000000E+00 -0.78614019419E+03  0.78614019419E+03  0.00000000000E+00 0. -1.
         23    2    1    2    0    0 -0.62927658345E+03 -0.26564699796E+03  0.52593766514E+03  0.86701208551E+03  0.92423929840E+02 0.  0.
        254    2    1    2    0    0  0.62927658345E+03  0.26564699796E+03 -0.92020624056E+02  0.11391853440E+04  0.90703809546E+03 0.  0.
        -24    2    4    4    0    0  0.50880408298E+03 -0.14240967751E+02 -0.43503636461E+03  0.67436629359E+03  0.80180168219E+02 0.  0.
         24    2    4    4    0    0  0.12047250047E+03  0.27988796571E+03  0.34301574055E+03  0.46481905037E+03  0.74471837588E+02 0.  0.
         13    1    3    3    0    0 -0.54534166398E+03 -0.19456091082E+03  0.43288999387E+03  0.72294206219E+03  0.00000000000E+00 0.  1.
        -13    1    3    3    0    0 -0.83934919478E+02 -0.71086087141E+02  0.93047671271E+02  0.14407002333E+03  0.00000000000E+00 0. -1.
          4    1    6    6  502    0  0.11449376610E+03  0.25833650342E+03  0.27937405728E+03  0.39736184437E+03  0.00000000000E+00 0. -1.
          1    1    5    5  503    0  0.48586569870E+03 -0.95748337419E+01 -0.38809536662E+03  0.62191250848E+03  0.00000000000E+00 0. -1.
         -2    1    5    5    0  503  0.22938384286E+02 -0.46661340089E+01 -0.46940997988E+02  0.52453785110E+02  0.00000000000E+00 0.  1.
         -3    1    6    6    0  502  0.59787343684E+01  0.21551462295E+02  0.63641683272E+02  0.67457206001E+02  0.00000000000E+00 0.  1.
<mgrwt>
<rscale>  0 0.19587098E+04</rscale>
<asrwt>0</asrwt>
<pdfrwt beam="1">  1        1 0.12094465E+00 0.19587098E+04</pdfrwt>
<pdfrwt beam="2">  1       -1 0.18770111E+00 0.19587098E+04</pdfrwt>
<totfact> 0.38819817E+00</totfact>
</mgrwt>
</event>
<event>
12    1  0.1489233E-007  0.1375027E+04  0.7818608E-02  0.8972096E-01
          1   -1    0    0  501    0  0.00000000000E+00  0.00000000000E+00  0.12622436708E+04  0.12622436708E+04  0.00000000000E+00 0. -1.
         -1   -1    0    0    0  501 -0.00000000000E+00 -0.00000000000E+00 -0.37447200093E+03  0.37447200093E+03  0.00000000000E+00 0.  1.
         23    2    1    2    0    0 -0.38297387248E+03 -0.48037959756E+02  0.26939027653E+03  0.47946791757E+03  0.91333073453E+02 0.  0.
        254    2    1    2    0    0  0.38297387248E+03  0.48037959756E+02  0.61838139338E+03  0.11572477542E+04  0.89880486444E+03 0.  0.
        -24    2    4    4    0    0  0.33897197739E+03 -0.20275201239E+03  0.75643588020E+03  0.85718328653E+03  0.80978798895E+02 0.  0.
         24    2    4    4    0    0  0.44001895092E+02  0.25078997214E+03 -0.13805448681E+03  0.30006446768E+03  0.78408332042E+02 0.  0.
         13    1    3    3    0    0 -0.28643497075E+03 -0.55756103633E+02  0.15791613746E+03  0.33180000306E+03  0.00000000000E+00 0.  1.
        -13    1    3    3    0    0 -0.96538901726E+02  0.77181438778E+01  0.11147413908E+03  0.14766791450E+03  0.00000000000E+00 0. -1.
          2    1    6    6  502    0  0.30323642716E+02  0.46295105743E+02 -0.57624517355E+02  0.79895839214E+02  0.00000000000E+00 0. -1.
          1    1    5    5  503    0  0.15837485231E+03 -0.69792008132E+02  0.40313561123E+03  0.43871612608E+03  0.00000000000E+00 0. -1.
         -4    1    5    5    0  503  0.18059712508E+03 -0.13296000425E+03  0.35330026897E+03  0.41846716045E+03  0.00000000000E+00 0.  1.
         -1    1    6    6    0  502  0.13678252376E+02  0.20449486640E+03 -0.80429969457E+02  0.22016862846E+03  0.00000000000E+00 0.  1.
<mgrwt>
<rscale>  0 0.13750271E+04</rscale>
<asrwt>0</asrwt>
<pdfrwt beam="1">  1        1 0.19419133E+00 0.13750271E+04</pdfrwt>
<pdfrwt beam="2">  1       -1 0.57611078E-01 0.13750271E+04</pdfrwt>
<totfact> 0.28704098E+01</totfact>
</mgrwt>
</event>
<event>
12    1  0.1489233E-007  0.1357172E+04  0.7818608E-02  0.8985417E-01
          2   -1    0    0  501    0  0.00000000000E+00  0.00000000000E+00  0.30840440607E+04  0.30840440607E+04  0.00000000000E+00 0. -1.
         -2   -1    0    0    0  501 -0.00000000000E+00 -0.00000000000E+00 -0.14931000959E+03  0.14931000959E+03  0.00000000000E+00 0.  1.
         23    2    1    2    0    0 -0.37327077772E+02  0.34163040659E+03  0.47269057797E+03  0.59243543534E+03  0.97153060181E+02 0.  0.
        254    2    1    2    0    0  0.37327077772E+02 -0.34163040659E+03  0.24620434731E+04  0.26409186349E+04  0.89145304268E+03 0.  0.
        -24    2    4    4    0    0  0.27683529676E+03 -0.28966132459E+03  0.23011329071E+04  0.23370381245E+04  0.77414951996E+02 0.  0.
         24    2    4    4    0    0 -0.23950821899E+03 -0.51969081998E+02  0.16091056606E+03  0.30388051044E+03  0.79913590282E+02 0.  0.
         13    1    3    3    0    0 -0.54527545554E+02  0.22672493805E+03  0.37010784459E+03  0.43744401629E+03  0.00000000000E+00 0. -1.
        -13    1    3    3    0    0  0.17200467782E+02  0.11490546854E+03  0.10258273338E+03  0.15499141905E+03  0.00000000000E+00 0.  1.
          4    1    6    6  502    0 -0.57863789054E+02 -0.48609014310E+02  0.38498148139E+02  0.84812509490E+02  0.00000000000E+00 0. -1.
          3    1    5    5  503    0  0.10687624147E+03 -0.71549605830E+02  0.60568709916E+03  0.61919200509E+03  0.00000000000E+00 0. -1.
         -4    1    5    5    0  503  0.16995905529E+03 -0.21811171876E+03  0.16954458079E+04  0.17178461194E+04  0.00000000000E+00 0.  1.
         -3    1    6    6    0  502 -0.18164442993E+03 -0.33600676879E+01  0.12241241792E+03  0.21906800095E+03  0.00000000000E+00 0.  1.
<mgrwt>
<rscale>  0 0.13571715E+04</rscale>
<asrwt>0</asrwt>
<pdfrwt beam="1">  1        2 0.47446827E+00 0.13571715E+04</pdfrwt>
<pdfrwt beam="2">  1       -2 0.22970773E-01 0.13571715E+04</pdfrwt>
<totfact> 0.25424628E+01</totfact>
</mgrwt>
</event>
<event>
12    1  0.1489233E-007  0.2089619E+04  0.7818608E-02  0.8565830E-01
          2   -1    0    0  501    0  0.00000000000E+00  0.00000000000E+00  0.95025923950E+03  0.95025923950E+03  0.00000000000E+00 0. -1.
         -2   -1    0    0    0  501 -0.00000000000E+00 -0.00000000000E+00 -0.11487676096E+04  0.11487676096E+04  0.00000000000E+00 0.  1.
         23    2    1    2    0    0 -0.59269005780E+03 -0.98668261364E+02  0.52114570381E+03  0.80039384597E+03  0.89557432110E+02 0.  0.
        254    2    1    2    0    0  0.59269005780E+03  0.98668261364E+02 -0.71965407387E+03  0.12986330031E+04  0.89862604029E+03 0.  0.
        -24    2    4    4    0    0  0.63441865248E+02  0.44640968766E+02 -0.74957260151E+03  0.75886601177E+03  0.89447484700E+02 0.  0.
         24    2    4    4    0    0  0.52924819255E+03  0.54027292598E+02  0.29918527639E+02  0.53976699133E+03  0.86201444150E+02 0.  0.
         13    1    3    3    0    0 -0.27339353077E+03 -0.67580188550E+02  0.29532240095E+03  0.40807649412E+03  0.00000000000E+00 0. -1.
        -13    1    3    3    0    0 -0.31929652703E+03 -0.31088072814E+02  0.22582330286E+03  0.39231735185E+03  0.00000000000E+00 0.  1.
          4    1    6    6  502    0  0.11579044627E+03  0.19179166292E+02  0.42029524252E+02  0.12466655035E+03  0.00000000000E+00 0. -1.
          1    1    5    5  503    0  0.18665168419E+02  0.35209714235E+02 -0.99483995912E+02  0.10716892241E+03  0.00000000000E+00 0. -1.
         -2    1    5    5    0  503  0.44776696829E+02  0.94312545305E+01 -0.65008860560E+03  0.65169708935E+03  0.00000000000E+00 0.  1.
         -1    1    6    6    0  502  0.41345774628E+03  0.34848126306E+02 -0.12110996613E+02  0.41510044099E+03  0.00000000000E+00 0.  1.
<mgrwt>
<rscale>  0 0.20896191E+04</rscale>
<asrwt>0</asrwt>
<pdfrwt beam="1">  1        2 0.14619373E+00 0.20896191E+04</pdfrwt>
<pdfrwt beam="2">  1       -2 0.17673348E+00 0.20896191E+04</pdfrwt>
<totfact> 0.47811832E+00</totfact>
</mgrwt>
</event>
<event>
12    1  0.1489233E-007  0.2198904E+04  0.7818608E-02  0.8518885E-01
         -1   -1    0    0    0  501 -0.00000000000E+00  0.00000000000E+00  0.13699788044E+04  0.13699788044E+04  0.00000000000E+00 0.  1.
          1   -1    0    0  501    0  0.00000000000E+00 -0.00000000000E+00 -0.88234519120E+03  0.88234519120E+03  0.00000000000E+00 0. -1.
         23    2    1    2    0    0 -0.89870048975E+03 -0.10529939972E+03  0.33011429346E+03  0.96750803652E+03  0.91355460293E+02 0.  0.
        254    2    1    2    0    0  0.89870048975E+03  0.10529939972E+03  0.15751931971E+03  0.12848159591E+04  0.89843707553E+03 0.  0.
        -24    2    4    4    0    0  0.67200377883E+03  0.11967294563E+03  0.51167738575E+03  0.85668946779E+03  0.78691832256E+02 0.  0.
         24    2    4    4    0    0  0.22669671093E+03 -0.14373545908E+02 -0.35415806604E+03  0.42812649126E+03  0.79160338642E+02 0.  0.
         11    1    3    3    0    0 -0.41388476731E+02  0.61861215590E+01 -0.67722652592E+00  0.41853706429E+02  0.00000000000E+00 0. -1.
        -11    1    3    3    0    0 -0.85731201302E+03 -0.11148552128E+03  0.33079151998E+03  0.92565433009E+03  0.00000000000E+00 0.  1.
          2    1    6    6  502    0  0.98579769741E+02 -0.44901169290E+02 -0.17393807366E+03  0.20491105259E+03  0.00000000000E+00 0. -1.
          3    1    5    5  503    0  0.37238136484E+03  0.80307048080E+02  0.23938349592E+03  0.44991283708E+03  0.00000000000E+00 0. -1.
         -4    1    5    5    0  503  0.29962241398E+03  0.39365897550E+02  0.27229388983E+03  0.40677663071E+03  0.00000000000E+00 0.  1.
         -1    1    6    6    0  502  0.12811694118E+03  0.30527623382E+02 -0.18021999238E+03  0.22321543867E+03  0.00000000000E+00 0.  1.
<mgrwt>
<rscale>  0 0.21989036E+04</rscale>
<asrwt>0</asrwt>
<pdfrwt beam="1">  1        1 0.13574541E+00 0.21989036E+04</pdfrwt>
<pdfrwt beam="2">  1       -1 0.21076597E+00 0.21989036E+04</pdfrwt>
<totfact> 0.21793866E+00</totfact>
</mgrwt>
</event>
<event>
12    1  0.1489233E-007  0.1356084E+04  0.7818608E-02  0.8986235E-01
         -1   -1    0    0    0  501 -0.00000000000E+00  0.00000000000E+00  0.45903249538E+03  0.45903249538E+03  0.00000000000E+00 0.  1.
          1   -1    0    0  501    0  0.00000000000E+00 -0.00000000000E+00 -0.10015436227E+04  0.10015436227E+04  0.00000000000E+00 0. -1.
         23    2    1    2    0    0  0.28271042221E+03  0.14096300304E+03  0.52468323265E+02  0.33386053548E+03  0.94414941353E+02 0.  0.
        254    2    1    2    0    0 -0.28271042221E+03 -0.14096300304E+03 -0.59497945060E+03  0.11267155826E+04  0.90315652376E+03 0.  0.
        -24    2    4    4    0    0 -0.13869480359E+03 -0.43446194526E+03 -0.63685101175E+03  0.78739007350E+03  0.80065512319E+02 0.  0.
         24    2    4    4    0    0 -0.14401561862E+03  0.29349894222E+03  0.41871561151E+02  0.33932550911E+03  0.80662544014E+02 0.  0.
         13    1    3    3    0    0  0.26010308223E+03  0.15464482214E+03  0.54032402679E+02  0.30738922385E+03  0.00000000000E+00 0.  1.
        -13    1    3    3    0    0  0.22607339987E+02 -0.13681819099E+02 -0.15640794139E+01  0.26471311632E+02  0.00000000000E+00 0. -1.
          4    1    6    6  502    0 -0.89324929891E+02  0.25386961129E+03  0.30754458192E+02  0.27087738801E+03  0.00000000000E+00 0. -1.
          3    1    5    5  503    0 -0.96483093756E+02 -0.38603665182E+03 -0.56432658689E+03  0.69050545298E+03  0.00000000000E+00 0. -1.
         -4    1    5    5    0  503 -0.42211709838E+02 -0.48425293440E+02 -0.72524424861E+02  0.96884620522E+02  0.00000000000E+00 0.  1.
         -3    1    6    6    0  502 -0.54690688728E+02  0.39629330932E+02  0.11117102959E+02  0.68448121098E+02  0.00000000000E+00 0.  1.
<mgrwt>
<rscale>  0 0.13560842E+04</rscale>
<asrwt>0</asrwt>
<pdfrwt beam="1">  1        1 0.15408363E+00 0.13560842E+04</pdfrwt>
<pdfrwt beam="2">  1       -1 0.70620384E-01 0.13560842E+04</pdfrwt>
<totfact> 0.29915387E+01</totfact>
</mgrwt>
</event>
<event>
12    1  0.1489233E-007  0.1489260E+04  0.7818608E-02  0.8891626E-01
          2   -1    0    0  501    0  0.00000000000E+00  0.00000000000E+00  0.37572310718E+04  0.37572310718E+04  0.00000000000E+00 0.  1.
         -2   -1    0    0    0  501 -0.00000000000E+00 -0.00000000000E+00 -0.14757519241E+03  0.14757519241E+03  0.00000000000E+00 0. -1.
         23    2    1    2    0    0 -0.33346196790E+03 -0.22905050061E+03  0.16694863084E+04  0.17199655203E+04  0.86231324187E+02 0.  0.
        254    2    1    2    0    0  0.33346196790E+03  0.22905050061E+03  0.19401695710E+04  0.21848407440E+04  0.91957060424E+03 0.  0.
        -24    2    4    4    0    0  0.58153681541E+03 -0.87137021971E+02  0.10984878257E+04  0.12488430087E+04  0.84589768615E+02 0.  0.
         24    2    4    4    0    0 -0.24807484751E+03  0.31618752258E+03  0.84168174532E+03  0.93599773521E+03  0.78408676251E+02 0.  0.
         11    1    3    3    0    0 -0.43741216830E+02 -0.15241382001E+02  0.10823614298E+03  0.11773128906E+03  0.00000000000E+00 0. -1.
        -11    1    3    3    0    0 -0.28972075106E+03 -0.21380911861E+03  0.15612501654E+04  0.16022342312E+04  0.00000000000E+00 0.  1.
          4    1    6    6  502    0 -0.18912467031E+03  0.24226225427E+03  0.55895037113E+03  0.63787511172E+03  0.00000000000E+00 0. -1.
          1    1    5    5  503    0  0.57257622477E+03 -0.91022383138E+02  0.10504501548E+04  0.11998225431E+04  0.00000000000E+00 0. -1.
         -2    1    5    5    0  503  0.89605906389E+01  0.38853611670E+01  0.48037670966E+02  0.49020465602E+02  0.00000000000E+00 0.  1.
         -3    1    6    6    0  502 -0.58950177204E+02  0.73925268314E+02  0.28273137419E+03  0.29812262349E+03  0.00000000000E+00 0.  1.
<mgrwt>
<rscale>  0 0.14892604E+04</rscale>
<asrwt>0</asrwt>
<pdfrwt beam="1">  1        2 0.57803548E+00 0.14892604E+04</pdfrwt>
<pdfrwt beam="2">  1       -2 0.22703879E-01 0.14892604E+04</pdfrwt>
<totfact> 0.89008926E+00</totfact>
</mgrwt>
</event>
<event>
12    1  0.1489233E-007  0.2531859E+04  0.7818608E-02  0.8391723E-01
         -1   -1    0    0    0  501 -0.00000000000E+00  0.00000000000E+00  0.10040638091E+04  0.10040638091E+04  0.00000000000E+00 0.  1.
          1   -1    0    0  501    0  0.00000000000E+00 -0.00000000000E+00 -0.15960911723E+04  0.15960911723E+04  0.00000000000E+00 0. -1.
         23    2    1    2    0    0  0.64381860970E+03  0.86640751862E+03 -0.55367819896E+02  0.10848571657E+04  0.93193797564E+02 0.  0.
        254    2    1    2    0    0 -0.64381860970E+03 -0.86640751862E+03 -0.53665954332E+03  0.15152978158E+04  0.91812832142E+03 0.  0.
        -24    2    4    4    0    0 -0.45665977854E+02  0.23777188535E+02  0.19339952751E+03  0.21537463190E+03  0.79574610260E+02 0.  0.
         24    2    4    4    0    0 -0.59815263184E+03 -0.89018470716E+03 -0.73005907083E+03  0.12999231839E+04  0.81232095221E+02 0.  0.
         13    1    3    3    0    0  0.18120755743E+03  0.26215436851E+03 -0.57585459663E+02  0.32384745940E+03  0.00000000000E+00 0. -1.
        -13    1    3    3    0    0  0.46261105227E+03  0.60425315011E+03  0.22176397675E+01  0.76100970626E+03  0.00000000000E+00 0.  1.
          2    1    6    6  502    0 -0.37819606759E+03 -0.50403926317E+03 -0.40032590336E+03  0.74655788340E+03  0.00000000000E+00 0. -1.
          1    1    5    5  503    0  0.20634975994E+02  0.19414649245E+02  0.58289416696E+02  0.64810392210E+02  0.00000000000E+00 0. -1.
         -2    1    5    5    0  503 -0.66300953848E+02  0.43625392898E+01  0.13511011081E+03  0.15056423969E+03  0.00000000000E+00 0.  1.
         -1    1    6    6    0  502 -0.21995656425E+03 -0.38614544398E+03 -0.32973316747E+03  0.55336530049E+03  0.00000000000E+00 0.  1.
<mgrwt>
<rscale>  0 0.25318589E+04</rscale>
<asrwt>0</asrwt>
<pdfrwt beam="1">  1        1 0.24555249E+00 0.25318589E+04</pdfrwt>
<pdfrwt beam="2">  1       -1 0.15447136E+00 0.25318589E+04</pdfrwt>
<totfact> 0.16024376E+00</totfact>
</mgrwt>
</event>
<event>
12    1  0.1489233E-007  0.1506088E+04  0.7818608E-02  0.8880414E-01
         -2   -1    0    0    0  501 -0.00000000000E+00  0.00000000000E+00  0.43377499450E+03  0.43377499450E+03  0.00000000000E+00 0.  1.
          2   -1    0    0  501    0  0.00000000000E+00 -0.00000000000E+00 -0.13073031342E+04  0.13073031342E+04  0.00000000000E+00 0. -1.
         23    2    1    2    0    0 -0.37973789454E+02 -0.37358164954E+03  0.66279975532E+02  0.39266119707E+03  0.93725786053E+02 0.  0.
        254    2    1    2    0    0  0.37973789454E+02  0.37358164954E+03 -0.93980811526E+03  0.13484169317E+04  0.89105761346E+03 0.  0.
        -24    2    4    4    0    0  0.13923588143E+03  0.16524169554E+03 -0.10534485052E+04  0.10782927600E+04  0.79183801860E+02 0.  0.
         24    2    4    4    0    0 -0.10126209198E+03  0.20833995400E+03  0.11364038993E+03  0.27012417169E+03  0.79958628069E+02 0.  0.
         11    1    3    3    0    0  0.76690970423E+01 -0.13809737317E+03 -0.15639197805E+02  0.13919153722E+03  0.00000000000E+00 0. -1.
        -11    1    3    3    0    0 -0.45642886496E+02 -0.23548427637E+03  0.81919173337E+02  0.25346965985E+03  0.00000000000E+00 0.  1.
          2    1    6    6  502    0 -0.25964535746E+02  0.32767222261E+02 -0.94538898959E+01  0.42862851111E+02  0.00000000000E+00 0. -1.
          1    1    5    5  503    0  0.35406066743E+02  0.97232259953E+00 -0.18607052584E+03  0.18941165634E+03  0.00000000000E+00 0. -1.
         -2    1    5    5    0  503  0.10382981469E+03  0.16426937294E+03 -0.86737797935E+03  0.88888110362E+03  0.00000000000E+00 0.  1.
         -1    1    6    6    0  502 -0.75297556232E+02  0.17557273174E+03  0.12309427983E+03  0.22726132058E+03  0.00000000000E+00 0.  1.
<mgrwt>
<rscale>  0 0.15060882E+04</rscale>
<asrwt>0</asrwt>
<pdfrwt beam="1">  1        2 0.20112356E+00 0.15060882E+04</pdfrwt>
<pdfrwt beam="2">  1       -2 0.66734615E-01 0.15060882E+04</pdfrwt>
<totfact> 0.32606816E+01</totfact>
</mgrwt>
</event>
<event>
12    1  0.1489233E-007  0.1961034E+04  0.7818608E-02  0.8625058E-01
          2   -1    0    0  501    0  0.00000000000E+00  0.00000000000E+00  0.16377892539E+04  0.16377892539E+04  0.00000000000E+00 0.  1.
         -2   -1    0    0    0  501 -0.00000000000E+00 -0.00000000000E+00 -0.58701936669E+03  0.58701936669E+03  0.00000000000E+00 0. -1.
         23    2    1    2    0    0  0.78248654296E+02  0.52518098002E+03  0.10635098641E+04  0.11921497253E+04  0.90718370557E+02 0.  0.
        254    2    1    2    0    0 -0.78248654296E+02 -0.52518098002E+03 -0.12739976929E+02  0.10326588953E+04  0.88559820082E+03 0.  0.
        -24    2    4    4    0    0 -0.13001415546E+03  0.61792764857E+02  0.31376759251E+03  0.35411121487E+03  0.78883610322E+02 0.  0.
         24    2    4    4    0    0  0.51765501165E+02 -0.58697374488E+03 -0.32650756944E+03  0.67854768040E+03  0.81252183852E+02 0.  0.
         11    1    3    3    0    0  0.75293236850E+02  0.51267774620E+03  0.98884866488E+03  0.11163911613E+04  0.00000000000E+00 0.  1.
        -11    1    3    3    0    0  0.29554174464E+01  0.12503233822E+02  0.74661199230E+02  0.75758563996E+02  0.00000000000E+00 0. -1.
          4    1    6    6  502    0 -0.21479158572E+02 -0.13513979286E+03 -0.66786719787E+02  0.15226484757E+03  0.00000000000E+00 0. -1.
          1    1    5    5  503    0  0.90743402749E+01  0.97574965231E+01  0.46340706994E+02  0.48218393944E+02  0.00000000000E+00 0. -1.
         -2    1    5    5    0  503 -0.13908849574E+03  0.52035268334E+02  0.26742688552E+03  0.30589282093E+03  0.00000000000E+00 0.  1.
         -3    1    6    6    0  502  0.73244659737E+02 -0.45183395202E+03 -0.25972084966E+03  0.52628283282E+03  0.00000000000E+00 0.  1.
<mgrwt>
<rscale>  0 0.19610344E+04</rscale>
<asrwt>0</asrwt>
<pdfrwt beam="1">  1        2 0.25196757E+00 0.19610344E+04</pdfrwt>
<pdfrwt beam="2">  1       -2 0.90310673E-01 0.19610344E+04</pdfrwt>
<totfact> 0.10379376E+01</totfact>
</mgrwt>
</event>
<event>
12    1  0.1489233E-007  0.2196640E+04  0.7818608E-02  0.8519828E-01
          2   -1    0    0  501    0  0.00000000000E+00  0.00000000000E+00  0.35254190155E+04  0.35254190155E+04  0.00000000000E+00 0.  1.
         -2   -1    0    0    0  501 -0.00000000000E+00 -0.00000000000E+00 -0.34217391665E+03  0.34217391665E+03  0.00000000000E+00 0. -1.
         23    2    1    2    0    0  0.70971755399E+03  0.53657956071E+03  0.16586399585E+04  0.18840941698E+04  0.84307159399E+02 0.  0.
        254    2    1    2    0    0 -0.70971755399E+03 -0.53657956071E+03  0.15246051403E+04  0.19834987624E+04  0.90456059776E+03 0.  0.
        -24    2    4    4    0    0 -0.71472471083E+03 -0.17084476571E+03  0.14102483507E+04  0.15922319387E+04  0.79892363998E+02 0.  0.
         24    2    4    4    0    0  0.50071568352E+01 -0.36573479500E+03  0.11435678967E+03  0.39126682369E+03  0.78900190632E+02 0.  0.
         13    1    3    3    0    0  0.15578929525E+03  0.12343626377E+03  0.30096763904E+03  0.36067760601E+03  0.00000000000E+00 0. -1.
        -13    1    3    3    0    0  0.55392825875E+03  0.41314329694E+03  0.13576723195E+04  0.15234165638E+04  0.00000000000E+00 0.  1.
          4    1    6    6  502    0  0.37548699857E+02 -0.27808962032E+03  0.89217085658E+02  0.29445446195E+03  0.00000000000E+00 0. -1.
          3    1    5    5  503    0 -0.41268062661E+03 -0.66510492883E+02  0.85116608228E+03  0.94826823466E+03  0.00000000000E+00 0. -1.
         -4    1    5    5    0  503 -0.30204408422E+03 -0.10433427283E+03  0.55908226839E+03  0.64396370404E+03  0.00000000000E+00 0.  1.
         -3    1    6    6    0  502 -0.32541543021E+02 -0.87645174681E+02  0.25139704014E+02  0.96812361737E+02  0.00000000000E+00 0.  1.
<mgrwt>
<rscale>  0 0.21966396E+04</rscale>
<asrwt>0</asrwt>
<pdfrwt beam="1">  1        2 0.54237213E+00 0.21966396E+04</pdfrwt>
<pdfrwt beam="2">  1       -2 0.52642144E-01 0.21966396E+04</pdfrwt>
<totfact> 0.24376048E+00</totfact>
</mgrwt>
</event>
<event>
12    1  0.1489233E-007  0.3319408E+04  0.7818608E-02  0.8157975E-01
          2   -1    0    0  501    0  0.00000000000E+00  0.00000000000E+00  0.31910863191E+04  0.31910863191E+04  0.00000000000E+00 0. -1.
         -2   -1    0    0    0  501 -0.00000000000E+00 -0.00000000000E+00 -0.86322237749E+03  0.86322237749E+03  0.00000000000E+00 0.  1.
         23    2    1    2    0    0  0.46448750456E+03  0.58568569510E+03  0.27374488281E+04  0.28392354901E+04  0.94104764228E+02 0.  0.
        254    2    1    2    0    0 -0.46448750456E+03 -0.58568569510E+03 -0.40958488650E+03  0.12150732064E+04  0.86594846408E+03 0.  0.
        -24    2    4    4    0    0 -0.66283890721E+03 -0.48188001398E+03 -0.49736725627E+03  0.96196177078E+03  0.80202843253E+02 0.  0.
         24    2    4    4    0    0  0.19835140265E+03 -0.10380568112E+03  0.87782369770E+02  0.25311143566E+03  0.78998456042E+02 0.  0.
         13    1    3    3    0    0  0.16926673863E+03  0.28366346078E+03  0.11391141712E+04  0.11860426985E+04  0.00000000000E+00 0. -1.
        -13    1    3    3    0    0  0.29522076593E+03  0.30202223431E+03  0.15983346569E+04  0.16531927916E+04  0.00000000000E+00 0.  1.
          2    1    6    6  502    0  0.43346158109E+02 -0.28652643445E+02  0.58729184614E+02  0.78415435499E+02  0.00000000000E+00 0. -1.
          3    1    5    5  503    0 -0.12300649117E+03 -0.13006358562E+03 -0.10460738401E+03  0.20733990924E+03  0.00000000000E+00 0. -1.
         -4    1    5    5    0  503 -0.53983241604E+03 -0.35181642836E+03 -0.39275987226E+03  0.75462186155E+03  0.00000000000E+00 0.  1.
         -1    1    6    6    0  502  0.15500524454E+03 -0.75153037675E+02  0.29053185156E+02  0.17469600016E+03  0.00000000000E+00 0.  1.
<mgrwt>
<rscale>  0 0.33194079E+04</rscale>
<asrwt>0</asrwt>
<pdfrwt beam="1">  1        2 0.49093635E+00 0.33194079E+04</pdfrwt>
<pdfrwt beam="2">  1       -2 0.13280344E+00 0.33194079E+04</pdfrwt>
<totfact> 0.45040373E-01</totfact>
</mgrwt>
</event>
<event>
12    1  0.1489233E-007  0.2466707E+04  0.7818608E-02  0.8414943E-01
          2   -1    0    0  501    0  0.00000000000E+00  0.00000000000E+00  0.15235574962E+04  0.15235574962E+04  0.00000000000E+00 0. -1.
         -2   -1    0    0    0  501 -0.00000000000E+00 -0.00000000000E+00 -0.99842734608E+03  0.99842734608E+03  0.00000000000E+00 0.  1.
         23    2    1    2    0    0 -0.73169103922E+03 -0.53703763179E+03 -0.33752496074E+03  0.97258238511E+03  0.90621199867E+02 0.  0.
        254    2    1    2    0    0  0.73169103922E+03  0.53703763179E+03  0.86265511083E+03  0.15494024572E+04  0.91252010343E+03 0.  0.
        -24    2    4    4    0    0  0.86962157906E+03  0.64650162899E+03  0.78795136938E+03  0.13421961093E+04  0.80106106952E+02 0.  0.
         24    2    4    4    0    0 -0.13793053985E+03 -0.10946399720E+03  0.74703741457E+02  0.20720634782E+03  0.79665683218E+02 0.  0.
         11    1    3    3    0    0 -0.30721704399E+03 -0.22989068141E+03 -0.95355249153E+02  0.39537913584E+03  0.00000000000E+00 0.  1.
        -11    1    3    3    0    0 -0.42447399523E+03 -0.30714695038E+03 -0.24216971158E+03  0.57720324927E+03  0.00000000000E+00 0. -1.
          4    1    6    6  502    0 -0.94873310841E+01  0.12166315584E+02  0.11935209819E+02  0.19505843212E+02  0.00000000000E+00 0. -1.
          1    1    5    5  503    0  0.56647743719E+03  0.40293080263E+03  0.46086982338E+03  0.83405690013E+03  0.00000000000E+00 0. -1.
         -2    1    5    5    0  503  0.30314414187E+03  0.24357082636E+03  0.32708154600E+03  0.50813920921E+03  0.00000000000E+00 0.  1.
         -3    1    6    6    0  502 -0.12844320876E+03 -0.12163031278E+03  0.62768531637E+02  0.18770050460E+03  0.00000000000E+00 0.  1.
<mgrwt>
<rscale>  0 0.24667075E+04</rscale>
<asrwt>0</asrwt>
<pdfrwt beam="1">  1        2 0.23439346E+00 0.24667075E+04</pdfrwt>
<pdfrwt beam="2">  1       -2 0.15360421E+00 0.24667075E+04</pdfrwt>
<totfact> 0.30971453E+00</totfact>
</mgrwt>
</event>
<event>
12    1  0.1489233E-007  0.1683361E+04  0.7818608E-02  0.8770911E-01
          2   -1    0    0  501    0  0.00000000000E+00  0.00000000000E+00  0.14596576159E+04  0.14596576159E+04  0.00000000000E+00 0. -1.
         -2   -1    0    0    0  501 -0.00000000000E+00 -0.00000000000E+00 -0.48533724157E+03  0.48533724157E+03  0.00000000000E+00 0.  1.
         23    2    1    2    0    0  0.46795371446E+03 -0.18477722508E+03  0.45957195422E+03  0.68741007705E+03  0.90570034524E+02 0.  0.
        254    2    1    2    0    0 -0.46795371446E+03  0.18477722508E+03  0.51474842015E+03  0.12575847805E+04  0.10312275414E+04 0.  0.
        -24    2    4    4    0    0  0.14108480418E+03  0.44394508702E+03  0.14027322512E+03  0.49293029357E+03  0.79445165855E+02 0.  0.
         24    2    4    4    0    0 -0.60903851863E+03 -0.25916786194E+03  0.37447519503E+03  0.76465448688E+03  0.79805480896E+02 0.  0.
         11    1    3    3    0    0  0.20193930782E+03 -0.52517357943E+02  0.14109908666E+03  0.25188590509E+03  0.00000000000E+00 0.  1.
        -11    1    3    3    0    0  0.26601440663E+03 -0.13225986714E+03  0.31847286756E+03  0.43552417196E+03  0.00000000000E+00 0. -1.
          4    1    6    6  502    0 -0.15284500765E+03 -0.10348879124E+03  0.98688911498E+02  0.20931083949E+03  0.00000000000E+00 0. -1.
          1    1    5    5  503    0 -0.40778584694E+01  0.14123861808E+02  0.17665617901E+02  0.22982307497E+02  0.00000000000E+00 0. -1.
         -2    1    5    5    0  503  0.14516266264E+03  0.42982122521E+03  0.12260760722E+03  0.46994798608E+03  0.00000000000E+00 0.  1.
         -3    1    6    6    0  502 -0.45619351098E+03 -0.15567907070E+03  0.27578628353E+03  0.55534364739E+03  0.00000000000E+00 0.  1.
<mgrwt>
<rscale>  0 0.16833612E+04</rscale>
<asrwt>0</asrwt>
<pdfrwt beam="1">  1        2 0.22456271E+00 0.16833612E+04</pdfrwt>
<pdfrwt beam="2">  1       -2 0.74667269E-01 0.16833612E+04</pdfrwt>
<totfact> 0.20557657E+01</totfact>
</mgrwt>
</event>
<event>
12    1  0.1489233E-007  0.3074179E+04  0.7818608E-02  0.8222860E-01
          2   -1    0    0  501    0  0.00000000000E+00  0.00000000000E+00  0.34161028692E+04  0.34161028692E+04  0.00000000000E+00 0.  1.
         -2   -1    0    0    0  501 -0.00000000000E+00 -0.00000000000E+00 -0.69161986716E+03  0.69161986716E+03  0.00000000000E+00 0. -1.
         23    2    1    2    0    0 -0.29555886613E+03 -0.12699882953E+04  0.19280484587E+04  0.23293957873E+04  0.92133389695E+02 0.  0.
        254    2    1    2    0    0  0.29555886613E+03  0.12699882953E+04  0.79643454335E+03  0.17783269490E+04  0.90989748983E+03 0.  0.
        -24    2    4    4    0    0  0.44446990706E+02  0.69034619239E+03 -0.73687972418E+02  0.70020250571E+03  0.79373996994E+02 0.  0.
         24    2    4    4    0    0  0.25111187543E+03  0.57964210296E+03  0.87012251576E+03  0.10781244433E+04  0.78720907319E+02 0.  0.
         13    1    3    3    0    0 -0.23729730135E+03 -0.10629469025E+04  0.16656091125E+04  0.19900803608E+04  0.00000000000E+00 0. -1.
        -13    1    3    3    0    0 -0.58261564784E+02 -0.20704139288E+03  0.26243934615E+03  0.33931542656E+03  0.00000000000E+00 0.  1.
          2    1    6    6  502    0  0.24935377996E+02  0.47211255378E+02  0.11587177885E+03  0.12758113044E+03  0.00000000000E+00 0. -1.
          1    1    5    5  503    0  0.49162300212E-01  0.60373220109E+01  0.75416545679E+01  0.96606535812E+01  0.00000000000E+00 0. -1.
         -2    1    5    5    0  503  0.44397828406E+02  0.68430887038E+03 -0.81229626986E+02  0.69054185213E+03  0.00000000000E+00 0.  1.
         -1    1    6    6    0  502  0.22617649743E+03  0.53243084758E+03  0.75425073691E+03  0.95054331283E+03  0.00000000000E+00 0.  1.
<mgrwt>
<rscale>  0 0.30741793E+04</rscale>
<asrwt>0</asrwt>
<pdfrwt beam="1">  1        2 0.52555428E+00 0.30741793E+04</pdfrwt>
<pdfrwt beam="2">  1       -2 0.10640306E+00 0.30741793E+04</pdfrwt>
<totfact> 0.56251858E-01</totfact>
</mgrwt>
</event>
<event>
12    1  0.1489233E-007  0.1593626E+04  0.7818608E-02  0.8824473E-01
          2   -1    0    0  501    0  0.00000000000E+00  0.00000000000E+00  0.29221928515E+04  0.29221928515E+04  0.00000000000E+00 0. -1.
         -2   -1    0    0    0  501 -0.00000000000E+00 -0.00000000000E+00 -0.21727206113E+03  0.21727206113E+03  0.00000000000E+00 0.  1.
         23    2    1    2    0    0  0.22138582153E+03  0.47992086165E+03  0.11460031243E+04  0.12655275230E+04  0.94345297687E+02 0.  0.
        254    2    1    2    0    0 -0.22138582153E+03 -0.47992086165E+03  0.15589176661E+04  0.18739373896E+04  0.89558993694E+03 0.  0.
        -24    2    4    4    0    0 -0.49697641084E+03 -0.61773053794E+02  0.98932438711E+03  0.11113729545E+04  0.74737125991E+02 0.  0.
         24    2    4    4    0    0  0.27559058931E+03 -0.41814780785E+03  0.56959327897E+03  0.76256443509E+03  0.79184923398E+02 0.  0.
         11    1    3    3    0    0  0.13455091448E+03  0.22752290107E+03  0.66165462875E+03  0.71250085392E+03  0.00000000000E+00 0. -1.
        -11    1    3    3    0    0  0.86834907048E+02  0.25239796058E+03  0.48434849551E+03  0.55302666906E+03  0.00000000000E+00 0.  1.
          2    1    6    6  502    0  0.25949208136E+03 -0.34316008919E+03  0.48865270053E+03  0.65105794583E+03  0.00000000000E+00 0. -1.
          1    1    5    5  503    0 -0.41700865783E+03 -0.46339659504E+02  0.88136120506E+03  0.97613582996E+03  0.00000000000E+00 0. -1.
         -2    1    5    5    0  503 -0.79967753008E+02 -0.15433394291E+02  0.10796318205E+03  0.13523712456E+03  0.00000000000E+00 0.  1.
         -1    1    6    6    0  502  0.16098507953E+02 -0.74987718662E+02  0.80940578440E+02  0.11150648926E+03  0.00000000000E+00 0.  1.
<mgrwt>
<rscale>  0 0.15936259E+04</rscale>
<asrwt>0</asrwt>
<pdfrwt beam="1">  1        2 0.44956810E+00 0.15936259E+04</pdfrwt>
<pdfrwt beam="2">  1       -2 0.33426473E-01 0.15936259E+04</pdfrwt>
<totfact> 0.15703799E+01</totfact>
</mgrwt>
</event>
<event>
12    1  0.1489233E-007  0.1848516E+04  0.7818608E-02  0.8680916E-01
         -1   -1    0    0    0  501 -0.00000000000E+00  0.00000000000E+00  0.53974396081E+03  0.53974396081E+03  0.00000000000E+00 0.  1.
          1   -1    0    0  501    0  0.00000000000E+00 -0.00000000000E+00 -0.15827001584E+04  0.15827001584E+04  0.00000000000E+00 0. -1.
         23    2    1    2    0    0 -0.22557936656E+03  0.30412859785E+03 -0.10856181592E+04  0.11532820690E+04  0.90069352438E+02 0.  0.
        254    2    1    2    0    0  0.22557936656E+03 -0.30412859785E+03  0.42661961672E+02  0.96916205024E+03  0.89110873748E+03 0.  0.
        -24    2    4    4    0    0  0.13716731297E+03 -0.58806697767E+03 -0.12199488022E+03  0.62118371110E+03  0.79679421205E+02 0.  0.
         24    2    4    4    0    0  0.88412053583E+02  0.28393837982E+03  0.16465684190E+03  0.34797833914E+03  0.74426837757E+02 0.  0.
         13    1    3    3    0    0 -0.10000193121E+03  0.99389254091E+02 -0.29454386293E+03  0.32654968575E+03  0.00000000000E+00 0.  1.
        -13    1    3    3    0    0 -0.12557743535E+03  0.20473934376E+03 -0.79107429632E+03  0.82673238321E+03  0.00000000000E+00 0. -1.
          2    1    6    6  502    0  0.56047486356E+02  0.21523779215E+03  0.15572569541E+03  0.27151265184E+03  0.00000000000E+00 0. -1.
          1    1    5    5  503    0  0.90418636801E+02 -0.25916683301E+03 -0.82626335038E+02  0.28665325474E+03  0.00000000000E+00 0. -1.
         -4    1    5    5    0  503  0.46748676173E+02 -0.32890014466E+03 -0.39368545186E+02  0.33453045636E+03  0.00000000000E+00 0.  1.
         -1    1    6    6    0  502  0.32364567227E+02  0.68700587667E+02  0.89311464820E+01  0.76465687305E+02  0.00000000000E+00 0.  1.
<mgrwt>
<rscale>  0 0.18485160E+04</rscale>
<asrwt>0</asrwt>
<pdfrwt beam="1">  1        1 0.24349233E+00 0.18485160E+04</pdfrwt>
<pdfrwt beam="2">  1       -1 0.83037532E-01 0.18485160E+04</pdfrwt>
<totfact> 0.77605635E+00</totfact>
</mgrwt>
</event>
<event>
12    1  0.1489233E-007  0.1244813E+04  0.7818608E-02  0.9074512E-01
         -1   -1    0    0    0  501 -0.00000000000E+00  0.00000000000E+00  0.23494021952E+03  0.23494021952E+03  0.00000000000E+00 0.  1.
          1   -1    0    0  501    0  0.00000000000E+00 -0.00000000000E+00 -0.16488866952E+04  0.16488866952E+04  0.00000000000E+00 0. -1.
         23    2    1    2    0    0 -0.91900571184E+02 -0.45653657516E+02 -0.76461187131E+03  0.77688559909E+03  0.91596664209E+02 0.  0.
        254    2    1    2    0    0  0.91900571184E+02  0.45653657516E+02 -0.64933460435E+03  0.11069413156E+04  0.89059175628E+03 0.  0.
        -24    2    4    4    0    0  0.36965866990E+03 -0.10104865291E+03 -0.67684860135E+03  0.78195678951E+03  0.80461351047E+02 0.  0.
         24    2    4    4    0    0 -0.27775809872E+03  0.14670231043E+03  0.27513997000E+02  0.32498452610E+03  0.78656168764E+02 0.  0.
         13    1    3    3    0    0 -0.17529241798E+02  0.20229577099E+02 -0.32897317317E+03  0.33006038655E+03  0.00000000000E+00 0.  1.
        -13    1    3    3    0    0 -0.74371329386E+02 -0.65883234615E+02 -0.43563869815E+03  0.44682521254E+03  0.00000000000E+00 0. -1.
          2    1    6    6  502    0 -0.12138771877E+02  0.30271403423E+02 -0.55698914596E+01  0.33086724509E+02  0.00000000000E+00 0. -1.
          1    1    5    5  503    0  0.12791763649E+03 -0.70431476226E+01 -0.27926123621E+03  0.30724479768E+03  0.00000000000E+00 0. -1.
         -2    1    5    5    0  503  0.24174103341E+03 -0.94005505290E+02 -0.39758736514E+03  0.47471199182E+03  0.00000000000E+00 0.  1.
         -1    1    6    6    0  502 -0.26561932684E+03  0.11643090701E+03  0.33083888460E+02  0.29189780159E+03  0.00000000000E+00 0.  1.
<mgrwt>
<rscale>  0 0.12448129E+04</rscale>
<asrwt>0</asrwt>
<pdfrwt beam="1">  1        1 0.25367487E+00 0.12448129E+04</pdfrwt>
<pdfrwt beam="2">  1       -1 0.36144650E-01 0.12448129E+04</pdfrwt>
<totfact> 0.37321822E+01</totfact>
</mgrwt>
</event>
<event>
12    1  0.1489233E-007  0.1616911E+04  0.7818608E-02  0.8810226E-01
         -2   -1    0    0    0  501 -0.00000000000E+00  0.00000000000E+00  0.66585499286E+03  0.66585499286E+03  0.00000000000E+00 0.  1.
          2   -1    0    0  501    0  0.00000000000E+00 -0.00000000000E+00 -0.98159574036E+03  0.98159574036E+03  0.00000000000E+00 0. -1.
         23    2    1    2    0    0 -0.81391263559E+01  0.30381663141E+02  0.45492359178E+03  0.46310315033E+03  0.80745047261E+02 0.  0.
        254    2    1    2    0    0  0.81391263559E+01 -0.30381663141E+02 -0.77066433928E+03  0.11843475829E+04  0.89875824471E+03 0.  0.
        -24    2    4    4    0    0 -0.19590676932E+03 -0.23392469744E+03 -0.82234126857E+03  0.88077102382E+03  0.80076264167E+02 0.  0.
         24    2    4    4    0    0  0.20404589567E+03  0.20354303430E+03  0.51676929285E+02  0.30357655907E+03  0.80148161824E+02 0.  0.
         13    1    3    3    0    0 -0.42716040657E+02  0.13629298411E+02  0.17963508306E+03  0.18514637714E+03  0.00000000000E+00 0. -1.
        -13    1    3    3    0    0  0.34576914302E+02  0.16752364730E+02  0.27528850872E+03  0.27795677319E+03  0.00000000000E+00 0.  1.
          4    1    6    6  502    0  0.16321667999E+03  0.15810862433E+03  0.73312968539E+02  0.23877356024E+03  0.00000000000E+00 0. -1.
          1    1    5    5  503    0 -0.66749633088E+02 -0.77162366382E+02 -0.38951244012E+03  0.40265305824E+03  0.00000000000E+00 0. -1.
         -2    1    5    5    0  503 -0.12915713623E+03 -0.15676233106E+03 -0.43282882844E+03  0.47811796558E+03  0.00000000000E+00 0.  1.
         -3    1    6    6    0  502  0.40829215680E+02  0.45434409969E+02 -0.21636039254E+02  0.64802998826E+02  0.00000000000E+00 0.  1.
<mgrwt>
<rscale>  0 0.16169112E+04</rscale>
<asrwt>0</asrwt>
<pdfrwt beam="1">  1        2 0.15101473E+00 0.16169112E+04</pdfrwt>
<pdfrwt beam="2">  1       -2 0.10243923E+00 0.16169112E+04</pdfrwt>
<totfact> 0.19339147E+01</totfact>
</mgrwt>
</event>
<event>
12    1  0.1489233E-007  0.3394495E+04  0.7818608E-02  0.8139259E-01
          2   -1    0    0  501    0  0.00000000000E+00  0.00000000000E+00  0.16298580512E+04  0.16298580512E+04  0.00000000000E+00 0.  1.
         -2   -1    0    0    0  501 -0.00000000000E+00 -0.00000000000E+00 -0.17674230832E+04  0.17674230832E+04  0.00000000000E+00 0. -1.
         23    2    1    2    0    0 -0.10179792510E+04 -0.11540473117E+04 -0.41122901989E+03  0.15954694528E+04  0.91140084679E+02 0.  0.
        254    2    1    2    0    0  0.10179792510E+04  0.11540473117E+04  0.27366398781E+03  0.18018116816E+04  0.89639634352E+03 0.  0.
        -24    2    4    4    0    0 -0.12733355898E+03  0.16815079203E+02  0.86988960610E+02  0.17508224177E+03  0.81179615572E+02 0.  0.
         24    2    4    4    0    0  0.11453128100E+04  0.11372322325E+04  0.18667502720E+03  0.16267294398E+04  0.79765414475E+02 0.  0.
         13    1    3    3    0    0 -0.83911641340E+03 -0.91034173954E+03 -0.30548060390E+03  0.12752085466E+04  0.00000000000E+00 0. -1.
        -13    1    3    3    0    0 -0.17886283761E+03 -0.24370557212E+03 -0.10574841599E+03  0.32026090621E+03  0.00000000000E+00 0.  1.
          4    1    6    6  502    0  0.61332031487E+03  0.63192368582E+03  0.65340972123E+02  0.88303952119E+03  0.00000000000E+00 0. -1.
          3    1    5    5  503    0 -0.54132676387E+02 -0.29764716302E+02  0.54673567267E+02  0.82495357124E+02  0.00000000000E+00 0. -1.
         -4    1    5    5    0  503 -0.73200882595E+02  0.46579795505E+02  0.32315393344E+02  0.92586884648E+02  0.00000000000E+00 0.  1.
         -3    1    6    6    0  502  0.53199249511E+03  0.50530854663E+03  0.12133405508E+03  0.74368991863E+03  0.00000000000E+00 0.  1.
<mgrwt>
<rscale>  0 0.33944948E+04</rscale>
<asrwt>0</asrwt>
<pdfrwt beam="1">  1        2 0.25074739E+00 0.33944948E+04</pdfrwt>
<pdfrwt beam="2">  1       -2 0.27191124E+00 0.33944948E+04</pdfrwt>
<totfact> 0.41963622E-01</totfact>
</mgrwt>
</event>
<event>
12    1  0.1489233E-007  0.1701135E+04  0.7818608E-02  0.8760717E-01
         -2   -1    0    0    0  501 -0.00000000000E+00  0.00000000000E+00  0.58551819622E+03  0.58551819622E+03  0.00000000000E+00 0.  1.
          2   -1    0    0  501    0  0.00000000000E+00 -0.00000000000E+00 -0.12355977430E+04  0.12355977430E+04  0.00000000000E+00 0. -1.
         23    2    1    2    0    0 -0.55712388419E+03 -0.22124948236E+03 -0.12480128053E+03  0.61941818297E+03  0.93622486562E+02 0.  0.
        254    2    1    2    0    0  0.55712388419E+03  0.22124948236E+03 -0.52527826627E+03  0.12016977563E+04  0.89934525329E+03 0.  0.
        -24    2    4    4    0    0 -0.17056614536E+03 -0.68007498035E+02  0.72361130841E+02  0.21334893676E+03  0.81017318060E+02 0.  0.
         24    2    4    4    0    0  0.72769002955E+03  0.28925698039E+03 -0.59763939711E+03  0.98834881950E+03  0.80362679286E+02 0.  0.
         13    1    3    3    0    0 -0.53208192361E+03 -0.20993564100E+03 -0.13876971920E+03  0.58859254307E+03  0.00000000000E+00 0. -1.
        -13    1    3    3    0    0 -0.25041960577E+02 -0.11313841360E+02  0.13968438671E+02  0.30825639893E+02  0.00000000000E+00 0.  1.
          2    1    6    6  502    0  0.46883566888E+03  0.14551211788E+03 -0.38352493977E+03  0.62295428427E+03  0.00000000000E+00 0. -1.
          3    1    5    5  503    0 -0.14833805343E+03 -0.51365260444E+02  0.89516520544E+02  0.18070909088E+03  0.00000000000E+00 0. -1.
         -4    1    5    5    0  503 -0.22228091931E+02 -0.16642237591E+02 -0.17155389704E+02  0.32639845876E+02  0.00000000000E+00 0.  1.
         -3    1    6    6    0  502  0.25885436068E+03  0.14374486251E+03 -0.21411445734E+03  0.36539453524E+03  0.00000000000E+00 0.  1.
<mgrwt>
<rscale>  0 0.17011349E+04</rscale>
<asrwt>0</asrwt>
<pdfrwt beam="1">  1        2 0.19009196E+00 0.17011349E+04</pdfrwt>
<pdfrwt beam="2">  1       -2 0.90079723E-01 0.17011349E+04</pdfrwt>
<totfact> 0.18103391E+01</totfact>
</mgrwt>
</event>
<event>
12    1  0.1489233E-007  0.1947140E+04  0.7818608E-02  0.8631741E-01
         -2   -1    0    0    0  501 -0.00000000000E+00  0.00000000000E+00  0.11320384364E+04  0.11320384364E+04  0.00000000000E+00 0.  1.
          2   -1    0    0  501    0  0.00000000000E+00 -0.00000000000E+00 -0.83728486126E+03  0.83728486126E+03  0.00000000000E+00 0. -1.
         23    2    1    2    0    0  0.41388125750E+03  0.46817801375E+03  0.54855701388E+03  0.83832426106E+03  0.10669780383E+03 0.  0.
        254    2    1    2    0    0 -0.41388125750E+03 -0.46817801375E+03 -0.25380343879E+03  0.11309990366E+04  0.90788451209E+03 0.  0.
        -24    2    4    4    0    0  0.90814352248E+02 -0.18284900207E+02  0.25362377039E+03  0.28153668184E+03  0.79726420740E+02 0.  0.
         24    2    4    4    0    0 -0.50469560974E+03 -0.44989311354E+03 -0.50742720918E+03  0.84946235472E+03  0.83561039801E+02 0.  0.
         13    1    3    3    0    0  0.26108547738E+03  0.36508632199E+03  0.40743634478E+03  0.60618316048E+03  0.00000000000E+00 0.  1.
        -13    1    3    3    0    0  0.15279578012E+03  0.10309169176E+03  0.14112066909E+03  0.23214110058E+03  0.00000000000E+00 0. -1.
          4    1    6    6  502    0 -0.49054605933E+03 -0.42004469399E+03 -0.46553197806E+03  0.79611117558E+03  0.00000000000E+00 0. -1.
          1    1    5    5  503    0  0.10256320557E+03 -0.27323142277E+02  0.23397005706E+03  0.25691974008E+03  0.00000000000E+00 0. -1.
         -2    1    5    5    0  503 -0.11748853320E+02  0.90382420706E+01  0.19653713327E+02  0.24616941759E+02  0.00000000000E+00 0.  1.
         -3    1    6    6    0  502 -0.14149550413E+02 -0.29848419551E+02 -0.41895231112E+02  0.53351179148E+02  0.00000000000E+00 0.  1.
<mgrwt>
<rscale>  0 0.19471401E+04</rscale>
<asrwt>0</asrwt>
<pdfrwt beam="1">  1        2 0.12881306E+00 0.19471401E+04</pdfrwt>
<pdfrwt beam="2">  1       -2 0.17415976E+00 0.19471401E+04</pdfrwt>
<totfact> 0.60178727E+00</totfact>
</mgrwt>
</event>
<event>
12    1  0.1489233E-007  0.1919794E+04  0.7818608E-02  0.8645066E-01
         -1   -1    0    0    0  501 -0.00000000000E+00  0.00000000000E+00  0.53264296691E+03  0.53264296691E+03  0.00000000000E+00 0.  1.
          1   -1    0    0  501    0  0.00000000000E+00 -0.00000000000E+00 -0.17298688917E+04  0.17298688917E+04  0.00000000000E+00 0. -1.
         23    2    1    2    0    0 -0.12455434211E+03 -0.12539643852E+03 -0.13329206621E+04  0.13476834247E+04  0.91296609212E+02 0.  0.
        254    2    1    2    0    0  0.12455434211E+03  0.12539643852E+03  0.13569473729E+03  0.91482843392E+03  0.88727670478E+03 0.  0.
        -24    2    4    4    0    0  0.15522732931E+03  0.32217433324E+03 -0.27044345259E+03  0.45529384046E+03  0.79126451659E+02 0.  0.
         24    2    4    4    0    0 -0.30672987194E+02 -0.19677789472E+03  0.40613818988E+03  0.45953459346E+03  0.81002724112E+02 0.  0.
         13    1    3    3    0    0 -0.10646632087E+03 -0.56244285610E+02 -0.99682559065E+03  0.10040715887E+04  0.00000000000E+00 0.  1.
        -13    1    3    3    0    0 -0.18088021238E+02 -0.69152152908E+02 -0.33609507141E+03  0.34361183592E+03  0.00000000000E+00 0. -1.
          4    1    6    6  502    0 -0.15180746497E+02 -0.19690974183E+03  0.35667754163E+03  0.40770426806E+03  0.00000000000E+00 0. -1.
          3    1    5    5  503    0  0.11447998326E+03  0.29657492685E+03 -0.22913299814E+03  0.39187279140E+03  0.00000000000E+00 0. -1.
         -4    1    5    5    0  503  0.40747346044E+02  0.25599406388E+02 -0.41310454449E+02  0.63421049060E+02  0.00000000000E+00 0.  1.
         -3    1    6    6    0  502 -0.15492240697E+02  0.13184711438E+00  0.49460648248E+02  0.51830325396E+02  0.00000000000E+00 0.  1.
<mgrwt>
<rscale>  0 0.19197943E+04</rscale>
<asrwt>0</asrwt>
<pdfrwt beam="1">  1        1 0.26613368E+00 0.19197943E+04</pdfrwt>
<pdfrwt beam="2">  1       -1 0.81945071E-01 0.19197943E+04</pdfrwt>
<totfact> 0.62930822E+00</totfact>
</mgrwt>
</event>
<event>
12    1  0.1489233E-007  0.2841547E+04  0.7818608E-02  0.8290485E-01
         -1   -1    0    0    0  501 -0.00000000000E+00  0.00000000000E+00  0.15276015972E+04  0.15276015972E+04  0.00000000000E+00 0.  1.
          1   -1    0    0  501    0  0.00000000000E+00 -0.00000000000E+00 -0.13214158290E+04  0.13214158290E+04  0.00000000000E+00 0. -1.
         23    2    1    2    0    0 -0.31377841373E+03  0.32950916520E+03 -0.10983824965E+04  0.11923835565E+04  0.91111218988E+02 0.  0.
        254    2    1    2    0    0  0.31377841373E+03 -0.32950916520E+03  0.13045682647E+04  0.16566338698E+04  0.91405920941E+03 0.  0.
        -24    2    4    4    0    0 -0.20043126063E+03  0.18804155880E+03  0.35407485328E+03  0.45572767703E+03  0.82379583712E+02 0.  0.
         24    2    4    4    0    0  0.51420967436E+03 -0.51755072400E+03  0.95049341146E+03  0.12009061928E+04  0.80421498830E+02 0.  0.
         13    1    3    3    0    0 -0.26471822363E+03  0.30859171940E+03 -0.91205583578E+03  0.99857420094E+03  0.00000000000E+00 0. -1.
        -13    1    3    3    0    0 -0.49060190098E+02  0.20917445802E+02 -0.18632666075E+03  0.19380935555E+03  0.00000000000E+00 0.  1.
          2    1    6    6  502    0  0.18936349131E+03 -0.18716599164E+03  0.41165391317E+03  0.49025359203E+03  0.00000000000E+00 0. -1.
          1    1    5    5  503    0 -0.11162540280E+03  0.64558339361E+02  0.11736728080E+03  0.17436481392E+03  0.00000000000E+00 0. -1.
         -2    1    5    5    0  503 -0.88805857833E+02  0.12348321944E+03  0.23670757249E+03  0.28136286312E+03  0.00000000000E+00 0.  1.
         -1    1    6    6    0  502  0.32484618304E+03 -0.33038473235E+03  0.53883949829E+03  0.71065260073E+03  0.00000000000E+00 0.  1.
<mgrwt>
<rscale>  0 0.28415467E+04</rscale>
<asrwt>0</asrwt>
<pdfrwt beam="1">  1        1 0.20329474E+00 0.28415467E+04</pdfrwt>
<pdfrwt beam="2">  1       -1 0.23501563E+00 0.28415467E+04</pdfrwt>
<totfact> 0.65873210E-01</totfact>
</mgrwt>
</event>
<event>
12    1  0.1489233E-007  0.1915767E+04  0.7818608E-02  0.8647047E-01
          2   -1    0    0  501    0  0.00000000000E+00  0.00000000000E+00  0.18910851981E+04  0.18910851981E+04  0.00000000000E+00 0. -1.
         -2   -1    0    0    0  501 -0.00000000000E+00 -0.00000000000E+00 -0.48519298515E+03  0.48519298515E+03  0.00000000000E+00 0.  1.
         23    2    1    2    0    0 -0.26465122558E+03  0.51793449495E+03 -0.38975471092E+02  0.59020350146E+03  0.92329158581E+02 0.  0.
        254    2    1    2    0    0  0.26465122558E+03 -0.51793449495E+03  0.14448676841E+04  0.17860746818E+04  0.87414171181E+03 0.  0.
        -24    2    4    4    0    0  0.10844005959E+03  0.20205489462E+03  0.67583055615E+03  0.71810683387E+03  0.79655867683E+02 0.  0.
         24    2    4    4    0    0  0.15621116599E+03 -0.71998938957E+03  0.76903712792E+03  0.10679678480E+04  0.79690467938E+02 0.  0.
         13    1    3    3    0    0  0.42138266792E+01  0.42355428479E+02 -0.12208117216E+01  0.42582027173E+02  0.00000000000E+00 0. -1.
        -13    1    3    3    0    0 -0.26886505226E+03  0.47557906648E+03 -0.37754659370E+02  0.54762147429E+03  0.00000000000E+00 0.  1.
          4    1    6    6  502    0  0.51999708159E+02 -0.28489002160E+03  0.35745677232E+03  0.46004525662E+03  0.00000000000E+00 0. -1.
          3    1    5    5  503    0  0.50432453756E+02  0.28998017181E+02  0.12619806263E+03  0.13896139177E+03  0.00000000000E+00 0. -1.
         -4    1    5    5    0  503  0.58007605837E+02  0.17305687744E+03  0.54963249352E+03  0.57914544209E+03  0.00000000000E+00 0.  1.
         -3    1    6    6    0  502  0.10421145783E+03 -0.43509936797E+03  0.41158035560E+03  0.60792259134E+03  0.00000000000E+00 0.  1.
<mgrwt>
<rscale>  0 0.19157675E+04</rscale>
<asrwt>0</asrwt>
<pdfrwt beam="1">  1        2 0.29093618E+00 0.19157675E+04</pdfrwt>
<pdfrwt beam="2">  1       -2 0.74645075E-01 0.19157675E+04</pdfrwt>
<totfact> 0.11592039E+01</totfact>
</mgrwt>
</event>
<event>
12    1  0.1489233E-007  0.3951959E+04  0.7818608E-02  0.8014309E-01
         -1   -1    0    0    0  501 -0.00000000000E+00  0.00000000000E+00  0.21551023395E+04  0.21551023395E+04  0.00000000000E+00 0.  1.
          1   -1    0    0  501    0  0.00000000000E+00 -0.00000000000E+00 -0.18117449860E+04  0.18117449860E+04  0.00000000000E+00 0. -1.
         23    2    1    2    0    0  0.57243571704E+03  0.17558764380E+04 -0.15585002291E+03  0.18555666501E+04  0.89742116052E+02 0.  0.
        254    2    1    2    0    0 -0.57243571704E+03 -0.17558764380E+04  0.49920737640E+03  0.21112806755E+04  0.89303604086E+03 0.  0.
        -24    2    4    4    0    0 -0.38606343669E+03 -0.18001452361E+04  0.42451543889E+03  0.18910571531E+04  0.79472954173E+02 0.  0.
         24    2    4    4    0    0 -0.18637228035E+03  0.44268798052E+02  0.74691937513E+02  0.22022352235E+03  0.78899688879E+02 0.  0.
         11    1    3    3    0    0  0.12488412316E+03  0.31009040286E+03 -0.20537094902E+01  0.33429974556E+03  0.00000000000E+00 0.  1.
        -11    1    3    3    0    0  0.44755159387E+03  0.14457860352E+04 -0.15379631342E+03  0.15212669045E+04  0.00000000000E+00 0. -1.
          2    1    6    6  502    0 -0.62528746252E+02 -0.18179674506E+02  0.58480227682E+01  0.65379997272E+02  0.00000000000E+00 0. -1.
          1    1    5    5  503    0 -0.20492827613E+03 -0.78095891638E+03  0.20105915811E+03  0.83205601524E+03  0.00000000000E+00 0. -1.
         -4    1    5    5    0  503 -0.18113516056E+03 -0.10191863197E+04  0.22345628078E+03  0.10590011379E+04  0.00000000000E+00 0.  1.
         -1    1    6    6    0  502 -0.12384353410E+03  0.62448472558E+02  0.68843914745E+02  0.15484352508E+03  0.00000000000E+00 0.  1.
<mgrwt>
<rscale>  0 0.39519594E+04</rscale>
<asrwt>0</asrwt>
<pdfrwt beam="1">  1        1 0.27873000E+00 0.39519594E+04</pdfrwt>
<pdfrwt beam="2">  1       -1 0.33155421E+00 0.39519594E+04</pdfrwt>
<totfact> 0.64608456E-02</totfact>
</mgrwt>
</event>
<event>
12    1  0.1702386E-007  0.1672244E+04  0.7818608E-02  0.8777355E-01
          2   -1    0    0  501    0  0.00000000000E+00  0.00000000000E+00  0.26124477816E+04  0.26124477816E+04  0.00000000000E+00 0. -1.
         -2   -1    0    0    0  501 -0.00000000000E+00 -0.00000000000E+00 -0.26760342858E+03  0.26760342858E+03  0.00000000000E+00 0.  1.
         23    2    1    2    0    0  0.54388966083E+03 -0.20164473120E+03  0.66752027555E+03  0.88928303769E+03  0.93618599020E+02 0.  0.
        254    2    1    2    0    0 -0.54388966083E+03  0.20164473120E+03  0.16773240775E+04  0.19907681725E+04  0.90181222820E+03 0.  0.
        -24    2    4    4    0    0 -0.72657106238E+03  0.14529687031E+03  0.81661924169E+03  0.11054575499E+04  0.78439272623E+02 0.  0.
         24    2    4    4    0    0  0.18268140156E+03  0.56347860884E+02  0.86070483576E+03  0.88531062258E+03  0.80090625221E+02 0.  0.
         11    1    3    3    0    0  0.28912827646E+02 -0.17108384578E+02  0.78664950414E+02  0.85538429077E+02  0.00000000000E+00 0.  1.
        -11    1    3    3    0    0  0.51497683318E+03 -0.18453634662E+03  0.58885532514E+03  0.80374460861E+03  0.00000000000E+00 0. -1.
          2    1    6    6  502    0  0.13269522151E-03  0.20652121320E+02  0.69349084442E+02  0.72358866962E+02  0.00000000000E+00 0. -1.
          3    1    5    5  503    0 -0.73263116245E+02  0.37047554736E+02  0.10665017134E+03  0.13458924385E+03  0.00000000000E+00 0. -1.
         -4    1    5    5    0  503 -0.65330794614E+03  0.10824931558E+03  0.70996907035E+03  0.97086830604E+03  0.00000000000E+00 0.  1.
         -1    1    6    6    0  502  0.18268126886E+03  0.35695739564E+02  0.79135575132E+03  0.81295175562E+03  0.00000000000E+00 0.  1.
<mgrwt>
<rscale>  0 0.16722440E+04</rscale>
<asrwt>0</asrwt>
<pdfrwt beam="1">  1        2 0.40191503E+00 0.16722440E+04</pdfrwt>
<pdfrwt beam="2">  1       -2 0.41169760E-01 0.16722440E+04</pdfrwt>
<totfact> 0.15984896E+01</totfact>
</mgrwt>
</event>
<event>
12    1  0.1489233E-007  0.2918271E+04  0.7818608E-02  0.8267462E-01
          2   -1    0    0  501    0  0.00000000000E+00  0.00000000000E+00  0.32547225331E+04  0.32547225331E+04  0.00000000000E+00 0. -1.
         -2   -1    0    0    0  501 -0.00000000000E+00 -0.00000000000E+00 -0.65415004004E+03  0.65415004004E+03  0.00000000000E+00 0.  1.
         23    2    1    2    0    0 -0.53904838632E+03  0.48842959941E+03 -0.29854291423E+03  0.79151888554E+03  0.90761435428E+02 0.  0.
        254    2    1    2    0    0  0.53904838632E+03 -0.48842959941E+03  0.28991154073E+04  0.31173536876E+04  0.88537406352E+03 0.  0.
        -24    2    4    4    0    0  0.17179396439E+03  0.25268236371E+02  0.20353949241E+04  0.20443307423E+04  0.79397965747E+02 0.  0.
         24    2    4    4    0    0  0.36725442194E+03 -0.51369783578E+03  0.86372048317E+03  0.10730229453E+04  0.81264328413E+02 0.  0.
         11    1    3    3    0    0 -0.58880540600E+01  0.27449376841E+02 -0.82198835567E+01  0.29252417938E+02  0.00000000000E+00 0. -1.
        -11    1    3    3    0    0 -0.53316033226E+03  0.46098022257E+03 -0.29032303068E+03  0.76226646761E+03  0.00000000000E+00 0.  1.
          2    1    6    6  502    0  0.34672704871E+03 -0.49263039058E+03  0.84638513496E+03  0.10388802360E+04  0.00000000000E+00 0. -1.
          3    1    5    5  503    0  0.15539224745E+03  0.47038738772E+02  0.18176083787E+04  0.18248450925E+04  0.00000000000E+00 0. -1.
         -4    1    5    5    0  503  0.16401716935E+02 -0.21770502401E+02  0.21778654546E+03  0.21948564982E+03  0.00000000000E+00 0.  1.
         -1    1    6    6    0  502  0.20527373221E+02 -0.21067445202E+02  0.17335348208E+02  0.34142709268E+02  0.00000000000E+00 0.  1.
<mgrwt>
<rscale>  0 0.29182713E+04</rscale>
<asrwt>0</asrwt>
<pdfrwt beam="1">  1        2 0.50072653E+00 0.29182713E+04</pdfrwt>
<pdfrwt beam="2">  1       -2 0.10063847E+00 0.29182713E+04</pdfrwt>
<totfact> 0.83647705E-01</totfact>
</mgrwt>
</event>
<event>
12    1  0.1489233E-007  0.1747808E+04  0.7818608E-02  0.8734558E-01
          2   -1    0    0  501    0  0.00000000000E+00  0.00000000000E+00  0.25443221212E+04  0.25443221212E+04  0.00000000000E+00 0. -1.
         -2   -1    0    0    0  501 -0.00000000000E+00 -0.00000000000E+00 -0.30016159100E+03  0.30016159100E+03  0.00000000000E+00 0.  1.
         23    2    1    2    0    0 -0.49205411498E+03 -0.23945450313E+03  0.29628737269E+03  0.62884842878E+03  0.90600375429E+02 0.  0.
        254    2    1    2    0    0  0.49205411498E+03  0.23945450313E+03  0.19478731575E+04  0.22156352834E+04  0.90298070869E+03 0.  0.
        -24    2    4    4    0    0  0.49825031207E+03  0.19678532653E+03  0.42101605444E+03  0.68606230579E+03  0.80306482345E+02 0.  0.
         24    2    4    4    0    0 -0.61961970948E+01  0.42669176595E+02  0.15268571031E+04  0.15295729777E+04  0.80261006935E+02 0.  0.
         11    1    3    3    0    0 -0.52575340142E+01 -0.20022811091E+02  0.11608478641E+02  0.23734182190E+02  0.00000000000E+00 0. -1.
        -11    1    3    3    0    0 -0.48679658096E+03 -0.21943169204E+03  0.28467889405E+03  0.60511424659E+03  0.00000000000E+00 0.  1.
          2    1    6    6  502    0 -0.13148248019E+02  0.18602412824E+02  0.14041569909E+04  0.14043417608E+04  0.00000000000E+00 0. -1.
          1    1    5    5  503    0  0.48901536082E+03  0.20410309877E+03  0.41232944893E+03  0.67142361628E+03  0.00000000000E+00 0. -1.
         -2    1    5    5    0  503  0.92349512503E+01 -0.73177722373E+01  0.86866055161E+01  0.14638689508E+02  0.00000000000E+00 0.  1.
         -1    1    6    6    0  502  0.69520509244E+01  0.24066763771E+02  0.12270011221E+03  0.12523121683E+03  0.00000000000E+00 0.  1.
<mgrwt>
<rscale>  0 0.17478075E+04</rscale>
<asrwt>0</asrwt>
<pdfrwt beam="1">  1        2 0.39143416E+00 0.17478075E+04</pdfrwt>
<pdfrwt beam="2">  1       -2 0.46178708E-01 0.17478075E+04</pdfrwt>
<totfact> 0.13849333E+01</totfact>
</mgrwt>
</event>
<event>
12    1  0.1489233E-007  0.1971064E+04  0.7818608E-02  0.8620270E-01
          2   -1    0    0  501    0  0.00000000000E+00  0.00000000000E+00  0.14912554388E+04  0.14912554388E+04  0.00000000000E+00 0.  1.
         -2   -1    0    0    0  501 -0.00000000000E+00 -0.00000000000E+00 -0.65131252655E+03  0.65131252655E+03  0.00000000000E+00 0. -1.
         23    2    1    2    0    0  0.10165603493E+03  0.10186739909E+03  0.11533064724E+04  0.11657784169E+04  0.90623294826E+02 0.  0.
        254    2    1    2    0    0 -0.10165603493E+03 -0.10186739909E+03 -0.31336356010E+03  0.97678954850E+03  0.91389834491E+03 0.  0.
        -24    2    4    4    0    0  0.27346044704E+03  0.21161007094E+03  0.54503015540E+02  0.35989290657E+03  0.83623485215E+02 0.  0.
         24    2    4    4    0    0 -0.37511648197E+03 -0.31347747004E+03 -0.36786657564E+03  0.61689664193E+03  0.79089506759E+02 0.  0.
         11    1    3    3    0    0  0.82990530042E+02  0.30477829608E+02  0.44932124472E+03  0.45793657545E+03  0.00000000000E+00 0. -1.
        -11    1    3    3    0    0  0.18665504889E+02  0.71389569487E+02  0.70398522768E+03  0.70784184144E+03  0.00000000000E+00 0.  1.
          2    1    6    6  502    0 -0.39415978960E+02 -0.50658022247E+02 -0.79554878340E+02  0.10221953474E+03  0.00000000000E+00 0. -1.
          3    1    5    5  503    0  0.13768428928E+03  0.15318741035E+03  0.50295016106E+02  0.21202107171E+03  0.00000000000E+00 0. -1.
         -4    1    5    5    0  503  0.13577615776E+03  0.58422660593E+02  0.42079994344E+01  0.14787183486E+03  0.00000000000E+00 0.  1.
         -1    1    6    6    0  502 -0.33570050301E+03 -0.26281944779E+03 -0.28831169730E+03  0.51467710718E+03  0.00000000000E+00 0.  1.
<mgrwt>
<rscale>  0 0.19710640E+04</rscale>
<asrwt>0</asrwt>
<pdfrwt beam="1">  1        2 0.22942391E+00 0.19710640E+04</pdfrwt>
<pdfrwt beam="2">  1       -2 0.10020193E+00 0.19710640E+04</pdfrwt>
<totfact> 0.98299376E+00</totfact>
</mgrwt>
</event>
<event>
12    1  0.1489233E-007  0.3567250E+04  0.7818608E-02  0.8098035E-01
          1   -1    0    0  501    0  0.00000000000E+00  0.00000000000E+00  0.29235484096E+04  0.29235484096E+04  0.00000000000E+00 0.  1.
         -1   -1    0    0    0  501 -0.00000000000E+00 -0.00000000000E+00 -0.10881701770E+04  0.10881701770E+04  0.00000000000E+00 0. -1.
         23    2    1    2    0    0  0.38615471236E+03 -0.16085021558E+04  0.62010881100E+03  0.17689428479E+04  0.90715018142E+02 0.  0.
        254    2    1    2    0    0 -0.38615471236E+03  0.16085021558E+04  0.12152694217E+04  0.22427757386E+04  0.90375251000E+03 0.  0.
        -24    2    4    4    0    0 -0.60326853323E+02  0.60326861385E+03 -0.24186094253E+02  0.61210237259E+03  0.80696949627E+02 0.  0.
         24    2    4    4    0    0 -0.32582785903E+03  0.10052335420E+04  0.12394555159E+04  0.16306733660E+04  0.78659920742E+02 0.  0.
         11    1    3    3    0    0  0.71135568692E+02 -0.39601645277E+03  0.18436077126E+03  0.44258128517E+03  0.00000000000E+00 0.  1.
        -11    1    3    3    0    0  0.31501914367E+03 -0.12124857031E+04  0.43574803974E+03  0.13263615628E+04  0.00000000000E+00 0. -1.
          4    1    6    6  502    0 -0.15900272020E+03  0.55809118722E+03  0.62887297318E+03  0.85570371898E+03  0.00000000000E+00 0. -1.
          1    1    5    5  503    0  0.15012709596E+01  0.26923638966E+02 -0.17993207256E+02  0.32417459139E+02  0.00000000000E+00 0. -1.
         -2    1    5    5    0  503 -0.61828124283E+02  0.57634497489E+03 -0.61928869974E+01  0.57968491345E+03  0.00000000000E+00 0.  1.
         -3    1    6    6    0  502 -0.16682513883E+03  0.44714235478E+03  0.61058254274E+03  0.77496964707E+03  0.00000000000E+00 0.  1.
<mgrwt>
<rscale>  0 0.35672500E+04</rscale>
<asrwt>0</asrwt>
<pdfrwt beam="1">  1        1 0.44977668E+00 0.35672500E+04</pdfrwt>
<pdfrwt beam="2">  1       -1 0.16741080E+00 0.35672500E+04</pdfrwt>
<totfact> 0.14163022E-01</totfact>
</mgrwt>
</event>
<event>
12    1  0.1489233E-007  0.1576509E+04  0.7818608E-02  0.8835111E-01
         -2   -1    0    0    0  501 -0.00000000000E+00  0.00000000000E+00  0.17336550634E+03  0.17336550634E+03  0.00000000000E+00 0. -1.
          2   -1    0    0  501    0  0.00000000000E+00 -0.00000000000E+00 -0.35840199758E+04  0.35840199758E+04  0.00000000000E+00 0.  1.
         23    2    1    2    0    0  0.58009623060E+02 -0.32413290762E+03 -0.17518869900E+03  0.38346365809E+03  0.89028302529E+02 0.  0.
        254    2    1    2    0    0 -0.58009623060E+02  0.32413290762E+03 -0.32354657704E+04  0.33739218240E+04  0.89815503384E+03 0.  0.
        -24    2    4    4    0    0 -0.37107623883E+03  0.12298606657E+03 -0.26204597032E+04  0.26506654641E+04  0.79969985972E+02 0.  0.
         24    2    4    4    0    0  0.31306661577E+03  0.20114684105E+03 -0.61500606721E+03  0.72325635994E+03  0.79978384101E+02 0.  0.
         13    1    3    3    0    0  0.13848274862E+01 -0.20555249004E+03 -0.77327597656E+02  0.21962081246E+03  0.00000000000E+00 0. -1.
        -13    1    3    3    0    0  0.56624795573E+02 -0.11858041758E+03 -0.97861101345E+02  0.16384284563E+03  0.00000000000E+00 0.  1.
          2    1    6    6  502    0  0.25963334807E+03  0.19777622697E+03 -0.51232175836E+03  0.60745246355E+03  0.00000000000E+00 0. -1.
          3    1    5    5  503    0 -0.22108377696E+03  0.34119759362E+02 -0.15639846852E+04  0.15799019874E+04  0.00000000000E+00 0. -1.
         -4    1    5    5    0  503 -0.14999246186E+03  0.88866307205E+02 -0.10564750180E+04  0.10707634766E+04  0.00000000000E+00 0.  1.
         -1    1    6    6    0  502  0.53433267693E+02  0.33706140789E+01 -0.10268430885E+03  0.11580389639E+03  0.00000000000E+00 0.  1.
<mgrwt>
<rscale>  0 0.15765094E+04</rscale>
<asrwt>0</asrwt>
<pdfrwt beam="1">  1        2 0.55138767E+00 0.15765094E+04</pdfrwt>
<pdfrwt beam="2">  1       -2 0.26671617E-01 0.15765094E+04</pdfrwt>
<totfact> 0.88004187E+00</totfact>
</mgrwt>
</event>
<event>
12    1  0.1489233E-007  0.2067881E+04  0.7818608E-02  0.8575526E-01
          2   -1    0    0  501    0  0.00000000000E+00  0.00000000000E+00  0.61336020117E+03  0.61336020117E+03  0.00000000000E+00 0. -1.
         -2   -1    0    0    0  501 -0.00000000000E+00 -0.00000000000E+00 -0.17429119354E+04  0.17429119354E+04  0.00000000000E+00 0.  1.
         23    2    1    2    0    0  0.70287311610E+03 -0.23965622720E+03 -0.88276921482E+03  0.11571686287E+04  0.91060551347E+02 0.  0.
        254    2    1    2    0    0 -0.70287311610E+03  0.23965622720E+03 -0.24678251941E+03  0.11991035079E+04  0.90856033711E+03 0.  0.
        -24    2    4    4    0    0  0.19105138170E+03  0.17512290531E+03 -0.84932783060E+02  0.28419270372E+03  0.79895261407E+02 0.  0.
         24    2    4    4    0    0 -0.89392449780E+03  0.64533321887E+02 -0.16184973635E+03  0.91491080417E+03  0.87183054790E+02 0.  0.
         11    1    3    3    0    0  0.70091586061E+03 -0.24226858691E+03 -0.86627711181E+03  0.11403565873E+04  0.00000000000E+00 0.  1.
        -11    1    3    3    0    0  0.19572554897E+01  0.26123597103E+01 -0.16492103015E+02  0.16812041344E+02  0.00000000000E+00 0. -1.
          2    1    6    6  502    0 -0.25591139503E+03  0.56020695857E+02 -0.60134509378E+02  0.26878452279E+03  0.00000000000E+00 0. -1.
          3    1    5    5  503    0  0.16261607963E+03  0.10159819402E+03 -0.51321110445E+02  0.19849443004E+03  0.00000000000E+00 0. -1.
         -4    1    5    5    0  503  0.28435302066E+02  0.73524711292E+02 -0.33611672615E+02  0.85698273671E+02  0.00000000000E+00 0.  1.
         -1    1    6    6    0  502 -0.63801310277E+03  0.85126260306E+01 -0.10171522697E+03  0.64612628139E+03  0.00000000000E+00 0.  1.
<mgrwt>
<rscale>  0 0.20678809E+04</rscale>
<asrwt>0</asrwt>
<pdfrwt beam="1">  1        2 0.94363109E-01 0.20678809E+04</pdfrwt>
<pdfrwt beam="2">  1       -2 0.26814029E+00 0.20678809E+04</pdfrwt>
<totfact> 0.22199098E+00</totfact>
</mgrwt>
</event>
<event>
12    1  0.1489233E-007  0.1504421E+04  0.7818608E-02  0.8881518E-01
         -2   -1    0    0    0  501 -0.00000000000E+00  0.00000000000E+00  0.27924525095E+03  0.27924525095E+03  0.00000000000E+00 0.  1.
          2   -1    0    0  501    0  0.00000000000E+00 -0.00000000000E+00 -0.20262503633E+04  0.20262503633E+04  0.00000000000E+00 0. -1.
         23    2    1    2    0    0 -0.18707971158E+03 -0.13022065242E+02 -0.12192782891E+04  0.12368820736E+04  0.89829423118E+02 0.  0.
        254    2    1    2    0    0  0.18707971158E+03  0.13022065242E+02 -0.52772682330E+03  0.10686135406E+04  0.91009389983E+03 0.  0.
        -24    2    4    4    0    0  0.16114725813E+03  0.44637789893E+03 -0.33850146569E+03  0.58846004961E+03  0.80500436329E+02 0.  0.
         24    2    4    4    0    0  0.25932453448E+02 -0.43335583369E+03 -0.18922535761E+03  0.48015349102E+03  0.79191970814E+02 0.  0.
         11    1    3    3    0    0 -0.17718316967E+03 -0.14823289955E+02 -0.89728195231E+03  0.91472865238E+03  0.00000000000E+00 0. -1.
        -11    1    3    3    0    0 -0.98965419097E+01  0.18012247125E+01 -0.32199633676E+03  0.32215342127E+03  0.00000000000E+00 0.  1.
          4    1    6    6  502    0 -0.63280531359E+01 -0.16507550725E+03 -0.34443057861E+02  0.16874919729E+03  0.00000000000E+00 0. -1.
          3    1    5    5  503    0  0.92725423910E+02  0.14507379124E+03 -0.11296752376E+03  0.20592734294E+03  0.00000000000E+00 0. -1.
         -4    1    5    5    0  503  0.68421834225E+02  0.30130410769E+03 -0.22553394193E+03  0.38253270667E+03  0.00000000000E+00 0.  1.
         -3    1    6    6    0  502  0.32260506584E+02 -0.26828032644E+03 -0.15478229975E+03  0.31140429373E+03  0.00000000000E+00 0.  1.
<mgrwt>
<rscale>  0 0.15044212E+04</rscale>
<asrwt>0</asrwt>
<pdfrwt beam="1">  1        2 0.31173084E+00 0.15044212E+04</pdfrwt>
<pdfrwt beam="2">  1       -2 0.42960806E-01 0.15044212E+04</pdfrwt>
<totfact> 0.32066928E+01</totfact>
</mgrwt>
</event>
<event>
12    1  0.1489233E-007  0.1494602E+04  0.7818608E-02  0.8888051E-01
          2   -1    0    0  501    0  0.00000000000E+00  0.00000000000E+00  0.34386031679E+04  0.34386031679E+04  0.00000000000E+00 0. -1.
         -2   -1    0    0    0  501 -0.00000000000E+00 -0.00000000000E+00 -0.16240857475E+03  0.16240857475E+03  0.00000000000E+00 0.  1.
         23    2    1    2    0    0  0.30553918485E+03  0.27340659949E+03  0.15106468717E+04  0.15678140732E+04  0.88778572815E+02 0.  0.
        254    2    1    2    0    0 -0.30553918485E+03 -0.27340659949E+03  0.17655477215E+04  0.20331976695E+04  0.92121042344E+03 0.  0.
        -24    2    4    4    0    0 -0.18160815574E+03 -0.60818761011E+03  0.11813546775E+04  0.13433836865E+04  0.78785555758E+02 0.  0.
         24    2    4    4    0    0 -0.12393102912E+03  0.33478101062E+03  0.58419304392E+03  0.68981398293E+03  0.84407306736E+02 0.  0.
         13    1    3    3    0    0  0.82296670926E+02  0.28110899049E+02  0.35661145451E+03  0.36706224837E+03  0.00000000000E+00 0.  1.
        -13    1    3    3    0    0  0.22324251393E+03  0.24529570045E+03  0.11540354172E+04  0.12007518248E+04  0.00000000000E+00 0. -1.
          4    1    6    6  502    0 -0.10237321816E+03  0.23347190726E+03  0.34335130121E+03  0.42764415502E+03  0.00000000000E+00 0. -1.
          1    1    5    5  503    0 -0.17269153124E+03 -0.52510846970E+03  0.97575878052E+03  0.11214572964E+04  0.00000000000E+00 0. -1.
         -2    1    5    5    0  503 -0.89166244923E+01 -0.83079140408E+02  0.20559589703E+03  0.22192639014E+03  0.00000000000E+00 0.  1.
         -3    1    6    6    0  502 -0.21557810959E+02  0.10130910335E+03  0.24084174270E+03  0.26216982791E+03  0.00000000000E+00 0.  1.
<mgrwt>
<rscale>  0 0.14946018E+04</rscale>
<asrwt>0</asrwt>
<pdfrwt beam="1">  1        2 0.52901582E+00 0.14946018E+04</pdfrwt>
<pdfrwt beam="2">  1       -2 0.24985937E-01 0.14946018E+04</pdfrwt>
<totfact> 0.12618053E+01</totfact>
</mgrwt>
</event>
<event>
12    1  0.1489233E-007  0.1214524E+04  0.7818608E-02  0.9100238E-01
         -1   -1    0    0    0  501 -0.00000000000E+00  0.00000000000E+00  0.29299845984E+03  0.29299845984E+03  0.00000000000E+00 0.  1.
          1   -1    0    0  501    0  0.00000000000E+00 -0.00000000000E+00 -0.12585973315E+04  0.12585973315E+04  0.00000000000E+00 0. -1.
         23    2    1    2    0    0 -0.76786043457E+02  0.19115470312E+03 -0.44584479298E+03  0.49914938962E+03  0.89086007507E+02 0.  0.
        254    2    1    2    0    0  0.76786043457E+02 -0.19115470312E+03 -0.51975407872E+03  0.10524464018E+04  0.89166300205E+03 0.  0.
        -24    2    4    4    0    0 -0.38936655289E+03 -0.38668074607E+02 -0.33973660034E+03  0.52418398207E+03  0.79033897468E+02 0.  0.
         24    2    4    4    0    0  0.46615259634E+03 -0.15248662851E+03 -0.18001747837E+03  0.52826241968E+03  0.78131149813E+02 0.  0.
         13    1    3    3    0    0 -0.69396372908E+02  0.66999017776E+02 -0.23982857767E+03  0.25850042867E+03  0.00000000000E+00 0. -1.
        -13    1    3    3    0    0 -0.73896705492E+01  0.12415568535E+03 -0.20601621531E+03  0.24064896095E+03  0.00000000000E+00 0.  1.
          2    1    6    6  502    0  0.28480278868E+03 -0.10438577456E+03 -0.14952042757E+03  0.33817950356E+03  0.00000000000E+00 0. -1.
          3    1    5    5  503    0 -0.38048262011E+03 -0.29899811119E+02 -0.30917731591E+03  0.49117373259E+03  0.00000000000E+00 0. -1.
         -4    1    5    5    0  503 -0.88839327788E+01 -0.87682634879E+01 -0.30559284431E+02  0.33010249486E+02  0.00000000000E+00 0.  1.
         -1    1    6    6    0  502  0.18134980767E+03 -0.48100853955E+02 -0.30497050805E+02  0.19008291612E+03  0.00000000000E+00 0.  1.
<mgrwt>
<rscale>  0 0.12145239E+04</rscale>
<asrwt>0</asrwt>
<pdfrwt beam="1">  1        1 0.19363035E+00 0.12145239E+04</pdfrwt>
<pdfrwt beam="2">  1       -1 0.45076687E-01 0.12145239E+04</pdfrwt>
<totfact> 0.46739567E+01</totfact>
</mgrwt>
</event>
<event>
12    1  0.1489233E-007  0.1525971E+04  0.7818608E-02  0.8867364E-01
         -2   -1    0    0    0  501 -0.00000000000E+00  0.00000000000E+00  0.74343158597E+03  0.74343158597E+03  0.00000000000E+00 0.  1.
          2   -1    0    0  501    0  0.00000000000E+00 -0.00000000000E+00 -0.78305391823E+03  0.78305391823E+03  0.00000000000E+00 0. -1.
         23    2    1    2    0    0 -0.25816961625E+03  0.41371421406E+03 -0.33834383003E+02  0.49734592997E+03  0.91636275120E+02 0.  0.
        254    2    1    2    0    0  0.25816961625E+03 -0.41371421406E+03 -0.57879492605E+01  0.10291395742E+04  0.90624707516E+03 0.  0.
        -24    2    4    4    0    0 -0.27792914164E+03 -0.25659267664E+03  0.19097124078E+03  0.43154626267E+03  0.81717516713E+02 0.  0.
         24    2    4    4    0    0  0.53609875789E+03 -0.15712153742E+03 -0.19675919004E+03  0.59759331156E+03  0.79464026032E+02 0.  0.
         11    1    3    3    0    0 -0.19972112418E+03  0.36907664409E+03 -0.90823644347E+01  0.41974824121E+03  0.00000000000E+00 0. -1.
        -11    1    3    3    0    0 -0.58448492064E+02  0.44637569968E+02 -0.24752018569E+02  0.77597688757E+02  0.00000000000E+00 0.  1.
          2    1    6    6  502    0  0.46402628810E+03 -0.12851002330E+03 -0.19650884577E+03  0.52004898673E+03  0.00000000000E+00 0. -1.
          3    1    5    5  503    0 -0.17947664418E+03 -0.12481651110E+03  0.13890976150E+03  0.25901148447E+03  0.00000000000E+00 0. -1.
         -4    1    5    5    0  503 -0.98452497463E+02 -0.13177616554E+03  0.52061479278E+02  0.17253477820E+03  0.00000000000E+00 0.  1.
         -1    1    6    6    0  502  0.72072469791E+02 -0.28611514115E+02 -0.25034426949E+00  0.77544324834E+02  0.00000000000E+00 0.  1.
<mgrwt>
<rscale>  0 0.15259712E+04</rscale>
<asrwt>0</asrwt>
<pdfrwt beam="1">  1        2 0.12046983E+00 0.15259712E+04</pdfrwt>
<pdfrwt beam="2">  1       -2 0.11437409E+00 0.15259712E+04</pdfrwt>
<totfact> 0.20421762E+01</totfact>
</mgrwt>
</event>
<event>
12    1  0.1489233E-007  0.1461473E+04  0.7818608E-02  0.8910485E-01
         -2   -1    0    0    0  501 -0.00000000000E+00  0.00000000000E+00  0.15418768014E+04  0.15418768014E+04  0.00000000000E+00 0.  1.
          2   -1    0    0  501    0  0.00000000000E+00 -0.00000000000E+00 -0.34631552109E+03  0.34631552109E+03  0.00000000000E+00 0. -1.
         23    2    1    2    0    0  0.10319471887E+03  0.34322543076E+03  0.88829220708E+02  0.38043537751E+03  0.91583839649E+02 0.  0.
        254    2    1    2    0    0 -0.10319471887E+03 -0.34322543076E+03  0.11067320596E+04  0.15077569449E+04  0.95917793294E+03 0.  0.
        -24    2    4    4    0    0 -0.23404647341E+03 -0.56725896868E+03  0.10656253609E+04  0.12322829022E+04  0.80020323096E+02 0.  0.
         24    2    4    4    0    0  0.13085175454E+03  0.22403353793E+03  0.41106698687E+02  0.27547404272E+03  0.82963725522E+02 0.  0.
         11    1    3    3    0    0  0.10287422699E+03  0.27576029519E+03  0.39728478994E+02  0.29699360098E+03  0.00000000000E+00 0. -1.
        -11    1    3    3    0    0  0.32049187839E+00  0.67465135572E+02  0.49100741714E+02  0.83441776525E+02  0.00000000000E+00 0.  1.
          2    1    6    6  502    0  0.12868255961E+03  0.21545355098E+03  0.19015895313E+02  0.25167645510E+03  0.00000000000E+00 0. -1.
          3    1    5    5  503    0 -0.12991918123E+03 -0.26434681007E+03  0.58051137120E+03  0.65096212005E+03  0.00000000000E+00 0. -1.
         -4    1    5    5    0  503 -0.10412729218E+03 -0.30291215861E+03  0.48511398968E+03  0.58132078218E+03  0.00000000000E+00 0.  1.
         -1    1    6    6    0  502  0.21691949262E+01  0.85799869470E+01  0.22090803374E+02  0.23797587616E+02  0.00000000000E+00 0.  1.
<mgrwt>
<rscale>  0 0.14614730E+04</rscale>
<asrwt>0</asrwt>
<pdfrwt beam="1">  1        2 0.53279312E-01 0.14614730E+04</pdfrwt>
<pdfrwt beam="2">  1       -2 0.23721181E+00 0.14614730E+04</pdfrwt>
<totfact> 0.69857660E+00</totfact>
</mgrwt>
</event>
<event>
12    1  0.1489233E-007  0.1946801E+04  0.7818608E-02  0.8631905E-01
         -1   -1    0    0    0  501 -0.00000000000E+00  0.00000000000E+00  0.66014122022E+03  0.66014122022E+03  0.00000000000E+00 0.  1.
          1   -1    0    0  501    0  0.00000000000E+00 -0.00000000000E+00 -0.14353124590E+04  0.14353124590E+04  0.00000000000E+00 0. -1.
         23    2    1    2    0    0  0.66413625117E+03 -0.19459179820E+03  0.40806929808E+02  0.69913906985E+03  0.90483730154E+02 0.  0.
        254    2    1    2    0    0 -0.66413625117E+03  0.19459179820E+03 -0.81597816856E+03  0.13963146093E+04  0.89717957436E+03 0.  0.
        -24    2    4    4    0    0 -0.53636382332E+03  0.64317203565E+02 -0.99080217352E+03  0.11313125315E+04  0.79726050589E+02 0.  0.
         24    2    4    4    0    0 -0.12777242785E+03  0.13027459463E+03  0.17482400497E+03  0.26500207788E+03  0.79783489780E+02 0.  0.
         11    1    3    3    0    0  0.39346659878E+03 -0.11114079009E+03  0.68445553751E+02  0.41455160524E+03  0.00000000000E+00 0.  1.
        -11    1    3    3    0    0  0.27066965239E+03 -0.83451008103E+02 -0.27638623943E+02  0.28458746461E+03  0.00000000000E+00 0. -1.
          2    1    6    6  502    0 -0.22203671277E+02  0.59640996828E+02  0.24483726171E+02  0.68187274238E+02  0.00000000000E+00 0. -1.
          3    1    5    5  503    0 -0.17557071291E+03 -0.43037575570E+01 -0.26552954249E+03  0.31835441805E+03  0.00000000000E+00 0. -1.
         -4    1    5    5    0  503 -0.36079311041E+03  0.68620961122E+02 -0.72527263104E+03  0.81295811341E+03  0.00000000000E+00 0.  1.
         -1    1    6    6    0  502 -0.10556875657E+03  0.70633597805E+02  0.15034027880E+03  0.19681480364E+03  0.00000000000E+00 0.  1.
<mgrwt>
<rscale>  0 0.19468014E+04</rscale>
<asrwt>0</asrwt>
<pdfrwt beam="1">  1        1 0.22081730E+00 0.19468014E+04</pdfrwt>
<pdfrwt beam="2">  1       -1 0.10156019E+00 0.19468014E+04</pdfrwt>
<totfact> 0.62200452E+00</totfact>
</mgrwt>
</event>
<event>
12    1  0.1489233E-007  0.1692434E+04  0.7818608E-02  0.8765691E-01
          2   -1    0    0  501    0  0.00000000000E+00  0.00000000000E+00  0.15145257464E+04  0.15145257464E+04  0.00000000000E+00 0. -1.
         -2   -1    0    0    0  501 -0.00000000000E+00 -0.00000000000E+00 -0.47281005508E+03  0.47281005508E+03  0.00000000000E+00 0.  1.
         23    2    1    2    0    0  0.34695383512E+03 -0.31981625001E+03  0.82068570510E+03  0.95103210661E+03  0.90981557319E+02 0.  0.
        254    2    1    2    0    0 -0.34695383512E+03  0.31981625001E+03  0.22102998620E+03  0.10363036948E+04  0.89577435534E+03 0.  0.
        -24    2    4    4    0    0 -0.20051890640E+03 -0.11656611922E+03  0.45276864981E+03  0.51484456811E+03  0.79183250076E+02 0.  0.
         24    2    4    4    0    0 -0.14643492873E+03  0.43638236923E+03 -0.23173866361E+03  0.52145912673E+03  0.79649558131E+02 0.  0.
         13    1    3    3    0    0  0.29487226520E+03 -0.28423860775E+03  0.76091355491E+03  0.86413579776E+03  0.00000000000E+00 0. -1.
        -13    1    3    3    0    0  0.52081569917E+02 -0.35577642256E+02  0.59772150192E+02  0.86896308852E+02  0.00000000000E+00 0.  1.
          2    1    6    6  502    0 -0.25511424447E+01 -0.30748258992E+01 -0.51408057444E+01  0.65108191332E+01  0.00000000000E+00 0. -1.
          3    1    5    5  503    0 -0.32932685767E+02  0.10716070390E+02  0.62530153131E+02  0.71480179120E+02  0.00000000000E+00 0. -1.
         -4    1    5    5    0  503 -0.16758622063E+03 -0.12728218961E+03  0.39023849668E+03  0.44336438899E+03  0.00000000000E+00 0.  1.
         -1    1    6    6    0  502 -0.14388378628E+03  0.43945719513E+03 -0.22659785787E+03  0.51494830760E+03  0.00000000000E+00 0.  1.
<mgrwt>
<rscale>  0 0.16924338E+04</rscale>
<asrwt>0</asrwt>
<pdfrwt beam="1">  1        2 0.23300396E+00 0.16924338E+04</pdfrwt>
<pdfrwt beam="2">  1       -2 0.72740010E-01 0.16924338E+04</pdfrwt>
<totfact> 0.20262800E+01</totfact>
</mgrwt>
</event>
<event>
12    1  0.1489233E-007  0.1340557E+04  0.7818608E-02  0.8998007E-01
         -1   -1    0    0    0  501 -0.00000000000E+00  0.00000000000E+00  0.50687008055E+03  0.50687008055E+03  0.00000000000E+00 0.  1.
          1   -1    0    0  501    0  0.00000000000E+00 -0.00000000000E+00 -0.88636730126E+03  0.88636730126E+03  0.00000000000E+00 0. -1.
         23    2    1    2    0    0 -0.14565973535E+03  0.24310688762E+03 -0.30276968428E+03  0.42401755897E+03  0.88338503970E+02 0.  0.
        254    2    1    2    0    0  0.14565973535E+03 -0.24310688762E+03 -0.76727536430E+02  0.96921982285E+03  0.92367864154E+03 0.  0.
        -24    2    4    4    0    0 -0.23271328995E+03 -0.25941557926E+03 -0.34573964994E+03  0.49812243444E+03  0.84487490603E+02 0.  0.
         24    2    4    4    0    0  0.37837302530E+03  0.16308691636E+02  0.26901211351E+03  0.47109738841E+03  0.78314190605E+02 0.  0.
         13    1    3    3    0    0 -0.14342826593E+03  0.21461468352E+03 -0.29928759018E+03  0.39522675958E+03  0.00000000000E+00 0. -1.
        -13    1    3    3    0    0 -0.22314694209E+01  0.28492204097E+02 -0.34820940975E+01  0.28790799388E+02  0.00000000000E+00 0.  1.
          2    1    6    6  502    0  0.27423366049E+03 -0.22149971476E+02  0.17965893207E+03  0.32859101274E+03  0.00000000000E+00 0. -1.
          1    1    5    5  503    0 -0.18674426191E+03 -0.15523266878E+03 -0.25849388148E+03  0.35466841919E+03  0.00000000000E+00 0. -1.
         -2    1    5    5    0  503 -0.45969028044E+02 -0.10418291048E+03 -0.87245768462E+02  0.14345401525E+03  0.00000000000E+00 0.  1.
         -1    1    6    6    0  502  0.10413936481E+03  0.38458663112E+02  0.89353181443E+02  0.14250637567E+03  0.00000000000E+00 0.  1.
<mgrwt>
<rscale>  0 0.13405567E+04</rscale>
<asrwt>0</asrwt>
<pdfrwt beam="1">  1        1 0.13636420E+00 0.13405567E+04</pdfrwt>
<pdfrwt beam="2">  1       -1 0.77980013E-01 0.13405567E+04</pdfrwt>
<totfact> 0.30136251E+01</totfact>
</mgrwt>
</event>
<event>
12    1  0.1489233E-007  0.3556173E+04  0.7818608E-02  0.8100605E-01
         -2   -1    0    0    0  501 -0.00000000000E+00  0.00000000000E+00  0.18397721633E+04  0.18397721633E+04  0.00000000000E+00 0.  1.
          2   -1    0    0  501    0  0.00000000000E+00 -0.00000000000E+00 -0.17184695367E+04  0.17184695367E+04  0.00000000000E+00 0. -1.
         23    2    1    2    0    0 -0.10794094330E+04  0.84094795617E+03  0.10007696940E+04  0.16977570545E+04  0.92308432569E+02 0.  0.
        254    2    1    2    0    0  0.10794094330E+04 -0.84094795617E+03 -0.87946706739E+03  0.18604846455E+04  0.90311826712E+03 0.  0.
        -24    2    4    4    0    0  0.59853057838E+02 -0.33968321265E+03  0.89388090893E+02  0.36522924022E+03  0.80219035331E+02 0.  0.
         24    2    4    4    0    0  0.10195563752E+04 -0.50126474352E+03 -0.96885515829E+03  0.14952554053E+04  0.79667207801E+02 0.  0.
         11    1    3    3    0    0 -0.33992426970E+02  0.22457609792E+02  0.12506492878E+02  0.42617387215E+02  0.00000000000E+00 0. -1.
        -11    1    3    3    0    0 -0.10454170060E+04  0.81849034638E+03  0.98826320116E+03  0.16551396673E+04  0.00000000000E+00 0.  1.
          2    1    6    6  502    0  0.50024854411E+03 -0.25802828733E+03 -0.53025981855E+03  0.77330632877E+03  0.00000000000E+00 0. -1.
          3    1    5    5  503    0  0.42518255782E+02 -0.58507504786E+02  0.15010381883E+02  0.73866377705E+02  0.00000000000E+00 0. -1.
         -4    1    5    5    0  503  0.17334802056E+02 -0.28117570786E+03  0.74377709010E+02  0.29136286251E+03  0.00000000000E+00 0.  1.
         -1    1    6    6    0  502  0.51930783104E+03 -0.24323645619E+03 -0.43859533974E+03  0.72194907649E+03  0.00000000000E+00 0.  1.
<mgrwt>
<rscale>  0 0.35561735E+04</rscale>
<asrwt>0</asrwt>
<pdfrwt beam="1">  1        2 0.26437993E+00 0.35561735E+04</pdfrwt>
<pdfrwt beam="2">  1       -2 0.28304187E+00 0.35561735E+04</pdfrwt>
<totfact> 0.31610566E-01</totfact>
</mgrwt>
</event>
<event>
12    1  0.1489233E-007  0.1514515E+04  0.7818608E-02  0.8874858E-01
          2   -1    0    0  501    0  0.00000000000E+00  0.00000000000E+00  0.17541965498E+04  0.17541965498E+04  0.00000000000E+00 0. -1.
         -2   -1    0    0    0  501 -0.00000000000E+00 -0.00000000000E+00 -0.32689535909E+03  0.32689535909E+03  0.00000000000E+00 0.  1.
         23    2    1    2    0    0 -0.31219137838E+02  0.48232313136E+03  0.39443255159E+03  0.63650102387E+03  0.12627857310E+03 0.  0.
        254    2    1    2    0    0  0.31219137838E+02 -0.48232313136E+03  0.10328686392E+04  0.14445908851E+04  0.88680040698E+03 0.  0.
        -24    2    4    4    0    0  0.18393343286E+03 -0.40162651440E+03  0.59622346644E+02  0.45290024152E+03  0.80177551442E+02 0.  0.
         24    2    4    4    0    0 -0.15271429502E+03 -0.80696616963E+02  0.97324629251E+03  0.99169064354E+03  0.80052399719E+02 0.  0.
         13    1    3    3    0    0 -0.44725023516E+02  0.38746387396E+03  0.25035453372E+03  0.46347165384E+03  0.00000000000E+00 0.  1.
        -13    1    3    3    0    0  0.13505885678E+02  0.94859257397E+02  0.14407801787E+03  0.17302937004E+03  0.00000000000E+00 0. -1.
          2    1    6    6  502    0 -0.51906465545E+02  0.42391886267E+01  0.17330048181E+03  0.18095664918E+03  0.00000000000E+00 0. -1.
          1    1    5    5  503    0  0.32925383914E+02 -0.25586441017E+02 -0.68484304956E+01  0.42256926888E+02  0.00000000000E+00 0. -1.
         -2    1    5    5    0  503  0.15100804894E+03 -0.37604007338E+03  0.66470777139E+02  0.41064331463E+03  0.00000000000E+00 0.  1.
         -1    1    6    6    0  502 -0.10080782947E+03 -0.84935805589E+02  0.79994581071E+03  0.81073399437E+03  0.00000000000E+00 0.  1.
<mgrwt>
<rscale>  0 0.15145147E+04</rscale>
<asrwt>0</asrwt>
<pdfrwt beam="1">  1        2 0.26987639E+00 0.15145147E+04</pdfrwt>
<pdfrwt beam="2">  1       -2 0.50291595E-01 0.15145147E+04</pdfrwt>
<totfact> 0.33018872E+01</totfact>
</mgrwt>
</event>
<event>
12    1  0.1489233E-007  0.2390790E+04  0.7818608E-02  0.8442960E-01
         -2   -1    0    0    0  501 -0.00000000000E+00  0.00000000000E+00  0.13512783971E+04  0.13512783971E+04  0.00000000000E+00 0. -1.
          2   -1    0    0  501    0  0.00000000000E+00 -0.00000000000E+00 -0.10574938992E+04  0.10574938992E+04  0.00000000000E+00 0.  1.
         23    2    1    2    0    0  0.18500697701E+03 -0.10008942207E+04  0.88638408488E+01  0.10225693050E+04  0.97737369457E+02 0.  0.
        254    2    1    2    0    0 -0.18500697701E+03  0.10008942207E+04  0.28492065703E+03  0.13862029913E+04  0.89686238062E+03 0.  0.
        -24    2    4    4    0    0  0.34014448664E+03  0.26334644882E+03  0.17135907188E+03  0.46995576659E+03  0.80279929837E+02 0.  0.
         24    2    4    4    0    0 -0.52515146365E+03  0.73754777185E+03  0.11356158515E+03  0.91624722471E+03  0.82776612892E+02 0.  0.
         13    1    3    3    0    0  0.12747720865E+03 -0.80023005570E+03  0.41026620335E+02  0.81135797547E+03  0.00000000000E+00 0. -1.
        -13    1    3    3    0    0  0.57529768354E+02 -0.20066416496E+03 -0.32162779486E+02  0.21121132955E+03  0.00000000000E+00 0.  1.
          4    1    6    6  502    0 -0.43532860744E+03  0.55437157247E+03  0.97881387640E+02  0.71163164830E+03  0.00000000000E+00 0. -1.
          3    1    5    5  503    0  0.22124324689E+03  0.21610731578E+03  0.11219045059E+03  0.32899489879E+03  0.00000000000E+00 0. -1.
         -4    1    5    5    0  503  0.11890123975E+03  0.47239133046E+02  0.59168621288E+02  0.14096086780E+03  0.00000000000E+00 0.  1.
         -3    1    6    6    0  502 -0.89822856207E+02  0.18317619938E+03  0.15680197511E+02  0.20461557641E+03  0.00000000000E+00 0.  1.
<mgrwt>
<rscale>  0 0.23907895E+04</rscale>
<asrwt>0</asrwt>
<pdfrwt beam="1">  1        2 0.16269137E+00 0.23907895E+04</pdfrwt>
<pdfrwt beam="2">  1       -2 0.20788898E+00 0.23907895E+04</pdfrwt>
<totfact> 0.24617265E+00</totfact>
</mgrwt>
</event>
<event>
12    1  0.1489233E-007  0.1624689E+04  0.7818608E-02  0.8805523E-01
          2   -1    0    0  501    0  0.00000000000E+00  0.00000000000E+00  0.15630258147E+04  0.15630258147E+04  0.00000000000E+00 0. -1.
         -2   -1    0    0    0  501 -0.00000000000E+00 -0.00000000000E+00 -0.42219615491E+03  0.42219615491E+03  0.00000000000E+00 0.  1.
         23    2    1    2    0    0  0.27282746528E+03  0.10227204196E+03 -0.17928044447E+03  0.35360147180E+03  0.89432246506E+02 0.  0.
        254    2    1    2    0    0 -0.27282746528E+03 -0.10227204196E+03  0.13201101042E+04  0.16316204978E+04  0.91356464748E+03 0.  0.
        -24    2    4    4    0    0  0.34200912830E+01  0.36938587444E+03  0.35239648687E+03  0.51696988109E+03  0.81344654004E+02 0.  0.
         24    2    4    4    0    0 -0.27624755656E+03 -0.47165791640E+03  0.96771361735E+03  0.11146506167E+04  0.84867246113E+02 0.  0.
         11    1    3    3    0    0  0.22562362900E+03  0.48852626944E+02 -0.11636514838E+03  0.25852166037E+03  0.00000000000E+00 0.  1.
        -11    1    3    3    0    0  0.47203836278E+02  0.53419415017E+02 -0.62915296092E+02  0.95079811434E+02  0.00000000000E+00 0. -1.
          4    1    6    6  502    0 -0.22605769445E+03 -0.31937536259E+03  0.72292266971E+03  0.82202183051E+03  0.00000000000E+00 0. -1.
          1    1    5    5  503    0  0.15462828949E+02  0.17045470895E+03  0.11127575136E+03  0.20414749502E+03  0.00000000000E+00 0. -1.
         -2    1    5    5    0  503 -0.12042737666E+02  0.19893116549E+03  0.24112073551E+03  0.31282238607E+03  0.00000000000E+00 0.  1.
         -3    1    6    6    0  502 -0.50189862118E+02 -0.15228255381E+03  0.24479094764E+03  0.29262878618E+03  0.00000000000E+00 0.  1.
<mgrwt>
<rscale>  0 0.16246889E+04</rscale>
<asrwt>0</asrwt>
<pdfrwt beam="1">  1        2 0.24046551E+00 0.16246889E+04</pdfrwt>
<pdfrwt beam="2">  1       -2 0.64953255E-01 0.16246889E+04</pdfrwt>
<totfact> 0.24477122E+01</totfact>
</mgrwt>
</event>
<event>
12    1  0.1489233E-007  0.2008840E+04  0.7818608E-02  0.8602499E-01
          2   -1    0    0  501    0  0.00000000000E+00  0.00000000000E+00  0.11296855338E+04  0.11296855338E+04  0.00000000000E+00 0.  1.
         -2   -1    0    0    0  501 -0.00000000000E+00 -0.00000000000E+00 -0.89304440727E+03  0.89304440727E+03  0.00000000000E+00 0. -1.
         23    2    1    2    0    0  0.54025308881E+02 -0.28903550104E+03 -0.65284171070E+03  0.72239573054E+03  0.95880328581E+02 0.  0.
        254    2    1    2    0    0 -0.54025308881E+02  0.28903550104E+03  0.88948283718E+03  0.13003342105E+04  0.90179215259E+03 0.  0.
        -24    2    4    4    0    0 -0.15707666248E+03  0.56546534674E+03  0.77158607796E+03  0.97283026916E+03  0.81421868226E+02 0.  0.
         24    2    4    4    0    0  0.10305135360E+03 -0.27642984571E+03  0.11789675922E+03  0.32750394133E+03  0.79537064792E+02 0.  0.
         11    1    3    3    0    0  0.33539856972E+02 -0.28470656643E+03 -0.62452867218E+03  0.68718179061E+03  0.00000000000E+00 0. -1.
        -11    1    3    3    0    0  0.20485451909E+02 -0.43289346060E+01 -0.28313038520E+02  0.35213939924E+02  0.00000000000E+00 0.  1.
          4    1    6    6  502    0  0.94789213142E+02 -0.24114433503E+03  0.71804065571E+02  0.26887061773E+03  0.00000000000E+00 0. -1.
          1    1    5    5  503    0 -0.81381742888E+02  0.38163481021E+03  0.45989397138E+03  0.60313396634E+03  0.00000000000E+00 0. -1.
         -2    1    5    5    0  503 -0.75694919595E+02  0.18383053653E+03  0.31169210658E+03  0.36969630282E+03  0.00000000000E+00 0.  1.
         -3    1    6    6    0  502  0.82621404603E+01 -0.35285510678E+02  0.46092693653E+02  0.58633323605E+02  0.00000000000E+00 0.  1.
<mgrwt>
<rscale>  0 0.20088398E+04</rscale>
<asrwt>0</asrwt>
<pdfrwt beam="1">  1        2 0.17379777E+00 0.20088398E+04</pdfrwt>
<pdfrwt beam="2">  1       -2 0.13739145E+00 0.20088398E+04</pdfrwt>
<totfact> 0.73143005E+00</totfact>
</mgrwt>
</event>
<event>
12    1  0.1489233E-007  0.2306589E+04  0.7818608E-02  0.8475328E-01
          2   -1    0    0  501    0  0.00000000000E+00  0.00000000000E+00  0.27089470182E+04  0.27089470182E+04  0.00000000000E+00 0. -1.
         -2   -1    0    0    0  501 -0.00000000000E+00 -0.00000000000E+00 -0.49099814259E+03  0.49099814259E+03  0.00000000000E+00 0.  1.
         23    2    1    2    0    0  0.16304611297E+03  0.85547210826E+03  0.15458299889E+04  0.17765868313E+04  0.90850710558E+02 0.  0.
        254    2    1    2    0    0 -0.16304611297E+03 -0.85547210826E+03  0.67211888675E+03  0.14233583295E+04  0.90321014905E+03 0.  0.
        -24    2    4    4    0    0 -0.15420133991E+03 -0.77588137126E+02  0.60982699090E+03  0.63877579076E+03  0.79671699996E+02 0.  0.
         24    2    4    4    0    0 -0.88447730651E+01 -0.77788397113E+03  0.62291895854E+02  0.78458253877E+03  0.80670795833E+02 0.  0.
         11    1    3    3    0    0  0.12588692795E+03  0.67542964623E+03  0.11395300951E+04  0.13306320165E+04  0.00000000000E+00 0.  1.
        -11    1    3    3    0    0  0.37159185025E+02  0.18004246203E+03  0.40629989377E+03  0.44595481480E+03  0.00000000000E+00 0. -1.
          4    1    6    6  502    0 -0.17707632311E+02 -0.21985626998E+03  0.50915285839E+02  0.22636851818E+03  0.00000000000E+00 0. -1.
          1    1    5    5  503    0 -0.98442991620E+01 -0.30333723084E+02  0.55453306060E+02  0.63969634477E+02  0.00000000000E+00 0. -1.
         -2    1    5    5    0  503 -0.14435704074E+03 -0.47254414043E+02  0.55437368483E+03  0.57480615628E+03  0.00000000000E+00 0.  1.
         -3    1    6    6    0  502  0.88628592461E+01 -0.55802770116E+03  0.11376610015E+02  0.55821402060E+03  0.00000000000E+00 0.  1.
<mgrwt>
<rscale>  0 0.23065888E+04</rscale>
<asrwt>0</asrwt>
<pdfrwt beam="1">  1        2 0.41676107E+00 0.23065888E+04</pdfrwt>
<pdfrwt beam="2">  1       -2 0.75538178E-01 0.23065888E+04</pdfrwt>
<totfact> 0.37362958E+00</totfact>
</mgrwt>
</event>
<event>
12    1  0.1489233E-007  0.1566032E+04  0.7818608E-02  0.8841692E-01
          1   -1    0    0  501    0  0.00000000000E+00  0.00000000000E+00  0.25506022748E+04  0.25506022748E+04  0.00000000000E+00 0. -1.
         -1   -1    0    0    0  501 -0.00000000000E+00 -0.00000000000E+00 -0.24038012247E+03  0.24038012247E+03  0.00000000000E+00 0.  1.
         23    2    1    2    0    0  0.48233611477E+03  0.18019048657E+03  0.92376496952E+03  0.10615403049E+04  0.91702567819E+02 0.  0.
        254    2    1    2    0    0 -0.48233611477E+03 -0.18019048657E+03  0.13864571828E+04  0.17294420923E+04  0.89643164382E+03 0.  0.
        -24    2    4    4    0    0 -0.27617511633E+03  0.16022424275E+03  0.12615771444E+04  0.13038225948E+04  0.80199529906E+02 0.  0.
         24    2    4    4    0    0 -0.20616099843E+03 -0.34041472932E+03  0.12488003836E+03  0.42561949752E+03  0.84689949084E+02 0.  0.
         11    1    3    3    0    0  0.82749655978E+02  0.14612891809E+02  0.96004382877E+02  0.12758480984E+03  0.00000000000E+00 0.  1.
        -11    1    3    3    0    0  0.39958645879E+03  0.16557759476E+03  0.82776058664E+03  0.93395549505E+03  0.00000000000E+00 0. -1.
          2    1    6    6  502    0 -0.20361674681E+03 -0.28097890596E+03  0.11316583272E+03  0.36498689137E+03  0.00000000000E+00 0. -1.
          1    1    5    5  503    0 -0.71034676277E+02  0.84530511100E+02  0.44086755553E+03  0.45448381056E+03  0.00000000000E+00 0. -1.
         -2    1    5    5    0  503 -0.20514044006E+03  0.75693731655E+02  0.82070958890E+03  0.84933878427E+03  0.00000000000E+00 0.  1.
         -1    1    6    6    0  502 -0.25442516215E+01 -0.59435823360E+02  0.11714205636E+02  0.60632606150E+02  0.00000000000E+00 0.  1.
<mgrwt>
<rscale>  0 0.15660320E+04</rscale>
<asrwt>0</asrwt>
<pdfrwt beam="1">  1        1 0.39240033E+00 0.15660320E+04</pdfrwt>
<pdfrwt beam="2">  1       -1 0.36981559E-01 0.15660320E+04</pdfrwt>
<totfact> 0.84668756E+00</totfact>
</mgrwt>
</event>
<event>
12    1  0.1489233E-007  0.1578501E+04  0.7818608E-02  0.8833866E-01
         -2   -1    0    0    0  501 -0.00000000000E+00  0.00000000000E+00  0.59891633284E+03  0.59891633284E+03  0.00000000000E+00 0.  1.
          2   -1    0    0  501    0  0.00000000000E+00 -0.00000000000E+00 -0.10400722207E+04  0.10400722207E+04  0.00000000000E+00 0. -1.
         23    2    1    2    0    0  0.76987892896E+02 -0.14643681812E+03  0.35376679841E+03  0.40134438682E+03  0.92495901618E+02 0.  0.
        254    2    1    2    0    0 -0.76987892896E+02  0.14643681812E+03 -0.79492268631E+03  0.12376441668E+04  0.93407180074E+03 0.  0.
        -24    2    4    4    0    0 -0.40881217949E+03  0.14300569829E+03 -0.78183512103E+03  0.89727948585E+03  0.79159910305E+02 0.  0.
         24    2    4    4    0    0  0.33182428660E+03  0.34311198315E+01 -0.13087565280E+02  0.34036468091E+03  0.74549995879E+02 0.  0.
         11    1    3    3    0    0  0.34707792367E+01 -0.15853071505E+02 -0.96578316432E+00  0.16257272889E+02  0.00000000000E+00 0. -1.
        -11    1    3    3    0    0  0.73517113659E+02 -0.13058374661E+03  0.35473258158E+03  0.38508711393E+03  0.00000000000E+00 0.  1.
          2    1    6    6  502    0  0.49007057668E+02  0.40077067957E+01  0.24713365628E+02  0.55031844015E+02  0.00000000000E+00 0. -1.
          1    1    5    5  503    0 -0.12411034317E+03  0.22273760494E+02 -0.16917442936E+03  0.21099641049E+03  0.00000000000E+00 0. -1.
         -2    1    5    5    0  503 -0.28470183632E+03  0.12073193779E+03 -0.61266069167E+03  0.68628307536E+03  0.00000000000E+00 0.  1.
         -1    1    6    6    0  502  0.28281722893E+03 -0.57658696416E+00 -0.37800930908E+02  0.28533283689E+03  0.00000000000E+00 0.  1.
<mgrwt>
<rscale>  0 0.15785009E+04</rscale>
<asrwt>0</asrwt>
<pdfrwt beam="1">  1        2 0.16001111E+00 0.15785009E+04</pdfrwt>
<pdfrwt beam="2">  1       -2 0.92140975E-01 0.15785009E+04</pdfrwt>
<totfact> 0.22833847E+01</totfact>
</mgrwt>
</event>
<event>
12    1  0.1489233E-007  0.1508323E+04  0.7818608E-02  0.8878937E-01
         -1   -1    0    0    0  501 -0.00000000000E+00  0.00000000000E+00  0.30785883889E+03  0.30785883889E+03  0.00000000000E+00 0.  1.
          1   -1    0    0  501    0  0.00000000000E+00 -0.00000000000E+00 -0.18474678009E+04  0.18474678009E+04  0.00000000000E+00 0. -1.
         23    2    1    2    0    0  0.65405752750E+02  0.24199181044E+03 -0.10943128020E+04  0.11263363164E+04  0.90967247800E+02 0.  0.
        254    2    1    2    0    0 -0.65405752750E+02 -0.24199181044E+03 -0.44529615993E+03  0.10289903233E+04  0.89313742876E+03 0.  0.
        -24    2    4    4    0    0 -0.13548359727E+03 -0.52075114586E+03 -0.48281313364E+03  0.72781761659E+03  0.84097562150E+02 0.  0.
         24    2    4    4    0    0  0.70077844522E+02  0.27875933542E+03  0.37516973711E+02  0.30117270674E+03  0.81730071560E+02 0.  0.
         13    1    3    3    0    0  0.90595780568E+01 -0.28845633029E+01 -0.12390410349E+02  0.15617904105E+02  0.00000000000E+00 0.  1.
        -13    1    3    3    0    0  0.56346174694E+02  0.24487637375E+03 -0.10819223917E+04  0.11107184123E+04  0.00000000000E+00 0. -1.
          4    1    6    6  502    0 -0.95621140226E+01  0.69754455399E+01 -0.80560580808E+01  0.14317504561E+02  0.00000000000E+00 0. -1.
          1    1    5    5  503    0 -0.60759263703E+01 -0.11343341231E+03 -0.13759278321E+03  0.17842597877E+03  0.00000000000E+00 0. -1.
         -2    1    5    5    0  503 -0.12940767090E+03 -0.40731773355E+03 -0.34522035044E+03  0.54939163782E+03  0.00000000000E+00 0.  1.
         -3    1    6    6    0  502  0.79639958545E+02  0.27178388988E+03  0.45573031792E+02  0.28685520218E+03  0.00000000000E+00 0.  1.
<mgrwt>
<rscale>  0 0.15083226E+04</rscale>
<asrwt>0</asrwt>
<pdfrwt beam="1">  1        1 0.28422581E+00 0.15083226E+04</pdfrwt>
<pdfrwt beam="2">  1       -1 0.47362899E-01 0.15083226E+04</pdfrwt>
<totfact> 0.16269690E+01</totfact>
</mgrwt>
</event>
<event>
12    1  0.1489233E-007  0.2485611E+04  0.7818608E-02  0.8408130E-01
         -2   -1    0    0    0  501 -0.00000000000E+00  0.00000000000E+00  0.79035225788E+03  0.79035225788E+03  0.00000000000E+00 0. -1.
          2   -1    0    0  501    0  0.00000000000E+00 -0.00000000000E+00 -0.19542743389E+04  0.19542743389E+04  0.00000000000E+00 0.  1.
         23    2    1    2    0    0 -0.10465441764E+04 -0.24669780909E+03 -0.49729552118E+03  0.11881594142E+04  0.91134165409E+02 0.  0.
        254    2    1    2    0    0  0.10465441764E+04  0.24669780909E+03 -0.66662655982E+03  0.15564671825E+04  0.90668880987E+03 0.  0.
        -24    2    4    4    0    0  0.48764895145E+03  0.55717547147E+03 -0.23693070019E+03  0.78190623354E+03  0.83637285353E+02 0.  0.
         24    2    4    4    0    0  0.55889522493E+03 -0.31047766238E+03 -0.42969585963E+03  0.77456094900E+03  0.80906616806E+02 0.  0.
         13    1    3    3    0    0 -0.10080496615E+04 -0.25357228356E+03 -0.48599663390E+03  0.11474562089E+04  0.00000000000E+00 0. -1.
        -13    1    3    3    0    0 -0.38494514861E+02  0.68744744749E+01 -0.11298887284E+02  0.40703205372E+02  0.00000000000E+00 0.  1.
          2    1    6    6  502    0  0.46128022687E+03 -0.26956611251E+03 -0.39020113013E+03  0.66159070328E+03  0.00000000000E+00 0. -1.
          3    1    5    5  503    0  0.43611885851E+03  0.52852655462E+03 -0.22863511658E+03  0.72236693876E+03  0.00000000000E+00 0. -1.
         -4    1    5    5    0  503  0.51530092942E+02  0.28648916852E+02 -0.82955836051E+01  0.59539294779E+02  0.00000000000E+00 0.  1.
         -1    1    6    6    0  502  0.97614998058E+02 -0.40911549872E+02 -0.39494729503E+02  0.11297024572E+03  0.00000000000E+00 0.  1.
<mgrwt>
<rscale>  0 0.24856107E+04</rscale>
<asrwt>0</asrwt>
<pdfrwt beam="1">  1        2 0.30065759E+00 0.24856107E+04</pdfrwt>
<pdfrwt beam="2">  1       -2 0.12159265E+00 0.24856107E+04</pdfrwt>
<totfact> 0.32504749E+00</totfact>
</mgrwt>
</event>
<event>
12    1  0.1489233E-007  0.1225288E+04  0.7818608E-02  0.9091006E-01
          1   -1    0    0  501    0  0.00000000000E+00  0.00000000000E+00  0.68907218790E+03  0.68907218790E+03  0.00000000000E+00 0. -1.
         -1   -1    0    0    0  501 -0.00000000000E+00 -0.00000000000E+00 -0.54469246805E+03  0.54469246805E+03  0.00000000000E+00 0.  1.
         23    2    1    2    0    0  0.16713679378E+02  0.26462958947E+03  0.79182099157E+02  0.29133898700E+03  0.91106716647E+02 0.  0.
        254    2    1    2    0    0 -0.16713679378E+02 -0.26462958947E+03  0.65197620695E+02  0.94242566896E+03  0.90200179881E+03 0.  0.
        -24    2    4    4    0    0  0.11042378215E+03  0.29793474224E+03  0.13860195920E+03  0.35555895397E+03  0.79076825668E+02 0.  0.
         24    2    4    4    0    0 -0.12713746153E+03 -0.56256433171E+03 -0.73404338508E+02  0.58686671498E+03  0.79886061412E+02 0.  0.
         13    1    3    3    0    0  0.43742768153E+02  0.17481617557E+03  0.80896982478E+02  0.19753087552E+03  0.00000000000E+00 0. -1.
        -13    1    3    3    0    0 -0.27029088774E+02  0.89813413893E+02 -0.17148833206E+01  0.93808111483E+02  0.00000000000E+00 0.  1.
          4    1    6    6  502    0 -0.66297216596E+02 -0.42939064230E+03 -0.37357787359E+02  0.43608169980E+03  0.00000000000E+00 0. -1.
          1    1    5    5  503    0 -0.11829192753E+02  0.19848920321E+02  0.46777896817E+01  0.23575223338E+02  0.00000000000E+00 0. -1.
         -2    1    5    5    0  503  0.12225297490E+03  0.27808582192E+03  0.13392416952E+03  0.33198373064E+03  0.00000000000E+00 0.  1.
         -3    1    6    6    0  502 -0.60840244931E+02 -0.13317368940E+03 -0.36046551148E+02  0.15078501518E+03  0.00000000000E+00 0.  1.
<mgrwt>
<rscale>  0 0.12252876E+04</rscale>
<asrwt>0</asrwt>
<pdfrwt beam="1">  1        1 0.10601111E+00 0.12252876E+04</pdfrwt>
<pdfrwt beam="2">  1       -1 0.83798841E-01 0.12252876E+04</pdfrwt>
<totfact> 0.38943094E+01</totfact>
</mgrwt>
</event>
<event>
12    1  0.1489233E-007  0.2003291E+04  0.7818608E-02  0.8605083E-01
         -2   -1    0    0    0  501 -0.00000000000E+00  0.00000000000E+00  0.21452123481E+04  0.21452123481E+04  0.00000000000E+00 0.  1.
          2   -1    0    0  501    0  0.00000000000E+00 -0.00000000000E+00 -0.46768991845E+03  0.46768991845E+03  0.00000000000E+00 0. -1.
         23    2    1    2    0    0 -0.61024151726E+01 -0.49837099439E+03 -0.70564555539E+02  0.51153557080E+03  0.90985692166E+02 0.  0.
        254    2    1    2    0    0  0.61024151726E+01  0.49837099439E+03  0.17480869852E+04  0.21013666958E+04  0.10542879088E+04 0.  0.
        -24    2    4    4    0    0  0.29946891168E+03  0.29045499805E+03  0.16725046097E+04  0.17253989805E+04  0.75393883694E+02 0.  0.
         24    2    4    4    0    0 -0.29336649651E+03  0.20791599634E+03  0.75582375562E+02  0.37596771526E+03  0.79662190631E+02 0.  0.
         11    1    3    3    0    0  0.20823826960E+02 -0.63406952795E+02  0.12483679877E+02  0.67896359956E+02  0.00000000000E+00 0.  1.
        -11    1    3    3    0    0 -0.26926242132E+02 -0.43496404159E+03 -0.83048235416E+02  0.44363921084E+03  0.00000000000E+00 0. -1.
          4    1    6    6  502    0 -0.22175037205E+03  0.14357962719E+03  0.20300555126E+02  0.26495367404E+03  0.00000000000E+00 0. -1.
          3    1    5    5  503    0  0.28309950500E+03  0.28733235760E+03  0.15440654489E+04  0.15958832426E+04  0.00000000000E+00 0. -1.
         -4    1    5    5    0  503  0.16369406679E+02  0.31226404468E+01  0.12843916074E+03  0.12951573793E+03  0.00000000000E+00 0.  1.
         -1    1    6    6    0  502 -0.71616124457E+02  0.64336369150E+02  0.55281820437E+02  0.11101404122E+03  0.00000000000E+00 0.  1.
<mgrwt>
<rscale>  0 0.20032915E+04</rscale>
<asrwt>0</asrwt>
<pdfrwt beam="1">  1        2 0.71952296E-01 0.20032915E+04</pdfrwt>
<pdfrwt beam="2">  1       -2 0.33003266E+00 0.20032915E+04</pdfrwt>
<totfact> 0.12846452E+00</totfact>
</mgrwt>
</event>
<event>
12    1  0.1489233E-007  0.1339263E+04  0.7818608E-02  0.8998996E-01
          1   -1    0    0  501    0  0.00000000000E+00  0.00000000000E+00  0.29756177943E+03  0.29756177943E+03  0.00000000000E+00 0. -1.
         -1   -1    0    0    0  501 -0.00000000000E+00 -0.00000000000E+00 -0.15069345581E+04  0.15069345581E+04  0.00000000000E+00 0.  1.
         23    2    1    2    0    0  0.44811237813E+01 -0.75609611945E+02 -0.85671761956E+03  0.86468810986E+03  0.89350734662E+02 0.  0.
        254    2    1    2    0    0 -0.44811237813E+01  0.75609611945E+02 -0.35265515912E+03  0.93980822769E+03  0.86783463268E+03 0.  0.
        -24    2    4    4    0    0 -0.29336476587E+03 -0.27261725253E+03 -0.20820219433E+03  0.45824350114E+03  0.79094249980E+02 0.  0.
         24    2    4    4    0    0  0.28888364209E+03  0.34822686447E+03 -0.14445296480E+03  0.48156472655E+03  0.79512382758E+02 0.  0.
         11    1    3    3    0    0 -0.12171826144E+01 -0.70909951588E+02 -0.85380957545E+03  0.85674995997E+03  0.00000000000E+00 0.  1.
        -11    1    3    3    0    0  0.56983063957E+01 -0.46996603577E+01 -0.29080441082E+01  0.79381498974E+01  0.00000000000E+00 0. -1.
          2    1    6    6  502    0  0.22135903423E+02  0.71418446162E+02 -0.18312118227E+02  0.76980038624E+02  0.00000000000E+00 0. -1.
          3    1    5    5  503    0 -0.62745587715E+02 -0.49164969012E+02 -0.86692360572E+01  0.80183281358E+02  0.00000000000E+00 0. -1.
         -2    1    5    5    0  503 -0.23061917816E+03 -0.22345228351E+03 -0.19953295827E+03  0.37806021978E+03  0.00000000000E+00 0.  1.
         -1    1    6    6    0  502  0.26674773867E+03  0.27680841831E+03 -0.12614084657E+03  0.40458468793E+03  0.00000000000E+00 0.  1.
<mgrwt>
<rscale>  0 0.13392627E+04</rscale>
<asrwt>0</asrwt>
<pdfrwt beam="1">  1        1 0.45778734E-01 0.13392627E+04</pdfrwt>
<pdfrwt beam="2">  1       -1 0.23183609E+00 0.13392627E+04</pdfrwt>
<totfact> 0.79728317E+00</totfact>
</mgrwt>
</event>
<event>
12    1  0.1489233E-007  0.4153374E+04  0.7818608E-02  0.7974301E-01
          1   -1    0    0  501    0  0.00000000000E+00  0.00000000000E+00  0.28986848517E+04  0.28986848517E+04  0.00000000000E+00 0. -1.
         -1   -1    0    0    0  501 -0.00000000000E+00 -0.00000000000E+00 -0.14877882984E+04  0.14877882984E+04  0.00000000000E+00 0.  1.
         23    2    1    2    0    0  0.12296630728E+04 -0.14674467687E+04  0.17990992243E+03  0.19251439432E+04  0.91325408319E+02 0.  0.
        254    2    1    2    0    0 -0.12296630728E+04  0.14674467687E+04  0.12309866309E+04  0.24613292069E+04  0.93666540876E+03 0.  0.
        -24    2    4    4    0    0 -0.69197866622E+03  0.13187332095E+04  0.11675144574E+04  0.18941917272E+04  0.83549618486E+02 0.  0.
         24    2    4    4    0    0 -0.53768440660E+03  0.14871355922E+03  0.63472173431E+02  0.56713747975E+03  0.79974748191E+02 0.  0.
         13    1    3    3    0    0  0.39561320099E+03 -0.48607743566E+03  0.10105267246E+03  0.63481707669E+03  0.00000000000E+00 0. -1.
        -13    1    3    3    0    0  0.83404987183E+03 -0.98136933304E+03  0.78857249970E+02  0.12903268665E+04  0.00000000000E+00 0.  1.
          2    1    6    6  502    0 -0.28233662227E+02 -0.66688065144E+01 -0.70890676970E+01  0.29864151484E+02  0.00000000000E+00 0. -1.
          3    1    5    5  503    0 -0.92325891070E+01  0.38951369279E+01  0.66562129452E+01  0.12029877974E+02  0.00000000000E+00 0. -1.
         -4    1    5    5    0  503 -0.68274607712E+03  0.13148380726E+04  0.11608582445E+04  0.18821618492E+04  0.00000000000E+00 0.  1.
         -1    1    6    6    0  502 -0.50945074437E+03  0.15538236573E+03  0.70561241128E+02  0.53727332827E+03  0.00000000000E+00 0.  1.
<mgrwt>
<rscale>  0 0.41533742E+04</rscale>
<asrwt>0</asrwt>
<pdfrwt beam="1">  1        1 0.44595151E+00 0.41533742E+04</pdfrwt>
<pdfrwt beam="2">  1       -1 0.22889051E+00 0.41533742E+04</pdfrwt>
<totfact> 0.52524932E-02</totfact>
</mgrwt>
</event>
<event>
12    1  0.1489233E-007  0.2191967E+04  0.7818608E-02  0.8521779E-01
         -1   -1    0    0    0  501 -0.00000000000E+00  0.00000000000E+00  0.12984937774E+04  0.12984937774E+04  0.00000000000E+00 0.  1.
          1   -1    0    0  501    0  0.00000000000E+00 -0.00000000000E+00 -0.92505627617E+03  0.92505627617E+03  0.00000000000E+00 0. -1.
         23    2    1    2    0    0  0.66601952628E+03 -0.49693051491E+03 -0.21484265868E+03  0.86313598600E+03  0.91238239324E+02 0.  0.
        254    2    1    2    0    0 -0.66601952628E+03  0.49693051491E+03  0.58828015990E+03  0.13604140676E+04  0.90229204954E+03 0.  0.
        -24    2    4    4    0    0 -0.30282633152E+03 -0.13337845947E+03 -0.10115430685E+03  0.35506378104E+03  0.79652333900E+02 0.  0.
         24    2    4    4    0    0 -0.36319319475E+03  0.63030897438E+03  0.68943446675E+03  0.10053502865E+04  0.78807453756E+02 0.  0.
         11    1    3    3    0    0  0.57925354486E+03 -0.43092597201E+03 -0.15370273348E+03  0.73814388358E+03  0.00000000000E+00 0.  1.
        -11    1    3    3    0    0  0.86765981414E+02 -0.66004542899E+02 -0.61139925205E+02  0.12499210242E+03  0.00000000000E+00 0. -1.
          4    1    6    6  502    0 -0.10358918070E+03  0.22482434593E+03  0.19398999254E+03  0.31449772985E+03  0.00000000000E+00 0. -1.
          1    1    5    5  503    0 -0.19608945200E+03 -0.84999360606E+02 -0.10434425057E+03  0.23783121561E+03  0.00000000000E+00 0. -1.
         -4    1    5    5    0  503 -0.10673687952E+03 -0.48379098864E+02  0.31899437171E+01  0.11723256543E+03  0.00000000000E+00 0.  1.
         -3    1    6    6    0  502 -0.25960401405E+03  0.40548462845E+03  0.49544447422E+03  0.69085255667E+03  0.00000000000E+00 0.  1.
<mgrwt>
<rscale>  0 0.21919670E+04</rscale>
<asrwt>0</asrwt>
<pdfrwt beam="1">  1        1 0.14231635E+00 0.21919670E+04</pdfrwt>
<pdfrwt beam="2">  1       -1 0.19976827E+00 0.21919670E+04</pdfrwt>
<totfact> 0.23924179E+00</totfact>
</mgrwt>
</event>
<event>
12    1  0.1489233E-007  0.1522585E+04  0.7818608E-02  0.8869572E-01
          1   -1    0    0  501    0  0.00000000000E+00  0.00000000000E+00  0.51639864719E+03  0.51639864719E+03  0.00000000000E+00 0. -1.
         -1   -1    0    0    0  501 -0.00000000000E+00 -0.00000000000E+00 -0.11223234121E+04  0.11223234121E+04  0.00000000000E+00 0.  1.
         23    2    1    2    0    0 -0.18559916699E+03 -0.29289289558E+03 -0.57475330650E+03  0.67777115127E+03  0.93803364054E+02 0.  0.
        254    2    1    2    0    0  0.18559916699E+03  0.29289289558E+03 -0.31171458432E+02  0.96095090804E+03  0.89566829171E+03 0.  0.
        -24    2    4    4    0    0 -0.19057032766E+03  0.31068525044E+03 -0.31004658202E+03  0.48535967676E+03  0.81257357673E+02 0.  0.
         24    2    4    4    0    0  0.37616949464E+03 -0.17792354867E+02  0.27887512359E+03  0.47559123128E+03  0.81213472512E+02 0.  0.
         11    1    3    3    0    0 -0.12708771043E+03 -0.26491351959E+03 -0.45605757976E+03  0.54251172804E+03  0.00000000000E+00 0.  1.
        -11    1    3    3    0    0 -0.58511456558E+02 -0.27979375991E+02 -0.11869572673E+03  0.13525942324E+03  0.00000000000E+00 0. -1.
          2    1    6    6  502    0 -0.34386075142E+01 -0.24409290639E+01  0.78425360602E+01  0.89043544509E+01  0.00000000000E+00 0. -1.
          1    1    5    5  503    0 -0.22567887183E+02  0.72051774701E+02 -0.10222398407E+03  0.12708465954E+03  0.00000000000E+00 0. -1.
         -2    1    5    5    0  503 -0.16800244047E+03  0.23863347574E+03 -0.20782259795E+03  0.35827501723E+03  0.00000000000E+00 0.  1.
         -1    1    6    6    0  502  0.37960810216E+03 -0.15351425803E+02  0.27103258753E+03  0.46668687683E+03  0.00000000000E+00 0.  1.
<mgrwt>
<rscale>  0 0.15225850E+04</rscale>
<asrwt>0</asrwt>
<pdfrwt beam="1">  1        1 0.79445947E-01 0.15225850E+04</pdfrwt>
<pdfrwt beam="2">  1       -1 0.17266514E+00 0.15225850E+04</pdfrwt>
<totfact> 0.96252028E+00</totfact>
</mgrwt>
</event>
<event>
12    1  0.1847377E-007  0.1836230E+04  0.7818608E-02  0.8687266E-01
         -2   -1    0    0    0  501 -0.00000000000E+00  0.00000000000E+00  0.30574478167E+03  0.30574478167E+03  0.00000000000E+00 0. -1.
          2   -1    0    0  501    0  0.00000000000E+00 -0.00000000000E+00 -0.27569899925E+04  0.27569899925E+04  0.00000000000E+00 0.  1.
         23    2    1    2    0    0 -0.42976934678E+03  0.94755724857E+01 -0.25405648213E+02  0.44021128412E+03  0.91373134988E+02 0.  0.
        254    2    1    2    0    0  0.42976934678E+03 -0.94755724857E+01 -0.24258395626E+04  0.26225234901E+04  0.89896629216E+03 0.  0.
        -24    2    4    4    0    0 -0.24973901026E+03  0.40445532264E+02 -0.36912327350E+03  0.45442564592E+03  0.79026972019E+02 0.  0.
         24    2    4    4    0    0  0.67950835704E+03 -0.49921104750E+02 -0.20567162891E+04  0.21680978441E+04  0.79640717204E+02 0.  0.
         13    1    3    3    0    0 -0.38722623279E+03  0.87943430137E+01  0.59259836184E+01  0.38737141494E+03  0.00000000000E+00 0. -1.
        -13    1    3    3    0    0 -0.42543113988E+02  0.68122947192E+00 -0.31331631832E+02  0.52839869177E+02  0.00000000000E+00 0.  1.
          2    1    6    6  502    0  0.67571839440E+03 -0.44834131724E+02 -0.20114529662E+04  0.21223921606E+04  0.00000000000E+00 0. -1.
          3    1    5    5  503    0 -0.18291144573E+03  0.50700651586E+02 -0.21917183704E+03  0.28993697108E+03  0.00000000000E+00 0. -1.
         -2    1    5    5    0  503 -0.66827564531E+02 -0.10255119322E+02 -0.14995143646E+03  0.16448867484E+03  0.00000000000E+00 0.  1.
         -3    1    6    6    0  502  0.37899626438E+01 -0.50869730259E+01 -0.45263322881E+02  0.45705683559E+02  0.00000000000E+00 0.  1.
<mgrwt>
<rscale>  0 0.18362302E+04</rscale>
<asrwt>0</asrwt>
<pdfrwt beam="1">  1        2 0.42415229E+00 0.18362302E+04</pdfrwt>
<pdfrwt beam="2">  1       -2 0.47037660E-01 0.18362302E+04</pdfrwt>
<totfact> 0.99209375E+00</totfact>
</mgrwt>
</event>
<event>
12    1  0.1489233E-007  0.1808233E+04  0.7818608E-02  0.8701934E-01
          1   -1    0    0  501    0  0.00000000000E+00  0.00000000000E+00  0.94992585154E+03  0.94992585154E+03  0.00000000000E+00 0. -1.
         -1   -1    0    0    0  501 -0.00000000000E+00 -0.00000000000E+00 -0.86051606381E+03  0.86051606381E+03  0.00000000000E+00 0.  1.
         23    2    1    2    0    0 -0.33819027327E+03  0.17009250856E+03  0.59248567281E+03  0.70880652963E+03  0.89795888284E+02 0.  0.
        254    2    1    2    0    0  0.33819027327E+03 -0.17009250856E+03 -0.50307588508E+03  0.11016353857E+04  0.90399726467E+03 0.  0.
        -24    2    4    4    0    0  0.62117142530E+03 -0.70894865242E+01 -0.42289685860E+03  0.75566846793E+03  0.79302458876E+02 0.  0.
         24    2    4    4    0    0 -0.28298115203E+03 -0.16300302204E+03 -0.80179026479E+02  0.34596691779E+03  0.81339500393E+02 0.  0.
         13    1    3    3    0    0 -0.39157048786E+02 -0.93638717474E+01  0.57913785413E+02  0.70533418353E+02  0.00000000000E+00 0.  1.
        -13    1    3    3    0    0 -0.29903322448E+03  0.17945638031E+03  0.53457188740E+03  0.63827311127E+03  0.00000000000E+00 0. -1.
          4    1    6    6  502    0 -0.61169751328E+01 -0.11530764071E+02  0.11428830958E+02  0.17349181015E+02  0.00000000000E+00 0. -1.
          3    1    5    5  503    0  0.54563642203E+02  0.13470585120E+02 -0.61456862179E+02  0.83280211472E+02  0.00000000000E+00 0. -1.
         -4    1    5    5    0  503  0.56660778309E+03 -0.20560071644E+02 -0.36143999642E+03  0.67238825646E+03  0.00000000000E+00 0.  1.
         -3    1    6    6    0  502 -0.27686417689E+03 -0.15147225797E+03 -0.91607857437E+02  0.32861773678E+03  0.00000000000E+00 0.  1.
<mgrwt>
<rscale>  0 0.18082328E+04</rscale>
<asrwt>0</asrwt>
<pdfrwt beam="1">  1        1 0.14614244E+00 0.18082328E+04</pdfrwt>
<pdfrwt beam="2">  1       -1 0.13238709E+00 0.18082328E+04</pdfrwt>
<totfact> 0.75706117E+00</totfact>
</mgrwt>
</event>
<event>
12    1  0.1489233E-007  0.2115495E+04  0.7818608E-02  0.8554448E-01
         -2   -1    0    0    0  501 -0.00000000000E+00  0.00000000000E+00  0.93870414748E+03  0.93870414748E+03  0.00000000000E+00 0.  1.
          2   -1    0    0  501    0  0.00000000000E+00 -0.00000000000E+00 -0.11918877884E+04  0.11918877884E+04  0.00000000000E+00 0. -1.
         23    2    1    2    0    0 -0.17096023193E+03 -0.86772856554E+02  0.74684830701E+03  0.77666037483E+03  0.93069944678E+02 0.  0.
        254    2    1    2    0    0  0.17096023193E+03  0.86772856554E+02 -0.10000319479E+04  0.13539315611E+04  0.89236194765E+03 0.  0.
        -24    2    4    4    0    0  0.65474394535E+02  0.48417561055E+03 -0.52844684463E+03  0.72387518147E+03  0.77629199126E+02 0.  0.
         24    2    4    4    0    0  0.10548583740E+03 -0.39740275399E+03 -0.47158510332E+03  0.63005637961E+03  0.74312320913E+02 0.  0.
         13    1    3    3    0    0 -0.28267114967E+02  0.19747664802E+02  0.10156585045E+03  0.10725960111E+03  0.00000000000E+00 0. -1.
        -13    1    3    3    0    0 -0.14269311696E+03 -0.10652052136E+03  0.64528245656E+03  0.66940077371E+03  0.00000000000E+00 0.  1.
          4    1    6    6  502    0  0.89446587954E+02 -0.31126979713E+03 -0.41220542043E+03  0.52421645084E+03  0.00000000000E+00 0. -1.
          3    1    5    5  503    0  0.73589250819E+02  0.47949198585E+03 -0.51512769974E+03  0.70759062273E+03  0.00000000000E+00 0. -1.
         -4    1    5    5    0  503 -0.81148562843E+01  0.46836246966E+01 -0.13319144882E+02  0.16284558736E+02  0.00000000000E+00 0.  1.
         -3    1    6    6    0  502  0.16039249443E+02 -0.86132956868E+02 -0.59379682885E+02  0.10583992876E+03  0.00000000000E+00 0.  1.
<mgrwt>
<rscale>  0 0.21154952E+04</rscale>
<asrwt>0</asrwt>
<pdfrwt beam="1">  1        2 0.18336735E+00 0.21154952E+04</pdfrwt>
<pdfrwt beam="2">  1       -2 0.14441602E+00 0.21154952E+04</pdfrwt>
<totfact> 0.58387399E+00</totfact>
</mgrwt>
</event>
<event>
12    1  0.1489233E-007  0.2207805E+04  0.7818608E-02  0.8515187E-01
         -2   -1    0    0    0  501 -0.00000000000E+00  0.00000000000E+00  0.13224953161E+04  0.13224953161E+04  0.00000000000E+00 0.  1.
          2   -1    0    0  501    0  0.00000000000E+00 -0.00000000000E+00 -0.92144025678E+03  0.92144025678E+03  0.00000000000E+00 0. -1.
         23    2    1    2    0    0 -0.62891376423E+03 -0.66951338844E+03  0.17983805979E+03  0.94040213934E+03  0.90740045058E+02 0.  0.
        254    2    1    2    0    0  0.62891376423E+03  0.66951338844E+03  0.22121699954E+03  0.13035334336E+04  0.89804329036E+03 0.  0.
        -24    2    4    4    0    0  0.49643042842E+03  0.88364212276E+03  0.13492693544E+03  0.10255828315E+04  0.79676188415E+02 0.  0.
         24    2    4    4    0    0  0.13248333581E+03 -0.21412873431E+03  0.86290064098E+02  0.27795060205E+03  0.80047566433E+02 0.  0.
         13    1    3    3    0    0 -0.78131145701E+02 -0.44269518500E+02  0.18268140107E+02  0.91640554013E+02  0.00000000000E+00 0. -1.
        -13    1    3    3    0    0 -0.55078261853E+03 -0.62524386994E+03  0.16156991969E+03  0.84876158532E+03  0.00000000000E+00 0.  1.
          2    1    6    6  502    0  0.37648276006E+02 -0.13234033268E+03  0.30912617750E+02  0.14102108451E+03  0.00000000000E+00 0. -1.
          1    1    5    5  503    0  0.23150913435E+03  0.33250338476E+03  0.55184547479E+02  0.40890135050E+03  0.00000000000E+00 0. -1.
         -2    1    5    5    0  503  0.26492129408E+03  0.55113873799E+03  0.79742387964E+02  0.61668148100E+03  0.00000000000E+00 0.  1.
         -3    1    6    6    0  502  0.94835059800E+02 -0.81788401629E+02  0.55377446348E+02  0.13692951753E+03  0.00000000000E+00 0.  1.
<mgrwt>
<rscale>  0 0.22078047E+04</rscale>
<asrwt>0</asrwt>
<pdfrwt beam="1">  1        2 0.14176004E+00 0.22078047E+04</pdfrwt>
<pdfrwt beam="2">  1       -2 0.20346082E+00 0.22078047E+04</pdfrwt>
<totfact> 0.32695473E+00</totfact>
</mgrwt>
</event>
<event>
12    1  0.1489233E-007  0.1802036E+04  0.7818608E-02  0.8705218E-01
          2   -1    0    0  501    0  0.00000000000E+00  0.00000000000E+00  0.16671107547E+04  0.16671107547E+04  0.00000000000E+00 0. -1.
         -2   -1    0    0    0  501 -0.00000000000E+00 -0.00000000000E+00 -0.48697007065E+03  0.48697007065E+03  0.00000000000E+00 0.  1.
         23    2    1    2    0    0 -0.86266044551E+02 -0.82229214561E+02  0.11779762261E+04  0.11875062062E+04  0.91321006815E+02 0.  0.
        254    2    1    2    0    0  0.86266044551E+02  0.82229214561E+02  0.21644579609E+01  0.96657461918E+03  0.95919671360E+03 0.  0.
        -24    2    4    4    0    0  0.18390280078E+03  0.43726333718E+03  0.22266717018E+03  0.52997269408E+03  0.79189150896E+02 0.  0.
         24    2    4    4    0    0 -0.97636756227E+02 -0.35503412262E+03 -0.22050271222E+03  0.43660192509E+03  0.80110114872E+02 0.  0.
         13    1    3    3    0    0 -0.30331658450E+02 -0.29965212143E+02  0.13162584132E+03  0.13835926259E+03  0.00000000000E+00 0.  1.
        -13    1    3    3    0    0 -0.55934386100E+02 -0.52264002419E+02  0.10463503848E+04  0.10491469436E+04  0.00000000000E+00 0. -1.
          4    1    6    6  502    0 -0.14087884951E+01 -0.31866663453E+02  0.30401875392E+01  0.32042341752E+02  0.00000000000E+00 0. -1.
          3    1    5    5  503    0  0.22967146844E+01 -0.34731655810E+01  0.10814572225E+01  0.43020143210E+01  0.00000000000E+00 0. -1.
         -4    1    5    5    0  503  0.18160608609E+03  0.44073650277E+03  0.22158571296E+03  0.52567067976E+03  0.00000000000E+00 0.  1.
         -3    1    6    6    0  502 -0.96227967732E+02 -0.32316745917E+03 -0.22354289976E+03  0.40455958334E+03  0.00000000000E+00 0.  1.
<mgrwt>
<rscale>  0 0.18020356E+04</rscale>
<asrwt>0</asrwt>
<pdfrwt beam="1">  1        2 0.25647857E+00 0.18020356E+04</pdfrwt>
<pdfrwt beam="2">  1       -2 0.74918473E-01 0.18020356E+04</pdfrwt>
<totfact> 0.15454421E+01</totfact>
</mgrwt>
</event>
<event>
12    1  0.1741082E-007  0.2808383E+04  0.7818608E-02  0.8300671E-01
         -2   -1    0    0    0  501 -0.00000000000E+00  0.00000000000E+00  0.13619975093E+04  0.13619975093E+04  0.00000000000E+00 0.  1.
          2   -1    0    0  501    0  0.00000000000E+00 -0.00000000000E+00 -0.14476923700E+04  0.14476923700E+04  0.00000000000E+00 0. -1.
         23    2    1    2    0    0 -0.31888135203E+03  0.67621443716E+03 -0.10528571692E+04  0.12944037918E+04  0.89563809354E+02 0.  0.
        254    2    1    2    0    0  0.31888135203E+03 -0.67621443716E+03  0.96716230858E+03  0.15152860874E+04  0.89539807571E+03 0.  0.
        -24    2    4    4    0    0  0.30945867228E+01 -0.67861254204E+02  0.79770398810E+03  0.80450415314E+03  0.79249943234E+02 0.  0.
         24    2    4    4    0    0  0.31578676531E+03 -0.60835318295E+03  0.16945832048E+03  0.71078193431E+03  0.81731018604E+02 0.  0.
         13    1    3    3    0    0 -0.24009198155E+03  0.56711825363E+03 -0.82077578858E+03  0.10261287289E+04  0.00000000000E+00 0. -1.
        -13    1    3    3    0    0 -0.78789370486E+02  0.10909618352E+03 -0.23208138061E+03  0.26827506293E+03  0.00000000000E+00 0.  1.
          4    1    6    6  502    0  0.26854180638E+02 -0.33412861016E+02  0.30173247896E+02  0.52421285635E+02  0.00000000000E+00 0. -1.
          1    1    5    5  503    0  0.13111395237E+02 -0.21238535468E+02  0.56497984728E+02  0.61765737689E+02  0.00000000000E+00 0. -1.
         -2    1    5    5    0  503 -0.10016808515E+02 -0.46622718736E+02  0.74120600337E+03  0.74273841545E+03  0.00000000000E+00 0.  1.
         -3    1    6    6    0  502  0.28893258467E+03 -0.57494032194E+03  0.13928507259E+03  0.65836064867E+03  0.00000000000E+00 0.  1.
<mgrwt>
<rscale>  0 0.28083827E+04</rscale>
<asrwt>0</asrwt>
<pdfrwt beam="1">  1        2 0.22272190E+00 0.28083827E+04</pdfrwt>
<pdfrwt beam="2">  1       -2 0.20953808E+00 0.28083827E+04</pdfrwt>
<totfact> 0.13627151E+00</totfact>
</mgrwt>
</event>
<event>
12    1  0.1489233E-007  0.3338431E+04  0.7818608E-02  0.8153185E-01
          1   -1    0    0  501    0  0.00000000000E+00  0.00000000000E+00  0.25669246351E+04  0.25669246351E+04  0.00000000000E+00 0.  1.
         -1   -1    0    0    0  501 -0.00000000000E+00 -0.00000000000E+00 -0.10854543797E+04  0.10854543797E+04  0.00000000000E+00 0. -1.
         23    2    1    2    0    0  0.54797414109E+03 -0.13939395419E+04  0.38978258392E+03  0.15501474353E+04  0.87655591562E+02 0.  0.
        254    2    1    2    0    0 -0.54797414109E+03  0.13939395419E+04  0.10916876715E+04  0.21022315795E+04  0.99209502366E+03 0.  0.
        -24    2    4    4    0    0  0.46707651506E+02 -0.25764675875E+01  0.43776275543E+03  0.44756428728E+03  0.80556305259E+02 0.  0.
         24    2    4    4    0    0 -0.59468179260E+03  0.13965160095E+04  0.65392491609E+03  0.16546672922E+04  0.80016578835E+02 0.  0.
         11    1    3    3    0    0  0.22845846337E+03 -0.54599578774E+03  0.19636672760E+03  0.62359005879E+03  0.00000000000E+00 0. -1.
        -11    1    3    3    0    0  0.31951567772E+03 -0.84794375417E+03  0.19341585633E+03  0.92655737654E+03  0.00000000000E+00 0.  1.
          2    1    6    6  502    0 -0.56603783474E+03  0.12783354127E+04  0.59229503156E+03  0.15183391130E+04  0.00000000000E+00 0. -1.
          3    1    5    5  503    0 -0.45665071087E+01 -0.33077566304E+02  0.14719038684E+03  0.15093040899E+03  0.00000000000E+00 0. -1.
         -4    1    5    5    0  503  0.51274158615E+02  0.30501098716E+02  0.29057236859E+03  0.29663387829E+03  0.00000000000E+00 0.  1.
         -1    1    6    6    0  502 -0.28643957860E+02  0.11818059681E+03  0.61629884539E+02  0.13632817923E+03  0.00000000000E+00 0.  1.
<mgrwt>
<rscale>  0 0.33384305E+04</rscale>
<asrwt>0</asrwt>
<pdfrwt beam="1">  1        1 0.39491148E+00 0.33384305E+04</pdfrwt>
<pdfrwt beam="2">  1       -1 0.16699298E+00 0.33384305E+04</pdfrwt>
<totfact> 0.26054402E-01</totfact>
</mgrwt>
</event>
<event>
12    1  0.1489233E-007  0.1665368E+04  0.7818608E-02  0.8781366E-01
          1   -1    0    0  501    0  0.00000000000E+00  0.00000000000E+00  0.17369806504E+04  0.17369806504E+04  0.00000000000E+00 0. -1.
         -1   -1    0    0    0  501 -0.00000000000E+00 -0.00000000000E+00 -0.39917702729E+03  0.39917702729E+03  0.00000000000E+00 0.  1.
         23    2    1    2    0    0  0.35122112906E+03 -0.25733078281E+03 -0.25697404309E+02  0.44568193640E+03  0.91633064801E+02 0.  0.
        254    2    1    2    0    0 -0.35122112906E+03  0.25733078281E+03  0.13635010274E+04  0.16904757413E+04  0.89944303147E+03 0.  0.
        -24    2    4    4    0    0 -0.43529052468E+03  0.47895933998E+03  0.12622359898E+04  0.14207657540E+04  0.80347642556E+02 0.  0.
         24    2    4    4    0    0  0.84069395624E+02 -0.22162855717E+03  0.10126503765E+03  0.26970998728E+03  0.79385066323E+02 0.  0.
         13    1    3    3    0    0  0.30124394597E+03 -0.20697172770E+03  0.11296317886E+02  0.36566763304E+03  0.00000000000E+00 0.  1.
        -13    1    3    3    0    0  0.49977183086E+02 -0.50359055105E+02 -0.36993722195E+02  0.80014303360E+02  0.00000000000E+00 0. -1.
          2    1    6    6  502    0  0.17068522392E+02 -0.11259838067E+03  0.13830863743E+02  0.11472150007E+03  0.00000000000E+00 0. -1.
          3    1    5    5  503    0 -0.39617181214E+03  0.44704934474E+03  0.11120679515E+04  0.12623392374E+04  0.00000000000E+00 0. -1.
         -2    1    5    5    0  503 -0.39118712546E+02  0.31909995235E+02  0.15016803827E+03  0.15842651667E+03  0.00000000000E+00 0.  1.
         -1    1    6    6    0  502  0.67000873232E+02 -0.10903017650E+03  0.87434173903E+02  0.15498848721E+03  0.00000000000E+00 0.  1.
<mgrwt>
<rscale>  0 0.16653682E+04</rscale>
<asrwt>0</asrwt>
<pdfrwt beam="1">  1        1 0.26722779E+00 0.16653682E+04</pdfrwt>
<pdfrwt beam="2">  1       -1 0.61411851E-01 0.16653682E+04</pdfrwt>
<totfact> 0.11542013E+01</totfact>
</mgrwt>
</event>
<event>
12    1  0.2880242E-007  0.2337215E+04  0.7818608E-02  0.8463390E-01
         -2   -1    0    0    0  501 -0.00000000000E+00  0.00000000000E+00  0.13035712264E+04  0.13035712264E+04  0.00000000000E+00 0. -1.
          2   -1    0    0  501    0  0.00000000000E+00 -0.00000000000E+00 -0.10476174896E+04  0.10476174896E+04  0.00000000000E+00 0.  1.
         23    2    1    2    0    0  0.57340884243E+03  0.80073459294E+02 -0.70276895676E+03  0.91434521517E+03  0.83267679476E+02 0.  0.
        254    2    1    2    0    0 -0.57340884243E+03 -0.80073459294E+02  0.95872269361E+03  0.14368435008E+04  0.90008920841E+03 0.  0.
        -24    2    4    4    0    0 -0.12049782364E+03 -0.37765529537E+03  0.96461403322E+02  0.41518148595E+03  0.76991014518E+02 0.  0.
         24    2    4    4    0    0 -0.45291101879E+03  0.29758183608E+03  0.86226129029E+03  0.10216620149E+04  0.81335107859E+02 0.  0.
         13    1    3    3    0    0  0.51691439937E+03  0.74885413042E+02 -0.66742218670E+03  0.84750262340E+03  0.00000000000E+00 0.  1.
        -13    1    3    3    0    0  0.56494443061E+02  0.51880462515E+01 -0.35346770062E+02  0.66842591770E+02  0.00000000000E+00 0. -1.
          4    1    6    6  502    0 -0.39564005469E+03  0.24222892337E+03  0.77727508278E+03  0.90518642196E+03  0.00000000000E+00 0. -1.
          3    1    5    5  503    0 -0.10027349230E+03 -0.31065316668E+03  0.47747037405E+02  0.32990899170E+03  0.00000000000E+00 0. -1.
         -4    1    5    5    0  503 -0.20224331341E+02 -0.67002128693E+02  0.48714365918E+02  0.85272494243E+02  0.00000000000E+00 0.  1.
         -1    1    6    6    0  502 -0.57270964105E+02  0.55352912707E+02  0.84986207508E+02  0.11647559290E+03  0.00000000000E+00 0.  1.
<mgrwt>
<rscale>  0 0.23372155E+04</rscale>
<asrwt>0</asrwt>
<pdfrwt beam="1">  1        2 0.16117192E+00 0.23372155E+04</pdfrwt>
<pdfrwt beam="2">  1       -2 0.20054942E+00 0.23372155E+04</pdfrwt>
<totfact> 0.27999001E+00</totfact>
</mgrwt>
</event>
<event>
12    1  0.1489233E-007  0.2077026E+04  0.7818608E-02  0.8571432E-01
         -2   -1    0    0    0  501 -0.00000000000E+00  0.00000000000E+00  0.34395019741E+03  0.34395019741E+03  0.00000000000E+00 0.  1.
          2   -1    0    0  501    0  0.00000000000E+00 -0.00000000000E+00 -0.31356546669E+04  0.31356546669E+04  0.00000000000E+00 0. -1.
         23    2    1    2    0    0 -0.78988673177E+03 -0.25190773378E+03 -0.13980125096E+04  0.16271663575E+04  0.76503742736E+02 0.  0.
        254    2    1    2    0    0  0.78988673177E+03  0.25190773378E+03 -0.13936919598E+04  0.18524385067E+04  0.89541754896E+03 0.  0.
        -24    2    4    4    0    0  0.15875226053E+03 -0.24628373372E+03 -0.78202699249E+03  0.83915127963E+03  0.82162615647E+02 0.  0.
         24    2    4    4    0    0  0.63113447124E+03  0.49819146750E+03 -0.61166496735E+03  0.10132872271E+04  0.78048147074E+02 0.  0.
         13    1    3    3    0    0 -0.68248502947E+03 -0.19778306897E+03 -0.11561349009E+04  0.13570379018E+04  0.00000000000E+00 0. -1.
        -13    1    3    3    0    0 -0.10740170230E+03 -0.54124664806E+02 -0.24187760875E+03  0.27012845576E+03  0.00000000000E+00 0.  1.
          4    1    6    6  502    0  0.11103252234E+03  0.64207212740E+02 -0.12593865979E+03  0.17975353463E+03  0.00000000000E+00 0. -1.
          3    1    5    5  503    0  0.86488165397E+02 -0.89571480869E+02 -0.24093528302E+03  0.27120668049E+03  0.00000000000E+00 0. -1.
         -4    1    5    5    0  503  0.72264095129E+02 -0.15671225285E+03 -0.54109170946E+03  0.56794459914E+03  0.00000000000E+00 0.  1.
         -3    1    6    6    0  502  0.52010194891E+03  0.43398425476E+03 -0.48572630756E+03  0.83353369248E+03  0.00000000000E+00 0.  1.
<mgrwt>
<rscale>  0 0.20770258E+04</rscale>
<asrwt>0</asrwt>
<pdfrwt beam="1">  1        2 0.48240838E+00 0.20770258E+04</pdfrwt>
<pdfrwt beam="2">  1       -2 0.52915418E-01 0.20770258E+04</pdfrwt>
<totfact> 0.44510394E+00</totfact>
</mgrwt>
</event>
<event>
12    1  0.1489233E-007  0.1804592E+04  0.7818608E-02  0.8703862E-01
          2   -1    0    0  501    0  0.00000000000E+00  0.00000000000E+00  0.23236318607E+04  0.23236318607E+04  0.00000000000E+00 0. -1.
         -2   -1    0    0    0  501 -0.00000000000E+00 -0.00000000000E+00 -0.35037291856E+03  0.35037291856E+03  0.00000000000E+00 0.  1.
         23    2    1    2    0    0  0.37725724862E+02  0.33380149949E+03  0.15953202761E+04  0.16328445199E+04  0.91037198159E+02 0.  0.
        254    2    1    2    0    0 -0.37725724862E+02 -0.33380149949E+03  0.37793866610E+03  0.10411602594E+04  0.91012657310E+03 0.  0.
        -24    2    4    4    0    0 -0.78384579130E+02 -0.43777448570E+03  0.61746124991E+03  0.76501522405E+03  0.78735349904E+02 0.  0.
         24    2    4    4    0    0  0.40658854267E+02  0.10397298621E+03 -0.23952258381E+03  0.27614503536E+03  0.80134188126E+02 0.  0.
         13    1    3    3    0    0 -0.32804035417E+01  0.47214593055E+02  0.40812167178E+03  0.41085676071E+03  0.00000000000E+00 0.  1.
        -13    1    3    3    0    0  0.41006128404E+02  0.28658690643E+03  0.11871986043E+04  0.12219877592E+04  0.00000000000E+00 0. -1.
          4    1    6    6  502    0 -0.64184249566E+00  0.23037601729E+02 -0.13794732951E+03  0.13985924630E+03  0.00000000000E+00 0. -1.
          3    1    5    5  503    0 -0.19844814735E+02 -0.31191924548E+03  0.44026066719E+03  0.53992303845E+03  0.00000000000E+00 0. -1.
         -4    1    5    5    0  503 -0.58539764394E+02 -0.12585524022E+03  0.17720058272E+03  0.22509218561E+03  0.00000000000E+00 0.  1.
         -3    1    6    6    0  502  0.41300696763E+02  0.80935384486E+02 -0.10157525429E+03  0.13628578906E+03  0.00000000000E+00 0.  1.
<mgrwt>
<rscale>  0 0.18045916E+04</rscale>
<asrwt>0</asrwt>
<pdfrwt beam="1">  1        2 0.35748181E+00 0.18045916E+04</pdfrwt>
<pdfrwt beam="2">  1       -2 0.53903528E-01 0.18045916E+04</pdfrwt>
<totfact> 0.13455346E+01</totfact>
</mgrwt>
</event>
<event>
12    1  0.1489233E-007  0.2022747E+04  0.7818608E-02  0.8596059E-01
          1   -1    0    0  501    0  0.00000000000E+00  0.00000000000E+00  0.24571126397E+04  0.24571126397E+04  0.00000000000E+00 0. -1.
         -1   -1    0    0    0  501 -0.00000000000E+00 -0.00000000000E+00 -0.41629183523E+03  0.41629183523E+03  0.00000000000E+00 0.  1.
         23    2    1    2    0    0 -0.38221839589E+03  0.87393556661E+02 -0.18392291024E+03  0.44260367333E+03  0.91333667572E+02 0.  0.
        254    2    1    2    0    0  0.38221839589E+03 -0.87393556661E+02  0.22247437147E+04  0.24308008016E+04  0.89754075393E+03 0.  0.
        -24    2    4    4    0    0  0.30485701216E+03  0.29100443179E+02  0.22457791430E+04  0.22679877058E+04  0.80371891444E+02 0.  0.
         24    2    4    4    0    0  0.77361383731E+02 -0.11649399984E+03 -0.21035428335E+02  0.16281309573E+03  0.80684442157E+02 0.  0.
         13    1    3    3    0    0 -0.36151700140E+03  0.70632163051E+02 -0.19116140326E+03  0.41500135766E+03  0.00000000000E+00 0.  1.
        -13    1    3    3    0    0 -0.20701394487E+02  0.16761393609E+02  0.72384930180E+01  0.27602315675E+02  0.00000000000E+00 0. -1.
          2    1    6    6  502    0  0.73243811423E+01  0.12721753667E+00 -0.25673780366E+02  0.26698422082E+02  0.00000000000E+00 0. -1.
          3    1    5    5  503    0  0.10236947303E+03  0.48280341093E+02  0.78650813611E+03  0.79461031236E+03  0.00000000000E+00 0. -1.
         -4    1    5    5    0  503  0.20248753913E+03 -0.19179897914E+02  0.14592710069E+04  0.14733773935E+04  0.00000000000E+00 0.  1.
         -3    1    6    6    0  502  0.70037002589E+02 -0.11662121738E+03  0.46383520307E+01  0.13611467365E+03  0.00000000000E+00 0.  1.
<mgrwt>
<rscale>  0 0.20227466E+04</rscale>
<asrwt>0</asrwt>
<pdfrwt beam="1">  1        1 0.37801732E+00 0.20227466E+04</pdfrwt>
<pdfrwt beam="2">  1       -1 0.64044899E-01 0.20227466E+04</pdfrwt>
<totfact> 0.33219371E+00</totfact>
</mgrwt>
</event>
<event>
12    1  0.1489233E-007  0.1349058E+04  0.7818608E-02  0.8991542E-01
          1   -1    0    0  501    0  0.00000000000E+00  0.00000000000E+00  0.11668971483E+04  0.11668971483E+04  0.00000000000E+00 0. -1.
         -1   -1    0    0    0  501 -0.00000000000E+00 -0.00000000000E+00 -0.38991383648E+03  0.38991383648E+03  0.00000000000E+00 0.  1.
         23    2    1    2    0    0  0.30256112762E+03 -0.27522578432E+02 -0.21674078701E+02  0.31743783926E+03  0.89421965087E+02 0.  0.
        254    2    1    2    0    0 -0.30256112762E+03  0.27522578432E+02  0.79865739047E+03  0.12393731455E+04  0.89771456380E+03 0.  0.
        -24    2    4    4    0    0 -0.14495488939E+03 -0.42488129364E+03  0.45658047050E+03  0.64535515658E+03  0.80507878121E+02 0.  0.
         24    2    4    4    0    0 -0.15760623823E+03  0.45240387208E+03  0.34207691997E+03  0.59401798888E+03  0.79572370431E+02 0.  0.
         11    1    3    3    0    0  0.18334948917E+03 -0.53124355606E+02  0.10996085717E+02  0.19120707685E+03  0.00000000000E+00 0.  1.
        -11    1    3    3    0    0  0.11921163845E+03  0.25601777174E+02 -0.32670164418E+02  0.12623076241E+03  0.00000000000E+00 0. -1.
          2    1    6    6  502    0 -0.82308672455E+02  0.12642590952E+03  0.11454095943E+03  0.18941451778E+03  0.00000000000E+00 0. -1.
          1    1    5    5  503    0 -0.26138677900E+02 -0.18695830294E+03  0.16513638825E+03  0.25081200977E+03  0.00000000000E+00 0. -1.
         -2    1    5    5    0  503 -0.11881621149E+03 -0.23792299070E+03  0.29144408225E+03  0.39454314681E+03  0.00000000000E+00 0.  1.
         -1    1    6    6    0  502 -0.75297565776E+02  0.32597796256E+03  0.22753596054E+03  0.40460347110E+03  0.00000000000E+00 0.  1.
<mgrwt>
<rscale>  0 0.13490580E+04</rscale>
<asrwt>0</asrwt>
<pdfrwt beam="1">  1        1 0.17952264E+00 0.13490580E+04</pdfrwt>
<pdfrwt beam="2">  1       -1 0.59986744E-01 0.13490580E+04</pdfrwt>
<totfact> 0.31172849E+01</totfact>
</mgrwt>
</event>
<event>
12    1  0.1489233E-007  0.2028089E+04  0.7818608E-02  0.8593599E-01
          2   -1    0    0  501    0  0.00000000000E+00  0.00000000000E+00  0.10831595238E+04  0.10831595238E+04  0.00000000000E+00 0. -1.
         -2   -1    0    0    0  501 -0.00000000000E+00 -0.00000000000E+00 -0.94933983965E+03  0.94933983965E+03  0.00000000000E+00 0.  1.
         23    2    1    2    0    0 -0.42134561875E+03  0.64150011853E+03 -0.81077006891E+02  0.77711881962E+03  0.91025525290E+02 0.  0.
        254    2    1    2    0    0  0.42134561875E+03 -0.64150011853E+03  0.21489669104E+03  0.12553805438E+04  0.96992019748E+03 0.  0.
        -24    2    4    4    0    0  0.64152614638E+03 -0.11306796816E+03  0.80267458862E+02  0.66172059296E+03  0.84208766038E+02 0.  0.
         24    2    4    4    0    0 -0.22018052763E+03 -0.52843215037E+03  0.13462923217E+03  0.59365995086E+03  0.81160980859E+02 0.  0.
         11    1    3    3    0    0 -0.24836055741E+03  0.38162901894E+03 -0.30654079488E+01  0.45533841404E+03  0.00000000000E+00 0. -1.
        -11    1    3    3    0    0 -0.17298506134E+03  0.25987109959E+03 -0.78011598942E+02  0.32178040559E+03  0.00000000000E+00 0.  1.
          2    1    6    6  502    0 -0.81622527335E+02 -0.23978540473E+03  0.22010685771E+02  0.25425134725E+03  0.00000000000E+00 0. -1.
          1    1    5    5  503    0  0.16784292429E+03  0.52471411218E+01  0.33659582239E+02  0.17126513714E+03  0.00000000000E+00 0. -1.
         -2    1    5    5    0  503  0.47368322210E+03 -0.11831510928E+03  0.46607876623E+02  0.49045545582E+03  0.00000000000E+00 0.  1.
         -1    1    6    6    0  502 -0.13855800029E+03 -0.28864674563E+03  0.11261854640E+03  0.33940860361E+03  0.00000000000E+00 0.  1.
<mgrwt>
<rscale>  0 0.20280892E+04</rscale>
<asrwt>0</asrwt>
<pdfrwt beam="1">  1        2 0.16663993E+00 0.20280892E+04</pdfrwt>
<pdfrwt beam="2">  1       -2 0.14605228E+00 0.20280892E+04</pdfrwt>
<totfact> 0.66506325E+00</totfact>
</mgrwt>
</event>
<event>
12    1  0.1496938E-007  0.2129490E+04  0.7818608E-02  0.8548363E-01
         -1   -1    0    0    0  501 -0.00000000000E+00  0.00000000000E+00  0.90995779825E+03  0.90995779825E+03  0.00000000000E+00 0.  1.
          1   -1    0    0  501    0  0.00000000000E+00 -0.00000000000E+00 -0.12458621091E+04  0.12458621091E+04  0.00000000000E+00 0. -1.
         23    2    1    2    0    0 -0.54847474453E+03 -0.62937335793E+02 -0.81185591100E+03  0.98595772447E+03  0.90647452288E+02 0.  0.
        254    2    1    2    0    0  0.54847474453E+03  0.62937335793E+02  0.47595160013E+03  0.11698621829E+04  0.91502018975E+03 0.  0.
        -24    2    4    4    0    0  0.90013517192E+02  0.10620095517E+03  0.65079091239E+03  0.67045476652E+03  0.81238575469E+02 0.  0.
         24    2    4    4    0    0  0.45846122734E+03 -0.43263619372E+02 -0.17483931226E+03  0.49940741637E+03  0.82344062804E+02 0.  0.
         11    1    3    3    0    0 -0.48901937426E+03 -0.39075893208E+02 -0.67091947273E+03  0.83114367754E+03  0.00000000000E+00 0. -1.
        -11    1    3    3    0    0 -0.59455370274E+02 -0.23861442585E+02 -0.14093643826E+03  0.15481404693E+03  0.00000000000E+00 0.  1.
          4    1    6    6  502    0  0.15787598020E+02 -0.60997550047E+01 -0.25772348905E+02  0.30832924455E+02  0.00000000000E+00 0. -1.
          1    1    5    5  503    0  0.32965654458E+02  0.25082045896E+01  0.66107784073E+02  0.73913899769E+02  0.00000000000E+00 0. -1.
         -2    1    5    5    0  503  0.57047862734E+02  0.10369275058E+03  0.58468312831E+03  0.59654086675E+03  0.00000000000E+00 0.  1.
         -3    1    6    6    0  502  0.44267362932E+03 -0.37163864367E+02 -0.14906696335E+03  0.46857449191E+03  0.00000000000E+00 0.  1.
<mgrwt>
<rscale>  0 0.21294900E+04</rscale>
<asrwt>0</asrwt>
<pdfrwt beam="1">  1        1 0.19167109E+00 0.21294900E+04</pdfrwt>
<pdfrwt beam="2">  1       -1 0.13999351E+00 0.21294900E+04</pdfrwt>
<totfact> 0.38054152E+00</totfact>
</mgrwt>
</event>
<event>
12    1  0.1489233E-007  0.2549032E+04  0.7818608E-02  0.8385723E-01
         -1   -1    0    0    0  501 -0.00000000000E+00  0.00000000000E+00  0.10865655867E+04  0.10865655867E+04  0.00000000000E+00 0.  1.
          1   -1    0    0  501    0  0.00000000000E+00 -0.00000000000E+00 -0.14949771766E+04  0.14949771766E+04  0.00000000000E+00 0. -1.
         23    2    1    2    0    0 -0.54870565917E+03  0.11110854929E+02  0.80114705425E+03  0.97575650753E+03  0.95198781290E+02 0.  0.
        254    2    1    2    0    0  0.54870565917E+03 -0.11110854929E+02 -0.12095586442E+04  0.16057862558E+04  0.90239461095E+03 0.  0.
        -24    2    4    4    0    0 -0.21436183727E+03  0.88842090973E+02 -0.13096223880E+03  0.27836174671E+03  0.80562023540E+02 0.  0.
         24    2    4    4    0    0  0.76306749644E+03 -0.99952945902E+02 -0.10785964054E+04  0.13274245090E+04  0.80143782766E+02 0.  0.
         11    1    3    3    0    0 -0.30280517597E+03  0.21847935167E+02  0.36311765372E+03  0.47331040270E+03  0.00000000000E+00 0. -1.
        -11    1    3    3    0    0 -0.24590048320E+03 -0.10737080238E+02  0.43802940053E+03  0.50244610483E+03  0.00000000000E+00 0.  1.
          4    1    6    6  502    0  0.75483580427E+03 -0.91503575700E+02 -0.10492119604E+04  0.12957606776E+04  0.00000000000E+00 0. -1.
          1    1    5    5  503    0 -0.14538237906E+03  0.63647969285E+02 -0.44304183586E+02  0.16477245164E+03  0.00000000000E+00 0. -1.
         -2    1    5    5    0  503 -0.68979458204E+02  0.25194121688E+02 -0.86658055216E+02  0.11358929507E+03  0.00000000000E+00 0.  1.
         -3    1    6    6    0  502  0.82316921683E+01 -0.84493702021E+01 -0.29384444994E+02  0.31663831422E+02  0.00000000000E+00 0.  1.
<mgrwt>
<rscale>  0 0.25490318E+04</rscale>
<asrwt>0</asrwt>
<pdfrwt beam="1">  1        1 0.22999649E+00 0.25490318E+04</pdfrwt>
<pdfrwt beam="2">  1       -1 0.16716394E+00 0.25490318E+04</pdfrwt>
<totfact> 0.15064983E+00</totfact>
</mgrwt>
</event>
<event>
12    1  0.1489233E-007  0.1700378E+04  0.7818608E-02  0.8761149E-01
         -2   -1    0    0    0  501 -0.00000000000E+00  0.00000000000E+00  0.50726719305E+03  0.50726719305E+03  0.00000000000E+00 0.  1.
          2   -1    0    0  501    0  0.00000000000E+00 -0.00000000000E+00 -0.14249322096E+04  0.14249322096E+04  0.00000000000E+00 0. -1.
         23    2    1    2    0    0 -0.40085831892E+03 -0.44088690727E+03 -0.17326492451E+03  0.62634209309E+03  0.84941313046E+02 0.  0.
        254    2    1    2    0    0  0.40085831892E+03  0.44088690727E+03 -0.74440009203E+03  0.13058573095E+04  0.89222371580E+03 0.  0.
        -24    2    4    4    0    0 -0.18731809459E+03 -0.11219158188E+03 -0.30489470675E+03  0.38311645911E+03  0.78373588854E+02 0.  0.
         24    2    4    4    0    0  0.58817641351E+03  0.55307848916E+03 -0.43950538528E+03  0.92274085044E+03  0.80239546336E+02 0.  0.
         13    1    3    3    0    0 -0.27194632869E+02 -0.66158279448E+02 -0.81760090479E+01  0.71995229844E+02  0.00000000000E+00 0.  1.
        -13    1    3    3    0    0 -0.37366368605E+03 -0.37472862783E+03 -0.16508891546E+03  0.55434686325E+03  0.00000000000E+00 0. -1.
          4    1    6    6  502    0  0.46162688501E+03  0.38620940320E+03 -0.32192644669E+03  0.68256407844E+03  0.00000000000E+00 0. -1.
          3    1    5    5  503    0 -0.15712047356E+03 -0.99565210811E+02 -0.29531138921E+03  0.34901130499E+03  0.00000000000E+00 0. -1.
         -4    1    5    5    0  503 -0.30197621032E+02 -0.12626371072E+02 -0.95833175442E+01  0.34105154121E+02  0.00000000000E+00 0.  1.
         -3    1    6    6    0  502  0.12654952850E+03  0.16686908595E+03 -0.11757893859E+03  0.24017677200E+03  0.00000000000E+00 0.  1.
<mgrwt>
<rscale>  0 0.17003780E+04</rscale>
<asrwt>0</asrwt>
<pdfrwt beam="1">  1        2 0.21922034E+00 0.17003780E+04</pdfrwt>
<pdfrwt beam="2">  1       -2 0.78041108E-01 0.17003780E+04</pdfrwt>
<totfact> 0.19472540E+01</totfact>
</mgrwt>
</event>
<event>
12    1  0.1489233E-007  0.1183417E+04  0.7818608E-02  0.9127497E-01
          2   -1    0    0  501    0  0.00000000000E+00  0.00000000000E+00  0.73540827630E+03  0.73540827630E+03  0.00000000000E+00 0. -1.
         -2   -1    0    0    0  501 -0.00000000000E+00 -0.00000000000E+00 -0.47608768900E+03  0.47608768900E+03  0.00000000000E+00 0.  1.
         23    2    1    2    0    0  0.11278995886E+03  0.80489882194E+02  0.24893577071E+03  0.29876451722E+03  0.89950113176E+02 0.  0.
        254    2    1    2    0    0 -0.11278995886E+03 -0.80489882194E+02  0.10384816589E+02  0.91273144807E+03  0.90209237661E+03 0.  0.
        -24    2    4    4    0    0  0.11799672607E+03 -0.35099343337E+03 -0.25940188186E+03  0.45910653301E+03  0.79811369518E+02 0.  0.
         24    2    4    4    0    0 -0.23078668492E+03  0.27050355118E+03  0.26978669845E+03  0.45362491507E+03  0.80969350820E+02 0.  0.
         13    1    3    3    0    0 -0.88071022524E+01  0.27704387898E+02  0.24104681842E+02  0.37764187342E+02  0.00000000000E+00 0.  1.
        -13    1    3    3    0    0  0.12159706111E+03  0.52785494295E+02  0.22483108887E+03  0.26100032988E+03  0.00000000000E+00 0. -1.
          4    1    6    6  502    0 -0.75929871152E+02  0.13508337870E+03  0.14950698081E+03  0.21532580395E+03  0.00000000000E+00 0. -1.
          3    1    5    5  503    0  0.86019653444E+02 -0.26952135898E+03 -0.23621889571E+03  0.36856547642E+03  0.00000000000E+00 0. -1.
         -4    1    5    5    0  503  0.31977072624E+02 -0.81472074398E+02 -0.23182986150E+02  0.90541056583E+02  0.00000000000E+00 0.  1.
         -3    1    6    6    0  502 -0.15485681377E+03  0.13542017248E+03  0.12027971763E+03  0.23829911112E+03  0.00000000000E+00 0.  1.
<mgrwt>
<rscale>  0 0.11834168E+04</rscale>
<asrwt>0</asrwt>
<pdfrwt beam="1">  1        2 0.11313974E+00 0.11834168E+04</pdfrwt>
<pdfrwt beam="2">  1       -2 0.73244260E-01 0.11834168E+04</pdfrwt>
<totfact> 0.63973221E+01</totfact>
</mgrwt>
</event>
<event>
12    1  0.1489233E-007  0.1750261E+04  0.7818608E-02  0.8733207E-01
         -2   -1    0    0    0  501 -0.00000000000E+00  0.00000000000E+00  0.42742120332E+03  0.42742120332E+03  0.00000000000E+00 0.  1.
          2   -1    0    0  501    0  0.00000000000E+00 -0.00000000000E+00 -0.17917995313E+04  0.17917995313E+04  0.00000000000E+00 0. -1.
         23    2    1    2    0    0  0.50732897248E+03 -0.75710013950E+02 -0.16573924291E+02  0.52130682232E+03  0.91495439797E+02 0.  0.
        254    2    1    2    0    0 -0.50732897248E+03  0.75710013950E+02 -0.13478044037E+04  0.16979139123E+04  0.89622555779E+03 0.  0.
        -24    2    4    4    0    0 -0.14376515921E+03  0.45600807084E+03 -0.78902354805E+03  0.92615188818E+03  0.81162669537E+02 0.  0.
         24    2    4    4    0    0 -0.36356381327E+03 -0.38029805689E+03 -0.55878085563E+03  0.77176202411E+03  0.81088339801E+02 0.  0.
         11    1    3    3    0    0  0.30524778950E+02  0.13746179626E+02  0.11433312098E+02  0.35375700839E+02  0.00000000000E+00 0. -1.
        -11    1    3    3    0    0  0.47680419353E+03 -0.89456193576E+02 -0.28007236388E+02  0.48593112148E+03  0.00000000000E+00 0.  1.
          4    1    6    6  502    0 -0.32447478927E+03 -0.29764504170E+03 -0.44856741217E+03  0.62856120067E+03  0.00000000000E+00 0. -1.
          1    1    5    5  503    0 -0.11366582119E+02  0.16304130944E+03 -0.26021916602E+03  0.30728762119E+03  0.00000000000E+00 0. -1.
         -2    1    5    5    0  503 -0.13239857709E+03  0.29296676140E+03 -0.52880438203E+03  0.61886426699E+03  0.00000000000E+00 0.  1.
         -3    1    6    6    0  502 -0.39089024001E+02 -0.82653015189E+02 -0.11021344346E+03  0.14320082345E+03  0.00000000000E+00 0.  1.
<mgrwt>
<rscale>  0 0.17502607E+04</rscale>
<asrwt>0</asrwt>
<pdfrwt beam="1">  1        2 0.27566146E+00 0.17502607E+04</pdfrwt>
<pdfrwt beam="2">  1       -2 0.65757109E-01 0.17502607E+04</pdfrwt>
<totfact> 0.17596301E+01</totfact>
</mgrwt>
</event>
<event>
12    1  0.1489233E-007  0.2277722E+04  0.7818608E-02  0.8486757E-01
         -2   -1    0    0    0  501 -0.00000000000E+00  0.00000000000E+00  0.14479747030E+04  0.14479747030E+04  0.00000000000E+00 0. -1.
          2   -1    0    0  501    0  0.00000000000E+00 -0.00000000000E+00 -0.89573652545E+03  0.89573652545E+03  0.00000000000E+00 0.  1.
         23    2    1    2    0    0 -0.10423702207E+03 -0.68361614411E+03  0.91822915710E+03  0.11530430428E+04  0.90371922136E+02 0.  0.
        254    2    1    2    0    0  0.10423702207E+03  0.68361614411E+03 -0.36599097955E+03  0.11906681857E+04  0.89752155518E+03 0.  0.
        -24    2    4    4    0    0 -0.13968375968E+03  0.11955362391E+03  0.24754970141E+03  0.31846528206E+03  0.79590574191E+02 0.  0.
         24    2    4    4    0    0  0.24392078174E+03  0.56406252020E+03 -0.61354068096E+03  0.87220290362E+03  0.81497628363E+02 0.  0.
         13    1    3    3    0    0  0.54508467237E+01 -0.25087767016E+03  0.32471302880E+03  0.41037527726E+03  0.00000000000E+00 0.  1.
        -13    1    3    3    0    0 -0.10968786879E+03 -0.43273847394E+03  0.59351612830E+03  0.74266776552E+03  0.00000000000E+00 0. -1.
          4    1    6    6  502    0  0.23352668489E+02  0.60970359733E+02 -0.33698347937E+02  0.73473196100E+02  0.00000000000E+00 0. -1.
          3    1    5    5  503    0 -0.13581023966E+03  0.79687677895E+02  0.17367011806E+03  0.23442665615E+03  0.00000000000E+00 0. -1.
         -4    1    5    5    0  503 -0.38735200155E+01  0.39865946016E+02  0.73879583348E+02  0.84038625909E+02  0.00000000000E+00 0.  1.
         -3    1    6    6    0  502  0.22056811325E+03  0.50309216046E+03 -0.57984233302E+03  0.79872970752E+03  0.00000000000E+00 0.  1.
<mgrwt>
<rscale>  0 0.22777215E+04</rscale>
<asrwt>0</asrwt>
<pdfrwt beam="1">  1        2 0.13780562E+00 0.22777215E+04</pdfrwt>
<pdfrwt beam="2">  1       -2 0.22276534E+00 0.22777215E+04</pdfrwt>
<totfact> 0.25443754E+00</totfact>
</mgrwt>
</event>
<event>
12    1  0.1573365E-007  0.2202341E+04  0.7818608E-02  0.8517455E-01
          2   -1    0    0  501    0  0.00000000000E+00  0.00000000000E+00  0.15204104052E+04  0.15204104052E+04  0.00000000000E+00 0. -1.
         -2   -1    0    0    0  501 -0.00000000000E+00 -0.00000000000E+00 -0.79753203382E+03  0.79753203382E+03  0.00000000000E+00 0.  1.
         23    2    1    2    0    0 -0.55626211036E+03  0.42874115573E+03  0.90432939852E+03  0.11488204377E+04  0.93435662920E+02 0.  0.
        254    2    1    2    0    0  0.55626211036E+03 -0.42874115573E+03 -0.18145102713E+03  0.11691220013E+04  0.91688345201E+03 0.  0.
        -24    2    4    4    0    0  0.73569399247E+03 -0.51176705632E+03 -0.17126238327E+02  0.90005015570E+03  0.81521802260E+02 0.  0.
         24    2    4    4    0    0 -0.17943188211E+03  0.83025900591E+02 -0.16432478881E+03  0.26907184558E+03  0.79422423659E+02 0.  0.
         13    1    3    3    0    0 -0.43229901788E+03  0.37291952967E+03  0.75985925461E+03  0.95044068899E+03  0.00000000000E+00 0. -1.
        -13    1    3    3    0    0 -0.12396309248E+03  0.55821626055E+02  0.14447014391E+03  0.19837974875E+03  0.00000000000E+00 0.  1.
          4    1    6    6  502    0 -0.16157834827E+03  0.97003081790E+02 -0.15686713821E+03  0.24520289468E+03  0.00000000000E+00 0. -1.
          1    1    5    5  503    0  0.71277125969E+03 -0.48872142317E+03 -0.20785046301E+01  0.86423134535E+03  0.00000000000E+00 0. -1.
         -2    1    5    5    0  503  0.22922732781E+02 -0.23045633147E+02 -0.15047733697E+02  0.35818810348E+02  0.00000000000E+00 0.  1.
         -3    1    6    6    0  502 -0.17853533835E+02 -0.13977181199E+02 -0.74576505957E+01  0.23868950900E+02  0.00000000000E+00 0.  1.
<mgrwt>
<rscale>  0 0.22023406E+04</rscale>
<asrwt>0</asrwt>
<pdfrwt beam="1">  1        2 0.23390929E+00 0.22023406E+04</pdfrwt>
<pdfrwt beam="2">  1       -2 0.12269724E+00 0.22023406E+04</pdfrwt>
<totfact> 0.56759261E+00</totfact>
</mgrwt>
</event>
<event>
12    1  0.1489233E-007  0.1560328E+04  0.7818608E-02  0.8845298E-01
          3   -1    0    0  501    0  0.00000000000E+00  0.00000000000E+00  0.67765640837E+03  0.67765640837E+03  0.00000000000E+00 0. -1.
         -3   -1    0    0    0  501 -0.00000000000E+00 -0.00000000000E+00 -0.89817724069E+03  0.89817724069E+03  0.00000000000E+00 0.  1.
         23    2    1    2    0    0 -0.22378872389E+03  0.19279041123E+03  0.35166383190E+03  0.46800420905E+03  0.90060831782E+02 0.  0.
        254    2    1    2    0    0  0.22378872389E+03 -0.19279041123E+03 -0.57218466422E+03  0.11078294400E+04  0.90146616276E+03 0.  0.
        -24    2    4    4    0    0  0.11944471122E+03  0.69621364026E+02 -0.74916204643E+03  0.76613592320E+03  0.81279195599E+02 0.  0.
         24    2    4    4    0    0  0.10434401267E+03 -0.26241177526E+03  0.17697738221E+03  0.34169351682E+03  0.75404594334E+02 0.  0.
         13    1    3    3    0    0 -0.14514219796E+03  0.16879227205E+03  0.22145269836E+03  0.31400379989E+03  0.00000000000E+00 0. -1.
        -13    1    3    3    0    0 -0.78646525922E+02  0.23998139177E+02  0.13021113354E+03  0.15400040916E+03  0.00000000000E+00 0.  1.
          2    1    6    6  502    0  0.55709133744E+02 -0.16249628690E+03  0.64249918137E+02  0.18340284300E+03  0.00000000000E+00 0. -1.
          3    1    5    5  503    0  0.31960962522E+02  0.13913879262E+01 -0.59015205607E+02  0.67128485597E+02  0.00000000000E+00 0. -1.
         -2    1    5    5    0  503  0.87483748695E+02  0.68229976100E+02 -0.69014684082E+03  0.69900743760E+03  0.00000000000E+00 0.  1.
         -1    1    6    6    0  502  0.48634878927E+02 -0.99915488357E+02  0.11272746407E+03  0.15829067382E+03  0.00000000000E+00 0.  1.
<mgrwt>
<rscale>  0 0.15603276E+04</rscale>
<asrwt>0</asrwt>
<pdfrwt beam="1">  1        3 0.10425483E+00 0.15603276E+04</pdfrwt>
<pdfrwt beam="2">  1       -3 0.13818111E+00 0.15603276E+04</pdfrwt>
<totfact> 0.79549734E-01</totfact>
</mgrwt>
</event>
<event>
12    1  0.1489233E-007  0.3027594E+04  0.7818608E-02  0.8235895E-01
         -1   -1    0    0    0  501 -0.00000000000E+00  0.00000000000E+00  0.82011115888E+03  0.82011115888E+03  0.00000000000E+00 0.  1.
          1   -1    0    0  501    0  0.00000000000E+00 -0.00000000000E+00 -0.27942333964E+04  0.27942333964E+04  0.00000000000E+00 0. -1.
         23    2    1    2    0    0  0.57652712639E+03  0.19146529103E+02  0.59401421255E+03  0.83305034784E+03  0.91487049799E+02 0.  0.
        254    2    1    2    0    0 -0.57652712639E+03 -0.19146529103E+02 -0.25681364501E+04  0.27812942074E+04  0.89862257099E+03 0.  0.
        -24    2    4    4    0    0 -0.64041024210E+03  0.23291604767E+03 -0.22959313773E+04  0.23962467711E+04  0.79514371199E+02 0.  0.
         24    2    4    4    0    0  0.63883115704E+02 -0.25206257677E+03 -0.27220507277E+03  0.38504743635E+03  0.80927940282E+02 0.  0.
         13    1    3    3    0    0  0.61058280499E+02 -0.26431502240E+02  0.64564535094E+02  0.92710933120E+02  0.00000000000E+00 0. -1.
        -13    1    3    3    0    0  0.51546884589E+03  0.45578031343E+02  0.52944967746E+03  0.74033941472E+03  0.00000000000E+00 0.  1.
          4    1    6    6  502    0  0.47651728359E+02 -0.89050234040E+02 -0.14928553129E+03  0.18024095331E+03  0.00000000000E+00 0. -1.
          3    1    5    5  503    0 -0.22939972532E+03  0.50061280735E+02 -0.71558769458E+03  0.75312423573E+03  0.00000000000E+00 0. -1.
         -4    1    5    5    0  503 -0.41101051678E+03  0.18285476693E+03 -0.15803436827E+04  0.16431225353E+04  0.00000000000E+00 0.  1.
         -3    1    6    6    0  502  0.16231387345E+02 -0.16301234273E+03 -0.12291954149E+03  0.20480648304E+03  0.00000000000E+00 0.  1.
<mgrwt>
<rscale>  0 0.30275944E+04</rscale>
<asrwt>0</asrwt>
<pdfrwt beam="1">  1        1 0.42988206E+00 0.30275944E+04</pdfrwt>
<pdfrwt beam="2">  1       -1 0.12617095E+00 0.30275944E+04</pdfrwt>
<totfact> 0.39031528E-01</totfact>
</mgrwt>
</event>
<event>
12    1  0.1489233E-007  0.1187920E+04  0.7818608E-02  0.9123496E-01
          2   -1    0    0  501    0  0.00000000000E+00  0.00000000000E+00  0.45360012611E+04  0.45360012611E+04  0.00000000000E+00 0. -1.
         -2   -1    0    0    0  501 -0.00000000000E+00 -0.00000000000E+00 -0.77775248549E+02  0.77775248549E+02  0.00000000000E+00 0.  1.
         23    2    1    2    0    0 -0.14933246282E+03 -0.10604991929E+03  0.37350246097E+03  0.42592092480E+03  0.91420872881E+02 0.  0.
        254    2    1    2    0    0  0.14933246282E+03  0.10604991929E+03  0.40847235516E+04  0.41878555849E+04  0.90532929748E+03 0.  0.
        -24    2    4    4    0    0 -0.31616930773E+03 -0.11848159715E+03  0.23690065836E+04  0.23942529334E+04  0.79082210418E+02 0.  0.
         24    2    4    4    0    0  0.46550177055E+03  0.22453151644E+03  0.17157169680E+04  0.17936026515E+04  0.78863532510E+02 0.  0.
         11    1    3    3    0    0  0.12031372275E+02 -0.68142776642E+01  0.14703404352E+02  0.20183617081E+02  0.00000000000E+00 0. -1.
        -11    1    3    3    0    0 -0.16136383510E+03 -0.99235641624E+02  0.35879905662E+03  0.40573730772E+03  0.00000000000E+00 0.  1.
          4    1    6    6  502    0  0.21002531214E+03  0.11983530783E+03  0.67988226948E+03  0.72160309943E+03  0.00000000000E+00 0. -1.
          1    1    5    5  503    0 -0.25082672612E+03 -0.10474018598E+03  0.20769134726E+04  0.20946250561E+04  0.00000000000E+00 0. -1.
         -2    1    5    5    0  503 -0.65342581612E+02 -0.13741411172E+02  0.29209311101E+03  0.29962787729E+03  0.00000000000E+00 0.  1.
         -3    1    6    6    0  502  0.25547645841E+03  0.10469620861E+03  0.10358346985E+04  0.10719995520E+04  0.00000000000E+00 0.  1.
<mgrwt>
<rscale>  0 0.11879202E+04</rscale>
<asrwt>0</asrwt>
<pdfrwt beam="1">  1        2 0.69784614E+00 0.11879202E+04</pdfrwt>
<pdfrwt beam="2">  1       -2 0.11965426E-01 0.11879202E+04</pdfrwt>
<totfact> 0.60965730E+00</totfact>
</mgrwt>
</event>
<event>
12    1  0.1489233E-007  0.1672849E+04  0.7818608E-02  0.8777003E-01
         -2   -1    0    0    0  501 -0.00000000000E+00  0.00000000000E+00  0.11412767605E+04  0.11412767605E+04  0.00000000000E+00 0. -1.
          2   -1    0    0  501    0  0.00000000000E+00 -0.00000000000E+00 -0.61300310242E+03  0.61300310242E+03  0.00000000000E+00 0.  1.
         23    2    1    2    0    0  0.54195868382E+03  0.95413479609E+02 -0.36989394833E+02  0.55898173988E+03  0.90936368596E+02 0.  0.
        254    2    1    2    0    0 -0.54195868382E+03 -0.95413479609E+02  0.56526305294E+03  0.11952981231E+04  0.89799350606E+03 0.  0.
        -24    2    4    4    0    0 -0.63967848884E+03  0.41714445868E+02  0.70957237286E+03  0.95960068662E+03  0.80074099231E+02 0.  0.
         24    2    4    4    0    0  0.97719805019E+02 -0.13712792548E+03 -0.14430931991E+03  0.23569743644E+03  0.79842804895E+02 0.  0.
         13    1    3    3    0    0  0.47762718750E+03  0.10023930800E+03 -0.57211291741E+02  0.49137437968E+03  0.00000000000E+00 0.  1.
        -13    1    3    3    0    0  0.64331496322E+02 -0.48258283925E+01  0.20221896908E+02  0.67607360200E+02  0.00000000000E+00 0. -1.
          2    1    6    6  502    0  0.10034629934E+03 -0.12254047829E+03 -0.96094490169E+02  0.18525576820E+03  0.00000000000E+00 0. -1.
          3    1    5    5  503    0 -0.53971656449E+03  0.14524147096E+02  0.56229514093E+03  0.77953880362E+03  0.00000000000E+00 0. -1.
         -4    1    5    5    0  503 -0.99961924350E+02  0.27190298772E+02  0.14727723193E+03  0.18006188301E+03  0.00000000000E+00 0.  1.
         -1    1    6    6    0  502 -0.26264943190E+01 -0.14587447186E+02 -0.48214829746E+02  0.50441668244E+02  0.00000000000E+00 0.  1.
<mgrwt>
<rscale>  0 0.16728493E+04</rscale>
<asrwt>0</asrwt>
<pdfrwt beam="1">  1        2 0.94308170E-01 0.16728493E+04</pdfrwt>
<pdfrwt beam="2">  1       -2 0.17558104E+00 0.16728493E+04</pdfrwt>
<totfact> 0.89604999E+00</totfact>
</mgrwt>
</event>
<event>
12    1  0.1489233E-007  0.1294636E+04  0.7818608E-02  0.9033830E-01
         -2   -1    0    0    0  501 -0.00000000000E+00  0.00000000000E+00  0.26970326229E+03  0.26970326229E+03  0.00000000000E+00 0.  1.
          2   -1    0    0  501    0  0.00000000000E+00 -0.00000000000E+00 -0.15536350424E+04  0.15536350424E+04  0.00000000000E+00 0. -1.
         23    2    1    2    0    0 -0.29051677570E+03  0.27645365489E+03 -0.51370225089E+03  0.65799285056E+03  0.90763255507E+02 0.  0.
        254    2    1    2    0    0  0.29051677570E+03 -0.27645365489E+03 -0.77022952920E+03  0.11653454541E+04  0.77714212310E+03 0.  0.
        -24    2    4    4    0    0 -0.95185155044E+02  0.73995040425E+02  0.79264454860E+02  0.16559559083E+03  0.81262329221E+02 0.  0.
         24    2    4    4    0    0  0.38570193075E+03 -0.35044869532E+03 -0.84949398406E+03  0.99974986328E+03  0.79243250475E+02 0.  0.
         11    1    3    3    0    0 -0.37547655471E+01  0.17821315300E+02 -0.57388580324E+02  0.60209191117E+02  0.00000000000E+00 0. -1.
        -11    1    3    3    0    0 -0.28676201016E+03  0.25863233959E+03 -0.45631367056E+03  0.59778365944E+03  0.00000000000E+00 0.  1.
          4    1    6    6  502    0  0.84570674180E+02 -0.97249724980E+02 -0.15523192637E+03  0.20175891282E+03  0.00000000000E+00 0. -1.
          3    1    5    5  503    0  0.58231413393E+01  0.33688825228E+02  0.66527199682E+01  0.34829651208E+02  0.00000000000E+00 0. -1.
         -4    1    5    5    0  503 -0.10100829638E+03  0.40306215197E+02  0.72611734892E+02  0.13076593962E+03  0.00000000000E+00 0.  1.
         -3    1    6    6    0  502  0.30113125657E+03 -0.25319897034E+03 -0.69426205770E+03  0.79799095046E+03  0.00000000000E+00 0.  1.
<mgrwt>
<rscale>  0 0.12946358E+04</rscale>
<asrwt>0</asrwt>
<pdfrwt beam="1">  1        2 0.23902077E+00 0.12946358E+04</pdfrwt>
<pdfrwt beam="2">  1       -2 0.41492810E-01 0.12946358E+04</pdfrwt>
<totfact> 0.63865782E+01</totfact>
</mgrwt>
</event>
<event>
12    1  0.1489233E-007  0.1506765E+04  0.7818608E-02  0.8879966E-01
          1   -1    0    0  501    0  0.00000000000E+00  0.00000000000E+00  0.10024561979E+04  0.10024561979E+04  0.00000000000E+00 0. -1.
         -1   -1    0    0    0  501 -0.00000000000E+00 -0.00000000000E+00 -0.56619476635E+03  0.56619476635E+03  0.00000000000E+00 0.  1.
         23    2    1    2    0    0 -0.32905343618E+03  0.65522364632E+02  0.49564073561E+03  0.60536595373E+03  0.90768138764E+02 0.  0.
        254    2    1    2    0    0  0.32905343618E+03 -0.65522364632E+02 -0.59379304012E+02  0.96328501056E+03  0.90101207855E+03 0.  0.
        -24    2    4    4    0    0 -0.14407174378E+03 -0.13166962500E+03  0.29629152124E+03  0.36234093526E+03  0.73544070518E+02 0.  0.
         24    2    4    4    0    0  0.47312517996E+03  0.66147260366E+02 -0.35567082525E+03  0.60094407529E+03  0.80057165378E+02 0.  0.
         11    1    3    3    0    0 -0.30791810148E+03  0.77645184262E+02  0.42426693057E+03  0.52994788444E+03  0.00000000000E+00 0. -1.
        -11    1    3    3    0    0 -0.21135334704E+02 -0.12122819630E+02  0.71373805040E+02  0.75418069285E+02  0.00000000000E+00 0.  1.
          4    1    6    6  502    0 -0.30569597872E+01 -0.15341629383E+01 -0.25171677595E+01  0.42467390538E+01  0.00000000000E+00 0. -1.
          1    1    5    5  503    0 -0.48608897066E+02 -0.11114664016E+02  0.42119675187E+02  0.65271951618E+02  0.00000000000E+00 0. -1.
         -2    1    5    5    0  503 -0.95462846715E+02 -0.12055496098E+03  0.25417184605E+03  0.29706898365E+03  0.00000000000E+00 0.  1.
         -1    1    6    6    0  502  0.47618213975E+03  0.67681423305E+02 -0.35315365749E+03  0.59669733624E+03  0.00000000000E+00 0.  1.
<mgrwt>
<rscale>  0 0.15067653E+04</rscale>
<asrwt>0</asrwt>
<pdfrwt beam="1">  1        1 0.15422403E+00 0.15067653E+04</pdfrwt>
<pdfrwt beam="2">  1       -1 0.87106887E-01 0.15067653E+04</pdfrwt>
<totfact> 0.18908219E+01</totfact>
</mgrwt>
</event>
<event>
12    1  0.1489233E-007  0.2086262E+04  0.7818608E-02  0.8567319E-01
         -1   -1    0    0    0  501 -0.00000000000E+00  0.00000000000E+00  0.89877292149E+03  0.89877292149E+03  0.00000000000E+00 0.  1.
          1   -1    0    0  501    0  0.00000000000E+00 -0.00000000000E+00 -0.12106752089E+04  0.12106752089E+04  0.00000000000E+00 0. -1.
         23    2    1    2    0    0  0.49873723572E+03  0.63349196295E+03 -0.37277081831E+03  0.89283066137E+03  0.90208699588E+02 0.  0.
        254    2    1    2    0    0 -0.49873723572E+03 -0.63349196295E+03  0.60868530874E+02  0.12166174690E+04  0.90906665900E+03 0.  0.
        -24    2    4    4    0    0 -0.26958328739E+03 -0.76362377170E+03 -0.20000965554E+03  0.83826625952E+03  0.83006300925E+02 0.  0.
         24    2    4    4    0    0 -0.22915394834E+03  0.13013180875E+03  0.26087818642E+03  0.37835120952E+03  0.75142464085E+02 0.  0.
         13    1    3    3    0    0  0.23353650918E+03  0.29050368930E+03 -0.22181981215E+03  0.43374615120E+03  0.00000000000E+00 0. -1.
        -13    1    3    3    0    0  0.26520072655E+03  0.34298827365E+03 -0.15095100616E+03  0.45908451017E+03  0.00000000000E+00 0.  1.
          2    1    6    6  502    0 -0.15959796102E+03  0.12356408038E+03  0.17118217487E+03  0.26465624518E+03  0.00000000000E+00 0. -1.
          1    1    5    5  503    0 -0.23428481813E+03 -0.72404881794E+03 -0.18568500064E+03  0.78333580681E+03  0.00000000000E+00 0. -1.
         -2    1    5    5    0  503 -0.35298469254E+02 -0.39574953764E+02 -0.14324654904E+02  0.54930452713E+02  0.00000000000E+00 0.  1.
         -1    1    6    6    0  502 -0.69555987313E+02  0.65677283727E+01  0.89696011550E+02  0.11369496433E+03  0.00000000000E+00 0.  1.
<mgrwt>
<rscale>  0 0.20862618E+04</rscale>
<asrwt>0</asrwt>
<pdfrwt beam="1">  1        1 0.18625772E+00 0.20862618E+04</pdfrwt>
<pdfrwt beam="2">  1       -1 0.13827276E+00 0.20862618E+04</pdfrwt>
<totfact> 0.41845523E+00</totfact>
</mgrwt>
</event>
<event>
12    1  0.1489233E-007  0.1651103E+04  0.7818608E-02  0.8789754E-01
         -1   -1    0    0    0  501 -0.00000000000E+00  0.00000000000E+00  0.25429441037E+03  0.25429441037E+03  0.00000000000E+00 0.  1.
          1   -1    0    0  501    0  0.00000000000E+00 -0.00000000000E+00 -0.26801024658E+04  0.26801024658E+04  0.00000000000E+00 0. -1.
         23    2    1    2    0    0 -0.72527967612E+02 -0.46427765887E+03 -0.14494148820E+04  0.15268915950E+04  0.98895865006E+02 0.  0.
        254    2    1    2    0    0  0.72527967612E+02  0.46427765887E+03 -0.97639317339E+03  0.14075052811E+04  0.89828360598E+03 0.  0.
        -24    2    4    4    0    0  0.34723874851E+03  0.29318934366E+03 -0.10401158737E+03  0.47359409733E+03  0.83295972405E+02 0.  0.
         24    2    4    4    0    0 -0.27471078089E+03  0.17108831521E+03 -0.87238158602E+03  0.93391118381E+03  0.80020265399E+02 0.  0.
         13    1    3    3    0    0 -0.69292016192E+02 -0.33272018671E+03 -0.11639804360E+04  0.12125817752E+04  0.00000000000E+00 0. -1.
        -13    1    3    3    0    0 -0.32359514204E+01 -0.13155747216E+03 -0.28543444602E+03  0.31430981982E+03  0.00000000000E+00 0.  1.
          2    1    6    6  502    0 -0.14542187478E+03  0.13660960063E+03 -0.51452976061E+03  0.55186101439E+03  0.00000000000E+00 0. -1.
          3    1    5    5  503    0  0.74439240592E+02  0.65281714598E+02 -0.59067939960E+02  0.11529060817E+03  0.00000000000E+00 0. -1.
         -4    1    5    5    0  503  0.27279950792E+03  0.22790762906E+03 -0.44943647410E+02  0.35830348916E+03  0.00000000000E+00 0.  1.
         -1    1    6    6    0  502 -0.12928890612E+03  0.34478714573E+02 -0.35785182541E+03  0.38205016942E+03  0.00000000000E+00 0.  1.
<mgrwt>
<rscale>  0 0.16511028E+04</rscale>
<asrwt>0</asrwt>
<pdfrwt beam="1">  1        1 0.41232349E+00 0.16511028E+04</pdfrwt>
<pdfrwt beam="2">  1       -1 0.39122214E-01 0.16511028E+04</pdfrwt>
<totfact> 0.61595007E+00</totfact>
</mgrwt>
</event>
<event>
12    1  0.1963177E-007  0.2890234E+04  0.7818608E-02  0.8275789E-01
          1   -1    0    0  501    0  0.00000000000E+00  0.00000000000E+00  0.12666447115E+04  0.12666447115E+04  0.00000000000E+00 0. -1.
         -1   -1    0    0    0  501 -0.00000000000E+00 -0.00000000000E+00 -0.16487362642E+04  0.16487362642E+04  0.00000000000E+00 0.  1.
         23    2    1    2    0    0  0.46066419608E+03  0.11722102765E+04  0.16559243077E+03  0.12736110283E+04  0.91519202433E+02 0.  0.
        254    2    1    2    0    0 -0.46066419608E+03 -0.11722102765E+04 -0.54768398343E+03  0.16417699473E+04  0.89953453537E+03 0.  0.
        -24    2    4    4    0    0  0.18182949964E+03 -0.74571602500E+03 -0.30516358237E+03  0.82947128698E+03  0.75785533122E+02 0.  0.
         24    2    4    4    0    0 -0.64249369572E+03 -0.42649425151E+03 -0.24252040106E+03  0.81229866035E+03  0.79482533103E+02 0.  0.
         13    1    3    3    0    0  0.21908145665E+03  0.59348333430E+03  0.38957910500E+02  0.63382716219E+03  0.00000000000E+00 0. -1.
        -13    1    3    3    0    0  0.24158273943E+03  0.57872694221E+03  0.12663452027E+03  0.63978386612E+03  0.00000000000E+00 0.  1.
          4    1    6    6  502    0 -0.60440027251E+03 -0.40503689109E+03 -0.24699421950E+03  0.76834934569E+03  0.00000000000E+00 0. -1.
          3    1    5    5  503    0  0.18872816628E+03 -0.70386859685E+03 -0.29209070399E+03  0.78508999595E+03  0.00000000000E+00 0. -1.
         -4    1    5    5    0  503 -0.68986666407E+01 -0.41847428154E+02 -0.13072878383E+02  0.44381291033E+02  0.00000000000E+00 0.  1.
         -3    1    6    6    0  502 -0.38093423210E+02 -0.21457360418E+02  0.44738184367E+01  0.43949314663E+02  0.00000000000E+00 0.  1.
<mgrwt>
<rscale>  0 0.28902339E+04</rscale>
<asrwt>0</asrwt>
<pdfrwt beam="1">  1        1 0.19486842E+00 0.28902339E+04</pdfrwt>
<pdfrwt beam="2">  1       -1 0.25365173E+00 0.28902339E+04</pdfrwt>
<totfact> 0.54189564E-01</totfact>
</mgrwt>
</event>
<event>
12    1  0.1489233E-007  0.1613397E+04  0.7818608E-02  0.8812360E-01
         -1   -1    0    0    0  501 -0.00000000000E+00  0.00000000000E+00  0.44934376666E+03  0.44934376666E+03  0.00000000000E+00 0.  1.
          1   -1    0    0  501    0  0.00000000000E+00 -0.00000000000E+00 -0.14482502553E+04  0.14482502553E+04  0.00000000000E+00 0. -1.
         23    2    1    2    0    0 -0.47686221011E+03 -0.62949454046E+02 -0.65104320608E+03  0.81374510757E+03  0.83448443464E+02 0.  0.
        254    2    1    2    0    0  0.47686221011E+03  0.62949454046E+02 -0.34786328251E+03  0.10838489143E+04  0.90684034129E+03 0.  0.
        -24    2    4    4    0    0  0.14948344629E+03 -0.40711958572E+03 -0.21687115987E+03  0.49087198644E+03  0.76358033632E+02 0.  0.
         24    2    4    4    0    0  0.32737876382E+03  0.47006903977E+03 -0.13099212264E+03  0.59297692789E+03  0.79504362595E+02 0.  0.
         11    1    3    3    0    0 -0.33960716786E+03 -0.66152271059E+02 -0.51527644627E+03  0.62066010626E+03  0.00000000000E+00 0. -1.
        -11    1    3    3    0    0 -0.13725504225E+03  0.32028170130E+01 -0.13576675981E+03  0.19308500131E+03  0.00000000000E+00 0.  1.
          4    1    6    6  502    0  0.29044415877E+03  0.43401290789E+03 -0.13978992137E+03  0.54061653295E+03  0.00000000000E+00 0. -1.
          1    1    5    5  503    0  0.14143116315E+03 -0.31058207844E+03 -0.14781320497E+03  0.37190421471E+03  0.00000000000E+00 0. -1.
         -2    1    5    5    0  503  0.80522831418E+01 -0.96537507284E+02 -0.69057954903E+02  0.11896777174E+03  0.00000000000E+00 0.  1.
         -3    1    6    6    0  502  0.36934605057E+02  0.36056131878E+02  0.87977987338E+01  0.52360394949E+02  0.00000000000E+00 0.  1.
<mgrwt>
<rscale>  0 0.16133967E+04</rscale>
<asrwt>0</asrwt>
<pdfrwt beam="1">  1        1 0.22280773E+00 0.16133967E+04</pdfrwt>
<pdfrwt beam="2">  1       -1 0.69129810E-01 0.16133967E+04</pdfrwt>
<totfact> 0.14420665E+01</totfact>
</mgrwt>
</event>
<event>
12    1  0.1489233E-007  0.1845626E+04  0.7818608E-02  0.8682405E-01
         -1   -1    0    0    0  501 -0.00000000000E+00  0.00000000000E+00  0.83862986970E+03  0.83862986970E+03  0.00000000000E+00 0.  1.
          1   -1    0    0  501    0  0.00000000000E+00 -0.00000000000E+00 -0.10154464809E+04  0.10154464809E+04  0.00000000000E+00 0. -1.
         23    2    1    2    0    0  0.46848712650E+03 -0.22687804598E+03  0.45008144764E+03  0.69472958925E+03  0.95509461436E+02 0.  0.
        254    2    1    2    0    0 -0.46848712650E+03  0.22687804598E+03 -0.62689805884E+03  0.11593467613E+04  0.82469988567E+03 0.  0.
        -24    2    4    4    0    0 -0.65068524737E+03 -0.11850150618E+02 -0.35879144889E+03  0.74803099697E+03  0.85365985089E+02 0.  0.
         24    2    4    4    0    0  0.18219812088E+03  0.23872819660E+03 -0.26810660995E+03  0.41131576438E+03  0.84333840330E+02 0.  0.
         11    1    3    3    0    0  0.88060427694E+02 -0.52905069470E+02  0.44101974533E+02  0.11179700112E+03  0.00000000000E+00 0. -1.
        -11    1    3    3    0    0  0.38042669880E+03 -0.17397297651E+03  0.40597947311E+03  0.58293258813E+03  0.00000000000E+00 0.  1.
          2    1    6    6  502    0  0.15074965591E+03  0.17287130408E+03 -0.15543726176E+03  0.27707524046E+03  0.00000000000E+00 0. -1.
          3    1    5    5  503    0 -0.62728541578E+03 -0.86166919153E+01 -0.36183441096E+03  0.72421362952E+03  0.00000000000E+00 0. -1.
         -4    1    5    5    0  503 -0.23399831596E+02 -0.32334587023E+01  0.30429620755E+01  0.23817367446E+02  0.00000000000E+00 0.  1.
         -1    1    6    6    0  502  0.31448464965E+02  0.65856892522E+02 -0.11266934819E+03  0.13424052392E+03  0.00000000000E+00 0.  1.
<mgrwt>
<rscale>  0 0.18456259E+04</rscale>
<asrwt>0</asrwt>
<pdfrwt beam="1">  1        1 0.15622254E+00 0.18456259E+04</pdfrwt>
<pdfrwt beam="2">  1       -1 0.12901998E+00 0.18456259E+04</pdfrwt>
<totfact> 0.71517123E+00</totfact>
</mgrwt>
</event>
<event>
12    1  0.1489233E-007  0.1604826E+04  0.7818608E-02  0.8817589E-01
          1   -1    0    0  501    0  0.00000000000E+00  0.00000000000E+00  0.12040846470E+04  0.12040846470E+04  0.00000000000E+00 0. -1.
         -1   -1    0    0    0  501 -0.00000000000E+00 -0.00000000000E+00 -0.53473528187E+03  0.53473528187E+03  0.00000000000E+00 0.  1.
         23    2    1    2    0    0 -0.49611623451E+03 -0.20738797397E+03  0.14400222311E+03  0.56405469823E+03  0.90994353925E+02 0.  0.
        254    2    1    2    0    0  0.49611623451E+03  0.20738797397E+03  0.52534714201E+03  0.11747652306E+04  0.90274173361E+03 0.  0.
        -24    2    4    4    0    0  0.67326537129E+03  0.35818238726E+03  0.25209574499E+03  0.80715928466E+03  0.79830842770E+02 0.  0.
         24    2    4    4    0    0 -0.17714913678E+03 -0.15079441328E+03  0.27325139702E+03  0.36760594597E+03  0.79668273479E+02 0.  0.
         13    1    3    3    0    0 -0.44269424586E+03 -0.20280302976E+03  0.15139487613E+03  0.50992908597E+03  0.00000000000E+00 0.  1.
        -13    1    3    3    0    0 -0.53421988649E+02 -0.45849442186E+01 -0.73926530197E+01  0.54125612268E+02  0.00000000000E+00 0. -1.
          2    1    6    6  502    0 -0.55842282529E+02 -0.97571518712E+02  0.10893259394E+03  0.15654032006E+03  0.00000000000E+00 0. -1.
          3    1    5    5  503    0  0.97192508219E+02  0.74345591756E+02  0.18318742532E+02  0.12373046107E+03  0.00000000000E+00 0. -1.
         -4    1    5    5    0  503  0.57607286307E+03  0.28383679550E+03  0.23377700246E+03  0.68342882360E+03  0.00000000000E+00 0.  1.
         -1    1    6    6    0  502 -0.12130685425E+03 -0.53222894571E+02  0.16431880309E+03  0.21106562591E+03  0.00000000000E+00 0.  1.
<mgrwt>
<rscale>  0 0.16048259E+04</rscale>
<asrwt>0</asrwt>
<pdfrwt beam="1">  1        1 0.18524379E+00 0.16048259E+04</pdfrwt>
<pdfrwt beam="2">  1       -1 0.82266967E-01 0.16048259E+04</pdfrwt>
<totfact> 0.14957058E+01</totfact>
</mgrwt>
</event>
<event>
12    1  0.1489233E-007  0.1473012E+04  0.7818608E-02  0.8902601E-01
         -2   -1    0    0    0  501 -0.00000000000E+00  0.00000000000E+00  0.56803834412E+03  0.56803834412E+03  0.00000000000E+00 0.  1.
          2   -1    0    0  501    0  0.00000000000E+00 -0.00000000000E+00 -0.95493681113E+03  0.95493681113E+03  0.00000000000E+00 0. -1.
         23    2    1    2    0    0  0.69005684021E+02 -0.14837879115E+03 -0.56441452158E+03  0.59474849788E+03  0.91564040217E+02 0.  0.
        254    2    1    2    0    0 -0.69005684021E+02  0.14837879115E+03  0.17751605457E+03  0.92822665738E+03  0.89627826468E+03 0.  0.
        -24    2    4    4    0    0 -0.46292148725E+03  0.76066491137E+02 -0.13824501957E+02  0.47579307443E+03  0.78137816671E+02 0.  0.
         24    2    4    4    0    0  0.39391580322E+03  0.72312300011E+02  0.19134055653E+03  0.45243358295E+03  0.87671030809E+02 0.  0.
         13    1    3    3    0    0 -0.28875888083E+01 -0.50389168545E+02 -0.74518448987E+02  0.90002253945E+02  0.00000000000E+00 0.  1.
        -13    1    3    3    0    0  0.71893272830E+02 -0.97989622603E+02 -0.48989607260E+03  0.50474624393E+03  0.00000000000E+00 0. -1.
          4    1    6    6  502    0  0.89029911470E+02 -0.93335965077E+01  0.72424457355E+02  0.11514661603E+03  0.00000000000E+00 0. -1.
          1    1    5    5  503    0 -0.89213776258E+01  0.27270914000E+01 -0.12883673800E+02  0.15906509889E+02  0.00000000000E+00 0. -1.
         -2    1    5    5    0  503 -0.45400010962E+03  0.73339399737E+02 -0.94082815704E+00  0.45988656454E+03  0.00000000000E+00 0.  1.
         -3    1    6    6    0  502  0.30488589175E+03  0.81645896519E+02  0.11891609917E+03  0.33728696692E+03  0.00000000000E+00 0.  1.
<mgrwt>
<rscale>  0 0.14730115E+04</rscale>
<asrwt>0</asrwt>
<pdfrwt beam="1">  1        2 0.14691335E+00 0.14730115E+04</pdfrwt>
<pdfrwt beam="2">  1       -2 0.87390515E-01 0.14730115E+04</pdfrwt>
<totfact> 0.29510642E+01</totfact>
</mgrwt>
</event>
<event>
12    1  0.1549777E-007  0.1770492E+04  0.7818608E-02  0.8722151E-01
         -2   -1    0    0    0  501 -0.00000000000E+00  0.00000000000E+00  0.40585108345E+03  0.40585108345E+03  0.00000000000E+00 0.  1.
          2   -1    0    0  501    0  0.00000000000E+00 -0.00000000000E+00 -0.19309058660E+04  0.19309058660E+04  0.00000000000E+00 0. -1.
         23    2    1    2    0    0 -0.22627270154E+03 -0.46642977995E+03 -0.61294442668E+02  0.53058962459E+03  0.94932954950E+02 0.  0.
        254    2    1    2    0    0  0.22627270154E+03  0.46642977995E+03 -0.14637603398E+04  0.18061673248E+04  0.92243698843E+03 0.  0.
        -24    2    4    4    0    0 -0.28598839030E+03  0.55988498551E+02 -0.85698120858E+03  0.90866294312E+03  0.79545464879E+02 0.  0.
         24    2    4    4    0    0  0.51226109184E+03  0.41044128140E+03 -0.60677913126E+03  0.89750438169E+03  0.80372441332E+02 0.  0.
         13    1    3    3    0    0 -0.96638201785E+02 -0.20684311701E+03  0.20228235807E+02  0.22919903713E+03  0.00000000000E+00 0.  1.
        -13    1    3    3    0    0 -0.12963449975E+03 -0.25958666295E+03 -0.81522678475E+02  0.30139058746E+03  0.00000000000E+00 0. -1.
          4    1    6    6  502    0  0.62242002481E+01  0.20201102952E+02 -0.29804930210E+02  0.36539828873E+02  0.00000000000E+00 0. -1.
          1    1    5    5  503    0 -0.67840609324E+01  0.14427114339E+02 -0.21378417168E+02  0.26668367620E+02  0.00000000000E+00 0. -1.
         -2    1    5    5    0  503 -0.27920432937E+03  0.41561384212E+02 -0.83560279142E+03  0.88199457550E+03  0.00000000000E+00 0.  1.
         -3    1    6    6    0  502  0.50603689159E+03  0.39024017845E+03 -0.57697420105E+03  0.86096455281E+03  0.00000000000E+00 0.  1.
<mgrwt>
<rscale>  0 0.17704917E+04</rscale>
<asrwt>0</asrwt>
<pdfrwt beam="1">  1        2 0.29706244E+00 0.17704917E+04</pdfrwt>
<pdfrwt beam="2">  1       -2 0.62438628E-01 0.17704917E+04</pdfrwt>
<totfact> 0.16435700E+01</totfact>
</mgrwt>
</event>
<event>
12    1  0.1489233E-007  0.1638934E+04  0.7818608E-02  0.8796980E-01
          2   -1    0    0  501    0  0.00000000000E+00  0.00000000000E+00  0.11481114608E+04  0.11481114608E+04  0.00000000000E+00 0. -1.
         -2   -1    0    0    0  501 -0.00000000000E+00 -0.00000000000E+00 -0.58489656306E+03  0.58489656306E+03  0.00000000000E+00 0.  1.
         23    2    1    2    0    0  0.12671641424E+03  0.33584960867E+03 -0.25419757910E+03  0.44920737616E+03  0.91207720615E+02 0.  0.
        254    2    1    2    0    0 -0.12671641424E+03 -0.33584960867E+03  0.81741247681E+03  0.12838006477E+04  0.92256649430E+03 0.  0.
        -24    2    4    4    0    0  0.41061207119E+02  0.23391043229E+03  0.59292045666E+03  0.64362549058E+03  0.79366183872E+02 0.  0.
         24    2    4    4    0    0 -0.16777762136E+03 -0.56976004096E+03  0.22449202015E+03  0.64017515708E+03  0.81558139508E+02 0.  0.
         13    1    3    3    0    0  0.12468966041E+03  0.24752345608E+03 -0.15983938707E+03  0.31994374878E+03  0.00000000000E+00 0. -1.
        -13    1    3    3    0    0  0.20267538338E+01  0.88326152586E+02 -0.94358192031E+02  0.12926362739E+03  0.00000000000E+00 0.  1.
          4    1    6    6  502    0 -0.14977219195E+03 -0.55594762671E+03  0.22295897016E+03  0.61743030012E+03  0.00000000000E+00 0. -1.
          1    1    5    5  503    0  0.55184675225E+02  0.22878630553E+03  0.55508510805E+03  0.60291624556E+03  0.00000000000E+00 0. -1.
         -2    1    5    5    0  503 -0.14123468105E+02  0.51241267582E+01  0.37835348605E+02  0.40709245024E+02  0.00000000000E+00 0.  1.
         -3    1    6    6    0  502 -0.18005429417E+02 -0.13812414248E+02  0.15330499936E+01  0.22744856960E+02  0.00000000000E+00 0.  1.
<mgrwt>
<rscale>  0 0.16389343E+04</rscale>
<asrwt>0</asrwt>
<pdfrwt beam="1">  1        2 0.17663253E+00 0.16389343E+04</pdfrwt>
<pdfrwt beam="2">  1       -2 0.89984087E-01 0.16389343E+04</pdfrwt>
<totfact> 0.20579613E+01</totfact>
</mgrwt>
</event>
<event>
12    1  0.1489233E-007  0.2110023E+04  0.7818608E-02  0.8556841E-01
          2   -1    0    0  501    0  0.00000000000E+00  0.00000000000E+00  0.11245104371E+04  0.11245104371E+04  0.00000000000E+00 0. -1.
         -2   -1    0    0    0  501 -0.00000000000E+00 -0.00000000000E+00 -0.98980745239E+03  0.98980745239E+03  0.00000000000E+00 0.  1.
         23    2    1    2    0    0  0.19186277447E+03 -0.33339178659E+03  0.83107632461E+03  0.91981749649E+03  0.86110173146E+02 0.  0.
        254    2    1    2    0    0 -0.19186277447E+03  0.33339178659E+03 -0.69637333988E+03  0.11945003930E+04  0.89102971491E+03 0.  0.
        -24    2    4    4    0    0 -0.41013765087E+03  0.38653977579E+03 -0.13667903673E+03  0.58633201805E+03  0.86476501869E+02 0.  0.
         24    2    4    4    0    0  0.21827487640E+03 -0.53147989203E+02 -0.55969430315E+03  0.60816837498E+03  0.78373649412E+02 0.  0.
         13    1    3    3    0    0  0.94738108228E+02 -0.12041914741E+03  0.41555544017E+03  0.44290225114E+03  0.00000000000E+00 0.  1.
        -13    1    3    3    0    0  0.97124666243E+02 -0.21297263918E+03  0.41552088444E+03  0.47691524535E+03  0.00000000000E+00 0. -1.
          2    1    6    6  502    0  0.73360527035E+02 -0.57097480458E+02 -0.21947949352E+03  0.23835506556E+03  0.00000000000E+00 0. -1.
          3    1    5    5  503    0 -0.26830371084E+03  0.28327121109E+03 -0.12817448257E+03  0.41068011672E+03  0.00000000000E+00 0. -1.
         -4    1    5    5    0  503 -0.14183394003E+03  0.10326856470E+03 -0.85045541590E+01  0.17565190133E+03  0.00000000000E+00 0.  1.
         -1    1    6    6    0  502  0.14491434936E+03  0.39494912551E+01 -0.34021480963E+03  0.36981330942E+03  0.00000000000E+00 0.  1.
<mgrwt>
<rscale>  0 0.21100226E+04</rscale>
<asrwt>0</asrwt>
<pdfrwt beam="1">  1        2 0.17300161E+00 0.21100226E+04</pdfrwt>
<pdfrwt beam="2">  1       -2 0.15227807E+00 0.21100226E+04</pdfrwt>
<totfact> 0.55772997E+00</totfact>
</mgrwt>
</event>
<event>
12    1  0.1489233E-007  0.1470562E+04  0.7818608E-02  0.8904268E-01
          1   -1    0    0  501    0  0.00000000000E+00  0.00000000000E+00  0.13479573304E+04  0.13479573304E+04  0.00000000000E+00 0. -1.
         -1   -1    0    0    0  501 -0.00000000000E+00 -0.00000000000E+00 -0.40107947008E+03  0.40107947008E+03  0.00000000000E+00 0.  1.
         23    2    1    2    0    0  0.35675164382E+02  0.39277196320E+03  0.25385190714E+03  0.47786496510E+03  0.91496457218E+02 0.  0.
        254    2    1    2    0    0 -0.35675164382E+02 -0.39277196320E+03  0.69302595318E+03  0.12711718354E+04  0.98997491423E+03 0.  0.
        -24    2    4    4    0    0  0.14848481442E+03 -0.61434689781E+03  0.73078559637E+03  0.96939895277E+03  0.78847262577E+02 0.  0.
         24    2    4    4    0    0 -0.18415997880E+03  0.22157493460E+03 -0.37759643194E+02  0.30177288259E+03  0.81429310313E+02 0.  0.
         13    1    3    3    0    0 -0.10167898614E+02  0.65346599496E+01  0.21874187200E+02  0.24991358678E+02  0.00000000000E+00 0.  1.
        -13    1    3    3    0    0  0.45843062997E+02  0.38623730325E+03  0.23197771994E+03  0.45287360643E+03  0.00000000000E+00 0. -1.
          2    1    6    6  502    0 -0.15296639405E+03  0.20808878968E+03 -0.54405517301E+02  0.26393109406E+03  0.00000000000E+00 0. -1.
          1    1    5    5  503    0  0.53982949794E+02 -0.37616320291E+03  0.45816192308E+03  0.59525226740E+03  0.00000000000E+00 0. -1.
         -2    1    5    5    0  503  0.94501864624E+02 -0.23818369490E+03  0.27262367330E+03  0.37414668537E+03  0.00000000000E+00 0.  1.
         -1    1    6    6    0  502 -0.31193584752E+02  0.13486144922E+02  0.16645874107E+02  0.37841788532E+02  0.00000000000E+00 0.  1.
<mgrwt>
<rscale>  0 0.14705618E+04</rscale>
<asrwt>0</asrwt>
<pdfrwt beam="1">  1        1 0.20737805E+00 0.14705618E+04</pdfrwt>
<pdfrwt beam="2">  1       -1 0.61704534E-01 0.14705618E+04</pdfrwt>
<totfact> 0.21596353E+01</totfact>
</mgrwt>
</event>
<event>
12    1  0.1489233E-007  0.1608545E+04  0.7818608E-02  0.8815316E-01
          2   -1    0    0  501    0  0.00000000000E+00  0.00000000000E+00  0.21118348838E+04  0.21118348838E+04  0.00000000000E+00 0. -1.
         -2   -1    0    0    0  501 -0.00000000000E+00 -0.00000000000E+00 -0.30629963101E+03  0.30629963101E+03  0.00000000000E+00 0.  1.
         23    2    1    2    0    0 -0.48376209108E+03  0.13039771629E+03  0.95065314626E+03  0.10784218469E+04  0.90680483721E+02 0.  0.
        254    2    1    2    0    0  0.48376209108E+03 -0.13039771629E+03  0.85488210650E+03  0.13397126679E+04  0.90165253361E+03 0.  0.
        -24    2    4    4    0    0  0.70821264038E+02 -0.17018566955E+03  0.89301846672E+03  0.91556681688E+03  0.82473030236E+02 0.  0.
         24    2    4    4    0    0  0.41294082704E+03  0.39787953262E+02 -0.38136360218E+02  0.42414585103E+03  0.79637385117E+02 0.  0.
         11    1    3    3    0    0 -0.39960201621E+03  0.13140242999E+03  0.73398010725E+03  0.84597586716E+03  0.00000000000E+00 0. -1.
        -11    1    3    3    0    0 -0.84160074868E+02 -0.10047136990E+01  0.21667303901E+03  0.23244597972E+03  0.00000000000E+00 0.  1.
          4    1    6    6  502    0  0.40655260053E+03  0.27593708330E+02 -0.42515496731E+02  0.40969988674E+03  0.00000000000E+00 0. -1.
          1    1    5    5  503    0  0.22394487912E+02 -0.55858523133E+02  0.49466490623E+03  0.49831220851E+03  0.00000000000E+00 0. -1.
         -2    1    5    5    0  503  0.48426776126E+02 -0.11432714642E+03  0.39835356049E+03  0.41725460837E+03  0.00000000000E+00 0.  1.
         -3    1    6    6    0  502  0.63882265152E+01  0.12194244931E+02  0.43791365135E+01  0.14445964283E+02  0.00000000000E+00 0.  1.
<mgrwt>
<rscale>  0 0.16085450E+04</rscale>
<asrwt>0</asrwt>
<pdfrwt beam="1">  1        2 0.32489767E+00 0.16085450E+04</pdfrwt>
<pdfrwt beam="2">  1       -2 0.47123021E-01 0.16085450E+04</pdfrwt>
<totfact> 0.23682734E+01</totfact>
</mgrwt>
</event>
<event>
12    1  0.1489233E-007  0.1698403E+04  0.7818608E-02  0.8762276E-01
          1   -1    0    0  501    0  0.00000000000E+00  0.00000000000E+00  0.13198602046E+04  0.13198602046E+04  0.00000000000E+00 0. -1.
         -1   -1    0    0    0  501 -0.00000000000E+00 -0.00000000000E+00 -0.54637820783E+03  0.54637820783E+03  0.00000000000E+00 0.  1.
         23    2    1    2    0    0 -0.34129947612E+03  0.50076239121E+03  0.34695132749E+03  0.70419208740E+03  0.90900866145E+02 0.  0.
        254    2    1    2    0    0  0.34129947612E+03 -0.50076239121E+03  0.42653066925E+03  0.11620463250E+04  0.89508376412E+03 0.  0.
        -24    2    4    4    0    0  0.47228017586E+03 -0.45193405066E+03 -0.48658762789E+02  0.66080894487E+03  0.83712817257E+02 0.  0.
         24    2    4    4    0    0 -0.13098069974E+03 -0.48828340559E+02  0.47518943204E+03  0.50123738013E+03  0.76770856263E+02 0.  0.
         13    1    3    3    0    0 -0.29932050250E+03  0.45596808525E+03  0.27911996283E+03  0.61270515881E+03  0.00000000000E+00 0. -1.
        -13    1    3    3    0    0 -0.41978973620E+02  0.44794305968E+02  0.67831364651E+02  0.91486928595E+02  0.00000000000E+00 0.  1.
          2    1    6    6  502    0 -0.13819212687E+03 -0.39744743155E+02  0.46103048234E+03  0.48293458582E+03  0.00000000000E+00 0. -1.
          3    1    5    5  503    0  0.18644866637E+03 -0.16863963302E+03 -0.59031254863E+02  0.25823849455E+03  0.00000000000E+00 0. -1.
         -2    1    5    5    0  503  0.28583150949E+03 -0.28329441763E+03  0.10372492074E+02  0.40257045032E+03  0.00000000000E+00 0.  1.
         -1    1    6    6    0  502  0.72114271230E+01 -0.90835974037E+01  0.14158949703E+02  0.18302794312E+02  0.00000000000E+00 0.  1.
<mgrwt>
<rscale>  0 0.16984026E+04</rscale>
<asrwt>0</asrwt>
<pdfrwt beam="1">  1        1 0.20305542E+00 0.16984026E+04</pdfrwt>
<pdfrwt beam="2">  1       -1 0.84058186E-01 0.16984026E+04</pdfrwt>
<totfact> 0.11687167E+01</totfact>
</mgrwt>
</event>
<event>
12    1  0.1489233E-007  0.1680882E+04  0.7818608E-02  0.8772344E-01
         -1   -1    0    0    0  501 -0.00000000000E+00  0.00000000000E+00  0.95729525983E+03  0.95729525983E+03  0.00000000000E+00 0.  1.
          1   -1    0    0  501    0  0.00000000000E+00 -0.00000000000E+00 -0.73785094085E+03  0.73785094085E+03  0.00000000000E+00 0. -1.
         23    2    1    2    0    0  0.50673013048E+03  0.15841778333E+03  0.35376161606E+03  0.64495943580E+03  0.94624381728E+02 0.  0.
        254    2    1    2    0    0 -0.50673013048E+03 -0.15841778333E+03 -0.13431729708E+03  0.10501867649E+04  0.89609122618E+03 0.  0.
        -24    2    4    4    0    0 -0.46478291275E+03 -0.12274847229E+03  0.32173567693E+03  0.58414168579E+03  0.81346910415E+02 0.  0.
         24    2    4    4    0    0 -0.41947217724E+02 -0.35669311045E+02 -0.45605297401E+03  0.46604507909E+03  0.78624626017E+02 0.  0.
         13    1    3    3    0    0  0.17410004079E+02  0.15612380064E+02  0.40192499128E+02  0.46500447733E+02  0.00000000000E+00 0. -1.
        -13    1    3    3    0    0  0.48932012640E+03  0.14280540327E+03  0.31356911694E+03  0.59845898806E+03  0.00000000000E+00 0.  1.
          2    1    6    6  502    0 -0.37921377272E+02 -0.59526318504E+02 -0.36917408991E+03  0.37586024279E+03  0.00000000000E+00 0. -1.
          1    1    5    5  503    0 -0.18305118188E+03 -0.89808425480E+02  0.13604902187E+03  0.24511757347E+03  0.00000000000E+00 0. -1.
         -2    1    5    5    0  503 -0.28173173087E+03 -0.32940046809E+02  0.18568665506E+03  0.33902411232E+03  0.00000000000E+00 0.  1.
         -1    1    6    6    0  502 -0.40258404512E+01  0.23857007459E+02 -0.86878884104E+02  0.90184836305E+02  0.00000000000E+00 0.  1.
<mgrwt>
<rscale>  0 0.16808822E+04</rscale>
<asrwt>0</asrwt>
<pdfrwt beam="1">  1        1 0.11351553E+00 0.16808822E+04</pdfrwt>
<pdfrwt beam="2">  1       -1 0.14727619E+00 0.16808822E+04</pdfrwt>
<totfact> 0.87778318E+00</totfact>
</mgrwt>
</event>
<event>
12    1  0.1489233E-007  0.2428893E+04  0.7818608E-02  0.8428765E-01
         -2   -1    0    0    0  501 -0.00000000000E+00  0.00000000000E+00  0.10987583914E+04  0.10987583914E+04  0.00000000000E+00 0.  1.
          2   -1    0    0  501    0  0.00000000000E+00 -0.00000000000E+00 -0.13423156338E+04  0.13423156338E+04  0.00000000000E+00 0. -1.
         23    2    1    2    0    0 -0.59942170395E+02  0.10387799329E+04 -0.31198280540E+02  0.10450546593E+04  0.92244758391E+02 0.  0.
        254    2    1    2    0    0  0.59942170395E+02 -0.10387799329E+04 -0.21235896193E+03  0.13960193659E+04  0.90615502457E+03 0.  0.
        -24    2    4    4    0    0 -0.20783493949E+03  0.66896046037E+02  0.15489404138E+02  0.23295033648E+03  0.79721355837E+02 0.  0.
         24    2    4    4    0    0  0.26777710989E+03 -0.11056759789E+04 -0.22784836607E+03  0.11630690294E+04  0.81183362720E+02 0.  0.
         11    1    3    3    0    0 -0.37525234370E+02  0.30912276234E+03  0.28049565396E+02  0.31265284827E+03  0.00000000000E+00 0.  1.
        -11    1    3    3    0    0 -0.22416936025E+02  0.72965717053E+03 -0.59247845936E+02  0.73240181101E+03  0.00000000000E+00 0. -1.
          4    1    6    6  502    0  0.80270725166E+02 -0.21671567394E+03 -0.27644898905E+02  0.23275161242E+03  0.00000000000E+00 0. -1.
          3    1    5    5  503    0 -0.82957450335E+02 -0.53677990221E+00 -0.22646726328E+02  0.85994772586E+02  0.00000000000E+00 0. -1.
         -4    1    5    5    0  503 -0.12487748916E+03  0.67432825940E+02  0.38136130467E+02  0.14695556390E+03  0.00000000000E+00 0.  1.
         -3    1    6    6    0  502  0.18750638472E+03 -0.88896030497E+03 -0.20020346717E+03  0.93031741701E+03  0.00000000000E+00 0.  1.
<mgrwt>
<rscale>  0 0.24288932E+04</rscale>
<asrwt>0</asrwt>
<pdfrwt beam="1">  1        2 0.20651010E+00 0.24288932E+04</pdfrwt>
<pdfrwt beam="2">  1       -2 0.16903975E+00 0.24288932E+04</pdfrwt>
<totfact> 0.30345803E+00</totfact>
</mgrwt>
</event>
<event>
12    1  0.1489233E-007  0.2108653E+04  0.7818608E-02  0.8557441E-01
         -2   -1    0    0    0  501 -0.00000000000E+00  0.00000000000E+00  0.63436521661E+03  0.63436521661E+03  0.00000000000E+00 0.  1.
          2   -1    0    0  501    0  0.00000000000E+00 -0.00000000000E+00 -0.17523099967E+04  0.17523099967E+04  0.00000000000E+00 0. -1.
         23    2    1    2    0    0 -0.68269926135E+03 -0.62513628234E+01 -0.10494228397E+04  0.12552932680E+04  0.91408595162E+02 0.  0.
        254    2    1    2    0    0  0.68269926135E+03  0.62513628234E+01 -0.68521940467E+02  0.11313819454E+04  0.89956238747E+03 0.  0.
        -24    2    4    4    0    0  0.27233945618E+03 -0.22705320395E+03  0.34267974666E+03  0.50025036890E+03  0.84256073953E+02 0.  0.
         24    2    4    4    0    0  0.41035980517E+03  0.23330456677E+03 -0.41120168712E+03  0.63113157645E+03  0.80087756403E+02 0.  0.
         13    1    3    3    0    0 -0.60338070482E+03  0.22403676409E+02 -0.93842961834E+03  0.11158944163E+04  0.00000000000E+00 0. -1.
        -13    1    3    3    0    0 -0.79318556530E+02 -0.28655039232E+02 -0.11099322131E+03  0.13939885172E+03  0.00000000000E+00 0.  1.
          2    1    6    6  502    0  0.35620539792E+03  0.18721503900E+03 -0.38001016645E+03  0.55347943317E+03  0.00000000000E+00 0. -1.
          3    1    5    5  503    0  0.10015236280E+03 -0.12382364142E+03  0.19068718456E+03  0.24844394197E+03  0.00000000000E+00 0. -1.
         -4    1    5    5    0  503  0.17218709338E+03 -0.10322956253E+03  0.15199256210E+03  0.25180642693E+03  0.00000000000E+00 0.  1.
         -1    1    6    6    0  502  0.54154407246E+02  0.46089527768E+02 -0.31191520675E+02  0.77652143281E+02  0.00000000000E+00 0.  1.
<mgrwt>
<rscale>  0 0.21086531E+04</rscale>
<asrwt>0</asrwt>
<pdfrwt beam="1">  1        2 0.26958615E+00 0.21086531E+04</pdfrwt>
<pdfrwt beam="2">  1       -2 0.97594649E-01 0.21086531E+04</pdfrwt>
<totfact> 0.73894903E+00</totfact>
</mgrwt>
</event>
<event>
12    1  0.1489233E-007  0.1348635E+04  0.7818608E-02  0.8991862E-01
         -1   -1    0    0    0  501 -0.00000000000E+00  0.00000000000E+00  0.12827375220E+04  0.12827375220E+04  0.00000000000E+00 0.  1.
          1   -1    0    0  501    0  0.00000000000E+00 -0.00000000000E+00 -0.35447963327E+03  0.35447963327E+03  0.00000000000E+00 0. -1.
         23    2    1    2    0    0  0.34621761069E+03 -0.95922357892E+02  0.17806587245E+03  0.41006604801E+03  0.85900966874E+02 0.  0.
        254    2    1    2    0    0 -0.34621761069E+03  0.95922357892E+02  0.75019201631E+03  0.12271511073E+04  0.90224389502E+03 0.  0.
        -24    2    4    4    0    0 -0.11127291971E+02  0.16931176790E+03  0.84230310175E+03  0.86292594867E+03  0.79852277900E+02 0.  0.
         24    2    4    4    0    0 -0.33509031871E+03 -0.73389410006E+02 -0.92111085438E+02  0.36422515863E+03  0.80647299527E+02 0.  0.
         11    1    3    3    0    0  0.82902705050E+02 -0.57541387756E+02  0.28715266670E+02  0.10492109583E+03  0.00000000000E+00 0. -1.
        -11    1    3    3    0    0  0.26331490564E+03 -0.38380970136E+02  0.14935060578E+03  0.30514495219E+03  0.00000000000E+00 0.  1.
          4    1    6    6  502    0 -0.23095585417E+03 -0.79948969884E+02 -0.88136731375E+02  0.25980863684E+03  0.00000000000E+00 0. -1.
          3    1    5    5  503    0 -0.70906503023E+00  0.13579262541E+03  0.47736931734E+03  0.49630797397E+03  0.00000000000E+00 0. -1.
         -4    1    5    5    0  503 -0.10418226940E+02  0.33519142493E+02  0.36493378441E+03  0.36661797470E+03  0.00000000000E+00 0.  1.
         -3    1    6    6    0  502 -0.10413446455E+03  0.65595598776E+01 -0.39743540635E+01  0.10441652179E+03  0.00000000000E+00 0.  1.
<mgrwt>
<rscale>  0 0.13486353E+04</rscale>
<asrwt>0</asrwt>
<pdfrwt beam="1">  1        1 0.54535329E-01 0.13486353E+04</pdfrwt>
<pdfrwt beam="2">  1       -1 0.19734423E+00 0.13486353E+04</pdfrwt>
<totfact> 0.10824535E+01</totfact>
</mgrwt>
</event>
<event>
12    1  0.1489233E-007  0.1637339E+04  0.7818608E-02  0.8797932E-01
          2   -1    0    0  501    0  0.00000000000E+00  0.00000000000E+00  0.84254613259E+03  0.84254613259E+03  0.00000000000E+00 0. -1.
         -2   -1    0    0    0  501 -0.00000000000E+00 -0.00000000000E+00 -0.79546990073E+03  0.79546990073E+03  0.00000000000E+00 0.  1.
         23    2    1    2    0    0 -0.49284330563E+03  0.10761085062E+03  0.25989997318E+03  0.57525798814E+03  0.94335241456E+02 0.  0.
        254    2    1    2    0    0  0.49284330563E+03 -0.10761085062E+03 -0.21282374132E+03  0.10627580452E+04  0.91087106588E+03 0.  0.
        -24    2    4    4    0    0 -0.25692824498E+03 -0.60099595078E+02 -0.12180860055E+03  0.30170914878E+03  0.81036972375E+02 0.  0.
         24    2    4    4    0    0  0.74977155061E+03 -0.47511255537E+02 -0.91015140768E+02  0.76104889640E+03  0.80603780034E+02 0.  0.
         11    1    3    3    0    0 -0.42554231864E+02  0.38235680270E+02  0.22089870413E+02  0.61325298777E+02  0.00000000000E+00 0.  1.
        -11    1    3    3    0    0 -0.45028907377E+03  0.69375170345E+02  0.23781010277E+03  0.51393268936E+03  0.00000000000E+00 0. -1.
          2    1    6    6  502    0  0.55804318233E+03 -0.29999939193E+02 -0.10253795564E+03  0.56817798447E+03  0.00000000000E+00 0. -1.
          3    1    5    5  503    0 -0.11586952437E+03 -0.62098923847E+02 -0.34900635030E+02  0.13601498941E+03  0.00000000000E+00 0. -1.
         -2    1    5    5    0  503 -0.14105872061E+03  0.19993287689E+01 -0.86907965520E+02  0.16569415937E+03  0.00000000000E+00 0.  1.
         -1    1    6    6    0  502  0.19172836829E+03 -0.17511316345E+02  0.11522814875E+02  0.19287091193E+03  0.00000000000E+00 0.  1.
<mgrwt>
<rscale>  0 0.16373394E+04</rscale>
<asrwt>0</asrwt>
<pdfrwt beam="1">  1        2 0.12962248E+00 0.16373394E+04</pdfrwt>
<pdfrwt beam="2">  1       -2 0.12237998E+00 0.16373394E+04</pdfrwt>
<totfact> 0.15529431E+01</totfact>
</mgrwt>
</event>
<event>
12    1  0.1489233E-007  0.1593322E+04  0.7818608E-02  0.8824661E-01
          1   -1    0    0  501    0  0.00000000000E+00  0.00000000000E+00  0.10576795958E+04  0.10576795958E+04  0.00000000000E+00 0. -1.
         -1   -1    0    0    0  501 -0.00000000000E+00 -0.00000000000E+00 -0.60005757919E+03  0.60005757919E+03  0.00000000000E+00 0.  1.
         23    2    1    2    0    0  0.39559384673E+03 -0.50995464962E+02 -0.21425260681E+03  0.46182692695E+03  0.91021436549E+02 0.  0.
        254    2    1    2    0    0 -0.39559384673E+03  0.50995464962E+02  0.67187462341E+03  0.11959102480E+04  0.90536776104E+03 0.  0.
        -24    2    4    4    0    0 -0.23515708462E+03 -0.93773538833E+02  0.85940634080E+03  0.89937829542E+03  0.78801831454E+02 0.  0.
         24    2    4    4    0    0 -0.16043676212E+03  0.14476900379E+03 -0.18753171739E+03  0.29653195261E+03  0.77878333271E+02 0.  0.
         11    1    3    3    0    0  0.10723786259E+03  0.77587893671E+01 -0.20403749383E+02  0.10943706399E+03  0.00000000000E+00 0. -1.
        -11    1    3    3    0    0  0.28835598414E+03 -0.58754254329E+02 -0.19384885743E+03  0.35238986297E+03  0.00000000000E+00 0.  1.
          4    1    6    6  502    0 -0.37917193740E+02  0.65223203724E+02 -0.10327648936E+03  0.12789766667E+03  0.00000000000E+00 0. -1.
          1    1    5    5  503    0 -0.12544519068E+03 -0.84654416127E+02  0.56974327998E+03  0.58950001792E+03  0.00000000000E+00 0. -1.
         -2    1    5    5    0  503 -0.10971189394E+03 -0.91191227058E+01  0.28966306081E+03  0.30987827751E+03  0.00000000000E+00 0.  1.
         -3    1    6    6    0  502 -0.12251956838E+03  0.79545800071E+02 -0.84255228029E+02  0.16863428594E+03  0.00000000000E+00 0.  1.
<mgrwt>
<rscale>  0 0.15933219E+04</rscale>
<asrwt>0</asrwt>
<pdfrwt beam="1">  1        1 0.16271994E+00 0.15933219E+04</pdfrwt>
<pdfrwt beam="2">  1       -1 0.92316551E-01 0.15933219E+04</pdfrwt>
<totfact> 0.14967885E+01</totfact>
</mgrwt>
</event>
<event>
12    1  0.1489233E-007  0.1299464E+04  0.7818608E-02  0.9029990E-01
         -2   -1    0    0    0  501 -0.00000000000E+00  0.00000000000E+00  0.27520781311E+03  0.27520781311E+03  0.00000000000E+00 0.  1.
          2   -1    0    0  501    0  0.00000000000E+00 -0.00000000000E+00 -0.15339383239E+04  0.15339383239E+04  0.00000000000E+00 0. -1.
         23    2    1    2    0    0 -0.11219673998E+03  0.22378566507E+03 -0.61472681756E+03  0.66984219593E+03  0.90174136400E+02 0.  0.
        254    2    1    2    0    0  0.11219673998E+03 -0.22378566507E+03 -0.64400369323E+03  0.11393039411E+04  0.90587227627E+03 0.  0.
        -24    2    4    4    0    0 -0.11430799486E+03 -0.12901859626E+03 -0.81021430962E+03  0.83218603325E+03  0.79838903744E+02 0.  0.
         24    2    4    4    0    0  0.22650473484E+03 -0.94767068808E+02  0.16621061639E+03  0.30711790783E+03  0.80064024849E+02 0.  0.
         11    1    3    3    0    0 -0.11357812626E+02  0.43817951644E+02 -0.21838693474E+03  0.22302884580E+03  0.00000000000E+00 0.  1.
        -11    1    3    3    0    0 -0.10083892735E+03  0.17996771343E+03 -0.39633988282E+03  0.44681335014E+03  0.00000000000E+00 0. -1.
          2    1    6    6  502    0  0.17047492410E+03 -0.47258488808E+02  0.14989009421E+03  0.23186656692E+03  0.00000000000E+00 0. -1.
          1    1    5    5  503    0 -0.67786204080E+02 -0.10485862973E+03 -0.68746205383E+03  0.69870907905E+03  0.00000000000E+00 0. -1.
         -2    1    5    5    0  503 -0.46521790784E+02 -0.24159966534E+02 -0.12275225580E+03  0.13347695421E+03  0.00000000000E+00 0.  1.
         -1    1    6    6    0  502  0.56029810736E+02 -0.47508580000E+02  0.16320522177E+02  0.75251340911E+02  0.00000000000E+00 0.  1.
<mgrwt>
<rscale>  0 0.12994642E+04</rscale>
<asrwt>0</asrwt>
<pdfrwt beam="1">  1        2 0.23599051E+00 0.12994642E+04</pdfrwt>
<pdfrwt beam="2">  1       -2 0.42339664E-01 0.12994642E+04</pdfrwt>
<totfact> 0.62930043E+01</totfact>
</mgrwt>
</event>
<event>
12    1  0.1489233E-007  0.1241564E+04  0.7818608E-02  0.9077234E-01
          1   -1    0    0  501    0  0.00000000000E+00  0.00000000000E+00  0.16226611339E+04  0.16226611339E+04  0.00000000000E+00 0. -1.
         -1   -1    0    0    0  501 -0.00000000000E+00 -0.00000000000E+00 -0.23749283018E+03  0.23749283018E+03  0.00000000000E+00 0.  1.
         23    2    1    2    0    0 -0.17490514353E+03  0.22403629354E+03  0.32070537516E+03  0.43809980061E+03  0.91079237913E+02 0.  0.
        254    2    1    2    0    0  0.17490514353E+03 -0.22403629354E+03  0.10644629286E+04  0.14220541635E+04  0.89909546074E+03 0.  0.
        -24    2    4    4    0    0 -0.38507012011E+02 -0.45495165408E+03  0.21119310227E+03  0.50919654344E+03  0.78833976670E+02 0.  0.
         24    2    4    4    0    0  0.21341215554E+03  0.23091536054E+03  0.85326982632E+03  0.91285762006E+03  0.79830984727E+02 0.  0.
         13    1    3    3    0    0 -0.63938886386E+02  0.36411189197E+02  0.12554341668E+03  0.14551668414E+03  0.00000000000E+00 0. -1.
        -13    1    3    3    0    0 -0.11096625714E+03  0.18762510434E+03  0.19516195848E+03  0.29258311646E+03  0.00000000000E+00 0.  1.
          2    1    6    6  502    0  0.50009627100E+02  0.31822500743E+02  0.94372423368E+02  0.11144410549E+03  0.00000000000E+00 0. -1.
          3    1    5    5  503    0 -0.14665998780E+02 -0.12993742836E+02  0.21461536943E+01  0.19711287345E+02  0.00000000000E+00 0. -1.
         -4    1    5    5    0  503 -0.23841013231E+02 -0.44195791124E+03  0.20904694857E+03  0.48948525609E+03  0.00000000000E+00 0.  1.
         -1    1    6    6    0  502  0.16340252844E+03  0.19909285980E+03  0.75889740295E+03  0.80141351457E+03  0.00000000000E+00 0.  1.
<mgrwt>
<rscale>  0 0.12415642E+04</rscale>
<asrwt>0</asrwt>
<pdfrwt beam="1">  1        1 0.24964017E+00 0.12415642E+04</pdfrwt>
<pdfrwt beam="2">  1       -1 0.36537359E-01 0.12415642E+04</pdfrwt>
<totfact> 0.38154222E+01</totfact>
</mgrwt>
</event>
<event>
12    1  0.1489233E-007  0.1628479E+04  0.7818608E-02  0.8803241E-01
          2   -1    0    0  501    0  0.00000000000E+00  0.00000000000E+00  0.24227741177E+04  0.24227741177E+04  0.00000000000E+00 0. -1.
         -2   -1    0    0    0  501 -0.00000000000E+00 -0.00000000000E+00 -0.27364739595E+03  0.27364739595E+03  0.00000000000E+00 0.  1.
         23    2    1    2    0    0 -0.34583461049E+03  0.36671850484E+03  0.35734919607E+03  0.62445952787E+03  0.90372641927E+02 0.  0.
        254    2    1    2    0    0  0.34583461049E+03 -0.36671850484E+03  0.17917775257E+04  0.20719619858E+04  0.91020642127E+03 0.  0.
        -24    2    4    4    0    0  0.14318761903E+03 -0.48815962703E+03  0.17429146602E+04  0.18173724868E+04  0.79301494842E+02 0.  0.
         24    2    4    4    0    0  0.20264699146E+03  0.12144112219E+03  0.48862865431E+02  0.25458949899E+03  0.81329478484E+02 0.  0.
         13    1    3    3    0    0 -0.34698745414E+03  0.36752100316E+03  0.36061885890E+03  0.62090091198E+03  0.00000000000E+00 0.  1.
        -13    1    3    3    0    0  0.11528436478E+01 -0.80249831838E+00 -0.32696628355E+01  0.35586158946E+01  0.00000000000E+00 0. -1.
          4    1    6    6  502    0  0.59019568523E+02  0.78233044130E+02  0.34598628296E+02  0.10392681917E+03  0.00000000000E+00 0. -1.
          1    1    5    5  503    0  0.10098432574E+03 -0.30906551284E+03  0.97773962939E+03  0.10303854173E+04  0.00000000000E+00 0. -1.
         -4    1    5    5    0  503  0.42203293292E+02 -0.17909411419E+03  0.76517503084E+03  0.78698706948E+03  0.00000000000E+00 0.  1.
         -3    1    6    6    0  502  0.14362742294E+03  0.43208078057E+02  0.14264237134E+02  0.15066267982E+03  0.00000000000E+00 0.  1.
<mgrwt>
<rscale>  0 0.16284788E+04</rscale>
<asrwt>0</asrwt>
<pdfrwt beam="1">  1        2 0.37273447E+00 0.16284788E+04</pdfrwt>
<pdfrwt beam="2">  1       -2 0.42099601E-01 0.16284788E+04</pdfrwt>
<totfact> 0.19769237E+01</totfact>
</mgrwt>
</event>
<event>
12    1  0.1489233E-007  0.3179440E+04  0.7818608E-02  0.8194268E-01
          2   -1    0    0  501    0  0.00000000000E+00  0.00000000000E+00  0.27899854012E+04  0.27899854012E+04  0.00000000000E+00 0. -1.
         -2   -1    0    0    0  501 -0.00000000000E+00 -0.00000000000E+00 -0.90581441415E+03  0.90581441415E+03  0.00000000000E+00 0.  1.
         23    2    1    2    0    0  0.10232948484E+04  0.91241315157E+03  0.14513495422E+04  0.19986270059E+04  0.92001681781E+02 0.  0.
        254    2    1    2    0    0 -0.10232948484E+04 -0.91241315157E+03  0.43282144485E+03  0.16971728094E+04  0.90190411680E+03 0.  0.
        -24    2    4    4    0    0 -0.41874889054E+03 -0.34467320845E+03  0.63582648153E+03  0.83968085236E+03  0.81476163790E+02 0.  0.
         24    2    4    4    0    0 -0.60454595782E+03 -0.56773994313E+03 -0.20300503667E+03  0.85749195701E+03  0.79227225630E+02 0.  0.
         13    1    3    3    0    0  0.83010619465E+03  0.77746595067E+03  0.11714398725E+04  0.16327280771E+04  0.00000000000E+00 0. -1.
        -13    1    3    3    0    0  0.19318865371E+03  0.13494720091E+03  0.27990966963E+03  0.36589892882E+03  0.00000000000E+00 0.  1.
          2    1    6    6  502    0 -0.33657415800E+03 -0.36701168379E+03 -0.13312320931E+03  0.51546244163E+03  0.00000000000E+00 0. -1.
          3    1    5    5  503    0 -0.29201763449E+03 -0.23267955717E+03  0.37786757711E+03  0.53122309909E+03  0.00000000000E+00 0. -1.
         -4    1    5    5    0  503 -0.12673125605E+03 -0.11199365128E+03  0.25795890441E+03  0.30845775327E+03  0.00000000000E+00 0.  1.
         -1    1    6    6    0  502 -0.26797179983E+03 -0.20072825933E+03 -0.69881827363E+02  0.34202951538E+03  0.00000000000E+00 0.  1.
<mgrwt>
<rscale>  0 0.31794396E+04</rscale>
<asrwt>0</asrwt>
<pdfrwt beam="1">  1        2 0.42922852E+00 0.31794396E+04</pdfrwt>
<pdfrwt beam="2">  1       -2 0.13935607E+00 0.31794396E+04</pdfrwt>
<totfact> 0.71860991E-01</totfact>
</mgrwt>
</event>
<event>
12    1  0.1489233E-007  0.1776856E+04  0.7818608E-02  0.8718705E-01
          1   -1    0    0  501    0  0.00000000000E+00  0.00000000000E+00  0.23765335762E+04  0.23765335762E+04  0.00000000000E+00 0. -1.
         -1   -1    0    0    0  501 -0.00000000000E+00 -0.00000000000E+00 -0.33212431861E+03  0.33212431861E+03  0.00000000000E+00 0.  1.
         23    2    1    2    0    0 -0.16431896711E+03  0.26121739689E+03  0.16532777658E+04  0.16842479496E+04  0.90158379516E+02 0.  0.
        254    2    1    2    0    0  0.16431896711E+03 -0.26121739689E+03  0.39113149182E+03  0.10244099453E+04  0.89509588350E+03 0.  0.
        -24    2    4    4    0    0  0.21613454480E+03 -0.19324029545E+03 -0.23811340139E+03  0.38407248851E+03  0.82205421155E+02 0.  0.
         24    2    4    4    0    0 -0.51815577695E+02 -0.67977101441E+02  0.62924489321E+03  0.64033745674E+03  0.82323644635E+02 0.  0.
         13    1    3    3    0    0 -0.37360834063E+02  0.13989416077E+03  0.67845465270E+03  0.69373404408E+03  0.00000000000E+00 0.  1.
        -13    1    3    3    0    0 -0.12695813304E+03  0.12132323611E+03  0.97482311310E+03  0.99051390551E+03  0.00000000000E+00 0. -1.
          4    1    6    6  502    0 -0.63573081088E+02 -0.71582539532E+02  0.42180284289E+03  0.43253119526E+03  0.00000000000E+00 0. -1.
          3    1    5    5  503    0  0.21983570016E+03 -0.17195919648E+03 -0.22712225758E+03  0.35983637977E+03  0.00000000000E+00 0. -1.
         -4    1    5    5    0  503 -0.37011553624E+01 -0.21281098973E+02 -0.10991143809E+02  0.24236108737E+02  0.00000000000E+00 0.  1.
         -3    1    6    6    0  502  0.11757503393E+02  0.36054380916E+01  0.20744205033E+03  0.20780626149E+03  0.00000000000E+00 0.  1.
<mgrwt>
<rscale>  0 0.17768563E+04</rscale>
<asrwt>0</asrwt>
<pdfrwt beam="1">  1        1 0.36562054E+00 0.17768563E+04</pdfrwt>
<pdfrwt beam="2">  1       -1 0.51096050E-01 0.17768563E+04</pdfrwt>
<totfact> 0.60088484E+00</totfact>
</mgrwt>
</event>
<event>
12    1  0.1489233E-007  0.2395558E+04  0.7818608E-02  0.8441168E-01
         -2   -1    0    0    0  501 -0.00000000000E+00  0.00000000000E+00  0.24920957095E+04  0.24920957095E+04  0.00000000000E+00 0.  1.
          2   -1    0    0  501    0  0.00000000000E+00 -0.00000000000E+00 -0.57569007982E+03  0.57569007982E+03  0.00000000000E+00 0. -1.
         23    2    1    2    0    0 -0.52550928242E+03 -0.86845004815E+03  0.98700383665E+03  0.14186536000E+04  0.89643578368E+02 0.  0.
        254    2    1    2    0    0  0.52550928242E+03  0.86845004815E+03  0.92940179306E+03  0.16491321894E+04  0.90856138650E+03 0.  0.
        -24    2    4    4    0    0 -0.76247858701E+02  0.49480563773E+03  0.37235766006E+02  0.50716086490E+03  0.71967253215E+02 0.  0.
         24    2    4    4    0    0  0.60175714112E+03  0.37364441042E+03  0.89216602706E+03  0.11419713245E+04  0.80102957192E+02 0.  0.
         11    1    3    3    0    0 -0.88994460722E+02 -0.21355977506E+03  0.24533931477E+03  0.33722273193E+03  0.00000000000E+00 0.  1.
        -11    1    3    3    0    0 -0.43651482170E+03 -0.65489027309E+03  0.74166452189E+03  0.10814308681E+04  0.00000000000E+00 0. -1.
          4    1    6    6  502    0  0.74906913656E+02  0.57646910170E+02  0.81428648934E+02  0.12475911523E+03  0.00000000000E+00 0. -1.
          3    1    5    5  503    0  0.11458362914E+02  0.24382806664E+02 -0.20695599314E+01  0.27020333450E+02  0.00000000000E+00 0. -1.
         -4    1    5    5    0  503 -0.87706221615E+02  0.47042283106E+03  0.39305325938E+02  0.48014053145E+03  0.00000000000E+00 0.  1.
         -3    1    6    6    0  502  0.52685022747E+03  0.31599750025E+03  0.81073737812E+03  0.10172122092E+04  0.00000000000E+00 0.  1.
<mgrwt>
<rscale>  0 0.23955582E+04</rscale>
<asrwt>0</asrwt>
<pdfrwt beam="1">  1        2 0.88567705E-01 0.23955582E+04</pdfrwt>
<pdfrwt beam="2">  1       -2 0.38339934E+00 0.23955582E+04</pdfrwt>
<totfact> 0.44674613E-01</totfact>
</mgrwt>
</event>
<event>
12    1  0.1489233E-007  0.2398542E+04  0.7818608E-02  0.8440050E-01
         -1   -1    0    0    0  501 -0.00000000000E+00  0.00000000000E+00  0.30307794306E+03  0.30307794306E+03  0.00000000000E+00 0.  1.
          1   -1    0    0  501    0  0.00000000000E+00 -0.00000000000E+00 -0.47454826676E+04  0.47454826676E+04  0.00000000000E+00 0. -1.
         23    2    1    2    0    0 -0.67414838836E+03  0.21807505485E+03 -0.34262152093E+03  0.79227517452E+03  0.90981682109E+02 0.  0.
        254    2    1    2    0    0  0.67414838836E+03 -0.21807505485E+03 -0.40997832037E+04  0.42562854362E+04  0.89761384694E+03 0.  0.
        -24    2    4    4    0    0  0.72161687018E+03  0.15561232318E+03 -0.23464818346E+04  0.24611565665E+04  0.79803147349E+02 0.  0.
         24    2    4    4    0    0 -0.47468481812E+02 -0.37368737803E+03 -0.17533013691E+04  0.17951288697E+04  0.80786476150E+02 0.  0.
         11    1    3    3    0    0 -0.45605368033E+03  0.16341983408E+03 -0.18922543034E+03  0.52009351563E+03  0.00000000000E+00 0.  1.
        -11    1    3    3    0    0 -0.21809470803E+03  0.54655220768E+02 -0.15339609058E+03  0.27218165889E+03  0.00000000000E+00 0. -1.
          2    1    6    6  502    0 -0.35565613257E+02 -0.34821467672E+03 -0.16899499282E+04  0.17258183953E+04  0.00000000000E+00 0. -1.
          3    1    5    5  503    0  0.65843566746E+03  0.14067623297E+03 -0.22046889750E+04  0.23052073241E+04  0.00000000000E+00 0. -1.
         -4    1    5    5    0  503  0.63181202714E+02  0.14936090216E+02 -0.14179285957E+03  0.15594924236E+03  0.00000000000E+00 0.  1.
         -1    1    6    6    0  502 -0.11902868555E+02 -0.25472701308E+02 -0.63351440935E+02  0.69310474391E+02  0.00000000000E+00 0.  1.
<mgrwt>
<rscale>  0 0.23985422E+04</rscale>
<asrwt>0</asrwt>
<pdfrwt beam="1">  1        1 0.73007428E+00 0.23985422E+04</pdfrwt>
<pdfrwt beam="2">  1       -1 0.46627374E-01 0.23985422E+04</pdfrwt>
<totfact> 0.72503427E-02</totfact>
</mgrwt>
</event>
<event>
12    1  0.1489233E-007  0.2068899E+04  0.7818608E-02  0.8575069E-01
          2   -1    0    0  501    0  0.00000000000E+00  0.00000000000E+00  0.12860817109E+04  0.12860817109E+04  0.00000000000E+00 0. -1.
         -2   -1    0    0    0  501 -0.00000000000E+00 -0.00000000000E+00 -0.83205083848E+03  0.83205083848E+03  0.00000000000E+00 0.  1.
         23    2    1    2    0    0  0.11260267291E+02 -0.59257263336E+03 -0.41980364425E+03  0.73197861803E+03  0.91041079178E+02 0.  0.
        254    2    1    2    0    0 -0.11260267291E+02  0.59257263336E+03  0.87383451671E+03  0.13861539314E+04  0.89809066329E+03 0.  0.
        -24    2    4    4    0    0 -0.19803848278E+02  0.81700501276E+03  0.77225693999E+03  0.11272729993E+04  0.80462725576E+02 0.  0.
         24    2    4    4    0    0  0.85435809866E+01 -0.22443237941E+03  0.10157757671E+03  0.25888093213E+03  0.79110348420E+02 0.  0.
         13    1    3    3    0    0 -0.31794784716E+02 -0.11038430794E+03 -0.67343302208E+02  0.13315676523E+03  0.00000000000E+00 0. -1.
        -13    1    3    3    0    0  0.43055052007E+02 -0.48218832542E+03 -0.35246034204E+03  0.59882185279E+03  0.00000000000E+00 0.  1.
          4    1    6    6  502    0  0.28295584623E+02 -0.13083594232E+03  0.24612748464E+02  0.13610463364E+03  0.00000000000E+00 0. -1.
          3    1    5    5  503    0 -0.35198924262E+02  0.72263782461E+03  0.65472490100E+03  0.97576077284E+03  0.00000000000E+00 0. -1.
         -4    1    5    5    0  503  0.15395075984E+02  0.94367188153E+02  0.11753203900E+03  0.15151222642E+03  0.00000000000E+00 0.  1.
         -3    1    6    6    0  502 -0.19752003636E+02 -0.93596437087E+02  0.76964828249E+02  0.12277629849E+03  0.00000000000E+00 0.  1.
<mgrwt>
<rscale>  0 0.20688986E+04</rscale>
<asrwt>0</asrwt>
<pdfrwt beam="1">  1        2 0.19785872E+00 0.20688986E+04</pdfrwt>
<pdfrwt beam="2">  1       -2 0.12800782E+00 0.20688986E+04</pdfrwt>
<totfact> 0.70291344E+00</totfact>
</mgrwt>
</event>
<event>
12    1  0.1489233E-007  0.1789198E+04  0.7818608E-02  0.8712065E-01
          2   -1    0    0  501    0  0.00000000000E+00  0.00000000000E+00  0.76922318716E+03  0.76922318716E+03  0.00000000000E+00 0. -1.
         -2   -1    0    0    0  501 -0.00000000000E+00 -0.00000000000E+00 -0.10404097206E+04  0.10404097206E+04  0.00000000000E+00 0.  1.
         23    2    1    2    0    0  0.25937087022E+03  0.42618833243E+03 -0.54565730287E+03  0.74488147622E+03  0.90536061441E+02 0.  0.
        254    2    1    2    0    0 -0.25937087022E+03 -0.42618833243E+03  0.27447076943E+03  0.10647514315E+04  0.89969531770E+03 0.  0.
        -24    2    4    4    0    0 -0.87178742420E+01 -0.45536737673E+03  0.52546871222E+03  0.69999436302E+03  0.80245196801E+02 0.  0.
         24    2    4    4    0    0 -0.25065299598E+03  0.29179044305E+02 -0.25099794278E+03  0.36475706853E+03  0.79808588140E+02 0.  0.
         13    1    3    3    0    0  0.18041125477E+03  0.24957529463E+03 -0.38772288419E+03  0.49514147823E+03  0.00000000000E+00 0.  1.
        -13    1    3    3    0    0  0.78959615451E+02  0.17661303780E+03 -0.15793441868E+03  0.24973999799E+03  0.00000000000E+00 0. -1.
          4    1    6    6  502    0 -0.10175819557E+03 -0.19440316788E+02 -0.68199544519E+02  0.12403158531E+03  0.00000000000E+00 0. -1.
          1    1    5    5  503    0  0.33401572300E+02 -0.21390125453E+03  0.22520710270E+03  0.31239022204E+03  0.00000000000E+00 0. -1.
         -2    1    5    5    0  503 -0.42119446542E+02 -0.24146612221E+03  0.30026160952E+03  0.38760414098E+03  0.00000000000E+00 0.  1.
         -3    1    6    6    0  502 -0.14889480041E+03  0.48619361093E+02 -0.18279839826E+03  0.24072548322E+03  0.00000000000E+00 0.  1.
<mgrwt>
<rscale>  0 0.17891979E+04</rscale>
<asrwt>0</asrwt>
<pdfrwt beam="1">  1        2 0.11834203E+00 0.17891979E+04</pdfrwt>
<pdfrwt beam="2">  1       -2 0.16006303E+00 0.17891979E+04</pdfrwt>
<totfact> 0.86214558E+00</totfact>
</mgrwt>
</event>
<event>
12    1  0.1489233E-007  0.2353382E+04  0.7818608E-02  0.8457166E-01
         -3   -1    0    0    0  501 -0.00000000000E+00  0.00000000000E+00  0.12055390657E+04  0.12055390657E+04  0.00000000000E+00 0.  1.
          3   -1    0    0  501    0  0.00000000000E+00 -0.00000000000E+00 -0.11485333724E+04  0.11485333724E+04  0.00000000000E+00 0. -1.
         23    2    1    2    0    0  0.63065763412E+03 -0.77516870666E+03  0.11881496368E+03  0.10115217344E+04  0.10219416919E+03 0.  0.
        254    2    1    2    0    0 -0.63065763412E+03  0.77516870666E+03 -0.61809270387E+02  0.13425507038E+04  0.89443078612E+03 0.  0.
        -24    2    4    4    0    0 -0.75151348849E+03  0.67826365386E+03 -0.28766994954E+03  0.10555800569E+04  0.81738296732E+02 0.  0.
         24    2    4    4    0    0  0.12085585437E+03  0.96905052800E+02  0.22586067915E+03  0.28697064691E+03  0.85687682944E+02 0.  0.
         13    1    3    3    0    0  0.15759516703E+03 -0.21242216603E+03 -0.12160932585E+02  0.26477783437E+03  0.00000000000E+00 0. -1.
        -13    1    3    3    0    0  0.47306246709E+03 -0.56274654063E+03  0.13097589627E+03  0.74674389999E+03  0.00000000000E+00 0.  1.
          4    1    6    6  502    0  0.34253267092E+02  0.39251137967E+02  0.14835476733E+03  0.15723573108E+03  0.00000000000E+00 0. -1.
          3    1    5    5  503    0 -0.39688659886E+02  0.19358362689E+02 -0.24672707703E+02  0.50583381015E+02  0.00000000000E+00 0. -1.
         -4    1    5    5    0  503 -0.71182482860E+03  0.65890529117E+03 -0.26299724183E+03  0.10049966759E+04  0.00000000000E+00 0.  1.
         -3    1    6    6    0  502  0.86602587276E+02  0.57653914833E+02  0.77505911818E+02  0.12973491583E+03  0.00000000000E+00 0.  1.
<mgrwt>
<rscale>  0 0.23533821E+04</rscale>
<asrwt>0</asrwt>
<pdfrwt beam="1">  1        3 0.17669744E+00 0.23533821E+04</pdfrwt>
<pdfrwt beam="2">  1       -3 0.18546755E+00 0.23533821E+04</pdfrwt>
<totfact> 0.89403105E-02</totfact>
</mgrwt>
</event>
<event>
12    1  0.1489233E-007  0.1767804E+04  0.7818608E-02  0.8723611E-01
          3   -1    0    0  501    0  0.00000000000E+00  0.00000000000E+00  0.59220122008E+03  0.59220122008E+03  0.00000000000E+00 0. -1.
         -3   -1    0    0    0  501 -0.00000000000E+00 -0.00000000000E+00 -0.13192858871E+04  0.13192858871E+04  0.00000000000E+00 0.  1.
         23    2    1    2    0    0  0.22613936721E+03  0.54400549476E+03  0.84361698933E+01  0.59655156223E+03  0.93389537448E+02 0.  0.
        254    2    1    2    0    0 -0.22613936721E+03 -0.54400549476E+03 -0.73552083687E+03  0.13149355449E+04  0.91705157657E+03 0.  0.
        -24    2    4    4    0    0 -0.19520913744E+02 -0.76361563359E+03 -0.60244583761E+03  0.97584782294E+03  0.76472768667E+02 0.  0.
         24    2    4    4    0    0 -0.20661845347E+03  0.21961013883E+03 -0.13307499927E+03  0.33908772198E+03  0.79697737589E+02 0.  0.
         13    1    3    3    0    0  0.19821615389E+03  0.47804842337E+03  0.38348346506E+02  0.51893210965E+03  0.00000000000E+00 0. -1.
        -13    1    3    3    0    0  0.27923213321E+02  0.65957071385E+02 -0.29912176613E+02  0.77619452572E+02  0.00000000000E+00 0.  1.
          4    1    6    6  502    0 -0.10268878413E+03  0.65324607702E+02 -0.26015648772E+02  0.12445523186E+03  0.00000000000E+00 0. -1.
          3    1    5    5  503    0  0.19811654254E+02 -0.64972286594E+02 -0.54590008723E+02  0.87143380253E+02  0.00000000000E+00 0. -1.
         -4    1    5    5    0  503 -0.39332567998E+02 -0.69864334699E+03 -0.54785582888E+03  0.88870444268E+03  0.00000000000E+00 0.  1.
         -3    1    6    6    0  502 -0.10392966934E+03  0.15428553113E+03 -0.10705935049E+03  0.21463249011E+03  0.00000000000E+00 0.  1.
<mgrwt>
<rscale>  0 0.17678040E+04</rscale>
<asrwt>0</asrwt>
<pdfrwt beam="1">  1        3 0.91107880E-01 0.17678040E+04</pdfrwt>
<pdfrwt beam="2">  1       -3 0.20296706E+00 0.17678040E+04</pdfrwt>
<totfact> 0.37677559E-01</totfact>
</mgrwt>
</event>
<event>
12    1  0.1489233E-007  0.2217335E+04  0.7818608E-02  0.8511247E-01
         -1   -1    0    0    0  501 -0.00000000000E+00  0.00000000000E+00  0.12149372260E+04  0.12149372260E+04  0.00000000000E+00 0.  1.
          1   -1    0    0  501    0  0.00000000000E+00 -0.00000000000E+00 -0.10116928556E+04  0.10116928556E+04  0.00000000000E+00 0. -1.
         23    2    1    2    0    0  0.75576111568E+03  0.35728129719E+03 -0.30498314355E+03  0.89597921541E+03  0.10459085672E+03 0.  0.
        254    2    1    2    0    0 -0.75576111568E+03 -0.35728129719E+03  0.50822751400E+03  0.13306508662E+04  0.90194885242E+03 0.  0.
        -24    2    4    4    0    0  0.38128225067E+02 -0.19271898260E+03  0.46918198671E+03  0.51492273419E+03  0.80120644852E+02 0.  0.
         24    2    4    4    0    0 -0.79388934074E+03 -0.16456231459E+03  0.39045527291E+02  0.81572813198E+03  0.80912244933E+02 0.  0.
         11    1    3    3    0    0  0.66860491564E+03  0.34070952281E+03 -0.29647782890E+03  0.80685476709E+03  0.00000000000E+00 0. -1.
        -11    1    3    3    0    0  0.87156200032E+02  0.16571774380E+02 -0.85053146510E+01  0.89124448315E+02  0.00000000000E+00 0.  1.
          4    1    6    6  502    0 -0.23886708735E+03 -0.87738417973E+02  0.10496625966E+02  0.25468744485E+03  0.00000000000E+00 0. -1.
          1    1    5    5  503    0  0.15456536036E+02 -0.11901854974E+02  0.11465077491E+03  0.11629857629E+03  0.00000000000E+00 0. -1.
         -2    1    5    5    0  503  0.22671689032E+02 -0.18081712763E+03  0.35453121180E+03  0.39862415790E+03  0.00000000000E+00 0.  1.
         -3    1    6    6    0  502 -0.55502225339E+03 -0.76823896613E+02  0.28548901325E+02  0.56104068713E+03  0.00000000000E+00 0.  1.
<mgrwt>
<rscale>  0 0.22173347E+04</rscale>
<asrwt>0</asrwt>
<pdfrwt beam="1">  1        1 0.15564505E+00 0.22173347E+04</pdfrwt>
<pdfrwt beam="2">  1       -1 0.18691342E+00 0.22173347E+04</pdfrwt>
<totfact> 0.25057434E+00</totfact>
</mgrwt>
</event>
<event>
12    1  0.1489233E-007  0.1277491E+04  0.7818608E-02  0.9047608E-01
         -1   -1    0    0    0  501 -0.00000000000E+00  0.00000000000E+00  0.20864083019E+03  0.20864083019E+03  0.00000000000E+00 0.  1.
          1   -1    0    0  501    0  0.00000000000E+00 -0.00000000000E+00 -0.19554945257E+04  0.19554945257E+04  0.00000000000E+00 0. -1.
         23    2    1    2    0    0  0.70013611267E+02 -0.21303687573E+03 -0.21350045314E+03  0.32305562667E+03  0.92173088520E+02 0.  0.
        254    2    1    2    0    0 -0.70013611267E+02  0.21303687573E+03 -0.15333532423E+04  0.18410797292E+04  0.99404013361E+03 0.  0.
        -24    2    4    4    0    0 -0.38766654409E+03 -0.22045008197E+03 -0.50952998460E+03  0.68201657214E+03  0.81499763279E+02 0.  0.
         24    2    4    4    0    0  0.31765293282E+03  0.43348695770E+03 -0.10238232577E+04  0.11590631571E+04  0.79993816647E+02 0.  0.
         11    1    3    3    0    0  0.24236477769E+02 -0.47018957721E+02 -0.57522904240E+01  0.53209755543E+02  0.00000000000E+00 0. -1.
        -11    1    3    3    0    0  0.45777133498E+02 -0.16601791801E+03 -0.20774816272E+03  0.26984587113E+03  0.00000000000E+00 0.  1.
          4    1    6    6  502    0  0.45871081193E+02  0.73745105004E+02 -0.11076141637E+03  0.14075009044E+03  0.00000000000E+00 0. -1.
          3    1    5    5  503    0 -0.14455970551E+03 -0.12323833425E+03 -0.18656038508E+03  0.26625170941E+03  0.00000000000E+00 0. -1.
         -4    1    5    5    0  503 -0.24310683858E+03 -0.97211747724E+02 -0.32296959952E+03  0.41576486272E+03  0.00000000000E+00 0.  1.
         -3    1    6    6    0  502  0.27178185163E+03  0.35974185270E+03 -0.91306184138E+03  0.10183130666E+04  0.00000000000E+00 0.  1.
<mgrwt>
<rscale>  0 0.12774913E+04</rscale>
<asrwt>0</asrwt>
<pdfrwt beam="1">  1        1 0.30084529E+00 0.12774913E+04</pdfrwt>
<pdfrwt beam="2">  1       -1 0.32098591E-01 0.12774913E+04</pdfrwt>
<totfact> 0.28504525E+01</totfact>
</mgrwt>
</event>
<event>
12    1  0.1489233E-007  0.1451030E+04  0.7818608E-02  0.8917687E-01
         -2   -1    0    0    0  501 -0.00000000000E+00  0.00000000000E+00  0.47579546515E+03  0.47579546515E+03  0.00000000000E+00 0. -1.
          2   -1    0    0  501    0  0.00000000000E+00 -0.00000000000E+00 -0.11062990113E+04  0.11062990113E+04  0.00000000000E+00 0.  1.
         23    2    1    2    0    0 -0.24054041521E+03  0.74226736331E+02 -0.62422173326E+03  0.67903464940E+03  0.89810818280E+02 0.  0.
        254    2    1    2    0    0  0.24054041521E+03 -0.74226736331E+02 -0.62818129344E+01  0.90305982709E+03  0.86724177159E+03 0.  0.
        -24    2    4    4    0    0  0.32270618117E+03  0.33796751941E+03 -0.28157905531E+02  0.47481725465E+03  0.79355114105E+02 0.  0.
         24    2    4    4    0    0 -0.82165765958E+02 -0.41219425574E+03  0.21876092596E+02  0.42824257244E+03  0.79106383207E+02 0.  0.
         13    1    3    3    0    0 -0.45172926242E+02  0.54687064580E+02 -0.16531721506E+03  0.17989177273E+03  0.00000000000E+00 0. -1.
        -13    1    3    3    0    0 -0.19536748897E+03  0.19539671752E+02 -0.45890451819E+03  0.49914287667E+03  0.00000000000E+00 0.  1.
          2    1    6    6  502    0 -0.19012352755E+02 -0.18512045357E+03  0.44882358677E+02  0.19143008647E+03  0.00000000000E+00 0. -1.
          1    1    5    5  503    0  0.22613595878E+03  0.22515485922E+03 -0.55267646524E+02  0.32386215468E+03  0.00000000000E+00 0. -1.
         -2    1    5    5    0  503  0.96570222392E+02  0.11281266018E+03  0.27109740993E+02  0.15095509997E+03  0.00000000000E+00 0.  1.
         -1    1    6    6    0  502 -0.63153413203E+02 -0.22707380217E+03 -0.23006266081E+02  0.23681248597E+03  0.00000000000E+00 0.  1.
<mgrwt>
<rscale>  0 0.14510301E+04</rscale>
<asrwt>0</asrwt>
<pdfrwt beam="1">  1        2 0.17019985E+00 0.14510301E+04</pdfrwt>
<pdfrwt beam="2">  1       -2 0.73199303E-01 0.14510301E+04</pdfrwt>
<totfact> 0.35287519E+01</totfact>
</mgrwt>
</event>
<event>
12    1  0.1489233E-007  0.1241172E+04  0.7818608E-02  0.9077563E-01
         -1   -1    0    0    0  501 -0.00000000000E+00  0.00000000000E+00  0.30971855446E+03  0.30971855446E+03  0.00000000000E+00 0.  1.
          1   -1    0    0  501    0  0.00000000000E+00 -0.00000000000E+00 -0.12434739697E+04  0.12434739697E+04  0.00000000000E+00 0. -1.
         23    2    1    2    0    0  0.15562500242E+03  0.16377642526E+03 -0.28614852938E+02  0.24514094386E+03  0.90738160113E+02 0.  0.
        254    2    1    2    0    0 -0.15562500242E+03 -0.16377642526E+03 -0.90514056228E+03  0.13080515803E+04  0.91688474756E+03 0.  0.
        -24    2    4    4    0    0 -0.33294599764E+03 -0.46079262901E+03 -0.66828887537E+03  0.88105180054E+03  0.80370205894E+02 0.  0.
         24    2    4    4    0    0  0.17732099522E+03  0.29701620375E+03 -0.23685168691E+03  0.42699977973E+03  0.81047699920E+02 0.  0.
         13    1    3    3    0    0  0.13901514049E+03  0.11071672046E+03  0.91120219936E+01  0.17795064041E+03  0.00000000000E+00 0.  1.
        -13    1    3    3    0    0  0.16609861925E+02  0.53059704797E+02 -0.37726874932E+02  0.67190303455E+02  0.00000000000E+00 0. -1.
          2    1    6    6  502    0  0.78889504271E+01  0.67726201338E+02 -0.64475417532E+02  0.93841106943E+02  0.00000000000E+00 0. -1.
          1    1    5    5  503    0 -0.13787289863E+03 -0.20507378638E+03 -0.35096986736E+03  0.42923658026E+03  0.00000000000E+00 0. -1.
         -2    1    5    5    0  503 -0.19507309901E+03 -0.25571884263E+03 -0.31731900801E+03  0.45181522028E+03  0.00000000000E+00 0.  1.
         -1    1    6    6    0  502  0.16943204479E+03  0.22929000241E+03 -0.17237626938E+03  0.33315867279E+03  0.00000000000E+00 0.  1.
<mgrwt>
<rscale>  0 0.12411720E+04</rscale>
<asrwt>0</asrwt>
<pdfrwt beam="1">  1        1 0.19130369E+00 0.12411720E+04</pdfrwt>
<pdfrwt beam="2">  1       -1 0.47649009E-01 0.12411720E+04</pdfrwt>
<totfact> 0.43102283E+01</totfact>
</mgrwt>
</event>
<event>
12    1  0.1489233E-007  0.2050708E+04  0.7818608E-02  0.8583273E-01
          1   -1    0    0  501    0  0.00000000000E+00  0.00000000000E+00  0.12940775090E+04  0.12940775090E+04  0.00000000000E+00 0. -1.
         -1   -1    0    0    0  501 -0.00000000000E+00 -0.00000000000E+00 -0.81243230506E+03  0.81243230506E+03  0.00000000000E+00 0.  1.
         23    2    1    2    0    0  0.39956300186E+03 -0.35839806842E+03 -0.44759194201E+03  0.70595839872E+03  0.99694263953E+02 0.  0.
        254    2    1    2    0    0 -0.39956300186E+03  0.35839806842E+03  0.92923714591E+03  0.14005514153E+04  0.89997934735E+03 0.  0.
        -24    2    4    4    0    0  0.10602068037E+03 -0.64846286176E+02  0.67213206598E+03  0.68817433766E+03  0.79855991610E+02 0.  0.
         24    2    4    4    0    0 -0.50558368224E+03  0.42324435460E+03  0.25710507993E+03  0.71237707764E+03  0.81409060833E+02 0.  0.
         13    1    3    3    0    0  0.21892476124E+03 -0.23229258622E+03 -0.21074297519E+03  0.38249248135E+03  0.00000000000E+00 0.  1.
        -13    1    3    3    0    0  0.18063824062E+03 -0.12610548220E+03 -0.23684896682E+03  0.32346591737E+03  0.00000000000E+00 0. -1.
          2    1    6    6  502    0 -0.25505467921E+03  0.26608992374E+03  0.13900459191E+03  0.39392767544E+03  0.00000000000E+00 0. -1.
          1    1    5    5  503    0  0.72426135331E+02 -0.81023962800E+02  0.45015573026E+03  0.46308812241E+03  0.00000000000E+00 0. -1.
         -2    1    5    5    0  503  0.33594545041E+02  0.16177676624E+02  0.22197633572E+03  0.22508621525E+03  0.00000000000E+00 0.  1.
         -1    1    6    6    0  502 -0.25052900303E+03  0.15715443085E+03  0.11810048802E+03  0.31844940220E+03  0.00000000000E+00 0.  1.
<mgrwt>
<rscale>  0 0.20507076E+04</rscale>
<asrwt>0</asrwt>
<pdfrwt beam="1">  1        1 0.19908885E+00 0.20507076E+04</pdfrwt>
<pdfrwt beam="2">  1       -1 0.12498959E+00 0.20507076E+04</pdfrwt>
<totfact> 0.47226567E+00</totfact>
</mgrwt>
</event>
<event>
12    1  0.1489233E-007  0.2292325E+04  0.7818608E-02  0.8480953E-01
         -3   -1    0    0    0  501 -0.00000000000E+00  0.00000000000E+00  0.17937710392E+04  0.17937710392E+04  0.00000000000E+00 0.  1.
          3   -1    0    0  501    0  0.00000000000E+00 -0.00000000000E+00 -0.73236120073E+03  0.73236120073E+03  0.00000000000E+00 0. -1.
         23    2    1    2    0    0  0.71923785052E+03  0.46024186307E+02  0.11518724207E+04  0.13616180110E+04  0.88160211427E+02 0.  0.
        254    2    1    2    0    0 -0.71923785052E+03 -0.46024186307E+02 -0.90462582249E+02  0.11645142290E+04  0.91021349106E+03 0.  0.
        -24    2    4    4    0    0 -0.40419488214E+03  0.27724849642E+03  0.28425404582E+03  0.57201242149E+03  0.78470480203E+02 0.  0.
         24    2    4    4    0    0 -0.31504296838E+03 -0.32327268273E+03 -0.37471662807E+03  0.59250180746E+03  0.82997235906E+02 0.  0.
         13    1    3    3    0    0  0.62235205308E+03  0.22186557247E+02  0.10354302636E+04  0.12082756938E+04  0.00000000000E+00 0. -1.
        -13    1    3    3    0    0  0.96885797436E+02  0.23837629060E+02  0.11644215713E+03  0.15334231725E+03  0.00000000000E+00 0.  1.
          4    1    6    6  502    0 -0.22795975773E+03 -0.27149180922E+03 -0.26114432955E+03  0.44030650061E+03  0.00000000000E+00 0. -1.
          1    1    5    5  503    0 -0.35464873293E+03  0.27008543555E+03  0.24724739724E+03  0.50975792461E+03  0.00000000000E+00 0. -1.
         -2    1    5    5    0  503 -0.49546149211E+02  0.71630608686E+01  0.37006648579E+02  0.62254496880E+02  0.00000000000E+00 0.  1.
         -3    1    6    6    0  502 -0.87083210650E+02 -0.51780873509E+02 -0.11357229852E+03  0.15219530685E+03  0.00000000000E+00 0.  1.
<mgrwt>
<rscale>  0 0.22923249E+04</rscale>
<asrwt>0</asrwt>
<pdfrwt beam="1">  1        3 0.11267095E+00 0.22923249E+04</pdfrwt>
<pdfrwt beam="2">  1       -3 0.27596477E+00 0.22923249E+04</pdfrwt>
<totfact> 0.81001433E-02</totfact>
</mgrwt>
</event>
<event>
12    1  0.1489233E-007  0.1717942E+04  0.7818608E-02  0.8751197E-01
          2   -1    0    0  501    0  0.00000000000E+00  0.00000000000E+00  0.28021902665E+04  0.28021902665E+04  0.00000000000E+00 0. -1.
         -2   -1    0    0    0  501 -0.00000000000E+00 -0.00000000000E+00 -0.26330527680E+03  0.26330527680E+03  0.00000000000E+00 0.  1.
         23    2    1    2    0    0  0.27895113209E+01 -0.36877740157E+03  0.18517867521E+04  0.18903859857E+04  0.91871902021E+02 0.  0.
        254    2    1    2    0    0 -0.27895113209E+01  0.36877740157E+03  0.68709823764E+03  0.11751095576E+04  0.87907561167E+03 0.  0.
        -24    2    4    4    0    0  0.17644309725E+03 -0.24271731481E+03  0.21066847729E+03  0.37549535405E+03  0.81065973850E+02 0.  0.
         24    2    4    4    0    0 -0.17923260857E+03  0.61149471638E+03  0.47642976035E+03  0.79961420360E+03  0.79670834757E+02 0.  0.
         13    1    3    3    0    0 -0.27283834604E+02 -0.48507616180E+02  0.20174814500E+03  0.20928380365E+03  0.00000000000E+00 0.  1.
        -13    1    3    3    0    0  0.30073345924E+02 -0.32026978539E+03  0.16500386071E+04  0.16811021821E+04  0.00000000000E+00 0. -1.
          2    1    6    6  502    0 -0.63145124577E+01  0.35991427888E+02  0.73131079348E+01  0.37265768430E+02  0.00000000000E+00 0. -1.
          1    1    5    5  503    0  0.82241889146E+01 -0.63714459078E+02  0.55935576564E+02  0.85181913012E+02  0.00000000000E+00 0. -1.
         -2    1    5    5    0  503  0.16821890834E+03 -0.17900285573E+03  0.15473290072E+03  0.29031344104E+03  0.00000000000E+00 0.  1.
         -1    1    6    6    0  502 -0.17291809612E+03  0.57550328849E+03  0.46911665242E+03  0.76234843517E+03  0.00000000000E+00 0.  1.
<mgrwt>
<rscale>  0 0.17179424E+04</rscale>
<asrwt>0</asrwt>
<pdfrwt beam="1">  1        2 0.43110617E+00 0.17179424E+04</pdfrwt>
<pdfrwt beam="2">  1       -2 0.40508506E-01 0.17179424E+04</pdfrwt>
<totfact> 0.12679217E+01</totfact>
</mgrwt>
</event>
<event>
12    1  0.1489233E-007  0.1828223E+04  0.7818608E-02  0.8691433E-01
         -2   -1    0    0    0  501 -0.00000000000E+00  0.00000000000E+00  0.78315266907E+03  0.78315266907E+03  0.00000000000E+00 0.  1.
          2   -1    0    0  501    0  0.00000000000E+00 -0.00000000000E+00 -0.10669697119E+04  0.10669697119E+04  0.00000000000E+00 0. -1.
         23    2    1    2    0    0 -0.51732724678E+02 -0.32200900903E+03  0.50436488415E+03  0.60750403423E+03  0.91165445971E+02 0.  0.
        254    2    1    2    0    0  0.51732724678E+02  0.32200900903E+03 -0.78818192702E+03  0.12426183468E+04  0.90360584823E+03 0.  0.
        -24    2    4    4    0    0  0.26791078022E+03  0.24731646861E+03 -0.90148293723E+03  0.97573588447E+03  0.80295755274E+02 0.  0.
         24    2    4    4    0    0 -0.21617805554E+03  0.74692540420E+02  0.11330101021E+03  0.26688246230E+03  0.77956413977E+02 0.  0.
         13    1    3    3    0    0  0.11374871783E+02 -0.20627057907E+03  0.31875262882E+03  0.37984230660E+03  0.00000000000E+00 0. -1.
        -13    1    3    3    0    0 -0.63107596461E+02 -0.11573842996E+03  0.18561225533E+03  0.22766172764E+03  0.00000000000E+00 0.  1.
          2    1    6    6  502    0 -0.10014042880E+03  0.54933623844E+02  0.93313324628E+02  0.14748961002E+03  0.00000000000E+00 0. -1.
          1    1    5    5  503    0  0.25359914054E+03  0.21292054670E+03 -0.84972058333E+03  0.91196093832E+03  0.00000000000E+00 0. -1.
         -2    1    5    5    0  503  0.14311639672E+02  0.34395921916E+02 -0.51762353908E+02  0.63774946151E+02  0.00000000000E+00 0.  1.
         -1    1    6    6    0  502 -0.11603762673E+03  0.19758916576E+02  0.19987685581E+02  0.11939285229E+03  0.00000000000E+00 0.  1.
<mgrwt>
<rscale>  0 0.18282234E+04</rscale>
<asrwt>0</asrwt>
<pdfrwt beam="1">  1        2 0.16414919E+00 0.18282234E+04</pdfrwt>
<pdfrwt beam="2">  1       -2 0.12048503E+00 0.18282234E+04</pdfrwt>
<totfact> 0.11311582E+01</totfact>
</mgrwt>
</event>
<event>
12    1  0.1489233E-007  0.1377625E+04  0.7818608E-02  0.8970176E-01
         -1   -1    0    0    0  501 -0.00000000000E+00  0.00000000000E+00  0.36692144499E+03  0.36692144499E+03  0.00000000000E+00 0.  1.
          1   -1    0    0  501    0  0.00000000000E+00 -0.00000000000E+00 -0.12930913086E+04  0.12930913086E+04  0.00000000000E+00 0. -1.
         23    2    1    2    0    0 -0.14506390327E+03 -0.67511292480E+02  0.15465942640E+03  0.24078227560E+03  0.91952462838E+02 0.  0.
        254    2    1    2    0    0  0.14506390327E+03  0.67511292480E+02 -0.10808292900E+04  0.14192304779E+04  0.90577143079E+03 0.  0.
        -24    2    4    4    0    0  0.12207571152E+03 -0.26223776422E+03 -0.15780405482E+02  0.30112042539E+03  0.82178860229E+02 0.  0.
         24    2    4    4    0    0  0.22988191746E+02  0.32974905670E+03 -0.10650488845E+04  0.11181100526E+04  0.81105276818E+02 0.  0.
         11    1    3    3    0    0 -0.37620675307E+00 -0.15241301754E+02  0.55967898953E+02  0.58007279922E+02  0.00000000000E+00 0. -1.
        -11    1    3    3    0    0 -0.14468769651E+03 -0.52269990726E+02  0.98691527450E+02  0.18277499567E+03  0.00000000000E+00 0.  1.
          4    1    6    6  502    0 -0.19267954515E+02  0.73581237791E+02 -0.32690153018E+03  0.33563382288E+03  0.00000000000E+00 0. -1.
          3    1    5    5  503    0  0.41684083890E+02 -0.22173109119E+02 -0.75872560161E+01  0.47820247507E+02  0.00000000000E+00 0. -1.
         -4    1    5    5    0  503  0.80391627630E+02 -0.24006465510E+03 -0.81931494663E+01  0.25330017789E+03  0.00000000000E+00 0.  1.
         -1    1    6    6    0  502  0.42256146261E+02  0.25616781890E+03 -0.73814735430E+03  0.78247622967E+03  0.00000000000E+00 0.  1.
<mgrwt>
<rscale>  0 0.13776254E+04</rscale>
<asrwt>0</asrwt>
<pdfrwt beam="1">  1        1 0.19893713E+00 0.13776254E+04</pdfrwt>
<pdfrwt beam="2">  1       -1 0.56449453E-01 0.13776254E+04</pdfrwt>
<totfact> 0.28379256E+01</totfact>
</mgrwt>
</event>
<event>
12    1  0.1489233E-007  0.3547121E+04  0.7818608E-02  0.8102713E-01
         -2   -1    0    0    0  501 -0.00000000000E+00  0.00000000000E+00  0.92716509773E+03  0.92716509773E+03  0.00000000000E+00 0.  1.
          2   -1    0    0  501    0  0.00000000000E+00 -0.00000000000E+00 -0.33926183487E+04  0.33926183487E+04  0.00000000000E+00 0. -1.
         23    2    1    2    0    0 -0.58338254616E+03  0.33816538800E+03  0.68811090577E+03  0.96775665489E+03  0.91462011990E+02 0.  0.
        254    2    1    2    0    0  0.58338254616E+03 -0.33816538800E+03 -0.31535641567E+04  0.33520267915E+04  0.91456311740E+03 0.  0.
        -24    2    4    4    0    0  0.21495535602E+03 -0.45308696841E+03 -0.27159391552E+04  0.27630371588E+04  0.80964438409E+02 0.  0.
         24    2    4    4    0    0  0.36842719013E+03  0.11492158041E+03 -0.43762500157E+03  0.58898963274E+03  0.80296833064E+02 0.  0.
         13    1    3    3    0    0 -0.39669835191E+03  0.27180751889E+03  0.51564136668E+03  0.70507795935E+03  0.00000000000E+00 0.  1.
        -13    1    3    3    0    0 -0.18668419424E+03  0.66357869113E+02  0.17246953909E+03  0.26267869553E+03  0.00000000000E+00 0. -1.
          4    1    6    6  502    0  0.20009880394E+03  0.10401045150E+03 -0.24964287710E+03  0.33642127080E+03  0.00000000000E+00 0. -1.
          1    1    5    5  503    0  0.12119246535E+03 -0.24500059229E+03 -0.12590503405E+04  0.12883790839E+04  0.00000000000E+00 0. -1.
         -2    1    5    5    0  503  0.93762890669E+02 -0.20808637612E+03 -0.14568888147E+04  0.14746580749E+04  0.00000000000E+00 0.  1.
         -3    1    6    6    0  502  0.16832838619E+03  0.10911128915E+02 -0.18798212447E+03  0.25256836194E+03  0.00000000000E+00 0.  1.
<mgrwt>
<rscale>  0 0.35471213E+04</rscale>
<asrwt>0</asrwt>
<pdfrwt beam="1">  1        2 0.52194129E+00 0.35471213E+04</pdfrwt>
<pdfrwt beam="2">  1       -2 0.14264078E+00 0.35471213E+04</pdfrwt>
<totfact> 0.26969444E-01</totfact>
</mgrwt>
</event>
<event>
12    1  0.1489233E-007  0.1672359E+04  0.7818608E-02  0.8777288E-01
          2   -1    0    0  501    0  0.00000000000E+00  0.00000000000E+00  0.15778789108E+04  0.15778789108E+04  0.00000000000E+00 0. -1.
         -2   -1    0    0    0  501 -0.00000000000E+00 -0.00000000000E+00 -0.44312420664E+03  0.44312420664E+03  0.00000000000E+00 0.  1.
         23    2    1    2    0    0 -0.36195170874E+03  0.28385554930E+03 -0.41177041635E+02  0.47168392657E+03  0.95953975930E+02 0.  0.
        254    2    1    2    0    0  0.36195170874E+03 -0.28385554930E+03  0.11759317458E+04  0.15493191909E+04  0.89777027804E+03 0.  0.
        -24    2    4    4    0    0  0.64855899387E+03 -0.28201412181E+03  0.82848099145E+03  0.10921378840E+04  0.78890246366E+02 0.  0.
         24    2    4    4    0    0 -0.28660728513E+03 -0.18414274885E+01  0.34745075439E+03  0.45718130694E+03  0.78393838733E+02 0.  0.
         13    1    3    3    0    0 -0.11982781695E+03  0.14690590741E+03  0.53213459830E+01  0.18965328383E+03  0.00000000000E+00 0. -1.
        -13    1    3    3    0    0 -0.24212389179E+03  0.13694964190E+03 -0.46498387618E+02  0.28203064274E+03  0.00000000000E+00 0.  1.
          2    1    6    6  502    0 -0.12085988647E+03 -0.58854567329E+01  0.20754577650E+03  0.24024362656E+03  0.00000000000E+00 0. -1.
          3    1    5    5  503    0  0.38756632960E+02  0.12595481909E+01  0.54412192539E+02  0.66815789728E+02  0.00000000000E+00 0. -1.
         -4    1    5    5    0  503  0.60980236091E+03 -0.28327367000E+03  0.77406879891E+03  0.10253220942E+04  0.00000000000E+00 0.  1.
         -1    1    6    6    0  502 -0.16574739866E+03  0.40440292444E+01  0.13990497789E+03  0.21693768039E+03  0.00000000000E+00 0.  1.
<mgrwt>
<rscale>  0 0.16723592E+04</rscale>
<asrwt>0</asrwt>
<pdfrwt beam="1">  1        2 0.24275060E+00 0.16723592E+04</pdfrwt>
<pdfrwt beam="2">  1       -2 0.68172955E-01 0.16723592E+04</pdfrwt>
<totfact> 0.21546569E+01</totfact>
</mgrwt>
</event>
<event>
12    1  0.1489233E-007  0.2449036E+04  0.7818608E-02  0.8421370E-01
         -1   -1    0    0    0  501 -0.00000000000E+00  0.00000000000E+00  0.16858727525E+04  0.16858727525E+04  0.00000000000E+00 0.  1.
          1   -1    0    0  501    0  0.00000000000E+00 -0.00000000000E+00 -0.88941744509E+03  0.88941744509E+03  0.00000000000E+00 0. -1.
         23    2    1    2    0    0 -0.42675203918E+03  0.38928672931E+03 -0.58747085974E+03  0.82895373813E+03  0.91546864229E+02 0.  0.
        254    2    1    2    0    0  0.42675203918E+03 -0.38928672931E+03  0.13839261671E+04  0.17463364594E+04  0.89486196307E+03 0.  0.
        -24    2    4    4    0    0  0.40014069032E+03  0.83831168974E+02  0.18892933967E+03  0.45828757112E+03  0.84811352496E+02 0.  0.
         24    2    4    4    0    0  0.26611348858E+02 -0.47311789828E+03  0.11949968274E+04  0.12880488883E+04  0.80646212009E+02 0.  0.
         11    1    3    3    0    0 -0.10803475255E+03  0.52677538196E+02 -0.10110934554E+03  0.15706537029E+03  0.00000000000E+00 0.  1.
        -11    1    3    3    0    0 -0.31871728663E+03  0.33660919111E+03 -0.48636151420E+03  0.67188836783E+03  0.00000000000E+00 0. -1.
          2    1    6    6  502    0 -0.27025362160E+01 -0.29255051214E+03  0.82415484649E+03  0.87454234709E+03  0.00000000000E+00 0. -1.
          1    1    5    5  503    0  0.33225724857E+03  0.35493990410E+02  0.14836764484E+03  0.36560588154E+03  0.00000000000E+00 0. -1.
         -2    1    5    5    0  503  0.67883441751E+02  0.48337178564E+02  0.40561694825E+02  0.92681689575E+02  0.00000000000E+00 0.  1.
         -1    1    6    6    0  502  0.29313885074E+02 -0.18056738614E+03  0.37084198095E+03  0.41350654121E+03  0.00000000000E+00 0.  1.
<mgrwt>
<rscale>  0 0.24490362E+04</rscale>
<asrwt>0</asrwt>
<pdfrwt beam="1">  1        1 0.13683345E+00 0.24490362E+04</pdfrwt>
<pdfrwt beam="2">  1       -1 0.25936504E+00 0.24490362E+04</pdfrwt>
<totfact> 0.10034866E+00</totfact>
</mgrwt>
</event>
<event>
12    1  0.1489233E-007  0.1900574E+04  0.7818608E-02  0.8654571E-01
         -2   -1    0    0    0  501 -0.00000000000E+00  0.00000000000E+00  0.33590769403E+03  0.33590769403E+03  0.00000000000E+00 0.  1.
          2   -1    0    0  501    0  0.00000000000E+00 -0.00000000000E+00 -0.26883726307E+04  0.26883726307E+04  0.00000000000E+00 0. -1.
         23    2    1    2    0    0 -0.12355658129E+03 -0.56217511395E+02 -0.20465754829E+04  0.20531047583E+04  0.91330738950E+02 0.  0.
        254    2    1    2    0    0  0.12355658129E+03  0.56217511395E+02 -0.30588945382E+03  0.97117556651E+03  0.91169456818E+03 0.  0.
        -24    2    4    4    0    0  0.37968407205E+03  0.27263983332E+03 -0.39279337833E+03  0.61569308754E+03  0.79365399866E+02 0.  0.
         24    2    4    4    0    0 -0.25612749076E+03 -0.21642232193E+03  0.86903924509E+02  0.35548247897E+03  0.79847278036E+02 0.  0.
         13    1    3    3    0    0 -0.91564670433E+02 -0.47910131381E+02 -0.87782381647E+03  0.88388580842E+03  0.00000000000E+00 0.  1.
        -13    1    3    3    0    0 -0.31991910860E+02 -0.83073800146E+01 -0.11687516664E+04  0.11692189498E+04  0.00000000000E+00 0. -1.
          4    1    6    6  502    0 -0.22636615918E+03 -0.14904549202E+03  0.69499263420E+02  0.27979696983E+03  0.00000000000E+00 0. -1.
          3    1    5    5  503    0  0.35125281545E+03  0.27153269575E+03 -0.38044285859E+03  0.58467539189E+03  0.00000000000E+00 0. -1.
         -4    1    5    5    0  503  0.28431256605E+02  0.11071375686E+01 -0.12350519741E+02  0.31017695653E+02  0.00000000000E+00 0.  1.
         -1    1    6    6    0  502 -0.29761331585E+02 -0.67376829910E+02  0.17404661088E+02  0.75685509141E+02  0.00000000000E+00 0.  1.
<mgrwt>
<rscale>  0 0.19005737E+04</rscale>
<asrwt>0</asrwt>
<pdfrwt beam="1">  1        2 0.41359581E+00 0.19005737E+04</pdfrwt>
<pdfrwt beam="2">  1       -2 0.51678104E-01 0.19005737E+04</pdfrwt>
<totfact> 0.89503294E+00</totfact>
</mgrwt>
</event>
<event>
12    1  0.1489233E-007  0.1162612E+04  0.7818608E-02  0.9146226E-01
          2   -1    0    0  501    0  0.00000000000E+00  0.00000000000E+00  0.20461862369E+04  0.20461862369E+04  0.00000000000E+00 0. -1.
         -2   -1    0    0    0  501 -0.00000000000E+00 -0.00000000000E+00 -0.16514474087E+03  0.16514474087E+03  0.00000000000E+00 0.  1.
         23    2    1    2    0    0  0.19938894343E+03 -0.51880178205E+02  0.56818233406E+03  0.61080287771E+03  0.88326026895E+02 0.  0.
        254    2    1    2    0    0 -0.19938894343E+03  0.51880178205E+02  0.13128591619E+04  0.16005281000E+04  0.89198851801E+03 0.  0.
        -24    2    4    4    0    0 -0.37771299256E+02  0.45938523381E+03  0.72116512007E+03  0.85969575819E+03  0.80846781924E+02 0.  0.
         24    2    4    4    0    0 -0.16161764417E+03 -0.40750505560E+03  0.59169404185E+03  0.74083234183E+03  0.80932603439E+02 0.  0.
         13    1    3    3    0    0  0.20659731085E+02 -0.38037462660E+02  0.14206857889E+03  0.14851651142E+03  0.00000000000E+00 0.  1.
        -13    1    3    3    0    0  0.17872921234E+03 -0.13842715545E+02  0.42611375516E+03  0.46228636629E+03  0.00000000000E+00 0. -1.
          2    1    6    6  502    0 -0.13200575626E+03 -0.25908126536E+03  0.34255414389E+03  0.44932389570E+03  0.00000000000E+00 0. -1.
          1    1    5    5  503    0  0.88759592818E+01  0.27522580742E+03  0.47073369689E+03  0.54536065233E+03  0.00000000000E+00 0. -1.
         -2    1    5    5    0  503 -0.46647258537E+02  0.18415942639E+03  0.25043142319E+03  0.31433510586E+03  0.00000000000E+00 0.  1.
         -1    1    6    6    0  502 -0.29611887912E+02 -0.14842379024E+03  0.24913989796E+03  0.29150844614E+03  0.00000000000E+00 0.  1.
<mgrwt>
<rscale>  0 0.11626124E+04</rscale>
<asrwt>0</asrwt>
<pdfrwt beam="1">  1        2 0.31479787E+00 0.11626124E+04</pdfrwt>
<pdfrwt beam="2">  1       -2 0.25406885E-01 0.11626124E+04</pdfrwt>
<totfact> 0.86938752E+01</totfact>
</mgrwt>
</event>
<event>
12    1  0.1489233E-007  0.1733668E+04  0.7818608E-02  0.8742392E-01
          1   -1    0    0  501    0  0.00000000000E+00  0.00000000000E+00  0.14386481279E+04  0.14386481279E+04  0.00000000000E+00 0. -1.
         -1   -1    0    0    0  501 -0.00000000000E+00 -0.00000000000E+00 -0.52229672741E+03  0.52229672741E+03  0.00000000000E+00 0.  1.
         23    2    1    2    0    0  0.45402812740E+03 -0.36236401218E+03  0.36452667792E+02  0.58704428623E+03  0.76439382658E+02 0.  0.
        254    2    1    2    0    0 -0.45402812740E+03  0.36236401218E+03  0.87989873270E+03  0.13739005691E+04  0.88086989739E+03 0.  0.
        -24    2    4    4    0    0 -0.45003624796E+02 -0.56058589983E+02  0.76468529547E+03  0.77206393798E+03  0.78557185964E+02 0.  0.
         24    2    4    4    0    0 -0.40902450260E+03  0.41842260216E+03  0.11521343723E+03  0.60183663110E+03  0.80960957796E+02 0.  0.
         13    1    3    3    0    0  0.14378946254E+03 -0.10362648492E+03  0.45443323627E+02  0.18297254870E+03  0.00000000000E+00 0.  1.
        -13    1    3    3    0    0  0.31023866486E+03 -0.25873752725E+03 -0.89906558352E+01  0.40407173754E+03  0.00000000000E+00 0. -1.
          4    1    6    6  502    0 -0.19971888366E+03  0.15264612848E+03  0.31542382270E+02  0.25334441953E+03  0.00000000000E+00 0. -1.
          3    1    5    5  503    0  0.97812997548E+01 -0.60154377579E+01  0.15909704329E+02  0.19620856458E+02  0.00000000000E+00 0. -1.
         -2    1    5    5    0  503 -0.54784924551E+02 -0.50043152226E+02  0.74877559114E+03  0.75244308152E+03  0.00000000000E+00 0.  1.
         -3    1    6    6    0  502 -0.20930561894E+03  0.26577647368E+03  0.83671054958E+02  0.34849221157E+03  0.00000000000E+00 0.  1.
<mgrwt>
<rscale>  0 0.17336680E+04</rscale>
<asrwt>0</asrwt>
<pdfrwt beam="1">  1        1 0.22133048E+00 0.17336680E+04</pdfrwt>
<pdfrwt beam="2">  1       -1 0.80353343E-01 0.17336680E+04</pdfrwt>
<totfact> 0.10584159E+01</totfact>
</mgrwt>
</event>
<event>
12    1  0.2167055E-007  0.1975719E+04  0.7818608E-02  0.8618058E-01
         -2   -1    0    0    0  501 -0.00000000000E+00  0.00000000000E+00  0.59248349505E+03  0.59248349505E+03  0.00000000000E+00 0. -1.
          2   -1    0    0  501    0  0.00000000000E+00 -0.00000000000E+00 -0.16470776589E+04  0.16470776589E+04  0.00000000000E+00 0.  1.
         23    2    1    2    0    0 -0.75992163533E+03  0.60152297811E+02 -0.22428678016E+03  0.79965170212E+03  0.89660995812E+02 0.  0.
        254    2    1    2    0    0  0.75992163533E+03 -0.60152297811E+02 -0.83030738372E+03  0.14399094519E+04  0.89600763800E+03 0.  0.
        -24    2    4    4    0    0  0.53123565535E+03  0.34588267356E+03 -0.23761693770E+03  0.68175459861E+03  0.80507007533E+02 0.  0.
         24    2    4    4    0    0  0.22868597998E+03 -0.40603497137E+03 -0.59269044602E+03  0.75815485326E+03  0.79719140079E+02 0.  0.
         11    1    3    3    0    0 -0.29733166318E+03  0.28342451037E+02 -0.13353778931E+03  0.32717236074E+03  0.00000000000E+00 0.  1.
        -11    1    3    3    0    0 -0.46258997215E+03  0.31809846774E+02 -0.90748990851E+02  0.47247934138E+03  0.00000000000E+00 0. -1.
          2    1    6    6  502    0  0.21808223358E+02 -0.48269039376E+02 -0.32952301161E+02  0.62380709519E+02  0.00000000000E+00 0. -1.
          3    1    5    5  503    0  0.60561828022E+01  0.20007759872E+02 -0.90171110549E+01  0.22766117302E+02  0.00000000000E+00 0. -1.
         -4    1    5    5    0  503  0.52517947255E+03  0.32587491369E+03 -0.22859982664E+03  0.65898848131E+03  0.00000000000E+00 0.  1.
         -1    1    6    6    0  502  0.20687775662E+03 -0.35776593200E+03 -0.55973814486E+03  0.69577414374E+03  0.00000000000E+00 0.  1.
<mgrwt>
<rscale>  0 0.19757189E+04</rscale>
<asrwt>0</asrwt>
<pdfrwt beam="1">  1        2 0.25339656E+00 0.19757189E+04</pdfrwt>
<pdfrwt beam="2">  1       -2 0.91151308E-01 0.19757189E+04</pdfrwt>
<totfact> 0.10026775E+01</totfact>
</mgrwt>
</event>
<event>
12    1  0.1489233E-007  0.1841963E+04  0.7818608E-02  0.8684297E-01
         -1   -1    0    0    0  501 -0.00000000000E+00  0.00000000000E+00  0.68987520455E+03  0.68987520455E+03  0.00000000000E+00 0.  1.
          1   -1    0    0  501    0  0.00000000000E+00 -0.00000000000E+00 -0.12295083009E+04  0.12295083009E+04  0.00000000000E+00 0. -1.
         23    2    1    2    0    0 -0.53051215770E+03 -0.27831772502E+03 -0.11573613430E+03  0.61689628337E+03  0.90897008358E+02 0.  0.
        254    2    1    2    0    0  0.53051215770E+03  0.27831772502E+03 -0.42389696206E+03  0.13024872221E+04  0.10760485229E+04 0.  0.
        -24    2    4    4    0    0 -0.48541504051E+02 -0.20098769498E+02 -0.61204761159E+03  0.61979340145E+03  0.82348913008E+02 0.  0.
         24    2    4    4    0    0  0.57905366175E+03  0.29841649452E+03  0.18815064953E+03  0.68269382063E+03  0.79464699255E+02 0.  0.
         13    1    3    3    0    0 -0.38614556733E+03 -0.17597989241E+03 -0.46582523560E+02  0.42690426702E+03  0.00000000000E+00 0.  1.
        -13    1    3    3    0    0 -0.14436659037E+03 -0.10233783261E+03 -0.69153610736E+02  0.18999201635E+03  0.00000000000E+00 0. -1.
          4    1    6    6  502    0  0.50165321868E+03  0.24473906530E+03  0.18644942141E+03  0.58848665969E+03  0.00000000000E+00 0. -1.
          1    1    5    5  503    0 -0.30946508969E+02 -0.45862462441E+02 -0.23362246359E+03  0.24008437552E+03  0.00000000000E+00 0. -1.
         -2    1    5    5    0  503 -0.17594995081E+02  0.25763692944E+02 -0.37842514800E+03  0.37970902592E+03  0.00000000000E+00 0.  1.
         -3    1    6    6    0  502  0.77400443070E+02  0.53677429223E+02  0.17012281191E+01  0.94207160941E+02  0.00000000000E+00 0.  1.
<mgrwt>
<rscale>  0 0.18419634E+04</rscale>
<asrwt>0</asrwt>
<pdfrwt beam="1">  1        1 0.18915512E+00 0.18419634E+04</pdfrwt>
<pdfrwt beam="2">  1       -1 0.10613465E+00 0.18419634E+04</pdfrwt>
<totfact> 0.79387647E+00</totfact>
</mgrwt>
</event>
<event>
12    1  0.1489233E-007  0.1580975E+04  0.7818608E-02  0.8832321E-01
         -1   -1    0    0    0  501 -0.00000000000E+00  0.00000000000E+00  0.32758710784E+03  0.32758710784E+03  0.00000000000E+00 0.  1.
          1   -1    0    0  501    0  0.00000000000E+00 -0.00000000000E+00 -0.19074951913E+04  0.19074951913E+04  0.00000000000E+00 0. -1.
         23    2    1    2    0    0 -0.19549618056E+03  0.67394303213E+01  0.15729838202E+03  0.26728916389E+03  0.91850637513E+02 0.  0.
        254    2    1    2    0    0  0.19549618056E+03 -0.67394303213E+01 -0.17372064654E+04  0.19677931352E+04  0.90336002948E+03 0.  0.
        -24    2    4    4    0    0  0.15082615517E+03  0.23562947264E+03 -0.96268540451E+02  0.30651956513E+03  0.80105146307E+02 0.  0.
         24    2    4    4    0    0  0.44670025393E+02 -0.24236890296E+03 -0.16409379250E+04  0.16612735701E+04  0.80090602965E+02 0.  0.
         13    1    3    3    0    0 -0.40082226783E+02  0.21248460605E+02  0.82618003994E+02  0.94254000265E+02  0.00000000000E+00 0. -1.
        -13    1    3    3    0    0 -0.15541395378E+03 -0.14509030283E+02  0.74680378026E+02  0.17303516362E+03  0.00000000000E+00 0.  1.
          2    1    6    6  502    0  0.62432448147E+02 -0.18549790825E+03 -0.11239859019E+04  0.11408994663E+04  0.00000000000E+00 0. -1.
          3    1    5    5  503    0  0.13585302214E+03  0.23952221636E+03 -0.88727600686E+02  0.28930869824E+03  0.00000000000E+00 0. -1.
         -4    1    5    5    0  503  0.14973133028E+02 -0.38927437205E+01 -0.75409397647E+01  0.17210866884E+02  0.00000000000E+00 0.  1.
         -1    1    6    6    0  502 -0.17762422754E+02 -0.56870994715E+02 -0.51695202311E+03  0.52037410379E+03  0.00000000000E+00 0.  1.
<mgrwt>
<rscale>  0 0.15809754E+04</rscale>
<asrwt>0</asrwt>
<pdfrwt beam="1">  1        1 0.29346080E+00 0.15809754E+04</pdfrwt>
<pdfrwt beam="2">  1       -1 0.50398016E-01 0.15809754E+04</pdfrwt>
<totfact> 0.13087453E+01</totfact>
</mgrwt>
</event>
<event>
12    1  0.1489233E-007  0.1223790E+04  0.7818608E-02  0.9092284E-01
         -2   -1    0    0    0  501 -0.00000000000E+00  0.00000000000E+00  0.93745239138E+03  0.93745239138E+03  0.00000000000E+00 0.  1.
          2   -1    0    0  501    0  0.00000000000E+00 -0.00000000000E+00 -0.39939703720E+03  0.39939703720E+03  0.00000000000E+00 0. -1.
         23    2    1    2    0    0 -0.21415249215E+03 -0.55677654114E+02 -0.20069363624E+02  0.24095909065E+03  0.93258849167E+02 0.  0.
        254    2    1    2    0    0  0.21415249215E+03  0.55677654114E+02  0.55812471780E+03  0.10958903379E+04  0.91679394691E+03 0.  0.
        -24    2    4    4    0    0 -0.22069563504E+03  0.31228019470E+03  0.84846505798E+02  0.39960964047E+03  0.79141972957E+02 0.  0.
         24    2    4    4    0    0  0.43484812719E+03 -0.25660254059E+03  0.47327821201E+03  0.69628069747E+03  0.76660199277E+02 0.  0.
         11    1    3    3    0    0 -0.11695749486E+03 -0.36859761050E+02 -0.57086709070E+02  0.13526488806E+03  0.00000000000E+00 0.  1.
        -11    1    3    3    0    0 -0.97194997283E+02 -0.18817893064E+02  0.37017345446E+02  0.10569420259E+03  0.00000000000E+00 0. -1.
          4    1    6    6  502    0  0.40681151196E+02 -0.50587288840E+02  0.46242641450E+02  0.79702018438E+02  0.00000000000E+00 0. -1.
          3    1    5    5  503    0 -0.91244239777E+02  0.18241180385E+03  0.19264145405E+02  0.20486748101E+03  0.00000000000E+00 0. -1.
         -2    1    5    5    0  503 -0.12945139526E+03  0.12986839085E+03  0.65582360393E+02  0.19474215946E+03  0.00000000000E+00 0.  1.
         -3    1    6    6    0  502  0.39416697599E+03 -0.20601525175E+03  0.42703557056E+03  0.61657867903E+03  0.00000000000E+00 0.  1.
<mgrwt>
<rscale>  0 0.12237904E+04</rscale>
<asrwt>0</asrwt>
<pdfrwt beam="1">  1        2 0.61445698E-01 0.12237904E+04</pdfrwt>
<pdfrwt beam="2">  1       -2 0.14422344E+00 0.12237904E+04</pdfrwt>
<totfact> 0.26055398E+01</totfact>
</mgrwt>
</event>
<event>
12    1  0.1539733E-007  0.2728328E+04  0.7818608E-02  0.8325872E-01
         -1   -1    0    0    0  501 -0.00000000000E+00  0.00000000000E+00  0.12648146777E+04  0.12648146777E+04  0.00000000000E+00 0.  1.
          1   -1    0    0  501    0  0.00000000000E+00 -0.00000000000E+00 -0.14713167320E+04  0.14713167320E+04  0.00000000000E+00 0. -1.
         23    2    1    2    0    0 -0.39694335550E+02  0.50467948979E+03  0.10147602178E+04  0.11375932946E+04  0.90017646474E+02 0.  0.
        254    2    1    2    0    0  0.39694335550E+02 -0.50467948979E+03 -0.12212622722E+04  0.15985381151E+04  0.89864650468E+03 0.  0.
        -24    2    4    4    0    0  0.25249180141E+03 -0.64672854607E+02  0.86355038949E+01  0.27300324671E+03  0.80755884511E+02 0.  0.
         24    2    4    4    0    0 -0.21279746586E+03 -0.44000663518E+03 -0.12298977760E+04  0.13255348684E+04  0.74199375470E+02 0.  0.
         11    1    3    3    0    0 -0.33144003852E+01  0.13026141319E+02  0.58188963346E+01  0.14646677512E+02  0.00000000000E+00 0. -1.
        -11    1    3    3    0    0 -0.36379935164E+02  0.49165334847E+03  0.10089413215E+04  0.11229466171E+04  0.00000000000E+00 0.  1.
          2    1    6    6  502    0 -0.15590269762E+03 -0.26317871870E+03 -0.83087393353E+03  0.88539267137E+03  0.00000000000E+00 0. -1.
          3    1    5    5  503    0  0.18315148887E+03 -0.82351965290E+02  0.13589317800E+02  0.20127340515E+03  0.00000000000E+00 0. -1.
         -4    1    5    5    0  503  0.69340312544E+02  0.17679110683E+02 -0.49538139049E+01  0.71729841562E+02  0.00000000000E+00 0.  1.
         -1    1    6    6    0  502 -0.56894768247E+02 -0.17682791649E+03 -0.39902384252E+03  0.44014219702E+03  0.00000000000E+00 0.  1.
<mgrwt>
<rscale>  0 0.27283277E+04</rscale>
<asrwt>0</asrwt>
<pdfrwt beam="1">  1        1 0.22635642E+00 0.27283277E+04</pdfrwt>
<pdfrwt beam="2">  1       -1 0.19458687E+00 0.27283277E+04</pdfrwt>
<totfact> 0.97905199E-01</totfact>
</mgrwt>
</event>
<event>
12    1  0.1489233E-007  0.1369765E+04  0.7818608E-02  0.8976000E-01
          1   -1    0    0  501    0  0.00000000000E+00  0.00000000000E+00  0.31621931168E+03  0.31621931168E+03  0.00000000000E+00 0. -1.
         -1   -1    0    0    0  501 -0.00000000000E+00 -0.00000000000E+00 -0.14833496831E+04  0.14833496831E+04  0.00000000000E+00 0.  1.
         23    2    1    2    0    0  0.18497818512E+03 -0.33110328098E+03 -0.30156809099E+03  0.49325300382E+03  0.92243702378E+02 0.  0.
        254    2    1    2    0    0 -0.18497818512E+03  0.33110328098E+03 -0.86556228040E+03  0.13063159909E+04  0.90189638833E+03 0.  0.
        -24    2    4    4    0    0 -0.30045287076E+03  0.85249545505E+02  0.69304010738E+02  0.32971783803E+03  0.79821013849E+02 0.  0.
         24    2    4    4    0    0  0.11547468564E+03  0.24585373547E+03 -0.93486629113E+03  0.97659815291E+03  0.77398370140E+02 0.  0.
         11    1    3    3    0    0  0.47480305982E+01  0.25331510555E+01 -0.20624412412E+02  0.21314948655E+02  0.00000000000E+00 0. -1.
        -11    1    3    3    0    0  0.18023015452E+03 -0.33363643203E+03 -0.28094367858E+03  0.47193805516E+03  0.00000000000E+00 0.  1.
          2    1    6    6  502    0  0.59091390581E+02  0.65768083039E+02 -0.21644888705E+03  0.23381050852E+03  0.00000000000E+00 0. -1.
          3    1    5    5  503    0 -0.20109601252E+03  0.25513130834E+02  0.19846934620E+02  0.20367726164E+03  0.00000000000E+00 0. -1.
         -4    1    5    5    0  503 -0.99356858240E+02  0.59736414671E+02  0.49457076118E+02  0.12604057638E+03  0.00000000000E+00 0.  1.
         -1    1    6    6    0  502  0.56383295059E+02  0.18008565243E+03 -0.71841740409E+03  0.74278764440E+03  0.00000000000E+00 0.  1.
<mgrwt>
<rscale>  0 0.13697647E+04</rscale>
<asrwt>0</asrwt>
<pdfrwt beam="1">  1        1 0.48649126E-01 0.13697647E+04</pdfrwt>
<pdfrwt beam="2">  1       -1 0.22820764E+00 0.13697647E+04</pdfrwt>
<totfact> 0.77630831E+00</totfact>
</mgrwt>
</event>
<event>
12    1  0.1489233E-007  0.1794200E+04  0.7818608E-02  0.8709390E-01
         -2   -1    0    0    0  501 -0.00000000000E+00  0.00000000000E+00  0.55832086532E+03  0.55832086532E+03  0.00000000000E+00 0.  1.
          2   -1    0    0  501    0  0.00000000000E+00 -0.00000000000E+00 -0.14414437936E+04  0.14414437936E+04  0.00000000000E+00 0. -1.
         23    2    1    2    0    0 -0.25747817760E+03  0.21286954950E+03  0.31167243620E+03  0.46595493726E+03  0.91464960650E+02 0.  0.
        254    2    1    2    0    0  0.25747817760E+03 -0.21286954950E+03 -0.11947953645E+04  0.15338097216E+04  0.90190234628E+03 0.  0.
        -24    2    4    4    0    0 -0.24764548943E+03 -0.26577576427E+03 -0.21942807527E+03  0.43140141298E+03  0.77417398536E+02 0.  0.
         24    2    4    4    0    0  0.50512366703E+03  0.52906214767E+02 -0.97536728920E+03  0.11024083087E+04  0.77548330954E+02 0.  0.
         11    1    3    3    0    0 -0.46580862954E+02  0.33346606947E+02  0.13216750171E+02  0.58791627580E+02  0.00000000000E+00 0. -1.
        -11    1    3    3    0    0 -0.21089731465E+03  0.17952294255E+03  0.29845568603E+03  0.40716330968E+03  0.00000000000E+00 0.  1.
          2    1    6    6  502    0  0.10491232880E+03  0.25933835120E+02 -0.27233925414E+03  0.29299800321E+03  0.00000000000E+00 0. -1.
          3    1    5    5  503    0 -0.14573740439E+03 -0.18784106183E+03 -0.10659584919E+03  0.26055005395E+03  0.00000000000E+00 0. -1.
         -4    1    5    5    0  503 -0.10190808504E+03 -0.77934702436E+02 -0.11283222608E+03  0.17085135903E+03  0.00000000000E+00 0.  1.
         -1    1    6    6    0  502  0.40021133823E+03  0.26972379646E+02 -0.70302803506E+03  0.80941030546E+03  0.00000000000E+00 0.  1.
<mgrwt>
<rscale>  0 0.17941997E+04</rscale>
<asrwt>0</asrwt>
<pdfrwt beam="1">  1        2 0.22176058E+00 0.17941997E+04</pdfrwt>
<pdfrwt beam="2">  1       -2 0.85895518E-01 0.17941997E+04</pdfrwt>
<totfact> 0.15226623E+01</totfact>
</mgrwt>
</event>
<event>
12    1  0.1489233E-007  0.1529302E+04  0.7818608E-02  0.8865198E-01
          1   -1    0    0  501    0  0.00000000000E+00  0.00000000000E+00  0.87551160952E+03  0.87551160952E+03  0.00000000000E+00 0. -1.
         -1   -1    0    0    0  501 -0.00000000000E+00 -0.00000000000E+00 -0.66782812744E+03  0.66782812744E+03  0.00000000000E+00 0.  1.
         23    2    1    2    0    0 -0.29106550763E+03 -0.38631938590E+03  0.17378397320E+03  0.52221995743E+03  0.92471708837E+02 0.  0.
        254    2    1    2    0    0  0.29106550763E+03  0.38631938590E+03  0.33899508879E+02  0.10211197795E+04  0.89865156194E+03 0.  0.
        -24    2    4    4    0    0  0.52916522685E+03  0.42231531717E+03 -0.16134814536E+03  0.70058936285E+03  0.80163376356E+02 0.  0.
         24    2    4    4    0    0 -0.23809971922E+03 -0.35995931263E+02  0.19524765424E+03  0.32053041668E+03  0.81430449904E+02 0.  0.
         13    1    3    3    0    0 -0.22417643430E+03 -0.25907839454E+03  0.15903127553E+03  0.37771369423E+03  0.00000000000E+00 0. -1.
        -13    1    3    3    0    0 -0.66889073335E+02 -0.12724099136E+03  0.14752697670E+02  0.14450626320E+03  0.00000000000E+00 0.  1.
          2    1    6    6  502    0 -0.15240931833E+03  0.75667375014E+01  0.15110288800E+03  0.21475087565E+03  0.00000000000E+00 0. -1.
          3    1    5    5  503    0  0.35569050819E+03  0.25811787625E+03 -0.13777986754E+03  0.46056906926E+03  0.00000000000E+00 0. -1.
         -4    1    5    5    0  503  0.17347471866E+03  0.16419744092E+03 -0.23568277817E+02  0.24002029360E+03  0.00000000000E+00 0.  1.
         -3    1    6    6    0  502 -0.85690400882E+02 -0.43562668764E+02  0.44144766237E+02  0.10577954102E+03  0.00000000000E+00 0.  1.
<mgrwt>
<rscale>  0 0.15293022E+04</rscale>
<asrwt>0</asrwt>
<pdfrwt beam="1">  1        1 0.13469409E+00 0.15293022E+04</pdfrwt>
<pdfrwt beam="2">  1       -1 0.10274279E+00 0.15293022E+04</pdfrwt>
<totfact> 0.16481005E+01</totfact>
</mgrwt>
</event>
<event>
12    1  0.1489233E-007  0.2190984E+04  0.7818608E-02  0.8522190E-01
         -1   -1    0    0    0  501 -0.00000000000E+00  0.00000000000E+00  0.11923300476E+04  0.11923300476E+04  0.00000000000E+00 0.  1.
          1   -1    0    0  501    0  0.00000000000E+00 -0.00000000000E+00 -0.10065193183E+04  0.10065193183E+04  0.00000000000E+00 0. -1.
         23    2    1    2    0    0 -0.23725059022E+01  0.64558496370E+03 -0.56155770083E+03  0.86035972951E+03  0.89923515644E+02 0.  0.
        254    2    1    2    0    0  0.23725059022E+01 -0.64558496370E+03  0.74736843016E+03  0.13384896364E+04  0.90344305971E+03 0.  0.
        -24    2    4    4    0    0 -0.13784639382E+03  0.14918245346E+03 -0.26248837271E+02  0.21795840677E+03  0.74564287095E+02 0.  0.
         24    2    4    4    0    0  0.14021889973E+03 -0.79476741716E+03  0.77361726743E+03  0.11205312296E+04  0.76091870954E+02 0.  0.
         11    1    3    3    0    0 -0.10861982132E+01  0.19407375872E+03 -0.11642635574E+03  0.22632034809E+03  0.00000000000E+00 0. -1.
        -11    1    3    3    0    0 -0.12863076890E+01  0.45151120498E+03 -0.44513134508E+03  0.63403938142E+03  0.00000000000E+00 0.  1.
          2    1    6    6  502    0  0.27815345632E+01 -0.18912452120E+03  0.19635518251E+03  0.27263745002E+03  0.00000000000E+00 0. -1.
          3    1    5    5  503    0  0.48227225846E+01  0.29350470515E+02  0.38779125400E+00  0.29746582234E+02  0.00000000000E+00 0. -1.
         -4    1    5    5    0  503 -0.14266911641E+03  0.11983198295E+03 -0.26636628525E+02  0.18821182453E+03  0.00000000000E+00 0.  1.
         -1    1    6    6    0  502  0.13743736516E+03 -0.60564289596E+03  0.57726208493E+03  0.84789377959E+03  0.00000000000E+00 0.  1.
<mgrwt>
<rscale>  0 0.21909845E+04</rscale>
<asrwt>0</asrwt>
<pdfrwt beam="1">  1        1 0.15484913E+00 0.21909845E+04</pdfrwt>
<pdfrwt beam="2">  1       -1 0.18343539E+00 0.21909845E+04</pdfrwt>
<totfact> 0.26833218E+00</totfact>
</mgrwt>
</event>
<event>
12    1  0.1489233E-007  0.1256882E+04  0.7818608E-02  0.9064475E-01
          2   -1    0    0  501    0  0.00000000000E+00  0.00000000000E+00  0.86686742296E+03  0.86686742296E+03  0.00000000000E+00 0. -1.
         -2   -1    0    0    0  501 -0.00000000000E+00 -0.00000000000E+00 -0.45559220843E+03  0.45559220843E+03  0.00000000000E+00 0.  1.
         23    2    1    2    0    0  0.23929649034E+03 -0.17290120677E+03  0.13884723018E+03  0.33889062760E+03  0.91709686269E+02 0.  0.
        254    2    1    2    0    0 -0.23929649034E+03  0.17290120677E+03  0.27242798435E+03  0.98356900379E+03  0.89779359597E+03 0.  0.
        -24    2    4    4    0    0 -0.14539679152E+03 -0.23545337308E+03 -0.19671643497E+03  0.34835856897E+03  0.77960367567E+02 0.  0.
         24    2    4    4    0    0 -0.93899698818E+02  0.40835457985E+03  0.46914441931E+03  0.63521043482E+03  0.88460126666E+02 0.  0.
         11    1    3    3    0    0  0.85947203442E+02 -0.10898616123E+03  0.91118925205E+02  0.16603482661E+03  0.00000000000E+00 0. -1.
        -11    1    3    3    0    0  0.15334928690E+03 -0.63915045544E+02  0.47728304974E+02  0.17285580099E+03  0.00000000000E+00 0.  1.
          4    1    6    6  502    0 -0.92186929108E+02  0.41229022457E+03  0.46853079903E+03  0.63087460626E+03  0.00000000000E+00 0. -1.
          3    1    5    5  503    0 -0.11131981105E+03 -0.22269515151E+03 -0.15624565520E+03  0.29393525751E+03  0.00000000000E+00 0. -1.
         -4    1    5    5    0  503 -0.34076980466E+02 -0.12758221567E+02 -0.40470779768E+02  0.54423311460E+02  0.00000000000E+00 0.  1.
         -3    1    6    6    0  502 -0.17127697102E+01 -0.39356447252E+01  0.61362028120E+00  0.43358285636E+01  0.00000000000E+00 0.  1.
<mgrwt>
<rscale>  0 0.12568819E+04</rscale>
<asrwt>0</asrwt>
<pdfrwt beam="1">  1        2 0.13336422E+00 0.12568819E+04</pdfrwt>
<pdfrwt beam="2">  1       -2 0.70091109E-01 0.12568819E+04</pdfrwt>
<totfact> 0.56315016E+01</totfact>
</mgrwt>
</event>
<event>
12    1  0.1489233E-007  0.3321868E+04  0.7818608E-02  0.8157353E-01
         -2   -1    0    0    0  501 -0.00000000000E+00  0.00000000000E+00  0.10476694810E+04  0.10476694810E+04  0.00000000000E+00 0.  1.
          2   -1    0    0  501    0  0.00000000000E+00 -0.00000000000E+00 -0.26331794509E+04  0.26331794509E+04  0.00000000000E+00 0. -1.
         23    2    1    2    0    0 -0.52862608405E+03 -0.91694772099E+03 -0.19683200464E+04  0.22366716303E+04  0.90429625007E+02 0.  0.
        254    2    1    2    0    0  0.52862608405E+03  0.91694772099E+03  0.38281007654E+03  0.14441773015E+04  0.90491207519E+03 0.  0.
        -24    2    4    4    0    0 -0.23374339561E+03  0.39314510750E+03  0.13864424786E+03  0.48423968550E+03  0.77889633503E+02 0.  0.
         24    2    4    4    0    0  0.76236947966E+03  0.52380261349E+03  0.24416582868E+03  0.95993761604E+03  0.79289806307E+02 0.  0.
         13    1    3    3    0    0 -0.82019171231E+02 -0.21522870351E+03 -0.41117613013E+03  0.47129221217E+03  0.00000000000E+00 0.  1.
        -13    1    3    3    0    0 -0.44660691281E+03 -0.70171901748E+03 -0.15571439163E+04  0.17653794181E+04  0.00000000000E+00 0. -1.
          2    1    6    6  502    0  0.69874191464E+03  0.49318248225E+03  0.24378042276E+03  0.88932452940E+03  0.00000000000E+00 0. -1.
          3    1    5    5  503    0 -0.21912271997E+03  0.31085704619E+03  0.11051487565E+03  0.39605606587E+03  0.00000000000E+00 0. -1.
         -4    1    5    5    0  503 -0.14620675640E+02  0.82288061305E+02  0.28129372210E+02  0.88183619627E+02  0.00000000000E+00 0.  1.
         -1    1    6    6    0  502  0.63627565014E+02  0.30620131241E+02  0.38540591889E+00  0.70613086638E+02  0.00000000000E+00 0.  1.
<mgrwt>
<rscale>  0 0.33218680E+04</rscale>
<asrwt>0</asrwt>
<pdfrwt beam="1">  1        2 0.40510453E+00 0.33218680E+04</pdfrwt>
<pdfrwt beam="2">  1       -2 0.16117992E+00 0.33218680E+04</pdfrwt>
<totfact> 0.59867837E-01</totfact>
</mgrwt>
</event>
<event>
12    1  0.1489233E-007  0.1884537E+04  0.7818608E-02  0.8662592E-01
          2   -1    0    0  501    0  0.00000000000E+00  0.00000000000E+00  0.71678538430E+03  0.71678538430E+03  0.00000000000E+00 0.  1.
         -2   -1    0    0    0  501 -0.00000000000E+00 -0.00000000000E+00 -0.12386832733E+04  0.12386832733E+04  0.00000000000E+00 0. -1.
         23    2    1    2    0    0 -0.57942609651E+03  0.24240657029E+03 -0.59313687301E+03  0.86879459369E+03  0.92179982995E+02 0.  0.
        254    2    1    2    0    0  0.57942609651E+03 -0.24240657029E+03  0.71238984015E+02  0.10866740639E+04  0.88390609326E+03 0.  0.
        -24    2    4    4    0    0  0.14402718641E+02 -0.41097431276E+03  0.22131878249E+03  0.47372225607E+03  0.79520112935E+02 0.  0.
         24    2    4    4    0    0  0.56502337787E+03  0.16856774247E+03 -0.15007979847E+03  0.61295180784E+03  0.74293145640E+02 0.  0.
         13    1    3    3    0    0 -0.57522330664E+03  0.23835813093E+03 -0.56738812121E+03  0.84239286035E+03  0.00000000000E+00 0. -1.
        -13    1    3    3    0    0 -0.42027898713E+01  0.40484393641E+01 -0.25748751807E+02  0.26401733345E+02  0.00000000000E+00 0.  1.
          2    1    6    6  502    0  0.33813647500E+03  0.13029232192E+03 -0.68252790617E+02  0.36874219762E+03  0.00000000000E+00 0. -1.
          1    1    5    5  503    0  0.36208709053E+02 -0.19787049158E+03  0.76818151682E+02  0.21532494160E+03  0.00000000000E+00 0. -1.
         -2    1    5    5    0  503 -0.21805990412E+02 -0.21310382118E+03  0.14450063080E+03  0.25839731446E+03  0.00000000000E+00 0.  1.
         -1    1    6    6    0  502  0.22688690287E+03  0.38275420544E+02 -0.81827007855E+02  0.24420961022E+03  0.00000000000E+00 0.  1.
<mgrwt>
<rscale>  0 0.18845371E+04</rscale>
<asrwt>0</asrwt>
<pdfrwt beam="1">  1        2 0.11027467E+00 0.18845371E+04</pdfrwt>
<pdfrwt beam="2">  1       -2 0.19056666E+00 0.18845371E+04</pdfrwt>
<totfact> 0.57240035E+00</totfact>
</mgrwt>
</event>
<event>
12    1  0.1489233E-007  0.1974011E+04  0.7818608E-02  0.8618869E-01
         -2   -1    0    0    0  501 -0.00000000000E+00  0.00000000000E+00  0.90644184150E+03  0.90644184150E+03  0.00000000000E+00 0.  1.
          2   -1    0    0  501    0  0.00000000000E+00 -0.00000000000E+00 -0.10747292268E+04  0.10747292268E+04  0.00000000000E+00 0. -1.
         23    2    1    2    0    0  0.43530864929E+03 -0.14120639659E+03  0.58082207442E+03  0.74503799806E+03  0.91073980008E+02 0.  0.
        254    2    1    2    0    0 -0.43530864929E+03  0.14120639659E+03 -0.74910945974E+03  0.12361330703E+04  0.87030288873E+03 0.  0.
        -24    2    4    4    0    0 -0.59379960330E+03 -0.17190129659E+03 -0.48167511116E+03  0.78783955435E+03  0.80822187836E+02 0.  0.
         24    2    4    4    0    0  0.15849095401E+03  0.31310769319E+03 -0.26743434858E+03  0.44829351590E+03  0.79310374880E+02 0.  0.
         13    1    3    3    0    0  0.28853346849E+03 -0.12657114392E+03  0.43942684261E+03  0.54071042797E+03  0.00000000000E+00 0.  1.
        -13    1    3    3    0    0  0.14677518080E+03 -0.14635252676E+02  0.14139523182E+03  0.20432757009E+03  0.00000000000E+00 0. -1.
          4    1    6    6  502    0  0.15540053584E+03  0.25986989748E+03 -0.20247941480E+03  0.36425211540E+03  0.00000000000E+00 0. -1.
          1    1    5    5  503    0 -0.43467882427E+03 -0.16084495857E+03 -0.37131004923E+03  0.59387535192E+03  0.00000000000E+00 0. -1.
         -2    1    5    5    0  503 -0.15912077903E+03 -0.11056338026E+02 -0.11036506193E+03  0.19396420243E+03  0.00000000000E+00 0.  1.
         -3    1    6    6    0  502  0.30904181715E+01  0.53237795711E+02 -0.64954933780E+02  0.84041400506E+02  0.00000000000E+00 0.  1.
<mgrwt>
<rscale>  0 0.19740107E+04</rscale>
<asrwt>0</asrwt>
<pdfrwt beam="1">  1        2 0.16534296E+00 0.19740107E+04</pdfrwt>
<pdfrwt beam="2">  1       -2 0.13945259E+00 0.19740107E+04</pdfrwt>
<totfact> 0.76303863E+00</totfact>
</mgrwt>
</event>
<event>
12    1  0.1489233E-007  0.2840641E+04  0.7818608E-02  0.8290761E-01
          1   -1    0    0  501    0  0.00000000000E+00  0.00000000000E+00  0.55514783055E+03  0.55514783055E+03  0.00000000000E+00 0. -1.
         -1   -1    0    0    0  501 -0.00000000000E+00 -0.00000000000E+00 -0.36338257771E+04  0.36338257771E+04  0.00000000000E+00 0.  1.
         23    2    1    2    0    0  0.22413862095E+03 -0.12058867700E+03 -0.32248424746E+04  0.32361122057E+04  0.89629633831E+02 0.  0.
        254    2    1    2    0    0 -0.22413862095E+03  0.12058867700E+03  0.14616452802E+03  0.95286140200E+03  0.90653242179E+03 0.  0.
        -24    2    4    4    0    0  0.96015340590E+02  0.45155029810E+03  0.12305852536E+03  0.48468786976E+03  0.81622993610E+02 0.  0.
         24    2    4    4    0    0 -0.32015396154E+03 -0.33096162110E+03  0.23106002662E+02  0.46817353224E+03  0.81353642849E+02 0.  0.
         11    1    3    3    0    0  0.23010283016E+03 -0.10635761357E+03 -0.30928199812E+04  0.31031910497E+04  0.00000000000E+00 0.  1.
        -11    1    3    3    0    0 -0.59642092099E+01 -0.14231063430E+02 -0.13202249334E+03  0.13292115598E+03  0.00000000000E+00 0. -1.
          4    1    6    6  502    0 -0.14949289772E+03 -0.16692130245E+03  0.51033970182E+02  0.22981582581E+03  0.00000000000E+00 0. -1.
          3    1    5    5  503    0  0.13690674640E+02  0.86852338596E+02 -0.85184506484E+01  0.88336443743E+02  0.00000000000E+00 0. -1.
         -4    1    5    5    0  503  0.82324665950E+02  0.36469795950E+03  0.13157697601E+03  0.39635142602E+03  0.00000000000E+00 0.  1.
         -3    1    6    6    0  502 -0.17066106382E+03 -0.16404031865E+03 -0.27927967520E+02  0.23835770643E+03  0.00000000000E+00 0.  1.
<mgrwt>
<rscale>  0 0.28406411E+04</rscale>
<asrwt>0</asrwt>
<pdfrwt beam="1">  1        1 0.85407362E-01 0.28406411E+04</pdfrwt>
<pdfrwt beam="2">  1       -1 0.55905010E+00 0.28406411E+04</pdfrwt>
<totfact> 0.22051601E-02</totfact>
</mgrwt>
</event>
<event>
12    1  0.1489233E-007  0.2034754E+04  0.7818608E-02  0.8590542E-01
          1   -1    0    0  501    0  0.00000000000E+00  0.00000000000E+00  0.93504719311E+03  0.93504719311E+03  0.00000000000E+00 0. -1.
         -1   -1    0    0    0  501 -0.00000000000E+00 -0.00000000000E+00 -0.11069559670E+04  0.11069559670E+04  0.00000000000E+00 0.  1.
         23    2    1    2    0    0 -0.38903112477E+03  0.45537557284E+03 -0.62901704449E+03  0.87334603840E+03  0.91426102177E+02 0.  0.
        254    2    1    2    0    0  0.38903112477E+03 -0.45537557284E+03  0.45710827061E+03  0.11686571217E+04  0.89336407397E+03 0.  0.
        -24    2    4    4    0    0  0.44522630233E+03 -0.64037041441E+03  0.15183068028E+03  0.79863929947E+03  0.80445305870E+02 0.  0.
         24    2    4    4    0    0 -0.56195177563E+02  0.18499484158E+03  0.30527759034E+03  0.37001782223E+03  0.79610251967E+02 0.  0.
         13    1    3    3    0    0 -0.36681725395E+03  0.44006695179E+03 -0.56854438870E+03  0.80712857822E+03  0.00000000000E+00 0.  1.
        -13    1    3    3    0    0 -0.22213870812E+02  0.15308621050E+02 -0.60472655789E+02  0.66217460183E+02  0.00000000000E+00 0. -1.
          2    1    6    6  502    0 -0.65680422359E+02  0.18782246257E+03  0.28692485333E+03  0.34916624519E+03  0.00000000000E+00 0. -1.
          3    1    5    5  503    0  0.33798753196E+03 -0.42820348782E+03  0.12251570027E+03  0.55910991366E+03  0.00000000000E+00 0. -1.
         -4    1    5    5    0  503  0.10723877036E+03 -0.21216692660E+03  0.29314980003E+02  0.23952938580E+03  0.00000000000E+00 0.  1.
         -1    1    6    6    0  502  0.94852447966E+01 -0.28276209911E+01  0.18352737011E+02  0.20851577041E+02  0.00000000000E+00 0.  1.
<mgrwt>
<rscale>  0 0.20347541E+04</rscale>
<asrwt>0</asrwt>
<pdfrwt beam="1">  1        1 0.14385342E+00 0.20347541E+04</pdfrwt>
<pdfrwt beam="2">  1       -1 0.17030092E+00 0.20347541E+04</pdfrwt>
<totfact> 0.38582316E+00</totfact>
</mgrwt>
</event>
<event>
12    1  0.1489233E-007  0.2720072E+04  0.7818608E-02  0.8328522E-01
          2   -1    0    0  501    0  0.00000000000E+00  0.00000000000E+00  0.16072941635E+04  0.16072941635E+04  0.00000000000E+00 0. -1.
         -2   -1    0    0    0  501 -0.00000000000E+00 -0.00000000000E+00 -0.11508145420E+04  0.11508145420E+04  0.00000000000E+00 0.  1.
         23    2    1    2    0    0  0.54589549946E+03  0.81928420142E+03 -0.50732790523E+03  0.11113922373E+04  0.92642337496E+02 0.  0.
        254    2    1    2    0    0 -0.54589549946E+03 -0.81928420142E+03  0.96380752677E+03  0.16467164682E+04  0.90195436643E+03 0.  0.
        -24    2    4    4    0    0  0.10899582574E+03 -0.23491935788E+03 -0.77871011693E+02  0.28243473043E+03  0.81475688135E+02 0.  0.
         24    2    4    4    0    0 -0.65489132520E+03 -0.58436484354E+03  0.10416785385E+04  0.13642817378E+04  0.76194254826E+02 0.  0.
         13    1    3    3    0    0  0.13026562988E+03  0.24861066492E+03 -0.11146324540E+03  0.30199412596E+03  0.00000000000E+00 0. -1.
        -13    1    3    3    0    0  0.41562986958E+03  0.57067353650E+03 -0.39586465983E+03  0.80939811134E+03  0.00000000000E+00 0.  1.
          4    1    6    6  502    0 -0.11763244712E+03 -0.11690072883E+03  0.15479508126E+03  0.22685830423E+03  0.00000000000E+00 0. -1.
          3    1    5    5  503    0  0.32379722431E+02 -0.51474186423E+02  0.15562722316E+02  0.62771304100E+02  0.00000000000E+00 0. -1.
         -4    1    5    5    0  503  0.76616103305E+02 -0.18344517146E+03 -0.93433734008E+02  0.21966342633E+03  0.00000000000E+00 0.  1.
         -3    1    6    6    0  502 -0.53725887808E+03 -0.46746411470E+03  0.88688345720E+03  0.11374234336E+04  0.00000000000E+00 0.  1.
<mgrwt>
<rscale>  0 0.27200717E+04</rscale>
<asrwt>0</asrwt>
<pdfrwt beam="1">  1        2 0.24727603E+00 0.27200717E+04</pdfrwt>
<pdfrwt beam="2">  1       -2 0.17704839E+00 0.27200717E+04</pdfrwt>
<totfact> 0.18396671E+00</totfact>
</mgrwt>
</event>
<event>
12    1  0.1489233E-007  0.1473420E+04  0.7818608E-02  0.8902323E-01
         -2   -1    0    0    0  501 -0.00000000000E+00  0.00000000000E+00  0.37029566698E+03  0.37029566698E+03  0.00000000000E+00 0.  1.
          2   -1    0    0  501    0  0.00000000000E+00 -0.00000000000E+00 -0.14656975362E+04  0.14656975362E+04  0.00000000000E+00 0. -1.
         23    2    1    2    0    0  0.19687320004E+02 -0.20391396816E+03  0.16260498296E+03  0.27808594148E+03  0.94461173967E+02 0.  0.
        254    2    1    2    0    0 -0.19687320004E+02  0.20391396816E+03 -0.12580068522E+04  0.15579072617E+04  0.89583776377E+03 0.  0.
        -24    2    4    4    0    0  0.28125028656E+03  0.43321213038E+03 -0.60909300698E+03  0.80247071675E+03  0.78679644710E+02 0.  0.
         24    2    4    4    0    0 -0.30093760656E+03 -0.22929816222E+03 -0.64891384524E+03  0.75543654500E+03  0.80337442897E+02 0.  0.
         13    1    3    3    0    0  0.12603849607E+01 -0.13588485283E+02  0.59097842112E+02  0.60653033269E+02  0.00000000000E+00 0. -1.
        -13    1    3    3    0    0  0.18426935044E+02 -0.19032548287E+03  0.10350714084E+03  0.21743290821E+03  0.00000000000E+00 0.  1.
          2    1    6    6  502    0 -0.25152737883E+03 -0.15651896944E+03 -0.46148000057E+03  0.54838672579E+03  0.00000000000E+00 0. -1.
          1    1    5    5  503    0  0.24894882196E+03  0.32730953560E+03 -0.49411163991E+03  0.64284785194E+03  0.00000000000E+00 0. -1.
         -2    1    5    5    0  503  0.32301464597E+02  0.10590259478E+03 -0.11498136706E+03  0.15962286480E+03  0.00000000000E+00 0.  1.
         -1    1    6    6    0  502 -0.49410227737E+02 -0.72779192786E+02 -0.18743384467E+03  0.20704981921E+03  0.00000000000E+00 0.  1.
<mgrwt>
<rscale>  0 0.14734198E+04</rscale>
<asrwt>0</asrwt>
<pdfrwt beam="1">  1        2 0.22549193E+00 0.14734198E+04</pdfrwt>
<pdfrwt beam="2">  1       -2 0.56968564E-01 0.14734198E+04</pdfrwt>
<totfact> 0.37118738E+01</totfact>
</mgrwt>
</event>
<event>
12    1  0.1489233E-007  0.1848984E+04  0.7818608E-02  0.8680675E-01
         -2   -1    0    0    0  501 -0.00000000000E+00  0.00000000000E+00  0.19246079966E+04  0.19246079966E+04  0.00000000000E+00 0.  1.
          2   -1    0    0  501    0  0.00000000000E+00 -0.00000000000E+00 -0.44408310224E+03  0.44408310224E+03  0.00000000000E+00 0. -1.
         23    2    1    2    0    0  0.40165363869E+03 -0.35216484098E+02 -0.16572550435E+03  0.44568612056E+03  0.92764912794E+02 0.  0.
        254    2    1    2    0    0 -0.40165363869E+03  0.35216484098E+02  0.16462503987E+04  0.19230049783E+04  0.90842827181E+03 0.  0.
        -24    2    4    4    0    0  0.50729718286E+02  0.19159369803E+03  0.13221141619E+04  0.13392674232E+04  0.79810551767E+02 0.  0.
         24    2    4    4    0    0 -0.45238335697E+03 -0.15637721393E+03  0.32413623673E+03  0.58373755506E+03  0.81121504657E+02 0.  0.
         13    1    3    3    0    0  0.39851577034E+03 -0.26156704778E+02 -0.14872195883E+03  0.42616571126E+03  0.00000000000E+00 0. -1.
        -13    1    3    3    0    0  0.31378683464E+01 -0.90597793205E+01 -0.17003545517E+02  0.19520409300E+02  0.00000000000E+00 0.  1.
          4    1    6    6  502    0 -0.36966806194E+02 -0.32880061834E+02  0.16076050417E+02  0.52020021371E+02  0.00000000000E+00 0. -1.
          1    1    5    5  503    0  0.18495153688E+02 -0.85282315754E+00  0.10958086293E+03  0.11113398912E+03  0.00000000000E+00 0. -1.
         -2    1    5    5    0  503  0.32234564598E+02  0.19244652119E+03  0.12125332990E+04  0.12281334341E+04  0.00000000000E+00 0.  1.
         -3    1    6    6    0  502 -0.41541655078E+03 -0.12349715210E+03  0.30806018631E+03  0.53171753368E+03  0.00000000000E+00 0.  1.
<mgrwt>
<rscale>  0 0.18489845E+04</rscale>
<asrwt>0</asrwt>
<pdfrwt beam="1">  1        2 0.68320478E-01 0.18489845E+04</pdfrwt>
<pdfrwt beam="2">  1       -2 0.29609353E+00 0.18489845E+04</pdfrwt>
<totfact> 0.22329022E+00</totfact>
</mgrwt>
</event>
<event>
12    1  0.1489233E-007  0.1752094E+04  0.7818608E-02  0.8732198E-01
          1   -1    0    0  501    0  0.00000000000E+00  0.00000000000E+00  0.98419261180E+03  0.98419261180E+03  0.00000000000E+00 0. -1.
         -1   -1    0    0    0  501 -0.00000000000E+00 -0.00000000000E+00 -0.77978491123E+03  0.77978491123E+03  0.00000000000E+00 0.  1.
         23    2    1    2    0    0  0.92272260537E+02 -0.63966784160E+03  0.16647886744E+03  0.67350861405E+03  0.90606413971E+02 0.  0.
        254    2    1    2    0    0 -0.92272260537E+02  0.63966784160E+03  0.37928833127E+02  0.10904689090E+04  0.87749343441E+03 0.  0.
        -24    2    4    4    0    0  0.14854772029E+03  0.76739009542E+03 -0.64429018741E+02  0.78853142048E+03  0.81711191828E+02 0.  0.
         24    2    4    4    0    0 -0.24081998083E+03 -0.12772225382E+03  0.10235785187E+03  0.30193748851E+03  0.79886668718E+02 0.  0.
         13    1    3    3    0    0  0.13856767915E+02 -0.10223034850E+02  0.10958874746E+02  0.20411207566E+02  0.00000000000E+00 0.  1.
        -13    1    3    3    0    0  0.78415492621E+02 -0.62944480675E+03  0.15551999270E+03  0.65309740648E+03  0.00000000000E+00 0. -1.
          2    1    6    6  502    0 -0.21892105056E+03 -0.82841560901E+02  0.82210802515E+02  0.24808822350E+03  0.00000000000E+00 0. -1.
          3    1    5    5  503    0  0.10146588476E+03  0.39225154198E+03 -0.98432253406E+00  0.40516362972E+03  0.00000000000E+00 0. -1.
         -4    1    5    5    0  503  0.47081835536E+02  0.37513855344E+03 -0.63444696207E+02  0.38336779076E+03  0.00000000000E+00 0.  1.
         -1    1    6    6    0  502 -0.21898930274E+02 -0.44880692922E+02  0.20147049354E+02  0.53849265009E+02  0.00000000000E+00 0.  1.
<mgrwt>
<rscale>  0 0.17520942E+04</rscale>
<asrwt>0</asrwt>
<pdfrwt beam="1">  1        1 0.15141425E+00 0.17520942E+04</pdfrwt>
<pdfrwt beam="2">  1       -1 0.11996691E+00 0.17520942E+04</pdfrwt>
<totfact> 0.91403888E+00</totfact>
</mgrwt>
</event>
<event>
12    1  0.1489233E-007  0.1310304E+04  0.7818608E-02  0.9021433E-01
          2   -1    0    0  501    0  0.00000000000E+00  0.00000000000E+00  0.15296861218E+04  0.15296861218E+04  0.00000000000E+00 0. -1.
         -2   -1    0    0    0  501 -0.00000000000E+00 -0.00000000000E+00 -0.28059634986E+03  0.28059634986E+03  0.00000000000E+00 0.  1.
         23    2    1    2    0    0 -0.10265793294E+03  0.95875735378E+02 -0.89521760570E+02  0.19053792353E+03  0.92518900010E+02 0.  0.
        254    2    1    2    0    0  0.10265793294E+03 -0.95875735378E+02  0.13386115325E+04  0.16197445481E+04  0.90108865180E+03 0.  0.
        -24    2    4    4    0    0  0.40270902166E+03 -0.16624897842E+03  0.30400311257E+03  0.53745751398E+03  0.81421176175E+02 0.  0.
         24    2    4    4    0    0 -0.30005108872E+03  0.70373243041E+02  0.10346084199E+04  0.10822870342E+04  0.77120636060E+02 0.  0.
         11    1    3    3    0    0  0.64889197642E+01 -0.95255347158E+01  0.41165049372E+01  0.12238770536E+02  0.00000000000E+00 0. -1.
        -11    1    3    3    0    0 -0.10914685270E+03  0.10540127009E+03 -0.93638265507E+02  0.17829915300E+03  0.00000000000E+00 0.  1.
          2    1    6    6  502    0 -0.55780209580E+02  0.41303944776E+02  0.28580001997E+03  0.29410729174E+03  0.00000000000E+00 0. -1.
          1    1    5    5  503    0 -0.27015719678E+00  0.10502513003E+01  0.12879655770E+02  0.12925229029E+02  0.00000000000E+00 0. -1.
         -2    1    5    5    0  503  0.40297917885E+03 -0.16729922972E+03  0.29112345680E+03  0.52453228495E+03  0.00000000000E+00 0.  1.
         -1    1    6    6    0  502 -0.24427087914E+03  0.29069298265E+02  0.74880839997E+03  0.78817974242E+03  0.00000000000E+00 0.  1.
<mgrwt>
<rscale>  0 0.13103043E+04</rscale>
<asrwt>0</asrwt>
<pdfrwt beam="1">  1        2 0.23533632E+00 0.13103043E+04</pdfrwt>
<pdfrwt beam="2">  1       -2 0.43168670E-01 0.13103043E+04</pdfrwt>
<totfact> 0.60845381E+01</totfact>
</mgrwt>
</event>
<event>
12    1  0.1489233E-007  0.1503421E+04  0.7818608E-02  0.8882181E-01
          2   -1    0    0  501    0  0.00000000000E+00  0.00000000000E+00  0.81372449919E+03  0.81372449919E+03  0.00000000000E+00 0. -1.
         -2   -1    0    0    0  501 -0.00000000000E+00 -0.00000000000E+00 -0.69442252443E+03  0.69442252443E+03  0.00000000000E+00 0.  1.
         23    2    1    2    0    0  0.71292037808E+02  0.17480421089E+03 -0.39830870452E+03  0.45004312284E+03  0.90829078570E+02 0.  0.
        254    2    1    2    0    0 -0.71292037808E+02 -0.17480421089E+03  0.51761067928E+03  0.10581039008E+04  0.90334045783E+03 0.  0.
        -24    2    4    4    0    0 -0.27511526926E+03  0.28619193379E+03  0.16110011383E+03  0.43560412469E+03  0.78762125577E+02 0.  0.
         24    2    4    4    0    0  0.20382323146E+03 -0.46099614467E+03  0.35651056545E+03  0.62249977609E+03  0.79654459216E+02 0.  0.
         13    1    3    3    0    0  0.49274727985E+02  0.55841489859E+02 -0.23687498925E+03  0.24830632562E+03  0.00000000000E+00 0. -1.
        -13    1    3    3    0    0  0.22017309823E+02  0.11896272103E+03 -0.16143371527E+03  0.20173679722E+03  0.00000000000E+00 0.  1.
          4    1    6    6  502    0  0.97396133347E+02 -0.31374540828E+03  0.23542972513E+03  0.40416499537E+03  0.00000000000E+00 0. -1.
          1    1    5    5  503    0 -0.72848215532E+02  0.10453905438E+03  0.18946788804E+02  0.12881869897E+03  0.00000000000E+00 0. -1.
         -2    1    5    5    0  503 -0.20226705373E+03  0.18165287940E+03  0.14215332503E+03  0.30678542573E+03  0.00000000000E+00 0.  1.
         -3    1    6    6    0  502  0.10642709811E+03 -0.14725073639E+03  0.12108084032E+03  0.21833478072E+03  0.00000000000E+00 0.  1.
<mgrwt>
<rscale>  0 0.15034209E+04</rscale>
<asrwt>0</asrwt>
<pdfrwt beam="1">  1        2 0.12518838E+00 0.15034209E+04</pdfrwt>
<pdfrwt beam="2">  1       -2 0.10683423E+00 0.15034209E+04</pdfrwt>
<totfact> 0.22935358E+01</totfact>
</mgrwt>
</event>
<event>
12    1  0.1489233E-007  0.1774286E+04  0.7818608E-02  0.8720095E-01
          2   -1    0    0  501    0  0.00000000000E+00  0.00000000000E+00  0.22990176285E+04  0.22990176285E+04  0.00000000000E+00 0. -1.
         -2   -1    0    0    0  501 -0.00000000000E+00 -0.00000000000E+00 -0.34232998091E+03  0.34232998091E+03  0.00000000000E+00 0.  1.
         23    2    1    2    0    0 -0.43658104128E+03 -0.40104152734E+03  0.31104333027E+03  0.67613647020E+03  0.94737852872E+02 0.  0.
        254    2    1    2    0    0  0.43658104128E+03  0.40104152734E+03  0.16456443173E+04  0.19652111392E+04  0.89580817715E+03 0.  0.
        -24    2    4    4    0    0  0.86917826530E+02 -0.16677398452E+03  0.10426446919E+04  0.10626518889E+04  0.82175500952E+02 0.  0.
         24    2    4    4    0    0  0.34966321475E+03  0.56781551186E+03  0.60299962543E+03  0.90255925031E+03  0.79535104196E+02 0.  0.
         13    1    3    3    0    0 -0.21580360820E+03 -0.15367712859E+03  0.17638128560E+03  0.31827380520E+03  0.00000000000E+00 0.  1.
        -13    1    3    3    0    0 -0.22077743308E+03 -0.24736439875E+03  0.13466204467E+03  0.35786266500E+03  0.00000000000E+00 0. -1.
          2    1    6    6  502    0  0.26402256471E+03  0.35957314053E+03  0.38771532153E+03  0.59103631751E+03  0.00000000000E+00 0. -1.
          3    1    5    5  503    0  0.96763787122E+02 -0.15093267062E+03  0.82746601127E+03  0.84666634595E+03  0.00000000000E+00 0. -1.
         -4    1    5    5    0  503 -0.98459605924E+01 -0.15841313899E+02  0.21517868060E+03  0.21598554292E+03  0.00000000000E+00 0.  1.
         -1    1    6    6    0  502  0.85640650036E+02  0.20824237133E+03  0.21528430389E+03  0.31152293280E+03  0.00000000000E+00 0.  1.
<mgrwt>
<rscale>  0 0.17742860E+04</rscale>
<asrwt>0</asrwt>
<pdfrwt beam="1">  1        2 0.35369501E+00 0.17742860E+04</pdfrwt>
<pdfrwt beam="2">  1       -2 0.52666152E-01 0.17742860E+04</pdfrwt>
<totfact> 0.14615111E+01</totfact>
</mgrwt>
</event>
<event>
12    1  0.1489233E-007  0.1423158E+04  0.7818608E-02  0.8937224E-01
         -2   -1    0    0    0  501 -0.00000000000E+00  0.00000000000E+00  0.14323092959E+04  0.14323092959E+04  0.00000000000E+00 0.  1.
          2   -1    0    0  501    0  0.00000000000E+00 -0.00000000000E+00 -0.35351647740E+03  0.35351647740E+03  0.00000000000E+00 0. -1.
         23    2    1    2    0    0 -0.84444969775E+02  0.32111409940E+03  0.62626015179E+03  0.71507719053E+03  0.94278273982E+02 0.  0.
        254    2    1    2    0    0  0.84444969775E+02 -0.32111409940E+03  0.45253266670E+03  0.10707485828E+04  0.91185058827E+03 0.  0.
        -24    2    4    4    0    0  0.57932525087E+02 -0.46529388203E+03 -0.10599513467E+03  0.48733965274E+03  0.80064938888E+02 0.  0.
         24    2    4    4    0    0  0.26512444688E+02  0.14417978264E+03  0.55852780137E+03  0.58340893003E+03  0.83198288971E+02 0.  0.
         13    1    3    3    0    0 -0.33870983336E+02  0.23748283337E+03  0.50699212676E+03  0.56087998382E+03  0.00000000000E+00 0.  1.
        -13    1    3    3    0    0 -0.50573986440E+02  0.83631266026E+02  0.11926802503E+03  0.15419720671E+03  0.00000000000E+00 0. -1.
          4    1    6    6  502    0  0.39347675866E+02  0.20785235765E+02  0.14776394874E+03  0.15431931237E+03  0.00000000000E+00 0. -1.
          1    1    5    5  503    0  0.78579596170E+01 -0.22679875809E+02 -0.24890965686E+02  0.34578670721E+02  0.00000000000E+00 0. -1.
         -2    1    5    5    0  503  0.50074565470E+02 -0.44261400622E+03 -0.81104168986E+02  0.45276098202E+03  0.00000000000E+00 0.  1.
         -3    1    6    6    0  502 -0.12835231178E+02  0.12339454687E+03  0.41076385263E+03  0.42908961766E+03  0.00000000000E+00 0.  1.
<mgrwt>
<rscale>  0 0.14231584E+04</rscale>
<asrwt>0</asrwt>
<pdfrwt beam="1">  1        2 0.54387151E-01 0.14231584E+04</pdfrwt>
<pdfrwt beam="2">  1       -2 0.22035527E+00 0.14231584E+04</pdfrwt>
<totfact> 0.87265773E+00</totfact>
</mgrwt>
</event>
<event>
12    1  0.1489233E-007  0.2054366E+04  0.7818608E-02  0.8581616E-01
         -2   -1    0    0    0  501 -0.00000000000E+00  0.00000000000E+00  0.35685039045E+03  0.35685039045E+03  0.00000000000E+00 0.  1.
          2   -1    0    0  501    0  0.00000000000E+00 -0.00000000000E+00 -0.29567164717E+04  0.29567164717E+04  0.00000000000E+00 0. -1.
         23    2    1    2    0    0 -0.23327833651E+03  0.61776871687E+03 -0.17551329683E+04  0.18774853074E+04  0.91664459902E+02 0.  0.
        254    2    1    2    0    0  0.23327833651E+03 -0.61776871687E+03 -0.84473311292E+03  0.14360815547E+04  0.95535293475E+03 0.  0.
        -24    2    4    4    0    0  0.15916231602E+03 -0.27584305051E+03 -0.99431567571E+03  0.10470847467E+04  0.79377404722E+02 0.  0.
         24    2    4    4    0    0  0.74116020492E+02 -0.34192566636E+03  0.14958256279E+03  0.38899680806E+03  0.80853124748E+02 0.  0.
         13    1    3    3    0    0 -0.48346219780E+02  0.12223806576E+03 -0.25586547110E+03  0.28765715877E+03  0.00000000000E+00 0. -1.
        -13    1    3    3    0    0 -0.18493211673E+03  0.49553065111E+03 -0.14992674972E+04  0.15898281486E+04  0.00000000000E+00 0.  1.
          4    1    6    6  502    0  0.43591282439E+02 -0.20479006167E+03  0.13174284557E+03  0.24737693228E+03  0.00000000000E+00 0. -1.
          1    1    5    5  503    0  0.10023380483E+03 -0.19501942629E+03 -0.55995695970E+03  0.60135778783E+03  0.00000000000E+00 0. -1.
         -2    1    5    5    0  503  0.58928511194E+02 -0.80823624219E+02 -0.43435871600E+03  0.44572695883E+03  0.00000000000E+00 0.  1.
         -1    1    6    6    0  502  0.30524738053E+02 -0.13713560469E+03  0.17839717220E+02  0.14161987578E+03  0.00000000000E+00 0.  1.
<mgrwt>
<rscale>  0 0.20543665E+04</rscale>
<asrwt>0</asrwt>
<pdfrwt beam="1">  1        2 0.45487946E+00 0.20543665E+04</pdfrwt>
<pdfrwt beam="2">  1       -2 0.54900059E-01 0.20543665E+04</pdfrwt>
<totfact> 0.53589965E+00</totfact>
</mgrwt>
</event>
<event>
12    1  0.1489233E-007  0.2019625E+04  0.7818608E-02  0.8597500E-01
          2   -1    0    0  501    0  0.00000000000E+00  0.00000000000E+00  0.37073199604E+04  0.37073199604E+04  0.00000000000E+00 0. -1.
         -2   -1    0    0    0  501 -0.00000000000E+00 -0.00000000000E+00 -0.27505624037E+03  0.27505624037E+03  0.00000000000E+00 0.  1.
         23    2    1    2    0    0 -0.64011910274E+03 -0.48772485444E+03  0.12692356152E+04  0.15055250266E+04  0.89546409737E+02 0.  0.
        254    2    1    2    0    0  0.64011910274E+03  0.48772485444E+03  0.21630281049E+04  0.24768511742E+04  0.89915135398E+03 0.  0.
        -24    2    4    4    0    0  0.19934796266E+02 -0.69931576474E+02 -0.44732017293E+02  0.11564116424E+03  0.78000666704E+02 0.  0.
         24    2    4    4    0    0  0.62018430647E+03  0.55765643091E+03  0.22077601222E+04  0.23612100100E+04  0.74153119834E+02 0.  0.
         13    1    3    3    0    0 -0.60166729917E+03 -0.42725947383E+03  0.11492281019E+04  0.13657523301E+04  0.00000000000E+00 0.  1.
        -13    1    3    3    0    0 -0.38451803570E+02 -0.60465380609E+02  0.12000751322E+03  0.13977269647E+03  0.00000000000E+00 0. -1.
          2    1    6    6  502    0  0.40717377553E+03  0.41158073128E+03  0.15417395407E+04  0.16468606478E+04  0.00000000000E+00 0. -1.
          1    1    5    5  503    0 -0.29602297281E+01 -0.80717163993E+02 -0.28885437027E+02  0.85781070146E+02  0.00000000000E+00 0. -1.
         -2    1    5    5    0  503  0.22895025994E+02  0.10785587519E+02 -0.15846580266E+02  0.29860094098E+02  0.00000000000E+00 0.  1.
         -1    1    6    6    0  502  0.21301053094E+03  0.14607569963E+03  0.66602058145E+03  0.71434936217E+03  0.00000000000E+00 0.  1.
<mgrwt>
<rscale>  0 0.20196252E+04</rscale>
<asrwt>0</asrwt>
<pdfrwt beam="1">  1        2 0.57035688E+00 0.20196252E+04</pdfrwt>
<pdfrwt beam="2">  1       -2 0.42316347E-01 0.20196252E+04</pdfrwt>
<totfact> 0.28508710E+00</totfact>
</mgrwt>
</event>
<event>
12    1  0.1489233E-007  0.1106059E+04  0.7818608E-02  0.9199307E-01
         -1   -1    0    0    0  501 -0.00000000000E+00  0.00000000000E+00  0.30197807956E+03  0.30197807956E+03  0.00000000000E+00 0.  1.
          1   -1    0    0  501    0  0.00000000000E+00 -0.00000000000E+00 -0.10127935554E+04  0.10127935554E+04  0.00000000000E+00 0. -1.
         23    2    1    2    0    0 -0.16244451443E+03  0.33910177482E+02 -0.10563140700E+03  0.22255783795E+03  0.10409551712E+03 0.  0.
        254    2    1    2    0    0  0.16244451443E+03 -0.33910177482E+02 -0.60518406881E+03  0.10922137970E+04  0.89394916006E+03 0.  0.
        -24    2    4    4    0    0  0.16506698936E+02 -0.39576852048E+03 -0.56203018609E+03  0.69161774435E+03  0.74511618685E+02 0.  0.
         24    2    4    4    0    0  0.14593781550E+03  0.36185834299E+03 -0.43153882725E+02  0.40059605263E+03  0.79847563537E+02 0.  0.
         13    1    3    3    0    0 -0.19534187890E+02  0.27627201153E+01 -0.69014261164E+02  0.71778725003E+02  0.00000000000E+00 0. -1.
        -13    1    3    3    0    0 -0.14291032654E+03  0.31147457367E+02 -0.36617145834E+02  0.15077911295E+03  0.00000000000E+00 0.  1.
          4    1    6    6  502    0 -0.85633152053E+01  0.71607354714E+01 -0.34193418879E+01  0.11674690520E+02  0.00000000000E+00 0. -1.
          3    1    5    5  503    0  0.18333469426E+02 -0.20134307869E+02 -0.43563189719E+02  0.51373708773E+02  0.00000000000E+00 0. -1.
         -4    1    5    5    0  503 -0.18267704904E+01 -0.37563421261E+03 -0.51846699637E+03  0.64024403558E+03  0.00000000000E+00 0.  1.
         -1    1    6    6    0  502  0.15450113070E+03  0.35469760752E+03 -0.39734540837E+02  0.38892136211E+03  0.00000000000E+00 0.  1.
<mgrwt>
<rscale>  0 0.11060587E+04</rscale>
<asrwt>0</asrwt>
<pdfrwt beam="1">  1        1 0.15581439E+00 0.11060587E+04</pdfrwt>
<pdfrwt beam="2">  1       -1 0.46458166E-01 0.11060587E+04</pdfrwt>
<totfact> 0.67912782E+01</totfact>
</mgrwt>
</event>
<event>
12    1  0.1808063E-007  0.1484867E+04  0.7818608E-02  0.8894579E-01
          1   -1    0    0  501    0  0.00000000000E+00  0.00000000000E+00  0.23164855200E+04  0.23164855200E+04  0.00000000000E+00 0. -1.
         -1   -1    0    0    0  501 -0.00000000000E+00 -0.00000000000E+00 -0.23794974455E+03  0.23794974455E+03  0.00000000000E+00 0.  1.
         23    2    1    2    0    0  0.33483828181E+03 -0.21920722986E+03  0.25303786295E+03  0.48130422491E+03  0.86354572792E+02 0.  0.
        254    2    1    2    0    0 -0.33483828181E+03  0.21920722986E+03  0.18254979125E+04  0.20731310397E+04  0.89736346842E+03 0.  0.
        -24    2    4    4    0    0  0.28606924265E+03  0.12048839155E+03  0.39358170658E+03  0.50720845837E+03  0.77464807470E+02 0.  0.
         24    2    4    4    0    0 -0.62090752446E+03  0.98718838306E+02  0.14319162059E+04  0.15659225813E+04  0.80361351728E+02 0.  0.
         13    1    3    3    0    0  0.28607921861E+03 -0.19336120492E+03  0.17892237163E+03  0.38889984567E+03  0.00000000000E+00 0.  1.
        -13    1    3    3    0    0  0.48759063198E+02 -0.25846024933E+02  0.74115491328E+02  0.92404379245E+02  0.00000000000E+00 0. -1.
          2    1    6    6  502    0 -0.49902953712E+03  0.47240399693E+02  0.11144279631E+04  0.12219704658E+04  0.00000000000E+00 0. -1.
          3    1    5    5  503    0  0.22458942655E+03  0.12644255993E+03  0.32748918729E+03  0.41674608489E+03  0.00000000000E+00 0. -1.
         -4    1    5    5    0  503  0.61479816101E+02 -0.59541683824E+01  0.66092519290E+02  0.90462373476E+02  0.00000000000E+00 0.  1.
         -1    1    6    6    0  502 -0.12187798734E+03  0.51478438614E+02  0.31748824282E+03  0.34395211552E+03  0.00000000000E+00 0.  1.
<mgrwt>
<rscale>  0 0.14848665E+04</rscale>
<asrwt>0</asrwt>
<pdfrwt beam="1">  1        1 0.35638237E+00 0.14848665E+04</pdfrwt>
<pdfrwt beam="2">  1       -1 0.36607655E-01 0.14848665E+04</pdfrwt>
<totfact> 0.12592254E+01</totfact>
</mgrwt>
</event>
<event>
12    1  0.1489233E-007  0.2214418E+04  0.7818608E-02  0.8512451E-01
          2   -1    0    0  501    0  0.00000000000E+00  0.00000000000E+00  0.13216206106E+04  0.13216206106E+04  0.00000000000E+00 0. -1.
         -2   -1    0    0    0  501 -0.00000000000E+00 -0.00000000000E+00 -0.92758253208E+03  0.92758253208E+03  0.00000000000E+00 0.  1.
         23    2    1    2    0    0  0.34367625881E+03 -0.70051713097E+03 -0.32663393099E+03  0.85078459389E+03  0.91143176752E+02 0.  0.
        254    2    1    2    0    0 -0.34367625881E+03  0.70051713097E+03  0.72067200955E+03  0.13984185488E+04  0.90959808197E+03 0.  0.
        -24    2    4    4    0    0 -0.74353825544E+02  0.78089951706E+03  0.76814677796E+03  0.11008137853E+04  0.80056044394E+02 0.  0.
         24    2    4    4    0    0 -0.26932243327E+03 -0.80382386091E+02 -0.47474768406E+02  0.29760476357E+03  0.85550222716E+02 0.  0.
         13    1    3    3    0    0  0.13867990946E+02 -0.95000451161E+02 -0.36267694295E+02  0.10262919927E+03  0.00000000000E+00 0. -1.
        -13    1    3    3    0    0  0.32980826787E+03 -0.60551667981E+03 -0.29036623670E+03  0.74815539461E+03  0.00000000000E+00 0.  1.
          2    1    6    6  502    0 -0.10090159298E+03 -0.11874382530E+02  0.20220223318E+02  0.10359049115E+03  0.00000000000E+00 0. -1.
          3    1    5    5  503    0 -0.36835023853E+02  0.34829957157E+03  0.28804674583E+03  0.45347584094E+03  0.00000000000E+00 0. -1.
         -4    1    5    5    0  503 -0.37518801691E+02  0.43259994549E+03  0.48010003213E+03  0.64733794433E+03  0.00000000000E+00 0.  1.
         -1    1    6    6    0  502 -0.16842084029E+03 -0.68508003560E+02 -0.67694991724E+02  0.19401427241E+03  0.00000000000E+00 0.  1.
<mgrwt>
<rscale>  0 0.22144184E+04</rscale>
<asrwt>0</asrwt>
<pdfrwt beam="1">  1        2 0.20332625E+00 0.22144184E+04</pdfrwt>
<pdfrwt beam="2">  1       -2 0.14270500E+00 0.22144184E+04</pdfrwt>
<totfact> 0.50100769E+00</totfact>
</mgrwt>
</event>
<event>
12    1  0.1489233E-007  0.1244751E+04  0.7818608E-02  0.9074563E-01
         -1   -1    0    0    0  501 -0.00000000000E+00  0.00000000000E+00  0.15004974254E+04  0.15004974254E+04  0.00000000000E+00 0.  1.
          1   -1    0    0  501    0  0.00000000000E+00 -0.00000000000E+00 -0.25814859423E+03  0.25814859423E+03  0.00000000000E+00 0. -1.
         23    2    1    2    0    0 -0.86499350345E+02  0.47101705695E+02 -0.84006434959E+02  0.15847391983E+03  0.91412219431E+02 0.  0.
        254    2    1    2    0    0  0.86499350345E+02 -0.47101705695E+02  0.13263552661E+04  0.16001720998E+04  0.88973689859E+03 0.  0.
        -24    2    4    4    0    0  0.42879054122E+02  0.79996587634E+02 -0.10590891381E+03  0.15932300340E+03  0.77000351134E+02 0.  0.
         24    2    4    4    0    0  0.43620296222E+02 -0.12709829333E+03  0.14322641799E+04  0.14408490964E+04  0.81294102379E+02 0.  0.
         13    1    3    3    0    0 -0.46537848682E+02 -0.78052318127E+01 -0.76859921533E+02  0.90189470237E+02  0.00000000000E+00 0. -1.
        -13    1    3    3    0    0 -0.39961501663E+02  0.54906937508E+02 -0.71465134258E+01  0.68284449590E+02  0.00000000000E+00 0.  1.
          4    1    6    6  502    0  0.33682698427E+02 -0.10368335275E+03  0.13576180272E+04  0.13619880578E+04  0.00000000000E+00 0. -1.
          3    1    5    5  503    0  0.14023611149E+02  0.87449197597E+02 -0.86222531201E+02  0.12360561766E+03  0.00000000000E+00 0. -1.
         -4    1    5    5    0  503  0.28855442973E+02 -0.74526099631E+01 -0.19686382604E+02  0.35717385746E+02  0.00000000000E+00 0.  1.
         -3    1    6    6    0  502  0.99375977957E+01 -0.23414940575E+02  0.74646152745E+02  0.78861038617E+02  0.00000000000E+00 0.  1.
<mgrwt>
<rscale>  0 0.12447511E+04</rscale>
<asrwt>0</asrwt>
<pdfrwt beam="1">  1        1 0.39715169E-01 0.12447511E+04</pdfrwt>
<pdfrwt beam="2">  1       -1 0.23084575E+00 0.12447511E+04</pdfrwt>
<totfact> 0.98151187E+00</totfact>
</mgrwt>
</event>
<event>
12    1  0.1771008E-007  0.2506822E+04  0.7818608E-02  0.8400559E-01
          2   -1    0    0  501    0  0.00000000000E+00  0.00000000000E+00  0.66838277219E+03  0.66838277219E+03  0.00000000000E+00 0. -1.
         -2   -1    0    0    0  501 -0.00000000000E+00 -0.00000000000E+00 -0.23505089358E+04  0.23505089358E+04  0.00000000000E+00 0.  1.
         23    2    1    2    0    0 -0.36580277925E+03 -0.56297849210E+03 -0.17704273250E+04  0.18956024787E+04  0.90218557842E+02 0.  0.
        254    2    1    2    0    0  0.36580277925E+03  0.56297849210E+03  0.88301161368E+02  0.11232892293E+04  0.89622828663E+03 0.  0.
        -24    2    4    4    0    0  0.32540017480E+03  0.78796851607E+03  0.16208119288E+03  0.87136415047E+03  0.78901923694E+02 0.  0.
         24    2    4    4    0    0  0.40402604454E+02 -0.22499002397E+03 -0.73780031513E+02  0.25192507886E+03  0.75959666791E+02 0.  0.
         13    1    3    3    0    0 -0.55716475774E+02 -0.83276918846E+02 -0.36585224221E+03  0.37932470789E+03  0.00000000000E+00 0. -1.
        -13    1    3    3    0    0 -0.31008630348E+03 -0.47970157325E+03 -0.14045750828E+04  0.15162777708E+04  0.00000000000E+00 0.  1.
          4    1    6    6  502    0 -0.13613957170E+02 -0.98902331196E+01 -0.14869688361E+02  0.22455827149E+02  0.00000000000E+00 0. -1.
          1    1    5    5  503    0  0.31687279096E+02  0.49435068811E+02  0.29053554674E+02  0.65513500319E+02  0.00000000000E+00 0. -1.
         -2    1    5    5    0  503  0.29371289570E+03  0.73853344726E+03  0.13302763821E+03  0.80585065015E+03  0.00000000000E+00 0.  1.
         -3    1    6    6    0  502  0.54016561624E+02 -0.21509979085E+03 -0.58910343151E+02  0.22946925171E+03  0.00000000000E+00 0.  1.
<mgrwt>
<rscale>  0 0.25068224E+04</rscale>
<asrwt>0</asrwt>
<pdfrwt beam="1">  1        2 0.10282812E+00 0.25068224E+04</pdfrwt>
<pdfrwt beam="2">  1       -2 0.36161677E+00 0.25068224E+04</pdfrwt>
<totfact> 0.50864196E-01</totfact>
</mgrwt>
</event>
<event>
12    1  0.1489233E-007  0.1555938E+04  0.7818608E-02  0.8848084E-01
          1   -1    0    0  501    0  0.00000000000E+00  0.00000000000E+00  0.91625014193E+03  0.91625014193E+03  0.00000000000E+00 0. -1.
         -1   -1    0    0    0  501 -0.00000000000E+00 -0.00000000000E+00 -0.66055709795E+03  0.66055709795E+03  0.00000000000E+00 0.  1.
         23    2    1    2    0    0  0.42503129648E+03  0.24043663276E+03  0.25747353840E+03  0.55957958364E+03  0.91516720263E+02 0.  0.
        254    2    1    2    0    0 -0.42503129648E+03 -0.24043663276E+03 -0.17804944251E+01  0.10172276562E+04  0.89234945907E+03 0.  0.
        -24    2    4    4    0    0 -0.69754642543E+03 -0.14080817908E+03 -0.39741762698E+01  0.71609082126E+03  0.79826757996E+02 0.  0.
         24    2    4    4    0    0  0.27251512895E+03 -0.99628453680E+02  0.21936818447E+01  0.30113683498E+03  0.80549716651E+02 0.  0.
         11    1    3    3    0    0  0.60765184189E+02  0.19257108072E+02  0.67981720428E+02  0.93192049732E+02  0.00000000000E+00 0.  1.
        -11    1    3    3    0    0  0.36426611229E+03  0.22117952469E+03  0.18949181797E+03  0.46638753391E+03  0.00000000000E+00 0. -1.
          4    1    6    6  502    0  0.28320356863E+02 -0.20398106827E+02 -0.25061605209E+02  0.42967539267E+02  0.00000000000E+00 0. -1.
          1    1    5    5  503    0 -0.15862234802E+03 -0.32577144391E+02 -0.34469259828E+02  0.16556101443E+03  0.00000000000E+00 0. -1.
         -2    1    5    5    0  503 -0.53892407742E+03 -0.10823103469E+03  0.30495083558E+02  0.55052980683E+03  0.00000000000E+00 0.  1.
         -3    1    6    6    0  502  0.24419477209E+03 -0.79230346853E+02  0.27255287053E+02  0.25816929571E+03  0.00000000000E+00 0.  1.
<mgrwt>
<rscale>  0 0.15559377E+04</rscale>
<asrwt>0</asrwt>
<pdfrwt beam="1">  1        1 0.14096156E+00 0.15559377E+04</pdfrwt>
<pdfrwt beam="2">  1       -1 0.10162417E+00 0.15559377E+04</pdfrwt>
<totfact> 0.15613174E+01</totfact>
</mgrwt>
</event>
<event>
12    1  0.1489233E-007  0.1776093E+04  0.7818608E-02  0.8719117E-01
          2   -1    0    0  501    0  0.00000000000E+00  0.00000000000E+00  0.19031539320E+04  0.19031539320E+04  0.00000000000E+00 0. -1.
         -2   -1    0    0    0  501 -0.00000000000E+00 -0.00000000000E+00 -0.41437886909E+03  0.41437886909E+03  0.00000000000E+00 0.  1.
         23    2    1    2    0    0  0.35140731680E+03 -0.34945756292E+03  0.11152193905E+04  0.12240062015E+04  0.94176439964E+02 0.  0.
        254    2    1    2    0    0 -0.35140731680E+03  0.34945756292E+03  0.37355567241E+03  0.10935265996E+04  0.90036042392E+03 0.  0.
        -24    2    4    4    0    0  0.20535810348E+03  0.97036606893E+02  0.41048784228E+03  0.47576061683E+03  0.79119164068E+02 0.  0.
         24    2    4    4    0    0 -0.55676542028E+03  0.25242095603E+03 -0.36932169876E+02  0.61776598272E+03  0.81035498215E+02 0.  0.
         13    1    3    3    0    0  0.32377892280E+03 -0.27454113257E+03  0.94749593064E+03  0.10382457141E+04  0.00000000000E+00 0. -1.
        -13    1    3    3    0    0  0.27628393999E+02 -0.74916430353E+02  0.16772345988E+03  0.18576048741E+03  0.00000000000E+00 0.  1.
          2    1    6    6  502    0 -0.37106107913E+03  0.13493168777E+03 -0.47989750602E+02  0.39773848314E+03  0.00000000000E+00 0. -1.
          1    1    5    5  503    0  0.70480514669E+02 -0.20778704675E+01  0.91397544971E+02  0.11543540064E+03  0.00000000000E+00 0. -1.
         -2    1    5    5    0  503  0.13487758881E+03  0.99114477361E+02  0.31909029731E+03  0.36032521619E+03  0.00000000000E+00 0.  1.
         -1    1    6    6    0  502 -0.18570434115E+03  0.11748926826E+03  0.11057580726E+02  0.22002749958E+03  0.00000000000E+00 0.  1.
<mgrwt>
<rscale>  0 0.17760932E+04</rscale>
<asrwt>0</asrwt>
<pdfrwt beam="1">  1        2 0.29279291E+00 0.17760932E+04</pdfrwt>
<pdfrwt beam="2">  1       -2 0.63750596E-01 0.17760932E+04</pdfrwt>
<totfact> 0.16280973E+01</totfact>
</mgrwt>
</event>
<event>
12    1  0.1489233E-007  0.2547130E+04  0.7818608E-02  0.8386385E-01
         -1   -1    0    0    0  501 -0.00000000000E+00  0.00000000000E+00  0.13026267132E+04  0.13026267132E+04  0.00000000000E+00 0.  1.
          1   -1    0    0  501    0  0.00000000000E+00 -0.00000000000E+00 -0.12451517960E+04  0.12451517960E+04  0.00000000000E+00 0. -1.
         23    2    1    2    0    0 -0.60998244331E+03  0.60446167671E+03 -0.67381554116E+03  0.10977009245E+04  0.11604928456E+03 0.  0.
        254    2    1    2    0    0  0.60998244331E+03 -0.60446167671E+03  0.73129045832E+03  0.14500775847E+04  0.91131046714E+03 0.  0.
        -24    2    4    4    0    0  0.96613466306E+02 -0.12821275987E+03  0.72291457492E+03  0.74502004484E+03  0.81711143211E+02 0.  0.
         24    2    4    4    0    0  0.51336897701E+03 -0.47624891683E+03  0.83758834082E+01  0.70505753988E+03  0.81702152857E+02 0.  0.
         13    1    3    3    0    0 -0.51903047281E+03  0.49446893929E+03 -0.61035902673E+03  0.94150427781E+03  0.00000000000E+00 0. -1.
        -13    1    3    3    0    0 -0.90951970507E+02  0.10999273742E+03 -0.63456514439E+02  0.15619664673E+03  0.00000000000E+00 0.  1.
          2    1    6    6  502    0  0.17031120621E+03 -0.21056997241E+03 -0.64174674358E+01  0.27089998917E+03  0.00000000000E+00 0. -1.
          1    1    5    5  503    0  0.81128980113E+02 -0.68771496931E+02  0.57673294895E+03  0.58645743632E+03  0.00000000000E+00 0. -1.
         -2    1    5    5    0  503  0.15484486193E+02 -0.59441262943E+02  0.14618162596E+03  0.15856260852E+03  0.00000000000E+00 0.  1.
         -1    1    6    6    0  502  0.34305777079E+03 -0.26567894442E+03  0.14793350844E+02  0.43415755071E+03  0.00000000000E+00 0.  1.
<mgrwt>
<rscale>  0 0.25471301E+04</rscale>
<asrwt>0</asrwt>
<pdfrwt beam="1">  1        1 0.19156181E+00 0.25471301E+04</pdfrwt>
<pdfrwt beam="2">  1       -1 0.20040411E+00 0.25471301E+04</pdfrwt>
<totfact> 0.13107892E+00</totfact>
</mgrwt>
</event>
<event>
12    1  0.1489233E-007  0.2195298E+04  0.7818608E-02  0.8520388E-01
         -1   -1    0    0    0  501 -0.00000000000E+00  0.00000000000E+00  0.59553643124E+03  0.59553643124E+03  0.00000000000E+00 0.  1.
          1   -1    0    0  501    0  0.00000000000E+00 -0.00000000000E+00 -0.20231057769E+04  0.20231057769E+04  0.00000000000E+00 0. -1.
         23    2    1    2    0    0 -0.74329283914E+03 -0.39525318839E+03 -0.18095129578E+03  0.86605941690E+03  0.92769685303E+02 0.  0.
        254    2    1    2    0    0  0.74329283914E+03  0.39525318839E+03 -0.12466180499E+04  0.17525827912E+04  0.89932227273E+03 0.  0.
        -24    2    4    4    0    0 -0.13310225148E+03  0.17146375447E+03 -0.58455742822E+03  0.62885495456E+03  0.81456359761E+02 0.  0.
         24    2    4    4    0    0  0.87639509062E+03  0.22378943392E+03 -0.66206062165E+03  0.11237278367E+04  0.79309006945E+02 0.  0.
         11    1    3    3    0    0 -0.49771914676E+02 -0.30150855494E+02  0.10808120463E+02  0.59187270975E+02  0.00000000000E+00 0. -1.
        -11    1    3    3    0    0 -0.69352092446E+03 -0.36510233290E+03 -0.19175941624E+03  0.80687214593E+03  0.00000000000E+00 0.  1.
          2    1    6    6  502    0  0.72725587956E+03  0.15428752684E+03 -0.54367454783E+03  0.92102539013E+03  0.00000000000E+00 0. -1.
          3    1    5    5  503    0 -0.70585478802E+02  0.14918340365E+03 -0.39901127538E+03  0.43179624318E+03  0.00000000000E+00 0. -1.
         -4    1    5    5    0  503 -0.62516772674E+02  0.22280350813E+02 -0.18554615284E+03  0.19705871138E+03  0.00000000000E+00 0.  1.
         -1    1    6    6    0  502  0.14913921105E+03  0.69501907085E+02 -0.11838607382E+03  0.20270244655E+03  0.00000000000E+00 0.  1.
<mgrwt>
<rscale>  0 0.21952979E+04</rscale>
<asrwt>0</asrwt>
<pdfrwt beam="1">  1        1 0.31124704E+00 0.21952979E+04</pdfrwt>
<pdfrwt beam="2">  1       -1 0.91620990E-01 0.21952979E+04</pdfrwt>
<totfact> 0.30433766E+00</totfact>
</mgrwt>
</event>
<event>
12    1  0.1489233E-007  0.2030095E+04  0.7818608E-02  0.8592678E-01
         -2   -1    0    0    0  501 -0.00000000000E+00  0.00000000000E+00  0.67841068416E+03  0.67841068416E+03  0.00000000000E+00 0.  1.
          2   -1    0    0  501    0  0.00000000000E+00 -0.00000000000E+00 -0.15187278676E+04  0.15187278676E+04  0.00000000000E+00 0. -1.
         23    2    1    2    0    0  0.16606778340E+03  0.76971052404E+03 -0.13395401633E+03  0.80399220306E+03  0.91798608902E+02 0.  0.
        254    2    1    2    0    0 -0.16606778340E+03 -0.76971052404E+03 -0.70636316709E+03  0.13931463487E+04  0.90657323231E+03 0.  0.
        -24    2    4    4    0    0 -0.15684834528E+03 -0.77895906612E+03 -0.12642587734E+03  0.80837353814E+03  0.78138624171E+02 0.  0.
         24    2    4    4    0    0 -0.92194381221E+01  0.92485420862E+01 -0.57993728974E+03  0.58477281055E+03  0.73901599095E+02 0.  0.
         11    1    3    3    0    0  0.16557918976E+03  0.63528627411E+03 -0.13146934777E+03  0.66954410426E+03  0.00000000000E+00 0. -1.
        -11    1    3    3    0    0  0.48859364168E+00  0.13442424993E+03 -0.24846685654E+01  0.13444809880E+03  0.00000000000E+00 0.  1.
          4    1    6    6  502    0  0.21219705649E+02 -0.11650228605E+02 -0.41710097406E+03  0.41780285577E+03  0.00000000000E+00 0. -1.
          1    1    5    5  503    0 -0.11580561183E+03 -0.46708688453E+03 -0.10845940749E+03  0.49329964576E+03  0.00000000000E+00 0. -1.
         -2    1    5    5    0  503 -0.41042733451E+02 -0.31187218159E+03 -0.17966469849E+02  0.31507389238E+03  0.00000000000E+00 0.  1.
         -3    1    6    6    0  502 -0.30439143771E+02  0.20898770691E+02 -0.16283631569E+03  0.16696995477E+03  0.00000000000E+00 0.  1.
<mgrwt>
<rscale>  0 0.20300948E+04</rscale>
<asrwt>0</asrwt>
<pdfrwt beam="1">  1        2 0.23365044E+00 0.20300948E+04</pdfrwt>
<pdfrwt beam="2">  1       -2 0.10437088E+00 0.20300948E+04</pdfrwt>
<totfact> 0.85636585E+00</totfact>
</mgrwt>
</event>
<event>
12    1  0.1489233E-007  0.1394417E+04  0.7818608E-02  0.8957870E-01
         -1   -1    0    0    0  501 -0.00000000000E+00  0.00000000000E+00  0.63516287197E+03  0.63516287197E+03  0.00000000000E+00 0. -1.
          1   -1    0    0  501    0  0.00000000000E+00 -0.00000000000E+00 -0.76531477541E+03  0.76531477541E+03  0.00000000000E+00 0.  1.
         23    2    1    2    0    0  0.91487105799E+02 -0.35758118636E+03  0.11858854409E+03  0.39832833134E+03  0.91476889913E+02 0.  0.
        254    2    1    2    0    0 -0.91487105799E+02  0.35758118636E+03 -0.24874044753E+03  0.10021493160E+04  0.89788487349E+03 0.  0.
        -24    2    4    4    0    0 -0.38464552600E+03  0.20467818279E+03  0.15944185224E+03  0.47091683135E+03  0.80595400704E+02 0.  0.
         24    2    4    4    0    0  0.29315842020E+03  0.15290300357E+03 -0.40818229977E+03  0.53123248470E+03  0.79208428324E+02 0.  0.
         11    1    3    3    0    0  0.42726534789E+02 -0.28629036552E+03  0.64954811549E+02  0.29665949792E+03  0.00000000000E+00 0.  1.
        -11    1    3    3    0    0  0.48760571010E+02 -0.71290820846E+02  0.53633732539E+02  0.10166883342E+03  0.00000000000E+00 0. -1.
          2    1    6    6  502    0  0.19359508511E+03  0.59829863104E+02 -0.22311914135E+03  0.30139811004E+03  0.00000000000E+00 0. -1.
          1    1    5    5  503    0 -0.34195590920E+03  0.20800143094E+03  0.14582150298E+03  0.42598397839E+03  0.00000000000E+00 0. -1.
         -2    1    5    5    0  503 -0.42689616804E+02 -0.33232481516E+01  0.13620349256E+02  0.44932852959E+02  0.00000000000E+00 0.  1.
         -1    1    6    6    0  502  0.99563335089E+02  0.93073140468E+02 -0.18506315842E+03  0.22983437466E+03  0.00000000000E+00 0.  1.
<mgrwt>
<rscale>  0 0.13944168E+04</rscale>
<asrwt>0</asrwt>
<pdfrwt beam="1">  1        1 0.11774073E+00 0.13944168E+04</pdfrwt>
<pdfrwt beam="2">  1       -1 0.97717365E-01 0.13944168E+04</pdfrwt>
<totfact> 0.23263155E+01</totfact>
</mgrwt>
</event>
<event>
12    1  0.1489233E-007  0.3680506E+04  0.7818608E-02  0.8072296E-01
         -2   -1    0    0    0  501 -0.00000000000E+00  0.00000000000E+00  0.18503462294E+04  0.18503462294E+04  0.00000000000E+00 0.  1.
          2   -1    0    0  501    0  0.00000000000E+00 -0.00000000000E+00 -0.18302145774E+04  0.18302145774E+04  0.00000000000E+00 0. -1.
         23    2    1    2    0    0 -0.14241692124E+03 -0.69588130969E+03 -0.15665378990E+04  0.17224159727E+04  0.90235345145E+02 0.  0.
        254    2    1    2    0    0  0.14241692124E+03  0.69588130969E+03  0.15866695510E+04  0.19581448341E+04  0.90126441767E+03 0.  0.
        -24    2    4    4    0    0 -0.32422553732E+03  0.48259259198E+03  0.58561505125E+03  0.82972788012E+03  0.86519118718E+02 0.  0.
         24    2    4    4    0    0  0.46664245856E+03  0.21328871771E+03  0.10010544997E+04  0.11284169540E+04  0.89260569721E+02 0.  0.
         11    1    3    3    0    0 -0.10344154598E+03 -0.58440394308E+03 -0.13716350040E+04  0.14945269172E+04  0.00000000000E+00 0. -1.
        -11    1    3    3    0    0 -0.38975375258E+02 -0.11147736661E+03 -0.19490289502E+03  0.22788905553E+03  0.00000000000E+00 0.  1.
          4    1    6    6  502    0  0.28665042811E+03  0.15009244813E+03  0.54098261342E+03  0.63036370370E+03  0.00000000000E+00 0. -1.
          3    1    5    5  503    0 -0.28976443006E+03  0.45395485503E+03  0.50930515259E+03  0.74123557239E+03  0.00000000000E+00 0. -1.
         -4    1    5    5    0  503 -0.34461107269E+02  0.28637736950E+02  0.76309898668E+02  0.88492307725E+02  0.00000000000E+00 0.  1.
         -3    1    6    6    0  502  0.17999203045E+03  0.63196269586E+02  0.46007188631E+03  0.49805325025E+03  0.00000000000E+00 0.  1.
<mgrwt>
<rscale>  0 0.36805057E+04</rscale>
<asrwt>0</asrwt>
<pdfrwt beam="1">  1        2 0.28157147E+00 0.36805057E+04</pdfrwt>
<pdfrwt beam="2">  1       -2 0.28466865E+00 0.36805057E+04</pdfrwt>
<totfact> 0.26510912E-01</totfact>
</mgrwt>
</event>
<event>
12    1  0.1489233E-007  0.1772607E+04  0.7818608E-02  0.8721004E-01
         -1   -1    0    0    0  501 -0.00000000000E+00  0.00000000000E+00  0.51419042035E+03  0.51419042035E+03  0.00000000000E+00 0.  1.
          1   -1    0    0  501    0  0.00000000000E+00 -0.00000000000E+00 -0.15277095185E+04  0.15277095185E+04  0.00000000000E+00 0. -1.
         23    2    1    2    0    0  0.57677429185E+03  0.27510970822E+03 -0.41548685429E+03  0.76703587573E+03  0.85794948986E+02 0.  0.
        254    2    1    2    0    0 -0.57677429185E+03 -0.27510970822E+03 -0.59803224385E+03  0.12748640631E+04  0.92697458403E+03 0.  0.
        -24    2    4    4    0    0 -0.45440561610E+03  0.28817258565E+03 -0.28897791369E+03  0.61600209238E+03  0.80140128235E+02 0.  0.
         24    2    4    4    0    0 -0.12236867574E+03 -0.56328229387E+03 -0.30905433015E+03  0.65886197073E+03  0.79520325074E+02 0.  0.
         11    1    3    3    0    0  0.37335933161E+03  0.16265519137E+03 -0.30986641919E+03  0.51173342623E+03  0.00000000000E+00 0. -1.
        -11    1    3    3    0    0  0.20341496024E+03  0.11245451685E+03 -0.10562043510E+03  0.25530244949E+03  0.00000000000E+00 0.  1.
          2    1    6    6  502    0 -0.73687579442E+02 -0.35951492111E+03 -0.23902646127E+03  0.43796630813E+03  0.00000000000E+00 0. -1.
          3    1    5    5  503    0 -0.44869987849E+03  0.28705771531E+03 -0.27207875923E+03  0.59813089211E+03  0.00000000000E+00 0. -1.
         -4    1    5    5    0  503 -0.57057376113E+01  0.11148703392E+01 -0.16899154460E+02  0.17871200268E+02  0.00000000000E+00 0.  1.
         -1    1    6    6    0  502 -0.48681096303E+02 -0.20376737276E+03 -0.70027868882E+02  0.22089566260E+03  0.00000000000E+00 0.  1.
<mgrwt>
<rscale>  0 0.17726067E+04</rscale>
<asrwt>0</asrwt>
<pdfrwt beam="1">  1        1 0.23503223E+00 0.17726067E+04</pdfrwt>
<pdfrwt beam="2">  1       -1 0.79106218E-01 0.17726067E+04</pdfrwt>
<totfact> 0.94570714E+00</totfact>
</mgrwt>
</event>
<event>
12    1  0.1489233E-007  0.1530918E+04  0.7818608E-02  0.8864149E-01
          2   -1    0    0  501    0  0.00000000000E+00  0.00000000000E+00  0.16798366421E+04  0.16798366421E+04  0.00000000000E+00 0. -1.
         -2   -1    0    0    0  501 -0.00000000000E+00 -0.00000000000E+00 -0.34880041073E+03  0.34880041073E+03  0.00000000000E+00 0.  1.
         23    2    1    2    0    0  0.20219410530E+03  0.44745524325E+02  0.92444503754E+03  0.95170987366E+03  0.90930951953E+02 0.  0.
        254    2    1    2    0    0 -0.20219410530E+03 -0.44745524325E+02  0.40659119379E+03  0.10769271791E+04  0.97548507528E+03 0.  0.
        -24    2    4    4    0    0  0.22653529765E+03 -0.21592922634E+03 -0.14445396051E+03  0.35368137778E+03  0.79245810066E+02 0.  0.
         24    2    4    4    0    0 -0.42872940296E+03  0.17118370201E+03  0.55104515430E+03  0.72324580134E+03  0.79504504837E+02 0.  0.
         13    1    3    3    0    0  0.20221504132E+03  0.44005765332E+02  0.92660135653E+03  0.94943009444E+03  0.00000000000E+00 0. -1.
        -13    1    3    3    0    0 -0.20936017975E-01  0.73975899274E+00 -0.21563189886E+01  0.22797792140E+01  0.00000000000E+00 0.  1.
          4    1    6    6  502    0 -0.17940612322E+03  0.74500814879E+02  0.29360021566E+03  0.35204831359E+03  0.00000000000E+00 0. -1.
          1    1    5    5  503    0  0.15861642389E+03 -0.12776727417E+03 -0.12958067899E+03  0.24140173703E+03  0.00000000000E+00 0. -1.
         -2    1    5    5    0  503  0.67918873768E+02 -0.88161952164E+02 -0.14873281522E+02  0.11227964075E+03  0.00000000000E+00 0.  1.
         -3    1    6    6    0  502 -0.24932327974E+03  0.96682887133E+02  0.25744493864E+03  0.37119748775E+03  0.00000000000E+00 0.  1.
<mgrwt>
<rscale>  0 0.15309183E+04</rscale>
<asrwt>0</asrwt>
<pdfrwt beam="1">  1        2 0.25843640E+00 0.15309183E+04</pdfrwt>
<pdfrwt beam="2">  1       -2 0.53661603E-01 0.15309183E+04</pdfrwt>
<totfact> 0.31739052E+01</totfact>
</mgrwt>
</event>
<event>
12    1  0.1489233E-007  0.1358443E+04  0.7818608E-02  0.8984461E-01
         -2   -1    0    0    0  501 -0.00000000000E+00  0.00000000000E+00  0.25892784274E+03  0.25892784274E+03  0.00000000000E+00 0.  1.
          2   -1    0    0  501    0  0.00000000000E+00 -0.00000000000E+00 -0.17817403431E+04  0.17817403431E+04  0.00000000000E+00 0. -1.
         23    2    1    2    0    0 -0.52669637917E+01 -0.26064541325E+03 -0.83224061065E+03  0.87720373096E+03  0.94330160791E+02 0.  0.
        254    2    1    2    0    0  0.52669637917E+01  0.26064541325E+03 -0.69057188972E+03  0.11634644549E+04  0.89933099054E+03 0.  0.
        -24    2    4    4    0    0  0.22821842765E+03 -0.26582342287E+03 -0.26538183593E+03  0.44667109663E+03  0.79635462345E+02 0.  0.
         24    2    4    4    0    0 -0.22295146385E+03  0.52646883612E+03 -0.42519005379E+03  0.71679335825E+03  0.78290139531E+02 0.  0.
         11    1    3    3    0    0 -0.18835858592E+02 -0.51312697302E+02 -0.84847389748E+02  0.10092998573E+03  0.00000000000E+00 0.  1.
        -11    1    3    3    0    0  0.13568894800E+02 -0.20933271595E+03 -0.74739322090E+03  0.77627374522E+03  0.00000000000E+00 0. -1.
          4    1    6    6  502    0 -0.15212917587E+03  0.27473557463E+03 -0.25776878392E+03  0.40628520534E+03  0.00000000000E+00 0. -1.
          3    1    5    5  503    0  0.78562924533E+02 -0.39696790631E+02 -0.69624041869E+02  0.11222956609E+03  0.00000000000E+00 0. -1.
         -4    1    5    5    0  503  0.14965550311E+03 -0.22612663224E+03 -0.19575779406E+03  0.33444153055E+03  0.00000000000E+00 0.  1.
         -3    1    6    6    0  502 -0.70822287987E+02  0.25173326149E+03 -0.16742126987E+03  0.31050815291E+03  0.00000000000E+00 0.  1.
<mgrwt>
<rscale>  0 0.13584435E+04</rscale>
<asrwt>0</asrwt>
<pdfrwt beam="1">  1        2 0.27411389E+00 0.13584435E+04</pdfrwt>
<pdfrwt beam="2">  1       -2 0.39835053E-01 0.13584435E+04</pdfrwt>
<totfact> 0.51410402E+01</totfact>
</mgrwt>
</event>
<event>
12    1  0.1489233E-007  0.1970052E+04  0.7818608E-02  0.8620752E-01
          2   -1    0    0  501    0  0.00000000000E+00  0.00000000000E+00  0.20011123598E+04  0.20011123598E+04  0.00000000000E+00 0. -1.
         -2   -1    0    0    0  501 -0.00000000000E+00 -0.00000000000E+00 -0.48486856085E+03  0.48486856085E+03  0.00000000000E+00 0.  1.
         23    2    1    2    0    0 -0.67667058227E+03  0.18226127711E+03  0.10252051615E+04  0.12453304470E+04  0.93274053252E+02 0.  0.
        254    2    1    2    0    0  0.67667058227E+03 -0.18226127711E+03  0.49103863750E+03  0.12406504737E+04  0.89832755960E+03 0.  0.
        -24    2    4    4    0    0  0.55571321107E+03 -0.51723713826E+03  0.40625267124E+03  0.86462983876E+03  0.78689866117E+02 0.  0.
         24    2    4    4    0    0  0.12095737120E+03  0.33497586116E+03  0.84785966255E+02  0.37602063494E+03  0.85809933123E+02 0.  0.
         11    1    3    3    0    0 -0.57800871487E+03  0.12839337261E+03  0.82107370193E+03  0.10122948961E+04  0.00000000000E+00 0. -1.
        -11    1    3    3    0    0 -0.98661867404E+02  0.53867904497E+02  0.20413145954E+03  0.23303555091E+03  0.00000000000E+00 0.  1.
          2    1    6    6  502    0 -0.86444539626E+01  0.78178080754E+02  0.20310794764E+02  0.81234643340E+02  0.00000000000E+00 0. -1.
          1    1    5    5  503    0  0.22118442687E+03 -0.18205292586E+03  0.11511501344E+03  0.30873497505E+03  0.00000000000E+00 0. -1.
         -2    1    5    5    0  503  0.33452878420E+03 -0.33518421241E+03  0.29113765781E+03  0.55589486371E+03  0.00000000000E+00 0.  1.
         -1    1    6    6    0  502  0.12960182517E+03  0.25679778040E+03  0.64475171491E+02  0.29478599160E+03  0.00000000000E+00 0.  1.
<mgrwt>
<rscale>  0 0.19700523E+04</rscale>
<asrwt>0</asrwt>
<pdfrwt beam="1">  1        2 0.30786344E+00 0.19700523E+04</pdfrwt>
<pdfrwt beam="2">  1       -2 0.74595164E-01 0.19700523E+04</pdfrwt>
<totfact> 0.10040687E+01</totfact>
</mgrwt>
</event>
<event>
12    1  0.1489233E-007  0.2393654E+04  0.7818608E-02  0.8441883E-01
         -1   -1    0    0    0  501 -0.00000000000E+00  0.00000000000E+00  0.64385953196E+03  0.64385953196E+03  0.00000000000E+00 0.  1.
          1   -1    0    0  501    0  0.00000000000E+00 -0.00000000000E+00 -0.22247004779E+04  0.22247004779E+04  0.00000000000E+00 0. -1.
         23    2    1    2    0    0 -0.31868604107E+03 -0.71731814919E+03 -0.14697924023E+04  0.16687792154E+04  0.91805467585E+02 0.  0.
        254    2    1    2    0    0  0.31868604107E+03  0.71731814919E+03 -0.11104854369E+03  0.11997807945E+04  0.90057540270E+03 0.  0.
        -24    2    4    4    0    0  0.50021735468E+02 -0.15025342929E+03  0.16972392371E+03  0.24563520575E+03  0.80325444240E+02 0.  0.
         24    2    4    4    0    0  0.26866430561E+03  0.86757157848E+03 -0.28077246740E+03  0.95414558879E+03  0.81851531842E+02 0.  0.
         13    1    3    3    0    0 -0.17363663584E+03 -0.30018365088E+03 -0.59016490661E+03  0.68451042545E+03  0.00000000000E+00 0.  1.
        -13    1    3    3    0    0 -0.14504940523E+03 -0.41713449831E+03 -0.87962749568E+03  0.98426878991E+03  0.00000000000E+00 0. -1.
          2    1    6    6  502    0  0.26417471472E+03  0.84463151478E+03 -0.25875317422E+03  0.92203247276E+03  0.00000000000E+00 0. -1.
          1    1    5    5  503    0  0.58429005413E+02 -0.15626087457E+03  0.15555087950E+03  0.22809534346E+03  0.00000000000E+00 0. -1.
         -2    1    5    5    0  503 -0.84072699450E+01  0.60074452883E+01  0.14173044214E+02  0.17539862288E+02  0.00000000000E+00 0.  1.
         -1    1    6    6    0  502  0.44895908831E+01  0.22940063701E+02 -0.22019293182E+02  0.32113116030E+02  0.00000000000E+00 0.  1.
<mgrwt>
<rscale>  0 0.23936538E+04</rscale>
<asrwt>0</asrwt>
<pdfrwt beam="1">  1        1 0.34226161E+00 0.23936538E+04</pdfrwt>
<pdfrwt beam="2">  1       -1 0.99055312E-01 0.23936538E+04</pdfrwt>
<totfact> 0.18296665E+00</totfact>
</mgrwt>
</event>
<event>
12    1  0.1489233E-007  0.1672388E+04  0.7818608E-02  0.8777271E-01
          2   -1    0    0  501    0  0.00000000000E+00  0.00000000000E+00  0.16125914948E+04  0.16125914948E+04  0.00000000000E+00 0. -1.
         -2   -1    0    0    0  501 -0.00000000000E+00 -0.00000000000E+00 -0.43360020168E+03  0.43360020168E+03  0.00000000000E+00 0.  1.
         23    2    1    2    0    0 -0.12049200413E+03  0.25772599041E+03 -0.21060611524E+03  0.36629898720E+03  0.94228462013E+02 0.  0.
        254    2    1    2    0    0  0.12049200413E+03 -0.25772599041E+03  0.13895974083E+04  0.16798927093E+04  0.90006530217E+03 0.  0.
        -24    2    4    4    0    0  0.31782696942E+02  0.22137399507E+03  0.10600589591E+04  0.10863363930E+04  0.79907300057E+02 0.  0.
         24    2    4    4    0    0  0.88709307191E+02 -0.47909998548E+03  0.32953844925E+03  0.59355631621E+03  0.79418975739E+02 0.  0.
         11    1    3    3    0    0  0.12111531356E+02  0.51722942647E+02 -0.52699931610E+02  0.74828034717E+02  0.00000000000E+00 0. -1.
        -11    1    3    3    0    0 -0.13260353549E+03  0.20600304777E+03 -0.15790618363E+03  0.29147095248E+03  0.00000000000E+00 0.  1.
          4    1    6    6  502    0  0.16479320046E+02 -0.12534032331E+02  0.21387662398E+02  0.29767466445E+02  0.00000000000E+00 0. -1.
          1    1    5    5  503    0 -0.76410111729E+01 -0.30799250086E+01  0.20534651265E+02  0.22125616203E+02  0.00000000000E+00 0. -1.
         -2    1    5    5    0  503  0.39423708115E+02  0.22445392007E+03  0.10395243078E+04  0.10642107768E+04  0.00000000000E+00 0.  1.
         -3    1    6    6    0  502  0.72229987145E+02 -0.46656595315E+03  0.30815078685E+03  0.56378884976E+03  0.00000000000E+00 0.  1.
<mgrwt>
<rscale>  0 0.16723875E+04</rscale>
<asrwt>0</asrwt>
<pdfrwt beam="1">  1        2 0.24809100E+00 0.16723875E+04</pdfrwt>
<pdfrwt beam="2">  1       -2 0.66707724E-01 0.16723875E+04</pdfrwt>
<totfact> 0.21597146E+01</totfact>
</mgrwt>
</event>
<event>
12    1  0.1489233E-007  0.1287492E+04  0.7818608E-02  0.9039543E-01
          1   -1    0    0  501    0  0.00000000000E+00  0.00000000000E+00  0.20884587600E+03  0.20884587600E+03  0.00000000000E+00 0. -1.
         -1   -1    0    0    0  501 -0.00000000000E+00 -0.00000000000E+00 -0.19842809991E+04  0.19842809991E+04  0.00000000000E+00 0.  1.
         23    2    1    2    0    0  0.15673243781E+03  0.59315075801E+02 -0.89838115897E+03  0.91832505229E+03  0.90271034039E+02 0.  0.
        254    2    1    2    0    0 -0.15673243781E+03 -0.59315075801E+02 -0.87705396410E+03  0.12748018228E+04  0.90984212706E+03 0.  0.
        -24    2    4    4    0    0 -0.64624884039E+02 -0.20287524129E+03  0.12211414236E+03  0.25805908254E+03  0.79673628972E+02 0.  0.
         24    2    4    4    0    0 -0.92107553770E+02  0.14356016549E+03 -0.99916810646E+03  0.10167427403E+04  0.79596308368E+02 0.  0.
         11    1    3    3    0    0  0.44929635033E+02 -0.17054612335E+02 -0.35934842223E+03  0.36254768026E+03  0.00000000000E+00 0. -1.
        -11    1    3    3    0    0  0.11180280278E+03  0.76369688136E+02 -0.53903273674E+03  0.55577737202E+03  0.00000000000E+00 0.  1.
          4    1    6    6  502    0  0.13574663237E+01  0.30585987242E+01  0.78643292450E-01  0.33472265748E+01  0.00000000000E+00 0. -1.
          3    1    5    5  503    0  0.91207216888E+01 -0.91649148784E+02  0.34177162212E+02  0.98238650509E+02  0.00000000000E+00 0. -1.
         -4    1    5    5    0  503 -0.73745605728E+02 -0.11122609250E+03  0.87936980147E+02  0.15982043203E+03  0.00000000000E+00 0.  1.
         -3    1    6    6    0  502 -0.93465020094E+02  0.14050156676E+03 -0.99924674975E+03  0.10133955137E+04  0.00000000000E+00 0.  1.
<mgrwt>
<rscale>  0 0.12874920E+04</rscale>
<asrwt>0</asrwt>
<pdfrwt beam="1">  1        1 0.32130134E-01 0.12874920E+04</pdfrwt>
<pdfrwt beam="2">  1       -1 0.30527401E+00 0.12874920E+04</pdfrwt>
<totfact> 0.42428563E+00</totfact>
</mgrwt>
</event>
<event>
12    1  0.1489233E-007  0.1678422E+04  0.7818608E-02  0.8773767E-01
          2   -1    0    0  501    0  0.00000000000E+00  0.00000000000E+00  0.11990310419E+04  0.11990310419E+04  0.00000000000E+00 0. -1.
         -2   -1    0    0    0  501 -0.00000000000E+00 -0.00000000000E+00 -0.58737040798E+03  0.58737040798E+03  0.00000000000E+00 0.  1.
         23    2    1    2    0    0  0.34558099344E+03  0.47981365442E+03  0.24524815520E+03  0.65086880913E+03  0.11762730581E+03 0.  0.
        254    2    1    2    0    0 -0.34558099344E+03 -0.47981365442E+03  0.36641247875E+03  0.11355326408E+04  0.89751262257E+03 0.  0.
        -24    2    4    4    0    0 -0.58171038615E+03 -0.55930118064E+03  0.24230248611E+03  0.84637288991E+03  0.80198441198E+02 0.  0.
         24    2    4    4    0    0  0.23612939271E+03  0.79487526222E+02  0.12410999265E+03  0.28915975086E+03  0.78324417120E+02 0.  0.
         11    1    3    3    0    0  0.27100263643E+03  0.32484970160E+03  0.12536796044E+03  0.44123336579E+03  0.00000000000E+00 0.  1.
        -11    1    3    3    0    0  0.74578357012E+02  0.15496395282E+03  0.11988019476E+03  0.20963544334E+03  0.00000000000E+00 0. -1.
          4    1    6    6  502    0  0.14413823601E+03  0.79407965997E+02  0.10498757846E+03  0.19520206908E+03  0.00000000000E+00 0. -1.
          3    1    5    5  503    0 -0.47223798913E+03 -0.40804913132E+03  0.19277459831E+03  0.65320353467E+03  0.00000000000E+00 0. -1.
         -4    1    5    5    0  503 -0.10947239703E+03 -0.15125204933E+03  0.49527887795E+02  0.19316935524E+03  0.00000000000E+00 0.  1.
         -3    1    6    6    0  502  0.91991156699E+02  0.79560224035E-01  0.19122414189E+02  0.93957681778E+02  0.00000000000E+00 0.  1.
<mgrwt>
<rscale>  0 0.16784223E+04</rscale>
<asrwt>0</asrwt>
<pdfrwt beam="1">  1        2 0.18446631E+00 0.16784223E+04</pdfrwt>
<pdfrwt beam="2">  1       -2 0.90364679E-01 0.16784223E+04</pdfrwt>
<totfact> 0.18929977E+01</totfact>
</mgrwt>
</event>
<event>
12    1  0.1489233E-007  0.1178798E+04  0.7818608E-02  0.9131620E-01
         -1   -1    0    0    0  501 -0.00000000000E+00  0.00000000000E+00  0.16188994815E+03  0.16188994815E+03  0.00000000000E+00 0.  1.
          1   -1    0    0  501    0  0.00000000000E+00 -0.00000000000E+00 -0.21458482955E+04  0.21458482955E+04  0.00000000000E+00 0. -1.
         23    2    1    2    0    0 -0.15041769899E+03 -0.91329962187E+02 -0.65716513734E+03  0.68637068711E+03  0.90950845150E+02 0.  0.
        254    2    1    2    0    0  0.15041769899E+03  0.91329962187E+02 -0.13267932100E+04  0.16213675565E+04  0.91514254904E+03 0.  0.
        -24    2    4    4    0    0  0.27943293039E+03  0.31762617881E+03 -0.22291125301E+03  0.48437733623E+03  0.77219331018E+02 0.  0.
         24    2    4    4    0    0 -0.12901523141E+03 -0.22629621662E+03 -0.11038819570E+04  0.11369902203E+04  0.79602000407E+02 0.  0.
         11    1    3    3    0    0 -0.10705433633E+03 -0.87740842114E+02 -0.59233429576E+03  0.60829187421E+03  0.00000000000E+00 0. -1.
        -11    1    3    3    0    0 -0.43363362658E+02 -0.35891200731E+01 -0.64830841576E+02  0.78078812896E+02  0.00000000000E+00 0.  1.
          4    1    6    6  502    0  0.81177756951E+01 -0.68767419040E+01 -0.89399707165E+02  0.90030525393E+02  0.00000000000E+00 0. -1.
          1    1    5    5  503    0  0.40222535133E+02  0.90774113025E+02 -0.37417346884E+02  0.10610301492E+03  0.00000000000E+00 0. -1.
         -2    1    5    5    0  503  0.23921039526E+03  0.22685206579E+03 -0.18549390613E+03  0.37827432131E+03  0.00000000000E+00 0.  1.
         -3    1    6    6    0  502 -0.13713300710E+03 -0.21941947472E+03 -0.10144822498E+04  0.10469596949E+04  0.00000000000E+00 0.  1.
<mgrwt>
<rscale>  0 0.11787981E+04</rscale>
<asrwt>0</asrwt>
<pdfrwt beam="1">  1        1 0.33013047E+00 0.11787981E+04</pdfrwt>
<pdfrwt beam="2">  1       -1 0.24906148E-01 0.11787981E+04</pdfrwt>
<totfact> 0.33249844E+01</totfact>
</mgrwt>
</event>
<event>
12    1  0.1489233E-007  0.1890786E+04  0.7818608E-02  0.8659456E-01
         -3   -1    0    0    0  501 -0.00000000000E+00  0.00000000000E+00  0.15916346056E+04  0.15916346056E+04  0.00000000000E+00 0.  1.
          3   -1    0    0  501    0  0.00000000000E+00 -0.00000000000E+00 -0.56154100559E+03  0.56154100559E+03  0.00000000000E+00 0. -1.
         23    2    1    2    0    0  0.63011176529E+03 -0.35293252744E+03  0.29885588206E+03  0.78661911885E+03  0.88614864536E+02 0.  0.
        254    2    1    2    0    0 -0.63011176529E+03  0.35293252744E+03  0.73123771791E+03  0.13665564923E+04  0.90064745649E+03 0.  0.
        -24    2    4    4    0    0 -0.31142326557E+03 -0.16004735312E+03 -0.63340097675E+02  0.36531542672E+03  0.82727186865E+02 0.  0.
         24    2    4    4    0    0 -0.31868849972E+03  0.51297988057E+03  0.79457781559E+03  0.10012410656E+04  0.80118965678E+02 0.  0.
         11    1    3    3    0    0  0.56301440184E+03 -0.28125275978E+03  0.26288935264E+03  0.68205508817E+03  0.00000000000E+00 0. -1.
        -11    1    3    3    0    0  0.67097363449E+02 -0.71679767669E+02  0.35966529427E+02  0.10456403069E+03  0.00000000000E+00 0.  1.
          2    1    6    6  502    0 -0.19419766046E+03  0.36036432032E+03  0.48946946681E+03  0.63808740281E+03  0.00000000000E+00 0. -1.
          1    1    5    5  503    0 -0.26969229957E+03 -0.10443836550E+03 -0.39915386704E+02  0.29194956196E+03  0.00000000000E+00 0. -1.
         -2    1    5    5    0  503 -0.41730966006E+02 -0.55608987621E+02 -0.23424710971E+02  0.73365864761E+02  0.00000000000E+00 0.  1.
         -1    1    6    6    0  502 -0.12449083926E+03  0.15261556025E+03  0.30510834877E+03  0.36315366277E+03  0.00000000000E+00 0.  1.
<mgrwt>
<rscale>  0 0.18907862E+04</rscale>
<asrwt>0</asrwt>
<pdfrwt beam="1">  1        3 0.86390925E-01 0.18907862E+04</pdfrwt>
<pdfrwt beam="2">  1       -3 0.24486686E+00 0.18907862E+04</pdfrwt>
<totfact> 0.23511795E-01</totfact>
</mgrwt>
</event>
<event>
12    1  0.1489233E-007  0.1548894E+04  0.7818608E-02  0.8852575E-01
         -1   -1    0    0    0  501 -0.00000000000E+00  0.00000000000E+00  0.29397405327E+03  0.29397405327E+03  0.00000000000E+00 0.  1.
          1   -1    0    0  501    0  0.00000000000E+00 -0.00000000000E+00 -0.20402070956E+04  0.20402070956E+04  0.00000000000E+00 0. -1.
         23    2    1    2    0    0  0.44633875644E+02 -0.39835891679E+03 -0.10630145104E+04  0.11396005640E+04  0.89485120909E+02 0.  0.
        254    2    1    2    0    0 -0.44633875644E+02  0.39835891679E+03 -0.68321853195E+03  0.11945805848E+04  0.89417738832E+03 0.  0.
        -24    2    4    4    0    0 -0.30699249087E+03  0.18560463098E+03 -0.75443884667E+03  0.83936732213E+03  0.81645940532E+02 0.  0.
         24    2    4    4    0    0  0.26235861523E+03  0.21275428581E+03  0.71220314724E+02  0.35521326269E+03  0.83712004194E+02 0.  0.
         11    1    3    3    0    0  0.26845459335E+02 -0.95050045180E+02 -0.36906956352E+03  0.38205697545E+03  0.00000000000E+00 0. -1.
        -11    1    3    3    0    0  0.17788416310E+02 -0.30330887161E+03 -0.69394494685E+03  0.75754358859E+03  0.00000000000E+00 0.  1.
          4    1    6    6  502    0  0.18108636722E+03  0.19124418112E+03  0.45341815105E+02  0.26724986324E+03  0.00000000000E+00 0. -1.
          1    1    5    5  503    0 -0.30605570845E+03  0.17912138311E+03 -0.70163958822E+03  0.78616326442E+03  0.00000000000E+00 0. -1.
         -2    1    5    5    0  503 -0.93678241746E+00  0.64832478672E+01 -0.52799258447E+02  0.53204057710E+02  0.00000000000E+00 0.  1.
         -3    1    6    6    0  502  0.81272248009E+02  0.21510104691E+02  0.25878499619E+02  0.87963399450E+02  0.00000000000E+00 0.  1.
<mgrwt>
<rscale>  0 0.15488937E+04</rscale>
<asrwt>0</asrwt>
<pdfrwt beam="1">  1        1 0.31387803E+00 0.15488937E+04</pdfrwt>
<pdfrwt beam="2">  1       -1 0.45226776E-01 0.15488937E+04</pdfrwt>
<totfact> 0.13089723E+01</totfact>
</mgrwt>
</event>
<event>
12    1  0.1489233E-007  0.2227455E+04  0.7818608E-02  0.8507087E-01
         -3   -1    0    0    0  501 -0.00000000000E+00  0.00000000000E+00  0.89551603172E+03  0.89551603172E+03  0.00000000000E+00 0.  1.
          3   -1    0    0  501    0  0.00000000000E+00 -0.00000000000E+00 -0.13851111629E+04  0.13851111629E+04  0.00000000000E+00 0. -1.
         23    2    1    2    0    0 -0.59164728716E+03 -0.58766956287E+03  0.12422093190E+03  0.84789477132E+03  0.89959300687E+02 0.  0.
        254    2    1    2    0    0  0.59164728716E+03  0.58766956287E+03 -0.61381606308E+03  0.14327324233E+04  0.99022725167E+03 0.  0.
        -24    2    4    4    0    0  0.81673852013E+03  0.61688282798E+03 -0.37313692330E+03  0.10924458871E+04  0.81244194185E+02 0.  0.
         24    2    4    4    0    0 -0.22509123298E+03 -0.29213265111E+02 -0.24067913978E+03  0.34028653615E+03  0.79680614561E+02 0.  0.
         11    1    3    3    0    0 -0.51707662744E+03 -0.55074785646E+03  0.10808615600E+03  0.76313436376E+03  0.00000000000E+00 0.  1.
        -11    1    3    3    0    0 -0.74570659720E+02 -0.36921706409E+02  0.16134775899E+02  0.84760407553E+02  0.00000000000E+00 0. -1.
          4    1    6    6  502    0 -0.21413607769E+03 -0.41737863964E+02 -0.19854413796E+03  0.29498488737E+03  0.00000000000E+00 0. -1.
          3    1    5    5  503    0  0.49827018293E+03  0.34656465677E+03 -0.25501759076E+03  0.65834201454E+03  0.00000000000E+00 0. -1.
         -4    1    5    5    0  503  0.31846833721E+03  0.27031817121E+03 -0.11811933254E+03  0.43410387261E+03  0.00000000000E+00 0.  1.
         -3    1    6    6    0  502 -0.10955155284E+02  0.12524598853E+02 -0.42135001820E+02  0.45301648779E+02  0.00000000000E+00 0.  1.
<mgrwt>
<rscale>  0 0.22274553E+04</rscale>
<asrwt>0</asrwt>
<pdfrwt beam="1">  1        3 0.21309402E+00 0.22274553E+04</pdfrwt>
<pdfrwt beam="2">  1       -3 0.13777170E+00 0.22274553E+04</pdfrwt>
<totfact> 0.11662664E-01</totfact>
</mgrwt>
</event>
<event>
12    1  0.1489233E-007  0.1374857E+04  0.7818608E-02  0.8972222E-01
          2   -1    0    0  501    0  0.00000000000E+00  0.00000000000E+00  0.72765293207E+03  0.72765293207E+03  0.00000000000E+00 0. -1.
         -2   -1    0    0    0  501 -0.00000000000E+00 -0.00000000000E+00 -0.64942768545E+03  0.64942768545E+03  0.00000000000E+00 0.  1.
         23    2    1    2    0    0 -0.34902003561E+03  0.13372517845E+03 -0.74068028122E+02  0.39177144632E+03  0.91111935301E+02 0.  0.
        254    2    1    2    0    0  0.34902003561E+03 -0.13372517845E+03  0.15229327474E+03  0.98530917120E+03  0.89885678098E+03 0.  0.
        -24    2    4    4    0    0 -0.29296556107E+03  0.59700928582E+01  0.10673715909E+03  0.32186848592E+03  0.79636920544E+02 0.  0.
         24    2    4    4    0    0  0.64198559669E+03 -0.13969527131E+03  0.45556115651E+02  0.66344068528E+03  0.80111847052E+02 0.  0.
         13    1    3    3    0    0 -0.12376156324E+03  0.55414314307E+02  0.16644967529E+02  0.13661890685E+03  0.00000000000E+00 0. -1.
        -13    1    3    3    0    0 -0.22525847238E+03  0.78310864144E+02 -0.90712995651E+02  0.25515253948E+03  0.00000000000E+00 0.  1.
          4    1    6    6  502    0  0.51799554398E+03 -0.11309657663E+03  0.68388241862E+02  0.53459065729E+03  0.00000000000E+00 0. -1.
          1    1    5    5  503    0 -0.24459701255E+03  0.95700749353E+01  0.54873641693E+02  0.25085932599E+03  0.00000000000E+00 0. -1.
         -2    1    5    5    0  503 -0.48368548518E+02 -0.35999820771E+01  0.51863517396E+02  0.71009159926E+02  0.00000000000E+00 0.  1.
         -3    1    6    6    0  502  0.12399005270E+03 -0.26598694678E+02 -0.22832126211E+02  0.12885002800E+03  0.00000000000E+00 0.  1.
<mgrwt>
<rscale>  0 0.13748570E+04</rscale>
<asrwt>0</asrwt>
<pdfrwt beam="1">  1        2 0.11194661E+00 0.13748570E+04</pdfrwt>
<pdfrwt beam="2">  1       -2 0.99911951E-01 0.13748570E+04</pdfrwt>
<totfact> 0.31480281E+01</totfact>
</mgrwt>
</event>
<event>
12    1  0.1489233E-007  0.1227771E+04  0.7818608E-02  0.9088890E-01
         -2   -1    0    0    0  501 -0.00000000000E+00  0.00000000000E+00  0.81511015635E+02  0.81511015635E+02  0.00000000000E+00 0. -1.
          2   -1    0    0  501    0  0.00000000000E+00 -0.00000000000E+00 -0.46233671896E+04  0.46233671896E+04  0.00000000000E+00 0.  1.
         23    2    1    2    0    0 -0.26068509204E+03 -0.68670157857E+02 -0.10478184783E+04  0.10859327977E+04  0.93027790124E+02 0.  0.
        254    2    1    2    0    0  0.26068509204E+03  0.68670157857E+02 -0.34940376957E+04  0.36189454076E+04  0.90321322877E+03 0.  0.
        -24    2    4    4    0    0  0.10993031722E+03  0.43224564899E+03 -0.25949977150E+04  0.26342298871E+04  0.78949236686E+02 0.  0.
         24    2    4    4    0    0  0.15075477482E+03 -0.36357549114E+03 -0.89903998071E+03  0.98471552045E+03  0.80483721449E+02 0.  0.
         11    1    3    3    0    0 -0.69197073216E+02 -0.31809972598E+02 -0.16347334244E+03  0.18034312570E+03  0.00000000000E+00 0. -1.
        -11    1    3    3    0    0 -0.19148801882E+03 -0.36860185259E+02 -0.88434513587E+03  0.90558967195E+03  0.00000000000E+00 0.  1.
          4    1    6    6  502    0  0.48148236331E+02 -0.11344818495E+03 -0.19649140880E+03  0.23194313325E+03  0.00000000000E+00 0. -1.
          1    1    5    5  503    0  0.10088238553E+02  0.29025313342E+02 -0.33230179398E+03  0.33371952843E+03  0.00000000000E+00 0. -1.
         -2    1    5    5    0  503  0.99842078665E+02  0.40322033565E+03 -0.22626959210E+04  0.23005103587E+04  0.00000000000E+00 0.  1.
         -3    1    6    6    0  502  0.10260653849E+03 -0.25012730619E+03 -0.70254857190E+03  0.75277238720E+03  0.00000000000E+00 0.  1.
<mgrwt>
<rscale>  0 0.12277709E+04</rscale>
<asrwt>0</asrwt>
<pdfrwt beam="1">  1        2 0.71128723E+00 0.12277709E+04</pdfrwt>
<pdfrwt beam="2">  1       -2 0.12540157E-01 0.12277709E+04</pdfrwt>
<totfact> 0.45851462E+00</totfact>
</mgrwt>
</event>
<event>
12    1  0.1489233E-007  0.3588776E+04  0.7818608E-02  0.8093068E-01
          1   -1    0    0  501    0  0.00000000000E+00  0.00000000000E+00  0.17749625207E+04  0.17749625207E+04  0.00000000000E+00 0. -1.
         -1   -1    0    0    0  501 -0.00000000000E+00 -0.00000000000E+00 -0.18140258014E+04  0.18140258014E+04  0.00000000000E+00 0.  1.
         23    2    1    2    0    0  0.75499421158E+03  0.97152681421E+03 -0.11649254111E+04  0.16967996451E+04  0.90538456005E+02 0.  0.
        254    2    1    2    0    0 -0.75499421158E+03 -0.97152681421E+03  0.11258621304E+04  0.18921886770E+04  0.89382987319E+03 0.  0.
        -24    2    4    4    0    0 -0.70636407286E+03 -0.25722499657E+03  0.80254522755E+03  0.11025517130E+04  0.80165674277E+02 0.  0.
         24    2    4    4    0    0 -0.48630138713E+02 -0.71430181765E+03  0.32331690288E+03  0.78963696393E+03  0.80004612601E+02 0.  0.
         13    1    3    3    0    0  0.21500576651E+03  0.31207924878E+03 -0.40853591991E+03  0.55724548900E+03  0.00000000000E+00 0. -1.
        -13    1    3    3    0    0  0.53998844507E+03  0.65944756543E+03 -0.75638949120E+03  0.11395541561E+04  0.00000000000E+00 0.  1.
          4    1    6    6  502    0 -0.16493827429E+02 -0.58489853757E+02  0.81486239193E+01  0.61314838396E+02  0.00000000000E+00 0. -1.
          1    1    5    5  503    0 -0.14395315520E+03 -0.55987284062E+02  0.12039345044E+03  0.19583582353E+03  0.00000000000E+00 0. -1.
         -2    1    5    5    0  503 -0.56241091766E+03 -0.20123771250E+03  0.68215177712E+03  0.90671588950E+03  0.00000000000E+00 0.  1.
         -3    1    6    6    0  502 -0.32136311284E+02 -0.65581196389E+03  0.31516827896E+03  0.72832212554E+03  0.00000000000E+00 0.  1.
<mgrwt>
<rscale>  0 0.35887757E+04</rscale>
<asrwt>0</asrwt>
<pdfrwt beam="1">  1        1 0.27307116E+00 0.35887757E+04</pdfrwt>
<pdfrwt beam="2">  1       -1 0.27908089E+00 0.35887757E+04</pdfrwt>
<totfact> 0.15481501E-01</totfact>
</mgrwt>
</event>
<event>
12    1  0.1489233E-007  0.1551910E+04  0.7818608E-02  0.8850649E-01
         -1   -1    0    0    0  501 -0.00000000000E+00  0.00000000000E+00  0.55090677365E+03  0.55090677365E+03  0.00000000000E+00 0.  1.
          1   -1    0    0  501    0  0.00000000000E+00 -0.00000000000E+00 -0.10929362698E+04  0.10929362698E+04  0.00000000000E+00 0. -1.
         23    2    1    2    0    0 -0.29697003403E+03  0.22980069614E+03 -0.55012015407E+03  0.67428705557E+03  0.10502994018E+03 0.  0.
        254    2    1    2    0    0  0.29697003403E+03 -0.22980069614E+03  0.80906579387E+01  0.96955598786E+03  0.89385334020E+03 0.  0.
        -24    2    4    4    0    0 -0.59368183665E+02  0.13021888003E+03  0.32668215061E+03  0.36557916530E+03  0.80283003334E+02 0.  0.
         24    2    4    4    0    0  0.35633821770E+03 -0.36001957617E+03 -0.31859149267E+03  0.60397682256E+03  0.81831793093E+02 0.  0.
         13    1    3    3    0    0 -0.13901010779E+02 -0.53851001871E+01 -0.57352367948E+02  0.59258176769E+02  0.00000000000E+00 0.  1.
        -13    1    3    3    0    0 -0.28306902325E+03  0.23518579633E+03 -0.49276778613E+03  0.61502887880E+03  0.00000000000E+00 0. -1.
          4    1    6    6  502    0  0.51674874178E+02 -0.17423846478E+02 -0.29971379785E+02  0.62226735843E+02  0.00000000000E+00 0. -1.
          1    1    5    5  503    0 -0.35886166870E+02  0.10600445201E+02  0.44170625491E+02  0.57889814021E+02  0.00000000000E+00 0. -1.
         -2    1    5    5    0  503 -0.23482016795E+02  0.11961843483E+03  0.28251152512E+03  0.30768935128E+03  0.00000000000E+00 0.  1.
         -3    1    6    6    0  502  0.30466334352E+03 -0.34259572969E+03 -0.28862011289E+03  0.54175008671E+03  0.00000000000E+00 0.  1.
<mgrwt>
<rscale>  0 0.15519098E+04</rscale>
<asrwt>0</asrwt>
<pdfrwt beam="1">  1        1 0.16814404E+00 0.15519098E+04</pdfrwt>
<pdfrwt beam="2">  1       -1 0.84754888E-01 0.15519098E+04</pdfrwt>
<totfact> 0.17037232E+01</totfact>
</mgrwt>
</event>
<event>
12    1  0.1489233E-007  0.1987306E+04  0.7818608E-02  0.8612578E-01
          2   -1    0    0  501    0  0.00000000000E+00  0.00000000000E+00  0.25086566794E+04  0.25086566794E+04  0.00000000000E+00 0. -1.
         -2   -1    0    0    0  501 -0.00000000000E+00 -0.00000000000E+00 -0.39357584766E+03  0.39357584766E+03  0.00000000000E+00 0.  1.
         23    2    1    2    0    0 -0.15307001116E+03  0.68104624491E+03  0.14039852506E+04  0.15713859030E+04  0.10404160733E+03 0.  0.
        254    2    1    2    0    0  0.15307001116E+03 -0.68104624491E+03  0.71109558110E+03  0.13308466241E+04  0.88217991097E+03 0.  0.
        -24    2    4    4    0    0 -0.80430242006E+01 -0.53830300330E+02  0.66975718003E+03  0.67698939953E+03  0.82326031131E+02 0.  0.
         24    2    4    4    0    0  0.16111303536E+03 -0.62721594459E+03  0.41338401067E+02  0.65385722454E+03  0.80393752123E+02 0.  0.
         13    1    3    3    0    0 -0.68333392795E+02  0.51140157624E+03  0.10417966444E+04  0.11625580730E+04  0.00000000000E+00 0. -1.
        -13    1    3    3    0    0 -0.84736618367E+02  0.16964466867E+03  0.36218860623E+03  0.40882783000E+03  0.00000000000E+00 0.  1.
          2    1    6    6  502    0  0.42491322636E+02 -0.79031344608E+02  0.23251676144E+02  0.92693615602E+02  0.00000000000E+00 0. -1.
          1    1    5    5  503    0  0.23582444142E+01 -0.37780916939E+02  0.10021369194E+03  0.10712489465E+03  0.00000000000E+00 0. -1.
         -2    1    5    5    0  503 -0.10401268615E+02 -0.16049383390E+02  0.56954348809E+03  0.56986450488E+03  0.00000000000E+00 0.  1.
         -1    1    6    6    0  502  0.11862171273E+03 -0.54818459998E+03  0.18086724923E+02  0.56116360894E+03  0.00000000000E+00 0.  1.
<mgrwt>
<rscale>  0 0.19873064E+04</rscale>
<asrwt>0</asrwt>
<pdfrwt beam="1">  1        2 0.38594717E+00 0.19873064E+04</pdfrwt>
<pdfrwt beam="2">  1       -2 0.60550132E-01 0.19873064E+04</pdfrwt>
<totfact> 0.81346262E+00</totfact>
</mgrwt>
</event>
<event>
12    1  0.1489233E-007  0.1569095E+04  0.7818608E-02  0.8839763E-01
          2   -1    0    0  501    0  0.00000000000E+00  0.00000000000E+00  0.10867134089E+04  0.10867134089E+04  0.00000000000E+00 0. -1.
         -2   -1    0    0    0  501 -0.00000000000E+00 -0.00000000000E+00 -0.56640006914E+03  0.56640006914E+03  0.00000000000E+00 0.  1.
         23    2    1    2    0    0 -0.16715175279E+03 -0.38191148363E+02 -0.34678819828E+03  0.39739935851E+03  0.90917123820E+02 0.  0.
        254    2    1    2    0    0  0.16715175279E+03  0.38191148363E+02  0.86710153806E+03  0.12557141196E+04  0.89193867529E+03 0.  0.
        -24    2    4    4    0    0 -0.11446224999E+03  0.40177968279E+03  0.29702088527E+03  0.51882911130E+03  0.80210474833E+02 0.  0.
         24    2    4    4    0    0  0.28161400278E+03 -0.36358853442E+03  0.57008065279E+03  0.73688500825E+03  0.80650454308E+02 0.  0.
         11    1    3    3    0    0  0.56252828008E+01  0.37926059704E+01  0.94000299195E+00  0.68491804080E+01  0.00000000000E+00 0. -1.
        -11    1    3    3    0    0 -0.17277703559E+03 -0.41983754333E+02 -0.34772820127E+03  0.39055017810E+03  0.00000000000E+00 0.  1.
          2    1    6    6  502    0  0.25026578200E+03 -0.31065981011E+03  0.44591610419E+03  0.59831734993E+03  0.00000000000E+00 0. -1.
          3    1    5    5  503    0 -0.12322554648E+03  0.39504328288E+03  0.29310047874E+03  0.50710119433E+03  0.00000000000E+00 0. -1.
         -4    1    5    5    0  503  0.87632964893E+01  0.67363999081E+01  0.39204065247E+01  0.11727916968E+02  0.00000000000E+00 0.  1.
         -1    1    6    6    0  502  0.31348220781E+02 -0.52928724318E+02  0.12416454860E+03  0.13856765832E+03  0.00000000000E+00 0.  1.
<mgrwt>
<rscale>  0 0.15690947E+04</rscale>
<asrwt>0</asrwt>
<pdfrwt beam="1">  1        2 0.16718668E+00 0.15690947E+04</pdfrwt>
<pdfrwt beam="2">  1       -2 0.87138472E-01 0.15690947E+04</pdfrwt>
<totfact> 0.24299292E+01</totfact>
</mgrwt>
</event>
<event>
12    1  0.1489233E-007  0.1378282E+04  0.7818608E-02  0.8969691E-01
          2   -1    0    0  501    0  0.00000000000E+00  0.00000000000E+00  0.60323698857E+03  0.60323698857E+03  0.00000000000E+00 0. -1.
         -2   -1    0    0    0  501 -0.00000000000E+00 -0.00000000000E+00 -0.78727781952E+03  0.78727781952E+03  0.00000000000E+00 0.  1.
         23    2    1    2    0    0 -0.17812370073E+03  0.31309826542E+03  0.10518189469E+03  0.38653560913E+03  0.92671298615E+02 0.  0.
        254    2    1    2    0    0  0.17812370073E+03 -0.31309826542E+03 -0.28922272563E+03  0.10039791990E+04  0.89138424395E+03 0.  0.
        -24    2    4    4    0    0  0.37151920142E+02  0.30575919175E+03 -0.57644447026E+02  0.32350724227E+03  0.80405876762E+02 0.  0.
         24    2    4    4    0    0  0.14097178058E+03 -0.61885745716E+03 -0.23157827861E+03  0.68047195669E+03  0.80969065197E+02 0.  0.
         11    1    3    3    0    0  0.10852127929E+02  0.10839015400E+02  0.22667365473E+01  0.15504548688E+02  0.00000000000E+00 0.  1.
        -11    1    3    3    0    0 -0.18897582866E+03  0.30225925002E+03  0.10291515814E+03  0.37103106044E+03  0.00000000000E+00 0. -1.
          4    1    6    6  502    0  0.12957721611E+03 -0.56250773172E+03 -0.23415603874E+03  0.62292395495E+03  0.00000000000E+00 0. -1.
          3    1    5    5  503    0  0.51018157369E+02  0.11849314674E+03 -0.78995709491E+01  0.12925123375E+03  0.00000000000E+00 0. -1.
         -4    1    5    5    0  503 -0.13866237226E+02  0.18726604501E+03 -0.49744876077E+02  0.19425600852E+03  0.00000000000E+00 0.  1.
         -3    1    6    6    0  502  0.11394564472E+02 -0.56349725443E+02  0.25777601295E+01  0.57548001740E+02  0.00000000000E+00 0.  1.
<mgrwt>
<rscale>  0 0.13782817E+04</rscale>
<asrwt>0</asrwt>
<pdfrwt beam="1">  1        2 0.92805691E-01 0.13782817E+04</pdfrwt>
<pdfrwt beam="2">  1       -2 0.12111966E+00 0.13782817E+04</pdfrwt>
<totfact> 0.24916652E+01</totfact>
</mgrwt>
</event>
<event>
12    1  0.1489233E-007  0.1839830E+04  0.7818608E-02  0.8685401E-01
          1   -1    0    0  501    0  0.00000000000E+00  0.00000000000E+00  0.15876060668E+04  0.15876060668E+04  0.00000000000E+00 0. -1.
         -1   -1    0    0    0  501 -0.00000000000E+00 -0.00000000000E+00 -0.53303100367E+03  0.53303100367E+03  0.00000000000E+00 0.  1.
         23    2    1    2    0    0  0.18170313460E+03  0.67674068317E+03  0.41031448191E+03  0.81660667079E+03  0.86570776365E+02 0.  0.
        254    2    1    2    0    0 -0.18170313460E+03 -0.67674068317E+03  0.64426058119E+03  0.13040303997E+04  0.89130780619E+03 0.  0.
        -24    2    4    4    0    0 -0.43311208295E+02 -0.61461398244E+03  0.83997701891E+03  0.10444463190E+04  0.75369176805E+02 0.  0.
         24    2    4    4    0    0 -0.13839192631E+03 -0.62126700738E+02 -0.19571643772E+03  0.25958408066E+03  0.77890427675E+02 0.  0.
         13    1    3    3    0    0  0.79666177706E+02  0.15384079611E+03  0.97448917523E+02  0.19877117986E+03  0.00000000000E+00 0.  1.
        -13    1    3    3    0    0  0.10203695690E+03  0.52289988707E+03  0.31286556439E+03  0.61783549093E+03  0.00000000000E+00 0. -1.
          4    1    6    6  502    0 -0.67215558892E+02 -0.16963507904E+02 -0.33990281357E+02  0.77207714539E+02  0.00000000000E+00 0. -1.
          1    1    5    5  503    0  0.31202121714E+01 -0.10194983631E+03  0.98450849988E+02  0.14176062469E+03  0.00000000000E+00 0. -1.
         -2    1    5    5    0  503 -0.46431420467E+02 -0.51266414612E+03  0.74152616892E+03  0.90268569432E+03  0.00000000000E+00 0.  1.
         -3    1    6    6    0  502 -0.71176367416E+02 -0.45163192834E+02 -0.16172615636E+03  0.18237636612E+03  0.00000000000E+00 0.  1.
<mgrwt>
<rscale>  0 0.18398296E+04</rscale>
<asrwt>0</asrwt>
<pdfrwt beam="1">  1        1 0.24424708E+00 0.18398296E+04</pdfrwt>
<pdfrwt beam="2">  1       -1 0.82004771E-01 0.18398296E+04</pdfrwt>
<totfact> 0.79165387E+00</totfact>
</mgrwt>
</event>
<event>
12    1  0.1489233E-007  0.1054494E+04  0.7818608E-02  0.9250717E-01
          1   -1    0    0  501    0  0.00000000000E+00  0.00000000000E+00  0.21280830842E+04  0.21280830842E+04  0.00000000000E+00 0. -1.
         -1   -1    0    0    0  501 -0.00000000000E+00 -0.00000000000E+00 -0.13062897527E+03  0.13062897527E+03  0.00000000000E+00 0.  1.
         23    2    1    2    0    0  0.14023928747E+02  0.11574578513E+03  0.45123456699E+03  0.47491433517E+03  0.91308454953E+02 0.  0.
        254    2    1    2    0    0 -0.14023928747E+02 -0.11574578513E+03  0.15462195419E+04  0.17837977243E+04  0.88178551359E+03 0.  0.
        -24    2    4    4    0    0  0.10372343483E+03 -0.30983379447E+03  0.15016620142E+04  0.15389501061E+04  0.81382387900E+02 0.  0.
         24    2    4    4    0    0 -0.11774736358E+03  0.19408800934E+03  0.44557527707E+02  0.24484761816E+03  0.80189686667E+02 0.  0.
         11    1    3    3    0    0 -0.15629731859E+02 -0.52070036845E+01  0.19248941041E+02  0.25336202094E+02  0.00000000000E+00 0.  1.
        -11    1    3    3    0    0  0.29653660606E+02  0.12095278881E+03  0.43198562595E+03  0.44957813308E+03  0.00000000000E+00 0. -1.
          4    1    6    6  502    0 -0.71038863462E+02  0.13319270982E+03 -0.90641797288E+01  0.15122492330E+03  0.00000000000E+00 0. -1.
          3    1    5    5  503    0  0.83519034399E+02 -0.26226510408E+03  0.13726042146E+04  0.13999288353E+04  0.00000000000E+00 0. -1.
         -4    1    5    5    0  503  0.20204400429E+02 -0.47568690389E+02  0.12905779956E+03  0.13902127078E+03  0.00000000000E+00 0.  1.
         -3    1    6    6    0  502 -0.46708500113E+02  0.60895299514E+02  0.53621707436E+02  0.93622694866E+02  0.00000000000E+00 0.  1.
<mgrwt>
<rscale>  0 0.10544938E+04</rscale>
<asrwt>0</asrwt>
<pdfrwt beam="1">  1        1 0.32739737E+00 0.10544938E+04</pdfrwt>
<pdfrwt beam="2">  1       -1 0.20096767E-01 0.10544938E+04</pdfrwt>
<totfact> 0.49702916E+01</totfact>
</mgrwt>
</event>
<event>
12    1  0.1489233E-007  0.2442190E+04  0.7818608E-02  0.8423875E-01
          2   -1    0    0  501    0  0.00000000000E+00  0.00000000000E+00  0.13793242409E+04  0.13793242409E+04  0.00000000000E+00 0. -1.
         -2   -1    0    0    0  501 -0.00000000000E+00 -0.00000000000E+00 -0.10810170293E+04  0.10810170293E+04  0.00000000000E+00 0.  1.
         23    2    1    2    0    0  0.21453259176E+03 -0.13091732958E+03 -0.89947980160E+03  0.93842914124E+03  0.91770145044E+02 0.  0.
        254    2    1    2    0    0 -0.21453259176E+03  0.13091732958E+03  0.11977870132E+04  0.15219121290E+04  0.90463209064E+03 0.  0.
        -24    2    4    4    0    0 -0.24971401961E+03  0.34618361048E+03  0.16591207012E+03  0.46431118044E+03  0.76536746192E+02 0.  0.
         24    2    4    4    0    0  0.35181427851E+02 -0.21526628089E+03  0.10318749431E+04  0.10576009486E+04  0.78591117700E+02 0.  0.
         13    1    3    3    0    0  0.12117146401E+03 -0.64195933510E+02 -0.32745146994E+03  0.35500437566E+03  0.00000000000E+00 0. -1.
        -13    1    3    3    0    0  0.93361127747E+02 -0.66721396074E+02 -0.57202833166E+03  0.58342476558E+03  0.00000000000E+00 0.  1.
          2    1    6    6  502    0  0.34389079210E+02 -0.13512614745E+03  0.47678017719E+03  0.49675046236E+03  0.00000000000E+00 0. -1.
          1    1    5    5  503    0 -0.57916443420E+02  0.49466249109E+02  0.55187851681E+02  0.94058084142E+02  0.00000000000E+00 0. -1.
         -2    1    5    5    0  503 -0.19179757619E+03  0.29671736137E+03  0.11072421844E+03  0.37025309630E+03  0.00000000000E+00 0.  1.
         -1    1    6    6    0  502  0.79234864089E+00 -0.80140133443E+02  0.55509476587E+03  0.56085048623E+03  0.00000000000E+00 0.  1.
<mgrwt>
<rscale>  0 0.24421900E+04</rscale>
<asrwt>0</asrwt>
<pdfrwt beam="1">  1        2 0.21220373E+00 0.24421900E+04</pdfrwt>
<pdfrwt beam="2">  1       -2 0.16631031E+00 0.24421900E+04</pdfrwt>
<totfact> 0.30191342E+00</totfact>
</mgrwt>
</event>
<event>
12    1  0.1489233E-007  0.1517574E+04  0.7818608E-02  0.8872850E-01
          1   -1    0    0  501    0  0.00000000000E+00  0.00000000000E+00  0.79967414241E+03  0.79967414241E+03  0.00000000000E+00 0. -1.
         -1   -1    0    0    0  501 -0.00000000000E+00 -0.00000000000E+00 -0.71999045086E+03  0.71999045086E+03  0.00000000000E+00 0.  1.
         23    2    1    2    0    0  0.22400851336E+02  0.61397068342E+02 -0.46076818756E+03  0.47429162637E+03  0.91508611814E+02 0.  0.
        254    2    1    2    0    0 -0.22400851336E+02 -0.61397068342E+02  0.54045187912E+03  0.10453729669E+04  0.89243767746E+03 0.  0.
        -24    2    4    4    0    0  0.15486219345E+03 -0.25960953257E+03  0.66899794407E+03  0.73876563474E+03  0.82686187110E+02 0.  0.
         24    2    4    4    0    0 -0.17726304479E+03  0.19821246423E+03 -0.12854606495E+03  0.30660733217E+03  0.82301866922E+02 0.  0.
         13    1    3    3    0    0 -0.14834827044E+02  0.37904934396E+02 -0.38109880517E+03  0.38326642880E+03  0.00000000000E+00 0.  1.
        -13    1    3    3    0    0  0.37235678380E+02  0.23492133947E+02 -0.79669382387E+02  0.91025197565E+02  0.00000000000E+00 0. -1.
          4    1    6    6  502    0 -0.12685382281E+03  0.91079110466E+02 -0.47879824864E+02  0.16333944519E+03  0.00000000000E+00 0. -1.
          3    1    5    5  503    0  0.11489363599E+03 -0.11400176405E+03  0.32427889574E+03  0.36242758176E+03  0.00000000000E+00 0. -1.
         -4    1    5    5    0  503  0.39968557465E+02 -0.14560776852E+03  0.34471904832E+03  0.37633805298E+03  0.00000000000E+00 0.  1.
         -3    1    6    6    0  502 -0.50409221978E+02  0.10713335376E+03 -0.80666240088E+02  0.14326788698E+03  0.00000000000E+00 0.  1.
<mgrwt>
<rscale>  0 0.15175740E+04</rscale>
<asrwt>0</asrwt>
<pdfrwt beam="1">  1        1 0.12302679E+00 0.15175740E+04</pdfrwt>
<pdfrwt beam="2">  1       -1 0.11076776E+00 0.15175740E+04</pdfrwt>
<totfact> 0.16048789E+01</totfact>
</mgrwt>
</event>
<event>
12    1  0.1489233E-007  0.2999407E+04  0.7818608E-02  0.8243900E-01
         -1   -1    0    0    0  501 -0.00000000000E+00  0.00000000000E+00  0.23548699064E+04  0.23548699064E+04  0.00000000000E+00 0.  1.
          1   -1    0    0  501    0  0.00000000000E+00 -0.00000000000E+00 -0.95508901952E+03  0.95508901952E+03  0.00000000000E+00 0. -1.
         23    2    1    2    0    0 -0.27283167489E+03 -0.13303741588E+04  0.10445932175E+04  0.17156850317E+04  0.89819891205E+02 0.  0.
        254    2    1    2    0    0  0.27283167489E+03  0.13303741588E+04  0.35518766943E+03  0.15942738942E+04  0.75578994703E+03 0.  0.
        -24    2    4    4    0    0  0.30379658246E+03  0.12312429094E+04  0.61114605232E+02  0.12721286102E+04  0.79528235986E+02 0.  0.
         24    2    4    4    0    0 -0.30964907568E+02  0.99131249401E+02  0.29407306420E+03  0.32214528407E+03  0.80701839203E+02 0.  0.
         13    1    3    3    0    0 -0.18418087555E+03 -0.10674999322E+04  0.84684797636E+03  0.13750018892E+04  0.00000000000E+00 0.  1.
        -13    1    3    3    0    0 -0.88650799337E+02 -0.26287422664E+03  0.19774524113E+03  0.34068314259E+03  0.00000000000E+00 0. -1.
          4    1    6    6  502    0 -0.35392442689E+02  0.10139300077E+03  0.29737795190E+03  0.31617528664E+03  0.00000000000E+00 0. -1.
          1    1    5    5  503    0  0.24315633785E+03  0.93256977927E+03  0.77958739713E+02  0.96689656269E+03  0.00000000000E+00 0. -1.
         -2    1    5    5    0  503  0.60640244606E+02  0.29867313014E+03 -0.16844134481E+02  0.30523204746E+03  0.00000000000E+00 0.  1.
         -3    1    6    6    0  502  0.44275351207E+01 -0.22617513733E+01 -0.33048877036E+01  0.59699974249E+01  0.00000000000E+00 0.  1.
<mgrwt>
<rscale>  0 0.29994069E+04</rscale>
<asrwt>0</asrwt>
<pdfrwt beam="1">  1        1 0.14693677E+00 0.29994069E+04</pdfrwt>
<pdfrwt beam="2">  1       -1 0.36228768E+00 0.29994069E+04</pdfrwt>
<totfact> 0.17979477E-01</totfact>
</mgrwt>
</event>
<event>
12    1  0.1489233E-007  0.1783980E+04  0.7818608E-02  0.8714865E-01
          1   -1    0    0  501    0  0.00000000000E+00  0.00000000000E+00  0.22823646306E+04  0.22823646306E+04  0.00000000000E+00 0. -1.
         -1   -1    0    0    0  501 -0.00000000000E+00 -0.00000000000E+00 -0.34860623321E+03  0.34860623321E+03  0.00000000000E+00 0.  1.
         23    2    1    2    0    0  0.48415701920E+02  0.14569079538E+02  0.15226070980E+04  0.15262467783E+04  0.92414906799E+02 0.  0.
        254    2    1    2    0    0 -0.48415701920E+02 -0.14569079538E+02  0.41115129936E+03  0.11047240855E+04  0.10241159973E+04 0.  0.
        -24    2    4    4    0    0 -0.34892837635E+03 -0.37048572414E+03  0.66113089981E+02  0.51966775715E+03  0.81688148104E+02 0.  0.
         24    2    4    4    0    0  0.30051267443E+03  0.35591664461E+03  0.34503820938E+03  0.58505632837E+03  0.79088659349E+02 0.  0.
         13    1    3    3    0    0  0.15898618331E+02  0.50666852204E+02  0.99191480749E+03  0.99333523107E+03  0.00000000000E+00 0.  1.
        -13    1    3    3    0    0  0.32517083589E+02 -0.36097772666E+02  0.53069229056E+03  0.53291154723E+03  0.00000000000E+00 0. -1.
          4    1    6    6  502    0  0.21109058044E+03  0.19067128667E+03  0.20084963705E+03  0.34821738816E+03  0.00000000000E+00 0. -1.
          3    1    5    5  503    0 -0.31630354618E+03 -0.33198005625E+03  0.33891745783E+02  0.45979054090E+03  0.00000000000E+00 0. -1.
         -2    1    5    5    0  503 -0.32624830169E+02 -0.38505667894E+02  0.32221344198E+02  0.59877216246E+02  0.00000000000E+00 0.  1.
         -3    1    6    6    0  502  0.89422093984E+02  0.16524535793E+03  0.14418857232E+03  0.23683894021E+03  0.00000000000E+00 0.  1.
<mgrwt>
<rscale>  0 0.17839804E+04</rscale>
<asrwt>0</asrwt>
<pdfrwt beam="1">  1        1 0.35113301E+00 0.17839804E+04</pdfrwt>
<pdfrwt beam="2">  1       -1 0.53631730E-01 0.17839804E+04</pdfrwt>
<totfact> 0.63475536E+00</totfact>
</mgrwt>
</event>
<event>
12    1  0.1489233E-007  0.1751801E+04  0.7818608E-02  0.8732359E-01
          2   -1    0    0  501    0  0.00000000000E+00  0.00000000000E+00  0.36393468574E+03  0.36393468574E+03  0.00000000000E+00 0. -1.
         -2   -1    0    0    0  501 -0.00000000000E+00 -0.00000000000E+00 -0.21080760107E+04  0.21080760107E+04  0.00000000000E+00 0.  1.
         23    2    1    2    0    0  0.13259238750E+03 -0.57162692587E+03 -0.23792794167E+03  0.63978430683E+03  0.91521419538E+02 0.  0.
        254    2    1    2    0    0 -0.13259238750E+03  0.57162692587E+03 -0.15062133833E+04  0.18322263896E+04  0.86257562171E+03 0.  0.
        -24    2    4    4    0    0  0.72834709518E+02 -0.17396690150E+03 -0.10470441477E+03  0.22944831763E+03  0.78192955328E+02 0.  0.
         24    2    4    4    0    0 -0.20542709702E+03  0.74559382737E+03 -0.14015089685E+04  0.16027780720E+04  0.80992046404E+02 0.  0.
         13    1    3    3    0    0  0.39281707865E+02 -0.17615140033E+03 -0.11982452582E+03  0.21663398948E+03  0.00000000000E+00 0.  1.
        -13    1    3    3    0    0  0.93310679634E+02 -0.39547552554E+03 -0.11810341585E+03  0.42315031734E+03  0.00000000000E+00 0. -1.
          2    1    6    6  502    0  0.17850329060E+00  0.93038230907E+02 -0.18472138077E+03  0.20682875232E+03  0.00000000000E+00 0. -1.
          3    1    5    5  503    0  0.17853780707E+01 -0.10501518244E+03 -0.57959801106E+02  0.11996130485E+03  0.00000000000E+00 0. -1.
         -4    1    5    5    0  503  0.71049331447E+02 -0.68951719060E+02 -0.46744613666E+02  0.10948701278E+03  0.00000000000E+00 0.  1.
         -3    1    6    6    0  502 -0.20560560031E+03  0.65255559646E+03 -0.12167875878E+04  0.13959493197E+04  0.00000000000E+00 0.  1.
<mgrwt>
<rscale>  0 0.17518013E+04</rscale>
<asrwt>0</asrwt>
<pdfrwt beam="1">  1        2 0.55989951E-01 0.17518013E+04</pdfrwt>
<pdfrwt beam="2">  1       -2 0.32431939E+00 0.17518013E+04</pdfrwt>
<totfact> 0.18929851E+00</totfact>
</mgrwt>
</event>
<event>
12    1  0.1489233E-007  0.1760993E+04  0.7818608E-02  0.8727322E-01
          2   -1    0    0  501    0  0.00000000000E+00  0.00000000000E+00  0.11193256820E+04  0.11193256820E+04  0.00000000000E+00 0. -1.
         -2   -1    0    0    0  501 -0.00000000000E+00 -0.00000000000E+00 -0.69262630599E+03  0.69262630599E+03  0.00000000000E+00 0.  1.
         23    2    1    2    0    0  0.35041682421E+02 -0.65945416050E+02  0.82590287540E+03  0.83541613591E+03  0.10113279958E+03 0.  0.
        254    2    1    2    0    0 -0.35041682421E+02  0.65945416050E+02 -0.39920349941E+03  0.97653585206E+03  0.88807776631E+03 0.  0.
        -24    2    4    4    0    0 -0.10720660260E+03  0.11151635303E+03 -0.66404691318E+03  0.68720084226E+03  0.85776115959E+02 0.  0.
         24    2    4    4    0    0  0.72164920182E+02 -0.45570936983E+02  0.26484341377E+03  0.28933500979E+03  0.79298348483E+02 0.  0.
         13    1    3    3    0    0  0.54142656934E+02 -0.83282081616E+02  0.62070503554E+03  0.62860327200E+03  0.00000000000E+00 0. -1.
        -13    1    3    3    0    0 -0.19100974513E+02  0.17336665566E+02  0.20519783985E+03  0.20681286391E+03  0.00000000000E+00 0.  1.
          2    1    6    6  502    0 -0.11274364615E+02 -0.23179959585E+02  0.99471946175E+02  0.10275743233E+03  0.00000000000E+00 0. -1.
          1    1    5    5  503    0 -0.94395346551E+02  0.11514325824E+03 -0.65340982359E+03  0.67015882366E+03  0.00000000000E+00 0. -1.
         -2    1    5    5    0  503 -0.12811256052E+02 -0.36269052095E+01 -0.10637089588E+02  0.17042018599E+02  0.00000000000E+00 0.  1.
         -1    1    6    6    0  502  0.83439284797E+02 -0.22390977397E+02  0.16537146760E+03  0.18657757746E+03  0.00000000000E+00 0.  1.
<mgrwt>
<rscale>  0 0.17609934E+04</rscale>
<asrwt>0</asrwt>
<pdfrwt beam="1">  1        2 0.17220395E+00 0.17609934E+04</pdfrwt>
<pdfrwt beam="2">  1       -2 0.10655789E+00 0.17609934E+04</pdfrwt>
<totfact> 0.14244505E+01</totfact>
</mgrwt>
</event>
<event>
12    1  0.1489233E-007  0.1534841E+04  0.7818608E-02  0.8861609E-01
          1   -1    0    0  501    0  0.00000000000E+00  0.00000000000E+00  0.39634610591E+04  0.39634610591E+04  0.00000000000E+00 0. -1.
         -1   -1    0    0    0  501 -0.00000000000E+00 -0.00000000000E+00 -0.14859087868E+03  0.14859087868E+03  0.00000000000E+00 0.  1.
         23    2    1    2    0    0 -0.88912452722E+02 -0.27260135624E+03  0.17574280997E+03  0.35354850989E+03  0.10906002898E+03 0.  0.
        254    2    1    2    0    0  0.88912452722E+02  0.27260135624E+03  0.36391273704E+04  0.37585034279E+04  0.89492070903E+03 0.  0.
        -24    2    4    4    0    0 -0.32726315486E+03 -0.45842216775E+02  0.21750938679E+04  0.22014081908E+04  0.77214031475E+02 0.  0.
         24    2    4    4    0    0  0.41617560758E+03  0.31844357301E+03  0.14640335025E+04  0.15570952371E+04  0.80889031824E+02 0.  0.
         13    1    3    3    0    0 -0.15046839843E+02 -0.19559534371E+03  0.14003689950E+03  0.24102754841E+03  0.00000000000E+00 0.  1.
        -13    1    3    3    0    0 -0.73865612879E+02 -0.77006012523E+02  0.35705910471E+02  0.11252096148E+03  0.00000000000E+00 0. -1.
          4    1    6    6  502    0  0.90258263666E+02  0.11362492880E+03  0.38226823871E+03  0.40888407272E+03  0.00000000000E+00 0. -1.
          3    1    5    5  503    0 -0.15349999278E+03 -0.56350353924E+02  0.11658403116E+04  0.11772515629E+04  0.00000000000E+00 0. -1.
         -4    1    5    5    0  503 -0.17376316208E+03  0.10508137149E+02  0.10092535563E+04  0.10241566278E+04  0.00000000000E+00 0.  1.
         -3    1    6    6    0  502  0.32591734391E+03  0.20481864421E+03  0.10817652638E+04  0.11482111644E+04  0.00000000000E+00 0.  1.
<mgrwt>
<rscale>  0 0.15348409E+04</rscale>
<asrwt>0</asrwt>
<pdfrwt beam="1">  1        1 0.60976316E+00 0.15348409E+04</pdfrwt>
<pdfrwt beam="2">  1       -1 0.22860138E-01 0.15348409E+04</pdfrwt>
<totfact> 0.16553578E+00</totfact>
</mgrwt>
</event>
<event>
12    1  0.1489233E-007  0.4250271E+04  0.7818608E-02  0.7955878E-01
         -2   -1    0    0    0  501 -0.00000000000E+00  0.00000000000E+00  0.17247533733E+04  0.17247533733E+04  0.00000000000E+00 0.  1.
          2   -1    0    0  501    0  0.00000000000E+00 -0.00000000000E+00 -0.26184614768E+04  0.26184614768E+04  0.00000000000E+00 0. -1.
         23    2    1    2    0    0  0.76756507605E+03  0.63786658011E+03 -0.22067382442E+04  0.24241136111E+04  0.10297184583E+03 0.  0.
        254    2    1    2    0    0 -0.76756507605E+03 -0.63786658011E+03  0.13130301407E+04  0.19191012390E+04  0.98126015670E+03 0.  0.
        -24    2    4    4    0    0 -0.79499924603E+03 -0.88327002356E+02  0.99407043727E+03  0.12783400031E+04  0.78432574128E+02 0.  0.
         24    2    4    4    0    0  0.27434169979E+02 -0.54953957776E+03  0.31895970345E+03  0.64076123593E+03  0.78059514754E+02 0.  0.
         13    1    3    3    0    0  0.22020734153E+03  0.23119591965E+03 -0.77905574810E+03  0.84194458557E+03  0.00000000000E+00 0. -1.
        -13    1    3    3    0    0  0.54735773452E+03  0.40667066046E+03 -0.14276824961E+04  0.15821690255E+04  0.00000000000E+00 0.  1.
          4    1    6    6  502    0 -0.24705157961E+02 -0.28725518891E+03  0.16616920874E+03  0.33277333776E+03  0.00000000000E+00 0. -1.
          3    1    5    5  503    0 -0.93718166031E+02 -0.36148077753E+02  0.11915460050E+03  0.15584478493E+03  0.00000000000E+00 0. -1.
         -4    1    5    5    0  503 -0.70128107999E+03 -0.52178924603E+02  0.87491583677E+03  0.11224952181E+04  0.00000000000E+00 0.  1.
         -1    1    6    6    0  502  0.52139327941E+02 -0.26228438885E+03  0.15279049471E+03  0.30798789818E+03  0.00000000000E+00 0.  1.
<mgrwt>
<rscale>  0 0.42502707E+04</rscale>
<asrwt>0</asrwt>
<pdfrwt beam="1">  1        2 0.40284023E+00 0.42502707E+04</pdfrwt>
<pdfrwt beam="2">  1       -2 0.26534667E+00 0.42502707E+04</pdfrwt>
<totfact> 0.11873646E-01</totfact>
</mgrwt>
</event>
<event>
12    1  0.1489233E-007  0.2245591E+04  0.7818608E-02  0.8499688E-01
         -2   -1    0    0    0  501 -0.00000000000E+00  0.00000000000E+00  0.42476255959E+03  0.42476255959E+03  0.00000000000E+00 0.  1.
          2   -1    0    0  501    0  0.00000000000E+00 -0.00000000000E+00 -0.29679408458E+04  0.29679408458E+04  0.00000000000E+00 0. -1.
         23    2    1    2    0    0 -0.50298329269E+03  0.32331847658E+03 -0.21548770486E+04  0.22381370388E+04  0.90748442984E+02 0.  0.
        254    2    1    2    0    0  0.50298329269E+03 -0.32331847658E+03 -0.38830123760E+03  0.11545663666E+04  0.90814019494E+03 0.  0.
        -24    2    4    4    0    0 -0.25498045851E+03 -0.62673566273E+02 -0.42384548515E+02  0.27793144837E+03  0.80662444210E+02 0.  0.
         24    2    4    4    0    0  0.75796375120E+03 -0.26064491031E+03 -0.34591668909E+03  0.87663491820E+03  0.79909990721E+02 0.  0.
         13    1    3    3    0    0 -0.50360609446E+03  0.31878607306E+03 -0.21512743213E+04  0.22323137917E+04  0.00000000000E+00 0. -1.
        -13    1    3    3    0    0  0.62280177408E+00  0.45324035199E+01 -0.36027272500E+01  0.58232471487E+01  0.00000000000E+00 0.  1.
          2    1    6    6  502    0  0.19805328073E+03 -0.40940674776E+02 -0.11276615190E+03  0.23155441234E+03  0.00000000000E+00 0. -1.
          1    1    5    5  503    0 -0.21705062555E+03 -0.45815747340E+02 -0.47215903766E+01  0.22188364107E+03  0.00000000000E+00 0. -1.
         -2    1    5    5    0  503 -0.37929832962E+02 -0.16857818933E+02 -0.37662958138E+02  0.56047807302E+02  0.00000000000E+00 0.  1.
         -1    1    6    6    0  502  0.55991047048E+03 -0.21970423553E+03 -0.23315053719E+03  0.64508050587E+03  0.00000000000E+00 0.  1.
<mgrwt>
<rscale>  0 0.22455914E+04</rscale>
<asrwt>0</asrwt>
<pdfrwt beam="1">  1        2 0.45660629E+00 0.22455914E+04</pdfrwt>
<pdfrwt beam="2">  1       -2 0.65348085E-01 0.22455914E+04</pdfrwt>
<totfact> 0.35869585E+00</totfact>
</mgrwt>
</event>
<event>
12    1  0.1489233E-007  0.2499760E+04  0.7818608E-02  0.8403071E-01
          1   -1    0    0  501    0  0.00000000000E+00  0.00000000000E+00  0.27481316239E+04  0.27481316239E+04  0.00000000000E+00 0. -1.
         -1   -1    0    0    0  501 -0.00000000000E+00 -0.00000000000E+00 -0.56845909442E+03  0.56845909442E+03  0.00000000000E+00 0.  1.
         23    2    1    2    0    0  0.18429628249E+03 -0.65827580240E+03 -0.17514655987E+03  0.71144129873E+03  0.90444747389E+02 0.  0.
        254    2    1    2    0    0 -0.18429628249E+03  0.65827580240E+03  0.23548190894E+04  0.26051494196E+04  0.87996500106E+03 0.  0.
        -24    2    4    4    0    0  0.26359396245E+03 -0.24558406218E+02  0.81216144450E+03  0.85792009755E+03  0.79597672695E+02 0.  0.
         24    2    4    4    0    0 -0.44789024494E+03  0.68283420862E+03  0.15426576449E+04  0.17472293221E+04  0.78418534893E+02 0.  0.
         13    1    3    3    0    0  0.18897160231E+01 -0.50118190450E+02  0.76356103301E+01  0.50731711835E+02  0.00000000000E+00 0. -1.
        -13    1    3    3    0    0  0.18240656647E+03 -0.60815761195E+03 -0.18278217020E+03  0.66070958689E+03  0.00000000000E+00 0.  1.
          4    1    6    6  502    0 -0.17940598602E+03  0.31190338211E+03  0.60967693585E+03  0.70793798718E+03  0.00000000000E+00 0. -1.
          3    1    5    5  503    0  0.96160342258E+02 -0.18223510241E+02  0.42382534823E+03  0.43497911852E+03  0.00000000000E+00 0. -1.
         -4    1    5    5    0  503  0.16743362019E+03 -0.63348959768E+01  0.38833609627E+03  0.42294097903E+03  0.00000000000E+00 0.  1.
         -3    1    6    6    0  502 -0.26848425892E+03  0.37093082651E+03  0.93298070901E+03  0.10392913349E+04  0.00000000000E+00 0.  1.
<mgrwt>
<rscale>  0 0.24997603E+04</rscale>
<asrwt>0</asrwt>
<pdfrwt beam="1">  1        1 0.42278948E+00 0.24997603E+04</pdfrwt>
<pdfrwt beam="2">  1       -1 0.87455246E-01 0.24997603E+04</pdfrwt>
<totfact> 0.10368914E+00</totfact>
</mgrwt>
</event>
<event>
12    1  0.1489233E-007  0.2163342E+04  0.7818608E-02  0.8533843E-01
          2   -1    0    0  501    0  0.00000000000E+00  0.00000000000E+00  0.11740701846E+04  0.11740701846E+04  0.00000000000E+00 0. -1.
         -2   -1    0    0    0  501 -0.00000000000E+00 -0.00000000000E+00 -0.99654350760E+03  0.99654350760E+03  0.00000000000E+00 0.  1.
         23    2    1    2    0    0 -0.23368129564E+03  0.41953377722E+03 -0.67728080746E+03  0.83533912368E+03  0.92014244715E+02 0.  0.
        254    2    1    2    0    0  0.23368129564E+03 -0.41953377722E+03  0.85480748442E+03  0.13352745685E+04  0.90644735071E+03 0.  0.
        -24    2    4    4    0    0  0.86907198293E+02 -0.16146236854E+03 -0.17156428757E+03  0.26386020549E+03  0.81024352519E+02 0.  0.
         24    2    4    4    0    0  0.14677409735E+03 -0.25807140867E+03  0.10263717720E+04  0.10714143630E+04  0.79663261558E+02 0.  0.
         11    1    3    3    0    0 -0.18616844921E+03  0.38994732340E+03 -0.61467933985E+03  0.75136429070E+03  0.00000000000E+00 0.  1.
        -11    1    3    3    0    0 -0.47512846432E+02  0.29586453814E+02 -0.62601467617E+02  0.83974832975E+02  0.00000000000E+00 0. -1.
          2    1    6    6  502    0  0.67053720561E+02 -0.89143918313E+02  0.51637491915E+03  0.52828580971E+03  0.00000000000E+00 0. -1.
          1    1    5    5  503    0  0.29579088120E+02 -0.11705100137E+03 -0.71610152879E+02  0.14037048611E+03  0.00000000000E+00 0. -1.
         -4    1    5    5    0  503  0.57328110173E+02 -0.44411367169E+02 -0.99954134687E+02  0.12348971937E+03  0.00000000000E+00 0.  1.
         -1    1    6    6    0  502  0.79720376790E+02 -0.16892749036E+03  0.50999685284E+03  0.54312855327E+03  0.00000000000E+00 0.  1.
<mgrwt>
<rscale>  0 0.21633419E+04</rscale>
<asrwt>0</asrwt>
<pdfrwt beam="1">  1        2 0.18062618E+00 0.21633419E+04</pdfrwt>
<pdfrwt beam="2">  1       -2 0.15331439E+00 0.21633419E+04</pdfrwt>
<totfact> 0.50882097E+00</totfact>
</mgrwt>
</event>
<event>
12    1  0.1489233E-007  0.1872119E+04  0.7818608E-02  0.8668860E-01
         -1   -1    0    0    0  501 -0.00000000000E+00  0.00000000000E+00  0.13817422394E+04  0.13817422394E+04  0.00000000000E+00 0.  1.
          1   -1    0    0  501    0  0.00000000000E+00 -0.00000000000E+00 -0.63413253286E+03  0.63413253286E+03  0.00000000000E+00 0. -1.
         23    2    1    2    0    0 -0.64643351210E+03 -0.14613421178E+03  0.57809660715E+03  0.88426379263E+03  0.92169812465E+02 0.  0.
        254    2    1    2    0    0  0.64643351210E+03  0.14613421178E+03  0.16951309940E+03  0.11316109797E+04  0.90143065456E+03 0.  0.
        -24    2    4    4    0    0  0.33415498100E+03  0.18980888528E+03 -0.34506497827E+03  0.52280296695E+03  0.81031714570E+02 0.  0.
         24    2    4    4    0    0  0.31227853110E+03 -0.43674673504E+02  0.51457807767E+03  0.60880801270E+03  0.80195013640E+02 0.  0.
         13    1    3    3    0    0 -0.13777824358E+03 -0.63721921672E+02  0.16143756946E+03  0.22159741997E+03  0.00000000000E+00 0. -1.
        -13    1    3    3    0    0 -0.50865526853E+03 -0.82412290106E+02  0.41665903769E+03  0.66266637266E+03  0.00000000000E+00 0.  1.
          2    1    6    6  502    0  0.29958652064E+03 -0.57551995460E+02  0.49643646367E+03  0.58267785096E+03  0.00000000000E+00 0. -1.
          1    1    5    5  503    0  0.26256423047E+03  0.16690353659E+03 -0.31223470076E+03  0.44078030129E+03  0.00000000000E+00 0. -1.
         -2    1    5    5    0  503  0.71590750538E+02  0.22905348696E+02 -0.32830277507E+02  0.82022665664E+02  0.00000000000E+00 0.  1.
         -1    1    6    6    0  502  0.12692010459E+02  0.13877321956E+02  0.18141614002E+02  0.26130161744E+02  0.00000000000E+00 0.  1.
<mgrwt>
<rscale>  0 0.18721193E+04</rscale>
<asrwt>0</asrwt>
<pdfrwt beam="1">  1        1 0.97558851E-01 0.18721193E+04</pdfrwt>
<pdfrwt beam="2">  1       -1 0.21257573E+00 0.18721193E+04</pdfrwt>
<totfact> 0.36578742E+00</totfact>
</mgrwt>
</event>
<event>
12    1  0.1489233E-007  0.1405290E+04  0.7818608E-02  0.8949998E-01
          2   -1    0    0  501    0  0.00000000000E+00  0.00000000000E+00  0.30709227567E+04  0.30709227567E+04  0.00000000000E+00 0. -1.
         -2   -1    0    0    0  501 -0.00000000000E+00 -0.00000000000E+00 -0.16076920748E+03  0.16076920748E+03  0.00000000000E+00 0.  1.
         23    2    1    2    0    0 -0.17456611479E+03  0.19038492225E+01  0.24611836405E+02  0.19980986341E+03  0.94028112551E+02 0.  0.
        254    2    1    2    0    0  0.17456611479E+03 -0.19038492225E+01  0.28855417128E+04  0.30318821007E+04  0.91404657622E+03 0.  0.
        -24    2    4    4    0    0 -0.23239336796E+03  0.11434074720E+03  0.22356446303E+04  0.22522979457E+04  0.87513653059E+02 0.  0.
         24    2    4    4    0    0  0.40695948275E+03 -0.11624459642E+03  0.64989708251E+03  0.77958415503E+03  0.79097472258E+02 0.  0.
         11    1    3    3    0    0 -0.12264316604E+03 -0.12098763399E+02 -0.26011127136E+02  0.12595358267E+03  0.00000000000E+00 0.  1.
        -11    1    3    3    0    0 -0.51922948745E+02  0.14002612621E+02  0.50622963541E+02  0.73856280737E+02  0.00000000000E+00 0. -1.
          2    1    6    6  502    0  0.13000411110E+03 -0.69412096166E+01  0.23889724425E+03  0.27206826828E+03  0.00000000000E+00 0. -1.
          1    1    5    5  503    0 -0.59716966210E+02  0.73303039849E+02  0.88689178651E+03  0.89191731269E+03  0.00000000000E+00 0. -1.
         -2    1    5    5    0  503 -0.17267640175E+03  0.41037707349E+02  0.13487528437E+04  0.13603806330E+04  0.00000000000E+00 0.  1.
         -1    1    6    6    0  502  0.27695537165E+03 -0.10930338680E+03  0.41099983826E+03  0.50751588675E+03  0.00000000000E+00 0.  1.
<mgrwt>
<rscale>  0 0.14052897E+04</rscale>
<asrwt>0</asrwt>
<pdfrwt beam="1">  1        2 0.47244961E+00 0.14052897E+04</pdfrwt>
<pdfrwt beam="2">  1       -2 0.24733726E-01 0.14052897E+04</pdfrwt>
<totfact> 0.22576134E+01</totfact>
</mgrwt>
</event>
<event>
12    1  0.1489233E-007  0.1131711E+04  0.7818608E-02  0.9174824E-01
         -2   -1    0    0    0  501 -0.00000000000E+00  0.00000000000E+00  0.80060613499E+02  0.80060613499E+02  0.00000000000E+00 0.  1.
          2   -1    0    0  501    0  0.00000000000E+00 -0.00000000000E+00 -0.39993747207E+04  0.39993747207E+04  0.00000000000E+00 0. -1.
         23    2    1    2    0    0  0.81235614444E+02  0.15499021501E+03 -0.45733264708E+03  0.49813254826E+03  0.91442297394E+02 0.  0.
        254    2    1    2    0    0 -0.81235614444E+02 -0.15499021501E+03 -0.34619814601E+04  0.35813027860E+04  0.89988489405E+03 0.  0.
        -24    2    4    4    0    0  0.26380893102E+03 -0.38721018843E+03 -0.14725376797E+04  0.15472582395E+04  0.78191810331E+02 0.  0.
         24    2    4    4    0    0 -0.34504454546E+03  0.23221997343E+03 -0.19894437804E+04  0.20340445465E+04  0.80428896234E+02 0.  0.
         13    1    3    3    0    0  0.80491261335E+02  0.79738812648E+02 -0.19825687252E+03  0.22834821851E+03  0.00000000000E+00 0.  1.
        -13    1    3    3    0    0  0.74435310812E+00  0.75251402358E+02 -0.25907577456E+03  0.26978432975E+03  0.00000000000E+00 0. -1.
          4    1    6    6  502    0 -0.26886168875E+03  0.21127939703E+03 -0.16975407767E+04  0.17316380338E+04  0.00000000000E+00 0. -1.
          3    1    5    5  503    0  0.13179474317E+03 -0.25496031562E+03 -0.83867007685E+03  0.88642095794E+03  0.00000000000E+00 0. -1.
         -4    1    5    5    0  503  0.13201418785E+03 -0.13224987282E+03 -0.63386760290E+03  0.66083728153E+03  0.00000000000E+00 0.  1.
         -3    1    6    6    0  502 -0.76182856713E+02  0.20940576393E+02 -0.29190300366E+03  0.30240651273E+03  0.00000000000E+00 0.  1.
<mgrwt>
<rscale>  0 0.11317109E+04</rscale>
<asrwt>0</asrwt>
<pdfrwt beam="1">  1        2 0.61528853E+00 0.11317109E+04</pdfrwt>
<pdfrwt beam="2">  1       -2 0.12317015E-01 0.11317109E+04</pdfrwt>
<totfact> 0.17355832E+01</totfact>
</mgrwt>
</event>
<event>
12    1  0.1489233E-007  0.1350317E+04  0.7818608E-02  0.8990588E-01
         -1   -1    0    0    0  501 -0.00000000000E+00  0.00000000000E+00  0.42744944349E+03  0.42744944349E+03  0.00000000000E+00 0.  1.
          1   -1    0    0  501    0  0.00000000000E+00 -0.00000000000E+00 -0.10664168172E+04  0.10664168172E+04  0.00000000000E+00 0. -1.
         23    2    1    2    0    0 -0.30981634220E+03 -0.52374894487E+02  0.31230338884E+02  0.32801776527E+03  0.88831440378E+02 0.  0.
        254    2    1    2    0    0  0.30981634220E+03  0.52374894487E+02 -0.67019771260E+03  0.11658484954E+04  0.90072662048E+03 0.  0.
        -24    2    4    4    0    0 -0.20409395709E+03 -0.26103178242E+03 -0.18043553187E+03  0.38571482637E+03  0.80168643309E+02 0.  0.
         24    2    4    4    0    0  0.51391029929E+03  0.31340667691E+03 -0.48976218074E+03  0.78013366905E+03  0.80087496305E+02 0.  0.
         13    1    3    3    0    0 -0.17807735365E+03  0.71441419604E+00  0.49457441833E+02  0.18481908133E+03  0.00000000000E+00 0. -1.
        -13    1    3    3    0    0 -0.13173898855E+03 -0.53089308683E+02 -0.18227102950E+02  0.14319868394E+03  0.00000000000E+00 0.  1.
          4    1    6    6  502    0  0.46416363415E+01  0.73445200263E+01  0.19386552038E+01  0.89019742946E+01  0.00000000000E+00 0. -1.
          3    1    5    5  503    0 -0.41216558550E+02 -0.10147552023E+03 -0.33790034916E+02  0.11462047096E+03  0.00000000000E+00 0. -1.
         -4    1    5    5    0  503 -0.16287739854E+03 -0.15955626220E+03 -0.14664549695E+03  0.27109435541E+03  0.00000000000E+00 0.  1.
         -3    1    6    6    0  502  0.50926866295E+03  0.30606215689E+03 -0.49170083594E+03  0.77123169476E+03  0.00000000000E+00 0.  1.
<mgrwt>
<rscale>  0 0.13503174E+04</rscale>
<asrwt>0</asrwt>
<pdfrwt beam="1">  1        1 0.16406412E+00 0.13503174E+04</pdfrwt>
<pdfrwt beam="2">  1       -1 0.65761454E-01 0.13503174E+04</pdfrwt>
<totfact> 0.30846238E+01</totfact>
</mgrwt>
</event>
<event>
12    1  0.1489233E-007  0.1611662E+04  0.7818608E-02  0.8813415E-01
          2   -1    0    0  501    0  0.00000000000E+00  0.00000000000E+00  0.16004187057E+04  0.16004187057E+04  0.00000000000E+00 0. -1.
         -2   -1    0    0    0  501 -0.00000000000E+00 -0.00000000000E+00 -0.40574615325E+03  0.40574615325E+03  0.00000000000E+00 0.  1.
         23    2    1    2    0    0 -0.70024256591E+02 -0.49827986618E+03  0.12717252152E+03  0.52658763404E+03  0.89081224377E+02 0.  0.
        254    2    1    2    0    0  0.70024256591E+02  0.49827986618E+03  0.10675000309E+04  0.14795772249E+04  0.89241594947E+03 0.  0.
        -24    2    4    4    0    0 -0.52943051422E+02 -0.15963757921E+03  0.67334222638E+03  0.69867859382E+03  0.80466764852E+02 0.  0.
         24    2    4    4    0    0  0.12296730801E+03  0.65791744539E+03  0.39415780454E+03  0.78089863108E+03  0.80411276220E+02 0.  0.
         13    1    3    3    0    0 -0.24619943922E+02 -0.12421151639E+03  0.72256438059E+02  0.14579312496E+03  0.00000000000E+00 0. -1.
        -13    1    3    3    0    0 -0.45404312669E+02 -0.37406834979E+03  0.54916083459E+02  0.38079450908E+03  0.00000000000E+00 0.  1.
          4    1    6    6  502    0  0.95088714390E+02  0.31999963557E+03  0.21911356890E+03  0.39931489635E+03  0.00000000000E+00 0. -1.
          3    1    5    5  503    0  0.93473000737E+01 -0.50318400550E+02  0.10811462006E+03  0.11961640575E+03  0.00000000000E+00 0. -1.
         -4    1    5    5    0  503 -0.62290351496E+02 -0.10931917866E+03  0.56522760631E+03  0.57906218807E+03  0.00000000000E+00 0.  1.
         -3    1    6    6    0  502  0.27878593622E+02  0.33791780982E+03  0.17504423564E+03  0.38158373473E+03  0.00000000000E+00 0.  1.
<mgrwt>
<rscale>  0 0.16116622E+04</rscale>
<asrwt>0</asrwt>
<pdfrwt beam="1">  1        2 0.24621826E+00 0.16116622E+04</pdfrwt>
<pdfrwt beam="2">  1       -2 0.62422486E-01 0.16116622E+04</pdfrwt>
<totfact> 0.25422071E+01</totfact>
</mgrwt>
</event>
<event>
12    1  0.1489233E-007  0.1101149E+04  0.7818608E-02  0.9204073E-01
          1   -1    0    0  501    0  0.00000000000E+00  0.00000000000E+00  0.84893386289E+03  0.84893386289E+03  0.00000000000E+00 0. -1.
         -1   -1    0    0    0  501 -0.00000000000E+00 -0.00000000000E+00 -0.35707381135E+03  0.35707381135E+03  0.00000000000E+00 0.  1.
         23    2    1    2    0    0 -0.12168622858E+03  0.10229795392E+03  0.69063282516E+02  0.19512547881E+03  0.89620343027E+02 0.  0.
        254    2    1    2    0    0  0.12168622858E+03 -0.10229795392E+03  0.42279676902E+03  0.10108821954E+04  0.90435241777E+03 0.  0.
        -24    2    4    4    0    0 -0.25341508204E+03  0.21088460939E+03  0.38585311319E+03  0.51418154705E+03  0.82513732704E+02 0.  0.
         24    2    4    4    0    0  0.37510131062E+03 -0.31318256331E+03  0.36943655832E+02  0.49670064838E+03  0.81008574869E+02 0.  0.
         13    1    3    3    0    0 -0.20359377663E+01  0.52974995601E+02  0.22400003420E+02  0.57552196785E+02  0.00000000000E+00 0.  1.
        -13    1    3    3    0    0 -0.11965029082E+03  0.49322958318E+02  0.46663279096E+02  0.13757328202E+03  0.00000000000E+00 0. -1.
          4    1    6    6  502    0  0.31755174171E+03 -0.22954213720E+03  0.11322395147E+02  0.39199094128E+03  0.00000000000E+00 0. -1.
          3    1    5    5  503    0 -0.24523186034E+03  0.21545796476E+03  0.35654139226E+03  0.48340724477E+03  0.00000000000E+00 0. -1.
         -4    1    5    5    0  503 -0.81832217012E+01 -0.45733553689E+01  0.29311720934E+02  0.30774302281E+02  0.00000000000E+00 0.  1.
         -3    1    6    6    0  502  0.57549568912E+02 -0.83640426109E+02  0.25621260685E+02  0.10470970710E+03  0.00000000000E+00 0.  1.
<mgrwt>
<rscale>  0 0.11011486E+04</rscale>
<asrwt>0</asrwt>
<pdfrwt beam="1">  1        1 0.13060521E+00 0.11011486E+04</pdfrwt>
<pdfrwt beam="2">  1       -1 0.54934433E-01 0.11011486E+04</pdfrwt>
<totfact> 0.66959635E+01</totfact>
</mgrwt>
</event>
<event>
12    1  0.1489233E-007  0.2612570E+04  0.7818608E-02  0.8363944E-01
         -2   -1    0    0    0  501 -0.00000000000E+00  0.00000000000E+00  0.49319278707E+03  0.49319278707E+03  0.00000000000E+00 0. -1.
          2   -1    0    0  501    0  0.00000000000E+00 -0.00000000000E+00 -0.34598662543E+04  0.34598662543E+04  0.00000000000E+00 0.  1.
         23    2    1    2    0    0  0.51902905971E+03 -0.74043348248E+03 -0.23781028239E+04  0.25459227248E+04  0.93362585982E+02 0.  0.
        254    2    1    2    0    0 -0.51902905971E+03  0.74043348248E+03 -0.58857064330E+03  0.14071363166E+04  0.90331849564E+03 0.  0.
        -24    2    4    4    0    0  0.18678985225E+03  0.22535738002E+03 -0.41240112270E+03  0.51221197023E+03  0.81302022197E+02 0.  0.
         24    2    4    4    0    0 -0.70581891196E+03  0.51507610246E+03 -0.17616952060E+03  0.89492434637E+03  0.79813269144E+02 0.  0.
         13    1    3    3    0    0  0.51051414294E+03 -0.70991266382E+03 -0.22494734653E+04  0.24134480628E+04  0.00000000000E+00 0.  1.
        -13    1    3    3    0    0  0.85149167763E+01 -0.30520818654E+02 -0.12862935861E+03  0.13247466201E+03  0.00000000000E+00 0. -1.
          4    1    6    6  502    0 -0.13616916168E+03  0.13141967694E+03 -0.17622056695E+02  0.19006238177E+03  0.00000000000E+00 0. -1.
          1    1    5    5  503    0  0.75739719394E+02  0.39107013803E+02 -0.14177782276E+03  0.16542918318E+03  0.00000000000E+00 0. -1.
         -2    1    5    5    0  503  0.11105013286E+03  0.18625036622E+03 -0.27062329994E+03  0.34678278705E+03  0.00000000000E+00 0.  1.
         -3    1    6    6    0  502 -0.56964975028E+03  0.38365642551E+03 -0.15854746391E+03  0.70486196460E+03  0.00000000000E+00 0.  1.
<mgrwt>
<rscale>  0 0.26125704E+04</rscale>
<asrwt>0</asrwt>
<pdfrwt beam="1">  1        2 0.53228712E+00 0.26125704E+04</pdfrwt>
<pdfrwt beam="2">  1       -2 0.75875814E-01 0.26125704E+04</pdfrwt>
<totfact> 0.11929521E+00</totfact>
</mgrwt>
</event>
<event>
12    1  0.1489233E-007  0.1961207E+04  0.7818608E-02  0.8624976E-01
         -1   -1    0    0    0  501 -0.00000000000E+00  0.00000000000E+00  0.70215074249E+03  0.70215074249E+03  0.00000000000E+00 0.  1.
          1   -1    0    0  501    0  0.00000000000E+00 -0.00000000000E+00 -0.13694819359E+04  0.13694819359E+04  0.00000000000E+00 0. -1.
         23    2    1    2    0    0 -0.22104050580E+03 -0.45620736155E+03 -0.89103177009E+03  0.10283374137E+04  0.80970113036E+02 0.  0.
        254    2    1    2    0    0  0.22104050580E+03  0.45620736155E+03  0.22370057672E+03  0.10432952646E+04  0.88399038414E+03 0.  0.
        -24    2    4    4    0    0  0.81085928210E+02  0.61646303339E+03 -0.11213130828E+03  0.63774601072E+03  0.86861640544E+02 0.  0.
         24    2    4    4    0    0  0.13995457759E+03 -0.16025567184E+03  0.33583188500E+03  0.40554925391E+03  0.80112285096E+02 0.  0.
         13    1    3    3    0    0 -0.19289491900E+03 -0.31562071184E+03 -0.65055463925E+03  0.74836236020E+03  0.00000000000E+00 0. -1.
        -13    1    3    3    0    0 -0.28145586792E+02 -0.14058664972E+03 -0.24047713085E+03  0.27997505352E+03  0.00000000000E+00 0.  1.
          4    1    6    6  502    0  0.13046333604E+03 -0.15650440548E+03  0.26647146823E+03  0.33544202832E+03  0.00000000000E+00 0. -1.
          3    1    5    5  503    0  0.61339621008E+02  0.51273114696E+03 -0.12519345524E+03  0.53134657183E+03  0.00000000000E+00 0. -1.
         -4    1    5    5    0  503  0.19746307202E+02  0.10373188644E+03  0.13062146962E+02  0.10639943889E+03  0.00000000000E+00 0.  1.
         -3    1    6    6    0  502  0.94912415464E+01 -0.37512663603E+01  0.69360416773E+02  0.70107225593E+02  0.00000000000E+00 0.  1.
<mgrwt>
<rscale>  0 0.19612065E+04</rscale>
<asrwt>0</asrwt>
<pdfrwt beam="1">  1        1 0.21068953E+00 0.19612065E+04</pdfrwt>
<pdfrwt beam="2">  1       -1 0.10802319E+00 0.19612065E+04</pdfrwt>
<totfact> 0.59854574E+00</totfact>
</mgrwt>
</event>
<event>
12    1  0.1489233E-007  0.1472703E+04  0.7818608E-02  0.8902811E-01
         -1   -1    0    0    0  501 -0.00000000000E+00  0.00000000000E+00  0.11684028638E+04  0.11684028638E+04  0.00000000000E+00 0.  1.
          1   -1    0    0  501    0  0.00000000000E+00 -0.00000000000E+00 -0.46406390602E+03  0.46406390602E+03  0.00000000000E+00 0. -1.
         23    2    1    2    0    0  0.27850471552E+03  0.22916125158E+03 -0.94038366107E+02  0.38359606866E+03  0.90680614211E+02 0.  0.
        254    2    1    2    0    0 -0.27850471552E+03 -0.22916125158E+03  0.79837732387E+03  0.12488707012E+04  0.89005163958E+03 0.  0.
        -24    2    4    4    0    0 -0.56281088087E+03 -0.64723661971E+00  0.35917246771E+03  0.67239658366E+03  0.79723256412E+02 0.  0.
         24    2    4    4    0    0  0.28430616535E+03 -0.22851401496E+03  0.43920485616E+03  0.57647411749E+03  0.79830143238E+02 0.  0.
         13    1    3    3    0    0  0.27895946610E+03  0.23480504732E+03 -0.87558666137E+02  0.37499108521E+03  0.00000000000E+00 0. -1.
        -13    1    3    3    0    0 -0.45475057538E+00 -0.56437957363E+01 -0.64796999699E+01  0.86049834456E+01  0.00000000000E+00 0.  1.
          2    1    6    6  502    0  0.61344859932E+02 -0.91492988603E+02  0.10696095182E+03  0.15354088712E+03  0.00000000000E+00 0. -1.
          3    1    5    5  503    0 -0.89247544151E+02  0.29080521096E+02  0.63218193256E+02  0.11316952241E+03  0.00000000000E+00 0. -1.
         -4    1    5    5    0  503 -0.47356333672E+03 -0.29727757715E+02  0.29595427446E+03  0.55922706125E+03  0.00000000000E+00 0.  1.
         -3    1    6    6    0  502  0.22296130542E+03 -0.13702102636E+03  0.33224390434E+03  0.42293323037E+03  0.00000000000E+00 0.  1.
<mgrwt>
<rscale>  0 0.14727031E+04</rscale>
<asrwt>0</asrwt>
<pdfrwt beam="1">  1        1 0.71394447E-01 0.14727031E+04</pdfrwt>
<pdfrwt beam="2">  1       -1 0.17975429E+00 0.14727031E+04</pdfrwt>
<totfact> 0.99461651E+00</totfact>
</mgrwt>
</event>
<event>
12    1  0.1489233E-007  0.1674660E+04  0.7818608E-02  0.8775950E-01
          1   -1    0    0  501    0  0.00000000000E+00  0.00000000000E+00  0.19161833771E+04  0.19161833771E+04  0.00000000000E+00 0. -1.
         -1   -1    0    0    0  501 -0.00000000000E+00 -0.00000000000E+00 -0.36589498825E+03  0.36589498825E+03  0.00000000000E+00 0.  1.
         23    2    1    2    0    0 -0.21062706831E+03  0.58540656118E+02 -0.19503744114E+03  0.30822329109E+03  0.95766504586E+02 0.  0.
        254    2    1    2    0    0  0.21062706831E+03 -0.58540656118E+02  0.17453258300E+04  0.19738550742E+04  0.89562873504E+03 0.  0.
        -24    2    4    4    0    0  0.20859161654E+03 -0.34589056424E+03  0.33120152045E+03  0.52814709232E+03  0.78065094978E+02 0.  0.
         24    2    4    4    0    0  0.20354517664E+01  0.28734990812E+03  0.14141243095E+04  0.14457079819E+04  0.88033479201E+02 0.  0.
         11    1    3    3    0    0  0.34624877307E+01  0.16933188661E+02 -0.30376021282E+02  0.34948882220E+02  0.00000000000E+00 0. -1.
        -11    1    3    3    0    0 -0.21408955604E+03  0.41607467457E+02 -0.16466141985E+03  0.27327440887E+03  0.00000000000E+00 0.  1.
          4    1    6    6  502    0 -0.92531428455E+01  0.33923938905E+01  0.13671749626E+03  0.13707225384E+03  0.00000000000E+00 0. -1.
          3    1    5    5  503    0  0.14729183362E+03 -0.16917856789E+03  0.17699292221E+03  0.28573198385E+03  0.00000000000E+00 0. -1.
         -4    1    5    5    0  503  0.61299782920E+02 -0.17671199635E+03  0.15420859824E+03  0.24241510846E+03  0.00000000000E+00 0.  1.
         -3    1    6    6    0  502  0.11288594612E+02  0.28395751423E+03  0.12774068133E+04  0.13086357281E+04  0.00000000000E+00 0.  1.
<mgrwt>
<rscale>  0 0.16746604E+04</rscale>
<asrwt>0</asrwt>
<pdfrwt beam="1">  1        1 0.29479744E+00 0.16746604E+04</pdfrwt>
<pdfrwt beam="2">  1       -1 0.56291538E-01 0.16746604E+04</pdfrwt>
<totfact> 0.10346937E+01</totfact>
</mgrwt>
</event>
<event>
12    1  0.1489233E-007  0.1407621E+04  0.7818608E-02  0.8948321E-01
         -2   -1    0    0    0  501 -0.00000000000E+00  0.00000000000E+00  0.24051011764E+03  0.24051011764E+03  0.00000000000E+00 0.  1.
          2   -1    0    0  501    0  0.00000000000E+00 -0.00000000000E+00 -0.20595772929E+04  0.20595772929E+04  0.00000000000E+00 0. -1.
         23    2    1    2    0    0 -0.26683299976E+03  0.23525443990E+02 -0.81490616644E+01  0.28344469427E+03  0.92310298606E+02 0.  0.
        254    2    1    2    0    0  0.26683299976E+03 -0.23525443990E+02 -0.18109181136E+04  0.20166427163E+04  0.84597289238E+03 0.  0.
        -24    2    4    4    0    0  0.32362860541E+03 -0.36399791644E+03 -0.74592576170E+03  0.89453232967E+03  0.80949919286E+02 0.  0.
         24    2    4    4    0    0 -0.56795605651E+02  0.34047247245E+03 -0.10649923519E+04  0.11221103866E+04  0.75998452697E+02 0.  0.
         11    1    3    3    0    0 -0.19426373725E+03 -0.20943411202E+02 -0.24042491119E+02  0.19686306779E+03  0.00000000000E+00 0. -1.
        -11    1    3    3    0    0 -0.72569262517E+02  0.44468855192E+02  0.15893429454E+02  0.86581626482E+02  0.00000000000E+00 0.  1.
          2    1    6    6  502    0 -0.46467704291E+02  0.31315303083E+03 -0.88845903620E+03  0.94317735727E+03  0.00000000000E+00 0. -1.
          1    1    5    5  503    0  0.20566204551E+03 -0.28488298441E+03 -0.54604689629E+03  0.64932457578E+03  0.00000000000E+00 0. -1.
         -2    1    5    5    0  503  0.11796655990E+03 -0.79114932033E+02 -0.19987886542E+03  0.24520775389E+03  0.00000000000E+00 0.  1.
         -1    1    6    6    0  502 -0.10327901360E+02  0.27319441622E+02 -0.17653331568E+03  0.17893302932E+03  0.00000000000E+00 0.  1.
<mgrwt>
<rscale>  0 0.14076209E+04</rscale>
<asrwt>0</asrwt>
<pdfrwt beam="1">  1        2 0.31685807E+00 0.14076209E+04</pdfrwt>
<pdfrwt beam="2">  1       -2 0.37001554E-01 0.14076209E+04</pdfrwt>
<totfact> 0.41477373E+01</totfact>
</mgrwt>
</event>
<event>
12    1  0.1489233E-007  0.1556550E+04  0.7818608E-02  0.8847695E-01
          1   -1    0    0  501    0  0.00000000000E+00  0.00000000000E+00  0.89383112951E+03  0.89383112951E+03  0.00000000000E+00 0. -1.
         -1   -1    0    0    0  501 -0.00000000000E+00 -0.00000000000E+00 -0.67765856764E+03  0.67765856764E+03  0.00000000000E+00 0.  1.
         23    2    1    2    0    0 -0.49696918036E+02 -0.33683726914E+03  0.46109571155E+03  0.58059474213E+03  0.92476320408E+02 0.  0.
        254    2    1    2    0    0  0.49696918036E+02  0.33683726914E+03 -0.24492314968E+03  0.99089495502E+03  0.89775070765E+03 0.  0.
        -24    2    4    4    0    0  0.74979010652E+00 -0.17006576639E+03  0.22482640322E+03  0.29357805329E+03  0.81964838201E+02 0.  0.
         24    2    4    4    0    0  0.48947127929E+02  0.50690303553E+03 -0.46974955290E+03  0.69731690174E+03  0.78991836466E+02 0.  0.
         11    1    3    3    0    0 -0.25926953073E+02 -0.28464100477E+03  0.42712833248E+03  0.51393707873E+03  0.00000000000E+00 0. -1.
        -11    1    3    3    0    0 -0.23769964962E+02 -0.52196264370E+02  0.33967379072E+02  0.66657663397E+02  0.00000000000E+00 0.  1.
          2    1    6    6  502    0  0.31743303839E+02  0.18536680868E+03 -0.22257410683E+03  0.29138929996E+03  0.00000000000E+00 0. -1.
          1    1    5    5  503    0  0.34678424425E+02 -0.73715827575E+02  0.66509975123E+02  0.10516745289E+03  0.00000000000E+00 0. -1.
         -2    1    5    5    0  503 -0.33928634318E+02 -0.96349938816E+02  0.15831642810E+03  0.18841060040E+03  0.00000000000E+00 0.  1.
         -1    1    6    6    0  502  0.17203824090E+02  0.32153622686E+03 -0.24717544607E+03  0.40592760178E+03  0.00000000000E+00 0.  1.
<mgrwt>
<rscale>  0 0.15565504E+04</rscale>
<asrwt>0</asrwt>
<pdfrwt beam="1">  1        1 0.13751248E+00 0.15565504E+04</pdfrwt>
<pdfrwt beam="2">  1       -1 0.10425516E+00 0.15565504E+04</pdfrwt>
<totfact> 0.15350139E+01</totfact>
</mgrwt>
</event>
<event>
12    1  0.1489233E-007  0.1596615E+04  0.7818608E-02  0.8822630E-01
         -2   -1    0    0    0  501 -0.00000000000E+00  0.00000000000E+00  0.47023976221E+03  0.47023976221E+03  0.00000000000E+00 0.  1.
          2   -1    0    0  501    0  0.00000000000E+00 -0.00000000000E+00 -0.13552548575E+04  0.13552548575E+04  0.00000000000E+00 0. -1.
         23    2    1    2    0    0  0.28383288386E+03 -0.38407159119E+03 -0.61289408136E+03  0.78211518385E+03  0.89403091286E+02 0.  0.
        254    2    1    2    0    0 -0.28383288386E+03  0.38407159119E+03 -0.27212101396E+03  0.10433794359E+04  0.88685889965E+03 0.  0.
        -24    2    4    4    0    0 -0.46229026026E+03  0.55050514819E+03 -0.90376254684E+02  0.72879100147E+03  0.78741688463E+02 0.  0.
         24    2    4    4    0    0  0.17845737640E+03 -0.16643355700E+03 -0.18174475927E+03  0.31458843442E+03  0.79922221330E+02 0.  0.
         11    1    3    3    0    0  0.18741746764E+03 -0.27420656026E+03 -0.48538607345E+03  0.58814469747E+03  0.00000000000E+00 0. -1.
        -11    1    3    3    0    0  0.96415416215E+02 -0.10986503094E+03 -0.12750800791E+03  0.19397048638E+03  0.00000000000E+00 0.  1.
          4    1    6    6  502    0  0.21228339563E+02 -0.64344826535E+02 -0.64063589182E+02  0.93247212084E+02  0.00000000000E+00 0. -1.
          1    1    5    5  503    0 -0.16936965900E+03  0.26127689700E+03 -0.46155125117E+02  0.31477292429E+03  0.00000000000E+00 0. -1.
         -2    1    5    5    0  503 -0.29292060126E+03  0.28922825119E+03 -0.44221129568E+02  0.41401807718E+03  0.00000000000E+00 0.  1.
         -3    1    6    6    0  502  0.15722903684E+03 -0.10208873046E+03 -0.11768117009E+03  0.22134122234E+03  0.00000000000E+00 0.  1.
<mgrwt>
<rscale>  0 0.15966148E+04</rscale>
<asrwt>0</asrwt>
<pdfrwt beam="1">  1        2 0.20850075E+00 0.15966148E+04</pdfrwt>
<pdfrwt beam="2">  1       -2 0.72344579E-01 0.15966148E+04</pdfrwt>
<totfact> 0.25467943E+01</totfact>
</mgrwt>
</event>
<event>
12    1  0.1489233E-007  0.1836276E+04  0.7818608E-02  0.8687243E-01
          1   -1    0    0  501    0  0.00000000000E+00  0.00000000000E+00  0.27677242333E+04  0.27677242333E+04  0.00000000000E+00 0. -1.
         -1   -1    0    0    0  501 -0.00000000000E+00 -0.00000000000E+00 -0.30457425657E+03  0.30457425657E+03  0.00000000000E+00 0.  1.
         23    2    1    2    0    0 -0.10298404906E+03 -0.40757398795E+02 -0.20554141040E+03  0.25040230411E+03  0.90482940903E+02 0.  0.
        254    2    1    2    0    0  0.10298404906E+03  0.40757398795E+02  0.26686913872E+04  0.28218961858E+04  0.91044905602E+03 0.  0.
        -24    2    4    4    0    0  0.11203664535E+03  0.44679942785E+03  0.10194800354E+04  0.11215398477E+04  0.79562232236E+02 0.  0.
         24    2    4    4    0    0 -0.90525962882E+01 -0.40604202906E+03  0.16492113517E+04  0.17003563381E+04  0.79759105105E+02 0.  0.
         13    1    3    3    0    0 -0.57661079762E+01 -0.42419508201E+02 -0.87973277540E+02  0.97836395264E+02  0.00000000000E+00 0. -1.
        -13    1    3    3    0    0 -0.97217941082E+02  0.16621094059E+01 -0.11756813286E+03  0.15256590884E+03  0.00000000000E+00 0.  1.
          2    1    6    6  502    0 -0.24721613570E+02 -0.57934787430E+02  0.32614417646E+03  0.33217107281E+03  0.00000000000E+00 0. -1.
          1    1    5    5  503    0  0.37415449701E+02  0.16316406929E+03  0.28289406381E+03  0.32871185060E+03  0.00000000000E+00 0. -1.
         -2    1    5    5    0  503  0.74621195646E+02  0.28363535856E+03  0.73658597161E+03  0.79282799714E+03  0.00000000000E+00 0.  1.
         -1    1    6    6    0  502  0.15669017281E+02 -0.34810724163E+03  0.13230671753E+04  0.13681852653E+04  0.00000000000E+00 0.  1.
<mgrwt>
<rscale>  0 0.18362762E+04</rscale>
<asrwt>0</asrwt>
<pdfrwt beam="1">  1        1 0.42580371E+00 0.18362762E+04</pdfrwt>
<pdfrwt beam="2">  1       -1 0.46857580E-01 0.18362762E+04</pdfrwt>
<totfact> 0.37590319E+00</totfact>
</mgrwt>
</event>
<event>
12    1  0.1489233E-007  0.1784333E+04  0.7818608E-02  0.8714676E-01
         -2   -1    0    0    0  501 -0.00000000000E+00  0.00000000000E+00  0.48704541955E+03  0.48704541955E+03  0.00000000000E+00 0. -1.
          2   -1    0    0  501    0  0.00000000000E+00 -0.00000000000E+00 -0.16342649560E+04  0.16342649560E+04  0.00000000000E+00 0.  1.
         23    2    1    2    0    0  0.48398555328E+03  0.43052729196E+03 -0.26255895160E+03  0.70501330569E+03  0.92253960474E+02 0.  0.
        254    2    1    2    0    0 -0.48398555328E+03 -0.43052729196E+03 -0.88466058489E+03  0.14162970699E+04  0.89648049329E+03 0.  0.
        -24    2    4    4    0    0 -0.67060976912E+03 -0.19241873603E+03 -0.32185852691E+03  0.77237629669E+03  0.78929081621E+02 0.  0.
         24    2    4    4    0    0  0.18662421584E+03 -0.23810855594E+03 -0.56280205797E+03  0.64392077322E+03  0.79771695319E+02 0.  0.
         11    1    3    3    0    0  0.82618072999E+02  0.62741663790E+02 -0.79388528562E+02  0.13063231158E+03  0.00000000000E+00 0.  1.
        -11    1    3    3    0    0  0.40136748028E+03  0.36778562817E+03 -0.18317042303E+03  0.57438099411E+03  0.00000000000E+00 0. -1.
          4    1    6    6  502    0  0.19437291395E+03 -0.22351301795E+03 -0.53712499725E+03  0.61338581785E+03  0.00000000000E+00 0. -1.
          3    1    5    5  503    0 -0.28158432855E+03 -0.58495375702E+02 -0.16830559793E+03  0.33322397476E+03  0.00000000000E+00 0. -1.
         -4    1    5    5    0  503 -0.38902544057E+03 -0.13392336032E+03 -0.15355292898E+03  0.43915232192E+03  0.00000000000E+00 0.  1.
         -3    1    6    6    0  502 -0.77486981179E+01 -0.14595537991E+02 -0.25677060720E+02  0.30534955363E+02  0.00000000000E+00 0.  1.
<mgrwt>
<rscale>  0 0.17843332E+04</rscale>
<asrwt>0</asrwt>
<pdfrwt beam="1">  1        2 0.25142538E+00 0.17843332E+04</pdfrwt>
<pdfrwt beam="2">  1       -2 0.74930064E-01 0.17843332E+04</pdfrwt>
<totfact> 0.16137970E+01</totfact>
</mgrwt>
</event>
<event>
12    1  0.1489233E-007  0.3671455E+04  0.7818608E-02  0.8074317E-01
          2   -1    0    0  501    0  0.00000000000E+00  0.00000000000E+00  0.27839898582E+04  0.27839898582E+04  0.00000000000E+00 0. -1.
         -2   -1    0    0    0  501 -0.00000000000E+00 -0.00000000000E+00 -0.12104555501E+04  0.12104555501E+04  0.00000000000E+00 0.  1.
         23    2    1    2    0    0  0.74422949520E+02  0.28687972632E+02 -0.11468027413E+04  0.11532080978E+04  0.91491060839E+02 0.  0.
        254    2    1    2    0    0 -0.74422949520E+02 -0.28687972632E+02  0.27203370494E+04  0.28412373105E+04  0.81610907179E+03 0.  0.
        -24    2    4    4    0    0 -0.38711012143E+03  0.12759610104E+03  0.19203902431E+04  0.19648844151E+04  0.82079643298E+02 0.  0.
         24    2    4    4    0    0  0.31268717191E+03 -0.15628407367E+03  0.79994680627E+03  0.87635289535E+03  0.76691102385E+02 0.  0.
         13    1    3    3    0    0  0.36233590032E+02  0.39278467683E+02 -0.99114574180E+03  0.99258528730E+03  0.00000000000E+00 0. -1.
        -13    1    3    3    0    0  0.38189359488E+02 -0.10590495050E+02 -0.15565699945E+03  0.16062281047E+03  0.00000000000E+00 0.  1.
          4    1    6    6  502    0  0.29573445312E+03 -0.13808727701E+03  0.77592546800E+03  0.84177627356E+03  0.00000000000E+00 0. -1.
          1    1    5    5  503    0 -0.29688848250E+03  0.11508367067E+03  0.13348187649E+04  0.13722711676E+04  0.00000000000E+00 0. -1.
         -2    1    5    5    0  503 -0.90221638927E+02  0.12512430369E+02  0.58557147828E+03  0.59261324759E+03  0.00000000000E+00 0.  1.
         -3    1    6    6    0  502  0.16952718783E+02 -0.18196796660E+02  0.24021338270E+02  0.34576621800E+02  0.00000000000E+00 0.  1.
<mgrwt>
<rscale>  0 0.36714553E+04</rscale>
<asrwt>0</asrwt>
<pdfrwt beam="1">  1        2 0.42830613E+00 0.36714553E+04</pdfrwt>
<pdfrwt beam="2">  1       -2 0.18622393E+00 0.36714553E+04</pdfrwt>
<totfact> 0.31482014E-01</totfact>
</mgrwt>
</event>
<event>
12    1  0.1489233E-007  0.2098274E+04  0.7818608E-02  0.8562004E-01
          1   -1    0    0  501    0  0.00000000000E+00  0.00000000000E+00  0.25428290658E+04  0.25428290658E+04  0.00000000000E+00 0. -1.
         -1   -1    0    0    0  501 -0.00000000000E+00 -0.00000000000E+00 -0.43285997654E+03  0.43285997654E+03  0.00000000000E+00 0.  1.
         23    2    1    2    0    0  0.49477523416E+03  0.53253844087E+03  0.15065203457E+04  0.16737725587E+04  0.59256247429E+02 0.  0.
        254    2    1    2    0    0 -0.49477523416E+03 -0.53253844087E+03  0.60344874355E+03  0.13019164836E+04  0.89578815628E+03 0.  0.
        -24    2    4    4    0    0 -0.43424904397E+03 -0.60948367366E+03  0.78044028479E+03  0.10841764654E+04  0.79429146460E+02 0.  0.
         24    2    4    4    0    0 -0.60526190192E+02  0.76945232782E+02 -0.17699154124E+03  0.21774001827E+03  0.80627050914E+02 0.  0.
         11    1    3    3    0    0  0.37013446007E+03  0.38650726940E+03  0.11636773614E+04  0.12808326937E+04  0.00000000000E+00 0. -1.
        -11    1    3    3    0    0  0.12464077409E+03  0.14603117147E+03  0.34284298430E+03  0.39293986498E+03  0.00000000000E+00 0.  1.
          2    1    6    6  502    0  0.13442961009E+01  0.63292104214E+02 -0.93927959043E+02  0.11327029212E+03  0.00000000000E+00 0. -1.
          3    1    5    5  503    0 -0.37082872076E+03 -0.55847604147E+03  0.67978848652E+03  0.95473651624E+03  0.00000000000E+00 0. -1.
         -4    1    5    5    0  503 -0.63420323213E+02 -0.51007632190E+02  0.10065179827E+03  0.12943994914E+03  0.00000000000E+00 0.  1.
         -1    1    6    6    0  502 -0.61870486293E+02  0.13653128568E+02 -0.83063582194E+02  0.10446972614E+03  0.00000000000E+00 0.  1.
<mgrwt>
<rscale>  0 0.20982745E+04</rscale>
<asrwt>0</asrwt>
<pdfrwt beam="1">  1        1 0.39120446E+00 0.20982745E+04</pdfrwt>
<pdfrwt beam="2">  1       -1 0.66593844E-01 0.20982745E+04</pdfrwt>
<totfact> 0.26591692E+00</totfact>
</mgrwt>
</event>
<event>
12    1  0.1489233E-007  0.2215870E+04  0.7818608E-02  0.8511851E-01
          2   -1    0    0  501    0  0.00000000000E+00  0.00000000000E+00  0.23335958921E+04  0.23335958921E+04  0.00000000000E+00 0.  1.
         -2   -1    0    0    0  501 -0.00000000000E+00 -0.00000000000E+00 -0.52602098095E+03  0.52602098095E+03  0.00000000000E+00 0. -1.
         23    2    1    2    0    0  0.31934116073E+03 -0.46832791957E+03  0.16959585013E+04  0.17905250241E+04  0.91623178413E+02 0.  0.
        254    2    1    2    0    0 -0.31934116073E+03  0.46832791957E+03  0.11161640988E+03  0.10690918489E+04  0.89954952131E+03 0.  0.
        -24    2    4    4    0    0  0.10162005584E+02  0.56298409389E+03 -0.19582713320E+03  0.60149803489E+03  0.79982895359E+02 0.  0.
         24    2    4    4    0    0 -0.32950316632E+03 -0.94656174315E+02  0.30744354308E+03  0.46759381404E+03  0.81180753855E+02 0.  0.
         13    1    3    3    0    0  0.21171329873E+03 -0.31138933109E+03  0.98438319007E+03  0.10539431205E+04  0.00000000000E+00 0. -1.
        -13    1    3    3    0    0  0.10762786200E+03 -0.15693858848E+03  0.71157531121E+03  0.73658190363E+03  0.00000000000E+00 0.  1.
          2    1    6    6  502    0 -0.20430837155E+03 -0.29685845551E+02  0.21969107807E+03  0.30147525586E+03  0.00000000000E+00 0. -1.
          1    1    5    5  503    0  0.72555991518E+01  0.47634983607E+03 -0.13357275500E+03  0.49477620286E+03  0.00000000000E+00 0. -1.
         -2    1    5    5    0  503  0.29064064325E+01  0.86634257817E+02 -0.62254378193E+02  0.10672183202E+03  0.00000000000E+00 0.  1.
         -1    1    6    6    0  502 -0.12519479477E+03 -0.64970328763E+02  0.87752465010E+02  0.16611855818E+03  0.00000000000E+00 0.  1.
<mgrwt>
<rscale>  0 0.22158704E+04</rscale>
<asrwt>0</asrwt>
<pdfrwt beam="1">  1        2 0.35901475E+00 0.22158704E+04</pdfrwt>
<pdfrwt beam="2">  1       -2 0.80926306E-01 0.22158704E+04</pdfrwt>
<totfact> 0.53338185E+00</totfact>
</mgrwt>
</event>
<event>
12    1  0.1489233E-007  0.1154709E+04  0.7818608E-02  0.9153450E-01
          2   -1    0    0  501    0  0.00000000000E+00  0.00000000000E+00  0.10343329486E+04  0.10343329486E+04  0.00000000000E+00 0. -1.
         -2   -1    0    0    0  501 -0.00000000000E+00 -0.00000000000E+00 -0.32227380534E+03  0.32227380534E+03  0.00000000000E+00 0.  1.
         23    2    1    2    0    0  0.17889327417E+03 -0.61051797526E+02  0.24484819899E+03  0.32210194980E+03  0.89827055998E+02 0.  0.
        254    2    1    2    0    0 -0.17889327417E+03  0.61051797526E+02  0.46721094423E+03  0.10345048041E+04  0.90342902199E+03 0.  0.
        -24    2    4    4    0    0 -0.26882558289E+03 -0.28762101073E+03  0.52355212077E+03  0.65978533276E+03  0.78846828278E+02 0.  0.
         24    2    4    4    0    0  0.89932308718E+02  0.34867280826E+03 -0.56341176543E+02  0.37471947134E+03  0.87062085098E+02 0.  0.
         13    1    3    3    0    0  0.16081197959E+03 -0.42071344383E+02  0.24478347299E+03  0.29588754527E+03  0.00000000000E+00 0. -1.
        -13    1    3    3    0    0  0.18081294582E+02 -0.18980453143E+02  0.64726002674E-01  0.26214404527E+02  0.00000000000E+00 0.  1.
          2    1    6    6  502    0  0.21173540414E+02  0.12853890704E+03 -0.61457613550E+02  0.14404029887E+03  0.00000000000E+00 0. -1.
          3    1    5    5  503    0 -0.13621134454E+03 -0.14444535958E+03  0.32870384189E+03  0.38401068730E+03  0.00000000000E+00 0. -1.
         -4    1    5    5    0  503 -0.13261423835E+03 -0.14317565115E+03  0.19484827888E+03  0.27577464546E+03  0.00000000000E+00 0.  1.
         -1    1    6    6    0  502  0.68758768305E+02  0.22013390122E+03  0.51164370070E+01  0.23067917247E+03  0.00000000000E+00 0.  1.
<mgrwt>
<rscale>  0 0.11547093E+04</rscale>
<asrwt>0</asrwt>
<pdfrwt beam="1">  1        2 0.15912814E+00 0.11547093E+04</pdfrwt>
<pdfrwt beam="2">  1       -2 0.49580586E-01 0.11547093E+04</pdfrwt>
<totfact> 0.91216110E+01</totfact>
</mgrwt>
</event>
<event>
12    1  0.1489233E-007  0.1437265E+04  0.7818608E-02  0.8927278E-01
          1   -1    0    0  501    0  0.00000000000E+00  0.00000000000E+00  0.17675080307E+04  0.17675080307E+04  0.00000000000E+00 0. -1.
         -1   -1    0    0    0  501 -0.00000000000E+00 -0.00000000000E+00 -0.29218106896E+03  0.29218106896E+03  0.00000000000E+00 0.  1.
         23    2    1    2    0    0 -0.19385050677E+03 -0.96837722111E+02 -0.73762819760E+02  0.24589974990E+03  0.89834125038E+02 0.  0.
        254    2    1    2    0    0  0.19385050677E+03  0.96837722111E+02  0.15490897815E+04  0.18137893497E+04  0.91825763854E+03 0.  0.
        -24    2    4    4    0    0  0.23909898805E+03  0.20549466350E+03  0.16217681620E+04  0.16538430452E+04  0.75289202696E+02 0.  0.
         24    2    4    4    0    0 -0.45248481274E+02 -0.10865694139E+03 -0.72678380548E+02  0.15994630452E+03  0.80292698051E+02 0.  0.
         11    1    3    3    0    0 -0.55211276050E+02  0.22339132440E+01  0.97916595077E+01  0.56117305418E+02  0.00000000000E+00 0. -1.
        -11    1    3    3    0    0 -0.13863923072E+03 -0.99071635355E+02 -0.83554479268E+02  0.18978244448E+03  0.00000000000E+00 0.  1.
          4    1    6    6  502    0  0.44471913504E+01 -0.59440241373E+02 -0.73925107045E+00  0.59610957865E+02  0.00000000000E+00 0. -1.
          3    1    5    5  503    0  0.13200377795E+03  0.16092028553E+03  0.10398671404E+04  0.10604923411E+04  0.00000000000E+00 0. -1.
         -4    1    5    5    0  503  0.10709521009E+03  0.44574377964E+02  0.58190102159E+03  0.59335070415E+03  0.00000000000E+00 0.  1.
         -3    1    6    6    0  502 -0.49695672625E+02 -0.49216700014E+02 -0.71939129477E+02  0.10033534665E+03  0.00000000000E+00 0.  1.
<mgrwt>
<rscale>  0 0.14372646E+04</rscale>
<asrwt>0</asrwt>
<pdfrwt beam="1">  1        1 0.27192431E+00 0.14372646E+04</pdfrwt>
<pdfrwt beam="2">  1       -1 0.44950935E-01 0.14372646E+04</pdfrwt>
<totfact> 0.20457064E+01</totfact>
</mgrwt>
</event>
<event>
12    1  0.1489233E-007  0.3059282E+04  0.7818608E-02  0.8227002E-01
         -1   -1    0    0    0  501 -0.00000000000E+00  0.00000000000E+00  0.25464770196E+04  0.25464770196E+04  0.00000000000E+00 0.  1.
          1   -1    0    0  501    0  0.00000000000E+00 -0.00000000000E+00 -0.91883885114E+03  0.91883885114E+03  0.00000000000E+00 0. -1.
         23    2    1    2    0    0 -0.13644867471E+04 -0.27715418892E+03  0.84728536462E+03  0.16323979961E+04  0.90510778962E+02 0.  0.
        254    2    1    2    0    0  0.13644867471E+04  0.27715418892E+03  0.78035280384E+03  0.18329178746E+04  0.90110982083E+03 0.  0.
        -24    2    4    4    0    0 -0.15044718229E+02 -0.13345951796E+03  0.25362975218E+03  0.29811347953E+03  0.80658595373E+02 0.  0.
         24    2    4    4    0    0  0.13795314653E+04  0.41061370689E+03  0.52672305166E+03  0.15348043951E+04  0.80477809995E+02 0.  0.
         13    1    3    3    0    0 -0.96982079811E+03 -0.17378406000E+03  0.55847899427E+03  0.11325423025E+04  0.00000000000E+00 0. -1.
        -13    1    3    3    0    0 -0.39466594900E+03 -0.10337012893E+03  0.28880637034E+03  0.49985569359E+03  0.00000000000E+00 0.  1.
          2    1    6    6  502    0  0.83415903054E+03  0.28182240968E+03  0.29786341890E+03  0.92949866872E+03  0.00000000000E+00 0. -1.
          3    1    5    5  503    0  0.27741584513E+02 -0.17924951001E+02  0.44972399443E+02  0.55797993614E+02  0.00000000000E+00 0. -1.
         -4    1    5    5    0  503 -0.42786302742E+02 -0.11553456696E+03  0.20865735273E+03  0.24231548592E+03  0.00000000000E+00 0.  1.
         -1    1    6    6    0  502  0.54537243481E+03  0.12879129721E+03  0.22885963276E+03  0.60530572638E+03  0.00000000000E+00 0.  1.
<mgrwt>
<rscale>  0 0.30592823E+04</rscale>
<asrwt>0</asrwt>
<pdfrwt beam="1">  1        1 0.14135982E+00 0.30592823E+04</pdfrwt>
<pdfrwt beam="2">  1       -1 0.39176569E+00 0.30592823E+04</pdfrwt>
<totfact> 0.12099916E-01</totfact>
</mgrwt>
</event>
<event>
12    1  0.1489233E-007  0.1857960E+04  0.7818608E-02  0.8676070E-01
          1   -1    0    0  501    0  0.00000000000E+00  0.00000000000E+00  0.13306823574E+04  0.13306823574E+04  0.00000000000E+00 0. -1.
         -1   -1    0    0    0  501 -0.00000000000E+00 -0.00000000000E+00 -0.64854248222E+03  0.64854248222E+03  0.00000000000E+00 0.  1.
         23    2    1    2    0    0 -0.60051529162E+03  0.43722475374E+02 -0.15600711860E+03  0.62839081382E+03  0.89479179241E+02 0.  0.
        254    2    1    2    0    0  0.60051529162E+03 -0.43722475374E+02  0.83814699376E+03  0.13508340258E+04  0.87162601600E+03 0.  0.
        -24    2    4    4    0    0  0.35270712223E+03 -0.44468843165E+03  0.53935040961E+03  0.78698428786E+03  0.79342861489E+02 0.  0.
         24    2    4    4    0    0  0.24780816938E+03  0.40096595628E+03  0.29879658415E+03  0.56384973793E+03  0.80402371603E+02 0.  0.
         11    1    3    3    0    0 -0.28183659119E+03  0.19341722999E+02 -0.27216015438E+02  0.28380746622E+03  0.00000000000E+00 0. -1.
        -11    1    3    3    0    0 -0.31867870042E+03  0.24380752376E+02 -0.12879110316E+03  0.34458334760E+03  0.00000000000E+00 0.  1.
          4    1    6    6  502    0  0.66153199454E+01  0.59869370632E+02  0.42871780733E+02  0.73933034437E+02  0.00000000000E+00 0. -1.
          1    1    5    5  503    0  0.18318705206E+02 -0.16955842325E+02  0.55006095707E+01  0.25560364924E+02  0.00000000000E+00 0. -1.
         -2    1    5    5    0  503  0.33438841703E+03 -0.42773258933E+03  0.53384980004E+03  0.76142392294E+03  0.00000000000E+00 0.  1.
         -3    1    6    6    0  502  0.24119284944E+03  0.34109658565E+03  0.25592480341E+03  0.48991670349E+03  0.00000000000E+00 0.  1.
<mgrwt>
<rscale>  0 0.18579602E+04</rscale>
<asrwt>0</asrwt>
<pdfrwt beam="1">  1        1 0.20472036E+00 0.18579602E+04</pdfrwt>
<pdfrwt beam="2">  1       -1 0.99775766E-01 0.18579602E+04</pdfrwt>
<totfact> 0.77373352E+00</totfact>
</mgrwt>
</event>
<event>
12    1  0.1489233E-007  0.1987137E+04  0.7818608E-02  0.8612658E-01
         -1   -1    0    0    0  501 -0.00000000000E+00  0.00000000000E+00  0.52747227387E+03  0.52747227387E+03  0.00000000000E+00 0.  1.
          1   -1    0    0  501    0  0.00000000000E+00 -0.00000000000E+00 -0.18715266242E+04  0.18715266242E+04  0.00000000000E+00 0. -1.
         23    2    1    2    0    0 -0.10039441671E+03 -0.41215219562E+03  0.26402163871E+03  0.50774497582E+03  0.90272163515E+02 0.  0.
        254    2    1    2    0    0  0.10039441671E+03  0.41215219562E+03 -0.16080759891E+04  0.18912539223E+04  0.90054680093E+03 0.  0.
        -24    2    4    4    0    0  0.24395150272E+03  0.64413667702E+03 -0.12900920220E+04  0.14645059336E+04  0.77561652807E+02 0.  0.
         24    2    4    4    0    0 -0.14355708600E+03 -0.23198448140E+03 -0.31798396704E+03  0.42674798865E+03  0.81083943960E+02 0.  0.
         11    1    3    3    0    0 -0.19816499964E+02 -0.79657269785E+02  0.96882423047E+02  0.12698101510E+03  0.00000000000E+00 0. -1.
        -11    1    3    3    0    0 -0.80577916747E+02 -0.33249492583E+03  0.16713921566E+03  0.38076396072E+03  0.00000000000E+00 0.  1.
          4    1    6    6  502    0 -0.11098628874E+03 -0.17256683128E+03 -0.28556848940E+03  0.35163422712E+03  0.00000000000E+00 0. -1.
          1    1    5    5  503    0  0.16416013526E+03  0.51075732104E+03 -0.10353741717E+04  0.11661137451E+04  0.00000000000E+00 0. -1.
         -2    1    5    5    0  503  0.79791367456E+02  0.13337935598E+03 -0.25471785028E+03  0.29839218853E+03  0.00000000000E+00 0.  1.
         -3    1    6    6    0  502 -0.32570797262E+02 -0.59417650122E+02 -0.32415477649E+02  0.75113761532E+02  0.00000000000E+00 0.  1.
<mgrwt>
<rscale>  0 0.19871370E+04</rscale>
<asrwt>0</asrwt>
<pdfrwt beam="1">  1        1 0.28792717E+00 0.19871370E+04</pdfrwt>
<pdfrwt beam="2">  1       -1 0.81149581E-01 0.19871370E+04</pdfrwt>
<totfact> 0.51179226E+00</totfact>
</mgrwt>
</event>
<event>
12    1  0.1489233E-007  0.2866125E+04  0.7818608E-02  0.8283028E-01
          2   -1    0    0  501    0  0.00000000000E+00  0.00000000000E+00  0.20845685405E+04  0.20845685405E+04  0.00000000000E+00 0.  1.
         -2   -1    0    0    0  501 -0.00000000000E+00 -0.00000000000E+00 -0.98517653304E+03  0.98517653304E+03  0.00000000000E+00 0. -1.
         23    2    1    2    0    0 -0.28649187057E+03  0.72087608813E+03  0.15980055653E+04  0.17786016567E+04  0.89789420317E+02 0.  0.
        254    2    1    2    0    0  0.28649187057E+03 -0.72087608813E+03 -0.49861355786E+03  0.12911434169E+04  0.90371229741E+03 0.  0.
        -24    2    4    4    0    0 -0.10270696339E+03 -0.62847513496E+03  0.75961974422E+01  0.64136135747E+03  0.75874719507E+02 0.  0.
         24    2    4    4    0    0  0.38919883396E+03 -0.92400953177E+02 -0.50620975530E+03  0.64978205939E+03  0.77166960785E+02 0.  0.
         13    1    3    3    0    0 -0.26810105791E+03  0.64392605658E+03  0.14849959392E+04  0.16406498356E+04  0.00000000000E+00 0.  1.
        -13    1    3    3    0    0 -0.18390812666E+02  0.76950031547E+02  0.11300962618E+03  0.13795182114E+03  0.00000000000E+00 0. -1.
          4    1    6    6  502    0  0.80951495349E+02 -0.24414627636E+02 -0.62034208122E+02  0.10486878286E+03  0.00000000000E+00 0. -1.
          1    1    5    5  503    0 -0.86008761240E+02 -0.35946805701E+03 -0.21689044284E+02  0.37025019333E+03  0.00000000000E+00 0. -1.
         -2    1    5    5    0  503 -0.16698202150E+02 -0.26900707795E+03  0.29285241726E+02  0.27111116414E+03  0.00000000000E+00 0.  1.
         -1    1    6    6    0  502  0.30824733861E+03 -0.67986325541E+02 -0.44417554718E+03  0.54491327653E+03  0.00000000000E+00 0.  1.
<mgrwt>
<rscale>  0 0.28661249E+04</rscale>
<asrwt>0</asrwt>
<pdfrwt beam="1">  1        2 0.32070285E+00 0.28661249E+04</pdfrwt>
<pdfrwt beam="2">  1       -2 0.15156562E+00 0.28661249E+04</pdfrwt>
<totfact> 0.15119626E+00</totfact>
</mgrwt>
</event>
<event>
12    1  0.1489233E-007  0.2305044E+04  0.7818608E-02  0.8475935E-01
          2   -1    0    0  501    0  0.00000000000E+00  0.00000000000E+00  0.11588103575E+04  0.11588103575E+04  0.00000000000E+00 0. -1.
         -2   -1    0    0    0  501 -0.00000000000E+00 -0.00000000000E+00 -0.11462677795E+04  0.11462677795E+04  0.00000000000E+00 0.  1.
         23    2    1    2    0    0  0.51926455437E+03  0.81115995537E+03  0.17078545649E+03  0.98256938471E+03  0.93052528118E+02 0.  0.
        254    2    1    2    0    0 -0.51926455437E+03 -0.81115995537E+03 -0.15824287847E+03  0.13225087523E+04  0.89239701959E+03 0.  0.
        -24    2    4    4    0    0  0.18831631721E+03 -0.46416399857E+03 -0.15357025657E+03  0.53034766561E+03  0.82301699949E+02 0.  0.
         24    2    4    4    0    0 -0.70758087158E+03 -0.34699595680E+03 -0.46726218981E+01  0.79216108664E+03  0.80127834927E+02 0.  0.
         13    1    3    3    0    0  0.26199971154E+03  0.43691943467E+03  0.13492868559E+03  0.52701820787E+03  0.00000000000E+00 0.  1.
        -13    1    3    3    0    0  0.25726484283E+03  0.37424052071E+03  0.35856770910E+02  0.45555117684E+03  0.00000000000E+00 0. -1.
          4    1    6    6  502    0 -0.61459445720E+02 -0.51999925328E+02 -0.14567738053E+02  0.81813658361E+02  0.00000000000E+00 0. -1.
          1    1    5    5  503    0  0.11355856290E+03 -0.25404073893E+03 -0.43524226497E+02  0.28164978703E+03  0.00000000000E+00 0. -1.
         -4    1    5    5    0  503  0.74757754317E+02 -0.21012325964E+03 -0.11004603008E+03  0.24869787858E+03  0.00000000000E+00 0.  1.
         -3    1    6    6    0  502 -0.64612142586E+03 -0.29499603147E+03  0.98951161554E+01  0.71034742828E+03  0.00000000000E+00 0.  1.
<mgrwt>
<rscale>  0 0.23050440E+04</rscale>
<asrwt>0</asrwt>
<pdfrwt beam="1">  1        2 0.17827852E+00 0.23050440E+04</pdfrwt>
<pdfrwt beam="2">  1       -2 0.17634889E+00 0.23050440E+04</pdfrwt>
<totfact> 0.34937633E+00</totfact>
</mgrwt>
</event>
<event>
12    1  0.1489233E-007  0.1308846E+04  0.7818608E-02  0.9022580E-01
          1   -1    0    0  501    0  0.00000000000E+00  0.00000000000E+00  0.93211251056E+03  0.93211251056E+03  0.00000000000E+00 0. -1.
         -1   -1    0    0    0  501 -0.00000000000E+00 -0.00000000000E+00 -0.45946110348E+03  0.45946110348E+03  0.00000000000E+00 0.  1.
         23    2    1    2    0    0  0.12796525440E+02 -0.12578925421E+03  0.44107154541E+03  0.46774033445E+03  0.90830747922E+02 0.  0.
        254    2    1    2    0    0 -0.12796525440E+02  0.12578925421E+03  0.31579861680E+02  0.92383327959E+03  0.91459496679E+03 0.  0.
        -24    2    4    4    0    0 -0.23901253467E+03 -0.15618162657E+02  0.39341222847E+03  0.46739341268E+03  0.79451255318E+02 0.  0.
         24    2    4    4    0    0  0.22621600923E+03  0.14140741687E+03 -0.36183236679E+03  0.45643986691E+03  0.79024996463E+02 0.  0.
         13    1    3    3    0    0  0.49039099071E+02 -0.82395293700E+02  0.32116667522E+03  0.33517435900E+03  0.00000000000E+00 0. -1.
        -13    1    3    3    0    0 -0.36242573632E+02 -0.43393960513E+02  0.11990487019E+03  0.13256597545E+03  0.00000000000E+00 0.  1.
          4    1    6    6  502    0  0.85193107956E-01  0.20996012110E+02 -0.17991655742E+02  0.27650306666E+02  0.00000000000E+00 0. -1.
          1    1    5    5  503    0 -0.53678384712E+02 -0.21747511123E+02  0.47466306828E+02  0.74882397860E+02  0.00000000000E+00 0. -1.
         -2    1    5    5    0  503 -0.18533414996E+03  0.61293484664E+01  0.34594592165E+03  0.39251101482E+03  0.00000000000E+00 0.  1.
         -3    1    6    6    0  502  0.22613081612E+03  0.12041140476E+03 -0.34384071105E+03  0.42878956024E+03  0.00000000000E+00 0.  1.
<mgrwt>
<rscale>  0 0.13088460E+04</rscale>
<asrwt>0</asrwt>
<pdfrwt beam="1">  1        1 0.14340192E+00 0.13088460E+04</pdfrwt>
<pdfrwt beam="2">  1       -1 0.70686324E-01 0.13088460E+04</pdfrwt>
<totfact> 0.34025683E+01</totfact>
</mgrwt>
</event>
<event>
12    1  0.1489233E-007  0.1565228E+04  0.7818608E-02  0.8842199E-01
         -1   -1    0    0    0  501 -0.00000000000E+00  0.00000000000E+00  0.27435245656E+03  0.27435245656E+03  0.00000000000E+00 0. -1.
          1   -1    0    0  501    0  0.00000000000E+00 -0.00000000000E+00 -0.22324749754E+04  0.22324749754E+04  0.00000000000E+00 0.  1.
         23    2    1    2    0    0 -0.21120861371E+03 -0.40545556605E+03 -0.26319019060E+03  0.53381819334E+03  0.81789318159E+02 0.  0.
        254    2    1    2    0    0  0.21120861371E+03  0.40545556605E+03 -0.16949323282E+04  0.19730092386E+04  0.90053681983E+03 0.  0.
        -24    2    4    4    0    0 -0.23091359323E+03  0.10703598672E+03 -0.92870102711E+02  0.28262431645E+03  0.80460290080E+02 0.  0.
         24    2    4    4    0    0  0.44212220694E+03  0.29841957932E+03 -0.16020622255E+04  0.16903849222E+04  0.79192925659E+02 0.  0.
         11    1    3    3    0    0 -0.51422143799E+00 -0.37045314933E+01 -0.17532547518E+02  0.17927024286E+02  0.00000000000E+00 0.  1.
        -11    1    3    3    0    0 -0.21069439227E+03 -0.40175103455E+03 -0.24565764309E+03  0.51589116905E+03  0.00000000000E+00 0. -1.
          4    1    6    6  502    0  0.85627221829E+02  0.27751931429E+02 -0.32077156792E+03  0.33316150678E+03  0.00000000000E+00 0. -1.
          3    1    5    5  503    0 -0.56328271234E+02  0.67067515629E+02 -0.24851532208E+02  0.91041333722E+02  0.00000000000E+00 0. -1.
         -4    1    5    5    0  503 -0.17458532200E+03  0.39968471094E+02 -0.68018570503E+02  0.19158298273E+03  0.00000000000E+00 0.  1.
         -3    1    6    6    0  502  0.35649498511E+03  0.27066764790E+03 -0.12812906576E+04  0.13572234154E+04  0.00000000000E+00 0.  1.
<mgrwt>
<rscale>  0 0.15652284E+04</rscale>
<asrwt>0</asrwt>
<pdfrwt beam="1">  1        1 0.34345767E+00 0.15652284E+04</pdfrwt>
<pdfrwt beam="2">  1       -1 0.42208072E-01 0.15652284E+04</pdfrwt>
<totfact> 0.11002290E+01</totfact>
</mgrwt>
</event>
<event>
12    1  0.1489233E-007  0.1549557E+04  0.7818608E-02  0.8852151E-01
         -2   -1    0    0    0  501 -0.00000000000E+00  0.00000000000E+00  0.29776975451E+03  0.29776975451E+03  0.00000000000E+00 0. -1.
          2   -1    0    0  501    0  0.00000000000E+00 -0.00000000000E+00 -0.20159258834E+04  0.20159258834E+04  0.00000000000E+00 0.  1.
         23    2    1    2    0    0  0.22309681502E+03 -0.21530308436E+03  0.28125395589E+02  0.32466352484E+03  0.92129037110E+02 0.  0.
        254    2    1    2    0    0 -0.22309681502E+03  0.21530308436E+03 -0.17462815245E+04  0.19890321131E+04  0.90034547651E+03 0.  0.
        -24    2    4    4    0    0 -0.10043629076E+03  0.46933649717E+03 -0.15773988352E+04  0.16507032220E+04  0.79182357350E+02 0.  0.
         24    2    4    4    0    0 -0.12266052426E+03 -0.25403341280E+03 -0.16888268930E+03  0.33832889110E+03  0.79790330079E+02 0.  0.
         11    1    3    3    0    0  0.18609386104E+03 -0.14951610150E+03  0.54225865354E+02  0.24479876265E+03  0.00000000000E+00 0. -1.
        -11    1    3    3    0    0  0.37002953982E+02 -0.65786982866E+02 -0.26100469765E+02  0.79864762192E+02  0.00000000000E+00 0.  1.
          2    1    6    6  502    0 -0.55053955658E+01 -0.41175635059E+02 -0.57778486289E+02  0.71162460474E+02  0.00000000000E+00 0. -1.
          1    1    5    5  503    0  0.32760994410E+01 -0.63610808410E+00 -0.30043270623E+02  0.30228059329E+02  0.00000000000E+00 0. -1.
         -2    1    5    5    0  503 -0.10371239020E+03  0.46997260525E+03 -0.15473555646E+04  0.16204751627E+04  0.00000000000E+00 0.  1.
         -1    1    6    6    0  502 -0.11715512869E+03 -0.21285777774E+03 -0.11110420301E+03  0.26716643062E+03  0.00000000000E+00 0.  1.
<mgrwt>
<rscale>  0 0.15495570E+04</rscale>
<asrwt>0</asrwt>
<pdfrwt beam="1">  1        2 0.31014246E+00 0.15495570E+04</pdfrwt>
<pdfrwt beam="2">  1       -2 0.45810729E-01 0.15495570E+04</pdfrwt>
<totfact> 0.28481554E+01</totfact>
</mgrwt>
</event>
<event>
12    1  0.1489233E-007  0.2166031E+04  0.7818608E-02  0.8532701E-01
          3   -1    0    0  501    0  0.00000000000E+00  0.00000000000E+00  0.36320836999E+03  0.36320836999E+03  0.00000000000E+00 0. -1.
         -3   -1    0    0    0  501 -0.00000000000E+00 -0.00000000000E+00 -0.32293368082E+04  0.32293368082E+04  0.00000000000E+00 0.  1.
         23    2    1    2    0    0 -0.54522372082E+03  0.47024681381E+03 -0.19170294377E+04  0.20498708162E+04  0.92560932057E+02 0.  0.
        254    2    1    2    0    0  0.54522372082E+03 -0.47024681381E+03 -0.94909900045E+03  0.15426743620E+04  0.98012973778E+03 0.  0.
        -24    2    4    4    0    0 -0.59994576864E+01 -0.46139119229E+03 -0.32114047175E+02  0.46927726915E+03  0.79196069994E+02 0.  0.
         24    2    4    4    0    0  0.55122317851E+03 -0.88556215160E+01 -0.91698495328E+03  0.10733970929E+04  0.85991277734E+02 0.  0.
         13    1    3    3    0    0 -0.33537764764E+03  0.33025075646E+03 -0.11572160238E+04  0.12492768526E+04  0.00000000000E+00 0.  1.
        -13    1    3    3    0    0 -0.20984607319E+03  0.13999605734E+03 -0.75981341391E+03  0.80059396354E+03  0.00000000000E+00 0. -1.
          2    1    6    6  502    0  0.95877171741E+02 -0.71166909163E+01 -0.22910501501E+03  0.24845962902E+03  0.00000000000E+00 0. -1.
          3    1    5    5  503    0  0.18818620592E+02 -0.26895507844E+03  0.13526615597E+02  0.26995174389E+03  0.00000000000E+00 0. -1.
         -4    1    5    5    0  503 -0.24818078279E+02 -0.19243611385E+03 -0.45640662773E+02  0.19932552526E+03  0.00000000000E+00 0.  1.
         -1    1    6    6    0  502  0.45534600677E+03 -0.17389305997E+01 -0.68787993826E+03  0.82493746383E+03  0.00000000000E+00 0.  1.
<mgrwt>
<rscale>  0 0.21660306E+04</rscale>
<asrwt>0</asrwt>
<pdfrwt beam="1">  1        3 0.55878211E-01 0.21660306E+04</pdfrwt>
<pdfrwt beam="2">  1       -3 0.49682104E+00 0.21660306E+04</pdfrwt>
<totfact> 0.23892199E-02</totfact>
</mgrwt>
</event>
<event>
12    1  0.1489233E-007  0.1299133E+04  0.7818608E-02  0.9030253E-01
         -3   -1    0    0    0  501 -0.00000000000E+00  0.00000000000E+00  0.18475107217E+04  0.18475107217E+04  0.00000000000E+00 0.  1.
          3   -1    0    0  501    0  0.00000000000E+00 -0.00000000000E+00 -0.22838126102E+03  0.22838126102E+03  0.00000000000E+00 0. -1.
         23    2    1    2    0    0  0.10789206459E+03 -0.10839290794E+03 -0.43384703521E+02  0.18268828553E+03  0.90016982158E+02 0.  0.
        254    2    1    2    0    0 -0.10789206459E+03  0.10839290794E+03  0.16625141642E+04  0.18932036972E+04  0.89267977059E+03 0.  0.
        -24    2    4    4    0    0  0.29664844552E+03 -0.18073484047E+03  0.40895107813E+03  0.54218331741E+03  0.77822763899E+02 0.  0.
         24    2    4    4    0    0 -0.40454051011E+03  0.28912774841E+03  0.12535630861E+04  0.13510203798E+04  0.81165119481E+02 0.  0.
         13    1    3    3    0    0  0.66097151768E+02 -0.74526834885E+02  0.17828255068E+02  0.10119747659E+03  0.00000000000E+00 0.  1.
        -13    1    3    3    0    0  0.41794912821E+02 -0.33866073055E+02 -0.61212958590E+02  0.81490808937E+02  0.00000000000E+00 0. -1.
          4    1    6    6  502    0 -0.39365917222E+03  0.27216026708E+03  0.11516194810E+04  0.12471031168E+04  0.00000000000E+00 0. -1.
          3    1    5    5  503    0  0.24519981647E+03 -0.16785487304E+03  0.37786550114E+03  0.48070837869E+03  0.00000000000E+00 0. -1.
         -4    1    5    5    0  503  0.51448629056E+02 -0.12879967428E+02  0.31085576996E+02  0.61474938714E+02  0.00000000000E+00 0.  1.
         -3    1    6    6    0  502 -0.10881337890E+02  0.16967481331E+02  0.10194360509E+03  0.10391726304E+03  0.00000000000E+00 0.  1.
<mgrwt>
<rscale>  0 0.12991333E+04</rscale>
<asrwt>0</asrwt>
<pdfrwt beam="1">  1        3 0.35135580E-01 0.12991333E+04</pdfrwt>
<pdfrwt beam="2">  1       -3 0.28423241E+00 0.12991333E+04</pdfrwt>
<totfact> 0.96516175E-01</totfact>
</mgrwt>
</event>
<event>
12    1  0.1489233E-007  0.1449071E+04  0.7818608E-02  0.8919045E-01
          2   -1    0    0  501    0  0.00000000000E+00  0.00000000000E+00  0.10952282641E+04  0.10952282641E+04  0.00000000000E+00 0. -1.
         -2   -1    0    0    0  501 -0.00000000000E+00 -0.00000000000E+00 -0.47930793155E+03  0.47930793155E+03  0.00000000000E+00 0.  1.
         23    2    1    2    0    0 -0.24040774155E+03  0.34193957810E+03  0.35552896975E+03  0.55616699481E+03  0.90566663375E+02 0.  0.
        254    2    1    2    0    0  0.24040774155E+03 -0.34193957810E+03  0.26039136277E+03  0.10183692008E+04  0.89137736683E+03 0.  0.
        -24    2    4    4    0    0 -0.53964195546E+02 -0.49424605599E+03  0.40640430079E+03  0.64707583682E+03  0.79695574773E+02 0.  0.
         24    2    4    4    0    0  0.29437193710E+03  0.15230647789E+03 -0.14601293802E+03  0.37129336399E+03  0.81773366764E+02 0.  0.
         13    1    3    3    0    0 -0.13111579796E+03  0.17795726450E+03  0.24595301951E+03  0.33068569408E+03  0.00000000000E+00 0. -1.
        -13    1    3    3    0    0 -0.10929194359E+03  0.16398231360E+03  0.10957595024E+03  0.22548130073E+03  0.00000000000E+00 0.  1.
          2    1    6    6  502    0  0.21002472056E+03  0.14428529045E+03 -0.12587096843E+03  0.28420437889E+03  0.00000000000E+00 0. -1.
          1    1    5    5  503    0  0.14176660162E+02 -0.23654688385E+03  0.19238130528E+03  0.30523101510E+03  0.00000000000E+00 0. -1.
         -2    1    5    5    0  503 -0.68140855709E+02 -0.25769917213E+03  0.21402299551E+03  0.34184482173E+03  0.00000000000E+00 0.  1.
         -1    1    6    6    0  502  0.84347216545E+02  0.80211874379E+01 -0.20141969594E+02  0.87088985101E+02  0.00000000000E+00 0.  1.
<mgrwt>
<rscale>  0 0.14490709E+04</rscale>
<asrwt>0</asrwt>
<pdfrwt beam="1">  1        2 0.16849666E+00 0.14490709E+04</pdfrwt>
<pdfrwt beam="2">  1       -2 0.73739682E-01 0.14490709E+04</pdfrwt>
<totfact> 0.35275214E+01</totfact>
</mgrwt>
</event>
<event>
12    1  0.1489233E-007  0.3537141E+04  0.7818608E-02  0.8105044E-01
         -1   -1    0    0    0  501 -0.00000000000E+00  0.00000000000E+00  0.15145622268E+04  0.15145622268E+04  0.00000000000E+00 0.  1.
          1   -1    0    0  501    0  0.00000000000E+00 -0.00000000000E+00 -0.20651787151E+04  0.20651787151E+04  0.00000000000E+00 0. -1.
         23    2    1    2    0    0 -0.23531350328E+03  0.59493264052E+03 -0.18065020436E+04  0.19194629167E+04  0.10756841301E+03 0.  0.
        254    2    1    2    0    0  0.23531350328E+03 -0.59493264052E+03  0.12558855552E+04  0.16602780252E+04  0.87747210867E+03 0.  0.
        -24    2    4    4    0    0  0.14975037912E+03 -0.75452168121E+03  0.12405440788E+04  0.14615259397E+04  0.73350648101E+02 0.  0.
         24    2    4    4    0    0  0.85563124156E+02  0.15958904070E+03  0.15341476440E+02  0.19875208547E+03  0.80481801987E+02 0.  0.
         13    1    3    3    0    0 -0.22801251988E+03  0.55002374905E+03 -0.17385854288E+04  0.18377146479E+04  0.00000000000E+00 0. -1.
        -13    1    3    3    0    0 -0.73009834006E+01  0.44908891465E+02 -0.67916614782E+02  0.81748268817E+02  0.00000000000E+00 0.  1.
          4    1    6    6  502    0  0.37470469946E+02  0.13266797267E+03  0.31313454499E+02  0.14136958486E+03  0.00000000000E+00 0. -1.
          1    1    5    5  503    0  0.86250810890E+02 -0.28802412629E+03  0.44311627980E+03  0.53548962373E+03  0.00000000000E+00 0. -1.
         -2    1    5    5    0  503  0.63499568231E+02 -0.46649755493E+03  0.79742779901E+03  0.92603631600E+03  0.00000000000E+00 0.  1.
         -3    1    6    6    0  502  0.48092654210E+02  0.26921068028E+02 -0.15971978059E+02  0.57382500607E+02  0.00000000000E+00 0.  1.
<mgrwt>
<rscale>  0 0.35371410E+04</rscale>
<asrwt>0</asrwt>
<pdfrwt beam="1">  1        1 0.31771980E+00 0.35371410E+04</pdfrwt>
<pdfrwt beam="2">  1       -1 0.23300957E+00 0.35371410E+04</pdfrwt>
<totfact> 0.19734675E-01</totfact>
</mgrwt>
</event>
<event>
12    1  0.1489233E-007  0.1292116E+04  0.7818608E-02  0.9035841E-01
         -2   -1    0    0    0  501 -0.00000000000E+00  0.00000000000E+00  0.17871070396E+03  0.17871070396E+03  0.00000000000E+00 0.  1.
          2   -1    0    0  501    0  0.00000000000E+00 -0.00000000000E+00 -0.23355671094E+04  0.23355671094E+04  0.00000000000E+00 0. -1.
         23    2    1    2    0    0 -0.33592614793E+02  0.27815330404E+03 -0.88622084672E+03  0.93355978963E+03  0.87457231391E+02 0.  0.
        254    2    1    2    0    0  0.33592614793E+02 -0.27815330404E+03 -0.12706355587E+04  0.15807180237E+04  0.89758399224E+03 0.  0.
        -24    2    4    4    0    0 -0.38684493813E+03 -0.10252191745E+03 -0.30349036946E+03  0.50855421986E+03  0.79757385031E+02 0.  0.
         24    2    4    4    0    0  0.42043755292E+03 -0.17563138659E+03 -0.96714518923E+03  0.10721638038E+04  0.80940010831E+02 0.  0.
         13    1    3    3    0    0 -0.30025737672E+02  0.27344982150E+03 -0.88592138087E+03  0.92764920249E+03  0.00000000000E+00 0. -1.
        -13    1    3    3    0    0 -0.35668771203E+01  0.47034825444E+01 -0.29946584850E+00  0.59105871308E+01  0.00000000000E+00 0.  1.
          4    1    6    6  502    0  0.23061359876E+03 -0.13501832742E+03 -0.51816849533E+03  0.58301901360E+03  0.00000000000E+00 0. -1.
          1    1    5    5  503    0 -0.28014006658E+03 -0.61359123362E+02 -0.17250961003E+03  0.33466843961E+03  0.00000000000E+00 0. -1.
         -2    1    5    5    0  503 -0.10670487156E+03 -0.41162794091E+02 -0.13098075943E+03  0.17388578025E+03  0.00000000000E+00 0.  1.
         -3    1    6    6    0  502  0.18982395417E+03 -0.40613059165E+02 -0.44897669390E+03  0.48914479024E+03  0.00000000000E+00 0.  1.
<mgrwt>
<rscale>  0 0.12921158E+04</rscale>
<asrwt>0</asrwt>
<pdfrwt beam="1">  1        2 0.35931798E+00 0.12921158E+04</pdfrwt>
<pdfrwt beam="2">  1       -2 0.27493957E-01 0.12921158E+04</pdfrwt>
<totfact> 0.51331118E+01</totfact>
</mgrwt>
</event>
<event>
12    1  0.1489233E-007  0.2105177E+04  0.7818608E-02  0.8558966E-01
          2   -1    0    0  501    0  0.00000000000E+00  0.00000000000E+00  0.17741737441E+04  0.17741737441E+04  0.00000000000E+00 0. -1.
         -2   -1    0    0    0  501 -0.00000000000E+00 -0.00000000000E+00 -0.62448344669E+03  0.62448344669E+03  0.00000000000E+00 0.  1.
         23    2    1    2    0    0 -0.81737645550E+02 -0.79826326471E+03  0.11358504123E+03  0.81555602262E+03  0.91240243022E+02 0.  0.
        254    2    1    2    0    0  0.81737645550E+02  0.79826326471E+03  0.10361052562E+04  0.15831011682E+04  0.88813846012E+03 0.  0.
        -24    2    4    4    0    0  0.25384914915E+03  0.92810106695E+03  0.86765278652E+03  0.12981404045E+04  0.80846588948E+02 0.  0.
         24    2    4    4    0    0 -0.17211150360E+03 -0.12983780224E+03  0.16845246970E+03  0.28496076367E+03  0.79662900547E+02 0.  0.
         13    1    3    3    0    0 -0.11128061497E+02 -0.41661184291E+02  0.26691806254E+02  0.50714303212E+02  0.00000000000E+00 0. -1.
        -13    1    3    3    0    0 -0.70609584053E+02 -0.75660208042E+03  0.86893234981E+02  0.76484171941E+03  0.00000000000E+00 0.  1.
          4    1    6    6  502    0 -0.14661376326E+03 -0.86945052658E+02  0.92091798563E+02  0.19374193434E+03  0.00000000000E+00 0. -1.
          1    1    5    5  503    0 -0.36375765514E+01  0.27481733787E+02  0.36627529966E+02  0.45935319815E+02  0.00000000000E+00 0. -1.
         -2    1    5    5    0  503  0.25748672570E+03  0.90061933317E+03  0.83102525656E+03  0.12522050847E+04  0.00000000000E+00 0.  1.
         -3    1    6    6    0  502 -0.25497740343E+02 -0.42892749581E+02  0.76360671132E+02  0.91218829333E+02  0.00000000000E+00 0.  1.
<mgrwt>
<rscale>  0 0.21051766E+04</rscale>
<asrwt>0</asrwt>
<pdfrwt beam="1">  1        2 0.27294981E+00 0.21051766E+04</pdfrwt>
<pdfrwt beam="2">  1       -2 0.96074377E-01 0.21051766E+04</pdfrwt>
<totfact> 0.74577370E+00</totfact>
</mgrwt>
</event>
<event>
12    1  0.1489233E-007  0.2005754E+04  0.7818608E-02  0.8603935E-01
         -2   -1    0    0    0  501 -0.00000000000E+00  0.00000000000E+00  0.10743998791E+04  0.10743998791E+04  0.00000000000E+00 0.  1.
          2   -1    0    0  501    0  0.00000000000E+00 -0.00000000000E+00 -0.93611550255E+03  0.93611550255E+03  0.00000000000E+00 0. -1.
         23    2    1    2    0    0  0.61759947635E+03 -0.11229463727E+03  0.49660848281E+03  0.80566169015E+03  0.91823608316E+02 0.  0.
        254    2    1    2    0    0 -0.61759947635E+03  0.11229463727E+03 -0.35832410629E+03  0.12048536915E+04  0.96396942583E+03 0.  0.
        -24    2    4    4    0    0 -0.47451781906E+03  0.50984310218E+03 -0.32969252742E+03  0.77457305352E+03  0.78479953868E+02 0.  0.
         24    2    4    4    0    0 -0.14308165729E+03 -0.39754846491E+03 -0.28631578877E+02  0.43028063794E+03  0.76187383937E+02 0.  0.
         11    1    3    3    0    0  0.18433090458E+03 -0.67948559229E+02  0.12254116704E+03  0.23154098278E+03  0.00000000000E+00 0. -1.
        -11    1    3    3    0    0  0.43326857176E+03 -0.44346078040E+02  0.37406731576E+03  0.57412070738E+03  0.00000000000E+00 0.  1.
          2    1    6    6  502    0 -0.65575049220E+02 -0.28149154013E+03 -0.74539059181E+01  0.28912477403E+03  0.00000000000E+00 0. -1.
          3    1    5    5  503    0 -0.38081885388E+03  0.44948432583E+03 -0.28582504669E+03  0.65479394924E+03  0.00000000000E+00 0. -1.
         -4    1    5    5    0  503 -0.93698965180E+02  0.60358776346E+02 -0.43867480728E+02  0.11977910428E+03  0.00000000000E+00 0.  1.
         -1    1    6    6    0  502 -0.77506608066E+02 -0.11605692478E+03 -0.21177672959E+02  0.14115586391E+03  0.00000000000E+00 0.  1.
<mgrwt>
<rscale>  0 0.20057541E+04</rscale>
<asrwt>0</asrwt>
<pdfrwt beam="1">  1        2 0.14401777E+00 0.20057541E+04</pdfrwt>
<pdfrwt beam="2">  1       -2 0.16529229E+00 0.20057541E+04</pdfrwt>
<totfact> 0.59313452E+00</totfact>
</mgrwt>
</event>
<event>
12    1  0.1489233E-007  0.3585256E+04  0.7818608E-02  0.8093877E-01
          2   -1    0    0  501    0  0.00000000000E+00  0.00000000000E+00  0.20462320322E+04  0.20462320322E+04  0.00000000000E+00 0. -1.
         -2   -1    0    0    0  501 -0.00000000000E+00 -0.00000000000E+00 -0.15704547154E+04  0.15704547154E+04  0.00000000000E+00 0.  1.
         23    2    1    2    0    0 -0.98799266565E+03  0.79786346674E+03  0.13339684030E+04  0.18440362741E+04  0.91008027493E+02 0.  0.
        254    2    1    2    0    0  0.98799266565E+03 -0.79786346674E+03 -0.85819108617E+03  0.17726504736E+04  0.89055159428E+03 0.  0.
        -24    2    4    4    0    0  0.83772180729E+03 -0.84330060037E+03 -0.36028699489E+03  0.12446131235E+04  0.79507104164E+02 0.  0.
         24    2    4    4    0    0  0.15027085836E+03  0.45437133633E+02 -0.49790409129E+03  0.52803735001E+03  0.79177616178E+02 0.  0.
         13    1    3    3    0    0 -0.63148772390E+03  0.51644503504E+03  0.91869820494E+03  0.12286165437E+04  0.00000000000E+00 0. -1.
        -13    1    3    3    0    0 -0.35650494174E+03  0.28141843170E+03  0.41527019806E+03  0.61541973041E+03  0.00000000000E+00 0.  1.
          4    1    6    6  502    0  0.58398937930E+02  0.22347606402E+02 -0.32426913747E+03  0.33024282729E+03  0.00000000000E+00 0. -1.
          3    1    5    5  503    0  0.22228790132E+02 -0.25219647302E+02  0.29186532171E+01  0.33744158863E+02  0.00000000000E+00 0. -1.
         -4    1    5    5    0  503  0.81549301716E+03 -0.81808095307E+03 -0.36320564810E+03  0.12108689647E+04  0.00000000000E+00 0.  1.
         -3    1    6    6    0  502  0.91871920425E+02  0.23089527231E+02 -0.17363495382E+03  0.19779452272E+03  0.00000000000E+00 0.  1.
<mgrwt>
<rscale>  0 0.35852558E+04</rscale>
<asrwt>0</asrwt>
<pdfrwt beam="1">  1        2 0.31480493E+00 0.35852558E+04</pdfrwt>
<pdfrwt beam="2">  1       -2 0.24160842E+00 0.35852558E+04</pdfrwt>
<totfact> 0.37199840E-01</totfact>
</mgrwt>
</event>
<event>
12    1  0.1489233E-007  0.1404004E+04  0.7818608E-02  0.8950925E-01
         -1   -1    0    0    0  501 -0.00000000000E+00  0.00000000000E+00  0.74118187413E+03  0.74118187413E+03  0.00000000000E+00 0.  1.
          1   -1    0    0  501    0  0.00000000000E+00 -0.00000000000E+00 -0.66489359784E+03  0.66489359784E+03  0.00000000000E+00 0. -1.
         23    2    1    2    0    0 -0.38358613940E+03  0.11344487499E+03  0.73947847695E+02  0.41688346164E+03  0.91189201180E+02 0.  0.
        254    2    1    2    0    0  0.38358613940E+03 -0.11344487499E+03  0.23404285933E+01  0.98919201033E+03  0.90470287371E+03 0.  0.
        -24    2    4    4    0    0  0.47233808785E+03  0.24014560541E+03  0.19381405840E+03  0.56975352784E+03  0.79259146001E+02 0.  0.
         24    2    4    4    0    0 -0.88751948448E+02 -0.35359048040E+03 -0.19147362980E+03  0.41943848250E+03  0.79770630602E+02 0.  0.
         13    1    3    3    0    0 -0.91634007530E+02  0.38532972204E+02 -0.19539346803E+02  0.10130827881E+03  0.00000000000E+00 0. -1.
        -13    1    3    3    0    0 -0.29195213187E+03  0.74911902786E+02  0.93487194498E+02  0.31557518283E+03  0.00000000000E+00 0.  1.
          2    1    6    6  502    0 -0.13090535478E+01 -0.21167274382E+02  0.72300208208E+01  0.22406256426E+02  0.00000000000E+00 0. -1.
          3    1    5    5  503    0  0.79328332166E+02  0.11318890880E+02  0.17649182802E+02  0.82052393192E+02  0.00000000000E+00 0. -1.
         -4    1    5    5    0  503  0.39300975568E+03  0.22882671453E+03  0.17616487559E+03  0.48770113465E+03  0.00000000000E+00 0.  1.
         -1    1    6    6    0  502 -0.87442894901E+02 -0.33242320602E+03 -0.19870365062E+03  0.39703222607E+03  0.00000000000E+00 0.  1.
<mgrwt>
<rscale>  0 0.14040044E+04</rscale>
<asrwt>0</asrwt>
<pdfrwt beam="1">  1        1 0.10229132E+00 0.14040044E+04</pdfrwt>
<pdfrwt beam="2">  1       -1 0.11402798E+00 0.14040044E+04</pdfrwt>
<totfact> 0.20114295E+01</totfact>
</mgrwt>
</event>
<event>
12    1  0.1489233E-007  0.1884624E+04  0.7818608E-02  0.8662548E-01
          2   -1    0    0  501    0  0.00000000000E+00  0.00000000000E+00  0.74169767976E+03  0.74169767976E+03  0.00000000000E+00 0.  1.
         -2   -1    0    0    0  501 -0.00000000000E+00 -0.00000000000E+00 -0.11971885385E+04  0.11971885385E+04  0.00000000000E+00 0. -1.
         23    2    1    2    0    0 -0.19666174488E+03  0.67256199897E+03 -0.37288304128E+03  0.79895932936E+03  0.90987708718E+02 0.  0.
        254    2    1    2    0    0  0.19666174488E+03 -0.67256199897E+03 -0.82607817421E+02  0.11399268889E+04  0.89531769562E+03 0.  0.
        -24    2    4    4    0    0 -0.11735901631E+03 -0.69834161818E+03  0.16500815018E+03  0.73132158906E+03  0.78418254266E+02 0.  0.
         24    2    4    4    0    0  0.31402076119E+03  0.25779619210E+02 -0.24761596760E+03  0.40860529981E+03  0.79818521621E+02 0.  0.
         13    1    3    3    0    0 -0.17888802000E+03  0.64490026364E+03 -0.33377350676E+03  0.74786497949E+03  0.00000000000E+00 0.  1.
        -13    1    3    3    0    0 -0.17773724887E+02  0.27661735333E+02 -0.39109534518E+02  0.51094349866E+02  0.00000000000E+00 0. -1.
          4    1    6    6  502    0  0.27440982928E+03  0.84849064978E+01 -0.24013009694E+03  0.36473992310E+03  0.00000000000E+00 0. -1.
          3    1    5    5  503    0 -0.10112076381E+03 -0.47533577318E+03  0.14337497137E+03  0.50668124946E+03  0.00000000000E+00 0. -1.
         -4    1    5    5    0  503 -0.16238252494E+02 -0.22300584500E+03  0.21633178810E+02  0.22464033960E+03  0.00000000000E+00 0.  1.
         -3    1    6    6    0  502  0.39610931904E+02  0.17294712712E+02 -0.74858706648E+01  0.43865376708E+02  0.00000000000E+00 0.  1.
<mgrwt>
<rscale>  0 0.18846241E+04</rscale>
<asrwt>0</asrwt>
<pdfrwt beam="1">  1        2 0.11410734E+00 0.18846241E+04</pdfrwt>
<pdfrwt beam="2">  1       -2 0.18418285E+00 0.18846241E+04</pdfrwt>
<totfact> 0.60508820E+00</totfact>
</mgrwt>
</event>
<event>
12    1  0.1489233E-007  0.1884249E+04  0.7818608E-02  0.8662737E-01
          2   -1    0    0  501    0  0.00000000000E+00  0.00000000000E+00  0.64436937732E+03  0.64436937732E+03  0.00000000000E+00 0. -1.
         -2   -1    0    0    0  501 -0.00000000000E+00 -0.00000000000E+00 -0.13774680331E+04  0.13774680331E+04  0.00000000000E+00 0.  1.
         23    2    1    2    0    0  0.46729074428E+03 -0.52731975745E+03 -0.45473105492E+03  0.84422241715E+03  0.97490466345E+02 0.  0.
        254    2    1    2    0    0 -0.46729074428E+03  0.52731975745E+03 -0.27836760086E+03  0.11776149933E+04  0.90158847868E+03 0.  0.
        -24    2    4    4    0    0 -0.40028778758E+03  0.72126358980E+03 -0.40583378516E+03  0.92287001990E+03  0.80848831751E+02 0.  0.
         24    2    4    4    0    0 -0.67002956701E+02 -0.19394383234E+03  0.12746618430E+03  0.25474497338E+03  0.80893553579E+02 0.  0.
         13    1    3    3    0    0  0.39831153365E+03 -0.44797280760E+03 -0.34229700266E+03  0.69028903528E+03  0.00000000000E+00 0.  1.
        -13    1    3    3    0    0  0.68979210626E+02 -0.79346949849E+02 -0.11243405226E+03  0.15393338188E+03  0.00000000000E+00 0. -1.
          2    1    6    6  502    0 -0.53140134750E+02 -0.13131669226E+03  0.12751909863E+03  0.19060185755E+03  0.00000000000E+00 0. -1.
          3    1    5    5  503    0 -0.29227615240E+03  0.55252577296E+03 -0.34248910246E+03  0.71274740572E+03  0.00000000000E+00 0. -1.
         -4    1    5    5    0  503 -0.10801163518E+03  0.16873781683E+03 -0.63344682698E+02  0.21012261418E+03  0.00000000000E+00 0.  1.
         -1    1    6    6    0  502 -0.13862821951E+02 -0.62627140089E+02 -0.52914330645E-01  0.64143115828E+02  0.00000000000E+00 0.  1.
<mgrwt>
<rscale>  0 0.18842486E+04</rscale>
<asrwt>0</asrwt>
<pdfrwt beam="1">  1        2 0.99133750E-01 0.18842486E+04</pdfrwt>
<pdfrwt beam="2">  1       -2 0.21191816E+00 0.18842486E+04</pdfrwt>
<totfact> 0.47403216E+00</totfact>
</mgrwt>
</event>
<event>
12    1  0.1489233E-007  0.1189854E+04  0.7818608E-02  0.9121784E-01
          2   -1    0    0  501    0  0.00000000000E+00  0.00000000000E+00  0.58790077445E+03  0.58790077445E+03  0.00000000000E+00 0. -1.
         -2   -1    0    0    0  501 -0.00000000000E+00 -0.00000000000E+00 -0.60203673765E+03  0.60203673765E+03  0.00000000000E+00 0.  1.
         23    2    1    2    0    0  0.14677327427E+03  0.46744327652E+02  0.15764597212E+03  0.23921785798E+03  0.92981206932E+02 0.  0.
        254    2    1    2    0    0 -0.14677327427E+03 -0.46744327652E+02 -0.17178193532E+03  0.95071965413E+03  0.92229680756E+03 0.  0.
        -24    2    4    4    0    0  0.34443812793E+03  0.37079084066E+02  0.11084233215E+03  0.37230628716E+03  0.79457324510E+02 0.  0.
         24    2    4    4    0    0 -0.49121140220E+03 -0.83823411718E+02 -0.28262426747E+03  0.57841336697E+03  0.79815665894E+02 0.  0.
         13    1    3    3    0    0  0.53676374450E+02  0.14568580684E+02  0.12267413218E+03  0.13469350178E+03  0.00000000000E+00 0. -1.
        -13    1    3    3    0    0  0.93096899821E+02  0.32175746968E+02  0.34971839945E+02  0.10452435620E+03  0.00000000000E+00 0.  1.
          2    1    6    6  502    0 -0.44608293255E+03 -0.63619917196E+02 -0.22891488024E+03  0.50541022840E+03  0.00000000000E+00 0. -1.
          3    1    5    5  503    0  0.34024573199E+03  0.41929721280E+02  0.95798272245E+02  0.35595304273E+03  0.00000000000E+00 0. -1.
         -4    1    5    5    0  503  0.41923959397E+01 -0.48506372144E+01  0.15044059903E+02  0.16353244433E+02  0.00000000000E+00 0.  1.
         -1    1    6    6    0  502 -0.45128469646E+02 -0.20203494521E+02 -0.53709387237E+02  0.73003138569E+02  0.00000000000E+00 0.  1.
<mgrwt>
<rscale>  0 0.11898535E+04</rscale>
<asrwt>0</asrwt>
<pdfrwt beam="1">  1        2 0.90446273E-01 0.11898535E+04</pdfrwt>
<pdfrwt beam="2">  1       -2 0.92621037E-01 0.11898535E+04</pdfrwt>
<totfact> 0.49649045E+01</totfact>
</mgrwt>
</event>
<event>
12    1  0.1489233E-007  0.3315659E+04  0.7818608E-02  0.8158922E-01
          1   -1    0    0  501    0  0.00000000000E+00  0.00000000000E+00  0.27798637768E+04  0.27798637768E+04  0.00000000000E+00 0. -1.
         -1   -1    0    0    0  501 -0.00000000000E+00 -0.00000000000E+00 -0.98868093821E+03  0.98868093821E+03  0.00000000000E+00 0.  1.
         23    2    1    2    0    0 -0.11932039280E+03 -0.14945977160E+04  0.12014597377E+04  0.19233943770E+04  0.88773527836E+02 0.  0.
        254    2    1    2    0    0  0.11932039280E+03  0.14945977160E+04  0.58972310088E+03  0.18451503380E+04  0.89930347784E+03 0.  0.
        -24    2    4    4    0    0 -0.24909603273E+03  0.14447634993E+03  0.28056079996E+03  0.40970328343E+03  0.78868046576E+02 0.  0.
         24    2    4    4    0    0  0.36841642552E+03  0.13501213661E+04  0.30916230092E+03  0.14354470546E+04  0.79803210379E+02 0.  0.
         11    1    3    3    0    0 -0.52412479885E+02 -0.28257547507E+03  0.20698457337E+03  0.35417309437E+03  0.00000000000E+00 0.  1.
        -11    1    3    3    0    0 -0.66907912911E+02 -0.12120222410E+04  0.99447516435E+03  0.15692212826E+04  0.00000000000E+00 0. -1.
          2    1    6    6  502    0  0.28406717825E+03  0.90248445110E+03  0.21704100045E+03  0.97071063769E+03  0.00000000000E+00 0. -1.
          3    1    5    5  503    0 -0.21269190919E+03  0.14159202520E+03  0.26989871578E+03  0.37166041841E+03  0.00000000000E+00 0. -1.
         -4    1    5    5    0  503 -0.36404123536E+02  0.28843247249E+01  0.10662084180E+02  0.38042865016E+02  0.00000000000E+00 0.  1.
         -1    1    6    6    0  502  0.84349247278E+02  0.44763691500E+03  0.92121300469E+02  0.46473641689E+03  0.00000000000E+00 0.  1.
<mgrwt>
<rscale>  0 0.33156588E+04</rscale>
<asrwt>0</asrwt>
<pdfrwt beam="1">  1        1 0.42767134E+00 0.33156588E+04</pdfrwt>
<pdfrwt beam="2">  1       -1 0.15210476E+00 0.33156588E+04</pdfrwt>
<totfact> 0.23965020E-01</totfact>
</mgrwt>
</event>
<event>
12    1  0.1489233E-007  0.1373317E+04  0.7818608E-02  0.8973363E-01
          2   -1    0    0  501    0  0.00000000000E+00  0.00000000000E+00  0.10549654027E+04  0.10549654027E+04  0.00000000000E+00 0.  1.
         -2   -1    0    0    0  501 -0.00000000000E+00 -0.00000000000E+00 -0.44693402203E+03  0.44693402203E+03  0.00000000000E+00 0. -1.
         23    2    1    2    0    0 -0.18281372914E+02  0.25197656815E+03 -0.13779550185E+03  0.30236737274E+03  0.92801014413E+02 0.  0.
        254    2    1    2    0    0  0.18281372914E+02 -0.25197656815E+03  0.74582688249E+03  0.11995320520E+04  0.90487181719E+03 0.  0.
        -24    2    4    4    0    0 -0.27141773352E+03  0.20938502759E+03  0.13468480201E+03  0.37699107675E+03  0.80452471753E+02 0.  0.
         24    2    4    4    0    0  0.28969910643E+03 -0.46136159574E+03  0.61114208048E+03  0.82254097521E+03  0.79365729790E+02 0.  0.
         13    1    3    3    0    0 -0.12513791146E+02  0.22014942440E+03 -0.15118922678E+03  0.26735846036E+03  0.00000000000E+00 0. -1.
        -13    1    3    3    0    0 -0.57675817678E+01  0.31827143750E+02  0.13393724927E+02  0.35008912382E+02  0.00000000000E+00 0.  1.
          4    1    6    6  502    0  0.33520662854E+02 -0.44780525980E+02  0.10352521097E+03  0.11767072555E+03  0.00000000000E+00 0. -1.
          1    1    5    5  503    0 -0.73282854211E+02  0.50601316351E+02  0.74350346786E+02  0.11601225800E+03  0.00000000000E+00 0. -1.
         -2    1    5    5    0  503 -0.19813487931E+03  0.15878371124E+03  0.60334455223E+02  0.26097881876E+03  0.00000000000E+00 0.  1.
         -1    1    6    6    0  502  0.25617844358E+03 -0.41658106976E+03  0.50761686952E+03  0.70487024966E+03  0.00000000000E+00 0.  1.
<mgrwt>
<rscale>  0 0.13733171E+04</rscale>
<asrwt>0</asrwt>
<pdfrwt beam="1">  1        2 0.16230237E+00 0.13733171E+04</pdfrwt>
<pdfrwt beam="2">  1       -2 0.68759081E-01 0.13733171E+04</pdfrwt>
<totfact> 0.43814624E+01</totfact>
</mgrwt>
</event>
<event>
12    1  0.1489233E-007  0.1942565E+04  0.7818608E-02  0.8633954E-01
          2   -1    0    0  501    0  0.00000000000E+00  0.00000000000E+00  0.12207191808E+04  0.12207191808E+04  0.00000000000E+00 0. -1.
         -2   -1    0    0    0  501 -0.00000000000E+00 -0.00000000000E+00 -0.77281455486E+03  0.77281455486E+03  0.00000000000E+00 0.  1.
         23    2    1    2    0    0  0.10224185344E+03  0.55224542384E+03 -0.34075641567E+03  0.66567536258E+03  0.10761202895E+03 0.  0.
        254    2    1    2    0    0 -0.10224185344E+03 -0.55224542384E+03  0.78866104160E+03  0.13278583731E+04  0.90873165215E+03 0.  0.
        -24    2    4    4    0    0 -0.20027413335E+03 -0.51863674232E+03  0.95961348172E+03  0.11119579688E+04  0.80614459722E+02 0.  0.
         24    2    4    4    0    0  0.98032279906E+02 -0.33608681520E+02 -0.17095244012E+03  0.21590040425E+03  0.81537576592E+02 0.  0.
         13    1    3    3    0    0  0.86286506856E+02  0.53634494506E+03 -0.34387979413E+03  0.64293434670E+03  0.00000000000E+00 0.  1.
        -13    1    3    3    0    0  0.15955346586E+02  0.15900478776E+02  0.31233784580E+01  0.22741015874E+02  0.00000000000E+00 0. -1.
          4    1    6    6  502    0  0.30952028240E+02  0.27150851880E+02 -0.48241961399E+02  0.63423052982E+02  0.00000000000E+00 0. -1.
          1    1    5    5  503    0 -0.20403044504E+03 -0.51931628729E+03  0.95318386463E+03  0.11044805605E+04  0.00000000000E+00 0. -1.
         -2    1    5    5    0  503  0.37563116916E+01  0.67954497313E+00  0.64296170950E+01  0.74774082999E+01  0.00000000000E+00 0.  1.
         -3    1    6    6    0  502  0.67080251665E+02 -0.60759533400E+02 -0.12271047872E+03  0.15247735127E+03  0.00000000000E+00 0.  1.
<mgrwt>
<rscale>  0 0.19425649E+04</rscale>
<asrwt>0</asrwt>
<pdfrwt beam="1">  1        2 0.18780295E+00 0.19425649E+04</pdfrwt>
<pdfrwt beam="2">  1       -2 0.11889455E+00 0.19425649E+04</pdfrwt>
<totfact> 0.93377957E+00</totfact>
</mgrwt>
</event>
<event>
12    1  0.1489233E-007  0.2002108E+04  0.7818608E-02  0.8605636E-01
          1   -1    0    0  501    0  0.00000000000E+00  0.00000000000E+00  0.93164676423E+03  0.93164676423E+03  0.00000000000E+00 0. -1.
         -1   -1    0    0    0  501 -0.00000000000E+00 -0.00000000000E+00 -0.10756318391E+04  0.10756318391E+04  0.00000000000E+00 0.  1.
         23    2    1    2    0    0 -0.54425476684E+03 -0.47826158037E+03  0.27213453631E+03  0.77911474803E+03  0.89527617317E+02 0.  0.
        254    2    1    2    0    0  0.54425476684E+03  0.47826158037E+03 -0.41611961121E+03  0.12281638553E+04  0.90015750523E+03 0.  0.
        -24    2    4    4    0    0  0.21502990539E+03 -0.37899430158E+02 -0.54925464571E+03  0.59642965140E+03  0.79833803698E+02 0.  0.
         24    2    4    4    0    0  0.32922486145E+03  0.51616101053E+03  0.13313503450E+03  0.63173420394E+03  0.80944232784E+02 0.  0.
         11    1    3    3    0    0 -0.18965981277E+03 -0.21981961879E+03  0.89180668083E+02  0.30371812745E+03  0.00000000000E+00 0. -1.
        -11    1    3    3    0    0 -0.35459495407E+03 -0.25844196158E+03  0.18295386822E+03  0.47539662058E+03  0.00000000000E+00 0.  1.
          2    1    6    6  502    0  0.18992108909E+03  0.29047496412E+03  0.34472971904E+02  0.34876082156E+03  0.00000000000E+00 0. -1.
          1    1    5    5  503    0  0.20301969806E+03 -0.24557036781E+02 -0.43377650916E+03  0.47956449593E+03  0.00000000000E+00 0. -1.
         -2    1    5    5    0  503  0.12010207323E+02 -0.13342393378E+02 -0.11547813655E+03  0.11686515547E+03  0.00000000000E+00 0.  1.
         -1    1    6    6    0  502  0.13930377236E+03  0.22568604642E+03  0.98662062597E+02  0.28297338238E+03  0.00000000000E+00 0.  1.
<mgrwt>
<rscale>  0 0.20021078E+04</rscale>
<asrwt>0</asrwt>
<pdfrwt beam="1">  1        1 0.14333027E+00 0.20021078E+04</pdfrwt>
<pdfrwt beam="2">  1       -1 0.16548182E+00 0.20021078E+04</pdfrwt>
<totfact> 0.42271079E+00</totfact>
</mgrwt>
</event>
<event>
12    1  0.1489233E-007  0.1732048E+04  0.7818608E-02  0.8743295E-01
          1   -1    0    0  501    0  0.00000000000E+00  0.00000000000E+00  0.96540901736E+03  0.96540901736E+03  0.00000000000E+00 0. -1.
         -1   -1    0    0    0  501 -0.00000000000E+00 -0.00000000000E+00 -0.77686983172E+03  0.77686983172E+03  0.00000000000E+00 0.  1.
         23    2    1    2    0    0  0.20713188211E+02  0.36466877034E+03  0.57916202502E+03  0.69074373708E+03  0.91026978787E+02 0.  0.
        254    2    1    2    0    0 -0.20713188211E+02 -0.36466877034E+03 -0.39062283938E+03  0.10515351120E+04  0.90538806094E+03 0.  0.
        -24    2    4    4    0    0  0.36528539418E+03 -0.60923850823E+00 -0.35072421499E+03  0.51275682439E+03  0.80487859984E+02 0.  0.
         24    2    4    4    0    0 -0.38599858239E+03 -0.36405953183E+03 -0.39898624391E+02  0.53877828761E+03  0.84592521178E+02 0.  0.
         11    1    3    3    0    0  0.41446264519E+02  0.10951720097E+03  0.14102267096E+03  0.18330085618E+03  0.00000000000E+00 0.  1.
        -11    1    3    3    0    0 -0.20733076308E+02  0.25515156937E+03  0.43813935406E+03  0.50744288091E+03  0.00000000000E+00 0. -1.
          4    1    6    6  502    0 -0.24110037830E+03 -0.24371805642E+03 -0.64453298952E+02  0.34882963060E+03  0.00000000000E+00 0. -1.
          3    1    5    5  503    0  0.34758712164E+03  0.17250944253E+01 -0.35220805266E+03  0.49484370809E+03  0.00000000000E+00 0. -1.
         -4    1    5    5    0  503  0.17698272545E+02 -0.23343329335E+01  0.14838376709E+01  0.17913116299E+02  0.00000000000E+00 0.  1.
         -3    1    6    6    0  502 -0.14489820409E+03 -0.12034147541E+03  0.24554674561E+02  0.18994865700E+03  0.00000000000E+00 0.  1.
<mgrwt>
<rscale>  0 0.17320475E+04</rscale>
<asrwt>0</asrwt>
<pdfrwt beam="1">  1        1 0.14852446E+00 0.17320475E+04</pdfrwt>
<pdfrwt beam="2">  1       -1 0.11951844E+00 0.17320475E+04</pdfrwt>
<totfact> 0.95622561E+00</totfact>
</mgrwt>
</event>
<event>
12    1  0.1489233E-007  0.2084425E+04  0.7818608E-02  0.8568135E-01
          1   -1    0    0  501    0  0.00000000000E+00  0.00000000000E+00  0.81977469473E+03  0.81977469473E+03  0.00000000000E+00 0. -1.
         -1   -1    0    0    0  501 -0.00000000000E+00 -0.00000000000E+00 -0.13250070012E+04  0.13250070012E+04  0.00000000000E+00 0.  1.
         23    2    1    2    0    0  0.33178758073E+03  0.27839513527E+03 -0.96287981594E+03  0.10597955687E+04  0.91881757873E+02 0.  0.
        254    2    1    2    0    0 -0.33178758073E+03 -0.27839513527E+03  0.45764750948E+03  0.10849861272E+04  0.88327051532E+03 0.  0.
        -24    2    4    4    0    0 -0.56067325745E+03 -0.20589814393E+02  0.88429412763E+02  0.57354908190E+03  0.79751778841E+02 0.  0.
         24    2    4    4    0    0  0.22888567672E+03 -0.25780532088E+03  0.36921809672E+03  0.51143704531E+03  0.79960064358E+02 0.  0.
         13    1    3    3    0    0  0.22991157389E+03  0.22747945969E+03 -0.77938897958E+03  0.84383257693E+03  0.00000000000E+00 0.  1.
        -13    1    3    3    0    0  0.10187600684E+03  0.50915675578E+02 -0.18349083636E+03  0.21596299178E+03  0.00000000000E+00 0. -1.
          4    1    6    6  502    0  0.81107950650E+02 -0.39602776917E+02  0.88791977144E+02  0.12661316994E+03  0.00000000000E+00 0. -1.
          3    1    5    5  503    0 -0.67723283075E+02 -0.64510100466E+01 -0.15007201342E+02  0.69665448346E+02  0.00000000000E+00 0. -1.
         -4    1    5    5    0  503 -0.49294997438E+03 -0.14138804346E+02  0.10343661410E+03  0.50388363355E+03  0.00000000000E+00 0.  1.
         -3    1    6    6    0  502  0.14777772607E+03 -0.21820254396E+03  0.28042611958E+03  0.38482387537E+03  0.00000000000E+00 0.  1.
<mgrwt>
<rscale>  0 0.20844253E+04</rscale>
<asrwt>0</asrwt>
<pdfrwt beam="1">  1        1 0.12611918E+00 0.20844253E+04</pdfrwt>
<pdfrwt beam="2">  1       -1 0.20384723E+00 0.20844253E+04</pdfrwt>
<totfact> 0.27712736E+00</totfact>
</mgrwt>
</event>
<event>
12    1  0.1489233E-007  0.1984165E+04  0.7818608E-02  0.8614060E-01
          1   -1    0    0  501    0  0.00000000000E+00  0.00000000000E+00  0.24988207337E+04  0.24988207337E+04  0.00000000000E+00 0. -1.
         -1   -1    0    0    0  501 -0.00000000000E+00 -0.00000000000E+00 -0.39387676096E+03  0.39387676096E+03  0.00000000000E+00 0.  1.
         23    2    1    2    0    0  0.46599353748E+03  0.34118811483E+03  0.16509745284E+04  0.17516394714E+04  0.94681769275E+02 0.  0.
        254    2    1    2    0    0 -0.46599353748E+03 -0.34118811483E+03  0.45396944427E+03  0.11410580232E+04  0.87313564204E+03 0.  0.
        -24    2    4    4    0    0 -0.66404733458E+03 -0.28293753387E+03  0.11328037773E+03  0.73497602302E+03  0.79654251650E+02 0.  0.
         24    2    4    4    0    0  0.19805379710E+03 -0.58250580964E+02  0.34068906654E+03  0.40608200022E+03  0.78835995061E+02 0.  0.
         11    1    3    3    0    0  0.78382119111E+02  0.18026174160E+02  0.21264993318E+03  0.22735147599E+03  0.00000000000E+00 0.  1.
        -11    1    3    3    0    0  0.38761141837E+03  0.32316194067E+03  0.14383245952E+04  0.15242879954E+04  0.00000000000E+00 0. -1.
          2    1    6    6  502    0  0.19887433169E+03 -0.43399093890E+02  0.33013165050E+03  0.38784196243E+03  0.00000000000E+00 0. -1.
          3    1    5    5  503    0 -0.40947040786E+03 -0.18194951149E+03  0.31641425493E+02  0.44919129495E+03  0.00000000000E+00 0. -1.
         -4    1    5    5    0  503 -0.25457692672E+03 -0.10098802238E+03  0.81638952235E+02  0.28578472808E+03  0.00000000000E+00 0.  1.
         -1    1    6    6    0  502 -0.82053459484E+00 -0.14851487074E+02  0.10557416037E+02  0.18240037794E+02  0.00000000000E+00 0.  1.
<mgrwt>
<rscale>  0 0.19841647E+04</rscale>
<asrwt>0</asrwt>
<pdfrwt beam="1">  1        1 0.38443395E+00 0.19841647E+04</pdfrwt>
<pdfrwt beam="2">  1       -1 0.60596426E-01 0.19841647E+04</pdfrwt>
<totfact> 0.34838825E+00</totfact>
</mgrwt>
</event>
<event>
12    1  0.1489233E-007  0.2393849E+04  0.7818608E-02  0.8441810E-01
          2   -1    0    0  501    0  0.00000000000E+00  0.00000000000E+00  0.10897952160E+04  0.10897952160E+04  0.00000000000E+00 0. -1.
         -2   -1    0    0    0  501 -0.00000000000E+00 -0.00000000000E+00 -0.13145845388E+04  0.13145845388E+04  0.00000000000E+00 0.  1.
         23    2    1    2    0    0  0.69647028719E+03  0.59018521614E+03 -0.56903020673E+03  0.10796212935E+04  0.91636842752E+02 0.  0.
        254    2    1    2    0    0 -0.69647028719E+03 -0.59018521614E+03  0.34424088392E+03  0.13247584613E+04  0.89615497790E+03 0.  0.
        -24    2    4    4    0    0 -0.39767362866E+03 -0.20181803934E+03  0.61124608846E+03  0.76093243232E+03  0.80756114142E+02 0.  0.
         24    2    4    4    0    0 -0.29879665853E+03 -0.38836717680E+03 -0.26700520453E+03  0.56382602901E+03  0.80619504931E+02 0.  0.
         11    1    3    3    0    0  0.13453432923E+03  0.13961124701E+03 -0.15954359258E+03  0.25108752252E+03  0.00000000000E+00 0. -1.
        -11    1    3    3    0    0  0.56193595796E+03  0.45057396913E+03 -0.40948661415E+03  0.82853377099E+03  0.00000000000E+00 0.  1.
          4    1    6    6  502    0 -0.56881053782E+02 -0.47453127379E+02 -0.69170532671E+02  0.10134996876E+03  0.00000000000E+00 0. -1.
          1    1    5    5  503    0 -0.96960078993E+02 -0.21655581314E+02  0.17563278409E+03  0.20178477635E+03  0.00000000000E+00 0. -1.
         -2    1    5    5    0  503 -0.30071354967E+03 -0.18016245803E+03  0.43561330437E+03  0.55914765597E+03  0.00000000000E+00 0.  1.
         -3    1    6    6    0  502 -0.24191560474E+03 -0.34091404942E+03 -0.19783467186E+03  0.46247606025E+03  0.00000000000E+00 0.  1.
<mgrwt>
<rscale>  0 0.23938487E+04</rscale>
<asrwt>0</asrwt>
<pdfrwt beam="1">  1        2 0.16766080E+00 0.23938487E+04</pdfrwt>
<pdfrwt beam="2">  1       -2 0.20224377E+00 0.23938487E+04</pdfrwt>
<totfact> 0.25566723E+00</totfact>
</mgrwt>
</event>
<event>
12    1  0.1489233E-007  0.1474801E+04  0.7818608E-02  0.8901385E-01
         -2   -1    0    0    0  501 -0.00000000000E+00  0.00000000000E+00  0.15908341419E+03  0.15908341419E+03  0.00000000000E+00 0.  1.
          2   -1    0    0  501    0  0.00000000000E+00 -0.00000000000E+00 -0.34180800285E+04  0.34180800285E+04  0.00000000000E+00 0. -1.
         23    2    1    2    0    0 -0.28285734576E+02  0.85106074431E+02 -0.20987397048E+04  0.21026492243E+04  0.91554821004E+02 0.  0.
        254    2    1    2    0    0  0.28285734576E+02 -0.85106074431E+02 -0.11602569095E+04  0.14745142184E+04  0.90551253856E+03 0.  0.
        -24    2    4    4    0    0  0.29791408792E+03 -0.15139463623E+02 -0.32626946985E+02  0.31025102446E+03  0.78798308166E+02 0.  0.
         24    2    4    4    0    0 -0.26962835334E+03 -0.69966610808E+02 -0.11276299625E+04  0.11642631939E+04  0.79778924656E+02 0.  0.
         11    1    3    3    0    0 -0.93812994125E+01  0.46506113285E+01 -0.12169216404E+04  0.12169666864E+04  0.00000000000E+00 0.  1.
        -11    1    3    3    0    0 -0.18904435164E+02  0.80455463103E+02 -0.88181806443E+03  0.88568253792E+03  0.00000000000E+00 0. -1.
          2    1    6    6  502    0 -0.80822328510E+02  0.15258303492E+02 -0.34718104155E+03  0.35679089145E+03  0.00000000000E+00 0. -1.
          3    1    5    5  503    0  0.17432531312E+03 -0.39694944747E+02 -0.42791248719E+02  0.18383714097E+03  0.00000000000E+00 0. -1.
         -4    1    5    5    0  503  0.12358877479E+03  0.24555481124E+02  0.10164301735E+02  0.12641388348E+03  0.00000000000E+00 0.  1.
         -1    1    6    6    0  502 -0.18880602483E+03 -0.85224914300E+02 -0.78044892097E+03  0.80747230248E+03  0.00000000000E+00 0.  1.
<mgrwt>
<rscale>  0 0.14748015E+04</rscale>
<asrwt>0</asrwt>
<pdfrwt beam="1">  1        2 0.52585838E+00 0.14748015E+04</pdfrwt>
<pdfrwt beam="2">  1       -2 0.24474375E-01 0.14748015E+04</pdfrwt>
<totfact> 0.13555913E+01</totfact>
</mgrwt>
</event>
<event>
12    1  0.1489233E-007  0.2208084E+04  0.7818608E-02  0.8515071E-01
         -2   -1    0    0    0  501 -0.00000000000E+00  0.00000000000E+00  0.29119363027E+03  0.29119363027E+03  0.00000000000E+00 0.  1.
          2   -1    0    0  501    0  0.00000000000E+00 -0.00000000000E+00 -0.41859040971E+04  0.41859040971E+04  0.00000000000E+00 0. -1.
         23    2    1    2    0    0 -0.68637703744E+03  0.38521232955E+03 -0.25592045752E+04  0.26793330385E+04  0.98972204568E+02 0.  0.
        254    2    1    2    0    0  0.68637703744E+03 -0.38521232955E+03 -0.13355058917E+04  0.17977646889E+04  0.91042842305E+03 0.  0.
        -24    2    4    4    0    0  0.75079608549E+03 -0.57531612577E+03 -0.88811638337E+03  0.13000735229E+04  0.82201265770E+02 0.  0.
         24    2    4    4    0    0 -0.64419048041E+02  0.19010379622E+03 -0.44738950829E+03  0.49769116592E+03  0.85146094564E+02 0.  0.
         11    1    3    3    0    0 -0.65536610987E+03  0.38822135069E+03 -0.24407777258E+04  0.25568763095E+04  0.00000000000E+00 0. -1.
        -11    1    3    3    0    0 -0.31010927575E+02 -0.30090211388E+01 -0.11842684938E+03  0.12245672906E+03  0.00000000000E+00 0.  1.
          2    1    6    6  502    0 -0.36296822465E+02  0.15859936820E+03 -0.26904008724E+03  0.31441022161E+03  0.00000000000E+00 0. -1.
          3    1    5    5  503    0  0.44311746057E+03 -0.30689643718E+03 -0.54803782620E+03  0.76868977225E+03  0.00000000000E+00 0. -1.
         -4    1    5    5    0  503  0.30767862492E+03 -0.26841968859E+03 -0.34007855717E+03  0.53138375069E+03  0.00000000000E+00 0.  1.
         -1    1    6    6    0  502 -0.28122225576E+02  0.31504428020E+02 -0.17834942106E+03  0.18328094431E+03  0.00000000000E+00 0.  1.
<mgrwt>
<rscale>  0 0.22080839E+04</rscale>
<asrwt>0</asrwt>
<pdfrwt beam="1">  1        2 0.64398526E+00 0.22080839E+04</pdfrwt>
<pdfrwt beam="2">  1       -2 0.44799019E-01 0.22080839E+04</pdfrwt>
<totfact> 0.10411998E+00</totfact>
</mgrwt>
</event>
<event>
12    1  0.1489233E-007  0.1709342E+04  0.7818608E-02  0.8756054E-01
          2   -1    0    0  501    0  0.00000000000E+00  0.00000000000E+00  0.26890825434E+04  0.26890825434E+04  0.00000000000E+00 0.  1.
         -2   -1    0    0    0  501 -0.00000000000E+00 -0.00000000000E+00 -0.27164013513E+03  0.27164013513E+03  0.00000000000E+00 0. -1.
         23    2    1    2    0    0 -0.25379618457E+03  0.18051015628E+03  0.19697620487E+04  0.19963801315E+04  0.92599574161E+02 0.  0.
        254    2    1    2    0    0  0.25379618457E+03 -0.18051015628E+03  0.44768035962E+03  0.96434254709E+03  0.79532535726E+03 0.  0.
        -24    2    4    4    0    0  0.59113767834E+01 -0.36093838905E+03 -0.51508057474E+02  0.37318529358E+03  0.79389661142E+02 0.  0.
         24    2    4    4    0    0  0.24788480779E+03  0.18042823277E+03  0.49918841710E+03  0.59115725350E+03  0.79224980210E+02 0.  0.
         13    1    3    3    0    0 -0.20634934161E+03  0.13860997942E+03  0.17539076139E+04  0.17714357723E+04  0.00000000000E+00 0.  1.
        -13    1    3    3    0    0 -0.47446842965E+02  0.41900176857E+02  0.21585443479E+03  0.22494435922E+03  0.00000000000E+00 0. -1.
          4    1    6    6  502    0  0.37185711720E+02  0.70679908136E+01  0.29587804879E+02  0.48043437094E+02  0.00000000000E+00 0. -1.
          3    1    5    5  503    0  0.12834741208E+02 -0.17888861538E+03 -0.64370728932E+02  0.19055040813E+03  0.00000000000E+00 0. -1.
         -4    1    5    5    0  503 -0.69233644241E+01 -0.18204977367E+03  0.12862671457E+02  0.18263488545E+03  0.00000000000E+00 0.  1.
         -3    1    6    6    0  502  0.21069909607E+03  0.17336024196E+03  0.46960061222E+03  0.54311381641E+03  0.00000000000E+00 0.  1.
<mgrwt>
<rscale>  0 0.17093423E+04</rscale>
<asrwt>0</asrwt>
<pdfrwt beam="1">  1        2 0.41370499E+00 0.17093423E+04</pdfrwt>
<pdfrwt beam="2">  1       -2 0.41790792E-01 0.17093423E+04</pdfrwt>
<totfact> 0.13942803E+01</totfact>
</mgrwt>
</event>
<event>
12    1  0.1489233E-007  0.1713384E+04  0.7818608E-02  0.8753767E-01
          1   -1    0    0  501    0  0.00000000000E+00  0.00000000000E+00  0.15108846888E+04  0.15108846888E+04  0.00000000000E+00 0. -1.
         -1   -1    0    0    0  501 -0.00000000000E+00 -0.00000000000E+00 -0.48575616626E+03  0.48575616626E+03  0.00000000000E+00 0.  1.
         23    2    1    2    0    0  0.36168162888E+02  0.49925436136E+02  0.10435164766E+04  0.10493925491E+04  0.92181343933E+02 0.  0.
        254    2    1    2    0    0 -0.36168162888E+02 -0.49925436136E+02 -0.18387953981E+02  0.94724830596E+03  0.94506113617E+03 0.  0.
        -24    2    4    4    0    0 -0.47754954701E+03 -0.99924941004E+02  0.13780762652E+02  0.49431189365E+03  0.78203421249E+02 0.  0.
         24    2    4    4    0    0  0.44138138412E+03  0.49999504867E+02 -0.32168716633E+02  0.45293641231E+03  0.82456597836E+02 0.  0.
         13    1    3    3    0    0  0.41990406478E+02 -0.12014543106E+02  0.28477236918E+03  0.28810214462E+03  0.00000000000E+00 0. -1.
        -13    1    3    3    0    0 -0.58222435902E+01  0.61939979243E+02  0.75874410737E+03  0.76129040452E+03  0.00000000000E+00 0.  1.
          2    1    6    6  502    0  0.31369117375E+03  0.10098100555E+02  0.56834651845E+01  0.31390512245E+03  0.00000000000E+00 0. -1.
          1    1    5    5  503    0 -0.19554259220E+03 -0.19861113728E+01  0.24780821104E+01  0.19556837907E+03  0.00000000000E+00 0. -1.
         -2    1    5    5    0  503 -0.28200695482E+03 -0.97938829631E+02  0.11302680541E+02  0.29874351458E+03  0.00000000000E+00 0.  1.
         -1    1    6    6    0  502  0.12769021037E+03  0.39901404313E+02 -0.37852181817E+02  0.13903128986E+03  0.00000000000E+00 0.  1.
<mgrwt>
<rscale>  0 0.17133844E+04</rscale>
<asrwt>0</asrwt>
<pdfrwt beam="1">  1        1 0.23244380E+00 0.17133844E+04</pdfrwt>
<pdfrwt beam="2">  1       -1 0.74731718E-01 0.17133844E+04</pdfrwt>
<totfact> 0.11007696E+01</totfact>
</mgrwt>
</event>
<event>
12    1  0.1489233E-007  0.1466710E+04  0.7818608E-02  0.8906897E-01
          1   -1    0    0  501    0  0.00000000000E+00  0.00000000000E+00  0.25206331420E+04  0.25206331420E+04  0.00000000000E+00 0. -1.
         -1   -1    0    0    0  501 -0.00000000000E+00 -0.00000000000E+00 -0.21336300169E+03  0.21336300169E+03  0.00000000000E+00 0.  1.
         23    2    1    2    0    0  0.45443168124E+02 -0.14174525149E+03  0.15178499029E+04  0.15278858880E+04  0.91706930424E+02 0.  0.
        254    2    1    2    0    0 -0.45443168124E+02  0.14174525149E+03  0.78942023739E+03  0.12061102557E+04  0.89964484095E+03 0.  0.
        -24    2    4    4    0    0  0.30619018448E+03  0.28574353416E+03  0.67920214039E+03  0.80196266693E+03  0.80167170678E+02 0.  0.
         24    2    4    4    0    0 -0.35163335260E+03 -0.14399828267E+03  0.11021809699E+03  0.40414758876E+03  0.82496815240E+02 0.  0.
         13    1    3    3    0    0 -0.23996532593E+02 -0.44517318872E+02  0.63109497010E+03  0.63311806682E+03  0.00000000000E+00 0.  1.
        -13    1    3    3    0    0  0.69439700717E+02 -0.97227932621E+02  0.88675493280E+03  0.89476782115E+03  0.00000000000E+00 0. -1.
          2    1    6    6  502    0 -0.20353982348E+02  0.83211254302E+01 -0.33681826823E+01  0.22245682288E+02  0.00000000000E+00 0. -1.
          3    1    5    5  503    0  0.21287418343E+03  0.18040617519E+03  0.51476309382E+03  0.58552783775E+03  0.00000000000E+00 0. -1.
         -4    1    5    5    0  503  0.93316001051E+02  0.10533735897E+03  0.16443904657E+03  0.21643482919E+03  0.00000000000E+00 0.  1.
         -1    1    6    6    0  502 -0.33127937025E+03 -0.15231940810E+03  0.11358627968E+03  0.38190190648E+03  0.00000000000E+00 0.  1.
<mgrwt>
<rscale>  0 0.14667104E+04</rscale>
<asrwt>0</asrwt>
<pdfrwt beam="1">  1        1 0.38778969E+00 0.14667104E+04</pdfrwt>
<pdfrwt beam="2">  1       -1 0.32825079E-01 0.14667104E+04</pdfrwt>
<totfact> 0.11097593E+01</totfact>
</mgrwt>
</event>
<event>
12    1  0.1489233E-007  0.1203308E+04  0.7818608E-02  0.9109966E-01
          2   -1    0    0  501    0  0.00000000000E+00  0.00000000000E+00  0.85607894775E+03  0.85607894775E+03  0.00000000000E+00 0. -1.
         -2   -1    0    0    0  501 -0.00000000000E+00 -0.00000000000E+00 -0.42284330395E+03  0.42284330395E+03  0.00000000000E+00 0.  1.
         23    2    1    2    0    0 -0.42289984279E+02  0.20889759154E+03  0.28941017662E+03  0.37053363615E+03  0.90057085601E+02 0.  0.
        254    2    1    2    0    0  0.42289984279E+02 -0.20889759154E+03  0.14382546718E+03  0.90838861554E+03  0.87123904028E+03 0.  0.
        -24    2    4    4    0    0 -0.14121629907E+03 -0.47053679362E+03  0.25692267823E+03  0.56007635425E+03  0.79557166411E+02 0.  0.
         24    2    4    4    0    0  0.18350628335E+03  0.26163920208E+03 -0.11309721105E+03  0.34831226128E+03  0.80005150562E+02 0.  0.
         13    1    3    3    0    0 -0.64970603706E+02  0.15028542544E+03  0.24028789533E+03  0.29076650613E+03  0.00000000000E+00 0. -1.
        -13    1    3    3    0    0  0.22680619427E+02  0.58612166103E+02  0.49122281293E+02  0.79767130024E+02  0.00000000000E+00 0.  1.
          4    1    6    6  502    0  0.38198277966E+02  0.89616022135E+02 -0.25286708732E+01  0.97450161822E+02  0.00000000000E+00 0. -1.
          3    1    5    5  503    0 -0.12085160148E+02 -0.27714512339E+01  0.58551038423E+01  0.13711829883E+02  0.00000000000E+00 0. -1.
         -4    1    5    5    0  503 -0.12913113893E+03 -0.46776534239E+03  0.25106757439E+03  0.54636452437E+03  0.00000000000E+00 0.  1.
         -3    1    6    6    0  502  0.14530800539E+03  0.17202317995E+03 -0.11056854018E+03  0.25086209946E+03  0.00000000000E+00 0.  1.
<mgrwt>
<rscale>  0 0.12033075E+04</rscale>
<asrwt>0</asrwt>
<pdfrwt beam="1">  1        2 0.13170445E+00 0.12033075E+04</pdfrwt>
<pdfrwt beam="2">  1       -2 0.65052816E-01 0.12033075E+04</pdfrwt>
<totfact> 0.67597906E+01</totfact>
</mgrwt>
</event>
<event>
12    1  0.1489233E-007  0.1153718E+04  0.7818608E-02  0.9154360E-01
          1   -1    0    0  501    0  0.00000000000E+00  0.00000000000E+00  0.15110491912E+04  0.15110491912E+04  0.00000000000E+00 0. -1.
         -1   -1    0    0    0  501 -0.00000000000E+00 -0.00000000000E+00 -0.22022202686E+03  0.22022202686E+03  0.00000000000E+00 0.  1.
         23    2    1    2    0    0  0.95976214117E+02  0.38791847727E+02  0.52747688871E+03  0.54442844377E+03  0.86337831426E+02 0.  0.
        254    2    1    2    0    0 -0.95976214117E+02 -0.38791847727E+02  0.76335027560E+03  0.11868427743E+04  0.90287091350E+03 0.  0.
        -24    2    4    4    0    0 -0.11684834118E+03  0.37162725386E+03  0.63478808351E+03  0.74898175151E+03  0.79103745075E+02 0.  0.
         24    2    4    4    0    0  0.20872127066E+02 -0.41041910159E+03  0.12856219208E+03  0.43786102275E+03  0.79464164099E+02 0.  0.
         11    1    3    3    0    0  0.44471525973E+02 -0.49296153516E+01  0.37493285364E+03  0.37759325003E+03  0.00000000000E+00 0. -1.
        -11    1    3    3    0    0  0.51504688144E+02  0.43721463079E+02  0.15254403508E+03  0.16683519374E+03  0.00000000000E+00 0.  1.
          2    1    6    6  502    0  0.20081735130E+02 -0.38317658572E+03  0.96250855621E+02  0.39559044369E+03  0.00000000000E+00 0. -1.
          3    1    5    5  503    0 -0.65406501132E+02  0.31130322885E+03  0.50022095589E+03  0.59279736453E+03  0.00000000000E+00 0. -1.
         -2    1    5    5    0  503 -0.51441840051E+02  0.60324025008E+02  0.13456712762E+03  0.15618438698E+03  0.00000000000E+00 0.  1.
         -1    1    6    6    0  502  0.79039193590E+00 -0.27242515864E+02  0.32311336464E+02  0.42270579060E+02  0.00000000000E+00 0.  1.
<mgrwt>
<rscale>  0 0.11537180E+04</rscale>
<asrwt>0</asrwt>
<pdfrwt beam="1">  1        1 0.23246910E+00 0.11537180E+04</pdfrwt>
<pdfrwt beam="2">  1       -1 0.33880313E-01 0.11537180E+04</pdfrwt>
<totfact> 0.52479092E+01</totfact>
</mgrwt>
</event>
<event>
12    1  0.1489233E-007  0.1451666E+04  0.7818608E-02  0.8917246E-01
          1   -1    0    0  501    0  0.00000000000E+00  0.00000000000E+00  0.92498224031E+03  0.92498224031E+03  0.00000000000E+00 0. -1.
         -1   -1    0    0    0  501 -0.00000000000E+00 -0.00000000000E+00 -0.56956084371E+03  0.56956084371E+03  0.00000000000E+00 0.  1.
         23    2    1    2    0    0  0.99838204230E+02  0.19259004014E+03 -0.27869517410E+03  0.36364847534E+03  0.86663850384E+02 0.  0.
        254    2    1    2    0    0 -0.99838204230E+02 -0.19259004014E+03  0.63411657071E+03  0.11308946087E+04  0.91091174112E+03 0.  0.
        -24    2    4    4    0    0 -0.25368253149E+03 -0.50979331834E+03  0.39063330145E+03  0.69519756985E+03  0.80381780971E+02 0.  0.
         24    2    4    4    0    0  0.15384432726E+03  0.31720327821E+03  0.24348326926E+03  0.43569703883E+03  0.79131602421E+02 0.  0.
         13    1    3    3    0    0 -0.10483583102E+02  0.32709172244E+02 -0.18719917085E+02  0.39118164057E+02  0.00000000000E+00 0. -1.
        -13    1    3    3    0    0  0.11032178733E+03  0.15988086789E+03 -0.25997525702E+03  0.32453031128E+03  0.00000000000E+00 0.  1.
          2    1    6    6  502    0  0.19385592538E+02  0.50084948125E+02  0.75632429337E+02  0.92760808503E+02  0.00000000000E+00 0. -1.
          3    1    5    5  503    0 -0.13041410999E+02 -0.36035868584E+01  0.33743762335E+01  0.13944556431E+02  0.00000000000E+00 0. -1.
         -4    1    5    5    0  503 -0.24064112049E+03 -0.50618973149E+03  0.38725892522E+03  0.68125301342E+03  0.00000000000E+00 0.  1.
         -1    1    6    6    0  502  0.13445873473E+03  0.26711833008E+03  0.16785083992E+03  0.34293623033E+03  0.00000000000E+00 0.  1.
<mgrwt>
<rscale>  0 0.14516662E+04</rscale>
<asrwt>0</asrwt>
<pdfrwt beam="1">  1        1 0.14230496E+00 0.14516662E+04</pdfrwt>
<pdfrwt beam="2">  1       -1 0.87624745E-01 0.14516662E+04</pdfrwt>
<totfact> 0.21608194E+01</totfact>
</mgrwt>
</event>
<event>
12    1  0.1489233E-007  0.1712556E+04  0.7818608E-02  0.8754235E-01
         -1   -1    0    0    0  501 -0.00000000000E+00  0.00000000000E+00  0.12902692116E+04  0.12902692116E+04  0.00000000000E+00 0.  1.
          1   -1    0    0  501    0  0.00000000000E+00 -0.00000000000E+00 -0.56826290399E+03  0.56826290399E+03  0.00000000000E+00 0. -1.
         23    2    1    2    0    0 -0.51121001364E+03  0.18501278704E+02 -0.92436438203E+02  0.52768953944E+03  0.90740176136E+02 0.  0.
        254    2    1    2    0    0  0.51121001364E+03 -0.18501278704E+02  0.81444274586E+03  0.13308425762E+04  0.91986249023E+03 0.  0.
        -24    2    4    4    0    0  0.70160296271E+02 -0.42744878174E+03  0.41037458180E+03  0.60197585720E+03  0.79578307880E+02 0.  0.
         24    2    4    4    0    0  0.44104971737E+03  0.40894750303E+03  0.40406816406E+03  0.72886671898E+03  0.78820678733E+02 0.  0.
         13    1    3    3    0    0 -0.28261722959E+03  0.54154531787E+02 -0.61712112159E+02  0.29430187998E+03  0.00000000000E+00 0. -1.
        -13    1    3    3    0    0 -0.22859278405E+03 -0.35653253084E+02 -0.30724326044E+02  0.23338765946E+03  0.00000000000E+00 0.  1.
          2    1    6    6  502    0  0.25261281924E+03  0.25507206668E+03  0.19759757830E+03  0.40978018327E+03  0.00000000000E+00 0. -1.
          1    1    5    5  503    0  0.74514031748E+02 -0.42898082333E+03  0.40304733753E+03  0.59331614170E+03  0.00000000000E+00 0. -1.
         -2    1    5    5    0  503 -0.43537354774E+01  0.15320415889E+01  0.73272442650E+01  0.86597155009E+01  0.00000000000E+00 0.  1.
         -1    1    6    6    0  502  0.18843689813E+03  0.15387543635E+03  0.20647058576E+03  0.31908653571E+03  0.00000000000E+00 0.  1.
<mgrwt>
<rscale>  0 0.17125561E+04</rscale>
<asrwt>0</asrwt>
<pdfrwt beam="1">  1        1 0.87425063E-01 0.17125561E+04</pdfrwt>
<pdfrwt beam="2">  1       -1 0.19850295E+00 0.17125561E+04</pdfrwt>
<totfact> 0.54249111E+00</totfact>
</mgrwt>
</event>
<event>
12    1  0.1489233E-007  0.1201456E+04  0.7818608E-02  0.9111583E-01
         -1   -1    0    0    0  501 -0.00000000000E+00  0.00000000000E+00  0.22095676110E+03  0.22095676110E+03  0.00000000000E+00 0.  1.
          1   -1    0    0  501    0  0.00000000000E+00 -0.00000000000E+00 -0.16332328756E+04  0.16332328756E+04  0.00000000000E+00 0. -1.
         23    2    1    2    0    0 -0.22717743061E+03  0.62143846002E+02 -0.21875340203E+03  0.33416821091E+03  0.91344948986E+02 0.  0.
        254    2    1    2    0    0  0.22717743061E+03 -0.62143846002E+02 -0.11935227124E+04  0.15200214257E+04  0.91131620587E+03 0.  0.
        -24    2    4    4    0    0  0.15594964300E+03 -0.14674865224E+03 -0.13163801451E+04  0.13361605555E+04  0.81319650187E+02 0.  0.
         24    2    4    4    0    0  0.71227787615E+02  0.84604806240E+02  0.12285743270E+03  0.18386087024E+03  0.80495340661E+02 0.  0.
         13    1    3    3    0    0 -0.38146473030E+01 -0.24821326728E+01  0.81149875676E+01  0.93040603972E+01  0.00000000000E+00 0.  1.
        -13    1    3    3    0    0 -0.22336278331E+03  0.64625978675E+02 -0.22686838960E+03  0.32486415051E+03  0.00000000000E+00 0. -1.
          2    1    6    6  502    0  0.55615705248E+02  0.11388587127E+02  0.28828306794E+02  0.63670070360E+02  0.00000000000E+00 0. -1.
          3    1    5    5  503    0 -0.36848233000E+01 -0.21220378056E+02 -0.22653010743E+03  0.22755169070E+03  0.00000000000E+00 0. -1.
         -4    1    5    5    0  503  0.15963446630E+03 -0.12552827419E+03 -0.10898500377E+04  0.11086088648E+04  0.00000000000E+00 0.  1.
         -1    1    6    6    0  502  0.15612082367E+02  0.73216219113E+02  0.94029125910E+02  0.12019079988E+03  0.00000000000E+00 0.  1.
<mgrwt>
<rscale>  0 0.12014555E+04</rscale>
<asrwt>0</asrwt>
<pdfrwt beam="1">  1        1 0.25126659E+00 0.12014555E+04</pdfrwt>
<pdfrwt beam="2">  1       -1 0.33993349E-01 0.12014555E+04</pdfrwt>
<totfact> 0.42845298E+01</totfact>
</mgrwt>
</event>
<event>
12    1  0.1489233E-007  0.2015928E+04  0.7818608E-02  0.8599210E-01
          1   -1    0    0  501    0  0.00000000000E+00  0.00000000000E+00  0.84903587110E+03  0.84903587110E+03  0.00000000000E+00 0. -1.
         -1   -1    0    0    0  501 -0.00000000000E+00 -0.00000000000E+00 -0.11966416050E+04  0.11966416050E+04  0.00000000000E+00 0.  1.
         23    2    1    2    0    0 -0.58773303502E+03  0.15462723231E+03  0.38887416097E+03  0.72739932984E+03  0.92449827288E+02 0.  0.
        254    2    1    2    0    0  0.58773303502E+03 -0.15462723231E+03 -0.73647989489E+03  0.13182781463E+04  0.90890864996E+03 0.  0.
        -24    2    4    4    0    0 -0.21516706854E+03 -0.72128848200E+02 -0.33803948056E+03  0.41489605080E+03  0.79803536438E+02 0.  0.
         24    2    4    4    0    0  0.80290010356E+03 -0.82498384106E+02 -0.39844041433E+03  0.90338209548E+03  0.76745599099E+02 0.  0.
         13    1    3    3    0    0 -0.53059900162E+03  0.16168014782E+03  0.33187589046E+03  0.64638794651E+03  0.00000000000E+00 0. -1.
        -13    1    3    3    0    0 -0.57134033399E+02 -0.70529155117E+01  0.56998270505E+02  0.81011383337E+02  0.00000000000E+00 0.  1.
          2    1    6    6  502    0  0.12660805809E+03 -0.47167226934E+01 -0.93456798496E+02  0.15743576796E+03  0.00000000000E+00 0. -1.
          3    1    5    5  503    0 -0.54982614841E+01 -0.19787987657E+02 -0.55560096372E+02  0.59234446429E+02  0.00000000000E+00 0. -1.
         -4    1    5    5    0  503 -0.20966880706E+03 -0.52340860543E+02 -0.28247938418E+03  0.35566160437E+03  0.00000000000E+00 0.  1.
         -1    1    6    6    0  502  0.67629204547E+03 -0.77781661413E+02 -0.30498361583E+03  0.74594632752E+03  0.00000000000E+00 0.  1.
<mgrwt>
<rscale>  0 0.20159282E+04</rscale>
<asrwt>0</asrwt>
<pdfrwt beam="1">  1        1 0.13062090E+00 0.20159282E+04</pdfrwt>
<pdfrwt beam="2">  1       -1 0.18409871E+00 0.20159282E+04</pdfrwt>
<totfact> 0.36156206E+00</totfact>
</mgrwt>
</event>
<event>
12    1  0.1489233E-007  0.1550573E+04  0.7818608E-02  0.8851502E-01
          2   -1    0    0  501    0  0.00000000000E+00  0.00000000000E+00  0.24820843920E+03  0.24820843920E+03  0.00000000000E+00 0. -1.
         -2   -1    0    0    0  501 -0.00000000000E+00 -0.00000000000E+00 -0.24216310383E+04  0.24216310383E+04  0.00000000000E+00 0.  1.
         23    2    1    2    0    0  0.22626987940E+02 -0.25417552459E+03 -0.14757712671E+04  0.15004419303E+04  0.91148097260E+02 0.  0.
        254    2    1    2    0    0 -0.22626987940E+02  0.25417552459E+03 -0.69765133207E+03  0.11693975472E+04  0.90313679166E+03 0.  0.
        -24    2    4    4    0    0 -0.40053951265E+03  0.12354130682E+03 -0.62056091613E+03  0.75315339093E+03  0.80310795961E+02 0.  0.
         24    2    4    4    0    0  0.37791252471E+03  0.13063421777E+03 -0.77090415932E+02  0.41624415630E+03  0.86215371279E+02 0.  0.
         11    1    3    3    0    0  0.33051502714E+02 -0.12262938444E+03 -0.94580568343E+03  0.95429490126E+03  0.00000000000E+00 0. -1.
        -11    1    3    3    0    0 -0.10424514773E+02 -0.13154614015E+03 -0.52996558364E+03  0.54614702905E+03  0.00000000000E+00 0.  1.
          4    1    6    6  502    0  0.31996233429E+03  0.74868771407E+02 -0.63309631635E+02  0.33464808046E+03  0.00000000000E+00 0. -1.
          1    1    5    5  503    0 -0.28544408719E+03  0.12465152393E+03 -0.44253365222E+03  0.54115835268E+03  0.00000000000E+00 0. -1.
         -2    1    5    5    0  503 -0.11509542546E+03 -0.11102171145E+01 -0.17802726392E+03  0.21199503825E+03  0.00000000000E+00 0.  1.
         -3    1    6    6    0  502  0.57950190416E+02  0.55765446363E+02 -0.13780784297E+02  0.81596075844E+02  0.00000000000E+00 0.  1.
<mgrwt>
<rscale>  0 0.15505731E+04</rscale>
<asrwt>0</asrwt>
<pdfrwt beam="1">  1        2 0.38185913E-01 0.15505731E+04</pdfrwt>
<pdfrwt beam="2">  1       -2 0.37255862E+00 0.15505731E+04</pdfrwt>
<totfact> 0.14710845E+00</totfact>
</mgrwt>
</event>
<event>
12    1  0.1489233E-007  0.2190154E+04  0.7818608E-02  0.8522538E-01
          2   -1    0    0  501    0  0.00000000000E+00  0.00000000000E+00  0.17548333029E+04  0.17548333029E+04  0.00000000000E+00 0.  1.
         -2   -1    0    0    0  501 -0.00000000000E+00 -0.00000000000E+00 -0.68336582726E+03  0.68336582726E+03  0.00000000000E+00 0. -1.
         23    2    1    2    0    0  0.11681388657E+03 -0.52633225097E+03  0.12567759859E+04  0.13705021175E+04  0.90105787885E+02 0.  0.
        254    2    1    2    0    0 -0.11681388657E+03  0.52633225097E+03 -0.18530851024E+03  0.10676970126E+04  0.90275497465E+03 0.  0.
        -24    2    4    4    0    0 -0.32982421441E+03 -0.12447165537E+03 -0.53257200195E+02  0.36570562999E+03  0.81406836504E+02 0.  0.
         24    2    4    4    0    0  0.21301032784E+03  0.65080390633E+03 -0.13205131005E+03  0.70199138261E+03  0.80219876068E+02 0.  0.
         11    1    3    3    0    0  0.91403241804E+02 -0.45726743859E+03  0.11487836771E+04  0.12398193416E+04  0.00000000000E+00 0.  1.
        -11    1    3    3    0    0  0.25410644770E+02 -0.69064812375E+02  0.10799230877E+03  0.13068277595E+03  0.00000000000E+00 0. -1.
          4    1    6    6  502    0  0.14804613087E+03  0.43260328243E+03 -0.12586276164E+03  0.47424117451E+03  0.00000000000E+00 0. -1.
          3    1    5    5  503    0 -0.16469292877E+03 -0.89370030209E+02  0.40526177558E+01  0.18742248210E+03  0.00000000000E+00 0. -1.
         -4    1    5    5    0  503 -0.16513128564E+03 -0.35101625158E+02 -0.57309817951E+02  0.17828314789E+03  0.00000000000E+00 0.  1.
         -3    1    6    6    0  502  0.64964196970E+02  0.21820062390E+03 -0.61885484045E+01  0.22775020810E+03  0.00000000000E+00 0.  1.
<mgrwt>
<rscale>  0 0.21901535E+04</rscale>
<asrwt>0</asrwt>
<pdfrwt beam="1">  1        2 0.26997435E+00 0.21901535E+04</pdfrwt>
<pdfrwt beam="2">  1       -2 0.10513320E+00 0.21901535E+04</pdfrwt>
<totfact> 0.61289307E+00</totfact>
</mgrwt>
</event>
<event>
12    1  0.1489233E-007  0.1737798E+04  0.7818608E-02  0.8740096E-01
          2   -1    0    0  501    0  0.00000000000E+00  0.00000000000E+00  0.17884072324E+04  0.17884072324E+04  0.00000000000E+00 0. -1.
         -2   -1    0    0    0  501 -0.00000000000E+00 -0.00000000000E+00 -0.42215519320E+03  0.42215519320E+03  0.00000000000E+00 0.  1.
         23    2    1    2    0    0 -0.23483781335E+03 -0.19436280940E+03  0.12004833834E+04  0.12417453859E+04  0.88575105645E+02 0.  0.
        254    2    1    2    0    0  0.23483781335E+03  0.19436280940E+03  0.16576865579E+03  0.96881703969E+03  0.90454491811E+03 0.  0.
        -24    2    4    4    0    0  0.50833347044E+03 -0.72153094065E+02 -0.51407377506E+02  0.52203536879E+03  0.79178416582E+02 0.  0.
         24    2    4    4    0    0 -0.27349565709E+03  0.26651590346E+03  0.21717603329E+03  0.44678167090E+03  0.81350050821E+02 0.  0.
         13    1    3    3    0    0 -0.16136106425E+03 -0.76608564715E+02  0.68304910589E+03  0.70601865861E+03  0.00000000000E+00 0. -1.
        -13    1    3    3    0    0 -0.73476749102E+02 -0.11775424468E+03  0.51743427747E+03  0.53572672726E+03  0.00000000000E+00 0.  1.
          4    1    6    6  502    0  0.24308186358E+01  0.10185690686E+01 -0.38412582881E+01  0.46585005552E+01  0.00000000000E+00 0. -1.
          1    1    5    5  503    0  0.10400635045E+03 -0.12770092408E+02  0.21361417886E+02  0.10694253769E+03  0.00000000000E+00 0. -1.
         -2    1    5    5    0  503  0.40432711999E+03 -0.59383001657E+02 -0.72768795392E+02  0.41509283109E+03  0.00000000000E+00 0.  1.
         -3    1    6    6    0  502 -0.27592647572E+03  0.26549733440E+03  0.22101729158E+03  0.44212317034E+03  0.00000000000E+00 0.  1.
<mgrwt>
<rscale>  0 0.17377979E+04</rscale>
<asrwt>0</asrwt>
<pdfrwt beam="1">  1        2 0.27513957E+00 0.17377979E+04</pdfrwt>
<pdfrwt beam="2">  1       -2 0.64946954E-01 0.17377979E+04</pdfrwt>
<totfact> 0.18169143E+01</totfact>
</mgrwt>
</event>
<event>
12    1  0.1489233E-007  0.1567824E+04  0.7818608E-02  0.8840563E-01
         -2   -1    0    0    0  501 -0.00000000000E+00  0.00000000000E+00  0.84320656046E+03  0.84320656046E+03  0.00000000000E+00 0.  1.
          2   -1    0    0  501    0  0.00000000000E+00 -0.00000000000E+00 -0.72878697824E+03  0.72878697824E+03  0.00000000000E+00 0. -1.
         23    2    1    2    0    0  0.49940483764E+03 -0.15166629683E+03 -0.96374685542E+00  0.52975163886E+03  0.90708393296E+02 0.  0.
        254    2    1    2    0    0 -0.49940483764E+03  0.15166629683E+03  0.11538332907E+03  0.10422418998E+04  0.89473292535E+03 0.  0.
        -24    2    4    4    0    0 -0.45285666169E+02 -0.34473256257E+03  0.12635435573E+02  0.35716667261E+03  0.80728226405E+02 0.  0.
         24    2    4    4    0    0 -0.45411917147E+03  0.49639885940E+03  0.10274789350E+03  0.68507522723E+03  0.78325524806E+02 0.  0.
         11    1    3    3    0    0  0.22313795763E+03 -0.43226846910E+02  0.37921296496E+02  0.23042815184E+03  0.00000000000E+00 0.  1.
        -11    1    3    3    0    0  0.27626688000E+03 -0.10843944992E+03 -0.38885043351E+02  0.29932348702E+03  0.00000000000E+00 0. -1.
          2    1    6    6  502    0 -0.33137931780E+03  0.37910475812E+03  0.10901485415E+03  0.51518628507E+03  0.00000000000E+00 0. -1.
          1    1    5    5  503    0 -0.44114725985E+02 -0.16188344568E+03  0.39439673547E+02  0.17235964401E+03  0.00000000000E+00 0. -1.
         -2    1    5    5    0  503 -0.11709401841E+01 -0.18284911688E+03 -0.26804237974E+02  0.18480702860E+03  0.00000000000E+00 0.  1.
         -1    1    6    6    0  502 -0.12273985367E+03  0.11729410128E+03 -0.62669606494E+01  0.16988894216E+03  0.00000000000E+00 0.  1.
<mgrwt>
<rscale>  0 0.15678239E+04</rscale>
<asrwt>0</asrwt>
<pdfrwt beam="1">  1        2 0.11212107E+00 0.15678239E+04</pdfrwt>
<pdfrwt beam="2">  1       -2 0.12972409E+00 0.15678239E+04</pdfrwt>
<totfact> 0.16330863E+01</totfact>
</mgrwt>
</event>
<event>
12    1  0.1489233E-007  0.2015137E+04  0.7818608E-02  0.8599576E-01
          2   -1    0    0  501    0  0.00000000000E+00  0.00000000000E+00  0.12812278213E+04  0.12812278213E+04  0.00000000000E+00 0. -1.
         -2   -1    0    0    0  501 -0.00000000000E+00 -0.00000000000E+00 -0.79236039278E+03  0.79236039278E+03  0.00000000000E+00 0.  1.
         23    2    1    2    0    0  0.37090320317E+03  0.48040378648E+03  0.72678695171E+03  0.95125114384E+03  0.91117952640E+02 0.  0.
        254    2    1    2    0    0 -0.37090320317E+03 -0.48040378648E+03 -0.23791952322E+03  0.11223370702E+04  0.91360703557E+03 0.  0.
        -24    2    4    4    0    0 -0.16112604522E+03  0.22012683318E+03  0.11463683900E+03  0.30671310641E+03  0.80708733439E+02 0.  0.
         24    2    4    4    0    0 -0.20977715795E+03 -0.70053061966E+03 -0.35255636222E+03  0.81562396380E+03  0.78720116226E+02 0.  0.
         11    1    3    3    0    0  0.19528117511E+03  0.19616120453E+03  0.37488712707E+03  0.46599819050E+03  0.00000000000E+00 0. -1.
        -11    1    3    3    0    0  0.17562202806E+03  0.28424258195E+03  0.35189982464E+03  0.48525295333E+03  0.00000000000E+00 0.  1.
          4    1    6    6  502    0 -0.98016332545E+02 -0.32573987852E+03 -0.20768193856E+03  0.39855420899E+03  0.00000000000E+00 0. -1.
          3    1    5    5  503    0 -0.34671902400E+02  0.15089836327E+02 -0.42977241482E+01  0.38056726203E+02  0.00000000000E+00 0. -1.
         -4    1    5    5    0  503 -0.12645414283E+03  0.20503699685E+03  0.11893456314E+03  0.26865638021E+03  0.00000000000E+00 0.  1.
         -3    1    6    6    0  502 -0.11176082540E+03 -0.37479074114E+03 -0.14487442366E+03  0.41706975480E+03  0.00000000000E+00 0.  1.
<mgrwt>
<rscale>  0 0.20151369E+04</rscale>
<asrwt>0</asrwt>
<pdfrwt beam="1">  1        2 0.19711197E+00 0.20151369E+04</pdfrwt>
<pdfrwt beam="2">  1       -2 0.12190160E+00 0.20151369E+04</pdfrwt>
<totfact> 0.80344806E+00</totfact>
</mgrwt>
</event>
<event>
12    1  0.1489233E-007  0.1999631E+04  0.7818608E-02  0.8606793E-01
         -2   -1    0    0    0  501 -0.00000000000E+00  0.00000000000E+00  0.47857075379E+03  0.47857075379E+03  0.00000000000E+00 0.  1.
          2   -1    0    0  501    0  0.00000000000E+00 -0.00000000000E+00 -0.20887840659E+04  0.20887840659E+04  0.00000000000E+00 0. -1.
         23    2    1    2    0    0  0.63902919131E+03  0.40431916122E+02 -0.12417214430E+04  0.14000934579E+04  0.91632427958E+02 0.  0.
        254    2    1    2    0    0 -0.63902919131E+03 -0.40431916122E+02 -0.36849186909E+03  0.11672613617E+04  0.90372550133E+03 0.  0.
        -24    2    4    4    0    0 -0.21695432624E+02 -0.14487403916E+03  0.23797287161E+03  0.29170497715E+03  0.83675128038E+02 0.  0.
         24    2    4    4    0    0 -0.61733375869E+03  0.10444212304E+03 -0.60646474070E+03  0.87555638456E+03  0.82403726498E+02 0.  0.
         13    1    3    3    0    0  0.30913158848E+03  0.64948930389E+02 -0.59186305160E+03  0.67088193775E+03  0.00000000000E+00 0. -1.
        -13    1    3    3    0    0  0.32989760283E+03 -0.24517014267E+02 -0.64985839138E+03  0.72921152020E+03  0.00000000000E+00 0.  1.
          4    1    6    6  502    0 -0.21436937323E+03  0.63192890898E+02 -0.25690263705E+03  0.34050922831E+03  0.00000000000E+00 0. -1.
          3    1    5    5  503    0 -0.42557185361E+02 -0.93089970989E+02  0.19848508289E+03  0.22332305043E+03  0.00000000000E+00 0. -1.
         -4    1    5    5    0  503  0.20861752737E+02 -0.51784068172E+02  0.39487788723E+02  0.68381926720E+02  0.00000000000E+00 0.  1.
         -3    1    6    6    0  502 -0.40296438546E+03  0.41249232141E+02 -0.34956210365E+03  0.53504715625E+03  0.00000000000E+00 0.  1.
<mgrwt>
<rscale>  0 0.19996309E+04</rscale>
<asrwt>0</asrwt>
<pdfrwt beam="1">  1        2 0.32135139E+00 0.19996309E+04</pdfrwt>
<pdfrwt beam="2">  1       -2 0.73626271E-01 0.19996309E+04</pdfrwt>
<totfact> 0.92132204E+00</totfact>
</mgrwt>
</event>
<event>
12    1  0.1489233E-007  0.1235415E+04  0.7818608E-02  0.9082411E-01
         -2   -1    0    0    0  501 -0.00000000000E+00  0.00000000000E+00  0.17216671341E+03  0.17216671341E+03  0.00000000000E+00 0.  1.
          2   -1    0    0  501    0  0.00000000000E+00 -0.00000000000E+00 -0.22162380047E+04  0.22162380047E+04  0.00000000000E+00 0. -1.
         23    2    1    2    0    0 -0.17701238161E+03 -0.11865619895E+03 -0.12807638580E+03  0.26425977361E+03  0.89537648805E+02 0.  0.
        254    2    1    2    0    0  0.17701238161E+03  0.11865619895E+03 -0.19159949055E+04  0.21241449445E+04  0.89193194283E+03 0.  0.
        -24    2    4    4    0    0  0.12095491781E+03 -0.24286458449E+03 -0.15388833147E+03  0.32278435220E+03  0.83035058370E+02 0.  0.
         24    2    4    4    0    0  0.56057463805E+02  0.36152078345E+03 -0.17621065740E+04  0.18013605923E+04  0.77721870989E+02 0.  0.
         11    1    3    3    0    0 -0.15418048750E+03 -0.10692507364E+03 -0.14176973316E+03  0.23516643328E+03  0.00000000000E+00 0.  1.
        -11    1    3    3    0    0 -0.22831894107E+02 -0.11731125308E+02  0.13693347360E+02  0.29093340328E+02  0.00000000000E+00 0. -1.
          2    1    6    6  502    0 -0.13829891170E+02  0.53415985007E+02 -0.35175574269E+03  0.35605706826E+03  0.00000000000E+00 0. -1.
          3    1    5    5  503    0  0.38145857941E+01 -0.66297597167E+02 -0.65254823748E+02  0.93102709291E+02  0.00000000000E+00 0. -1.
         -4    1    5    5    0  503  0.11714033201E+03 -0.17656698733E+03 -0.88633507725E+02  0.22968164291E+03  0.00000000000E+00 0.  1.
         -1    1    6    6    0  502  0.69887354975E+02  0.30810479844E+03 -0.14103508313E+04  0.14453035240E+04  0.00000000000E+00 0.  1.
<mgrwt>
<rscale>  0 0.12354148E+04</rscale>
<asrwt>0</asrwt>
<pdfrwt beam="1">  1        2 0.34095967E+00 0.12354148E+04</pdfrwt>
<pdfrwt beam="2">  1       -2 0.26487189E-01 0.12354148E+04</pdfrwt>
<totfact> 0.64445211E+01</totfact>
</mgrwt>
</event>
<event>
12    1  0.1489233E-007  0.1485943E+04  0.7818608E-02  0.8893855E-01
          1   -1    0    0  501    0  0.00000000000E+00  0.00000000000E+00  0.26014303278E+04  0.26014303278E+04  0.00000000000E+00 0. -1.
         -1   -1    0    0    0  501 -0.00000000000E+00 -0.00000000000E+00 -0.21219341681E+03  0.21219341681E+03  0.00000000000E+00 0.  1.
         23    2    1    2    0    0  0.38234044407E+02 -0.21517161365E+03  0.15295422179E+04  0.15481197498E+04  0.97029366032E+02 0.  0.
        254    2    1    2    0    0 -0.38234044407E+02  0.21517161365E+03  0.85969469307E+03  0.12655039948E+04  0.90258779634E+03 0.  0.
        -24    2    4    4    0    0  0.11817646597E+03 -0.28409040017E+03  0.59259802584E+03  0.67262293938E+03  0.81093561858E+02 0.  0.
         24    2    4    4    0    0 -0.15641051038E+03  0.49926201383E+03  0.26709666724E+03  0.59288105543E+03  0.80252788304E+02 0.  0.
         11    1    3    3    0    0  0.26662762111E+02 -0.21499223556E+03  0.12719094109E+04  0.12902271559E+04  0.00000000000E+00 0. -1.
        -11    1    3    3    0    0  0.11571282296E+02 -0.17937809244E+00  0.25763280692E+03  0.25789259383E+03  0.00000000000E+00 0.  1.
          2    1    6    6  502    0 -0.12762189314E+02  0.15735379523E+03  0.92561940749E+02  0.18300492678E+03  0.00000000000E+00 0. -1.
          1    1    5    5  503    0  0.21761639081E+00 -0.47137910084E+02  0.14662993212E+03  0.15402067043E+03  0.00000000000E+00 0. -1.
         -2    1    5    5    0  503  0.11795884958E+03 -0.23695249009E+03  0.44596809371E+03  0.51860226895E+03  0.00000000000E+00 0.  1.
         -1    1    6    6    0  502 -0.14364832107E+03  0.34190821859E+03  0.17453472649E+03  0.40987612865E+03  0.00000000000E+00 0.  1.
<mgrwt>
<rscale>  0 0.14859427E+04</rscale>
<asrwt>0</asrwt>
<pdfrwt beam="1">  1        1 0.40022003E+00 0.14859427E+04</pdfrwt>
<pdfrwt beam="2">  1       -1 0.32645143E-01 0.14859427E+04</pdfrwt>
<totfact> 0.98305108E+00</totfact>
</mgrwt>
</event>
<event>
12    1  0.1489233E-007  0.1253178E+04  0.7818608E-02  0.9067543E-01
         -1   -1    0    0    0  501 -0.00000000000E+00  0.00000000000E+00  0.15809766263E+03  0.15809766263E+03  0.00000000000E+00 0.  1.
          1   -1    0    0  501    0  0.00000000000E+00 -0.00000000000E+00 -0.24833611496E+04  0.24833611496E+04  0.00000000000E+00 0. -1.
         23    2    1    2    0    0 -0.11681625707E+03 -0.18102018000E+03 -0.14812831240E+03  0.27638455616E+03  0.89621886106E+02 0.  0.
        254    2    1    2    0    0  0.11681625707E+03  0.18102018000E+03 -0.21771351746E+04  0.23650742561E+04  0.89846776508E+03 0.  0.
        -24    2    4    4    0    0  0.32377814617E+03  0.24987891162E+03 -0.41659974694E+03  0.58926709676E+03  0.80053755462E+02 0.  0.
         24    2    4    4    0    0 -0.20696188911E+03 -0.68858731621E+02 -0.17605354276E+04  0.17758071593E+04  0.80195552444E+02 0.  0.
         11    1    3    3    0    0 -0.29187524195E+02  0.25866111467E+01 -0.25463745280E+02  0.38820155197E+02  0.00000000000E+00 0.  1.
        -11    1    3    3    0    0 -0.87628732871E+02 -0.18360679115E+03 -0.12266456712E+03  0.23756440097E+03  0.00000000000E+00 0. -1.
          4    1    6    6  502    0 -0.16753380490E+03 -0.28742863767E+02 -0.11225204656E+04  0.11353175431E+04  0.00000000000E+00 0. -1.
          1    1    5    5  503    0  0.56585576402E+02  0.11222257519E+02 -0.71029897617E+02  0.91504715048E+02  0.00000000000E+00 0. -1.
         -2    1    5    5    0  503  0.26719256977E+03  0.23865665410E+03 -0.34556984932E+03  0.49776238171E+03  0.00000000000E+00 0.  1.
         -3    1    6    6    0  502 -0.39428084204E+02 -0.40115867855E+02 -0.63801496206E+03  0.64048961623E+03  0.00000000000E+00 0.  1.
<mgrwt>
<rscale>  0 0.12531777E+04</rscale>
<asrwt>0</asrwt>
<pdfrwt beam="1">  1        1 0.38205553E+00 0.12531777E+04</pdfrwt>
<pdfrwt beam="2">  1       -1 0.24322719E-01 0.12531777E+04</pdfrwt>
<totfact> 0.20244620E+01</totfact>
</mgrwt>
</event>
<event>
12    1  0.1489233E-007  0.1609415E+04  0.7818608E-02  0.8814785E-01
         -2   -1    0    0    0  501 -0.00000000000E+00  0.00000000000E+00  0.77351109191E+03  0.77351109191E+03  0.00000000000E+00 0.  1.
          2   -1    0    0  501    0  0.00000000000E+00 -0.00000000000E+00 -0.83716201118E+03  0.83716201118E+03  0.00000000000E+00 0. -1.
         23    2    1    2    0    0 -0.40001604726E+03 -0.11830480939E+03  0.33951404682E+03  0.54542015256E+03  0.90578633471E+02 0.  0.
        254    2    1    2    0    0  0.40001604726E+03  0.11830480939E+03 -0.40316496609E+03  0.10652529505E+04  0.89342766509E+03 0.  0.
        -24    2    4    4    0    0 -0.12776825871E+03  0.18273221543E+03  0.16124319732E+03  0.28651903866E+03  0.79862383766E+02 0.  0.
         24    2    4    4    0    0  0.52778430596E+03 -0.64427406047E+02 -0.56440816342E+03  0.77873391187E+03  0.71852392435E+02 0.  0.
         11    1    3    3    0    0 -0.32566687971E+03 -0.95912256491E+02  0.31721742519E+03  0.46463423500E+03  0.00000000000E+00 0.  1.
        -11    1    3    3    0    0 -0.74349167548E+02 -0.22392552896E+02  0.22296621625E+02  0.80785917561E+02  0.00000000000E+00 0. -1.
          4    1    6    6  502    0  0.45852789063E+03 -0.75110826725E+02 -0.46731353381E+03  0.65899271745E+03  0.00000000000E+00 0. -1.
          1    1    5    5  503    0 -0.13219716597E+03  0.17056310509E+03  0.16648036178E+03  0.27255013184E+03  0.00000000000E+00 0. -1.
         -2    1    5    5    0  503  0.44289072591E+01  0.12169110340E+02 -0.52371644622E+01  0.13968906814E+02  0.00000000000E+00 0.  1.
         -1    1    6    6    0  502  0.69256415337E+02  0.10683420678E+02 -0.97094629609E+02  0.11974119442E+03  0.00000000000E+00 0.  1.
<mgrwt>
<rscale>  0 0.16094149E+04</rscale>
<asrwt>0</asrwt>
<pdfrwt beam="1">  1        2 0.12879416E+00 0.16094149E+04</pdfrwt>
<pdfrwt beam="2">  1       -2 0.11900171E+00 0.16094149E+04</pdfrwt>
<totfact> 0.16833659E+01</totfact>
</mgrwt>
</event>
<event>
12    1  0.1489233E-007  0.1604982E+04  0.7818608E-02  0.8817493E-01
          2   -1    0    0  501    0  0.00000000000E+00  0.00000000000E+00  0.41827159347E+04  0.41827159347E+04  0.00000000000E+00 0. -1.
         -2   -1    0    0    0  501 -0.00000000000E+00 -0.00000000000E+00 -0.15396504237E+03  0.15396504237E+03  0.00000000000E+00 0.  1.
         23    2    1    2    0    0 -0.43364522175E+03 -0.35758459289E+03  0.19728927106E+04  0.20534765312E+04  0.92440776117E+02 0.  0.
        254    2    1    2    0    0  0.43364522175E+03  0.35758459289E+03  0.20558581817E+04  0.22832044459E+04  0.81887408009E+03 0.  0.
        -24    2    4    4    0    0  0.38146371559E+03  0.54087050667E+03  0.96485754038E+03  0.11727597613E+04  0.79749063882E+02 0.  0.
         24    2    4    4    0    0  0.52181506158E+02 -0.18328591378E+03  0.10910006414E+04  0.11104446846E+04  0.80550371828E+02 0.  0.
         13    1    3    3    0    0 -0.23967081780E+03 -0.15596355684E+03  0.87735376619E+03  0.92277644260E+03  0.00000000000E+00 0.  1.
        -13    1    3    3    0    0 -0.19397440395E+03 -0.20162103605E+03  0.10955389444E+04  0.11307000886E+04  0.00000000000E+00 0. -1.
          4    1    6    6  502    0 -0.62113412369E+01 -0.76377229956E+02  0.27797658391E+03  0.28834535408E+03  0.00000000000E+00 0. -1.
          3    1    5    5  503    0  0.20103795831E+02  0.30548553089E+02  0.26587257376E+02  0.45213482032E+02  0.00000000000E+00 0. -1.
         -4    1    5    5    0  503  0.36135991976E+03  0.51032195358E+03  0.93827028300E+03  0.11275462793E+04  0.00000000000E+00 0.  1.
         -1    1    6    6    0  502  0.58392847395E+02 -0.10690868382E+03  0.81302405745E+03  0.82209933055E+03  0.00000000000E+00 0.  1.
<mgrwt>
<rscale>  0 0.16049823E+04</rscale>
<asrwt>0</asrwt>
<pdfrwt beam="1">  1        2 0.64349467E+00 0.16049823E+04</pdfrwt>
<pdfrwt beam="2">  1       -2 0.23686933E-01 0.16049823E+04</pdfrwt>
<totfact> 0.37362290E+00</totfact>
</mgrwt>
</event>
<event>
12    1  0.1489233E-007  0.1470302E+04  0.7818608E-02  0.8904445E-01
          3   -1    0    0  501    0  0.00000000000E+00  0.00000000000E+00  0.73401454019E+03  0.73401454019E+03  0.00000000000E+00 0. -1.
         -3   -1    0    0    0  501 -0.00000000000E+00 -0.00000000000E+00 -0.73628944315E+03  0.73628944315E+03  0.00000000000E+00 0.  1.
         23    2    1    2    0    0  0.10385138975E+01  0.44057321026E+03  0.11136989349E+03  0.46339994215E+03  0.90721668326E+02 0.  0.
        254    2    1    2    0    0 -0.10385138975E+01 -0.44057321026E+03 -0.11364479645E+03  0.10069040412E+04  0.89823982115E+03 0.  0.
        -24    2    4    4    0    0  0.37712043134E+03 -0.31894388515E+03  0.15114414812E+03  0.52282931776E+03  0.80999508539E+02 0.  0.
         24    2    4    4    0    0 -0.37815894524E+03 -0.12162932510E+03 -0.26478894457E+03  0.48407472344E+03  0.80107877983E+02 0.  0.
         13    1    3    3    0    0 -0.12296610536E+02  0.42911463042E+03  0.11698167789E+03  0.44494413766E+03  0.00000000000E+00 0. -1.
        -13    1    3    3    0    0  0.13335124433E+02  0.11458579837E+02 -0.56117843997E+01  0.18455804499E+02  0.00000000000E+00 0.  1.
          4    1    6    6  502    0 -0.13986675767E+02  0.81905463939E+01 -0.22778633007E+02  0.27956721391E+02  0.00000000000E+00 0. -1.
          1    1    5    5  503    0  0.25141295624E+03 -0.17219358738E+03  0.66642857557E+02  0.31193008281E+03  0.00000000000E+00 0. -1.
         -2    1    5    5    0  503  0.12570747510E+03 -0.14675029778E+03  0.84501290561E+02  0.21089923494E+03  0.00000000000E+00 0.  1.
         -3    1    6    6    0  502 -0.36417226947E+03 -0.12981987150E+03 -0.24201031156E+03  0.45611800205E+03  0.00000000000E+00 0.  1.
<mgrwt>
<rscale>  0 0.14703022E+04</rscale>
<asrwt>0</asrwt>
<pdfrwt beam="1">  1        3 0.11292531E+00 0.14703022E+04</pdfrwt>
<pdfrwt beam="2">  1       -3 0.11327530E+00 0.14703022E+04</pdfrwt>
<totfact> 0.10814708E+00</totfact>
</mgrwt>
</event>
<event>
12    1  0.1489233E-007  0.1499339E+04  0.7818608E-02  0.8884893E-01
          1   -1    0    0  501    0  0.00000000000E+00  0.00000000000E+00  0.10723002839E+04  0.10723002839E+04  0.00000000000E+00 0. -1.
         -1   -1    0    0    0  501 -0.00000000000E+00 -0.00000000000E+00 -0.52411082649E+03  0.52411082649E+03  0.00000000000E+00 0.  1.
         23    2    1    2    0    0 -0.10947089833E+03  0.46532522803E+03  0.23172992545E+03  0.53889280100E+03  0.90527604586E+02 0.  0.
        254    2    1    2    0    0  0.10947089833E+03 -0.46532522803E+03  0.31645953199E+03  0.10575183094E+04  0.88864328837E+03 0.  0.
        -24    2    4    4    0    0  0.36971362428E+03 -0.53790266540E+03  0.39273245840E+03  0.76595777529E+03  0.80156648117E+02 0.  0.
         24    2    4    4    0    0 -0.26024272595E+03  0.72577437363E+02 -0.76272926414E+02  0.29156053413E+03  0.78716103402E+02 0.  0.
         11    1    3    3    0    0 -0.10113623200E+03  0.46165097312E+03  0.23665152165E+03  0.52853959275E+03  0.00000000000E+00 0. -1.
        -11    1    3    3    0    0 -0.83346663216E+01  0.36742549105E+01 -0.49215961955E+01  0.10353208244E+02  0.00000000000E+00 0.  1.
          2    1    6    6  502    0 -0.13727078187E+03  0.71857914551E+02 -0.65160416453E+02  0.16808541671E+03  0.00000000000E+00 0. -1.
          1    1    5    5  503    0  0.77823264401E+01 -0.40889615054E+02  0.14373236750E+02  0.44035385303E+02  0.00000000000E+00 0. -1.
         -2    1    5    5    0  503  0.36193129784E+03 -0.49701305034E+03  0.37835922165E+03  0.72192238999E+03  0.00000000000E+00 0.  1.
         -1    1    6    6    0  502 -0.12297194408E+03  0.71952281197E+00 -0.11112509961E+02  0.12347511742E+03  0.00000000000E+00 0.  1.
<mgrwt>
<rscale>  0 0.14993388E+04</rscale>
<asrwt>0</asrwt>
<pdfrwt beam="1">  1        1 0.16496927E+00 0.14993388E+04</pdfrwt>
<pdfrwt beam="2">  1       -1 0.80632435E-01 0.14993388E+04</pdfrwt>
<totfact> 0.19748884E+01</totfact>
</mgrwt>
</event>
<event>
12    1  0.1489233E-007  0.1794174E+04  0.7818608E-02  0.8709404E-01
         -2   -1    0    0    0  501 -0.00000000000E+00  0.00000000000E+00  0.46749724987E+03  0.46749724987E+03  0.00000000000E+00 0.  1.
          2   -1    0    0  501    0  0.00000000000E+00 -0.00000000000E+00 -0.17214332818E+04  0.17214332818E+04  0.00000000000E+00 0. -1.
         23    2    1    2    0    0  0.58948301360E+03  0.21504561429E+03 -0.49087783075E+03  0.80203408759E+03  0.92535362975E+02 0.  0.
        254    2    1    2    0    0 -0.58948301360E+03 -0.21504561429E+03 -0.76305820118E+03  0.13868964441E+04  0.97339051190E+03 0.  0.
        -24    2    4    4    0    0 -0.59359659871E+03 -0.27552299167E+02 -0.94189952051E+03  0.11165504801E+04  0.79963845660E+02 0.  0.
         24    2    4    4    0    0  0.41135851146E+01 -0.18749331512E+03  0.17884131932E+03  0.27034596401E+03  0.77019854341E+02 0.  0.
         13    1    3    3    0    0  0.18760518254E+03  0.79493645075E+02 -0.21428432772E+03  0.29569023864E+03  0.00000000000E+00 0.  1.
        -13    1    3    3    0    0  0.40187783106E+03  0.13555196921E+03 -0.27659350303E+03  0.50634384895E+03  0.00000000000E+00 0. -1.
          2    1    6    6  502    0 -0.10236718108E+01 -0.11995451082E+02 -0.76083935738E+01  0.14241713500E+02  0.00000000000E+00 0. -1.
          1    1    5    5  503    0 -0.21354382712E+03  0.15588950094E+02 -0.28594421950E+03  0.35722272903E+03  0.00000000000E+00 0. -1.
         -2    1    5    5    0  503 -0.38005277159E+03 -0.43141249261E+02 -0.65595530101E+03  0.75932775104E+03  0.00000000000E+00 0.  1.
         -1    1    6    6    0  502  0.51372569253E+01 -0.17549786404E+03  0.18644971290E+03  0.25610425051E+03  0.00000000000E+00 0.  1.
<mgrwt>
<rscale>  0 0.17941743E+04</rscale>
<asrwt>0</asrwt>
<pdfrwt beam="1">  1        2 0.26483588E+00 0.17941743E+04</pdfrwt>
<pdfrwt beam="2">  1       -2 0.71922655E-01 0.17941743E+04</pdfrwt>
<totfact> 0.15784094E+01</totfact>
</mgrwt>
</event>
<event>
12    1  0.1489233E-007  0.2280111E+04  0.7818608E-02  0.8485804E-01
         -1   -1    0    0    0  501 -0.00000000000E+00  0.00000000000E+00  0.89522163051E+03  0.89522163051E+03  0.00000000000E+00 0.  1.
          1   -1    0    0  501    0  0.00000000000E+00 -0.00000000000E+00 -0.14518492557E+04  0.14518492557E+04  0.00000000000E+00 0. -1.
         23    2    1    2    0    0  0.77624924495E+03  0.40541631487E+03 -0.64335889444E+03  0.10908856063E+04  0.95892962513E+02 0.  0.
        254    2    1    2    0    0 -0.77624924495E+03 -0.40541631487E+03  0.86731269208E+02  0.12561852800E+04  0.89641166097E+03 0.  0.
        -24    2    4    4    0    0 -0.51154737228E+03  0.11511629474E+03  0.32272209520E+03  0.62101015142E+03  0.81065294865E+02 0.  0.
         24    2    4    4    0    0 -0.26470187267E+03 -0.52053260961E+03 -0.23599082600E+03  0.63517512855E+03  0.82063968477E+02 0.  0.
         11    1    3    3    0    0  0.30620904368E+03  0.16785295449E+03 -0.19975736881E+03  0.40229541280E+03  0.00000000000E+00 0. -1.
        -11    1    3    3    0    0  0.47004020127E+03  0.23756336038E+03 -0.44360152563E+03  0.68859019347E+03  0.00000000000E+00 0.  1.
          2    1    6    6  502    0 -0.14517732837E+03 -0.25391665976E+03 -0.15947673632E+03  0.33314104551E+03  0.00000000000E+00 0. -1.
          1    1    5    5  503    0 -0.26151522718E+03  0.60664708533E+02  0.21252137336E+03  0.34239707219E+03  0.00000000000E+00 0. -1.
         -2    1    5    5    0  503 -0.25003214510E+03  0.54451586204E+02  0.11020072185E+03  0.27861307923E+03  0.00000000000E+00 0.  1.
         -1    1    6    6    0  502 -0.11952454430E+03 -0.26661594984E+03 -0.76514089681E+02  0.30203408305E+03  0.00000000000E+00 0.  1.
<mgrwt>
<rscale>  0 0.22801113E+04</rscale>
<asrwt>0</asrwt>
<pdfrwt beam="1">  1        1 0.22336142E+00 0.22801113E+04</pdfrwt>
<pdfrwt beam="2">  1       -1 0.13772641E+00 0.22801113E+04</pdfrwt>
<totfact> 0.27990642E+00</totfact>
</mgrwt>
</event>
<event>
12    1  0.1489233E-007  0.1587939E+04  0.7818608E-02  0.8827992E-01
          1   -1    0    0  501    0  0.00000000000E+00  0.00000000000E+00  0.81355151670E+03  0.81355151670E+03  0.00000000000E+00 0. -1.
         -1   -1    0    0    0  501 -0.00000000000E+00 -0.00000000000E+00 -0.77485834256E+03  0.77485834256E+03  0.00000000000E+00 0.  1.
         23    2    1    2    0    0  0.45177540892E+02  0.34210261907E+03  0.41588172030E+03  0.54842351395E+03  0.93464074388E+02 0.  0.
        254    2    1    2    0    0 -0.45177540892E+02 -0.34210261907E+03 -0.37718854616E+03  0.10399863453E+04  0.90566284394E+03 0.  0.
        -24    2    4    4    0    0 -0.11364489758E+03 -0.42786561572E+03 -0.61746408608E+03  0.76393033715E+03  0.79646183574E+02 0.  0.
         24    2    4    4    0    0  0.68467356689E+02  0.85762996652E+02  0.24027553993E+03  0.27605600815E+03  0.80196720777E+02 0.  0.
         11    1    3    3    0    0  0.13105190549E+02  0.21442568846E+03  0.32058303310E+03  0.38590621011E+03  0.00000000000E+00 0. -1.
        -11    1    3    3    0    0  0.32072350343E+02  0.12767693061E+03  0.95298687207E+02  0.16251730385E+03  0.00000000000E+00 0.  1.
          4    1    6    6  502    0  0.35721600816E+02  0.92286740534E+02  0.14903011099E+03  0.17889340185E+03  0.00000000000E+00 0. -1.
          1    1    5    5  503    0 -0.70686000350E+02 -0.23527770025E+03 -0.27552941920E+03  0.36914572695E+03  0.00000000000E+00 0. -1.
         -2    1    5    5    0  503 -0.42958897231E+02 -0.19258791547E+03 -0.34193466688E+03  0.39478461020E+03  0.00000000000E+00 0.  1.
         -3    1    6    6    0  502  0.32745755872E+02 -0.65237438824E+01  0.91245428937E+02  0.97162606304E+02  0.00000000000E+00 0.  1.
<mgrwt>
<rscale>  0 0.15879385E+04</rscale>
<asrwt>0</asrwt>
<pdfrwt beam="1">  1        1 0.12516177E+00 0.15879385E+04</pdfrwt>
<pdfrwt beam="2">  1       -1 0.11920898E+00 0.15879385E+04</pdfrwt>
<totfact> 0.13007419E+01</totfact>
</mgrwt>
</event>
<event>
12    1  0.1489233E-007  0.1739939E+04  0.7818608E-02  0.8738908E-01
         -1   -1    0    0    0  501 -0.00000000000E+00  0.00000000000E+00  0.42310082548E+03  0.42310082548E+03  0.00000000000E+00 0.  1.
          1   -1    0    0  501    0  0.00000000000E+00 -0.00000000000E+00 -0.17888092142E+04  0.17888092142E+04  0.00000000000E+00 0. -1.
         23    2    1    2    0    0  0.61798150345E+03  0.12527259358E+03 -0.47009532360E+03  0.79148898765E+03  0.88717771526E+02 0.  0.
        254    2    1    2    0    0 -0.61798150345E+03 -0.12527259358E+03 -0.89561306516E+03  0.14204210521E+04  0.90436654148E+03 0.  0.
        -24    2    4    4    0    0 -0.59323649552E+03 -0.16604726232E+03 -0.10615076978E+04  0.12298704731E+04  0.79256263112E+02 0.  0.
         24    2    4    4    0    0 -0.24745007937E+02  0.40774668735E+02  0.16589463262E+03  0.19055057896E+03  0.80706907881E+02 0.  0.
         11    1    3    3    0    0  0.36433980946E+03  0.97719668038E+02 -0.23416377757E+03  0.44398795592E+03  0.00000000000E+00 0.  1.
        -11    1    3    3    0    0  0.25364169399E+03  0.27552925546E+02 -0.23593154603E+03  0.34750103173E+03  0.00000000000E+00 0. -1.
          4    1    6    6  502    0 -0.19222073475E+02 -0.63255531121E+01  0.24723312244E+01  0.20386592470E+02  0.00000000000E+00 0. -1.
          3    1    5    5  503    0 -0.15490623773E+03 -0.10654472330E+02 -0.23962357052E+03  0.28553268783E+03  0.00000000000E+00 0. -1.
         -4    1    5    5    0  503 -0.43833025779E+03 -0.15539278999E+03 -0.82188412726E+03  0.94433778529E+03  0.00000000000E+00 0.  1.
         -3    1    6    6    0  502 -0.55229344626E+01  0.47100221847E+02  0.16342230140E+03  0.17016398649E+03  0.00000000000E+00 0.  1.
<mgrwt>
<rscale>  0 0.17399387E+04</rscale>
<asrwt>0</asrwt>
<pdfrwt beam="1">  1        1 0.27520141E+00 0.17399387E+04</pdfrwt>
<pdfrwt beam="2">  1       -1 0.65092435E-01 0.17399387E+04</pdfrwt>
<totfact> 0.94090350E+00</totfact>
</mgrwt>
</event>
<event>
12    1  0.1489233E-007  0.1961433E+04  0.7818608E-02  0.8624867E-01
         -1   -1    0    0    0  501 -0.00000000000E+00  0.00000000000E+00  0.54734633852E+03  0.54734633852E+03  0.00000000000E+00 0.  1.
          1   -1    0    0  501    0  0.00000000000E+00 -0.00000000000E+00 -0.17572151572E+04  0.17572151572E+04  0.00000000000E+00 0. -1.
         23    2    1    2    0    0  0.20862785388E+03  0.14748180313E+03 -0.13250552374E+04  0.13525056512E+04  0.90684567204E+02 0.  0.
        254    2    1    2    0    0 -0.20862785388E+03 -0.14748180313E+03  0.11518641870E+03  0.95205584453E+03  0.90987139552E+03 0.  0.
        -24    2    4    4    0    0 -0.47463021584E+03 -0.35085641633E+03  0.12035514915E+03  0.60769638557E+03  0.80221371491E+02 0.  0.
         24    2    4    4    0    0  0.26600236196E+03  0.20337461320E+03 -0.51687304570E+01  0.34435945896E+03  0.80238590088E+02 0.  0.
         11    1    3    3    0    0  0.19582714832E+03  0.98468198664E+02 -0.11235067079E+04  0.11446884208E+04  0.00000000000E+00 0. -1.
        -11    1    3    3    0    0  0.12800705563E+02  0.49013604463E+02 -0.20154852955E+03  0.20781723039E+03  0.00000000000E+00 0.  1.
          4    1    6    6  502    0  0.37211399332E+02  0.61101422102E+02 -0.20751313292E+02  0.74489522931E+02  0.00000000000E+00 0. -1.
          3    1    5    5  503    0 -0.16984341506E+02  0.82878479828E+00 -0.35686997597E+01  0.17374992334E+02  0.00000000000E+00 0. -1.
         -4    1    5    5    0  503 -0.45764587433E+03 -0.35168520112E+03  0.12392384891E+03  0.59032139323E+03  0.00000000000E+00 0.  1.
         -3    1    6    6    0  502  0.22879096263E+03  0.14227319110E+03  0.15582582835E+02  0.26986993603E+03  0.00000000000E+00 0.  1.
<mgrwt>
<rscale>  0 0.19614334E+04</rscale>
<asrwt>0</asrwt>
<pdfrwt beam="1">  1        1 0.27034079E+00 0.19614334E+04</pdfrwt>
<pdfrwt beam="2">  1       -1 0.84207131E-01 0.19614334E+04</pdfrwt>
<totfact> 0.56646739E+00</totfact>
</mgrwt>
</event>
<event>
12    1  0.1489233E-007  0.1182550E+04  0.7818608E-02  0.9128269E-01
          1   -1    0    0  501    0  0.00000000000E+00  0.00000000000E+00  0.12389682063E+04  0.12389682063E+04  0.00000000000E+00 0. -1.
         -1   -1    0    0    0  501 -0.00000000000E+00 -0.00000000000E+00 -0.28217544140E+03  0.28217544140E+03  0.00000000000E+00 0.  1.
         23    2    1    2    0    0  0.14798237365E+03  0.12441916369E+03  0.38801831473E+03  0.44296411074E+03  0.90994942909E+02 0.  0.
        254    2    1    2    0    0 -0.14798237365E+03 -0.12441916369E+03  0.56877445015E+03  0.10781795369E+04  0.89531437356E+03 0.  0.
        -24    2    4    4    0    0 -0.37950611566E+03 -0.39263147268E+03  0.36782610129E+03  0.66299920556E+03  0.78022692924E+02 0.  0.
         24    2    4    4    0    0  0.23152374201E+03  0.26821230899E+03  0.20094834886E+03  0.41518033138E+03  0.80332949928E+02 0.  0.
         11    1    3    3    0    0  0.14163657845E+03  0.10650956115E+03  0.38486259923E+03  0.42370323017E+03  0.00000000000E+00 0. -1.
        -11    1    3    3    0    0  0.63457952072E+01  0.17909602547E+02  0.31557155001E+01  0.19260880575E+02  0.00000000000E+00 0.  1.
          4    1    6    6  502    0  0.16822194999E+03  0.18620073937E+03  0.98788018134E+02  0.26968205785E+03  0.00000000000E+00 0. -1.
          1    1    5    5  503    0 -0.32041778671E+03 -0.28508516431E+03  0.28804872567E+03  0.51663640727E+03  0.00000000000E+00 0. -1.
         -2    1    5    5    0  503 -0.59088328951E+02 -0.10754630837E+03  0.79777375616E+02  0.14636279829E+03  0.00000000000E+00 0.  1.
         -3    1    6    6    0  502  0.63301792023E+02  0.82011569617E+02  0.10216033073E+03  0.14549827353E+03  0.00000000000E+00 0.  1.
<mgrwt>
<rscale>  0 0.11825505E+04</rscale>
<asrwt>0</asrwt>
<pdfrwt beam="1">  1        1 0.19061049E+00 0.11825505E+04</pdfrwt>
<pdfrwt beam="2">  1       -1 0.43411607E-01 0.11825505E+04</pdfrwt>
<totfact> 0.51918176E+01</totfact>
</mgrwt>
</event>
<event>
12    1  0.1489233E-007  0.2071557E+04  0.7818608E-02  0.8573877E-01
          2   -1    0    0  501    0  0.00000000000E+00  0.00000000000E+00  0.12848523749E+04  0.12848523749E+04  0.00000000000E+00 0. -1.
         -2   -1    0    0    0  501 -0.00000000000E+00 -0.00000000000E+00 -0.83498833457E+03  0.83498833457E+03  0.00000000000E+00 0.  1.
         23    2    1    2    0    0  0.83059617525E+03 -0.49051006395E+02  0.58404947882E+02  0.83910825757E+03  0.91627083483E+02 0.  0.
        254    2    1    2    0    0 -0.83059617525E+03  0.49051006395E+02  0.39145909247E+03  0.12807324519E+04  0.89148156724E+03 0.  0.
        -24    2    4    4    0    0  0.34339856937E+02  0.11512098492E+03 -0.18616028275E+03  0.23614235077E+03  0.81703684169E+02 0.  0.
         24    2    4    4    0    0 -0.86493603218E+03 -0.66069978529E+02  0.57761937522E+03  0.10445901011E+04  0.71026438313E+02 0.  0.
         13    1    3    3    0    0  0.35013310529E+03 -0.67823311960E+01  0.67782753243E+02  0.35669832222E+03  0.00000000000E+00 0.  1.
        -13    1    3    3    0    0  0.48046306995E+03 -0.42268675199E+02 -0.93778053607E+01  0.48240993535E+03  0.00000000000E+00 0. -1.
          2    1    6    6  502    0 -0.51096173213E+03 -0.23873813241E+02  0.30230183408E+03  0.59417021934E+03  0.00000000000E+00 0. -1.
          3    1    5    5  503    0  0.18784792507E+02  0.12071272887E+03 -0.18182403918E+03  0.21905344682E+03  0.00000000000E+00 0. -1.
         -4    1    5    5    0  503  0.15555064430E+02 -0.55917439423E+01 -0.43362435698E+01  0.17088903944E+02  0.00000000000E+00 0.  1.
         -1    1    6    6    0  502 -0.35397430005E+03 -0.42196165288E+02  0.27531754115E+03  0.45041988181E+03  0.00000000000E+00 0.  1.
<mgrwt>
<rscale>  0 0.20715567E+04</rscale>
<asrwt>0</asrwt>
<pdfrwt beam="1">  1        2 0.19766960E+00 0.20715567E+04</pdfrwt>
<pdfrwt beam="2">  1       -2 0.12845974E+00 0.20715567E+04</pdfrwt>
<totfact> 0.69768683E+00</totfact>
</mgrwt>
</event>
<event>
12    1  0.1489233E-007  0.1200570E+04  0.7818608E-02  0.9112358E-01
          2   -1    0    0  501    0  0.00000000000E+00  0.00000000000E+00  0.51186324641E+03  0.51186324641E+03  0.00000000000E+00 0. -1.
         -2   -1    0    0    0  501 -0.00000000000E+00 -0.00000000000E+00 -0.70398104431E+03  0.70398104431E+03  0.00000000000E+00 0.  1.
         23    2    1    2    0    0 -0.21344089702E+03  0.12185207363E+02 -0.14479311361E+03  0.27365413062E+03  0.90642383332E+02 0.  0.
        254    2    1    2    0    0  0.21344089702E+03 -0.12185207363E+02 -0.47324684289E+02  0.94219016011E+03  0.91639357061E+03 0.  0.
        -24    2    4    4    0    0  0.45976450893E+03 -0.29671469079E+03  0.11396709804E+02  0.55299890888E+03  0.79087905685E+02 0.  0.
         24    2    4    4    0    0 -0.24632361192E+03  0.28452948342E+03 -0.58721394093E+02  0.38919125123E+03  0.79932966795E+02 0.  0.
         13    1    3    3    0    0 -0.14142764311E+03  0.69374685816E+01 -0.14326784438E+03  0.20143381529E+03  0.00000000000E+00 0.  1.
        -13    1    3    3    0    0 -0.72013253902E+02  0.52477387818E+01 -0.15252692288E+01  0.72220315328E+02  0.00000000000E+00 0. -1.
          4    1    6    6  502    0 -0.22201083885E+03  0.22141416031E+03 -0.68238768815E+02  0.32088872296E+03  0.00000000000E+00 0. -1.
          1    1    5    5  503    0  0.36291525252E+03 -0.26834166363E+03  0.19382270544E+02  0.45176365653E+03  0.00000000000E+00 0. -1.
         -2    1    5    5    0  503  0.96849256416E+02 -0.28373027158E+02 -0.79855607404E+01  0.10123525235E+03  0.00000000000E+00 0.  1.
         -3    1    6    6    0  502 -0.24312773066E+02  0.63115323114E+02  0.95173747218E+01  0.68302528266E+02  0.00000000000E+00 0.  1.
<mgrwt>
<rscale>  0 0.12005699E+04</rscale>
<asrwt>0</asrwt>
<pdfrwt beam="1">  1        2 0.78748192E-01 0.12005699E+04</pdfrwt>
<pdfrwt beam="2">  1       -2 0.10830478E+00 0.12005699E+04</pdfrwt>
<totfact> 0.40332304E+01</totfact>
</mgrwt>
</event>
<event>
12    1  0.1489233E-007  0.1247661E+04  0.7818608E-02  0.9072132E-01
         -2   -1    0    0    0  501 -0.00000000000E+00  0.00000000000E+00  0.11483237553E+04  0.11483237553E+04  0.00000000000E+00 0. -1.
          2   -1    0    0  501    0  0.00000000000E+00 -0.00000000000E+00 -0.33889772433E+03  0.33889772433E+03  0.00000000000E+00 0.  1.
         23    2    1    2    0    0 -0.12746623128E+03  0.24422511928E+03  0.30178455738E+03  0.41869666524E+03  0.91320476404E+02 0.  0.
        254    2    1    2    0    0  0.12746623128E+03 -0.24422511928E+03  0.50764147356E+03  0.10685248144E+04  0.89897267157E+03 0.  0.
        -24    2    4    4    0    0  0.10506128770E+02  0.29646793354E+03  0.39160094199E+03  0.49763475105E+03  0.79280724818E+02 0.  0.
         24    2    4    4    0    0  0.11696010251E+03 -0.54069305282E+03  0.11604053157E+03  0.57089006331E+03  0.80133741162E+02 0.  0.
         13    1    3    3    0    0 -0.53020594562E+02  0.19219748130E+03  0.20461004308E+03  0.28568571017E+03  0.00000000000E+00 0. -1.
        -13    1    3    3    0    0 -0.74445636723E+02  0.52027637974E+02  0.97174514301E+02  0.13301095507E+03  0.00000000000E+00 0.  1.
          4    1    6    6  502    0  0.69333416994E+00 -0.72448849972E+02  0.39103553781E+02  0.82331066390E+02  0.00000000000E+00 0. -1.
          1    1    5    5  503    0  0.26732028110E+02  0.10700340999E+03  0.19557162599E+03  0.22452748600E+03  0.00000000000E+00 0. -1.
         -2    1    5    5    0  503 -0.16225899339E+02  0.18946452355E+03  0.19602931600E+03  0.27310726505E+03  0.00000000000E+00 0.  1.
         -3    1    6    6    0  502  0.11626676834E+03 -0.46824420285E+03  0.76936977791E+02  0.48855899692E+03  0.00000000000E+00 0.  1.
<mgrwt>
<rscale>  0 0.12476607E+04</rscale>
<asrwt>0</asrwt>
<pdfrwt beam="1">  1        2 0.52138112E-01 0.12476607E+04</pdfrwt>
<pdfrwt beam="2">  1       -2 0.17666519E+00 0.12476607E+04</pdfrwt>
<totfact> 0.18004282E+01</totfact>
</mgrwt>
</event>
<event>
12    1  0.1489233E-007  0.2328726E+04  0.7818608E-02  0.8466680E-01
          1   -1    0    0  501    0  0.00000000000E+00  0.00000000000E+00  0.11132097531E+04  0.11132097531E+04  0.00000000000E+00 0. -1.
         -1   -1    0    0    0  501 -0.00000000000E+00 -0.00000000000E+00 -0.12178672666E+04  0.12178672666E+04  0.00000000000E+00 0.  1.
         23    2    1    2    0    0  0.20833999557E+03  0.14724207689E+03  0.91054304820E+03  0.94989670087E+03  0.90162723652E+02 0.  0.
        254    2    1    2    0    0 -0.20833999557E+03 -0.14724207689E+03 -0.10152005618E+04  0.13811803188E+04  0.90107774888E+03 0.  0.
        -24    2    4    4    0    0  0.17463488851E+03 -0.84195120305E+02  0.76649563727E+02  0.21979596067E+03  0.69634374691E+02 0.  0.
         24    2    4    4    0    0 -0.38297488407E+03 -0.63046956581E+02 -0.10918501255E+04  0.11613843582E+04  0.77667562471E+02 0.  0.
         11    1    3    3    0    0  0.12731001604E+03  0.46978787034E+02  0.56561528519E+03  0.58166613917E+03  0.00000000000E+00 0. -1.
        -11    1    3    3    0    0  0.81029979529E+02  0.10026328985E+03  0.34492776301E+03  0.36823056170E+03  0.00000000000E+00 0.  1.
          4    1    6    6  502    0 -0.53508010812E+02  0.70577065622E+01 -0.96301553737E+02  0.11039432818E+03  0.00000000000E+00 0. -1.
          3    1    5    5  503    0  0.22522469096E+01  0.20051693932E+01  0.18122720693E+02  0.18371889554E+02  0.00000000000E+00 0. -1.
         -4    1    5    5    0  503  0.17238264160E+03 -0.86200289699E+02  0.58526843033E+02  0.20142407111E+03  0.00000000000E+00 0.  1.
         -3    1    6    6    0  502 -0.32946687326E+03 -0.70104663144E+02 -0.99554857175E+03  0.10509900300E+04  0.00000000000E+00 0.  1.
<mgrwt>
<rscale>  0 0.23287264E+04</rscale>
<asrwt>0</asrwt>
<pdfrwt beam="1">  1        1 0.17126304E+00 0.23287264E+04</pdfrwt>
<pdfrwt beam="2">  1       -1 0.18736419E+00 0.23287264E+04</pdfrwt>
<totfact> 0.20605892E+00</totfact>
</mgrwt>
</event>
<event>
12    1  0.1489233E-007  0.3693537E+04  0.7818608E-02  0.8069396E-01
         -2   -1    0    0    0  501 -0.00000000000E+00  0.00000000000E+00  0.10131608362E+04  0.10131608362E+04  0.00000000000E+00 0. -1.
          2   -1    0    0  501    0  0.00000000000E+00 -0.00000000000E+00 -0.33662519854E+04  0.33662519854E+04  0.00000000000E+00 0.  1.
         23    2    1    2    0    0  0.14210731249E+03  0.16812173771E+04 -0.15936340051E+04  0.23227314264E+04  0.93410812234E+02 0.  0.
        254    2    1    2    0    0 -0.14210731249E+03 -0.16812173771E+04 -0.75945714408E+03  0.20566813952E+04  0.89804056167E+03 0.  0.
        -24    2    4    4    0    0 -0.25220531608E+03 -0.14479925265E+04 -0.92668328502E+03  0.17393023137E+04  0.78362933597E+02 0.  0.
         24    2    4    4    0    0  0.11009800359E+03 -0.23322485054E+03  0.16722614094E+03  0.31737908150E+03  0.79053765585E+02 0.  0.
         13    1    3    3    0    0  0.70275569597E+01  0.37672649155E+03 -0.31520023235E+03  0.49124680402E+03  0.00000000000E+00 0.  1.
        -13    1    3    3    0    0  0.13507975553E+03  0.13044908855E+04 -0.12784337727E+04  0.18314846224E+04  0.00000000000E+00 0. -1.
          2    1    6    6  502    0  0.83063199637E+02 -0.18647314267E+03  0.89887146308E+02  0.22305027941E+03  0.00000000000E+00 0. -1.
          1    1    5    5  503    0 -0.15363112878E+03 -0.67286205096E+03 -0.45298003013E+03  0.82555240357E+03  0.00000000000E+00 0. -1.
         -2    1    5    5    0  503 -0.98574187296E+02 -0.77513047559E+03 -0.47370325489E+03  0.91374991014E+03  0.00000000000E+00 0.  1.
         -1    1    6    6    0  502  0.27034803954E+02 -0.46751707874E+02  0.77338994628E+02  0.94328802091E+02  0.00000000000E+00 0.  1.
<mgrwt>
<rscale>  0 0.36935374E+04</rscale>
<asrwt>0</asrwt>
<pdfrwt beam="1">  1        2 0.51788492E+00 0.36935374E+04</pdfrwt>
<pdfrwt beam="2">  1       -2 0.15587090E+00 0.36935374E+04</pdfrwt>
<totfact> 0.21954140E-01</totfact>
</mgrwt>
</event>
<event>
12    1  0.1489233E-007  0.2248159E+04  0.7818608E-02  0.8498646E-01
          1   -1    0    0  501    0  0.00000000000E+00  0.00000000000E+00  0.18631408772E+04  0.18631408772E+04  0.00000000000E+00 0. -1.
         -1   -1    0    0    0  501 -0.00000000000E+00 -0.00000000000E+00 -0.67818550567E+03  0.67818550567E+03  0.00000000000E+00 0.  1.
         23    2    1    2    0    0 -0.37777024101E+03 -0.83928238388E+03  0.69841557620E+03  0.11589456745E+04  0.90914710098E+02 0.  0.
        254    2    1    2    0    0  0.37777024101E+03  0.83928238388E+03  0.48653979533E+03  0.13823807083E+04  0.90947796867E+03 0.  0.
        -24    2    4    4    0    0 -0.54506878692E+02 -0.11367516912E+03  0.27355454273E+03  0.31152173930E+03  0.79502593118E+02 0.  0.
         24    2    4    4    0    0  0.43227711970E+03  0.95295755300E+03  0.21298525260E+03  0.10708589690E+04  0.79903740337E+02 0.  0.
         13    1    3    3    0    0 -0.33298423523E+03 -0.79122333152E+03  0.63640319012E+03  0.10686074497E+04  0.00000000000E+00 0.  1.
        -13    1    3    3    0    0 -0.44786005775E+02 -0.48059052362E+02  0.62012386084E+02  0.90338224773E+02  0.00000000000E+00 0. -1.
          2    1    6    6  502    0  0.93932152977E+02  0.13778225625E+03  0.39446344191E+02  0.17135697701E+03  0.00000000000E+00 0. -1.
          1    1    5    5  503    0 -0.56050338400E+01 -0.12660886703E+00 -0.45206808054E+01  0.72020128504E+01  0.00000000000E+00 0. -1.
         -4    1    5    5    0  503 -0.48901844852E+02 -0.11354856026E+03  0.27807522353E+03  0.30431972645E+03  0.00000000000E+00 0.  1.
         -3    1    6    6    0  502  0.33834496672E+03  0.81517529675E+03  0.17353890841E+03  0.89950199204E+03  0.00000000000E+00 0.  1.
<mgrwt>
<rscale>  0 0.22481594E+04</rscale>
<asrwt>0</asrwt>
<pdfrwt beam="1">  1        1 0.28663706E+00 0.22481594E+04</pdfrwt>
<pdfrwt beam="2">  1       -1 0.10433623E+00 0.22481594E+04</pdfrwt>
<totfact> 0.28949063E+00</totfact>
</mgrwt>
</event>
<event>
12    1  0.1489233E-007  0.1859761E+04  0.7818608E-02  0.8675149E-01
         -2   -1    0    0    0  501 -0.00000000000E+00  0.00000000000E+00  0.69985122661E+03  0.69985122661E+03  0.00000000000E+00 0.  1.
          2   -1    0    0  501    0  0.00000000000E+00 -0.00000000000E+00 -0.12355167695E+04  0.12355167695E+04  0.00000000000E+00 0. -1.
         23    2    1    2    0    0  0.18687619216E+03  0.65991359582E+03 -0.39465176708E+03  0.79645162100E+03  0.90424013378E+02 0.  0.
        254    2    1    2    0    0 -0.18687619216E+03 -0.65991359582E+03 -0.14101377583E+03  0.11389163751E+04  0.89824103638E+03 0.  0.
        -24    2    4    4    0    0 -0.17996651154E+03 -0.20232308468E+03  0.35825094467E+03  0.45673858564E+03  0.83329588899E+02 0.  0.
         24    2    4    4    0    0 -0.69096806200E+01 -0.45759051113E+03 -0.49926472051E+03  0.68217778949E+03  0.81636118029E+02 0.  0.
         11    1    3    3    0    0  0.12331805004E+03  0.51773106570E+03 -0.26895290877E+03  0.59631238876E+03  0.00000000000E+00 0.  1.
        -11    1    3    3    0    0  0.63558142120E+02  0.14218253012E+03 -0.12569885831E+03  0.20013923224E+03  0.00000000000E+00 0. -1.
          4    1    6    6  502    0  0.57380138765E+01 -0.22904713299E+02 -0.55570564932E+01  0.24257608526E+02  0.00000000000E+00 0. -1.
          3    1    5    5  503    0 -0.79591871680E+02 -0.42146037604E+02  0.80678570012E+02  0.12091396190E+03  0.00000000000E+00 0. -1.
         -4    1    5    5    0  503 -0.10037463986E+03 -0.16017704708E+03  0.27757237466E+03  0.33582462374E+03  0.00000000000E+00 0.  1.
         -3    1    6    6    0  502 -0.12647694496E+02 -0.43468579783E+03 -0.49370766401E+03  0.65792018097E+03  0.00000000000E+00 0.  1.
<mgrwt>
<rscale>  0 0.18597612E+04</rscale>
<asrwt>0</asrwt>
<pdfrwt beam="1">  1        2 0.19007950E+00 0.18597612E+04</pdfrwt>
<pdfrwt beam="2">  1       -2 0.10766942E+00 0.18597612E+04</pdfrwt>
<totfact> 0.11730810E+01</totfact>
</mgrwt>
</event>
<event>
12    1  0.1489233E-007  0.2617843E+04  0.7818608E-02  0.8362166E-01
          2   -1    0    0  501    0  0.00000000000E+00  0.00000000000E+00  0.65918550999E+03  0.65918550999E+03  0.00000000000E+00 0. -1.
         -2   -1    0    0    0  501 -0.00000000000E+00 -0.00000000000E+00 -0.25990790323E+04  0.25990790323E+04  0.00000000000E+00 0.  1.
         23    2    1    2    0    0  0.85357798088E+03  0.53325906130E+03 -0.15527729353E+04  0.18532247766E+04  0.10187093766E+03 0.  0.
        254    2    1    2    0    0 -0.85357798088E+03 -0.53325906130E+03 -0.38712058697E+03  0.14050397657E+04  0.90072959229E+03 0.  0.
        -24    2    4    4    0    0 -0.32854770657E+03  0.21369978829E+03  0.23502350064E+02  0.40095662419E+03  0.81256747516E+02 0.  0.
         24    2    4    4    0    0 -0.52503027431E+03 -0.74695884959E+03 -0.41062293703E+03  0.10040831415E+04  0.77249250573E+02 0.  0.
         13    1    3    3    0    0  0.35191057270E+03  0.23674743905E+03 -0.56688722145E+03  0.70799118845E+03  0.00000000000E+00 0. -1.
        -13    1    3    3    0    0  0.50166740818E+03  0.29651162225E+03 -0.98588571385E+03  0.11452335881E+04  0.00000000000E+00 0.  1.
          4    1    6    6  502    0 -0.48467479027E+02 -0.83060800151E+02 -0.68786820515E+02  0.11823628767E+03  0.00000000000E+00 0. -1.
          1    1    5    5  503    0 -0.21105978386E+03  0.96459333381E+02  0.34531002358E+02  0.23461250070E+03  0.00000000000E+00 0. -1.
         -2    1    5    5    0  503 -0.11748792271E+03  0.11724045490E+03 -0.11028652294E+02  0.16634412349E+03  0.00000000000E+00 0.  1.
         -3    1    6    6    0  502 -0.47656279528E+03 -0.66389804943E+03 -0.34183611652E+03  0.88584685383E+03  0.00000000000E+00 0.  1.
<mgrwt>
<rscale>  0 0.26178428E+04</rscale>
<asrwt>0</asrwt>
<pdfrwt beam="1">  1        2 0.10141316E+00 0.26178428E+04</pdfrwt>
<pdfrwt beam="2">  1       -2 0.39985831E+00 0.26178428E+04</pdfrwt>
<totfact> 0.29028248E-01</totfact>
</mgrwt>
</event>
<event>
12    1  0.1489233E-007  0.1420211E+04  0.7818608E-02  0.8939318E-01
         -2   -1    0    0    0  501 -0.00000000000E+00  0.00000000000E+00  0.14346340964E+03  0.14346340964E+03  0.00000000000E+00 0.  1.
          2   -1    0    0  501    0  0.00000000000E+00 -0.00000000000E+00 -0.35148302409E+04  0.35148302409E+04  0.00000000000E+00 0. -1.
         23    2    1    2    0    0  0.17587191397E+03  0.19191452700E+03 -0.17989348099E+04  0.18201085581E+04  0.94162610096E+02 0.  0.
        254    2    1    2    0    0 -0.17587191397E+03 -0.19191452700E+03 -0.15724320213E+04  0.18381850924E+04  0.91576189945E+03 0.  0.
        -24    2    4    4    0    0  0.66627462260E+02 -0.39180060398E+03 -0.24956165533E+03  0.47603591411E+03  0.79888921032E+02 0.  0.
         24    2    4    4    0    0 -0.24249937623E+03  0.19988607698E+03 -0.13228703660E+04  0.13621491783E+04  0.81877881477E+02 0.  0.
         13    1    3    3    0    0  0.42224950800E+02  0.78884875059E+02 -0.88903752379E+03  0.89352867257E+03  0.00000000000E+00 0. -1.
        -13    1    3    3    0    0  0.13364696317E+03  0.11302965194E+03 -0.90989728610E+03  0.92657988551E+03  0.00000000000E+00 0.  1.
          4    1    6    6  502    0 -0.12761083150E+03  0.14329817976E+03 -0.67507422966E+03  0.70181486746E+03  0.00000000000E+00 0. -1.
          1    1    5    5  503    0  0.60519025437E+02 -0.35637890258E+03 -0.19506848912E+03  0.41075563306E+03  0.00000000000E+00 0. -1.
         -2    1    5    5    0  503  0.61084368222E+01 -0.35421701406E+02 -0.54493166204E+02  0.65280281049E+02  0.00000000000E+00 0.  1.
         -3    1    6    6    0  502 -0.11488854473E+03  0.56587897226E+02 -0.64779613633E+03  0.66033431083E+03  0.00000000000E+00 0.  1.
<mgrwt>
<rscale>  0 0.14202106E+04</rscale>
<asrwt>0</asrwt>
<pdfrwt beam="1">  1        2 0.54074311E+00 0.14202106E+04</pdfrwt>
<pdfrwt beam="2">  1       -2 0.22071294E-01 0.14202106E+04</pdfrwt>
<totfact> 0.14083307E+01</totfact>
</mgrwt>
</event>
<event>
12    1  0.1489233E-007  0.2057491E+04  0.7818608E-02  0.8580204E-01
         -2   -1    0    0    0  501 -0.00000000000E+00  0.00000000000E+00  0.11451549197E+04  0.11451549197E+04  0.00000000000E+00 0.  1.
          2   -1    0    0  501    0  0.00000000000E+00 -0.00000000000E+00 -0.92416936603E+03  0.92416936603E+03  0.00000000000E+00 0. -1.
         23    2    1    2    0    0 -0.82816249603E+03  0.16489569482E+03  0.29171725689E+03  0.89811775400E+03  0.92047987946E+02 0.  0.
        254    2    1    2    0    0  0.82816249603E+03 -0.16489569482E+03 -0.70731703254E+02  0.11712065317E+04  0.80850359060E+03 0.  0.
        -24    2    4    4    0    0  0.39836931360E+03  0.32023564950E+02  0.34703547427E+03  0.53520341372E+03  0.79280860989E+02 0.  0.
         24    2    4    4    0    0  0.42979318243E+03 -0.19691925977E+03 -0.41776717753E+03  0.63600311797E+03  0.80443625718E+02 0.  0.
         11    1    3    3    0    0 -0.41532897678E+03  0.87091515784E+02  0.98138023770E+02  0.43556189318E+03  0.00000000000E+00 0.  1.
        -11    1    3    3    0    0 -0.41283351924E+03  0.77804179040E+02  0.19357923312E+03  0.46255586083E+03  0.00000000000E+00 0. -1.
          2    1    6    6  502    0  0.22263592236E+03 -0.58599946878E+02 -0.21077235107E+03  0.31213088870E+03  0.00000000000E+00 0. -1.
          1    1    5    5  503    0  0.55855305811E+02 -0.15154281268E+02  0.77940189160E+02  0.97078012517E+02  0.00000000000E+00 0. -1.
         -2    1    5    5    0  503  0.34251400779E+03  0.47177846218E+02  0.26909528511E+03  0.43812540120E+03  0.00000000000E+00 0.  1.
         -1    1    6    6    0  502  0.20715726006E+03 -0.13831931290E+03 -0.20699482645E+03  0.32387222927E+03  0.00000000000E+00 0.  1.
<mgrwt>
<rscale>  0 0.20574908E+04</rscale>
<asrwt>0</asrwt>
<pdfrwt beam="1">  1        2 0.14217990E+00 0.20574908E+04</pdfrwt>
<pdfrwt beam="2">  1       -2 0.17617768E+00 0.20574908E+04</pdfrwt>
<totfact> 0.50334062E+00</totfact>
</mgrwt>
</event>
<event>
12    1  0.1489233E-007  0.1780188E+04  0.7818608E-02  0.8716907E-01
          2   -1    0    0  501    0  0.00000000000E+00  0.00000000000E+00  0.10885008338E+04  0.10885008338E+04  0.00000000000E+00 0. -1.
         -2   -1    0    0    0  501 -0.00000000000E+00 -0.00000000000E+00 -0.72785178328E+03  0.72785178328E+03  0.00000000000E+00 0.  1.
         23    2    1    2    0    0 -0.57421128612E+03  0.16965586215E+02  0.44754132115E+03  0.73392304797E+03  0.91342071215E+02 0.  0.
        254    2    1    2    0    0  0.57421128612E+03 -0.16965586215E+02 -0.86892270674E+02  0.10824295691E+04  0.91328915086E+03 0.  0.
        -24    2    4    4    0    0  0.35240704009E+03 -0.49110567179E+02  0.39962693858E+03  0.54081415288E+03  0.78585547010E+02 0.  0.
         24    2    4    4    0    0  0.22180424604E+03  0.32144980965E+02 -0.48651920925E+03  0.54161541620E+03  0.80099280488E+02 0.  0.
         11    1    3    3    0    0 -0.52874234414E+03  0.30410511882E+02  0.38189969090E+03  0.65294765459E+03  0.00000000000E+00 0. -1.
        -11    1    3    3    0    0 -0.45468941980E+02 -0.13444925668E+02  0.65641630249E+02  0.80975393378E+02  0.00000000000E+00 0.  1.
          4    1    6    6  502    0 -0.54950357078E+01 -0.43611177238E+00 -0.28470706943E+01  0.62041455856E+01  0.00000000000E+00 0. -1.
          3    1    5    5  503    0  0.11012752982E+03 -0.26359606247E+02  0.78002479913E+02  0.13750377645E+03  0.00000000000E+00 0. -1.
         -4    1    5    5    0  503  0.24227951027E+03 -0.22750960933E+02  0.32162445867E+03  0.40331037643E+03  0.00000000000E+00 0.  1.
         -3    1    6    6    0  502  0.22729928174E+03  0.32581092737E+02 -0.48367213856E+03  0.53541127062E+03  0.00000000000E+00 0.  1.
<mgrwt>
<rscale>  0 0.17801879E+04</rscale>
<asrwt>0</asrwt>
<pdfrwt beam="1">  1        2 0.16746167E+00 0.17801879E+04</pdfrwt>
<pdfrwt beam="2">  1       -2 0.11197720E+00 0.17801879E+04</pdfrwt>
<totfact> 0.13177968E+01</totfact>
</mgrwt>
</event>
<event>
12    1  0.1489233E-007  0.1175744E+04  0.7818608E-02  0.9134357E-01
          1   -1    0    0  501    0  0.00000000000E+00  0.00000000000E+00  0.39962930997E+03  0.39962930997E+03  0.00000000000E+00 0. -1.
         -1   -1    0    0    0  501 -0.00000000000E+00 -0.00000000000E+00 -0.86478549818E+03  0.86478549818E+03  0.00000000000E+00 0.  1.
         23    2    1    2    0    0  0.53385838668E+02  0.79155658712E+02 -0.33557125871E+03  0.36069256595E+03  0.91517164446E+02 0.  0.
        254    2    1    2    0    0 -0.53385838668E+02 -0.79155658712E+02 -0.12958492951E+03  0.90372224220E+03  0.88927272027E+03 0.  0.
        -24    2    4    4    0    0 -0.26995278804E+03 -0.11932961451E+03  0.29128834898E+03  0.42211173213E+03  0.78837475070E+02 0.  0.
         24    2    4    4    0    0  0.21656694937E+03  0.40173955800E+02 -0.42087327849E+03  0.48161051007E+03  0.79367352087E+02 0.  0.
         13    1    3    3    0    0 -0.19684300469E+02  0.19944713133E+02 -0.15059659728E+03  0.15318158630E+03  0.00000000000E+00 0. -1.
        -13    1    3    3    0    0  0.73070139138E+02  0.59210945579E+02 -0.18497466142E+03  0.20751097966E+03  0.00000000000E+00 0.  1.
          2    1    6    6  502    0  0.17322913556E+01  0.25002057844E+00 -0.57988675875E+02  0.58015083154E+02  0.00000000000E+00 0. -1.
          3    1    5    5  503    0 -0.10291368314E+03 -0.56208990714E+01  0.10823152960E+03  0.14945529326E+03  0.00000000000E+00 0. -1.
         -4    1    5    5    0  503 -0.16703910490E+03 -0.11370871544E+03  0.18305681938E+03  0.27265643887E+03  0.00000000000E+00 0.  1.
         -1    1    6    6    0  502  0.21483465802E+03  0.39923935221E+02 -0.36288460262E+03  0.42359542692E+03  0.00000000000E+00 0.  1.
<mgrwt>
<rscale>  0 0.11757442E+04</rscale>
<asrwt>0</asrwt>
<pdfrwt beam="1">  1        1 0.61481432E-01 0.11757442E+04</pdfrwt>
<pdfrwt beam="2">  1       -1 0.13304392E+00 0.11757442E+04</pdfrwt>
<totfact> 0.28484618E+01</totfact>
</mgrwt>
</event>
<event>
12    1  0.1489233E-007  0.1335892E+04  0.7818608E-02  0.9001577E-01
          2   -1    0    0  501    0  0.00000000000E+00  0.00000000000E+00  0.92301559479E+03  0.92301559479E+03  0.00000000000E+00 0. -1.
         -2   -1    0    0    0  501 -0.00000000000E+00 -0.00000000000E+00 -0.48336351011E+03  0.48336351011E+03  0.00000000000E+00 0.  1.
         23    2    1    2    0    0 -0.31888645919E+03 -0.15131970585E+03  0.11455952521E+03  0.38242159893E+03  0.92391380989E+02 0.  0.
        254    2    1    2    0    0  0.31888645919E+03  0.15131970585E+03  0.32509255947E+03  0.10239575060E+04  0.90455379859E+03 0.  0.
        -24    2    4    4    0    0  0.61419086704E+03  0.22022785678E+03  0.22512885427E+03  0.69482794296E+03  0.79825680274E+02 0.  0.
         24    2    4    4    0    0 -0.29530440785E+03 -0.68908150933E+02  0.99963705206E+02  0.32912956300E+03  0.79878034048E+02 0.  0.
         11    1    3    3    0    0 -0.43970606878E+02 -0.13364234721E+01 -0.10467607407E+02  0.45219145301E+02  0.00000000000E+00 0.  1.
        -11    1    3    3    0    0 -0.27491585231E+03 -0.14998328238E+03  0.12502713262E+03  0.33720245363E+03  0.00000000000E+00 0. -1.
          2    1    6    6  502    0 -0.19778524278E+03 -0.70041097067E+02  0.98012930137E+02  0.23158430865E+03  0.00000000000E+00 0. -1.
          3    1    5    5  503    0  0.15536678447E+03  0.19854732954E+02  0.57178067776E+02  0.16674045571E+03  0.00000000000E+00 0. -1.
         -4    1    5    5    0  503  0.45882408257E+03  0.20037312383E+03  0.16795078649E+03  0.52808748724E+03  0.00000000000E+00 0.  1.
         -3    1    6    6    0  502 -0.97519165074E+02  0.11329461335E+01  0.19507750687E+01  0.97545254354E+02  0.00000000000E+00 0.  1.
<mgrwt>
<rscale>  0 0.13358923E+04</rscale>
<asrwt>0</asrwt>
<pdfrwt beam="1">  1        2 0.14200240E+00 0.13358923E+04</pdfrwt>
<pdfrwt beam="2">  1       -2 0.74363617E-01 0.13358923E+04</pdfrwt>
<totfact> 0.45031183E+01</totfact>
</mgrwt>
</event>
<event>
12    1  0.1489233E-007  0.1887557E+04  0.7818608E-02  0.8661075E-01
          1   -1    0    0  501    0  0.00000000000E+00  0.00000000000E+00  0.14220538417E+04  0.14220538417E+04  0.00000000000E+00 0. -1.
         -1   -1    0    0    0  501 -0.00000000000E+00 -0.00000000000E+00 -0.62636040928E+03  0.62636040928E+03  0.00000000000E+00 0.  1.
         23    2    1    2    0    0  0.39609980353E+03  0.52538651471E+03 -0.42497947915E+02  0.66544217370E+03  0.89895310090E+02 0.  0.
        254    2    1    2    0    0 -0.39609980353E+03 -0.52538651471E+03  0.83819138038E+03  0.13829720773E+04  0.88154462865E+03 0.  0.
        -24    2    4    4    0    0 -0.47220724062E+03 -0.65994357823E+02  0.80826438067E+02  0.49044450766E+03  0.81657630668E+02 0.  0.
         24    2    4    4    0    0  0.76107437092E+02 -0.45939215688E+03  0.75736494231E+03  0.89252756966E+03  0.78551326951E+02 0.  0.
         13    1    3    3    0    0  0.20724050576E+03  0.24300871074E+03 -0.61308691522E+02  0.32520857366E+03  0.00000000000E+00 0.  1.
        -13    1    3    3    0    0  0.18885929776E+03  0.28237780396E+03  0.18810743607E+02  0.34023360004E+03  0.00000000000E+00 0. -1.
          2    1    6    6  502    0  0.83012580163E+02 -0.28265342774E+03  0.49756268445E+03  0.57823236993E+03  0.00000000000E+00 0. -1.
          3    1    5    5  503    0 -0.40848978261E+03 -0.50039691421E+02  0.96952699090E+02  0.42280929398E+03  0.00000000000E+00 0. -1.
         -4    1    5    5    0  503 -0.63717458008E+02 -0.15954666402E+02 -0.16126261023E+02  0.67635213681E+02  0.00000000000E+00 0.  1.
         -1    1    6    6    0  502 -0.69051430712E+01 -0.17673872914E+03  0.25980225786E+03  0.31429519973E+03  0.00000000000E+00 0.  1.
<mgrwt>
<rscale>  0 0.18875574E+04</rscale>
<asrwt>0</asrwt>
<pdfrwt beam="1">  1        1 0.21877751E+00 0.18875574E+04</pdfrwt>
<pdfrwt beam="2">  1       -1 0.96363140E-01 0.18875574E+04</pdfrwt>
<totfact> 0.72000570E+00</totfact>
</mgrwt>
</event>
<event>
12    1  0.1489233E-007  0.2088348E+04  0.7818608E-02  0.8566394E-01
         -1   -1    0    0    0  501 -0.00000000000E+00  0.00000000000E+00  0.99193401720E+03  0.99193401720E+03  0.00000000000E+00 0.  1.
          1   -1    0    0  501    0  0.00000000000E+00 -0.00000000000E+00 -0.10991649352E+04  0.10991649352E+04  0.00000000000E+00 0. -1.
         23    2    1    2    0    0  0.46309900853E+03  0.12105199801E+03  0.64582116189E+03  0.80906008753E+03  0.91536736635E+02 0.  0.
        254    2    1    2    0    0 -0.46309900853E+03 -0.12105199801E+03 -0.75305207985E+03  0.12820388648E+04  0.92055523355E+03 0.  0.
        -24    2    4    4    0    0 -0.70540423344E+03 -0.41098395410E+02 -0.33707248145E+03  0.78751750701E+03  0.85333202343E+02 0.  0.
         24    2    4    4    0    0  0.24230522491E+03 -0.79953602602E+02 -0.41597959840E+03  0.49452135782E+03  0.80049649986E+02 0.  0.
         13    1    3    3    0    0  0.25118757806E+03  0.10829600140E+03  0.33190830127E+03  0.43010038798E+03  0.00000000000E+00 0. -1.
        -13    1    3    3    0    0  0.21191143047E+03  0.12755996615E+02  0.31391286063E+03  0.37895969955E+03  0.00000000000E+00 0.  1.
          2    1    6    6  502    0  0.36672783845E+02 -0.57380637428E+01 -0.12608447961E+03  0.13143482966E+03  0.00000000000E+00 0. -1.
          1    1    5    5  503    0 -0.11669765860E+02  0.10820075811E+02 -0.99669817960E+01  0.18777598406E+02  0.00000000000E+00 0. -1.
         -2    1    5    5    0  503 -0.69373446758E+03 -0.51918471221E+02 -0.32710549966E+03  0.76873990860E+03  0.00000000000E+00 0.  1.
         -1    1    6    6    0  502  0.20563244107E+03 -0.74215538859E+02 -0.28989511879E+03  0.36308652815E+03  0.00000000000E+00 0.  1.
<mgrwt>
<rscale>  0 0.20883478E+04</rscale>
<asrwt>0</asrwt>
<pdfrwt beam="1">  1        1 0.16910230E+00 0.20883478E+04</pdfrwt>
<pdfrwt beam="2">  1       -1 0.15260523E+00 0.20883478E+04</pdfrwt>
<totfact> 0.38926577E+00</totfact>
</mgrwt>
</event>
<event>
12    1  0.1489233E-007  0.3060348E+04  0.7818608E-02  0.8226705E-01
         -2   -1    0    0    0  501 -0.00000000000E+00  0.00000000000E+00  0.20204530425E+04  0.20204530425E+04  0.00000000000E+00 0.  1.
          2   -1    0    0  501    0  0.00000000000E+00 -0.00000000000E+00 -0.11588650542E+04  0.11588650542E+04  0.00000000000E+00 0. -1.
         23    2    1    2    0    0 -0.92334314570E+03  0.12337180654E+03  0.14683743949E+04  0.17413324277E+04  0.91280298149E+02 0.  0.
        254    2    1    2    0    0  0.92334314570E+03 -0.12337180654E+03 -0.60678640660E+03  0.14379856690E+04  0.91204707864E+03 0.  0.
        -24    2    4    4    0    0  0.68791410735E+03  0.20036948772E+03 -0.71548392431E+03  0.10155791956E+04  0.78167166912E+02 0.  0.
         24    2    4    4    0    0  0.23542903835E+03 -0.32374129426E+03  0.10869751771E+03  0.42240647335E+03  0.79854997749E+02 0.  0.
         11    1    3    3    0    0 -0.60858481887E+03  0.44412252370E+02  0.91435115895E+03  0.10992661060E+04  0.00000000000E+00 0.  1.
        -11    1    3    3    0    0 -0.31475832684E+03  0.78959554174E+02  0.55402323597E+03  0.64206632174E+03  0.00000000000E+00 0. -1.
          2    1    6    6  502    0  0.23632417008E+03 -0.29688864523E+03  0.11120549631E+03  0.39542210793E+03  0.00000000000E+00 0. -1.
          3    1    5    5  503    0  0.36650674475E+03  0.89138670721E+02 -0.42562605893E+03  0.56870945008E+03  0.00000000000E+00 0. -1.
         -4    1    5    5    0  503  0.32140736260E+03  0.11123081700E+03 -0.28985786538E+03  0.44686974557E+03  0.00000000000E+00 0.  1.
         -3    1    6    6    0  502 -0.89513172473E+00 -0.26852649027E+02 -0.25079786005E+01  0.26984365422E+02  0.00000000000E+00 0.  1.
<mgrwt>
<rscale>  0 0.30603480E+04</rscale>
<asrwt>0</asrwt>
<pdfrwt beam="1">  1        2 0.17828693E+00 0.30603480E+04</pdfrwt>
<pdfrwt beam="2">  1       -2 0.31083893E+00 0.30603480E+04</pdfrwt>
<totfact> 0.46571684E-01</totfact>
</mgrwt>
</event>
<event>
12    1  0.1489233E-007  0.1583096E+04  0.7818608E-02  0.8831001E-01
          2   -1    0    0  501    0  0.00000000000E+00  0.00000000000E+00  0.11312668048E+04  0.11312668048E+04  0.00000000000E+00 0. -1.
         -2   -1    0    0    0  501 -0.00000000000E+00 -0.00000000000E+00 -0.55384634989E+03  0.55384634989E+03  0.00000000000E+00 0.  1.
         23    2    1    2    0    0  0.20990200265E+03 -0.38603144182E+02  0.70971511250E+03  0.74660100061E+03  0.90379531607E+02 0.  0.
        254    2    1    2    0    0 -0.20990200265E+03  0.38603144182E+02 -0.13229465762E+03  0.93851215406E+03  0.90429759118E+03 0.  0.
        -24    2    4    4    0    0 -0.27199906089E+03 -0.33277208758E+03  0.15008043849E+03  0.46192057209E+03  0.78267014182E+02 0.  0.
         24    2    4    4    0    0  0.62097058234E+02  0.37137523176E+03 -0.28237509611E+03  0.47659158197E+03  0.75021554846E+02 0.  0.
         13    1    3    3    0    0  0.18022598258E+03 -0.37594800353E+02  0.68042654658E+03  0.70489365092E+03  0.00000000000E+00 0. -1.
        -13    1    3    3    0    0  0.29676020069E+02 -0.10083438289E+01  0.29288565926E+02  0.41707349693E+02  0.00000000000E+00 0.  1.
          2    1    6    6  502    0  0.55834394017E+02  0.35975847774E+03 -0.28592861093E+03  0.46292419726E+03  0.00000000000E+00 0. -1.
          3    1    5    5  503    0 -0.27601148457E+03 -0.31806136532E+03  0.14871620069E+03  0.44661155390E+03  0.00000000000E+00 0. -1.
         -4    1    5    5    0  503  0.40124236886E+01 -0.14710722263E+02  0.13642377958E+01  0.15309018195E+02  0.00000000000E+00 0.  1.
         -1    1    6    6    0  502  0.62626642173E+01  0.11616754019E+02  0.35535148220E+01  0.13667384703E+02  0.00000000000E+00 0.  1.
<mgrwt>
<rscale>  0 0.15830957E+04</rscale>
<asrwt>0</asrwt>
<pdfrwt beam="1">  1        2 0.17404105E+00 0.15830957E+04</pdfrwt>
<pdfrwt beam="2">  1       -2 0.85207131E-01 0.15830957E+04</pdfrwt>
<totfact> 0.23984629E+01</totfact>
</mgrwt>
</event>
<event>
12    1  0.1489233E-007  0.2162294E+04  0.7818608E-02  0.8534288E-01
          2   -1    0    0  501    0  0.00000000000E+00  0.00000000000E+00  0.25022741381E+04  0.25022741381E+04  0.00000000000E+00 0. -1.
         -2   -1    0    0    0  501 -0.00000000000E+00 -0.00000000000E+00 -0.46712656937E+03  0.46712656937E+03  0.00000000000E+00 0.  1.
         23    2    1    2    0    0 -0.59524195198E+03 -0.59008560248E+03  0.43309063431E+03  0.94817598465E+03  0.94637205617E+02 0.  0.
        254    2    1    2    0    0  0.59524195198E+03  0.59008560248E+03  0.16020569344E+04  0.20212247228E+04  0.90346497405E+03 0.  0.
        -24    2    4    4    0    0 -0.11940501348E+03  0.20762119372E+03  0.93487252861E+03  0.96804668759E+03  0.75918556861E+02 0.  0.
         24    2    4    4    0    0  0.71464696547E+03  0.38246440876E+03  0.66718440582E+03  0.10531780352E+04  0.83962094513E+02 0.  0.
         13    1    3    3    0    0 -0.53356540383E+02 -0.20129459226E+02  0.30861296595E+02  0.64842387047E+02  0.00000000000E+00 0. -1.
        -13    1    3    3    0    0 -0.54188541160E+03 -0.56995614325E+03  0.40222933772E+03  0.88333359761E+03  0.00000000000E+00 0.  1.
          4    1    6    6  502    0  0.54465258464E+02  0.56546938690E+02  0.58781742721E+02  0.98078101185E+02  0.00000000000E+00 0. -1.
          3    1    5    5  503    0 -0.81570866886E+02  0.13517162878E+03  0.46375212058E+03  0.48988897200E+03  0.00000000000E+00 0. -1.
         -2    1    5    5    0  503 -0.37834146598E+02  0.72449564945E+02  0.47112040803E+03  0.47815771558E+03  0.00000000000E+00 0.  1.
         -3    1    6    6    0  502  0.66018170700E+03  0.32591747007E+03  0.60840266310E+03  0.95509993405E+03  0.00000000000E+00 0.  1.
<mgrwt>
<rscale>  0 0.21622939E+04</rscale>
<asrwt>0</asrwt>
<pdfrwt beam="1">  1        2 0.38496524E+00 0.21622939E+04</pdfrwt>
<pdfrwt beam="2">  1       -2 0.71865627E-01 0.21622939E+04</pdfrwt>
<totfact> 0.55846535E+00</totfact>
</mgrwt>
</event>
<event>
12    1  0.1489233E-007  0.1685981E+04  0.7818608E-02  0.8769400E-01
          1   -1    0    0  501    0  0.00000000000E+00  0.00000000000E+00  0.15536951079E+04  0.15536951079E+04  0.00000000000E+00 0. -1.
         -1   -1    0    0    0  501 -0.00000000000E+00 -0.00000000000E+00 -0.45738278164E+03  0.45738278164E+03  0.00000000000E+00 0.  1.
         23    2    1    2    0    0  0.49885856721E+02  0.36526511714E+03 -0.17399115358E+03  0.41788937808E+03  0.91931530416E+02 0.  0.
        254    2    1    2    0    0 -0.49885856721E+02 -0.36526511714E+03  0.12703034799E+04  0.15931885115E+04  0.88807178632E+03 0.  0.
        -24    2    4    4    0    0 -0.26700408383E+03 -0.58030877446E+03  0.90123281743E+03  0.11075372626E+04  0.79804400165E+02 0.  0.
         24    2    4    4    0    0  0.21711822711E+03  0.21504365732E+03  0.36907066243E+03  0.48565124890E+03  0.79119419853E+02 0.  0.
         13    1    3    3    0    0  0.25462987128E+02  0.34701595753E+03 -0.16961613320E+03  0.38708922890E+03  0.00000000000E+00 0.  1.
        -13    1    3    3    0    0  0.24422869592E+02  0.18249159613E+02 -0.43750203817E+01  0.30800149172E+02  0.00000000000E+00 0. -1.
          4    1    6    6  502    0  0.34248904797E+02  0.81877965465E+02  0.11884418339E+03  0.14832710014E+03  0.00000000000E+00 0. -1.
          1    1    5    5  503    0 -0.93135251818E+01 -0.52623769020E+02  0.48564169428E+02  0.72211365930E+02  0.00000000000E+00 0. -1.
         -2    1    5    5    0  503 -0.25769055865E+03 -0.52768500544E+03  0.85266864800E+03  0.10353258966E+04  0.00000000000E+00 0.  1.
         -3    1    6    6    0  502  0.18286932231E+03  0.13316569185E+03  0.25022647904E+03  0.33732414877E+03  0.00000000000E+00 0.  1.
<mgrwt>
<rscale>  0 0.16859815E+04</rscale>
<asrwt>0</asrwt>
<pdfrwt beam="1">  1        1 0.23903001E+00 0.16859815E+04</pdfrwt>
<pdfrwt beam="2">  1       -1 0.70366582E-01 0.16859815E+04</pdfrwt>
<totfact> 0.11677750E+01</totfact>
</mgrwt>
</event>
<event>
12    1  0.1489233E-007  0.3071584E+04  0.7818608E-02  0.8223580E-01
         -1   -1    0    0    0  501 -0.00000000000E+00  0.00000000000E+00  0.16691553316E+04  0.16691553316E+04  0.00000000000E+00 0.  1.
          1   -1    0    0  501    0  0.00000000000E+00 -0.00000000000E+00 -0.14130846843E+04  0.14130846843E+04  0.00000000000E+00 0. -1.
         23    2    1    2    0    0 -0.53907124015E+03 -0.75206355831E+03 -0.95108055893E+03  0.13297664954E+04  0.86760042907E+02 0.  0.
        254    2    1    2    0    0  0.53907124015E+03  0.75206355831E+03  0.12071512062E+04  0.17524735206E+04  0.87048952198E+03 0.  0.
        -24    2    4    4    0    0  0.43509714388E+03  0.58935080532E+03  0.13221839217E+04  0.15136830730E+04  0.80138793514E+02 0.  0.
         24    2    4    4    0    0  0.10397409627E+03  0.16271275299E+03 -0.11503271553E+03  0.23879044756E+03  0.80636837255E+02 0.  0.
         11    1    3    3    0    0 -0.32417909934E+03 -0.51731801224E+03 -0.60199438695E+03  0.85738396075E+03  0.00000000000E+00 0.  1.
        -11    1    3    3    0    0 -0.21489214081E+03 -0.23474554608E+03 -0.34908617198E+03  0.47238253466E+03  0.00000000000E+00 0. -1.
          2    1    6    6  502    0  0.11702351319E+03  0.14021334853E+03 -0.10650638540E+03  0.21141876898E+03  0.00000000000E+00 0. -1.
          1    1    5    5  503    0  0.42623261527E+03  0.58435062514E+03  0.13162995725E+04  0.15019269157E+04  0.00000000000E+00 0. -1.
         -2    1    5    5    0  503  0.88645286067E+01  0.50001801806E+01  0.58843492321E+01  0.11756157329E+02  0.00000000000E+00 0.  1.
         -1    1    6    6    0  502 -0.13049416916E+02  0.22499404463E+02 -0.85263301255E+01  0.27371678583E+02  0.00000000000E+00 0.  1.
<mgrwt>
<rscale>  0 0.30715845E+04</rscale>
<asrwt>0</asrwt>
<pdfrwt beam="1">  1        1 0.21739764E+00 0.30715845E+04</pdfrwt>
<pdfrwt beam="2">  1       -1 0.25679313E+00 0.30715845E+04</pdfrwt>
<totfact> 0.40054789E-01</totfact>
</mgrwt>
</event>
<event>
12    1  0.1489233E-007  0.1715228E+04  0.7818608E-02  0.8752727E-01
         -2   -1    0    0    0  501 -0.00000000000E+00  0.00000000000E+00  0.30178761436E+03  0.30178761436E+03  0.00000000000E+00 0.  1.
          2   -1    0    0  501    0  0.00000000000E+00 -0.00000000000E+00 -0.24371505183E+04  0.24371505183E+04  0.00000000000E+00 0. -1.
         23    2    1    2    0    0 -0.23381950091E+03  0.95345201608E+02  0.12180491722E+03  0.29515167369E+03  0.92281125631E+02 0.  0.
        254    2    1    2    0    0  0.23381950091E+03 -0.95345201608E+02 -0.22571678211E+04  0.24437864589E+04  0.90195533021E+03 0.  0.
        -24    2    4    4    0    0  0.38793864929E+02 -0.91808269218E+02 -0.22271003271E+04  0.22308505988E+04  0.82369929053E+02 0.  0.
         24    2    4    4    0    0  0.19502563598E+03 -0.35369323897E+01 -0.30067494046E+02  0.21293586010E+03  0.79938212006E+02 0.  0.
         13    1    3    3    0    0 -0.95839087679E+01  0.21791324492E+02  0.37767401558E+02  0.44644033765E+02  0.00000000000E+00 0. -1.
        -13    1    3    3    0    0 -0.22423559214E+03  0.73553877115E+02  0.84037515658E+02  0.25050763992E+03  0.00000000000E+00 0.  1.
          4    1    6    6  502    0  0.19537797926E+02 -0.18390981714E+01  0.22384879030E+02  0.29768954282E+02  0.00000000000E+00 0. -1.
          3    1    5    5  503    0  0.32420925635E+02 -0.58922636915E+02 -0.66519403421E+03  0.66858514544E+03  0.00000000000E+00 0. -1.
         -4    1    5    5    0  503  0.63729392948E+01 -0.32885632303E+02 -0.15619062929E+04  0.15622654534E+04  0.00000000000E+00 0.  1.
         -3    1    6    6    0  502  0.17548783805E+03 -0.16978342183E+01 -0.52452373076E+02  0.18316690582E+03  0.00000000000E+00 0.  1.
<mgrwt>
<rscale>  0 0.17152281E+04</rscale>
<asrwt>0</asrwt>
<pdfrwt beam="1">  1        2 0.37494623E+00 0.17152281E+04</pdfrwt>
<pdfrwt beam="2">  1       -2 0.46428865E-01 0.17152281E+04</pdfrwt>
<totfact> 0.15841116E+01</totfact>
</mgrwt>
</event>
<event>
12    1  0.1489233E-007  0.2049085E+04  0.7818608E-02  0.8584009E-01
         -1   -1    0    0    0  501 -0.00000000000E+00  0.00000000000E+00  0.17551632618E+04  0.17551632618E+04  0.00000000000E+00 0.  1.
          1   -1    0    0  501    0  0.00000000000E+00 -0.00000000000E+00 -0.59805689097E+03  0.59805689097E+03  0.00000000000E+00 0. -1.
         23    2    1    2    0    0  0.15944426297E+03 -0.27284098592E+03  0.13527503924E+04  0.13920411516E+04  0.89332339612E+02 0.  0.
        254    2    1    2    0    0 -0.15944426297E+03  0.27284098592E+03 -0.19564402161E+03  0.96117900117E+03  0.88641063425E+03 0.  0.
        -24    2    4    4    0    0  0.30447486572E+03  0.83599557531E+01  0.11862989045E+03  0.33648456663E+03  0.79837209071E+02 0.  0.
         24    2    4    4    0    0 -0.46391912869E+03  0.26448103016E+03 -0.31427391206E+03  0.62469443454E+03  0.79396923540E+02 0.  0.
         11    1    3    3    0    0  0.49519180149E+01 -0.78109080660E+02  0.26935514003E+03  0.28049552837E+03  0.00000000000E+00 0. -1.
        -11    1    3    3    0    0  0.15449234495E+03 -0.19473190526E+03  0.10833952524E+04  0.11115456232E+04  0.00000000000E+00 0.  1.
          2    1    6    6  502    0 -0.16524046942E+03  0.11982334908E+03 -0.83784178590E+02  0.22063960728E+03  0.00000000000E+00 0. -1.
          3    1    5    5  503    0  0.11780830836E+02 -0.16287671946E+02  0.11574167841E+01  0.20134940929E+02  0.00000000000E+00 0. -1.
         -4    1    5    5    0  503  0.29269403488E+03  0.24647627699E+02  0.11747247367E+03  0.31634962570E+03  0.00000000000E+00 0.  1.
         -1    1    6    6    0  502 -0.29867865926E+03  0.14465768109E+03 -0.23048973347E+03  0.40405482726E+03  0.00000000000E+00 0.  1.
<mgrwt>
<rscale>  0 0.20490851E+04</rscale>
<asrwt>0</asrwt>
<pdfrwt beam="1">  1        1 0.92008753E-01 0.20490851E+04</pdfrwt>
<pdfrwt beam="2">  1       -1 0.27002511E+00 0.20490851E+04</pdfrwt>
<totfact> 0.16419837E+00</totfact>
</mgrwt>
</event>
<event>
12    1  0.1489233E-007  0.1424855E+04  0.7818608E-02  0.8936021E-01
          2   -1    0    0  501    0  0.00000000000E+00  0.00000000000E+00  0.14279790536E+04  0.14279790536E+04  0.00000000000E+00 0. -1.
         -2   -1    0    0    0  501 -0.00000000000E+00 -0.00000000000E+00 -0.35543429144E+03  0.35543429144E+03  0.00000000000E+00 0.  1.
         23    2    1    2    0    0 -0.10081154903E+03 -0.22020581939E+03  0.75986941007E+03  0.80264505193E+03  0.90465395200E+02 0.  0.
        254    2    1    2    0    0  0.10081154903E+03  0.22020581939E+03  0.31267535210E+03  0.98076829310E+03  0.89748927439E+03 0.  0.
        -24    2    4    4    0    0 -0.23888013710E+02 -0.22744221010E+03 -0.17760551448E+03  0.30054230154E+03  0.80506894773E+02 0.  0.
         24    2    4    4    0    0  0.12469956274E+03  0.44764802948E+03  0.49028086658E+03  0.68022599157E+03  0.79958315516E+02 0.  0.
         13    1    3    3    0    0 -0.23386468086E+00 -0.92497797659E+02  0.21524850867E+03  0.23428149254E+03  0.00000000000E+00 0.  1.
        -13    1    3    3    0    0 -0.10057768435E+03 -0.12770802173E+03  0.54462090140E+03  0.56836355939E+03  0.00000000000E+00 0. -1.
          2    1    6    6  502    0  0.16218482345E+02  0.20564883494E+03  0.21056431171E+03  0.29477417093E+03  0.00000000000E+00 0. -1.
          1    1    5    5  503    0 -0.38155221379E+01 -0.21547009878E+03 -0.17381798075E+03  0.27686569327E+03  0.00000000000E+00 0. -1.
         -4    1    5    5    0  503 -0.20072491573E+02 -0.11972111314E+02 -0.37875337343E+01  0.23676608267E+02  0.00000000000E+00 0.  1.
         -1    1    6    6    0  502  0.10848108040E+03  0.24199919455E+03  0.27971655487E+03  0.38545182064E+03  0.00000000000E+00 0.  1.
<mgrwt>
<rscale>  0 0.14248547E+04</rscale>
<asrwt>0</asrwt>
<pdfrwt beam="1">  1        2 0.21968908E+00 0.14248547E+04</pdfrwt>
<pdfrwt beam="2">  1       -2 0.54682199E-01 0.14248547E+04</pdfrwt>
<totfact> 0.42632102E+01</totfact>
</mgrwt>
</event>
<event>
12    1  0.1489233E-007  0.3220616E+04  0.7818608E-02  0.8183394E-01
          1   -1    0    0  501    0  0.00000000000E+00  0.00000000000E+00  0.20119219841E+04  0.20119219841E+04  0.00000000000E+00 0. -1.
         -1   -1    0    0    0  501 -0.00000000000E+00 -0.00000000000E+00 -0.12888630300E+04  0.12888630300E+04  0.00000000000E+00 0.  1.
         23    2    1    2    0    0 -0.13436302462E+04 -0.51190099106E+03 -0.14903209959E+03  0.14485310010E+04  0.92987262793E+02 0.  0.
        254    2    1    2    0    0  0.13436302462E+04  0.51190099106E+03  0.87209105366E+03  0.18522540130E+04  0.77647746894E+03 0.  0.
        -24    2    4    4    0    0  0.82350636624E+03  0.43988890881E+03  0.13941550128E+03  0.94726861800E+03  0.78842661823E+02 0.  0.
         24    2    4    4    0    0  0.52012387998E+03  0.72012082256E+02  0.73267555237E+03  0.90498539504E+03  0.80439478364E+02 0.  0.
         13    1    3    3    0    0 -0.44388483714E+03 -0.20954585681E+03 -0.28019012828E+02  0.49165870259E+03  0.00000000000E+00 0. -1.
        -13    1    3    3    0    0 -0.89974540908E+03 -0.30235513425E+03 -0.12101308676E+03  0.95687229844E+03  0.00000000000E+00 0.  1.
          4    1    6    6  502    0  0.14530813363E+03  0.39901458942E+02  0.26433015364E+03  0.30426470424E+03  0.00000000000E+00 0. -1.
          3    1    5    5  503    0  0.62796151410E+03  0.29850146228E+03  0.92142944654E+02  0.70137658103E+03  0.00000000000E+00 0. -1.
         -4    1    5    5    0  503  0.19554485215E+03  0.14138744653E+03  0.47272556630E+02  0.24589203697E+03  0.00000000000E+00 0.  1.
         -3    1    6    6    0  502  0.37481574634E+03  0.32110623313E+02  0.46834539874E+03  0.60072069080E+03  0.00000000000E+00 0.  1.
<mgrwt>
<rscale>  0 0.32206160E+04</rscale>
<asrwt>0</asrwt>
<pdfrwt beam="1">  1        1 0.30952646E+00 0.32206160E+04</pdfrwt>
<pdfrwt beam="2">  1       -1 0.19828662E+00 0.32206160E+04</pdfrwt>
<totfact> 0.37784807E-01</totfact>
</mgrwt>
</event>
<event>
12    1  0.1489233E-007  0.2241779E+04  0.7818608E-02  0.8501237E-01
          4   -1    0    0  501    0  0.00000000000E+00  0.00000000000E+00  0.30012325557E+04  0.30012325557E+04  0.00000000000E+00 0. -1.
         -4   -1    0    0    0  501 -0.00000000000E+00 -0.00000000000E+00 -0.41862579041E+03  0.41862579041E+03  0.00000000000E+00 0.  1.
         23    2    1    2    0    0  0.90252104910E+02  0.86607480701E+03  0.56235230699E+03  0.10425318805E+04  0.11136243042E+03 0.  0.
        254    2    1    2    0    0 -0.90252104910E+02 -0.86607480701E+03  0.20202544583E+04  0.23773264656E+04  0.90112265206E+03 0.  0.
        -24    2    4    4    0    0  0.37738746513E+03 -0.25233439489E+03  0.58049447610E+03  0.74199697853E+03  0.86554801567E+02 0.  0.
         24    2    4    4    0    0 -0.46763957004E+03 -0.61374041212E+03  0.14397599822E+04  0.16353294871E+04  0.77650911592E+02 0.  0.
         13    1    3    3    0    0 -0.43570397940E+01  0.16357346253E+01 -0.27884470078E+01  0.54253903312E+01  0.00000000000E+00 0. -1.
        -13    1    3    3    0    0  0.94609144704E+02  0.86443907239E+03  0.56514075400E+03  0.10371064902E+04  0.00000000000E+00 0.  1.
          2    1    6    6  502    0 -0.21032723688E+02 -0.32258521459E+02  0.11404149846E+03  0.12036798181E+03  0.00000000000E+00 0. -1.
          1    1    5    5  503    0  0.46350452870E+02 -0.70461655517E+02  0.11217384295E+03  0.14034308113E+03  0.00000000000E+00 0. -1.
         -2    1    5    5    0  503  0.33103701226E+03 -0.18187273938E+03  0.46832063315E+03  0.60165389739E+03  0.00000000000E+00 0.  1.
         -1    1    6    6    0  502 -0.44660684635E+03 -0.58148189066E+03  0.13257184838E+04  0.15149615053E+04  0.00000000000E+00 0.  1.
<mgrwt>
<rscale>  0 0.22417791E+04</rscale>
<asrwt>0</asrwt>
<pdfrwt beam="1">  1        4 0.46172807E+00 0.22417791E+04</pdfrwt>
<pdfrwt beam="2">  1       -4 0.64403970E-01 0.22417791E+04</pdfrwt>
<totfact> 0.99117341E-03</totfact>
</mgrwt>
</event>
<event>
12    1  0.1489233E-007  0.1234347E+04  0.7818608E-02  0.9083313E-01
          2   -1    0    0  501    0  0.00000000000E+00  0.00000000000E+00  0.16609551349E+04  0.16609551349E+04  0.00000000000E+00 0. -1.
         -2   -1    0    0    0  501 -0.00000000000E+00 -0.00000000000E+00 -0.22932779102E+03  0.22932779102E+03  0.00000000000E+00 0.  1.
         23    2    1    2    0    0 -0.93035282799E+02 -0.35335736233E+02 -0.65574645120E+02  0.14846159108E+03  0.88524752712E+02 0.  0.
        254    2    1    2    0    0  0.93035282799E+02  0.35335736233E+02  0.14972019890E+04  0.17418213348E+04  0.88454710927E+03 0.  0.
        -24    2    4    4    0    0 -0.17794690147E+03  0.33518232429E+02 -0.20557409489E+02  0.19800880657E+03  0.77435836316E+02 0.  0.
         24    2    4    4    0    0  0.27098218427E+03  0.18175038033E+01  0.15177593985E+04  0.15438125283E+04  0.79554278309E+02 0.  0.
         13    1    3    3    0    0 -0.61940260542E+02  0.92756317313E+01  0.82487052528E+00  0.62636360298E+02  0.00000000000E+00 0. -1.
        -13    1    3    3    0    0 -0.31095022257E+02 -0.44611367964E+02 -0.66399515645E+02  0.85825230781E+02  0.00000000000E+00 0.  1.
          2    1    6    6  502    0  0.10110246367E+03  0.70540672161E+01  0.78977765289E+03  0.79625385966E+03  0.00000000000E+00 0. -1.
          1    1    5    5  503    0 -0.14370646417E+03  0.39877270828E+02 -0.44631689578E+02  0.15567187378E+03  0.00000000000E+00 0. -1.
         -2    1    5    5    0  503 -0.34240437306E+02 -0.63590383991E+01  0.24074280089E+02  0.42336932790E+02  0.00000000000E+00 0.  1.
         -1    1    6    6    0  502  0.16987972060E+03 -0.52365634128E+01  0.72798174561E+03  0.74755866861E+03  0.00000000000E+00 0.  1.
<mgrwt>
<rscale>  0 0.12343471E+04</rscale>
<asrwt>0</asrwt>
<pdfrwt beam="1">  1        2 0.25553155E+00 0.12343471E+04</pdfrwt>
<pdfrwt beam="2">  1       -2 0.35281200E-01 0.12343471E+04</pdfrwt>
<totfact> 0.76562096E+01</totfact>
</mgrwt>
</event>
<event>
12    1  0.1489233E-007  0.1146331E+04  0.7818608E-02  0.9161175E-01
         -2   -1    0    0    0  501 -0.00000000000E+00  0.00000000000E+00  0.27510889847E+03  0.27510889847E+03  0.00000000000E+00 0.  1.
          2   -1    0    0  501    0  0.00000000000E+00 -0.00000000000E+00 -0.11941411193E+04  0.11941411193E+04  0.00000000000E+00 0. -1.
         23    2    1    2    0    0 -0.20722598751E+03  0.52967677580E+02 -0.21943965791E+03  0.32203691514E+03  0.99024373165E+02 0.  0.
        254    2    1    2    0    0  0.20722598751E+03 -0.52967677580E+02 -0.69959256291E+03  0.11472131026E+04  0.88369676019E+03 0.  0.
        -24    2    4    4    0    0 -0.20767516061E+03  0.16697838801E+03  0.25526516778E+02  0.27965297525E+03  0.80891464980E+02 0.  0.
         24    2    4    4    0    0  0.41490114812E+03 -0.21994606559E+03 -0.72511907969E+03  0.86756012737E+03  0.79647099062E+02 0.  0.
         11    1    3    3    0    0  0.61474605662E+01  0.15960843952E+02 -0.28927285941E+02  0.33605471027E+02  0.00000000000E+00 0. -1.
        -11    1    3    3    0    0 -0.21337344807E+03  0.37006833628E+02 -0.19051237197E+03  0.28843144411E+03  0.00000000000E+00 0.  1.
          4    1    6    6  502    0  0.23012187062E+02  0.57142868026E+01 -0.29134961417E+02  0.37564075974E+02  0.00000000000E+00 0. -1.
          1    1    5    5  503    0 -0.35280742675E+01  0.10658755422E+02 -0.15643496799E+02  0.19255528227E+02  0.00000000000E+00 0. -1.
         -2    1    5    5    0  503 -0.20414708635E+03  0.15631963259E+03  0.41170013577E+02  0.26039744702E+03  0.00000000000E+00 0.  1.
         -3    1    6    6    0  502  0.39188896106E+03 -0.22566035240E+03 -0.69598411827E+03  0.82999605139E+03  0.00000000000E+00 0.  1.
<mgrwt>
<rscale>  0 0.11463313E+04</rscale>
<asrwt>0</asrwt>
<pdfrwt beam="1">  1        2 0.18371402E+00 0.11463313E+04</pdfrwt>
<pdfrwt beam="2">  1       -2 0.42324445E-01 0.11463313E+04</pdfrwt>
<totfact> 0.99971501E+01</totfact>
</mgrwt>
</event>
<event>
12    1  0.1489233E-007  0.1970291E+04  0.7818608E-02  0.8620638E-01
          2   -1    0    0  501    0  0.00000000000E+00  0.00000000000E+00  0.25122954876E+04  0.25122954876E+04  0.00000000000E+00 0. -1.
         -2   -1    0    0    0  501 -0.00000000000E+00 -0.00000000000E+00 -0.38630466603E+03  0.38630466603E+03  0.00000000000E+00 0.  1.
         23    2    1    2    0    0  0.23727538472E+03 -0.45592080215E+03  0.16945435522E+04  0.17731439111E+04  0.91641109762E+02 0.  0.
        254    2    1    2    0    0 -0.23727538472E+03  0.45592080215E+03  0.43144726935E+03  0.11254562426E+04  0.90351625423E+03 0.  0.
        -24    2    4    4    0    0 -0.28665694144E+03 -0.96514248562E+02  0.46869677703E+03  0.56363352506E+03  0.80739578394E+02 0.  0.
         24    2    4    4    0    0  0.49381556721E+02  0.55243505072E+03 -0.37249507675E+02  0.56182271750E+03  0.81450700896E+02 0.  0.
         11    1    3    3    0    0  0.20731647634E+03 -0.44288330897E+03  0.15705051160E+04  0.16448744834E+04  0.00000000000E+00 0. -1.
        -11    1    3    3    0    0  0.29958908384E+02 -0.13037493186E+02  0.12403843622E+03  0.12826942769E+03  0.00000000000E+00 0.  1.
          4    1    6    6  502    0 -0.12341639960E+02  0.94370818489E+02  0.16182882575E+02  0.96540422350E+02  0.00000000000E+00 0. -1.
          1    1    5    5  503    0 -0.83119455899E+01 -0.17838158678E+02  0.58411906082E+02  0.61637968142E+02  0.00000000000E+00 0. -1.
         -2    1    5    5    0  503 -0.27834499585E+03 -0.78676089884E+02  0.41028487095E+03  0.50199555692E+03  0.00000000000E+00 0.  1.
         -3    1    6    6    0  502  0.61723196682E+02  0.45806423223E+03 -0.53432390250E+02  0.46528229515E+03  0.00000000000E+00 0.  1.
<mgrwt>
<rscale>  0 0.19702908E+04</rscale>
<asrwt>0</asrwt>
<pdfrwt beam="1">  1        2 0.38650699E+00 0.19702908E+04</pdfrwt>
<pdfrwt beam="2">  1       -2 0.59431489E-01 0.19702908E+04</pdfrwt>
<totfact> 0.84331517E+00</totfact>
</mgrwt>
</event>
<event>
12    1  0.1489233E-007  0.1984888E+04  0.7818608E-02  0.8613719E-01
         -1   -1    0    0    0  501 -0.00000000000E+00  0.00000000000E+00  0.73349486413E+03  0.73349486413E+03  0.00000000000E+00 0.  1.
          1   -1    0    0  501    0  0.00000000000E+00 -0.00000000000E+00 -0.13428106439E+04  0.13428106439E+04  0.00000000000E+00 0. -1.
         23    2    1    2    0    0 -0.44797577464E+02  0.65688555746E+03  0.20464530974E+03  0.69592733304E+03  0.94497045082E+02 0.  0.
        254    2    1    2    0    0  0.44797577464E+02 -0.65688555746E+03 -0.81396108947E+03  0.13803781750E+04  0.89966982398E+03 0.  0.
        -24    2    4    4    0    0  0.42880022031E+02 -0.23420500312E+03 -0.90612118490E+03  0.94022123459E+03  0.79181364537E+02 0.  0.
         24    2    4    4    0    0  0.19175554333E+01 -0.42268055434E+03  0.92160095429E+02  0.44015694036E+03  0.81130271307E+02 0.  0.
         13    1    3    3    0    0 -0.41546565898E+02  0.22641666078E+03  0.33274138346E+02  0.23258931553E+03  0.00000000000E+00 0. -1.
        -13    1    3    3    0    0 -0.32510115662E+01  0.43046889667E+03  0.17137117139E+03  0.46333801750E+03  0.00000000000E+00 0.  1.
          4    1    6    6  502    0 -0.25756562710E+02 -0.35531818745E+03  0.63346856875E+02  0.36183869214E+03  0.00000000000E+00 0. -1.
          1    1    5    5  503    0  0.53407412877E+02 -0.22968564457E+03 -0.81649584588E+03  0.84986664449E+03  0.00000000000E+00 0. -1.
         -2    1    5    5    0  503 -0.10527390846E+02 -0.45193585453E+01 -0.89625339013E+02  0.90354590104E+02  0.00000000000E+00 0.  1.
         -1    1    6    6    0  502  0.27674118143E+02 -0.67362366888E+02  0.28813238554E+02  0.78318248217E+02  0.00000000000E+00 0.  1.
<mgrwt>
<rscale>  0 0.19848876E+04</rscale>
<asrwt>0</asrwt>
<pdfrwt beam="1">  1        1 0.20658625E+00 0.19848876E+04</pdfrwt>
<pdfrwt beam="2">  1       -1 0.11284537E+00 0.19848876E+04</pdfrwt>
<totfact> 0.56252826E+00</totfact>
</mgrwt>
</event>
<event>
12    1  0.1489233E-007  0.1477526E+04  0.7818608E-02  0.8899537E-01
         -2   -1    0    0    0  501 -0.00000000000E+00  0.00000000000E+00  0.37753813866E+03  0.37753813866E+03  0.00000000000E+00 0.  1.
          2   -1    0    0  501    0  0.00000000000E+00 -0.00000000000E+00 -0.14456037244E+04  0.14456037244E+04  0.00000000000E+00 0. -1.
         23    2    1    2    0    0  0.32526421184E+03 -0.15574251960E+03  0.34819661125E+01  0.37147718512E+03  0.89054113104E+02 0.  0.
        254    2    1    2    0    0 -0.32526421184E+03  0.15574251960E+03 -0.10715475518E+04  0.14516646779E+04  0.91052931933E+03 0.  0.
        -24    2    4    4    0    0 -0.14682339578E+02 -0.26661927248E+03 -0.25979123713E+02  0.27947342196E+03  0.78288384573E+02 0.  0.
         24    2    4    4    0    0 -0.31058187226E+03  0.42236179208E+03 -0.10455684281E+04  0.11721912560E+04  0.77255549147E+02 0.  0.
         11    1    3    3    0    0  0.27587243666E+03 -0.16277670618E+03 -0.74562872030E+01  0.32040201873E+03  0.00000000000E+00 0.  1.
        -11    1    3    3    0    0  0.49391775174E+02  0.70341865877E+01  0.10938253316E+02  0.51075166386E+02  0.00000000000E+00 0. -1.
          4    1    6    6  502    0 -0.25686150744E+02  0.84135936427E+01 -0.44219313874E+02  0.51825810341E+02  0.00000000000E+00 0. -1.
          3    1    5    5  503    0  0.29119372584E+02 -0.58205346993E+02 -0.10725028584E+02  0.65960795298E+02  0.00000000000E+00 0. -1.
         -4    1    5    5    0  503 -0.43801712162E+02 -0.20841392549E+03 -0.15254095129E+02  0.21351262666E+03  0.00000000000E+00 0.  1.
         -3    1    6    6    0  502 -0.28489572152E+03  0.41394819844E+03 -0.10013491142E+04  0.11203654456E+04  0.00000000000E+00 0.  1.
<mgrwt>
<rscale>  0 0.14775257E+04</rscale>
<asrwt>0</asrwt>
<pdfrwt beam="1">  1        2 0.22240057E+00 0.14775257E+04</pdfrwt>
<pdfrwt beam="2">  1       -2 0.58082790E-01 0.14775257E+04</pdfrwt>
<totfact> 0.36578631E+01</totfact>
</mgrwt>
</event>
<event>
12    1  0.1489233E-007  0.1293865E+04  0.7818608E-02  0.9034445E-01
         -2   -1    0    0    0  501 -0.00000000000E+00  0.00000000000E+00  0.36053099604E+03  0.36053099604E+03  0.00000000000E+00 0.  1.
          2   -1    0    0  501    0  0.00000000000E+00 -0.00000000000E+00 -0.11608477897E+04  0.11608477897E+04  0.00000000000E+00 0. -1.
         23    2    1    2    0    0  0.29254438670E+03 -0.12356717354E+03 -0.30121199691E+03  0.44710306648E+03  0.91221819801E+02 0.  0.
        254    2    1    2    0    0 -0.29254438670E+03  0.12356717354E+03 -0.49910479678E+03  0.10742757193E+04  0.89672273213E+03 0.  0.
        -24    2    4    4    0    0  0.30522236890E+03 -0.56714694257E+02 -0.14706869342E+03  0.35276618848E+03  0.80234232891E+02 0.  0.
         24    2    4    4    0    0 -0.59776675560E+03  0.18028186780E+03 -0.35203610337E+03  0.72150953081E+03  0.82582922065E+02 0.  0.
         11    1    3    3    0    0  0.19494313731E+03 -0.71899523438E+02 -0.13582542388E+03  0.24823560185E+03  0.00000000000E+00 0.  1.
        -11    1    3    3    0    0  0.97601249392E+02 -0.51667650103E+02 -0.16538657303E+03  0.19886746463E+03  0.00000000000E+00 0. -1.
          2    1    6    6  502    0 -0.23143957639E+03  0.30429471064E+02 -0.14557845003E+03  0.27510600746E+03  0.00000000000E+00 0. -1.
          1    1    5    5  503    0 -0.16594009901E+01 -0.66527497994E+00  0.52945600195E+01  0.55882527005E+01  0.00000000000E+00 0. -1.
         -2    1    5    5    0  503  0.30688176989E+03 -0.56049419277E+02 -0.15236325343E+03  0.34717793578E+03  0.00000000000E+00 0.  1.
         -1    1    6    6    0  502 -0.36632717921E+03  0.14985239673E+03 -0.20645765334E+03  0.44640352335E+03  0.00000000000E+00 0.  1.
<mgrwt>
<rscale>  0 0.12938649E+04</rscale>
<asrwt>0</asrwt>
<pdfrwt beam="1">  1        2 0.17859197E+00 0.12938649E+04</pdfrwt>
<pdfrwt beam="2">  1       -2 0.55466308E-01 0.12938649E+04</pdfrwt>
<totfact> 0.59895689E+01</totfact>
</mgrwt>
</event>
<event>
12    1  0.1489233E-007  0.1639304E+04  0.7818608E-02  0.8796759E-01
         -2   -1    0    0    0  501 -0.00000000000E+00  0.00000000000E+00  0.65130490740E+03  0.65130490740E+03  0.00000000000E+00 0.  1.
          2   -1    0    0  501    0  0.00000000000E+00 -0.00000000000E+00 -0.10315131552E+04  0.10315131552E+04  0.00000000000E+00 0. -1.
         23    2    1    2    0    0  0.46433455886E+01  0.21617913004E+03  0.40221390240E+03  0.46563622672E+03  0.91027992527E+02 0.  0.
        254    2    1    2    0    0 -0.46433455886E+01 -0.21617913004E+03 -0.78242215023E+03  0.12171818359E+04  0.90696870045E+03 0.  0.
        -24    2    4    4    0    0 -0.10431964265E+03 -0.40429950715E+02  0.18200653736E+03  0.22853385275E+03  0.81142919936E+02 0.  0.
         24    2    4    4    0    0  0.99676297064E+02 -0.17574917932E+03 -0.96442868759E+03  0.98864798317E+03  0.80492253989E+02 0.  0.
         13    1    3    3    0    0 -0.12260819977E+01  0.18006719947E+03  0.38535725753E+03  0.42535387096E+03  0.00000000000E+00 0.  1.
        -13    1    3    3    0    0  0.58694275864E+01  0.36111930569E+02  0.16856644868E+02  0.40282355763E+02  0.00000000000E+00 0. -1.
          2    1    6    6  502    0  0.40061269564E+02 -0.99108593746E+02 -0.67384053818E+03  0.68226716876E+03  0.00000000000E+00 0. -1.
          1    1    5    5  503    0 -0.10836629431E+03 -0.12836193529E+02  0.15615977451E+03  0.19050957137E+03  0.00000000000E+00 0. -1.
         -2    1    5    5    0  503  0.40466516588E+01 -0.27593757187E+02  0.25846762843E+02  0.38024281384E+02  0.00000000000E+00 0.  1.
         -1    1    6    6    0  502  0.59615027499E+02 -0.76640585578E+02 -0.29058814941E+03  0.30638081441E+03  0.00000000000E+00 0.  1.
<mgrwt>
<rscale>  0 0.16393042E+04</rscale>
<asrwt>0</asrwt>
<pdfrwt beam="1">  1        2 0.15869433E+00 0.16393042E+04</pdfrwt>
<pdfrwt beam="2">  1       -2 0.10020076E+00 0.16393042E+04</pdfrwt>
<totfact> 0.18903321E+01</totfact>
</mgrwt>
</event>
<event>
12    1  0.1489233E-007  0.1302799E+04  0.7818608E-02  0.9027348E-01
         -2   -1    0    0    0  501 -0.00000000000E+00  0.00000000000E+00  0.22989847839E+03  0.22989847839E+03  0.00000000000E+00 0.  1.
          2   -1    0    0  501    0  0.00000000000E+00 -0.00000000000E+00 -0.18456912518E+04  0.18456912518E+04  0.00000000000E+00 0. -1.
         23    2    1    2    0    0  0.79505011500E+02 -0.26676137097E+03 -0.71014623962E+03  0.76828475289E+03  0.92038600531E+02 0.  0.
        254    2    1    2    0    0 -0.79505011500E+02  0.26676137097E+03 -0.90564653384E+03  0.13073049773E+04  0.90075967029E+03 0.  0.
        -24    2    4    4    0    0  0.36677737785E+03  0.67276583937E+02 -0.16375900625E+03  0.41528822072E+03  0.81212748343E+02 0.  0.
         24    2    4    4    0    0 -0.44628238935E+03  0.19948478703E+03 -0.74188752759E+03  0.89201675662E+03  0.79590446663E+02 0.  0.
         11    1    3    3    0    0 -0.47699284327E+01  0.49510766578E+01 -0.71986303358E+01  0.99541778182E+01  0.00000000000E+00 0.  1.
        -11    1    3    3    0    0  0.84274939932E+02 -0.27171244763E+03 -0.70294760928E+03  0.75833057507E+03  0.00000000000E+00 0. -1.
          2    1    6    6  502    0 -0.96787358262E+02  0.37520157595E+02 -0.10464529922E+03  0.14739807866E+03  0.00000000000E+00 0. -1.
          1    1    5    5  503    0  0.26210091978E+03  0.55889193754E+02 -0.15509864205E+03  0.30963863276E+03  0.00000000000E+00 0. -1.
         -2    1    5    5    0  503  0.10467645807E+03  0.11387390183E+02 -0.86603641937E+01  0.10564958796E+03  0.00000000000E+00 0.  1.
         -1    1    6    6    0  502 -0.34949503108E+03  0.16196462944E+03 -0.63724222838E+03  0.74461867796E+03  0.00000000000E+00 0.  1.
<mgrwt>
<rscale>  0 0.13027995E+04</rscale>
<asrwt>0</asrwt>
<pdfrwt beam="1">  1        2 0.28395251E+00 0.13027995E+04</pdfrwt>
<pdfrwt beam="2">  1       -2 0.35368996E-01 0.13027995E+04</pdfrwt>
<totfact> 0.59903177E+01</totfact>
</mgrwt>
</event>
<event>
12    1  0.1489233E-007  0.1611243E+04  0.7818608E-02  0.8813670E-01
          1   -1    0    0  501    0  0.00000000000E+00  0.00000000000E+00  0.26839120174E+04  0.26839120174E+04  0.00000000000E+00 0. -1.
         -1   -1    0    0    0  501 -0.00000000000E+00 -0.00000000000E+00 -0.24182099457E+03  0.24182099457E+03  0.00000000000E+00 0.  1.
         23    2    1    2    0    0  0.47033853081E+03 -0.10958897770E+02  0.13646147754E+04  0.14463961515E+04  0.92465727648E+02 0.  0.
        254    2    1    2    0    0 -0.47033853081E+03  0.10958897770E+02  0.10774762474E+04  0.14793368604E+04  0.89785525113E+03 0.  0.
        -24    2    4    4    0    0 -0.72773001879E+03  0.71178147173E+02  0.73872509636E+03  0.10422183812E+04  0.76466183364E+02 0.  0.
         24    2    4    4    0    0  0.25739148798E+03 -0.60219249403E+02  0.33875115103E+03  0.43711847926E+03  0.80271330540E+02 0.  0.
         13    1    3    3    0    0  0.13468885870E+03  0.15612830693E+02  0.51356078725E+03  0.53115866871E+03  0.00000000000E+00 0.  1.
        -13    1    3    3    0    0  0.33564967211E+03 -0.26571728464E+02  0.85105398814E+03  0.91523748277E+03  0.00000000000E+00 0. -1.
          2    1    6    6  502    0  0.10430078398E+03 -0.33311039801E+01  0.81521403091E+02  0.13242163326E+03  0.00000000000E+00 0. -1.
          1    1    5    5  503    0 -0.16146478015E+03  0.47968153170E+02  0.16697610718E+03  0.23717681024E+03  0.00000000000E+00 0. -1.
         -2    1    5    5    0  503 -0.56626523864E+03  0.23209994004E+02  0.57174898918E+03  0.80504157094E+03  0.00000000000E+00 0.  1.
         -1    1    6    6    0  502  0.15309070399E+03 -0.56888145423E+02  0.25722974794E+03  0.30469684600E+03  0.00000000000E+00 0.  1.
<mgrwt>
<rscale>  0 0.16112433E+04</rscale>
<asrwt>0</asrwt>
<pdfrwt beam="1">  1        1 0.41290952E+00 0.16112433E+04</pdfrwt>
<pdfrwt beam="2">  1       -1 0.37203232E-01 0.16112433E+04</pdfrwt>
<totfact> 0.67318660E+00</totfact>
</mgrwt>
</event>
<event>
12    1  0.1489233E-007  0.2120570E+04  0.7818608E-02  0.8552236E-01
          1   -1    0    0  501    0  0.00000000000E+00  0.00000000000E+00  0.12096269078E+04  0.12096269078E+04  0.00000000000E+00 0. -1.
         -1   -1    0    0    0  501 -0.00000000000E+00 -0.00000000000E+00 -0.92938101615E+03  0.92938101615E+03  0.00000000000E+00 0.  1.
         23    2    1    2    0    0  0.73378358527E+03 -0.35381780162E+03  0.42574977435E+03  0.92519669978E+03  0.10535974641E+03 0.  0.
        254    2    1    2    0    0 -0.73378358527E+03  0.35381780162E+03 -0.14550388270E+03  0.12138112242E+04  0.88799826650E+03 0.  0.
        -24    2    4    4    0    0 -0.91338633584E+03  0.39092741785E+03 -0.17526174819E+03  0.10120892673E+04  0.80679366134E+02 0.  0.
         24    2    4    4    0    0  0.17960275057E+03 -0.37109616229E+02  0.29757865490E+02  0.20172195686E+03  0.78561731718E+02 0.  0.
         13    1    3    3    0    0  0.71342905352E+03 -0.33372601274E+03  0.38848711251E+03  0.87822337851E+03  0.00000000000E+00 0. -1.
        -13    1    3    3    0    0  0.20354531758E+02 -0.20091788877E+02  0.37262661839E+02  0.46973321266E+02  0.00000000000E+00 0.  1.
          2    1    6    6  502    0  0.14113119919E+03 -0.55492084363E+02  0.42007444543E+02  0.15735949990E+03  0.00000000000E+00 0. -1.
          3    1    5    5  503    0 -0.71120816936E+03  0.33142308908E+03 -0.15998785934E+03  0.80078364074E+03  0.00000000000E+00 0. -1.
         -4    1    5    5    0  503 -0.20217816649E+03  0.59504328763E+02 -0.15273888852E+02  0.21130562658E+03  0.00000000000E+00 0.  1.
         -1    1    6    6    0  502  0.38471551384E+02  0.18382468133E+02 -0.12249579054E+02  0.44362456961E+02  0.00000000000E+00 0.  1.
<mgrwt>
<rscale>  0 0.21205700E+04</rscale>
<asrwt>0</asrwt>
<pdfrwt beam="1">  1        1 0.18609645E+00 0.21205700E+04</pdfrwt>
<pdfrwt beam="2">  1       -1 0.14298169E+00 0.21205700E+04</pdfrwt>
<totfact> 0.38278569E+00</totfact>
</mgrwt>
</event>
<event>
12    1  0.1489233E-007  0.4207747E+04  0.7818608E-02  0.7963900E-01
          1   -1    0    0  501    0  0.00000000000E+00  0.00000000000E+00  0.25566364227E+04  0.25566364227E+04  0.00000000000E+00 0. -1.
         -1   -1    0    0    0  501 -0.00000000000E+00 -0.00000000000E+00 -0.17312921068E+04  0.17312921068E+04  0.00000000000E+00 0.  1.
         23    2    1    2    0    0  0.18369707263E+04  0.79276236388E+03  0.54795199517E+03  0.20764332471E+04  0.91597083097E+02 0.  0.
        254    2    1    2    0    0 -0.18369707263E+04 -0.79276236388E+03  0.27739232067E+03  0.22114952824E+04  0.90046169796E+03 0.  0.
        -24    2    4    4    0    0 -0.94209232130E+03 -0.84684102249E+02 -0.20377467630E+03  0.97054292723E+03  0.75631447642E+02 0.  0.
         24    2    4    4    0    0 -0.89487840504E+03 -0.70807826163E+03  0.48116699698E+03  0.12409523552E+04  0.79113111505E+02 0.  0.
         11    1    3    3    0    0  0.11913335661E+03  0.75191604654E+02  0.47261862553E+02  0.14859413757E+03  0.00000000000E+00 0.  1.
        -11    1    3    3    0    0  0.17178373697E+04  0.71757075922E+03  0.50069013262E+03  0.19278391095E+04  0.00000000000E+00 0. -1.
          4    1    6    6  502    0 -0.89455509885E+03 -0.70972290615E+03  0.48146246261E+03  0.12392503909E+04  0.00000000000E+00 0. -1.
          1    1    5    5  503    0 -0.91383647484E+03 -0.73132842610E+02 -0.20702981391E+03  0.93984406114E+03  0.00000000000E+00 0. -1.
         -2    1    5    5    0  503 -0.28255846457E+02 -0.11551259640E+02  0.32551376052E+01  0.30698866088E+02  0.00000000000E+00 0.  1.
         -3    1    6    6    0  502 -0.32330618661E+00  0.16446445196E+01 -0.29546563207E+00  0.17019642845E+01  0.00000000000E+00 0.  1.
<mgrwt>
<rscale>  0 0.42077474E+04</rscale>
<asrwt>0</asrwt>
<pdfrwt beam="1">  1        1 0.39332868E+00 0.42077474E+04</pdfrwt>
<pdfrwt beam="2">  1       -1 0.26635263E+00 0.42077474E+04</pdfrwt>
<totfact> 0.51948003E-02</totfact>
</mgrwt>
</event>
<event>
12    1  0.1489233E-007  0.1417775E+04  0.7818608E-02  0.8941051E-01
          2   -1    0    0  501    0  0.00000000000E+00  0.00000000000E+00  0.22626467199E+04  0.22626467199E+04  0.00000000000E+00 0. -1.
         -2   -1    0    0    0  501 -0.00000000000E+00 -0.00000000000E+00 -0.22209463307E+03  0.22209463307E+03  0.00000000000E+00 0.  1.
         23    2    1    2    0    0 -0.29220886761E+03 -0.42139788124E+01  0.83971201021E+03  0.89367105991E+03  0.90154995923E+02 0.  0.
        254    2    1    2    0    0  0.29220886761E+03  0.42139788124E+01  0.12008400767E+04  0.15910702931E+04  0.10020399233E+04 0.  0.
        -24    2    4    4    0    0  0.62071257656E+03 -0.17528057372E+03  0.64118075244E+03  0.91293824931E+03  0.79599670426E+02 0.  0.
         24    2    4    4    0    0 -0.32850370895E+03  0.17949455253E+03  0.55965932422E+03  0.67813204380E+03  0.80694042205E+02 0.  0.
         11    1    3    3    0    0 -0.27445050747E+03 -0.23384217869E+02  0.80037428848E+03  0.84644486197E+03  0.00000000000E+00 0. -1.
        -11    1    3    3    0    0 -0.17758360140E+02  0.19170239057E+02  0.39337721738E+02  0.47226197940E+02  0.00000000000E+00 0.  1.
          2    1    6    6  502    0 -0.30162062508E+03  0.14181159360E+03  0.51737631716E+03  0.61543787917E+03  0.00000000000E+00 0. -1.
          1    1    5    5  503    0  0.24428974630E+03 -0.10873273662E+03  0.25214725714E+03  0.36753030819E+03  0.00000000000E+00 0. -1.
         -4    1    5    5    0  503  0.37642283026E+03 -0.66547837095E+02  0.38903349530E+03  0.54540794112E+03  0.00000000000E+00 0.  1.
         -1    1    6    6    0  502 -0.26883083876E+02  0.37682958932E+02  0.42283007062E+02  0.62694164631E+02  0.00000000000E+00 0.  1.
<mgrwt>
<rscale>  0 0.14177753E+04</rscale>
<asrwt>0</asrwt>
<pdfrwt beam="1">  1        2 0.34809948E+00 0.14177753E+04</pdfrwt>
<pdfrwt beam="2">  1       -2 0.34168407E-01 0.14177753E+04</pdfrwt>
<totfact> 0.37182279E+01</totfact>
</mgrwt>
</event>
<event>
12    1  0.1489233E-007  0.2341262E+04  0.7818608E-02  0.8461828E-01
         -2   -1    0    0    0  501 -0.00000000000E+00  0.00000000000E+00  0.13345842692E+04  0.13345842692E+04  0.00000000000E+00 0.  1.
          2   -1    0    0  501    0  0.00000000000E+00 -0.00000000000E+00 -0.10268189821E+04  0.10268189821E+04  0.00000000000E+00 0. -1.
         23    2    1    2    0    0 -0.31927680137E+03 -0.85695997575E+03  0.52891057358E+03  0.10605590895E+04  0.93386891283E+02 0.  0.
        254    2    1    2    0    0  0.31927680137E+03  0.85695997575E+03 -0.22114528652E+03  0.13008441619E+04  0.89831632501E+03 0.  0.
        -24    2    4    4    0    0 -0.10663393176E+03  0.61190986777E+03  0.19062352911E+03  0.65453850738E+03  0.79239170387E+02 0.  0.
         24    2    4    4    0    0  0.42591073313E+03  0.24505010798E+03 -0.41176881563E+03  0.64630565448E+03  0.81901974794E+02 0.  0.
         11    1    3    3    0    0 -0.28288237289E+02 -0.15932550237E+03  0.11735862451E+03  0.19989468933E+03  0.00000000000E+00 0. -1.
        -11    1    3    3    0    0 -0.29098856408E+03 -0.69763447338E+03  0.41155194907E+03  0.86066440013E+03  0.00000000000E+00 0.  1.
          4    1    6    6  502    0  0.22290748284E+03  0.15183360668E+03 -0.17906485658E+03  0.32373664125E+03  0.00000000000E+00 0. -1.
          1    1    5    5  503    0 -0.11732903139E+03  0.49415611314E+03  0.15725300684E+03  0.53168117694E+03  0.00000000000E+00 0. -1.
         -2    1    5    5    0  503  0.10695099633E+02  0.11775375463E+03  0.33370522276E+02  0.12285733044E+03  0.00000000000E+00 0.  1.
         -3    1    6    6    0  502  0.20300325028E+03  0.93216501301E+02 -0.23270395905E+03  0.32256901323E+03  0.00000000000E+00 0.  1.
<mgrwt>
<rscale>  0 0.23412616E+04</rscale>
<asrwt>0</asrwt>
<pdfrwt beam="1">  1        2 0.15797215E+00 0.23412616E+04</pdfrwt>
<pdfrwt beam="2">  1       -2 0.20532066E+00 0.23412616E+04</pdfrwt>
<totfact> 0.26853943E+00</totfact>
</mgrwt>
</event>
<event>
12    1  0.1489233E-007  0.1159688E+04  0.7818608E-02  0.9148892E-01
          1   -1    0    0  501    0  0.00000000000E+00  0.00000000000E+00  0.17999224327E+04  0.17999224327E+04  0.00000000000E+00 0. -1.
         -1   -1    0    0    0  501 -0.00000000000E+00 -0.00000000000E+00 -0.18679636783E+03  0.18679636783E+03  0.00000000000E+00 0.  1.
         23    2    1    2    0    0  0.44294012367E+02  0.15791541267E+03  0.55075464506E+03  0.58203238591E+03  0.92367646371E+02 0.  0.
        254    2    1    2    0    0 -0.44294012367E+02 -0.15791541267E+03  0.10623714198E+04  0.14046864147E+04  0.90421880800E+03 0.  0.
        -24    2    4    4    0    0  0.87359653376E+02  0.80716654699E+02 -0.12155929852E+03  0.18749578009E+03  0.78937425295E+02 0.  0.
         24    2    4    4    0    0 -0.13165366574E+03 -0.23863206737E+03  0.11839307184E+04  0.12171906346E+04  0.74720437126E+02 0.  0.
         11    1    3    3    0    0  0.56770458448E+02  0.41220233065E+02  0.18206553247E+03  0.19511496785E+03  0.00000000000E+00 0.  1.
        -11    1    3    3    0    0 -0.12476446081E+02  0.11669517960E+03  0.36868911260E+03  0.38691741806E+03  0.00000000000E+00 0. -1.
          2    1    6    6  502    0 -0.54242385612E+02 -0.15963699832E+03  0.80404451171E+03  0.82153136547E+03  0.00000000000E+00 0. -1.
          1    1    5    5  503    0  0.56453759401E+02  0.93565718027E+02 -0.93617918312E+02  0.14389539662E+03  0.00000000000E+00 0. -1.
         -2    1    5    5    0  503  0.30905893975E+02 -0.12849063327E+02 -0.27941380208E+02  0.43600383470E+02  0.00000000000E+00 0.  1.
         -1    1    6    6    0  502 -0.77411280131E+02 -0.78995069048E+02  0.37988620664E+03  0.39565926910E+03  0.00000000000E+00 0.  1.
<mgrwt>
<rscale>  0 0.11596878E+04</rscale>
<asrwt>0</asrwt>
<pdfrwt beam="1">  1        1 0.27691113E+00 0.11596878E+04</pdfrwt>
<pdfrwt beam="2">  1       -1 0.28737904E-01 0.11596878E+04</pdfrwt>
<totfact> 0.44535811E+01</totfact>
</mgrwt>
</event>
<event>
12    1  0.1489233E-007  0.4784002E+04  0.7818608E-02  0.7862719E-01
          2   -1    0    0  501    0  0.00000000000E+00  0.00000000000E+00  0.29664740968E+04  0.29664740968E+04  0.00000000000E+00 0.  1.
         -2   -1    0    0    0  501 -0.00000000000E+00 -0.00000000000E+00 -0.19287773948E+04  0.19287773948E+04  0.00000000000E+00 0. -1.
         23    2    1    2    0    0  0.73992844207E+03 -0.20501495309E+04  0.11970283440E+04  0.24882332245E+04  0.88433728749E+02 0.  0.
        254    2    1    2    0    0 -0.73992844207E+03  0.20501495309E+04 -0.15933164194E+03  0.24070182672E+04  0.10088325767E+04 0.  0.
        -24    2    4    4    0    0 -0.72487052328E+03  0.12042393225E+04  0.30247055232E+03  0.14400035689E+04  0.80574325836E+02 0.  0.
         24    2    4    4    0    0 -0.15057918793E+02  0.84591020840E+03 -0.46180219426E+03  0.96701469827E+03  0.77880282805E+02 0.  0.
         11    1    3    3    0    0  0.65544725786E+03 -0.17336418574E+04  0.10003911095E+04  0.21061594360E+04  0.00000000000E+00 0. -1.
        -11    1    3    3    0    0  0.84481184208E+02 -0.31650767349E+03  0.19663723453E+03  0.38207378851E+03  0.00000000000E+00 0.  1.
          4    1    6    6  502    0 -0.13881286756E+02  0.91325883847E+02 -0.27539818185E+02  0.96392680054E+02  0.00000000000E+00 0. -1.
          3    1    5    5  503    0 -0.10714171202E+03  0.13360220103E+03  0.50161967335E+02  0.17845200347E+03  0.00000000000E+00 0. -1.
         -4    1    5    5    0  503 -0.61772881125E+03  0.10706371215E+04  0.25230858499E+03  0.12615515654E+04  0.00000000000E+00 0.  1.
         -3    1    6    6    0  502 -0.11766320375E+01  0.75458432455E+03 -0.43426237608E+03  0.87062201821E+03  0.00000000000E+00 0.  1.
<mgrwt>
<rscale>  0 0.47840017E+04</rscale>
<asrwt>0</asrwt>
<pdfrwt beam="1">  1        2 0.45638063E+00 0.47840017E+04</pdfrwt>
<pdfrwt beam="2">  1       -2 0.29673498E+00 0.47840017E+04</pdfrwt>
<totfact> 0.45017383E-02</totfact>
</mgrwt>
</event>
<event>
12    1  0.1489233E-007  0.2140305E+04  0.7818608E-02  0.8543694E-01
         -2   -1    0    0    0  501 -0.00000000000E+00  0.00000000000E+00  0.13781851974E+04  0.13781851974E+04  0.00000000000E+00 0.  1.
          2   -1    0    0  501    0  0.00000000000E+00 -0.00000000000E+00 -0.83096706540E+03  0.83096706540E+03  0.00000000000E+00 0. -1.
         23    2    1    2    0    0  0.20400989978E+03 -0.51761157659E+03 -0.46085783769E+03  0.72783304296E+03  0.88369725781E+02 0.  0.
        254    2    1    2    0    0 -0.20400989978E+03  0.51761157659E+03  0.10080759697E+04  0.14813192198E+04  0.93195905862E+03 0.  0.
        -24    2    4    4    0    0 -0.66109005796E+02 -0.59341748583E+02  0.85480282041E+03  0.86290364509E+03  0.77607958012E+02 0.  0.
         24    2    4    4    0    0 -0.13790089399E+03  0.57695332518E+03  0.15327314925E+03  0.61841557472E+03  0.83984336547E+02 0.  0.
         13    1    3    3    0    0  0.10409300115E+03 -0.21640433069E+03 -0.14734121889E+03  0.28173679563E+03  0.00000000000E+00 0.  1.
        -13    1    3    3    0    0  0.99916898637E+02 -0.30120724590E+03 -0.31351661880E+03  0.44609624733E+03  0.00000000000E+00 0. -1.
          4    1    6    6  502    0 -0.44897662618E+02  0.11240675359E+03  0.19033063772E+01  0.12105660220E+03  0.00000000000E+00 0. -1.
          3    1    5    5  503    0 -0.42744207423E+02 -0.10507292053E+02  0.63532007034E+03  0.63684304364E+03  0.00000000000E+00 0. -1.
         -4    1    5    5    0  503 -0.23364798373E+02 -0.48834456530E+02  0.21948275007E+03  0.22606060145E+03  0.00000000000E+00 0.  1.
         -1    1    6    6    0  502 -0.93003231367E+02  0.46454657159E+03  0.15136984287E+03  0.49735897252E+03  0.00000000000E+00 0.  1.
<mgrwt>
<rscale>  0 0.21403051E+04</rscale>
<asrwt>0</asrwt>
<pdfrwt beam="1">  1        2 0.12784109E+00 0.21403051E+04</pdfrwt>
<pdfrwt beam="2">  1       -2 0.21202849E+00 0.21403051E+04</pdfrwt>
<totfact> 0.33394219E+00</totfact>
</mgrwt>
</event>
<event>
12    1  0.1489233E-007  0.1539218E+04  0.7818608E-02  0.8858785E-01
          2   -1    0    0  501    0  0.00000000000E+00  0.00000000000E+00  0.11172881445E+04  0.11172881445E+04  0.00000000000E+00 0.  1.
         -2   -1    0    0    0  501 -0.00000000000E+00 -0.00000000000E+00 -0.53012075693E+03  0.53012075693E+03  0.00000000000E+00 0. -1.
         23    2    1    2    0    0 -0.38542387397E+03  0.30404735569E+03  0.21051824744E+03  0.54687171152E+03  0.11727906560E+03 0.  0.
        254    2    1    2    0    0  0.38542387397E+03 -0.30404735569E+03  0.37664914015E+03  0.11005371899E+04  0.91012151634E+03 0.  0.
        -24    2    4    4    0    0  0.37763859225E+03 -0.27813428378E+03  0.65544301959E+03  0.80986727042E+03  0.79434612045E+02 0.  0.
         24    2    4    4    0    0  0.77852817201E+01 -0.25913071907E+02 -0.27879387945E+03  0.29066991950E+03  0.77658721211E+02 0.  0.
         11    1    3    3    0    0 -0.12728996898E+03  0.91472293005E+02  0.12818589131E+03  0.20248836836E+03  0.00000000000E+00 0. -1.
        -11    1    3    3    0    0 -0.25813390500E+03  0.21257506268E+03  0.82332356134E+02  0.34438334317E+03  0.00000000000E+00 0.  1.
          2    1    6    6  502    0 -0.28611362037E+02 -0.34066112093E+02 -0.13636508335E+03  0.14343830028E+03  0.00000000000E+00 0. -1.
          1    1    5    5  503    0  0.10512970251E+03 -0.36796957054E+02  0.14174437526E+03  0.18027129088E+03  0.00000000000E+00 0. -1.
         -2    1    5    5    0  503  0.27250888974E+03 -0.24133732673E+03  0.51369864433E+03  0.62959597954E+03  0.00000000000E+00 0.  1.
         -1    1    6    6    0  502  0.36396643757E+02  0.81530401868E+01 -0.14242879610E+03  0.14723161922E+03  0.00000000000E+00 0.  1.
<mgrwt>
<rscale>  0 0.15392175E+04</rscale>
<asrwt>0</asrwt>
<pdfrwt beam="1">  1        2 0.17189048E+00 0.15392175E+04</pdfrwt>
<pdfrwt beam="2">  1       -2 0.81557039E-01 0.15392175E+04</pdfrwt>
<totfact> 0.27108869E+01</totfact>
</mgrwt>
</event>
<event>
12    1  0.1489233E-007  0.1548219E+04  0.7818608E-02  0.8853006E-01
          2   -1    0    0  501    0  0.00000000000E+00  0.00000000000E+00  0.49418488545E+03  0.49418488545E+03  0.00000000000E+00 0. -1.
         -2   -1    0    0    0  501 -0.00000000000E+00 -0.00000000000E+00 -0.12125931058E+04  0.12125931058E+04  0.00000000000E+00 0.  1.
         23    2    1    2    0    0 -0.33063478077E+03  0.32603925082E+03 -0.12708061399E+02  0.47355101672E+03  0.92022384687E+02 0.  0.
        254    2    1    2    0    0  0.33063478077E+03 -0.32603925082E+03 -0.70570015891E+03  0.12332269745E+04  0.89845150397E+03 0.  0.
        -24    2    4    4    0    0  0.14583418226E+03  0.24839090964E+03  0.34312001115E+01  0.29902846332E+03  0.80253324124E+02 0.  0.
         24    2    4    4    0    0  0.18480059851E+03 -0.57443016046E+03 -0.70913135902E+03  0.93419851117E+03  0.75751590532E+02 0.  0.
         11    1    3    3    0    0 -0.80207219508E+02  0.10971872665E+03  0.31994341453E+02  0.13962462148E+03  0.00000000000E+00 0. -1.
        -11    1    3    3    0    0 -0.25042756126E+03  0.21632052416E+03 -0.44702402851E+02  0.33392639523E+03  0.00000000000E+00 0.  1.
          2    1    6    6  502    0  0.16578736369E+03 -0.48398857768E+03 -0.55783444453E+03  0.75690796058E+03  0.00000000000E+00 0. -1.
          1    1    5    5  503    0  0.62499264816E+02  0.18167376910E+03 -0.20771800162E+01  0.19213492956E+03  0.00000000000E+00 0. -1.
         -4    1    5    5    0  503  0.83334917441E+02  0.66717140544E+02  0.55083801277E+01  0.10689353376E+03  0.00000000000E+00 0.  1.
         -1    1    6    6    0  502  0.19013234823E+02 -0.90441582776E+02 -0.15129691449E+03  0.17729055059E+03  0.00000000000E+00 0.  1.
<mgrwt>
<rscale>  0 0.15482186E+04</rscale>
<asrwt>0</asrwt>
<pdfrwt beam="1">  1        2 0.76028445E-01 0.15482186E+04</pdfrwt>
<pdfrwt beam="2">  1       -2 0.18655278E+00 0.15482186E+04</pdfrwt>
<totfact> 0.98168431E+00</totfact>
</mgrwt>
</event>
<event>
12    1  0.1489233E-007  0.2101163E+04  0.7818608E-02  0.8560731E-01
         -2   -1    0    0    0  501 -0.00000000000E+00  0.00000000000E+00  0.62093464210E+03  0.62093464210E+03  0.00000000000E+00 0.  1.
          2   -1    0    0  501    0  0.00000000000E+00 -0.00000000000E+00 -0.17775165415E+04  0.17775165415E+04  0.00000000000E+00 0. -1.
         23    2    1    2    0    0 -0.23519104428E+03 -0.81026918612E+03 -0.30655400642E+03  0.90236968319E+03  0.91895076043E+02 0.  0.
        254    2    1    2    0    0  0.23519104428E+03  0.81026918612E+03 -0.85002789298E+03  0.14960815004E+04  0.89658321183E+03 0.  0.
        -24    2    4    4    0    0  0.36474290461E+03  0.84587809020E+03 -0.37730136634E+03  0.99830936226E+03  0.75618329740E+02 0.  0.
         24    2    4    4    0    0 -0.12955186033E+03 -0.35608904080E+02 -0.47272652664E+03  0.49777213815E+03  0.79088899100E+02 0.  0.
         13    1    3    3    0    0 -0.87090567821E+02 -0.29596819096E+03 -0.65515255512E+02  0.31539528495E+03  0.00000000000E+00 0. -1.
        -13    1    3    3    0    0 -0.14810047646E+03 -0.51430099516E+03 -0.24103875090E+03  0.58697439824E+03  0.00000000000E+00 0.  1.
          2    1    6    6  502    0 -0.93938351602E+02 -0.60886407586E+02 -0.32605059513E+03  0.34473259073E+03  0.00000000000E+00 0. -1.
          1    1    5    5  503    0  0.35478305790E+03  0.79075132445E+03 -0.36772368001E+03  0.94147723293E+03  0.00000000000E+00 0. -1.
         -2    1    5    5    0  503  0.99598467145E+01  0.55126765752E+02 -0.95776863296E+01  0.56832129331E+02  0.00000000000E+00 0.  1.
         -1    1    6    6    0  502 -0.35613508731E+02  0.25277503506E+02 -0.14667593151E+03  0.15303954741E+03  0.00000000000E+00 0.  1.
<mgrwt>
<rscale>  0 0.21011631E+04</rscale>
<asrwt>0</asrwt>
<pdfrwt beam="1">  1        2 0.27346408E+00 0.21011631E+04</pdfrwt>
<pdfrwt beam="2">  1       -2 0.95528408E-01 0.21011631E+04</pdfrwt>
<totfact> 0.75282166E+00</totfact>
</mgrwt>
</event>
<event>
12    1  0.1489233E-007  0.1372858E+04  0.7818608E-02  0.8973703E-01
         -4   -1    0    0    0  501 -0.00000000000E+00  0.00000000000E+00  0.33941597931E+03  0.33941597931E+03  0.00000000000E+00 0.  1.
          4   -1    0    0  501    0  0.00000000000E+00 -0.00000000000E+00 -0.13882227179E+04  0.13882227179E+04  0.00000000000E+00 0. -1.
         23    2    1    2    0    0  0.17373897838E+03  0.62986901907E+02  0.12388667393E+03  0.24104059920E+03  0.92736616632E+02 0.  0.
        254    2    1    2    0    0 -0.17373897838E+03 -0.62986901907E+02 -0.11726934125E+04  0.14865980980E+04  0.89476895497E+03 0.  0.
        -24    2    4    4    0    0 -0.19226905992E+03  0.20901066020E+03 -0.11640379280E+04  0.12008638872E+04  0.80230482388E+02 0.  0.
         24    2    4    4    0    0  0.18530081539E+02 -0.27199756211E+03 -0.86554844684E+01  0.28573421074E+03  0.85106310362E+02 0.  0.
         11    1    3    3    0    0  0.97641937601E+02  0.61689938192E+02  0.28407599666E+02  0.11893943068E+03  0.00000000000E+00 0.  1.
        -11    1    3    3    0    0  0.76097040782E+02  0.12969637148E+01  0.95479074269E+02  0.12210116852E+03  0.00000000000E+00 0. -1.
          2    1    6    6  502    0 -0.32434144636E+02 -0.12783653151E+03 -0.14745129335E+02  0.13270859568E+03  0.00000000000E+00 0. -1.
          3    1    5    5  503    0 -0.78882194475E+02  0.34828538217E+02 -0.29704617786E+03  0.30930867990E+03  0.00000000000E+00 0. -1.
         -4    1    5    5    0  503 -0.11338686545E+03  0.17418212198E+03 -0.86699175017E+03  0.89155520734E+03  0.00000000000E+00 0.  1.
         -1    1    6    6    0  502  0.50964226175E+02 -0.14416103059E+03  0.60896448669E+01  0.15302561506E+03  0.00000000000E+00 0.  1.
<mgrwt>
<rscale>  0 0.13728583E+04</rscale>
<asrwt>0</asrwt>
<pdfrwt beam="1">  1        4 0.21357272E+00 0.13728583E+04</pdfrwt>
<pdfrwt beam="2">  1       -4 0.52217843E-01 0.13728583E+04</pdfrwt>
<totfact> 0.73756814E-01</totfact>
</mgrwt>
</event>
<event>
12    1  0.1489233E-007  0.1764272E+04  0.7818608E-02  0.8725533E-01
         -1   -1    0    0    0  501 -0.00000000000E+00  0.00000000000E+00  0.34916723024E+03  0.34916723024E+03  0.00000000000E+00 0.  1.
          1   -1    0    0  501    0  0.00000000000E+00 -0.00000000000E+00 -0.22286287244E+04  0.22286287244E+04  0.00000000000E+00 0. -1.
         23    2    1    2    0    0  0.53677628649E+03 -0.23932900541E+03 -0.10915180289E+04  0.12430631131E+04  0.91581337225E+02 0.  0.
        254    2    1    2    0    0 -0.53677628649E+03  0.23932900541E+03 -0.78794346530E+03  0.13347328415E+04  0.90291178922E+03 0.  0.
        -24    2    4    4    0    0 -0.70377258654E+03  0.10792921157E+03 -0.84041479581E+03  0.11037768975E+04  0.71287040601E+02 0.  0.
         24    2    4    4    0    0  0.16699630006E+03  0.13139979384E+03  0.52471330505E+02  0.23095594401E+03  0.73713889422E+02 0.  0.
         11    1    3    3    0    0  0.46410217860E+02  0.21902507906E+01 -0.11379381206E+03  0.12291353540E+03  0.00000000000E+00 0.  1.
        -11    1    3    3    0    0  0.49036606863E+03 -0.24151925620E+03 -0.97772421680E+03  0.11201495777E+04  0.00000000000E+00 0. -1.
          2    1    6    6  502    0  0.61332079899E+02  0.68186875916E+02  0.56575524526E+02  0.10775835952E+03  0.00000000000E+00 0. -1.
          3    1    5    5  503    0 -0.47823223391E+03  0.79422757476E+02 -0.52021103777E+03  0.71107915718E+03  0.00000000000E+00 0. -1.
         -4    1    5    5    0  503 -0.22554035263E+03  0.28506454095E+02 -0.32020375803E+03  0.39269774032E+03  0.00000000000E+00 0.  1.
         -3    1    6    6    0  502  0.10566422016E+03  0.63212917923E+02 -0.41041940211E+01  0.12319758448E+03  0.00000000000E+00 0.  1.
<mgrwt>
<rscale>  0 0.17642722E+04</rscale>
<asrwt>0</asrwt>
<pdfrwt beam="1">  1        1 0.34286595E+00 0.17642722E+04</pdfrwt>
<pdfrwt beam="2">  1       -1 0.53718037E-01 0.17642722E+04</pdfrwt>
<totfact> 0.68977890E+00</totfact>
</mgrwt>
</event>
<event>
12    1  0.1489233E-007  0.2698390E+04  0.7818608E-02  0.8335528E-01
         -2   -1    0    0    0  501 -0.00000000000E+00  0.00000000000E+00  0.15140451979E+04  0.15140451979E+04  0.00000000000E+00 0.  1.
          2   -1    0    0  501    0  0.00000000000E+00 -0.00000000000E+00 -0.12022936454E+04  0.12022936454E+04  0.00000000000E+00 0. -1.
         23    2    1    2    0    0 -0.94550793676E+03  0.22524470717E+03 -0.55320037569E+03  0.11234835016E+04  0.10707047219E+03 0.  0.
        254    2    1    2    0    0  0.94550793676E+03 -0.22524470717E+03  0.86495192816E+03  0.15928553417E+04  0.91887206132E+03 0.  0.
        -24    2    4    4    0    0  0.75300541351E+03  0.58152196486E+02  0.11962586501E+03  0.76883072644E+03  0.79946904933E+02 0.  0.
         24    2    4    4    0    0  0.19250252325E+03 -0.28339690366E+03  0.74532606315E+03  0.82402461529E+03  0.78323685642E+02 0.  0.
         11    1    3    3    0    0 -0.74241665397E+03  0.20432441701E+03 -0.47566770583E+03  0.90509155440E+03  0.00000000000E+00 0.  1.
        -11    1    3    3    0    0 -0.20309128279E+03  0.20920290161E+02 -0.77532669859E+02  0.21839194715E+03  0.00000000000E+00 0. -1.
          4    1    6    6  502    0  0.86112406831E+02 -0.16880712240E+03  0.47996751223E+03  0.51602325914E+03  0.00000000000E+00 0. -1.
          1    1    5    5  503    0  0.65762046572E+03  0.45135671466E+02  0.13046117871E+03  0.67195388601E+03  0.00000000000E+00 0. -1.
         -2    1    5    5    0  503  0.95384947791E+02  0.13016525020E+02 -0.10835313709E+02  0.96876840431E+02  0.00000000000E+00 0.  1.
         -3    1    6    6    0  502  0.10639011642E+03 -0.11458978126E+03  0.26535855093E+03  0.30800135615E+03  0.00000000000E+00 0.  1.
<mgrwt>
<rscale>  0 0.26983898E+04</rscale>
<asrwt>0</asrwt>
<pdfrwt beam="1">  1        2 0.18496825E+00 0.26983898E+04</pdfrwt>
<pdfrwt beam="2">  1       -2 0.23293003E+00 0.26983898E+04</pdfrwt>
<totfact> 0.13578728E+00</totfact>
</mgrwt>
</event>
<event>
12    1  0.1489233E-007  0.1461299E+04  0.7818608E-02  0.8910604E-01
          1   -1    0    0  501    0  0.00000000000E+00  0.00000000000E+00  0.56277359873E+03  0.56277359873E+03  0.00000000000E+00 0. -1.
         -1   -1    0    0    0  501 -0.00000000000E+00 -0.00000000000E+00 -0.94860297829E+03  0.94860297829E+03  0.00000000000E+00 0.  1.
         23    2    1    2    0    0  0.38231636835E+03  0.48903796508E+02  0.12659234921E+03  0.41556668248E+03  0.90070294147E+02 0.  0.
        254    2    1    2    0    0 -0.38231636835E+03 -0.48903796508E+02 -0.51242172877E+03  0.10958098945E+04  0.88863148155E+03 0.  0.
        -24    2    4    4    0    0 -0.34500869094E+02  0.76351344891E+02 -0.67461586205E+03  0.68448032923E+03  0.79918220336E+02 0.  0.
         24    2    4    4    0    0 -0.34781549926E+03 -0.12525514140E+03  0.16219413328E+03  0.41132956530E+03  0.78870795901E+02 0.  0.
         11    1    3    3    0    0  0.31324671472E+03  0.47241831540E+02  0.13799921508E+03  0.34554171715E+03  0.00000000000E+00 0. -1.
        -11    1    3    3    0    0  0.69069653639E+02  0.16619649677E+01 -0.11406865869E+02  0.70024965336E+02  0.00000000000E+00 0.  1.
          4    1    6    6  502    0 -0.17759385943E+03 -0.65066760155E+02  0.12578542908E+03  0.22714584820E+03  0.00000000000E+00 0. -1.
          1    1    5    5  503    0 -0.93840427424E+01  0.30176361310E+02 -0.52406635307E+03  0.52501830012E+03  0.00000000000E+00 0. -1.
         -2    1    5    5    0  503 -0.25116826351E+02  0.46174983582E+02 -0.15054950898E+03  0.15946202911E+03  0.00000000000E+00 0.  1.
         -3    1    6    6    0  502 -0.17022163983E+03 -0.60188381245E+02  0.36408704192E+02  0.18418371710E+03  0.00000000000E+00 0.  1.
<mgrwt>
<rscale>  0 0.14612990E+04</rscale>
<asrwt>0</asrwt>
<pdfrwt beam="1">  1        1 0.86580553E-01 0.14612990E+04</pdfrwt>
<pdfrwt beam="2">  1       -1 0.14593892E+00 0.14612990E+04</pdfrwt>
<totfact> 0.13685101E+01</totfact>
</mgrwt>
</event>
<event>
12    1  0.1489233E-007  0.1672052E+04  0.7818608E-02  0.8777467E-01
          1   -1    0    0  501    0  0.00000000000E+00  0.00000000000E+00  0.24832532928E+04  0.24832532928E+04  0.00000000000E+00 0. -1.
         -1   -1    0    0    0  501 -0.00000000000E+00 -0.00000000000E+00 -0.28146124069E+03  0.28146124069E+03  0.00000000000E+00 0.  1.
         23    2    1    2    0    0 -0.30482561397E+03  0.29392276039E+03  0.14596483230E+04  0.15232529528E+04  0.10206413428E+03 0.  0.
        254    2    1    2    0    0  0.30482561397E+03 -0.29392276039E+03  0.74214372918E+03  0.12414615807E+04  0.90063327588E+03 0.  0.
        -24    2    4    4    0    0  0.50482521362E+03 -0.28839147042E+03  0.82393905040E+03  0.10113550287E+04  0.77105763481E+02 0.  0.
         24    2    4    4    0    0 -0.19999959965E+03 -0.55312899709E+01 -0.81795321228E+02  0.23010655202E+03  0.78918411542E+02 0.  0.
         13    1    3    3    0    0 -0.32672704761E+02  0.41953248262E+02  0.33057387331E+03  0.33482333609E+03  0.00000000000E+00 0. -1.
        -13    1    3    3    0    0 -0.27215290921E+03  0.25196951213E+03  0.11290744496E+04  0.11884296167E+04  0.00000000000E+00 0.  1.
          4    1    6    6  502    0 -0.50074205262E+02  0.32822020392E+02 -0.16201728607E+02  0.62025858036E+02  0.00000000000E+00 0. -1.
          3    1    5    5  503    0  0.15101350446E+03 -0.10476710941E+03  0.20681671508E+03  0.27668462079E+03  0.00000000000E+00 0. -1.
         -4    1    5    5    0  503  0.35381170915E+03 -0.18362436101E+03  0.61712233533E+03  0.73467040790E+03  0.00000000000E+00 0.  1.
         -3    1    6    6    0  502 -0.14992539439E+03 -0.38353310363E+02 -0.65593592621E+02  0.16808069399E+03  0.00000000000E+00 0.  1.
<mgrwt>
<rscale>  0 0.16720521E+04</rscale>
<asrwt>0</asrwt>
<pdfrwt beam="1">  1        1 0.38203895E+00 0.16720521E+04</pdfrwt>
<pdfrwt beam="2">  1       -1 0.43301731E-01 0.16720521E+04</pdfrwt>
<totfact> 0.69945028E+00</totfact>
</mgrwt>
</event>
<event>
12    1  0.1489233E-007  0.1669984E+04  0.7818608E-02  0.8778671E-01
         -2   -1    0    0    0  501 -0.00000000000E+00  0.00000000000E+00  0.56946306083E+03  0.56946306083E+03  0.00000000000E+00 0. -1.
          2   -1    0    0  501    0  0.00000000000E+00 -0.00000000000E+00 -0.12243323100E+04  0.12243323100E+04  0.00000000000E+00 0.  1.
         23    2    1    2    0    0 -0.41618980039E+03  0.17843608734E+03  0.16819325414E+03  0.49199538721E+03  0.93365427648E+02 0.  0.
        254    2    1    2    0    0  0.41618980039E+03 -0.17843608734E+03 -0.82306250332E+03  0.13017999836E+04  0.90122024267E+03 0.  0.
        -24    2    4    4    0    0  0.38178801044E+03 -0.11358516464E+03  0.61154330015E+02  0.41069119682E+03  0.79143745952E+02 0.  0.
         24    2    4    4    0    0  0.34401789950E+02 -0.64850922710E+02 -0.88421683334E+03  0.89110878682E+03  0.82742590363E+02 0.  0.
         11    1    3    3    0    0 -0.19800869588E+03  0.13420390339E+03  0.98882858788E+02  0.25883576084E+03  0.00000000000E+00 0. -1.
        -11    1    3    3    0    0 -0.21818110451E+03  0.44232183956E+02  0.69310395355E+02  0.23315962637E+03  0.00000000000E+00 0.  1.
          4    1    6    6  502    0  0.54638734881E+02 -0.69495926272E+02 -0.65206070859E+03  0.65802601985E+03  0.00000000000E+00 0. -1.
          3    1    5    5  503    0  0.30452288350E+03 -0.95814112201E+02  0.80184868394E+02  0.32915671616E+03  0.00000000000E+00 0. -1.
         -4    1    5    5    0  503  0.77265126939E+02 -0.17771052434E+02 -0.19030538379E+02  0.81534480660E+02  0.00000000000E+00 0.  1.
         -3    1    6    6    0  502 -0.20236944930E+02  0.46450035623E+01 -0.23215612475E+03  0.23308276697E+03  0.00000000000E+00 0.  1.
<mgrwt>
<rscale>  0 0.16699845E+04</rscale>
<asrwt>0</asrwt>
<pdfrwt beam="1">  1        2 0.18835881E+00 0.16699845E+04</pdfrwt>
<pdfrwt beam="2">  1       -2 0.87609703E-01 0.16699845E+04</pdfrwt>
<totfact> 0.19647445E+01</totfact>
</mgrwt>
</event>
<event>
12    1  0.1489233E-007  0.2426588E+04  0.7818608E-02  0.8429616E-01
         -2   -1    0    0    0  501 -0.00000000000E+00  0.00000000000E+00  0.85084166775E+03  0.85084166775E+03  0.00000000000E+00 0.  1.
          2   -1    0    0  501    0  0.00000000000E+00 -0.00000000000E+00 -0.17301480842E+04  0.17301480842E+04  0.00000000000E+00 0. -1.
         23    2    1    2    0    0 -0.99959528478E+03  0.13868318877E+03 -0.12100164076E+03  0.10203932518E+04  0.90206602169E+02 0.  0.
        254    2    1    2    0    0  0.99959528478E+03 -0.13868318877E+03 -0.75830477563E+03  0.15605965001E+04  0.91761186955E+03 0.  0.
        -24    2    4    4    0    0  0.32786407113E+03 -0.22932664479E+03  0.14069243873E+03  0.43171546270E+03  0.80612153349E+02 0.  0.
         24    2    4    4    0    0  0.67173121365E+03  0.90643456021E+02 -0.89899721436E+03  0.11288810374E+04  0.82081335514E+02 0.  0.
         13    1    3    3    0    0 -0.10689498061E+03 -0.60081331498E+01  0.56749336700E+01  0.10721398890E+03  0.00000000000E+00 0. -1.
        -13    1    3    3    0    0 -0.89270030417E+03  0.14469132192E+03 -0.12667657443E+03  0.91317926292E+03  0.00000000000E+00 0.  1.
          2    1    6    6  502    0  0.24496871076E+03 -0.61884769698E+01 -0.33264609479E+03  0.41316024842E+03  0.00000000000E+00 0. -1.
          1    1    5    5  503    0  0.62329553659E+02 -0.53116984021E+02  0.64000730660E+02  0.10393498341E+03  0.00000000000E+00 0. -1.
         -2    1    5    5    0  503  0.26553451747E+03 -0.17620966077E+03  0.76691708069E+02  0.32778047929E+03  0.00000000000E+00 0.  1.
         -1    1    6    6    0  502  0.42676250289E+03  0.96831932991E+02 -0.56635111957E+03  0.71572078897E+03  0.00000000000E+00 0.  1.
<mgrwt>
<rscale>  0 0.24265878E+04</rscale>
<asrwt>0</asrwt>
<pdfrwt beam="1">  1        2 0.26617662E+00 0.24265878E+04</pdfrwt>
<pdfrwt beam="2">  1       -2 0.13089872E+00 0.24265878E+04</pdfrwt>
<totfact> 0.36136025E+00</totfact>
</mgrwt>
</event>
<event>
12    1  0.1489233E-007  0.2504394E+04  0.7818608E-02  0.8401422E-01
          1   -1    0    0  501    0  0.00000000000E+00  0.00000000000E+00  0.18886558464E+04  0.18886558464E+04  0.00000000000E+00 0. -1.
         -1   -1    0    0    0  501 -0.00000000000E+00 -0.00000000000E+00 -0.83021854357E+03  0.83021854357E+03  0.00000000000E+00 0.  1.
         23    2    1    2    0    0  0.77818202514E+03  0.59679882426E+03 -0.38767587113E+02  0.98553025905E+03  0.89615092486E+02 0.  0.
        254    2    1    2    0    0 -0.77818202514E+03 -0.59679882426E+03  0.10972048900E+04  0.17333441310E+04  0.91590785828E+03 0.  0.
        -24    2    4    4    0    0 -0.52489835493E+03 -0.72377359027E+03  0.41108179493E+03  0.98718258913E+03  0.78579445009E+02 0.  0.
         24    2    4    4    0    0 -0.25328367021E+03  0.12697476601E+03  0.68612309505E+03  0.74616154183E+03  0.75610423519E+02 0.  0.
         13    1    3    3    0    0  0.31783013539E+03  0.22651399163E+03 -0.57166265993E+02  0.39445223454E+03  0.00000000000E+00 0. -1.
        -13    1    3    3    0    0  0.46035188975E+03  0.37028483263E+03  0.18398678880E+02  0.59107802451E+03  0.00000000000E+00 0.  1.
          2    1    6    6  502    0 -0.96887570752E+01  0.44899240041E+01  0.37259109057E+01  0.11309900234E+02  0.00000000000E+00 0. -1.
          1    1    5    5  503    0 -0.12766275852E+02 -0.61202012343E+01  0.15073244112E+02  0.20679394341E+02  0.00000000000E+00 0. -1.
         -2    1    5    5    0  503 -0.51213207908E+03 -0.71765338904E+03  0.39600855081E+03  0.96650319479E+03  0.00000000000E+00 0.  1.
         -1    1    6    6    0  502 -0.24359491313E+03  0.12248484201E+03  0.68239718414E+03  0.73485164159E+03  0.00000000000E+00 0.  1.
<mgrwt>
<rscale>  0 0.25043938E+04</rscale>
<asrwt>0</asrwt>
<pdfrwt beam="1">  1        1 0.29056244E+00 0.25043938E+04</pdfrwt>
<pdfrwt beam="2">  1       -1 0.12772593E+00 0.25043938E+04</pdfrwt>
<totfact> 0.16697053E+00</totfact>
</mgrwt>
</event>
<event>
12    1  0.1489233E-007  0.1870146E+04  0.7818608E-02  0.8669861E-01
         -2   -1    0    0    0  501 -0.00000000000E+00  0.00000000000E+00  0.84368052472E+03  0.84368052472E+03  0.00000000000E+00 0.  1.
          2   -1    0    0  501    0  0.00000000000E+00 -0.00000000000E+00 -0.10363655529E+04  0.10363655529E+04  0.00000000000E+00 0. -1.
         23    2    1    2    0    0 -0.73446911457E+01  0.73893402512E+03  0.37122114801E+02  0.74573169403E+03  0.93060572182E+02 0.  0.
        254    2    1    2    0    0  0.73446911457E+01 -0.73893402512E+03 -0.22980714302E+03  0.11343143836E+04  0.82932524379E+03 0.  0.
        -24    2    4    4    0    0  0.33604588682E+03 -0.63912599473E+02 -0.22232384234E+02  0.35132161941E+03  0.76947663583E+02 0.  0.
         24    2    4    4    0    0 -0.32870119568E+03 -0.67502142565E+03 -0.20757475879E+03  0.78299276424E+03  0.79322047610E+02 0.  0.
         13    1    3    3    0    0 -0.34540110084E+02  0.42464169962E+03 -0.13348337498E+02  0.42625317638E+03  0.00000000000E+00 0.  1.
        -13    1    3    3    0    0  0.27195418938E+02  0.31429232550E+03  0.50470452299E+02  0.31947851765E+03  0.00000000000E+00 0. -1.
          2    1    6    6  502    0 -0.19108272567E+03 -0.35397829796E+03 -0.73899245392E+02  0.40899186049E+03  0.00000000000E+00 0. -1.
          1    1    5    5  503    0  0.23288325649E+03 -0.23413421545E+02 -0.44576411998E+02  0.23826425659E+03  0.00000000000E+00 0. -1.
         -2    1    5    5    0  503  0.10316263034E+03 -0.40499177928E+02  0.22344027764E+02  0.11305736282E+03  0.00000000000E+00 0.  1.
         -3    1    6    6    0  502 -0.13761847001E+03 -0.32104312769E+03 -0.13367551340E+03  0.37400090375E+03  0.00000000000E+00 0.  1.
<mgrwt>
<rscale>  0 0.18701459E+04</rscale>
<asrwt>0</asrwt>
<pdfrwt beam="1">  1        2 0.15944086E+00 0.18701459E+04</pdfrwt>
<pdfrwt beam="2">  1       -2 0.12979700E+00 0.18701459E+04</pdfrwt>
<totfact> 0.97742742E+00</totfact>
</mgrwt>
</event>
<event>
12    1  0.1489233E-007  0.2348287E+04  0.7818608E-02  0.8459122E-01
         -1   -1    0    0    0  501 -0.00000000000E+00  0.00000000000E+00  0.57084648160E+03  0.57084648160E+03  0.00000000000E+00 0.  1.
          1   -1    0    0  501    0  0.00000000000E+00 -0.00000000000E+00 -0.24150333260E+04  0.24150333260E+04  0.00000000000E+00 0. -1.
         23    2    1    2    0    0 -0.73933166858E+03  0.65802671900E+03 -0.64979064543E+03  0.11881885310E+04  0.99767846741E+02 0.  0.
        254    2    1    2    0    0  0.73933166858E+03 -0.65802671900E+03 -0.11943961990E+04  0.17976912766E+04  0.90857094755E+03 0.  0.
        -24    2    4    4    0    0  0.59874208407E+03 -0.49573718539E+03 -0.13220277867E+04  0.15355777457E+04  0.77421600259E+02 0.  0.
         24    2    4    4    0    0  0.14058958452E+03 -0.16228953360E+03  0.12763158771E+03  0.26211353087E+03  0.79437754829E+02 0.  0.
         13    1    3    3    0    0 -0.24121499168E+03  0.16136590284E+03 -0.21596888177E+03  0.36175431539E+03  0.00000000000E+00 0. -1.
        -13    1    3    3    0    0 -0.49811667690E+03  0.49666081616E+03 -0.43382176366E+03  0.82643421562E+03  0.00000000000E+00 0.  1.
          2    1    6    6  502    0  0.14080510540E+03 -0.16543186930E+03  0.10869431259E+03  0.24291610625E+03  0.00000000000E+00 0. -1.
          3    1    5    5  503    0  0.32686449856E+03 -0.31716330293E+03 -0.79687649687E+03  0.91784808787E+03  0.00000000000E+00 0. -1.
         -4    1    5    5    0  503  0.27187758551E+03 -0.17857388247E+03 -0.52515128980E+03  0.61772965784E+03  0.00000000000E+00 0.  1.
         -1    1    6    6    0  502 -0.21552088377E+00  0.31423356998E+01  0.18937275123E+02  0.19197424618E+02  0.00000000000E+00 0.  1.
<mgrwt>
<rscale>  0 0.23482873E+04</rscale>
<asrwt>0</asrwt>
<pdfrwt beam="1">  1        1 0.37154359E+00 0.23482873E+04</pdfrwt>
<pdfrwt beam="2">  1       -1 0.87822536E-01 0.23482873E+04</pdfrwt>
<totfact> 0.17797331E+00</totfact>
</mgrwt>
</event>
<event>
12    1  0.1489233E-007  0.1347015E+04  0.7818608E-02  0.8993091E-01
          1   -1    0    0  501    0  0.00000000000E+00  0.00000000000E+00  0.25114046631E+03  0.25114046631E+03  0.00000000000E+00 0. -1.
         -1   -1    0    0    0  501 -0.00000000000E+00 -0.00000000000E+00 -0.18062086459E+04  0.18062086459E+04  0.00000000000E+00 0.  1.
         23    2    1    2    0    0  0.92358937174E+01  0.13759146518E+03 -0.96105930477E+03  0.97539092320E+03  0.93465248859E+02 0.  0.
        254    2    1    2    0    0 -0.92358937174E+01 -0.13759146518E+03 -0.59400887480E+03  0.10819581890E+04  0.89373948463E+03 0.  0.
        -24    2    4    4    0    0 -0.42354154962E+03 -0.18076433283E+03 -0.22148915047E+03  0.51723947313E+03  0.80100190434E+02 0.  0.
         24    2    4    4    0    0  0.41430565590E+03  0.43172867655E+02 -0.37251972433E+03  0.56471871588E+03  0.81383106573E+02 0.  0.
         11    1    3    3    0    0 -0.20798304177E+02  0.82525898736E+02 -0.31501836888E+03  0.32631222188E+03  0.00000000000E+00 0. -1.
        -11    1    3    3    0    0  0.30034197894E+02  0.55065566443E+02 -0.64604093589E+03  0.64907870132E+03  0.00000000000E+00 0.  1.
          2    1    6    6  502    0  0.15819275263E+02  0.14223124273E+02 -0.49935796210E+01  0.21851374588E+02  0.00000000000E+00 0. -1.
          3    1    5    5  503    0 -0.15036871997E+03 -0.10572411224E+03 -0.96384852269E+02  0.20755331749E+03  0.00000000000E+00 0. -1.
         -4    1    5    5    0  503 -0.27317282964E+03 -0.75040220591E+02 -0.12510429820E+03  0.30968615563E+03  0.00000000000E+00 0.  1.
         -1    1    6    6    0  502  0.39848638063E+03  0.28949743382E+02 -0.36752614471E+03  0.54286734129E+03  0.00000000000E+00 0.  1.
<mgrwt>
<rscale>  0 0.13470146E+04</rscale>
<asrwt>0</asrwt>
<pdfrwt beam="1">  1        1 0.38636993E-01 0.13470146E+04</pdfrwt>
<pdfrwt beam="2">  1       -1 0.27787826E+00 0.13470146E+04</pdfrwt>
<totfact> 0.49855056E+00</totfact>
</mgrwt>
</event>
<event>
12    1  0.1489233E-007  0.1583417E+04  0.7818608E-02  0.8830801E-01
         -1   -1    0    0    0  501 -0.00000000000E+00  0.00000000000E+00  0.50624831823E+03  0.50624831823E+03  0.00000000000E+00 0.  1.
          1   -1    0    0  501    0  0.00000000000E+00 -0.00000000000E+00 -0.12381327162E+04  0.12381327162E+04  0.00000000000E+00 0. -1.
         23    2    1    2    0    0 -0.23909871367E+03 -0.16767667040E+03  0.23672764072E+03  0.38601336982E+03  0.87650927687E+02 0.  0.
        254    2    1    2    0    0  0.23909871367E+03  0.16767667040E+03 -0.96861203873E+03  0.13583676647E+04  0.90646002125E+03 0.  0.
        -24    2    4    4    0    0 -0.57785195230E+02  0.48675916329E+03 -0.62081328844E+03  0.79503074470E+03  0.79944568813E+02 0.  0.
         24    2    4    4    0    0  0.29688390889E+03 -0.31908249289E+03 -0.34779875029E+03  0.56333691996E+03  0.80192406460E+02 0.  0.
         13    1    3    3    0    0 -0.54496587025E+02 -0.46850172436E+02  0.11053828209E+03  0.13184660959E+03  0.00000000000E+00 0. -1.
        -13    1    3    3    0    0 -0.18460212664E+03 -0.12082649797E+03  0.12618935863E+03  0.25416676022E+03  0.00000000000E+00 0.  1.
          4    1    6    6  502    0  0.96569724164E+02 -0.15380113824E+03 -0.11808542744E+03  0.21662102835E+03  0.00000000000E+00 0. -1.
          1    1    5    5  503    0 -0.61140967520E+02  0.47223472342E+03 -0.61747253663E+03  0.77975392619E+03  0.00000000000E+00 0. -1.
         -2    1    5    5    0  503  0.33557722900E+01  0.14524439864E+02 -0.33407518035E+01  0.15276818505E+02  0.00000000000E+00 0.  1.
         -3    1    6    6    0  502  0.20031418473E+03 -0.16528135465E+03 -0.22971332285E+03  0.34671589161E+03  0.00000000000E+00 0.  1.
<mgrwt>
<rscale>  0 0.15834173E+04</rscale>
<asrwt>0</asrwt>
<pdfrwt beam="1">  1        1 0.19048195E+00 0.15834173E+04</pdfrwt>
<pdfrwt beam="2">  1       -1 0.77884357E-01 0.15834173E+04</pdfrwt>
<totfact> 0.15904357E+01</totfact>
</mgrwt>
</event>
<event>
12    1  0.1489233E-007  0.1722892E+04  0.7818608E-02  0.8748415E-01
          2   -1    0    0  501    0  0.00000000000E+00  0.00000000000E+00  0.22786521179E+04  0.22786521179E+04  0.00000000000E+00 0. -1.
         -2   -1    0    0    0  501 -0.00000000000E+00 -0.00000000000E+00 -0.32567034521E+03  0.32567034521E+03  0.00000000000E+00 0.  1.
         23    2    1    2    0    0 -0.19848430771E+03  0.48786430943E+03  0.20327357052E+03  0.57185414015E+03  0.91046187850E+02 0.  0.
        254    2    1    2    0    0  0.19848430771E+03 -0.48786430943E+03  0.17497082022E+04  0.20324683230E+04  0.88996690178E+03 0.  0.
        -24    2    4    4    0    0 -0.22142327864E+03 -0.84204648887E+02  0.85384353990E+02  0.26741053267E+03  0.89995632423E+02 0.  0.
         24    2    4    4    0    0  0.41990758635E+03 -0.40365966054E+03  0.16643238482E+04  0.17650577903E+04  0.78686903649E+02 0.  0.
         11    1    3    3    0    0  0.49682174833E+01  0.19063981301E+02  0.22194333550E+02  0.29676708202E+02  0.00000000000E+00 0. -1.
        -11    1    3    3    0    0 -0.20345252519E+03  0.46880032813E+03  0.18107923697E+03  0.54217743195E+03  0.00000000000E+00 0.  1.
          4    1    6    6  502    0  0.38675127277E+03 -0.33602320032E+03  0.14403461164E+04  0.15287527835E+04  0.00000000000E+00 0. -1.
          1    1    5    5  503    0 -0.18113487606E+03 -0.10347734963E+03  0.66867200536E+02  0.21906306791E+03  0.00000000000E+00 0. -1.
         -2    1    5    5    0  503 -0.40288402583E+02  0.19272700747E+02  0.18517153454E+02  0.48347464761E+02  0.00000000000E+00 0.  1.
         -3    1    6    6    0  502  0.33156313580E+02 -0.67636460217E+02  0.22397773183E+03  0.23630500680E+03  0.00000000000E+00 0.  1.
<mgrwt>
<rscale>  0 0.17228922E+04</rscale>
<asrwt>0</asrwt>
<pdfrwt beam="1">  1        2 0.35056186E+00 0.17228922E+04</pdfrwt>
<pdfrwt beam="2">  1       -2 0.50103131E-01 0.17228922E+04</pdfrwt>
<totfact> 0.16697574E+01</totfact>
</mgrwt>
</event>
<event>
12    1  0.1489233E-007  0.1722317E+04  0.7818608E-02  0.8748737E-01
          2   -1    0    0  501    0  0.00000000000E+00  0.00000000000E+00  0.25519959076E+04  0.25519959076E+04  0.00000000000E+00 0. -1.
         -2   -1    0    0    0  501 -0.00000000000E+00 -0.00000000000E+00 -0.29059374069E+03  0.29059374069E+03  0.00000000000E+00 0.  1.
         23    2    1    2    0    0  0.83736315460E+02 -0.13106168407E+03  0.18279691366E+04  0.18368458890E+04  0.91338492490E+02 0.  0.
        254    2    1    2    0    0 -0.83736315460E+02  0.13106168407E+03  0.43343303036E+03  0.10057437593E+04  0.89412939889E+03 0.  0.
        -24    2    4    4    0    0  0.25916567295E+03  0.37377845720E+03  0.32219438186E+03  0.56321618899E+03  0.80784124298E+02 0.  0.
         24    2    4    4    0    0 -0.34290198841E+03 -0.24271677314E+03  0.11123864850E+03  0.44252757029E+03  0.83447036645E+02 0.  0.
         13    1    3    3    0    0  0.13735909285E+02  0.10898360700E+02  0.90560915412E+02  0.92242771371E+02  0.00000000000E+00 0.  1.
        -13    1    3    3    0    0  0.70000406175E+02 -0.14196004477E+03  0.17374082212E+04  0.17446031176E+04  0.00000000000E+00 0. -1.
          4    1    6    6  502    0 -0.28762595899E+03 -0.16360756070E+03  0.98049677041E+02  0.34512297137E+03  0.00000000000E+00 0. -1.
          3    1    5    5  503    0  0.19985113556E+03  0.24032900174E+03  0.18716971746E+03  0.36432267099E+03  0.00000000000E+00 0. -1.
         -4    1    5    5    0  503  0.59314537397E+02  0.13344945546E+03  0.13502466440E+03  0.19889351800E+03  0.00000000000E+00 0.  1.
         -3    1    6    6    0  502 -0.55276029424E+02 -0.79109212436E+02  0.13188971459E+02  0.97404598912E+02  0.00000000000E+00 0.  1.
<mgrwt>
<rscale>  0 0.17223171E+04</rscale>
<asrwt>0</asrwt>
<pdfrwt beam="1">  1        2 0.39261474E+00 0.17223171E+04</pdfrwt>
<pdfrwt beam="2">  1       -2 0.44706731E-01 0.17223171E+04</pdfrwt>
<totfact> 0.14659607E+01</totfact>
</mgrwt>
</event>
<event>
12    1  0.1489233E-007  0.2961797E+04  0.7818608E-02  0.8254725E-01
         -1   -1    0    0    0  501 -0.00000000000E+00  0.00000000000E+00  0.14049493352E+04  0.14049493352E+04  0.00000000000E+00 0.  1.
          1   -1    0    0  501    0  0.00000000000E+00 -0.00000000000E+00 -0.15609536372E+04  0.15609536372E+04  0.00000000000E+00 0. -1.
         23    2    1    2    0    0 -0.58003148437E+03 -0.10024190833E+04  0.60427218791E+03  0.13090884216E+04  0.85364377552E+02 0.  0.
        254    2    1    2    0    0  0.58003148437E+03  0.10024190833E+04 -0.76027648985E+03  0.16568145508E+04  0.90869883531E+03 0.  0.
        -24    2    4    4    0    0 -0.20765086669E+03  0.65769864652E+02 -0.49901030795E+02  0.23946772767E+03  0.86082066586E+02 0.  0.
         24    2    4    4    0    0  0.78768235105E+03  0.93664921867E+03 -0.71037545905E+03  0.14173468231E+04  0.80520054935E+02 0.  0.
         13    1    3    3    0    0 -0.35894968128E+03 -0.64616529929E+03  0.34126732217E+03  0.81414854472E+03  0.00000000000E+00 0.  1.
        -13    1    3    3    0    0 -0.22108180309E+03 -0.35625378403E+03  0.26300486574E+03  0.49493987685E+03  0.00000000000E+00 0. -1.
          4    1    6    6  502    0  0.60829574069E+03  0.76409808019E+03 -0.54385581145E+03  0.11178768841E+04  0.00000000000E+00 0. -1.
          3    1    5    5  503    0 -0.50778567581E+02 -0.10619148860E+02 -0.38519792881E+02  0.64614268484E+02  0.00000000000E+00 0. -1.
         -4    1    5    5    0  503 -0.15687229911E+03  0.76389013512E+02 -0.11381237913E+02  0.17485345918E+03  0.00000000000E+00 0.  1.
         -3    1    6    6    0  502  0.17938661036E+03  0.17255113848E+03 -0.16651964761E+03  0.29946993907E+03  0.00000000000E+00 0.  1.
<mgrwt>
<rscale>  0 0.29617973E+04</rscale>
<asrwt>0</asrwt>
<pdfrwt beam="1">  1        1 0.24014671E+00 0.29617973E+04</pdfrwt>
<pdfrwt beam="2">  1       -1 0.21614605E+00 0.29617973E+04</pdfrwt>
<totfact> 0.59213672E-01</totfact>
</mgrwt>
</event>
<event>
12    1  0.1489233E-007  0.1248770E+04  0.7818608E-02  0.9071208E-01
          2   -1    0    0  501    0  0.00000000000E+00  0.00000000000E+00  0.62522783133E+03  0.62522783133E+03  0.00000000000E+00 0. -1.
         -2   -1    0    0    0  501 -0.00000000000E+00 -0.00000000000E+00 -0.62354332840E+03  0.62354332840E+03  0.00000000000E+00 0.  1.
         23    2    1    2    0    0 -0.18348449972E+03  0.16832323926E+03 -0.14670121020E+03  0.30306007656E+03  0.91240837470E+02 0.  0.
        254    2    1    2    0    0  0.18348449972E+03 -0.16832323926E+03  0.14838571313E+03  0.94571108317E+03  0.90019545570E+03 0.  0.
        -24    2    4    4    0    0 -0.12765098272E+03 -0.46975570440E+03  0.74741909719E+02  0.49897717060E+03  0.80166504846E+02 0.  0.
         24    2    4    4    0    0  0.31113548244E+03  0.30143246515E+03  0.73643803414E+02  0.44673391257E+03  0.80504405991E+02 0.  0.
         11    1    3    3    0    0 -0.47486007934E+02  0.78787876964E+01 -0.28013554932E+01  0.48216634450E+02  0.00000000000E+00 0. -1.
        -11    1    3    3    0    0 -0.13599849178E+03  0.16044445156E+03 -0.14389985470E+03  0.25484344211E+03  0.00000000000E+00 0.  1.
          4    1    6    6  502    0  0.82280328772E+02  0.62873222374E+02 -0.14598158038E+02  0.10457629183E+03  0.00000000000E+00 0. -1.
          1    1    5    5  503    0  0.89330349732E+01 -0.16688667887E+02  0.98588934844E+01  0.21342645816E+02  0.00000000000E+00 0. -1.
         -2    1    5    5    0  503 -0.13658401770E+03 -0.45306703652E+03  0.64883016235E+02  0.47763452478E+03  0.00000000000E+00 0.  1.
         -1    1    6    6    0  502  0.22885515367E+03  0.23855924277E+03  0.88241961452E+02  0.34215762074E+03  0.00000000000E+00 0.  1.
<mgrwt>
<rscale>  0 0.12487700E+04</rscale>
<asrwt>0</asrwt>
<pdfrwt beam="1">  1        2 0.96188898E-01 0.12487700E+04</pdfrwt>
<pdfrwt beam="2">  1       -2 0.95929742E-01 0.12487700E+04</pdfrwt>
<totfact> 0.42277860E+01</totfact>
</mgrwt>
</event>
<event>
12    1  0.1489233E-007  0.1959298E+04  0.7818608E-02  0.8625890E-01
          1   -1    0    0  501    0  0.00000000000E+00  0.00000000000E+00  0.14224517433E+04  0.14224517433E+04  0.00000000000E+00 0. -1.
         -1   -1    0    0    0  501 -0.00000000000E+00 -0.00000000000E+00 -0.67468871597E+03  0.67468871597E+03  0.00000000000E+00 0.  1.
         23    2    1    2    0    0  0.20949508778E+03  0.31428730729E+02  0.10873629012E+04  0.11117578799E+04  0.93656541815E+02 0.  0.
        254    2    1    2    0    0 -0.20949508778E+03 -0.31428730729E+02 -0.33959987386E+03  0.98538257931E+03  0.90043033954E+03 0.  0.
        -24    2    4    4    0    0  0.42981022528E+02 -0.43409710549E+03 -0.17080610709E+03  0.47494235147E+03  0.78152707624E+02 0.  0.
         24    2    4    4    0    0 -0.25247611031E+03  0.40266837476E+03 -0.16879376677E+03  0.51044022784E+03  0.78561340262E+02 0.  0.
         13    1    3    3    0    0  0.89239956080E+02 -0.31113107106E+02  0.51149148999E+03  0.52014934348E+03  0.00000000000E+00 0. -1.
        -13    1    3    3    0    0  0.12025513170E+03  0.62541837835E+02  0.57587141117E+03  0.59160853643E+03  0.00000000000E+00 0.  1.
          2    1    6    6  502    0 -0.13601964013E+03  0.14463109478E+03 -0.74189975859E+02  0.21195199597E+03  0.00000000000E+00 0. -1.
          1    1    5    5  503    0  0.61146990112E+02 -0.27550927650E+03 -0.12660471801E+03  0.30931063748E+03  0.00000000000E+00 0. -1.
         -2    1    5    5    0  503 -0.18165967585E+02 -0.15858782900E+03 -0.44201389081E+02  0.16563171399E+03  0.00000000000E+00 0.  1.
         -1    1    6    6    0  502 -0.11645647018E+03  0.25803727998E+03 -0.94603790908E+02  0.29848823187E+03  0.00000000000E+00 0.  1.
<mgrwt>
<rscale>  0 0.19592980E+04</rscale>
<asrwt>0</asrwt>
<pdfrwt beam="1">  1        1 0.21883873E+00 0.19592980E+04</pdfrwt>
<pdfrwt beam="2">  1       -1 0.10379826E+00 0.19592980E+04</pdfrwt>
<totfact> 0.60313501E+00</totfact>
</mgrwt>
</event>
<event>
12    1  0.1489233E-007  0.2303103E+04  0.7818608E-02  0.8476699E-01
          1   -1    0    0  501    0  0.00000000000E+00  0.00000000000E+00  0.23381622633E+04  0.23381622633E+04  0.00000000000E+00 0. -1.
         -1   -1    0    0    0  501 -0.00000000000E+00 -0.00000000000E+00 -0.56714240440E+03  0.56714240440E+03  0.00000000000E+00 0.  1.
         23    2    1    2    0    0 -0.48073453723E+02  0.17920641456E+03 -0.44473449788E+03  0.49056580725E+03  0.91869699429E+02 0.  0.
        254    2    1    2    0    0  0.48073453723E+02 -0.17920641456E+03  0.22157543567E+04  0.24147388604E+04  0.94179105889E+03 0.  0.
        -24    2    4    4    0    0  0.35575318559E+03 -0.32315518579E+03  0.65980039460E+03  0.82012899584E+03  0.79280552087E+02 0.  0.
         24    2    4    4    0    0 -0.30767973187E+03  0.14394877123E+03  0.15559539621E+04  0.15946098646E+04  0.79998885992E+02 0.  0.
         11    1    3    3    0    0  0.17748631654E+02  0.79736809705E+02 -0.12517131929E+03  0.14946849809E+03  0.00000000000E+00 0. -1.
        -11    1    3    3    0    0 -0.65822085376E+02  0.99469604856E+02 -0.31956317858E+03  0.34109730916E+03  0.00000000000E+00 0.  1.
          2    1    6    6  502    0 -0.23627870760E+03  0.89579708851E+02  0.12703397473E+04  0.12952278663E+04  0.00000000000E+00 0. -1.
          3    1    5    5  503    0  0.31104332621E+03 -0.28451372105E+03  0.61662739755E+03  0.74694401106E+03  0.00000000000E+00 0. -1.
         -4    1    5    5    0  503  0.44709859377E+02 -0.38641464743E+02  0.43172997050E+02  0.73184984781E+02  0.00000000000E+00 0.  1.
         -1    1    6    6    0  502 -0.71401024268E+02  0.54369062380E+02  0.28561421481E+03  0.29938199831E+03  0.00000000000E+00 0.  1.
<mgrwt>
<rscale>  0 0.23031031E+04</rscale>
<asrwt>0</asrwt>
<pdfrwt beam="1">  1        1 0.35971727E+00 0.23031031E+04</pdfrwt>
<pdfrwt beam="2">  1       -1 0.87252679E-01 0.23031031E+04</pdfrwt>
<totfact> 0.20472657E+00</totfact>
</mgrwt>
</event>
<event>
12    1  0.1489233E-007  0.1355402E+04  0.7818608E-02  0.8986749E-01
          1   -1    0    0  501    0  0.00000000000E+00  0.00000000000E+00  0.73943031051E+03  0.73943031051E+03  0.00000000000E+00 0. -1.
         -1   -1    0    0    0  501 -0.00000000000E+00 -0.00000000000E+00 -0.62112477373E+03  0.62112477373E+03  0.00000000000E+00 0.  1.
         23    2    1    2    0    0 -0.83536467869E+01 -0.35453607109E+03 -0.74996959964E+02  0.37359092486E+03  0.90443496261E+02 0.  0.
        254    2    1    2    0    0  0.83536467869E+01  0.35453607109E+03  0.19330249674E+03  0.98696415938E+03  0.90053694401E+03 0.  0.
        -24    2    4    4    0    0  0.10715258617E+03  0.29855459446E+03  0.53046702266E+03  0.62322088669E+03  0.79953041721E+02 0.  0.
         24    2    4    4    0    0 -0.98798939387E+02  0.55981476626E+02 -0.33716452592E+03  0.36374327269E+03  0.75723805629E+02 0.  0.
         13    1    3    3    0    0  0.28371477443E+02 -0.44390847468E+02 -0.20650807002E+02  0.56585721707E+02  0.00000000000E+00 0. -1.
        -13    1    3    3    0    0 -0.36725124229E+02 -0.31014522362E+03 -0.54346152962E+02  0.31700520315E+03  0.00000000000E+00 0.  1.
          4    1    6    6  502    0  0.11865019561E+02 -0.11937957055E+01 -0.30117720689E+02  0.32392606207E+02  0.00000000000E+00 0. -1.
          1    1    5    5  503    0  0.49954621345E+02  0.75241728369E+02  0.98811134334E+02  0.13386718100E+03  0.00000000000E+00 0. -1.
         -2    1    5    5    0  503  0.57197964829E+02  0.22331286609E+03  0.43165588832E+03  0.48935370569E+03  0.00000000000E+00 0.  1.
         -3    1    6    6    0  502 -0.11066395895E+03  0.57175272331E+02 -0.30704680523E+03  0.33135066648E+03  0.00000000000E+00 0.  1.
<mgrwt>
<rscale>  0 0.13554018E+04</rscale>
<asrwt>0</asrwt>
<pdfrwt beam="1">  1        1 0.11375851E+00 0.13554018E+04</pdfrwt>
<pdfrwt beam="2">  1       -1 0.95557658E-01 0.13554018E+04</pdfrwt>
<totfact> 0.25902538E+01</totfact>
</mgrwt>
</event>
<event>
12    1  0.1489233E-007  0.4465412E+04  0.7818608E-02  0.7916720E-01
         -2   -1    0    0    0  501 -0.00000000000E+00  0.00000000000E+00  0.22130434180E+04  0.22130434180E+04  0.00000000000E+00 0.  1.
          2   -1    0    0  501    0  0.00000000000E+00 -0.00000000000E+00 -0.22525431657E+04  0.22525431657E+04  0.00000000000E+00 0. -1.
         23    2    1    2    0    0  0.29740411882E+03  0.18162925115E+04 -0.11117492776E+04  0.21529372128E+04  0.10855638615E+03 0.  0.
        254    2    1    2    0    0 -0.29740411882E+03 -0.18162925115E+04  0.10722495299E+04  0.23126493709E+04  0.90069992847E+03 0.  0.
        -24    2    4    4    0    0 -0.28329015054E+03 -0.74707058825E+02  0.12492690674E+03  0.32833723944E+03  0.79775665129E+02 0.  0.
         24    2    4    4    0    0 -0.14113968276E+02 -0.17415854527E+04  0.94732262318E+03  0.19843121314E+04  0.82191177380E+02 0.  0.
         13    1    3    3    0    0  0.10404468373E+03  0.78538245293E+03 -0.53462729672E+03  0.95576003263E+03  0.00000000000E+00 0.  1.
        -13    1    3    3    0    0  0.19335943508E+03  0.10309100586E+04 -0.57712198090E+03  0.11971771802E+04  0.00000000000E+00 0. -1.
          2    1    6    6  502    0 -0.43248673189E+02 -0.59425629701E+03  0.31634211703E+03  0.67459864311E+03  0.00000000000E+00 0. -1.
          3    1    5    5  503    0 -0.14675748379E+03 -0.28952999169E+01  0.82327443835E+02  0.16829720680E+03  0.00000000000E+00 0. -1.
         -4    1    5    5    0  503 -0.13653266675E+03 -0.71811758909E+02  0.42599462907E+02  0.16004003264E+03  0.00000000000E+00 0.  1.
         -1    1    6    6    0  502  0.29134704913E+02 -0.11473291556E+04  0.63098050615E+03  0.13097134883E+04  0.00000000000E+00 0.  1.
<mgrwt>
<rscale>  0 0.44654119E+04</rscale>
<asrwt>0</asrwt>
<pdfrwt beam="1">  1        2 0.34654510E+00 0.44654119E+04</pdfrwt>
<pdfrwt beam="2">  1       -2 0.34046822E+00 0.44654119E+04</pdfrwt>
<totfact> 0.65450786E-02</totfact>
</mgrwt>
</event>
<event>
12    1  0.1489233E-007  0.1600191E+04  0.7818608E-02  0.8820431E-01
         -2   -1    0    0    0  501 -0.00000000000E+00  0.00000000000E+00  0.10073650195E+04  0.10073650195E+04  0.00000000000E+00 0.  1.
          2   -1    0    0  501    0  0.00000000000E+00 -0.00000000000E+00 -0.63547260436E+03  0.63547260436E+03  0.00000000000E+00 0. -1.
         23    2    1    2    0    0 -0.22551339182E+02  0.38717629028E+03  0.38415681787E+03  0.55260203888E+03  0.85898253811E+02 0.  0.
        254    2    1    2    0    0  0.22551339182E+02 -0.38717629028E+03 -0.12264402720E+02  0.10902355850E+04  0.10188469819E+04 0.  0.
        -24    2    4    4    0    0 -0.33538168113E+03 -0.25741371781E+03  0.35329179158E+03  0.55655977957E+03  0.78746454363E+02 0.  0.
         24    2    4    4    0    0  0.35793302032E+03 -0.12976257246E+03 -0.36555619430E+03  0.53367580542E+03  0.78893357462E+02 0.  0.
         11    1    3    3    0    0 -0.29740790643E+02  0.36717865533E+03  0.33057156467E+03  0.49495680511E+03  0.00000000000E+00 0.  1.
        -11    1    3    3    0    0  0.71894514616E+01  0.19997634949E+02  0.53585253203E+02  0.57645233773E+02  0.00000000000E+00 0. -1.
          4    1    6    6  502    0  0.12551464568E+03 -0.83230496532E+02 -0.16255431646E+03  0.22159681323E+03  0.00000000000E+00 0. -1.
          1    1    5    5  503    0 -0.14375373700E+03 -0.10701983721E+03  0.20091235542E+03  0.26922881907E+03  0.00000000000E+00 0. -1.
         -4    1    5    5    0  503 -0.19162794413E+03 -0.15039388060E+03  0.15237943616E+03  0.28733096050E+03  0.00000000000E+00 0.  1.
         -3    1    6    6    0  502  0.23241837464E+03 -0.46532075930E+02 -0.20300187784E+03  0.31207899219E+03  0.00000000000E+00 0.  1.
<mgrwt>
<rscale>  0 0.16001911E+04</rscale>
<asrwt>0</asrwt>
<pdfrwt beam="1">  1        2 0.97765016E-01 0.16001911E+04</pdfrwt>
<pdfrwt beam="2">  1       -2 0.15497923E+00 0.16001911E+04</pdfrwt>
<totfact> 0.12166918E+01</totfact>
</mgrwt>
</event>
<event>
12    1  0.1489233E-007  0.1799391E+04  0.7818608E-02  0.8706623E-01
          2   -1    0    0  501    0  0.00000000000E+00  0.00000000000E+00  0.20129453881E+04  0.20129453881E+04  0.00000000000E+00 0. -1.
         -2   -1    0    0    0  501 -0.00000000000E+00 -0.00000000000E+00 -0.40212331231E+03  0.40212331231E+03  0.00000000000E+00 0.  1.
         23    2    1    2    0    0  0.54593204095E+03 -0.16150940666E+03  0.10919140809E+04  0.12348920894E+04  0.92493408207E+02 0.  0.
        254    2    1    2    0    0 -0.54593204095E+03  0.16150940666E+03  0.51890799481E+03  0.11801766109E+04  0.89410527578E+03 0.  0.
        -24    2    4    4    0    0 -0.36657274685E+03 -0.29821529048E+03  0.48129896304E+03  0.67938227083E+03  0.81262782926E+02 0.  0.
         24    2    4    4    0    0 -0.17935929410E+03  0.45972469714E+03  0.37609031770E+02  0.50079434012E+03  0.76576617059E+02 0.  0.
         13    1    3    3    0    0  0.48367559768E+02 -0.11505439920E+02  0.49708406207E+02  0.70304492270E+02  0.00000000000E+00 0.  1.
        -13    1    3    3    0    0  0.49756448118E+03 -0.15000396674E+03  0.10422056747E+04  0.11645875971E+04  0.00000000000E+00 0. -1.
          2    1    6    6  502    0 -0.25405883575E+02  0.65526324563E+02  0.32837873075E+02  0.77572443812E+02  0.00000000000E+00 0. -1.
          1    1    5    5  503    0 -0.10144947142E+03 -0.13170857811E+03  0.15844027899E+03  0.22965728119E+03  0.00000000000E+00 0. -1.
         -2    1    5    5    0  503 -0.26512327543E+03 -0.16650671237E+03  0.32285868405E+03  0.44972498964E+03  0.00000000000E+00 0.  1.
         -1    1    6    6    0  502 -0.15395341053E+03  0.39419837258E+03  0.47711586948E+01  0.42322189630E+03  0.00000000000E+00 0.  1.
<mgrwt>
<rscale>  0 0.17993913E+04</rscale>
<asrwt>0</asrwt>
<pdfrwt beam="1">  1        2 0.30968390E+00 0.17993913E+04</pdfrwt>
<pdfrwt beam="2">  1       -2 0.61865126E-01 0.17993913E+04</pdfrwt>
<totfact> 0.15056788E+01</totfact>
</mgrwt>
</event>
<event>
12    1  0.1489233E-007  0.4058941E+04  0.7818608E-02  0.7992761E-01
         -2   -1    0    0    0  501 -0.00000000000E+00  0.00000000000E+00  0.13943097790E+04  0.13943097790E+04  0.00000000000E+00 0.  1.
          2   -1    0    0  501    0  0.00000000000E+00 -0.00000000000E+00 -0.29539702959E+04  0.29539702959E+04  0.00000000000E+00 0. -1.
         23    2    1    2    0    0 -0.26475210941E+03 -0.11958472755E+04  0.85354656412E+03  0.14957366580E+04  0.92423088596E+02 0.  0.
        254    2    1    2    0    0  0.26475210941E+03  0.11958472755E+04 -0.24132070810E+04  0.28525434168E+04  0.90182655947E+03 0.  0.
        -24    2    4    4    0    0 -0.19401994742E+03  0.98291399906E+03 -0.15038599364E+04  0.18088339507E+04  0.80758178945E+02 0.  0.
         24    2    4    4    0    0  0.45877205684E+03  0.21293327640E+03 -0.90934714463E+03  0.10437094661E+04  0.81270165865E+02 0.  0.
         13    1    3    3    0    0 -0.41712223758E+02 -0.17943092815E+03  0.89788672189E+02  0.20493260658E+03  0.00000000000E+00 0. -1.
        -13    1    3    3    0    0 -0.22303988566E+03 -0.10164163473E+04  0.76375789194E+03  0.12908040514E+04  0.00000000000E+00 0.  1.
          4    1    6    6  502    0  0.42628941990E+03  0.20174493550E+03 -0.88049045257E+03  0.99884289334E+03  0.00000000000E+00 0. -1.
          1    1    5    5  503    0 -0.18799027727E+03  0.97612582822E+03 -0.14986551251E+04  0.17983684720E+04  0.00000000000E+00 0. -1.
         -2    1    5    5    0  503 -0.60296701521E+01  0.67881708473E+01 -0.52048112653E+01  0.10465478771E+02  0.00000000000E+00 0.  1.
         -3    1    6    6    0  502  0.32482636944E+02  0.11188340904E+02 -0.28856692059E+02  0.44866572764E+02  0.00000000000E+00 0.  1.
<mgrwt>
<rscale>  0 0.40589406E+04</rscale>
<asrwt>0</asrwt>
<pdfrwt beam="1">  1        2 0.45445696E+00 0.40589406E+04</pdfrwt>
<pdfrwt beam="2">  1       -2 0.21450920E+00 0.40589406E+04</pdfrwt>
<totfact> 0.15638582E-01</totfact>
</mgrwt>
</event>
<event>
12    1  0.1489233E-007  0.1435117E+04  0.7818608E-02  0.8928784E-01
         -2   -1    0    0    0  501 -0.00000000000E+00  0.00000000000E+00  0.32575479731E+03  0.32575479731E+03  0.00000000000E+00 0.  1.
          2   -1    0    0  501    0  0.00000000000E+00 -0.00000000000E+00 -0.15806059871E+04  0.15806059871E+04  0.00000000000E+00 0. -1.
         23    2    1    2    0    0  0.35364395214E+02 -0.26096135875E+03 -0.81389313606E+03  0.86018771304E+03  0.90273991435E+02 0.  0.
        254    2    1    2    0    0 -0.35364395214E+02  0.26096135875E+03 -0.44095805372E+03  0.10461730714E+04  0.91141791672E+03 0.  0.
        -24    2    4    4    0    0 -0.17445567276E+03 -0.55009175148E+01 -0.64585475991E+03  0.67373588371E+03  0.79540104717E+02 0.  0.
         24    2    4    4    0    0  0.13909127754E+03  0.26646227626E+03  0.20489670619E+03  0.37243718765E+03  0.79864074406E+02 0.  0.
         11    1    3    3    0    0  0.45994888312E+01 -0.44408462748E+02 -0.57460264401E+02  0.72766399156E+02  0.00000000000E+00 0.  1.
        -11    1    3    3    0    0  0.30764906382E+02 -0.21655289600E+03 -0.75643287166E+03  0.78742131388E+03  0.00000000000E+00 0. -1.
          4    1    6    6  502    0  0.20498712370E+02  0.45270124100E+02  0.20543133322E+01  0.49737325502E+02  0.00000000000E+00 0. -1.
          1    1    5    5  503    0 -0.38495923561E+02  0.72273542963E+00 -0.53303712540E+02  0.65755184190E+02  0.00000000000E+00 0. -1.
         -2    1    5    5    0  503 -0.13595974920E+03 -0.62236529445E+01 -0.59255104737E+03  0.60798069953E+03  0.00000000000E+00 0.  1.
         -3    1    6    6    0  502  0.11859256517E+03  0.22119215216E+03  0.20284239286E+03  0.32269986215E+03  0.00000000000E+00 0.  1.
<mgrwt>
<rscale>  0 0.14351167E+04</rscale>
<asrwt>0</asrwt>
<pdfrwt beam="1">  1        2 0.24317016E+00 0.14351167E+04</pdfrwt>
<pdfrwt beam="2">  1       -2 0.50116121E-01 0.14351167E+04</pdfrwt>
<totfact> 0.41802195E+01</totfact>
</mgrwt>
</event>
<event>
12    1  0.1489233E-007  0.1427324E+04  0.7818608E-02  0.8934274E-01
          2   -1    0    0  501    0  0.00000000000E+00  0.00000000000E+00  0.18755337700E+04  0.18755337700E+04  0.00000000000E+00 0. -1.
         -2   -1    0    0    0  501 -0.00000000000E+00 -0.00000000000E+00 -0.27155663846E+03  0.27155663846E+03  0.00000000000E+00 0.  1.
         23    2    1    2    0    0  0.10887290689E+03  0.26497607032E+03  0.10322751231E+04  0.10754674750E+04  0.94724506592E+02 0.  0.
        254    2    1    2    0    0 -0.10887290689E+03 -0.26497607032E+03  0.57170200842E+03  0.10716229335E+04  0.85992261135E+03 0.  0.
        -24    2    4    4    0    0  0.20380388182E+03 -0.35730042479E+03  0.12836058015E+02  0.41903158276E+03  0.78886546164E+02 0.  0.
         24    2    4    4    0    0 -0.31267678871E+03  0.92324354468E+02  0.55886595040E+03  0.65259135075E+03  0.85169008062E+02 0.  0.
         13    1    3    3    0    0  0.14607272138E+02  0.13605576850E+03  0.57662101763E+03  0.59263508377E+03  0.00000000000E+00 0. -1.
        -13    1    3    3    0    0  0.94265634749E+02  0.12892030182E+03  0.45565410552E+03  0.48283239120E+03  0.00000000000E+00 0.  1.
          4    1    6    6  502    0 -0.26698659417E+03  0.10860059534E+03  0.46959061065E+03  0.55099117269E+03  0.00000000000E+00 0. -1.
          1    1    5    5  503    0  0.13657546616E+03 -0.21661323803E+03 -0.28676956394E+02  0.25767522325E+03  0.00000000000E+00 0. -1.
         -2    1    5    5    0  503  0.67228415656E+02 -0.14068718676E+03  0.41513014409E+02  0.16135635951E+03  0.00000000000E+00 0.  1.
         -3    1    6    6    0  502 -0.45690194534E+02 -0.16276240874E+02  0.89275339755E+02  0.10160017806E+03  0.00000000000E+00 0.  1.
<mgrwt>
<rscale>  0 0.14273243E+04</rscale>
<asrwt>0</asrwt>
<pdfrwt beam="1">  1        2 0.28854365E+00 0.14273243E+04</pdfrwt>
<pdfrwt beam="2">  1       -2 0.41777945E-01 0.14273243E+04</pdfrwt>
<totfact> 0.41325500E+01</totfact>
</mgrwt>
</event>
<event>
12    1  0.1489233E-007  0.1409298E+04  0.7818608E-02  0.8947115E-01
          1   -1    0    0  501    0  0.00000000000E+00  0.00000000000E+00  0.11173840560E+04  0.11173840560E+04  0.00000000000E+00 0. -1.
         -1   -1    0    0    0  501 -0.00000000000E+00 -0.00000000000E+00 -0.44436850933E+03  0.44436850933E+03  0.00000000000E+00 0.  1.
         23    2    1    2    0    0 -0.11575588532E+03 -0.39656572923E+03  0.17046113464E+03  0.45609647883E+03  0.91121879871E+02 0.  0.
        254    2    1    2    0    0  0.11575588532E+03  0.39656572923E+03  0.50255441202E+03  0.11056560865E+04  0.89400818900E+03 0.  0.
        -24    2    4    4    0    0  0.28485427060E+03  0.42245072306E+03  0.67584005351E+03  0.84958767022E+03  0.73707954664E+02 0.  0.
         24    2    4    4    0    0 -0.16909838528E+03 -0.25884993834E+02 -0.17328564149E+03  0.25606841628E+03  0.79239027394E+02 0.  0.
         13    1    3    3    0    0 -0.82317493685E+02 -0.21429617972E+03  0.49614259573E+02  0.23486293271E+03  0.00000000000E+00 0. -1.
        -13    1    3    3    0    0 -0.33438391637E+02 -0.18226954951E+03  0.12084687507E+03  0.22123354612E+03  0.00000000000E+00 0.  1.
          2    1    6    6  502    0 -0.16716520241E+02  0.39561877125E+01 -0.63804959374E+02  0.66076972622E+02  0.00000000000E+00 0. -1.
          3    1    5    5  503    0  0.17196363388E+03  0.19486735733E+03  0.31690289487E+03  0.40984414490E+03  0.00000000000E+00 0. -1.
         -4    1    5    5    0  503  0.11289063671E+03  0.22758336573E+03  0.35893715863E+03  0.43974352532E+03  0.00000000000E+00 0.  1.
         -1    1    6    6    0  502 -0.15238186503E+03 -0.29841181547E+02 -0.10948068211E+03  0.18999144366E+03  0.00000000000E+00 0.  1.
<mgrwt>
<rscale>  0 0.14092981E+04</rscale>
<asrwt>0</asrwt>
<pdfrwt beam="1">  1        1 0.17190524E+00 0.14092981E+04</pdfrwt>
<pdfrwt beam="2">  1       -1 0.68364386E-01 0.14092981E+04</pdfrwt>
<totfact> 0.25963635E+01</totfact>
</mgrwt>
</event>
<event>
12    1  0.1489233E-007  0.2789339E+04  0.7818608E-02  0.8306586E-01
          2   -1    0    0  501    0  0.00000000000E+00  0.00000000000E+00  0.12871742612E+04  0.12871742612E+04  0.00000000000E+00 0.  1.
         -2   -1    0    0    0  501 -0.00000000000E+00 -0.00000000000E+00 -0.15111418220E+04  0.15111418220E+04  0.00000000000E+00 0. -1.
         23    2    1    2    0    0  0.14433601315E+03 -0.77701755300E+03  0.86948835444E+03  0.11785510937E+04  0.91561562306E+02 0.  0.
        254    2    1    2    0    0 -0.14433601315E+03  0.77701755300E+03 -0.10934559152E+04  0.16197649895E+04  0.89632785311E+03 0.  0.
        -24    2    4    4    0    0 -0.29825776213E+03  0.72189585028E+01 -0.52351115378E+02  0.31325748875E+03  0.79873706188E+02 0.  0.
         24    2    4    4    0    0  0.15392174898E+03  0.76979859450E+03 -0.10411047998E+04  0.13065075007E+04  0.82346003713E+02 0.  0.
         11    1    3    3    0    0  0.58641397563E+02 -0.51981635889E+03  0.60512874191E+03  0.79989290205E+03  0.00000000000E+00 0.  1.
        -11    1    3    3    0    0  0.85694615586E+02 -0.25720119411E+03  0.26435961253E+03  0.37865819169E+03  0.00000000000E+00 0. -1.
          2    1    6    6  502    0  0.81252625149E+02  0.25520557115E+03 -0.39680781587E+03  0.47873616468E+03  0.00000000000E+00 0. -1.
          1    1    5    5  503    0 -0.28952716002E+03  0.90521186708E+01 -0.32490213155E+02  0.29148504455E+03  0.00000000000E+00 0. -1.
         -4    1    5    5    0  503 -0.87306021114E+01 -0.18331601679E+01 -0.19860902222E+02  0.21772444202E+02  0.00000000000E+00 0.  1.
         -1    1    6    6    0  502  0.72669123836E+02  0.51459302335E+03 -0.64429698393E+03  0.82777133602E+03  0.00000000000E+00 0.  1.
<mgrwt>
<rscale>  0 0.27893389E+04</rscale>
<asrwt>0</asrwt>
<pdfrwt beam="1">  1        2 0.19802681E+00 0.27893389E+04</pdfrwt>
<pdfrwt beam="2">  1       -2 0.23248336E+00 0.27893389E+04</pdfrwt>
<totfact> 0.12084204E+00</totfact>
</mgrwt>
</event>
<event>
12    1  0.1489233E-007  0.1441327E+04  0.7818608E-02  0.8924435E-01
         -1   -1    0    0    0  501 -0.00000000000E+00  0.00000000000E+00  0.15362445941E+03  0.15362445941E+03  0.00000000000E+00 0.  1.
          1   -1    0    0  501    0  0.00000000000E+00 -0.00000000000E+00 -0.33806868464E+04  0.33806868464E+04  0.00000000000E+00 0. -1.
         23    2    1    2    0    0 -0.15489603626E+03  0.38912359460E+03 -0.70298835144E+03  0.82367911282E+03  0.94046290259E+02 0.  0.
        254    2    1    2    0    0  0.15489603626E+03 -0.38912359460E+03 -0.25240740356E+04  0.27106321930E+04  0.89507943492E+03 0.  0.
        -24    2    4    4    0    0 -0.24611415934E+03 -0.33809167718E+03 -0.55828216536E+03  0.70186278772E+03  0.77808964899E+02 0.  0.
         24    2    4    4    0    0  0.40101019560E+03 -0.51031917422E+02 -0.19657918702E+04  0.20087694053E+04  0.86043088478E+02 0.  0.
         11    1    3    3    0    0 -0.15082066454E+03  0.37202880238E+03 -0.69834063693E+03  0.80550105391E+03  0.00000000000E+00 0.  1.
        -11    1    3    3    0    0 -0.40753717136E+01  0.17094792220E+02 -0.46477145066E+01  0.18178058912E+02  0.00000000000E+00 0. -1.
          2    1    6    6  502    0  0.17450620167E+03 -0.45689065909E+02 -0.10489770816E+04  0.10643743809E+04  0.00000000000E+00 0. -1.
          1    1    5    5  503    0 -0.10917761575E+03 -0.17875797450E+03 -0.22094155838E+03  0.30444923624E+03  0.00000000000E+00 0. -1.
         -2    1    5    5    0  503 -0.13693654359E+03 -0.15933370268E+03 -0.33734060698E+03  0.39741355148E+03  0.00000000000E+00 0.  1.
         -1    1    6    6    0  502  0.22650399393E+03 -0.53428515139E+01 -0.91681478868E+03  0.94439502438E+03  0.00000000000E+00 0.  1.
<mgrwt>
<rscale>  0 0.14413274E+04</rscale>
<asrwt>0</asrwt>
<pdfrwt beam="1">  1        1 0.52010565E+00 0.14413274E+04</pdfrwt>
<pdfrwt beam="2">  1       -1 0.23634533E-01 0.14413274E+04</pdfrwt>
<totfact> 0.46956228E+00</totfact>
</mgrwt>
</event>
<event>
12    1  0.1489233E-007  0.1061476E+04  0.7818608E-02  0.9243575E-01
         -1   -1    0    0    0  501 -0.00000000000E+00  0.00000000000E+00  0.28504082601E+03  0.28504082601E+03  0.00000000000E+00 0.  1.
          1   -1    0    0  501    0  0.00000000000E+00 -0.00000000000E+00 -0.98821965236E+03  0.98821965236E+03  0.00000000000E+00 0. -1.
         23    2    1    2    0    0  0.11742543711E+03  0.33033799935E+02 -0.12865761314E+03  0.19911770152E+03  0.90637257357E+02 0.  0.
        254    2    1    2    0    0 -0.11742543711E+03 -0.33033799935E+02 -0.57452121322E+03  0.10741427769E+04  0.89934871736E+03 0.  0.
        -24    2    4    4    0    0 -0.30096422247E+03  0.35411620205E+03 -0.28797475172E+03  0.55242483975E+03  0.79158058215E+02 0.  0.
         24    2    4    4    0    0  0.18353878537E+03 -0.38715000199E+03 -0.28654646149E+03  0.52171793710E+03  0.80679126941E+02 0.  0.
         13    1    3    3    0    0  0.10160694023E+03 -0.58632526615E+01 -0.11793696038E+03  0.15578021267E+03  0.00000000000E+00 0. -1.
        -13    1    3    3    0    0  0.15818496877E+02  0.38897052597E+02 -0.10720652754E+02  0.43337488848E+02  0.00000000000E+00 0.  1.
          4    1    6    6  502    0  0.32834611325E+02 -0.28124675339E+02 -0.50107306226E+02  0.66180444249E+02  0.00000000000E+00 0. -1.
          3    1    5    5  503    0 -0.66774261266E+02  0.36066310129E+02 -0.36686316643E+02  0.84293929335E+02  0.00000000000E+00 0. -1.
         -4    1    5    5    0  503 -0.23418996121E+03  0.31804989192E+03 -0.25128843508E+03  0.46813091042E+03  0.00000000000E+00 0.  1.
         -3    1    6    6    0  502  0.15070417404E+03 -0.35902532665E+03 -0.23643915527E+03  0.45553749285E+03  0.00000000000E+00 0.  1.
<mgrwt>
<rscale>  0 0.10614762E+04</rscale>
<asrwt>0</asrwt>
<pdfrwt beam="1">  1        1 0.15203379E+00 0.10614762E+04</pdfrwt>
<pdfrwt beam="2">  1       -1 0.43852436E-01 0.10614762E+04</pdfrwt>
<totfact> 0.79297941E+01</totfact>
</mgrwt>
</event>
<event>
12    1  0.1489233E-007  0.2386885E+04  0.7818608E-02  0.8444430E-01
         -1   -1    0    0    0  501 -0.00000000000E+00  0.00000000000E+00  0.13907782457E+04  0.13907782457E+04  0.00000000000E+00 0.  1.
          1   -1    0    0  501    0  0.00000000000E+00 -0.00000000000E+00 -0.10241065108E+04  0.10241065108E+04  0.00000000000E+00 0. -1.
         23    2    1    2    0    0  0.48514621951E+03 -0.85982807028E+02  0.10864362119E+04  0.11959698611E+04  0.85090356625E+02 0.  0.
        254    2    1    2    0    0 -0.48514621951E+03  0.85982807028E+02 -0.71976447697E+03  0.12189148954E+04  0.85142981066E+03 0.  0.
        -24    2    4    4    0    0 -0.17163670106E+03  0.44404852902E+03 -0.24096509713E+03  0.53930830399E+03  0.78428409650E+02 0.  0.
         24    2    4    4    0    0 -0.31350951845E+03 -0.35806572199E+03 -0.47879937984E+03  0.67960659140E+03  0.78211210904E+02 0.  0.
         13    1    3    3    0    0  0.35260349149E+03 -0.33374634808E+02  0.83298790112E+03  0.90515851202E+03  0.00000000000E+00 0.  1.
        -13    1    3    3    0    0  0.13254272802E+03 -0.52608172221E+02  0.25344831074E+03  0.29081134908E+03  0.00000000000E+00 0. -1.
          2    1    6    6  502    0  0.20807059564E+01 -0.77615661632E+01 -0.60855210785E+00  0.80586340189E+01  0.00000000000E+00 0. -1.
          3    1    5    5  503    0 -0.26329526343E+02  0.15020901393E+03 -0.53056520329E+02  0.16146512370E+03  0.00000000000E+00 0. -1.
         -4    1    5    5    0  503 -0.14530717472E+03  0.29383951509E+03 -0.18790857680E+03  0.37784318029E+03  0.00000000000E+00 0.  1.
         -1    1    6    6    0  502 -0.31559022441E+03 -0.35030415583E+03 -0.47819082773E+03  0.67154795738E+03  0.00000000000E+00 0.  1.
<mgrwt>
<rscale>  0 0.23868850E+04</rscale>
<asrwt>0</asrwt>
<pdfrwt beam="1">  1        1 0.15755485E+00 0.23868850E+04</pdfrwt>
<pdfrwt beam="2">  1       -1 0.21396588E+00 0.23868850E+04</pdfrwt>
<totfact> 0.15708981E+00</totfact>
</mgrwt>
</event>
<event>
12    1  0.1489233E-007  0.1080319E+04  0.7818608E-02  0.9224589E-01
          2   -1    0    0  501    0  0.00000000000E+00  0.00000000000E+00  0.20269126822E+04  0.20269126822E+04  0.00000000000E+00 0. -1.
         -2   -1    0    0    0  501 -0.00000000000E+00 -0.00000000000E+00 -0.14394913012E+03  0.14394913012E+03  0.00000000000E+00 0.  1.
         23    2    1    2    0    0  0.96119385688E+01  0.69136090038E+02  0.31981250185E+02  0.11101318074E+03  0.80180656182E+02 0.  0.
        254    2    1    2    0    0 -0.96119385688E+01 -0.69136090038E+02  0.18509823019E+04  0.20598486316E+04  0.90109306667E+03 0.  0.
        -24    2    4    4    0    0 -0.13431899291E+03 -0.45945192482E+03  0.10454875099E+04  0.11525964240E+04  0.79351875596E+02 0.  0.
         24    2    4    4    0    0  0.12470705434E+03  0.39031583478E+03  0.80549479203E+03  0.90725220763E+03  0.79915004637E+02 0.  0.
         13    1    3    3    0    0 -0.40575827192E+01  0.24624786445E+02 -0.26405451905E+02  0.36333069995E+02  0.00000000000E+00 0. -1.
        -13    1    3    3    0    0  0.13669521288E+02  0.44511303594E+02  0.58386702090E+02  0.74680110744E+02  0.00000000000E+00 0.  1.
          2    1    6    6  502    0  0.12576588098E+03  0.28309108479E+03  0.57902517376E+03  0.65667935171E+03  0.00000000000E+00 0. -1.
          3    1    5    5  503    0 -0.11385552958E+03 -0.25092813792E+03  0.58014251232E+03  0.64225644926E+03  0.00000000000E+00 0. -1.
         -4    1    5    5    0  503 -0.20463463335E+02 -0.20852378690E+03  0.46534499759E+03  0.51033997474E+03  0.00000000000E+00 0.  1.
         -1    1    6    6    0  502 -0.10588266350E+01  0.10722474999E+03  0.22646961827E+03  0.25057285592E+03  0.00000000000E+00 0.  1.
<mgrwt>
<rscale>  0 0.10803191E+04</rscale>
<asrwt>0</asrwt>
<pdfrwt beam="1">  1        2 0.31183270E+00 0.10803191E+04</pdfrwt>
<pdfrwt beam="2">  1       -2 0.22146021E-01 0.10803191E+04</pdfrwt>
<totfact> 0.11479121E+02</totfact>
</mgrwt>
</event>
<event>
12    1  0.1489233E-007  0.1070742E+04  0.7818608E-02  0.9234188E-01
         -1   -1    0    0    0  501 -0.00000000000E+00  0.00000000000E+00  0.21865801359E+03  0.21865801359E+03  0.00000000000E+00 0.  1.
          1   -1    0    0  501    0  0.00000000000E+00 -0.00000000000E+00 -0.13108228978E+04  0.13108228978E+04  0.00000000000E+00 0. -1.
         23    2    1    2    0    0 -0.94492790114E+02 -0.70929473450E+02 -0.85594430362E+02  0.17181974182E+03  0.90750975649E+02 0.  0.
        254    2    1    2    0    0  0.94492790114E+02  0.70929473450E+02 -0.10065704539E+04  0.13576611696E+04  0.90338247449E+03 0.  0.
        -24    2    4    4    0    0  0.19971931056E+03  0.19748787299E+03 -0.11093092997E+04  0.11471101544E+04  0.80033248620E+02 0.  0.
         24    2    4    4    0    0 -0.10522652045E+03 -0.12655839954E+03  0.10273884581E+03  0.21055101523E+03  0.81772920196E+02 0.  0.
         11    1    3    3    0    0 -0.60391171205E+02 -0.56568520766E+02 -0.47190001112E+01  0.82881602682E+02  0.00000000000E+00 0.  1.
        -11    1    3    3    0    0 -0.34101618909E+02 -0.14360952684E+02 -0.80875430251E+02  0.88938139133E+02  0.00000000000E+00 0. -1.
          2    1    6    6  502    0  0.36058169555E+01 -0.40829480202E+02  0.56498190824E+01  0.41375945006E+02  0.00000000000E+00 0. -1.
          1    1    5    5  503    0  0.22957305319E+02  0.68852768329E+02 -0.24004292308E+03  0.25077549022E+03  0.00000000000E+00 0. -1.
         -2    1    5    5    0  503  0.17676200524E+03  0.12863510466E+03 -0.86926637660E+03  0.89633466414E+03  0.00000000000E+00 0.  1.
         -1    1    6    6    0  502 -0.10883233740E+03 -0.85728919341E+02  0.97089026726E+02  0.16917507023E+03  0.00000000000E+00 0.  1.
<mgrwt>
<rscale>  0 0.10707417E+04</rscale>
<asrwt>0</asrwt>
<pdfrwt beam="1">  1        1 0.20166506E+00 0.10707417E+04</pdfrwt>
<pdfrwt beam="2">  1       -1 0.33639695E-01 0.10707417E+04</pdfrwt>
<totfact> 0.73846942E+01</totfact>
</mgrwt>
</event>
<event>
12    1  0.1489233E-007  0.3857462E+04  0.7818608E-02  0.8033935E-01
         -2   -1    0    0    0  501 -0.00000000000E+00  0.00000000000E+00  0.79898108180E+03  0.79898108180E+03  0.00000000000E+00 0.  1.
          2   -1    0    0  501    0  0.00000000000E+00 -0.00000000000E+00 -0.46559343699E+04  0.46559343699E+04  0.00000000000E+00 0. -1.
         23    2    1    2    0    0 -0.13377052883E+04 -0.12230617770E+04 -0.20887874069E+04  0.27670842555E+04  0.91580004737E+02 0.  0.
        254    2    1    2    0    0  0.13377052883E+04  0.12230617770E+04 -0.17681658812E+04  0.26878311962E+04  0.90149343149E+03 0.  0.
        -24    2    4    4    0    0 -0.63542460362E+02  0.35448260674E+03 -0.39868178141E+03  0.54311360524E+03  0.79559176896E+02 0.  0.
         24    2    4    4    0    0  0.14012477487E+04  0.86857917024E+03 -0.13694840998E+04  0.21447175909E+04  0.80011356306E+02 0.  0.
         13    1    3    3    0    0 -0.12775474767E+04 -0.11723700394E+04 -0.20239832392E+04  0.26651617620E+04  0.00000000000E+00 0. -1.
        -13    1    3    3    0    0 -0.60157811565E+02 -0.50691737529E+02 -0.64804167641E+02  0.10192249354E+03  0.00000000000E+00 0.  1.
          4    1    6    6  502    0  0.77939797201E+03  0.46287753786E+03 -0.79935752400E+03  0.12085897836E+04  0.00000000000E+00 0. -1.
          3    1    5    5  503    0 -0.52560788410E+02  0.34315023018E+03 -0.35437708743E+03  0.49608249016E+03  0.00000000000E+00 0. -1.
         -4    1    5    5    0  503 -0.10981671952E+02  0.11332376555E+02 -0.44304693981E+02  0.47031115083E+02  0.00000000000E+00 0.  1.
         -3    1    6    6    0  502  0.62184977666E+03  0.40570163238E+03 -0.57012657579E+03  0.93612780733E+03  0.00000000000E+00 0.  1.
<mgrwt>
<rscale>  0 0.38574621E+04</rscale>
<asrwt>0</asrwt>
<pdfrwt beam="1">  1        2 0.71629758E+00 0.38574621E+04</pdfrwt>
<pdfrwt beam="2">  1       -2 0.12292017E+00 0.38574621E+04</pdfrwt>
<totfact> 0.33851461E-02</totfact>
</mgrwt>
</event>
<event>
12    1  0.1489233E-007  0.1377478E+04  0.7818608E-02  0.8970284E-01
         -2   -1    0    0    0  501 -0.00000000000E+00  0.00000000000E+00  0.80788831697E+03  0.80788831697E+03  0.00000000000E+00 0.  1.
          2   -1    0    0  501    0  0.00000000000E+00 -0.00000000000E+00 -0.58716216254E+03  0.58716216254E+03  0.00000000000E+00 0. -1.
         23    2    1    2    0    0 -0.16468200993E+03 -0.18358629224E+03 -0.24424344389E+03  0.35849913430E+03  0.89680980789E+02 0.  0.
        254    2    1    2    0    0  0.16468200993E+03  0.18358629224E+03  0.46496959832E+03  0.10365513452E+04  0.89298257139E+03 0.  0.
        -24    2    4    4    0    0  0.11523594035E+03  0.51109130927E+03  0.44952461425E+03  0.69514135646E+03  0.81581114718E+02 0.  0.
         24    2    4    4    0    0  0.49446069579E+02 -0.32750501703E+03  0.15444984069E+02  0.34140998876E+03  0.81349756682E+02 0.  0.
         11    1    3    3    0    0 -0.11159066380E+03 -0.13339085030E+03 -0.22223084248E+03  0.28219167695E+03  0.00000000000E+00 0. -1.
        -11    1    3    3    0    0 -0.53091346129E+02 -0.50195441941E+02 -0.22012601405E+02  0.76307457343E+02  0.00000000000E+00 0.  1.
          2    1    6    6  502    0  0.60725819420E+02 -0.25778214720E+03  0.37356467543E+02  0.26745984040E+03  0.00000000000E+00 0. -1.
          3    1    5    5  503    0  0.58526268211E+02  0.30671910672E+03  0.31746952134E+03  0.44529634119E+03  0.00000000000E+00 0. -1.
         -4    1    5    5    0  503  0.56709672143E+02  0.20437220255E+03  0.13205509291E+03  0.24984501526E+03  0.00000000000E+00 0.  1.
         -1    1    6    6    0  502 -0.11279749841E+02 -0.69722869829E+02 -0.21911483474E+02  0.73950148355E+02  0.00000000000E+00 0.  1.
<mgrwt>
<rscale>  0 0.13774781E+04</rscale>
<asrwt>0</asrwt>
<pdfrwt beam="1">  1        2 0.90332640E-01 0.13774781E+04</pdfrwt>
<pdfrwt beam="2">  1       -2 0.12429051E+00 0.13774781E+04</pdfrwt>
<totfact> 0.24132242E+01</totfact>
</mgrwt>
</event>
<event>
12    1  0.1489233E-007  0.1967096E+04  0.7818608E-02  0.8622161E-01
         -1   -1    0    0    0  501 -0.00000000000E+00  0.00000000000E+00  0.85367550166E+03  0.85367550166E+03  0.00000000000E+00 0.  1.
          1   -1    0    0  501    0  0.00000000000E+00 -0.00000000000E+00 -0.11331784932E+04  0.11331784932E+04  0.00000000000E+00 0. -1.
         23    2    1    2    0    0  0.55453818223E+03  0.54005941940E+03 -0.15793555394E+03  0.79429366348E+03  0.82352975750E+02 0.  0.
        254    2    1    2    0    0 -0.55453818223E+03 -0.54005941940E+03 -0.12156743762E+03  0.11925603314E+04  0.89902432122E+03 0.  0.
        -24    2    4    4    0    0 -0.77059862971E+03 -0.54659326274E+03 -0.42767866774E+02  0.94907663479E+03  0.79567111897E+02 0.  0.
         24    2    4    4    0    0  0.21606044748E+03  0.65338433456E+01 -0.78799570851E+02  0.24348369662E+03  0.79687703428E+02 0.  0.
         13    1    3    3    0    0  0.21626443975E+03  0.23734491422E+03 -0.29052646390E+02  0.32240808375E+03  0.00000000000E+00 0. -1.
        -13    1    3    3    0    0  0.33827374248E+03  0.30271450518E+03 -0.12888290755E+03  0.47188557973E+03  0.00000000000E+00 0.  1.
          2    1    6    6  502    0  0.12672818482E+03 -0.34673814947E+02 -0.53830508534E+02  0.14198602015E+03  0.00000000000E+00 0. -1.
          1    1    5    5  503    0 -0.29038783606E+03 -0.16247224297E+03 -0.28549465186E+02  0.33397215008E+03  0.00000000000E+00 0. -1.
         -2    1    5    5    0  503 -0.48021079365E+03 -0.38412101977E+03 -0.14218401588E+02  0.61510448471E+03  0.00000000000E+00 0.  1.
         -1    1    6    6    0  502  0.89332262666E+02  0.41207658292E+02 -0.24969062318E+02  0.10149767647E+03  0.00000000000E+00 0.  1.
<mgrwt>
<rscale>  0 0.19670961E+04</rscale>
<asrwt>0</asrwt>
<pdfrwt beam="1">  1        1 0.17433515E+00 0.19670961E+04</pdfrwt>
<pdfrwt beam="2">  1       -1 0.13133469E+00 0.19670961E+04</pdfrwt>
<totfact> 0.55046791E+00</totfact>
</mgrwt>
</event>
<event>
12    1  0.1489233E-007  0.1490704E+04  0.7818608E-02  0.8890658E-01
         -2   -1    0    0    0  501 -0.00000000000E+00  0.00000000000E+00  0.26347702650E+03  0.26347702650E+03  0.00000000000E+00 0.  1.
          2   -1    0    0  501    0  0.00000000000E+00 -0.00000000000E+00 -0.21085311879E+04  0.21085311879E+04  0.00000000000E+00 0. -1.
         23    2    1    2    0    0 -0.38412262765E+02  0.14444388241E+03  0.11238455634E+03  0.20787886683E+03  0.90795361514E+02 0.  0.
        254    2    1    2    0    0  0.38412262765E+02 -0.14444388241E+03 -0.19574387177E+04  0.21641293476E+04  0.91079633411E+03 0.  0.
        -24    2    4    4    0    0  0.33392762514E+03 -0.39791473459E+03 -0.11118854493E+04  0.12298867404E+04  0.80550275797E+02 0.  0.
         24    2    4    4    0    0 -0.29551536237E+03  0.25347085218E+03 -0.84555326845E+03  0.93424260721E+03  0.79196698470E+02 0.  0.
         13    1    3    3    0    0 -0.16438477001E+02  0.78498496008E+02  0.55124093664E+01  0.80390447559E+02  0.00000000000E+00 0. -1.
        -13    1    3    3    0    0 -0.21973785764E+02  0.65945386403E+02  0.10687214697E+03  0.12748841927E+03  0.00000000000E+00 0.  1.
          2    1    6    6  502    0 -0.10281794170E+03  0.66403302963E+02 -0.34701686824E+03  0.36796961101E+03  0.00000000000E+00 0. -1.
          1    1    5    5  503    0  0.20658572479E+03 -0.19853829213E+03 -0.54796507043E+03  0.61835332419E+03  0.00000000000E+00 0. -1.
         -2    1    5    5    0  503  0.12734190035E+03 -0.19937644246E+03 -0.56392037887E+03  0.61153341617E+03  0.00000000000E+00 0.  1.
         -1    1    6    6    0  502 -0.19269742067E+03  0.18706754922E+03 -0.49853640021E+03  0.56627299621E+03  0.00000000000E+00 0.  1.
<mgrwt>
<rscale>  0 0.14907039E+04</rscale>
<asrwt>0</asrwt>
<pdfrwt beam="1">  1        2 0.32438940E+00 0.14907039E+04</pdfrwt>
<pdfrwt beam="2">  1       -2 0.40534928E-01 0.14907039E+04</pdfrwt>
<totfact> 0.32401704E+01</totfact>
</mgrwt>
</event>
<event>
12    1  0.1489233E-007  0.2418842E+04  0.7818608E-02  0.8432483E-01
         -1   -1    0    0    0  501 -0.00000000000E+00  0.00000000000E+00  0.12365859825E+04  0.12365859825E+04  0.00000000000E+00 0.  1.
          1   -1    0    0  501    0  0.00000000000E+00 -0.00000000000E+00 -0.11828529414E+04  0.11828529414E+04  0.00000000000E+00 0. -1.
         23    2    1    2    0    0  0.67410108564E+03 -0.79597157237E+03  0.16887573242E+03  0.10605692696E+04  0.91132567809E+02 0.  0.
        254    2    1    2    0    0 -0.67410108564E+03  0.79597157237E+03 -0.11514269135E+03  0.13588696542E+04  0.86329941513E+03 0.  0.
        -24    2    4    4    0    0 -0.43062931047E+03  0.52216005547E+03 -0.48182264286E+03  0.83464753414E+03  0.79941982159E+02 0.  0.
         24    2    4    4    0    0 -0.24347177517E+03  0.27381151690E+03  0.36667995151E+03  0.52422212010E+03  0.78124210545E+02 0.  0.
         11    1    3    3    0    0  0.20040150938E+03 -0.29950535502E+03  0.43053364177E+02  0.36292949014E+03  0.00000000000E+00 0. -1.
        -11    1    3    3    0    0  0.47369957626E+03 -0.49646621735E+03  0.12582236824E+03  0.69763977945E+03  0.00000000000E+00 0.  1.
          4    1    6    6  502    0 -0.10256700541E+03  0.83284422365E+02  0.89646961176E+02  0.15966484665E+03  0.00000000000E+00 0. -1.
          1    1    5    5  503    0 -0.39577024925E+03  0.47045192415E+03 -0.40724657331E+03  0.73743397983E+03  0.00000000000E+00 0. -1.
         -2    1    5    5    0  503 -0.34859061220E+02  0.51708131327E+02 -0.74576069541E+02  0.97213554316E+02  0.00000000000E+00 0.  1.
         -3    1    6    6    0  502 -0.14090476975E+03  0.19052709454E+03  0.27703299033E+03  0.36455727345E+03  0.00000000000E+00 0.  1.
<mgrwt>
<rscale>  0 0.24188422E+04</rscale>
<asrwt>0</asrwt>
<pdfrwt beam="1">  1        1 0.18197738E+00 0.24188422E+04</pdfrwt>
<pdfrwt beam="2">  1       -1 0.19024400E+00 0.24188422E+04</pdfrwt>
<totfact> 0.17321329E+00</totfact>
</mgrwt>
</event>
<event>
12    1  0.1489233E-007  0.2896098E+04  0.7818608E-02  0.8274039E-01
         -2   -1    0    0    0  501 -0.00000000000E+00  0.00000000000E+00  0.84854822153E+03  0.84854822153E+03  0.00000000000E+00 0.  1.
          2   -1    0    0  501    0  0.00000000000E+00 -0.00000000000E+00 -0.24710983539E+04  0.24710983539E+04  0.00000000000E+00 0. -1.
         23    2    1    2    0    0 -0.52664544089E+03  0.11932557153E+04 -0.73995758952E+03  0.15023446505E+04  0.91036211881E+02 0.  0.
        254    2    1    2    0    0  0.52664544089E+03 -0.11932557153E+04 -0.88259254285E+03  0.18173019250E+04  0.90686386369E+03 0.  0.
        -24    2    4    4    0    0  0.69885408003E+03 -0.77828626099E+03 -0.32809305074E+03  0.10991957254E+04  0.80372032167E+02 0.  0.
         24    2    4    4    0    0 -0.17220863914E+03 -0.41496945434E+03 -0.55449949211E+03  0.71810619959E+03  0.79695443490E+02 0.  0.
         11    1    3    3    0    0 -0.22368667991E+03  0.54194066204E+03 -0.38211526824E+03  0.69981961259E+03  0.00000000000E+00 0. -1.
        -11    1    3    3    0    0 -0.30295876099E+03  0.65131505329E+03 -0.35784232128E+03  0.80252503786E+03  0.00000000000E+00 0.  1.
          2    1    6    6  502    0 -0.15026644425E+03 -0.29868436044E+03 -0.36778281524E+03  0.49704783535E+03  0.00000000000E+00 0. -1.
          3    1    5    5  503    0  0.11382542331E+02 -0.12180562983E+02  0.48321475575E+01  0.17357362545E+02  0.00000000000E+00 0. -1.
         -4    1    5    5    0  503  0.68747153770E+03 -0.76610569801E+03 -0.33292519830E+03  0.10818383628E+04  0.00000000000E+00 0.  1.
         -1    1    6    6    0  502 -0.21942194882E+02 -0.11628509390E+03 -0.18671667687E+03  0.22105836424E+03  0.00000000000E+00 0.  1.
<mgrwt>
<rscale>  0 0.28960981E+04</rscale>
<asrwt>0</asrwt>
<pdfrwt beam="1">  1        2 0.38016897E+00 0.28960981E+04</pdfrwt>
<pdfrwt beam="2">  1       -2 0.13054588E+00 0.28960981E+04</pdfrwt>
<totfact> 0.13419154E+00</totfact>
</mgrwt>
</event>
<event>
12    1  0.1489233E-007  0.1754238E+04  0.7818608E-02  0.8731021E-01
         -2   -1    0    0    0  501 -0.00000000000E+00  0.00000000000E+00  0.68019337122E+03  0.68019337122E+03  0.00000000000E+00 0.  1.
          2   -1    0    0  501    0  0.00000000000E+00 -0.00000000000E+00 -0.11310570915E+04  0.11310570915E+04  0.00000000000E+00 0. -1.
         23    2    1    2    0    0  0.42331831992E+03  0.21541746391E+03  0.28647758038E+03  0.56210137571E+03  0.91024550434E+02 0.  0.
        254    2    1    2    0    0 -0.42331831992E+03 -0.21541746391E+03 -0.73734130067E+03  0.12491490870E+04  0.88943699282E+03 0.  0.
        -24    2    4    4    0    0  0.13250313523E+03 -0.22013689617E+02 -0.62481693733E+03  0.64455239935E+03  0.83725187112E+02 0.  0.
         24    2    4    4    0    0 -0.55582145515E+03 -0.19340377429E+03 -0.11252436334E+03  0.60459668768E+03  0.80826434339E+02 0.  0.
         11    1    3    3    0    0  0.19074690512E+03  0.51816778359E+02  0.14019846747E+03  0.24233235569E+03  0.00000000000E+00 0.  1.
        -11    1    3    3    0    0  0.23257141480E+03  0.16360068555E+03  0.14627911291E+03  0.31976902003E+03  0.00000000000E+00 0. -1.
          4    1    6    6  502    0 -0.13594844202E+03 -0.31031054566E+02 -0.58394960480E+02  0.15117829422E+03  0.00000000000E+00 0. -1.
          1    1    5    5  503    0  0.33726441274E+02 -0.44057435061E+02 -0.17949885121E+03  0.18787859913E+03  0.00000000000E+00 0. -1.
         -2    1    5    5    0  503  0.98776693957E+02  0.22043745445E+02 -0.44531808611E+03  0.45667380022E+03  0.00000000000E+00 0.  1.
         -3    1    6    6    0  502 -0.41987301314E+03 -0.16237271972E+03 -0.54129402863E+02  0.45341839346E+03  0.00000000000E+00 0.  1.
<mgrwt>
<rscale>  0 0.17542378E+04</rscale>
<asrwt>0</asrwt>
<pdfrwt beam="1">  1        2 0.17400878E+00 0.17542378E+04</pdfrwt>
<pdfrwt beam="2">  1       -2 0.10464514E+00 0.17542378E+04</pdfrwt>
<totfact> 0.14642548E+01</totfact>
</mgrwt>
</event>
<event>
12    1  0.1489233E-007  0.1490478E+04  0.7818608E-02  0.8890810E-01
         -2   -1    0    0    0  501 -0.00000000000E+00  0.00000000000E+00  0.15659233310E+03  0.15659233310E+03  0.00000000000E+00 0.  1.
          2   -1    0    0  501    0  0.00000000000E+00 -0.00000000000E+00 -0.35466683580E+04  0.35466683580E+04  0.00000000000E+00 0. -1.
         23    2    1    2    0    0 -0.16788023097E+03  0.21594264719E+03 -0.17672572144E+04  0.17906026015E+04  0.90799867617E+02 0.  0.
        254    2    1    2    0    0  0.16788023097E+03 -0.21594264719E+03 -0.16228188105E+04  0.19126580896E+04  0.97463073883E+03 0.  0.
        -24    2    4    4    0    0 -0.28890695821E+03 -0.15209912152E+03 -0.13033151842E+04  0.13459100531E+04  0.79006507616E+02 0.  0.
         24    2    4    4    0    0  0.45678718918E+03 -0.63843525677E+02 -0.31950362630E+03  0.56674803652E+03  0.79938962454E+02 0.  0.
         11    1    3    3    0    0 -0.72657329356E+02  0.13731642233E+03 -0.75325150520E+03  0.76910514069E+03  0.00000000000E+00 0.  1.
        -11    1    3    3    0    0 -0.95222901614E+02  0.78626224864E+02 -0.10140057092E+04  0.10214974609E+04  0.00000000000E+00 0. -1.
          4    1    6    6  502    0  0.44166236976E+03 -0.53322378800E+02 -0.32050032275E+03  0.54829680085E+03  0.00000000000E+00 0. -1.
          1    1    5    5  503    0 -0.24574017574E+03 -0.15824407759E+03 -0.11273426593E+04  0.11646162001E+04  0.00000000000E+00 0. -1.
         -2    1    5    5    0  503 -0.43166782473E+02  0.61449560705E+01 -0.17597252493E+03  0.18129385297E+03  0.00000000000E+00 0.  1.
         -3    1    6    6    0  502  0.15124819420E+02 -0.10521146876E+02  0.99669644962E+00  0.18451235674E+02  0.00000000000E+00 0.  1.
<mgrwt>
<rscale>  0 0.14904779E+04</rscale>
<asrwt>0</asrwt>
<pdfrwt beam="1">  1        2 0.54564123E+00 0.14904779E+04</pdfrwt>
<pdfrwt beam="2">  1       -2 0.24091131E-01 0.14904779E+04</pdfrwt>
<totfact> 0.11351210E+01</totfact>
</mgrwt>
</event>
<event>
12    1  0.1489233E-007  0.1231741E+04  0.7818608E-02  0.9085519E-01
          1   -1    0    0  501    0  0.00000000000E+00  0.00000000000E+00  0.73714042108E+03  0.73714042108E+03  0.00000000000E+00 0. -1.
         -1   -1    0    0    0  501 -0.00000000000E+00 -0.00000000000E+00 -0.51455097099E+03  0.51455097099E+03  0.00000000000E+00 0.  1.
         23    2    1    2    0    0  0.90031653742E+02 -0.50034825309E+01 -0.21863010339E+03  0.24571774418E+03  0.66688486121E+02 0.  0.
        254    2    1    2    0    0 -0.90031653742E+02  0.50034825309E+01  0.44121955349E+03  0.10059736479E+04  0.89954296860E+03 0.  0.
        -24    2    4    4    0    0  0.33285206938E+03 -0.19192706900E+03  0.34779170108E+03  0.52366030647E+03  0.75063635204E+02 0.  0.
         24    2    4    4    0    0 -0.42288372312E+03  0.19693055154E+03  0.93427852411E+02  0.48231334141E+03  0.79278687481E+02 0.  0.
         11    1    3    3    0    0  0.60177858413E+02  0.28066722407E+02 -0.11281143725E+03  0.13090277279E+03  0.00000000000E+00 0. -1.
        -11    1    3    3    0    0  0.29853795328E+02 -0.33070204938E+02 -0.10581866615E+03  0.11481497139E+03  0.00000000000E+00 0.  1.
          4    1    6    6  502    0 -0.31923087457E+03  0.12768375266E+03  0.98195444508E+02  0.35756654946E+03  0.00000000000E+00 0. -1.
          1    1    5    5  503    0  0.28865717736E+03 -0.15274882210E+03  0.25804557974E+03  0.41622432643E+03  0.00000000000E+00 0. -1.
         -2    1    5    5    0  503  0.44194892022E+02 -0.39178246909E+02  0.89746121341E+02  0.10743598004E+03  0.00000000000E+00 0.  1.
         -3    1    6    6    0  502 -0.10365284855E+03  0.69246798877E+02 -0.47675920970E+01  0.12474679195E+03  0.00000000000E+00 0.  1.
<mgrwt>
<rscale>  0 0.12317408E+04</rscale>
<asrwt>0</asrwt>
<pdfrwt beam="1">  1        1 0.11340622E+00 0.12317408E+04</pdfrwt>
<pdfrwt beam="2">  1       -1 0.79161688E-01 0.12317408E+04</pdfrwt>
<totfact> 0.39655269E+01</totfact>
</mgrwt>
</event>
<event>
12    1  0.1489233E-007  0.2111202E+04  0.7818608E-02  0.8556325E-01
         -2   -1    0    0    0  501 -0.00000000000E+00  0.00000000000E+00  0.34332029926E+03  0.34332029926E+03  0.00000000000E+00 0.  1.
          2   -1    0    0  501    0  0.00000000000E+00 -0.00000000000E+00 -0.32456385131E+04  0.32456385131E+04  0.00000000000E+00 0. -1.
         23    2    1    2    0    0 -0.34464940388E+03 -0.43624099101E+03 -0.23383772916E+04  0.24054710638E+04  0.95881525900E+02 0.  0.
        254    2    1    2    0    0  0.34464940388E+03  0.43624099101E+03 -0.56394092226E+03  0.11834877486E+04  0.87950240103E+03 0.  0.
        -24    2    4    4    0    0  0.10372370478E+03 -0.21334851904E+03  0.49624581190E+02  0.25474169891E+03  0.78450854677E+02 0.  0.
         24    2    4    4    0    0  0.24092569910E+03  0.64958951005E+03 -0.61356550345E+03  0.92874604967E+03  0.78069672150E+02 0.  0.
         13    1    3    3    0    0 -0.27886159536E+03 -0.29811682782E+03 -0.18051026809E+04  0.18506845006E+04  0.00000000000E+00 0. -1.
        -13    1    3    3    0    0 -0.65787808517E+02 -0.13812416319E+03 -0.53327461074E+03  0.55478656316E+03  0.00000000000E+00 0.  1.
          4    1    6    6  502    0  0.16073910160E+03  0.48170882417E+03 -0.40737357634E+03  0.65102509995E+03  0.00000000000E+00 0. -1.
          3    1    5    5  503    0  0.84972759630E+02 -0.17182989255E+03  0.71001694698E+02  0.20441898763E+03  0.00000000000E+00 0. -1.
         -4    1    5    5    0  503  0.18750945149E+02 -0.41518626482E+02 -0.21377113508E+02  0.50322711283E+02  0.00000000000E+00 0.  1.
         -3    1    6    6    0  502  0.80186597502E+02  0.16788068588E+03 -0.20619192711E+03  0.27772094973E+03  0.00000000000E+00 0.  1.
<mgrwt>
<rscale>  0 0.21112021E+04</rscale>
<asrwt>0</asrwt>
<pdfrwt beam="1">  1        2 0.49932900E+00 0.21112021E+04</pdfrwt>
<pdfrwt beam="2">  1       -2 0.52818508E-01 0.21112021E+04</pdfrwt>
<totfact> 0.37786494E+00</totfact>
</mgrwt>
</event>
<event>
12    1  0.1489233E-007  0.1687502E+04  0.7818608E-02  0.8768525E-01
         -2   -1    0    0    0  501 -0.00000000000E+00  0.00000000000E+00  0.22599445361E+03  0.22599445361E+03  0.00000000000E+00 0.  1.
          2   -1    0    0  501    0  0.00000000000E+00 -0.00000000000E+00 -0.31501467008E+04  0.31501467008E+04  0.00000000000E+00 0. -1.
         23    2    1    2    0    0  0.19577727276E+03 -0.49436414602E+03 -0.51170157707E+03  0.74364139463E+03  0.91866046183E+02 0.  0.
        254    2    1    2    0    0 -0.19577727276E+03  0.49436414602E+03 -0.24124506702E+04  0.26324997598E+04  0.90962195448E+03 0.  0.
        -24    2    4    4    0    0 -0.33766014775E+03 -0.10395155624E+03 -0.46718419733E+03  0.59084680420E+03  0.77579445574E+02 0.  0.
         24    2    4    4    0    0  0.14188287499E+03  0.59831570226E+03 -0.19452664728E+04  0.20416529556E+04  0.78566602636E+02 0.  0.
         11    1    3    3    0    0  0.23510090764E+01 -0.75441539533E+02 -0.47823653029E+02  0.89353538933E+02  0.00000000000E+00 0. -1.
        -11    1    3    3    0    0  0.19342626368E+03 -0.41892260648E+03 -0.46387792404E+03  0.65428785570E+03  0.00000000000E+00 0.  1.
          4    1    6    6  502    0 -0.84507560791E+01  0.15750652577E+02 -0.69331849751E+02  0.71598908684E+02  0.00000000000E+00 0. -1.
          1    1    5    5  503    0 -0.22473480097E+03 -0.30673740202E+02 -0.28183082684E+03  0.36176680895E+03  0.00000000000E+00 0. -1.
         -2    1    5    5    0  503 -0.11292534678E+03 -0.73277816043E+02 -0.18535337049E+03  0.22907999525E+03  0.00000000000E+00 0.  1.
         -3    1    6    6    0  502  0.15033363107E+03  0.58256504969E+03 -0.18759346231E+04  0.19700540469E+04  0.00000000000E+00 0.  1.
<mgrwt>
<rscale>  0 0.16875019E+04</rscale>
<asrwt>0</asrwt>
<pdfrwt beam="1">  1        2 0.48463791E+00 0.16875019E+04</pdfrwt>
<pdfrwt beam="2">  1       -2 0.34768381E-01 0.16875019E+04</pdfrwt>
<totfact> 0.10390822E+01</totfact>
</mgrwt>
</event>
<event>
12    1  0.1489233E-007  0.1705126E+04  0.7818608E-02  0.8758446E-01
          2   -1    0    0  501    0  0.00000000000E+00  0.00000000000E+00  0.24146321875E+04  0.24146321875E+04  0.00000000000E+00 0. -1.
         -2   -1    0    0    0  501 -0.00000000000E+00 -0.00000000000E+00 -0.30102441622E+03  0.30102441622E+03  0.00000000000E+00 0.  1.
         23    2    1    2    0    0 -0.79141400445E+02  0.60032895504E+03  0.89938368226E+03  0.10879399883E+04  0.89800861773E+02 0.  0.
        254    2    1    2    0    0  0.79141400445E+02 -0.60032895504E+03  0.12142240890E+04  0.16277166154E+04  0.89914572018E+03 0.  0.
        -24    2    4    4    0    0 -0.33097819330E+03 -0.24345934941E+02  0.22652953983E+03  0.41036054175E+03  0.83311780834E+02 0.  0.
         24    2    4    4    0    0  0.41011959374E+03 -0.57598302010E+03  0.98769454921E+03  0.12173560737E+04  0.80378895855E+02 0.  0.
         13    1    3    3    0    0 -0.52521031910E+02  0.16579919921E+03  0.30622436085E+03  0.35216642717E+03  0.00000000000E+00 0. -1.
        -13    1    3    3    0    0 -0.26620368535E+02  0.43452975583E+03  0.59315932141E+03  0.73577356116E+03  0.00000000000E+00 0.  1.
          4    1    6    6  502    0  0.19607224823E+03 -0.24125710136E+03  0.49341241123E+03  0.58318532478E+03  0.00000000000E+00 0. -1.
          3    1    5    5  503    0 -0.65774818047E+02 -0.17098174946E+02  0.11646425031E+02  0.68951530017E+02  0.00000000000E+00 0. -1.
         -4    1    5    5    0  503 -0.26520337525E+03 -0.72477599944E+01  0.21488311480E+03  0.34140901174E+03  0.00000000000E+00 0.  1.
         -3    1    6    6    0  502  0.21404734551E+03 -0.33472591874E+03  0.49428213798E+03  0.63417074887E+03  0.00000000000E+00 0.  1.
<mgrwt>
<rscale>  0 0.17051255E+04</rscale>
<asrwt>0</asrwt>
<pdfrwt beam="1">  1        2 0.37148186E+00 0.17051255E+04</pdfrwt>
<pdfrwt beam="2">  1       -2 0.46311450E-01 0.17051255E+04</pdfrwt>
<totfact> 0.16416204E+01</totfact>
</mgrwt>
</event>
<event>
12    1  0.1489233E-007  0.2367072E+04  0.7818608E-02  0.8451935E-01
          2   -1    0    0  501    0  0.00000000000E+00  0.00000000000E+00  0.39604779925E+03  0.39604779925E+03  0.00000000000E+00 0. -1.
         -2   -1    0    0    0  501 -0.00000000000E+00 -0.00000000000E+00 -0.35368402553E+04  0.35368402553E+04  0.00000000000E+00 0.  1.
         23    2    1    2    0    0 -0.90709055028E+03 -0.28528488056E+03 -0.76989664026E+03  0.12269359449E+04  0.91816374594E+02 0.  0.
        254    2    1    2    0    0  0.90709055028E+03  0.28528488056E+03 -0.23708958158E+04  0.27059521097E+04  0.89265285585E+03 0.  0.
        -24    2    4    4    0    0  0.93858385006E+03  0.45624700273E+02 -0.13038420994E+04  0.16089841869E+04  0.76188165632E+02 0.  0.
         24    2    4    4    0    0 -0.31493299777E+02  0.23966018029E+03 -0.10670537164E+04  0.10969679228E+04  0.79411334572E+02 0.  0.
         11    1    3    3    0    0 -0.80475662455E+03 -0.23327886499E+03 -0.70530713023E+03  0.10952216221E+04  0.00000000000E+00 0. -1.
        -11    1    3    3    0    0 -0.10233392573E+03 -0.52006015576E+02 -0.64589510034E+02  0.13171432275E+03  0.00000000000E+00 0.  1.
          4    1    6    6  502    0 -0.88989377950E+01  0.20303880525E+03 -0.96577124990E+03  0.98692353030E+03  0.00000000000E+00 0. -1.
          3    1    5    5  503    0  0.53760969520E+03  0.17291596840E+02 -0.68307040741E+03  0.86942990814E+03  0.00000000000E+00 0. -1.
         -4    1    5    5    0  503  0.40097415486E+03  0.28333103433E+02 -0.62077169201E+03  0.73955427874E+03  0.00000000000E+00 0.  1.
         -3    1    6    6    0  502 -0.22594361982E+02  0.36621375041E+02 -0.10128246647E+03  0.11004439249E+03  0.00000000000E+00 0.  1.
<mgrwt>
<rscale>  0 0.23670723E+04</rscale>
<asrwt>0</asrwt>
<pdfrwt beam="1">  1        2 0.60930432E-01 0.23670723E+04</pdfrwt>
<pdfrwt beam="2">  1       -2 0.54412926E+00 0.23670723E+04</pdfrwt>
<totfact> 0.65720384E-02</totfact>
</mgrwt>
</event>
<event>
12    1  0.1489233E-007  0.1309672E+04  0.7818608E-02  0.9021930E-01
         -2   -1    0    0    0  501 -0.00000000000E+00  0.00000000000E+00  0.97512056960E+03  0.97512056960E+03  0.00000000000E+00 0. -1.
          2   -1    0    0  501    0  0.00000000000E+00 -0.00000000000E+00 -0.43975100716E+03  0.43975100716E+03  0.00000000000E+00 0.  1.
         23    2    1    2    0    0 -0.12448416055E+03  0.31573007938E+03  0.15482043841E+03  0.38403201725E+03  0.91265726715E+02 0.  0.
        254    2    1    2    0    0  0.12448416055E+03 -0.31573007938E+03  0.38054912403E+03  0.10308395595E+04  0.89589663042E+03 0.  0.
        -24    2    4    4    0    0  0.50108597090E+03 -0.22027018416E+03  0.15637189115E+03  0.57573582122E+03  0.86101470541E+02 0.  0.
         24    2    4    4    0    0 -0.37660181035E+03 -0.95459895220E+02  0.22417723288E+03  0.45510373829E+03  0.76957557862E+02 0.  0.
         13    1    3    3    0    0 -0.87526624047E+02  0.28091098665E+03  0.15643048873E+03  0.33323023594E+03  0.00000000000E+00 0.  1.
        -13    1    3    3    0    0 -0.36957536504E+02  0.34819092726E+02 -0.16100503185E+01  0.50801781315E+02  0.00000000000E+00 0. -1.
          4    1    6    6  502    0 -0.33214523300E+03 -0.94564909642E+02  0.16971107043E+03  0.38479192476E+03  0.00000000000E+00 0. -1.
          1    1    5    5  503    0  0.39497626769E+03 -0.21032225161E+03  0.12374676368E+03  0.46427897118E+03  0.00000000000E+00 0. -1.
         -2    1    5    5    0  503  0.10610970321E+03 -0.99479325473E+01  0.32625127463E+02  0.11145685004E+03  0.00000000000E+00 0.  1.
         -3    1    6    6    0  502 -0.44456577353E+02 -0.89498557878E+00  0.54466162458E+02  0.70311813531E+02  0.00000000000E+00 0.  1.
<mgrwt>
<rscale>  0 0.13096721E+04</rscale>
<asrwt>0</asrwt>
<pdfrwt beam="1">  1        2 0.67654001E-01 0.13096721E+04</pdfrwt>
<pdfrwt beam="2">  1       -2 0.15001855E+00 0.13096721E+04</pdfrwt>
<totfact> 0.20928805E+01</totfact>
</mgrwt>
</event>
<event>
12    1  0.1489233E-007  0.1244854E+04  0.7818608E-02  0.9074477E-01
          1   -1    0    0  501    0  0.00000000000E+00  0.00000000000E+00  0.41422486713E+03  0.41422486713E+03  0.00000000000E+00 0. -1.
         -1   -1    0    0    0  501 -0.00000000000E+00 -0.00000000000E+00 -0.93527756364E+03  0.93527756364E+03  0.00000000000E+00 0.  1.
         23    2    1    2    0    0 -0.13170048303E+03  0.57055821256E+02  0.93524666755E+02  0.19342888431E+03  0.89819185167E+02 0.  0.
        254    2    1    2    0    0  0.13170048303E+03 -0.57055821256E+02 -0.61457736326E+03  0.11560735465E+04  0.96860741552E+03 0.  0.
        -24    2    4    4    0    0  0.12690233445E+02 -0.32963306343E+03 -0.74642733679E+03  0.82001139885E+03  0.80286528102E+02 0.  0.
         24    2    4    4    0    0  0.11901024959E+03  0.27257724218E+03  0.13184997353E+03  0.33606214761E+03  0.84211395159E+02 0.  0.
         11    1    3    3    0    0 -0.29943358592E+02  0.51337666411E+02  0.63959282412E+02  0.87309509923E+02  0.00000000000E+00 0.  1.
        -11    1    3    3    0    0 -0.10175712444E+03  0.57181548444E+01  0.29565384343E+02  0.10611937439E+03  0.00000000000E+00 0. -1.
          2    1    6    6  502    0  0.15816276427E+02 -0.72090521307E+00  0.13719705180E+02  0.20950050467E+02  0.00000000000E+00 0. -1.
          1    1    5    5  503    0  0.20314142355E+02 -0.29799500491E+02 -0.49140496724E+02  0.60954598083E+02  0.00000000000E+00 0. -1.
         -2    1    5    5    0  503 -0.76239089102E+01 -0.29983356294E+03 -0.69728684007E+03  0.75905680076E+03  0.00000000000E+00 0.  1.
         -1    1    6    6    0  502  0.10319397316E+03  0.27329814739E+03  0.11813026835E+03  0.31511209714E+03  0.00000000000E+00 0.  1.
<mgrwt>
<rscale>  0 0.12448538E+04</rscale>
<asrwt>0</asrwt>
<pdfrwt beam="1">  1        1 0.63726903E-01 0.12448538E+04</pdfrwt>
<pdfrwt beam="2">  1       -1 0.14388886E+00 0.12448538E+04</pdfrwt>
<totfact> 0.22030022E+01</totfact>
</mgrwt>
</event>
<event>
12    1  0.1489233E-007  0.1662555E+04  0.7818608E-02  0.8783013E-01
          1   -1    0    0  501    0  0.00000000000E+00  0.00000000000E+00  0.28312150789E+04  0.28312150789E+04  0.00000000000E+00 0. -1.
         -1   -1    0    0    0  501 -0.00000000000E+00 -0.00000000000E+00 -0.24407281168E+03  0.24407281168E+03  0.00000000000E+00 0.  1.
         23    2    1    2    0    0 -0.56312605051E+02  0.18326123498E+03  0.19302659913E+04  0.19418519888E+04  0.90036432825E+02 0.  0.
        254    2    1    2    0    0  0.56312605051E+02 -0.18326123498E+03  0.65687627588E+03  0.11334359018E+04  0.90356776834E+03 0.  0.
        -24    2    4    4    0    0  0.34316599648E+03 -0.34370795143E+03  0.62115353284E+03  0.79262066783E+03  0.80732612391E+02 0.  0.
         24    2    4    4    0    0 -0.28685339142E+03  0.16044671645E+03  0.35722743043E+02  0.34081523398E+03  0.82770117519E+02 0.  0.
         11    1    3    3    0    0 -0.54556773945E+02  0.46126890796E+02  0.50999864050E+03  0.51497839270E+03  0.00000000000E+00 0.  1.
        -11    1    3    3    0    0 -0.17558311066E+01  0.13713434419E+03  0.14202673508E+04  0.14268735961E+04  0.00000000000E+00 0. -1.
          2    1    6    6  502    0 -0.67545653279E+02  0.37131798748E+02 -0.26726247251E+02  0.81581113300E+02  0.00000000000E+00 0. -1.
          1    1    5    5  503    0  0.27888972555E+02 -0.19054274088E+02  0.82181600965E+02  0.88851987532E+02  0.00000000000E+00 0. -1.
         -2    1    5    5    0  503  0.31527702392E+03 -0.32465367734E+03  0.53897193188E+03  0.70376868030E+03  0.00000000000E+00 0.  1.
         -1    1    6    6    0  502 -0.21930773815E+03  0.12331491770E+03  0.62448990294E+02  0.25923412068E+03  0.00000000000E+00 0.  1.
<mgrwt>
<rscale>  0 0.16625554E+04</rscale>
<asrwt>0</asrwt>
<pdfrwt beam="1">  1        1 0.43557153E+00 0.16625554E+04</pdfrwt>
<pdfrwt beam="2">  1       -1 0.37549665E-01 0.16625554E+04</pdfrwt>
<totfact> 0.51824262E+00</totfact>
</mgrwt>
</event>
<event>
12    1  0.1489233E-007  0.1557366E+04  0.7818608E-02  0.8847177E-01
          1   -1    0    0  501    0  0.00000000000E+00  0.00000000000E+00  0.66017610127E+03  0.66017610127E+03  0.00000000000E+00 0. -1.
         -1   -1    0    0    0  501 -0.00000000000E+00 -0.00000000000E+00 -0.91846224793E+03  0.91846224793E+03  0.00000000000E+00 0.  1.
         23    2    1    2    0    0 -0.42580053161E+03  0.25225629735E+03  0.46833602450E+02  0.50562305985E+03  0.92314462927E+02 0.  0.
        254    2    1    2    0    0  0.42580053161E+03 -0.25225629735E+03 -0.30511974911E+03  0.10730152894E+04  0.90184500754E+03 0.  0.
        -24    2    4    4    0    0  0.78818499959E+02  0.18727227826E+03 -0.44057898258E+03  0.49135311332E+03  0.77683846067E+02 0.  0.
         24    2    4    4    0    0  0.34698203165E+03 -0.43952857561E+03  0.13545923347E+03  0.58166217603E+03  0.79998650157E+02 0.  0.
         13    1    3    3    0    0 -0.38787429186E+03  0.19529088275E+03  0.49883185191E+02  0.43711935136E+03  0.00000000000E+00 0.  1.
        -13    1    3    3    0    0 -0.37926239755E+02  0.56965414604E+02 -0.30495827411E+01  0.68503708497E+02  0.00000000000E+00 0. -1.
          4    1    6    6  502    0  0.51816396864E+02 -0.52010191445E+02  0.45282066267E+02  0.86258127290E+02  0.00000000000E+00 0. -1.
          1    1    5    5  503    0  0.24942454148E+02  0.13799772471E+02 -0.25413826158E+02  0.38189295609E+02  0.00000000000E+00 0. -1.
         -2    1    5    5    0  503  0.53876045811E+02  0.17347250579E+03 -0.41516515642E+03  0.45316381771E+03  0.00000000000E+00 0.  1.
         -3    1    6    6    0  502  0.29516563479E+03 -0.38751838416E+03  0.90177167204E+02  0.49540404874E+03  0.00000000000E+00 0.  1.
<mgrwt>
<rscale>  0 0.15573655E+04</rscale>
<asrwt>0</asrwt>
<pdfrwt beam="1">  1        1 0.10156555E+00 0.15573655E+04</pdfrwt>
<pdfrwt beam="2">  1       -1 0.14130188E+00 0.15573655E+04</pdfrwt>
<totfact> 0.11724527E+01</totfact>
</mgrwt>
</event>
<event>
12    1  0.1489233E-007  0.1756088E+04  0.7818608E-02  0.8730006E-01
         -2   -1    0    0    0  501 -0.00000000000E+00  0.00000000000E+00  0.47404516482E+03  0.47404516482E+03  0.00000000000E+00 0.  1.
          2   -1    0    0  501    0  0.00000000000E+00 -0.00000000000E+00 -0.16263459717E+04  0.16263459717E+04  0.00000000000E+00 0. -1.
         23    2    1    2    0    0 -0.11767316475E+03  0.43279099014E+03 -0.95444371815E+03  0.10581945028E+04  0.87508741015E+02 0.  0.
        254    2    1    2    0    0  0.11767316475E+03 -0.43279099014E+03 -0.19785708877E+03  0.10421966338E+04  0.91971266221E+03 0.  0.
        -24    2    4    4    0    0 -0.17299981129E+03 -0.17507362141E+03  0.30624052434E+03  0.40097861038E+03  0.80130391341E+02 0.  0.
         24    2    4    4    0    0  0.29067297603E+03 -0.25771736874E+03 -0.50409761311E+03  0.64121802339E+03  0.78339829190E+02 0.  0.
         13    1    3    3    0    0 -0.12070625045E+03  0.31353468354E+03 -0.74278486927E+03  0.81523208885E+03  0.00000000000E+00 0. -1.
        -13    1    3    3    0    0  0.30330857031E+01  0.11925630660E+03 -0.21165884889E+03  0.24296241393E+03  0.00000000000E+00 0.  1.
          4    1    6    6  502    0  0.64715672155E+02 -0.19213930079E+02 -0.77737833397E+02  0.10295855512E+03  0.00000000000E+00 0. -1.
          3    1    5    5  503    0 -0.76207424088E+02 -0.98873710760E+02  0.96686717607E+02  0.15789839621E+03  0.00000000000E+00 0. -1.
         -4    1    5    5    0  503 -0.96792387200E+02 -0.76199910645E+02  0.20955380673E+03  0.24308021416E+03  0.00000000000E+00 0.  1.
         -3    1    6    6    0  502  0.22595730388E+03 -0.23850343866E+03 -0.42635977971E+03  0.53825946827E+03  0.00000000000E+00 0.  1.
<mgrwt>
<rscale>  0 0.17560882E+04</rscale>
<asrwt>0</asrwt>
<pdfrwt beam="1">  1        2 0.25020708E+00 0.17560882E+04</pdfrwt>
<pdfrwt beam="2">  1       -2 0.72930024E-01 0.17560882E+04</pdfrwt>
<totfact> 0.17347607E+01</totfact>
</mgrwt>
</event>
<event>
12    1  0.1489233E-007  0.1581174E+04  0.7818608E-02  0.8832198E-01
         -1   -1    0    0    0  501 -0.00000000000E+00  0.00000000000E+00  0.42900958167E+03  0.42900958167E+03  0.00000000000E+00 0.  1.
          1   -1    0    0  501    0  0.00000000000E+00 -0.00000000000E+00 -0.14569087020E+04  0.14569087020E+04  0.00000000000E+00 0. -1.
         23    2    1    2    0    0 -0.47966406588E+03 -0.53295365195E+01 -0.63095035327E+03  0.79795523675E+03  0.92348207958E+02 0.  0.
        254    2    1    2    0    0  0.47966406588E+03  0.53295365195E+01 -0.39694876705E+03  0.10879630469E+04  0.89218229511E+03 0.  0.
        -24    2    4    4    0    0  0.16160320917E+03 -0.13388906276E+03 -0.62521818703E+03  0.66435885728E+03  0.80206181271E+02 0.  0.
         24    2    4    4    0    0  0.31806085671E+03  0.13921859928E+03  0.22826941999E+03  0.42360418961E+03  0.82395718353E+02 0.  0.
         11    1    3    3    0    0 -0.12109091457E+03 -0.26020299769E+02 -0.11300134409E+03  0.16765849026E+03  0.00000000000E+00 0.  1.
        -11    1    3    3    0    0 -0.35857315131E+03  0.20690763249E+02 -0.51794900918E+03  0.63029674649E+03  0.00000000000E+00 0. -1.
          4    1    6    6  502    0  0.26644529617E+03  0.82788354260E+02  0.19383441316E+03  0.33973340604E+03  0.00000000000E+00 0. -1.
          3    1    5    5  503    0  0.16606059416E+03 -0.13442829283E+03 -0.56618174361E+03  0.60515192609E+03  0.00000000000E+00 0. -1.
         -4    1    5    5    0  503 -0.44573849915E+01  0.53923007088E+00 -0.59036443419E+02  0.59206931196E+02  0.00000000000E+00 0.  1.
         -3    1    6    6    0  502  0.51615560534E+02  0.56430245020E+02  0.34435006824E+02  0.83870783574E+02  0.00000000000E+00 0.  1.
<mgrwt>
<rscale>  0 0.15811740E+04</rscale>
<asrwt>0</asrwt>
<pdfrwt beam="1">  1        1 0.22413980E+00 0.15811740E+04</pdfrwt>
<pdfrwt beam="2">  1       -1 0.66001474E-01 0.15811740E+04</pdfrwt>
<totfact> 0.15670883E+01</totfact>
</mgrwt>
</event>
<event>
12    1  0.1489233E-007  0.1222430E+04  0.7818608E-02  0.9093447E-01
          4   -1    0    0  501    0  0.00000000000E+00  0.00000000000E+00  0.25162345741E+03  0.25162345741E+03  0.00000000000E+00 0. -1.
         -4   -1    0    0    0  501 -0.00000000000E+00 -0.00000000000E+00 -0.14846935667E+04  0.14846935667E+04  0.00000000000E+00 0.  1.
         23    2    1    2    0    0 -0.62130072630E+02 -0.95295332414E+02 -0.60119355208E+03  0.61870976990E+03  0.91797309312E+02 0.  0.
        254    2    1    2    0    0  0.62130072630E+02  0.95295332414E+02 -0.63187655723E+03  0.11176072542E+04  0.91478775945E+03 0.  0.
        -24    2    4    4    0    0 -0.16090081947E+03  0.39442514781E+03 -0.70664469232E+02  0.43911349865E+03  0.79793023216E+02 0.  0.
         24    2    4    4    0    0  0.22303089210E+03 -0.29912981540E+03 -0.56121208800E+03  0.67849375558E+03  0.78570626565E+02 0.  0.
         13    1    3    3    0    0 -0.55420581235E+02 -0.85186347018E+02 -0.59742175612E+03  0.60600405051E+03  0.00000000000E+00 0.  1.
        -13    1    3    3    0    0 -0.67094913947E+01 -0.10108985396E+02 -0.37717959617E+01  0.12705719392E+02  0.00000000000E+00 0. -1.
          4    1    6    6  502    0  0.11357639700E+03 -0.11016851942E+03 -0.18443429926E+03  0.24300763645E+03  0.00000000000E+00 0. -1.
          1    1    5    5  503    0 -0.81566104261E+01  0.16508815509E-01 -0.82127751016E+01  0.11574983415E+02  0.00000000000E+00 0. -1.
         -2    1    5    5    0  503 -0.15274420904E+03  0.39440863900E+03 -0.62451694130E+02  0.42753851524E+03  0.00000000000E+00 0.  1.
         -3    1    6    6    0  502  0.10945449510E+03 -0.18896129598E+03 -0.37677778874E+03  0.43548611914E+03  0.00000000000E+00 0.  1.
<mgrwt>
<rscale>  0 0.12224299E+04</rscale>
<asrwt>0</asrwt>
<pdfrwt beam="1">  1        4 0.38711300E-01 0.12224299E+04</pdfrwt>
<pdfrwt beam="2">  1       -4 0.22841440E+00 0.12224299E+04</pdfrwt>
<totfact> 0.11086983E+00</totfact>
</mgrwt>
</event>
<event>
12    1  0.1489233E-007  0.1551134E+04  0.7818608E-02  0.8851144E-01
         -2   -1    0    0    0  501 -0.00000000000E+00  0.00000000000E+00  0.34787205636E+03  0.34787205636E+03  0.00000000000E+00 0.  1.
          2   -1    0    0  501    0  0.00000000000E+00 -0.00000000000E+00 -0.17290959021E+04  0.17290959021E+04  0.00000000000E+00 0. -1.
         23    2    1    2    0    0 -0.82863332139E+02 -0.35617642112E+03  0.13009332952E+02  0.37688689594E+03  0.90258045693E+02 0.  0.
        254    2    1    2    0    0  0.82863332139E+02  0.35617642112E+03 -0.13942331787E+04  0.17000810626E+04  0.90147739174E+03 0.  0.
        -24    2    4    4    0    0 -0.74303376840E+02  0.34155633157E+03 -0.71250750340E+02  0.36536752587E+03  0.78962270044E+02 0.  0.
         24    2    4    4    0    0  0.15716670898E+03  0.14620089548E+02 -0.13229824284E+04  0.13347135367E+04  0.79136576587E+02 0.  0.
         11    1    3    3    0    0 -0.89142292427E+02 -0.35198886113E+03  0.23616807996E+02  0.36386846563E+03  0.00000000000E+00 0.  1.
        -11    1    3    3    0    0  0.62789602878E+01 -0.41875599898E+01 -0.10607475044E+02  0.13018430312E+02  0.00000000000E+00 0. -1.
          2    1    6    6  502    0 -0.67778318228E+01  0.68364530457E+01 -0.14938038986E+03  0.14969027012E+03  0.00000000000E+00 0. -1.
          3    1    5    5  503    0 -0.34331151829E+02  0.34965200748E+02 -0.13582968839E+02  0.50849683300E+02  0.00000000000E+00 0. -1.
         -4    1    5    5    0  503 -0.39972225011E+02  0.30659113082E+03 -0.57667781502E+02  0.31451784257E+03  0.00000000000E+00 0.  1.
         -1    1    6    6    0  502  0.16394454080E+03  0.77836365027E+01 -0.11736020385E+04  0.11850232666E+04  0.00000000000E+00 0.  1.
<mgrwt>
<rscale>  0 0.15511340E+04</rscale>
<asrwt>0</asrwt>
<pdfrwt beam="1">  1        2 0.26601476E+00 0.15511340E+04</pdfrwt>
<pdfrwt beam="2">  1       -2 0.53518777E-01 0.15511340E+04</pdfrwt>
<totfact> 0.29917503E+01</totfact>
</mgrwt>
</event>
<event>
12    1  0.1489233E-007  0.1661160E+04  0.7818608E-02  0.8783831E-01
          2   -1    0    0  501    0  0.00000000000E+00  0.00000000000E+00  0.95590927058E+03  0.95590927058E+03  0.00000000000E+00 0. -1.
         -2   -1    0    0    0  501 -0.00000000000E+00 -0.00000000000E+00 -0.72168295180E+03  0.72168295180E+03  0.00000000000E+00 0.  1.
         23    2    1    2    0    0 -0.54674103281E+02  0.32910910728E+03 -0.40097484625E+03  0.52940833489E+03  0.90500252265E+02 0.  0.
        254    2    1    2    0    0  0.54674103281E+02 -0.32910910728E+03  0.63520116503E+03  0.11481838875E+04  0.89640596684E+03 0.  0.
        -24    2    4    4    0    0 -0.11476096833E+03 -0.21291014654E+03 -0.17409143902E+03  0.30940951377E+03  0.83220236224E+02 0.  0.
         24    2    4    4    0    0  0.16943507161E+03 -0.11619896074E+03  0.80929260405E+03  0.83877437373E+03  0.79859182800E+02 0.  0.
         11    1    3    3    0    0 -0.33182462088E+01  0.25338639159E+03 -0.27854837691E+03  0.37656987729E+03  0.00000000000E+00 0.  1.
        -11    1    3    3    0    0 -0.51355857072E+02  0.75722715692E+02 -0.12242646934E+03  0.15283845760E+03  0.00000000000E+00 0. -1.
          4    1    6    6  502    0  0.39462282095E+02 -0.65033588188E+02  0.37261549396E+03  0.38030112495E+03  0.00000000000E+00 0. -1.
          3    1    5    5  503    0  0.15465052066E+01 -0.29405000793E+02 -0.53136545477E+02  0.60749800125E+02  0.00000000000E+00 0. -1.
         -2    1    5    5    0  503 -0.11630747354E+03 -0.18350514575E+03 -0.12095489355E+03  0.24865971365E+03  0.00000000000E+00 0.  1.
         -3    1    6    6    0  502  0.12997278952E+03 -0.51165372550E+02  0.43667711009E+03  0.45847324878E+03  0.00000000000E+00 0.  1.
<mgrwt>
<rscale>  0 0.16611603E+04</rscale>
<asrwt>0</asrwt>
<pdfrwt beam="1">  1        2 0.14706297E+00 0.16611603E+04</pdfrwt>
<pdfrwt beam="2">  1       -2 0.11102815E+00 0.16611603E+04</pdfrwt>
<totfact> 0.16498638E+01</totfact>
</mgrwt>
</event>
<event>
12    1  0.1489233E-007  0.1162757E+04  0.7818608E-02  0.9146095E-01
         -1   -1    0    0    0  501 -0.00000000000E+00  0.00000000000E+00  0.25687167938E+03  0.25687167938E+03  0.00000000000E+00 0.  1.
          1   -1    0    0  501    0  0.00000000000E+00 -0.00000000000E+00 -0.13158354430E+04  0.13158354430E+04  0.00000000000E+00 0. -1.
         23    2    1    2    0    0 -0.11496069534E+03 -0.17602648636E+03 -0.30991105081E+03  0.38548462201E+03  0.91390639665E+02 0.  0.
        254    2    1    2    0    0  0.11496069534E+03  0.17602648636E+03 -0.74905271283E+03  0.11872225004E+04  0.89678091719E+03 0.  0.
        -24    2    4    4    0    0  0.38519836455E+03 -0.19623773849E+03 -0.46299550684E+03  0.63926937009E+03  0.86101440920E+02 0.  0.
         24    2    4    4    0    0 -0.27023766921E+03  0.37226422485E+03 -0.28605720599E+03  0.54795313028E+03  0.82552146730E+02 0.  0.
         13    1    3    3    0    0 -0.11335252155E+03 -0.16033878976E+03 -0.31292319133E+03  0.36942962160E+03  0.00000000000E+00 0. -1.
        -13    1    3    3    0    0 -0.16081737908E+01 -0.15687696604E+02  0.30121405202E+01  0.16055000411E+02  0.00000000000E+00 0.  1.
          4    1    6    6  502    0 -0.33420028540E+02  0.10299698742E+03 -0.77034036709E+02  0.13288912874E+03  0.00000000000E+00 0. -1.
          1    1    5    5  503    0  0.11470959222E+03 -0.33003908068E+02 -0.17463303955E+03  0.21152835980E+03  0.00000000000E+00 0. -1.
         -2    1    5    5    0  503  0.27048877233E+03 -0.16323383042E+03 -0.28836246728E+03  0.42774101030E+03  0.00000000000E+00 0.  1.
         -3    1    6    6    0  502 -0.23681764067E+03  0.26926723743E+03 -0.20902316928E+03  0.41506400155E+03  0.00000000000E+00 0.  1.
<mgrwt>
<rscale>  0 0.11627568E+04</rscale>
<asrwt>0</asrwt>
<pdfrwt beam="1">  1        1 0.20243622E+00 0.11627568E+04</pdfrwt>
<pdfrwt beam="2">  1       -1 0.39518721E-01 0.11627568E+04</pdfrwt>
<totfact> 0.54432811E+01</totfact>
</mgrwt>
</event>
<event>
12    1  0.1489233E-007  0.1107253E+04  0.7818608E-02  0.9198151E-01
          2   -1    0    0  501    0  0.00000000000E+00  0.00000000000E+00  0.41884551935E+03  0.41884551935E+03  0.00000000000E+00 0.  1.
         -2   -1    0    0    0  501 -0.00000000000E+00 -0.00000000000E+00 -0.73177904980E+03  0.73177904980E+03  0.00000000000E+00 0. -1.
         23    2    1    2    0    0  0.94168016342E+01 -0.11390720209E+03 -0.13412886081E+03  0.19755169254E+03  0.89289378337E+02 0.  0.
        254    2    1    2    0    0 -0.94168016342E+01  0.11390720209E+03 -0.17880466965E+03  0.95307287661E+03  0.92914652849E+03 0.  0.
        -24    2    4    4    0    0  0.42366756704E+03  0.21786636178E+03 -0.69526151462E+02  0.48779813408E+03  0.78442175594E+02 0.  0.
         24    2    4    4    0    0 -0.43308436868E+03 -0.10395915969E+03 -0.10927851819E+03  0.46527474253E+03  0.78544345577E+02 0.  0.
         13    1    3    3    0    0 -0.11089060719E+02 -0.90126311146E+02 -0.41678310123E+02  0.99913966807E+02  0.00000000000E+00 0.  1.
        -13    1    3    3    0    0  0.20505862353E+02 -0.23780890944E+02 -0.92450550683E+02  0.97637725734E+02  0.00000000000E+00 0. -1.
          2    1    6    6  502    0 -0.23481485285E+00  0.55879522363E+01  0.28564327787E-01  0.55929566538E+01  0.00000000000E+00 0. -1.
          1    1    5    5  503    0  0.75753677149E+02  0.52238014808E+02  0.15201964518E+02  0.93265907587E+02  0.00000000000E+00 0. -1.
         -2    1    5    5    0  503  0.34791388990E+03  0.16562834697E+03 -0.84728115980E+02  0.39453222649E+03  0.00000000000E+00 0.  1.
         -1    1    6    6    0  502 -0.43284955383E+03 -0.10954711193E+03 -0.10930708252E+03  0.45968178588E+03  0.00000000000E+00 0.  1.
<mgrwt>
<rscale>  0 0.11072531E+04</rscale>
<asrwt>0</asrwt>
<pdfrwt beam="1">  1        2 0.64437773E-01 0.11072531E+04</pdfrwt>
<pdfrwt beam="2">  1       -2 0.11258139E+00 0.11072531E+04</pdfrwt>
<totfact> 0.46513019E+01</totfact>
</mgrwt>
</event>
<event>
12    1  0.1489233E-007  0.1370480E+04  0.7818608E-02  0.8975468E-01
         -2   -1    0    0    0  501 -0.00000000000E+00  0.00000000000E+00  0.15805953517E+04  0.15805953517E+04  0.00000000000E+00 0.  1.
          2   -1    0    0  501    0  0.00000000000E+00 -0.00000000000E+00 -0.29707387558E+03  0.29707387558E+03  0.00000000000E+00 0. -1.
         23    2    1    2    0    0  0.16295991522E+03 -0.70121002563E+02 -0.81608454152E+02  0.21537043226E+03  0.90838286703E+02 0.  0.
        254    2    1    2    0    0 -0.16295991522E+03  0.70121002563E+02  0.13651299302E+04  0.16622987950E+04  0.93176427730E+03 0.  0.
        -24    2    4    4    0    0 -0.14103183833E+03 -0.77357464469E+02  0.14578615834E+04  0.14689699008E+04  0.81474022440E+02 0.  0.
         24    2    4    4    0    0 -0.21928076893E+02  0.14747846703E+03 -0.92731653194E+02  0.19332889418E+03  0.80908361913E+02 0.  0.
         13    1    3    3    0    0  0.93617208101E+02 -0.84974171017E+02 -0.37576631019E+02  0.13189690895E+03  0.00000000000E+00 0. -1.
        -13    1    3    3    0    0  0.69342707122E+02  0.14853168454E+02 -0.44031823133E+02  0.83473523302E+02  0.00000000000E+00 0.  1.
          2    1    6    6  502    0 -0.69995178336E+01 -0.93334404616E+01 -0.10199924604E+02  0.15496606812E+02  0.00000000000E+00 0. -1.
          3    1    5    5  503    0 -0.30402592115E+01  0.13671449314E+02  0.78733744590E+02  0.79969708262E+02  0.00000000000E+00 0. -1.
         -4    1    5    5    0  503 -0.13799157912E+03 -0.91028913783E+02  0.13791278388E+04  0.13890001925E+04  0.00000000000E+00 0.  1.
         -1    1    6    6    0  502 -0.14928559060E+02  0.15681190749E+03 -0.82531728589E+02  0.17783228737E+03  0.00000000000E+00 0.  1.
<mgrwt>
<rscale>  0 0.13704796E+04</rscale>
<asrwt>0</asrwt>
<pdfrwt beam="1">  1        2 0.45703674E-01 0.13704796E+04</pdfrwt>
<pdfrwt beam="2">  1       -2 0.24316851E+00 0.13704796E+04</pdfrwt>
<totfact> 0.76724421E+00</totfact>
</mgrwt>
</event>
<event>
12    1  0.1489233E-007  0.2824347E+04  0.7818608E-02  0.8295749E-01
          2   -1    0    0  501    0  0.00000000000E+00  0.00000000000E+00  0.15038325172E+04  0.15038325172E+04  0.00000000000E+00 0. -1.
         -2   -1    0    0    0  501 -0.00000000000E+00 -0.00000000000E+00 -0.13261013100E+04  0.13261013100E+04  0.00000000000E+00 0.  1.
         23    2    1    2    0    0  0.69910937872E+03 -0.10194193590E+04 -0.21261041717E+03  0.12576412424E+04  0.92133338432E+02 0.  0.
        254    2    1    2    0    0 -0.69910937872E+03  0.10194193590E+04  0.39034162438E+03  0.15722925849E+04  0.88981325888E+03 0.  0.
        -24    2    4    4    0    0 -0.12615623423E+03  0.33345332088E+03 -0.27486879548E+03  0.45579075961E+03  0.71315139887E+02 0.  0.
         24    2    4    4    0    0 -0.57295314449E+03  0.68596603815E+03  0.66521041986E+03  0.11165018252E+04  0.72434189430E+02 0.  0.
         11    1    3    3    0    0  0.15857617116E+03 -0.24249113312E+03 -0.11025864017E+02  0.28994813567E+03  0.00000000000E+00 0. -1.
        -11    1    3    3    0    0  0.54053320756E+03 -0.77692822591E+03 -0.20158455315E+03  0.96769310670E+03  0.00000000000E+00 0.  1.
          2    1    6    6  502    0 -0.16348433323E+03  0.24617730931E+03  0.23259604674E+03  0.37607355104E+03  0.00000000000E+00 0. -1.
          3    1    5    5  503    0 -0.29412931771E+02  0.20339844903E+02 -0.23863687033E+02  0.42991922554E+02  0.00000000000E+00 0. -1.
         -4    1    5    5    0  503 -0.96743302455E+02  0.31311347598E+03 -0.25100510845E+03  0.41279883706E+03  0.00000000000E+00 0.  1.
         -1    1    6    6    0  502 -0.40946881126E+03  0.43978872884E+03  0.43261437312E+03  0.74042827420E+03  0.00000000000E+00 0.  1.
<mgrwt>
<rscale>  0 0.28243472E+04</rscale>
<asrwt>0</asrwt>
<pdfrwt beam="1">  1        2 0.23135885E+00 0.28243472E+04</pdfrwt>
<pdfrwt beam="2">  1       -2 0.20401559E+00 0.28243472E+04</pdfrwt>
<totfact> 0.13733488E+00</totfact>
</mgrwt>
</event>
<event>
12    1  0.1489233E-007  0.1364052E+04  0.7818608E-02  0.8980259E-01
         -2   -1    0    0    0  501 -0.00000000000E+00  0.00000000000E+00  0.15389626266E+03  0.15389626266E+03  0.00000000000E+00 0.  1.
          2   -1    0    0  501    0  0.00000000000E+00 -0.00000000000E+00 -0.30225505611E+04  0.30225505611E+04  0.00000000000E+00 0. -1.
         23    2    1    2    0    0 -0.28793367541E+03 -0.72056587193E+02 -0.13238751034E+04  0.13597804198E+04  0.90882052184E+02 0.  0.
        254    2    1    2    0    0  0.28793367541E+03  0.72056587193E+02 -0.15447791950E+04  0.18166664040E+04  0.90875525241E+03 0.  0.
        -24    2    4    4    0    0  0.99380283030E+02 -0.41010477292E+03 -0.76303579033E+03  0.87559708624E+03  0.79901656332E+02 0.  0.
         24    2    4    4    0    0  0.18855339238E+03  0.48216136012E+03 -0.78174340469E+03  0.94106931774E+03  0.80353911141E+02 0.  0.
         13    1    3    3    0    0 -0.16728543801E+03 -0.60832738009E+02 -0.95700018161E+03  0.97341378015E+03  0.00000000000E+00 0. -1.
        -13    1    3    3    0    0 -0.12064823739E+03 -0.11223849184E+02 -0.36687492182E+03  0.38636663965E+03  0.00000000000E+00 0.  1.
          2    1    6    6  502    0  0.88787370242E+02  0.32990682542E+03 -0.52351145373E+03  0.62512874895E+03  0.00000000000E+00 0. -1.
          3    1    5    5  503    0  0.10409393409E+03 -0.40220365316E+03 -0.75957020119E+03  0.86576568207E+03  0.00000000000E+00 0. -1.
         -4    1    5    5    0  503 -0.47136510584E+01 -0.79011197653E+01 -0.34655891453E+01  0.98314041708E+01  0.00000000000E+00 0.  1.
         -1    1    6    6    0  502  0.99766022135E+02  0.15225453469E+03 -0.25823195097E+03  0.31594056879E+03  0.00000000000E+00 0.  1.
<mgrwt>
<rscale>  0 0.13640517E+04</rscale>
<asrwt>0</asrwt>
<pdfrwt beam="1">  1        2 0.46500775E+00 0.13640517E+04</pdfrwt>
<pdfrwt beam="2">  1       -2 0.23676350E-01 0.13640517E+04</pdfrwt>
<totfact> 0.26298466E+01</totfact>
</mgrwt>
</event>
<event>
12    1  0.1489233E-007  0.1073702E+04  0.7818608E-02  0.9231210E-01
         -1   -1    0    0    0  501 -0.00000000000E+00  0.00000000000E+00  0.29508145318E+03  0.29508145318E+03  0.00000000000E+00 0.  1.
          1   -1    0    0  501    0  0.00000000000E+00 -0.00000000000E+00 -0.97671007985E+03  0.97671007985E+03  0.00000000000E+00 0. -1.
         23    2    1    2    0    0 -0.51221960511E+01  0.82473769027E+02 -0.21846461163E+03  0.25140616907E+03  0.93005998956E+02 0.  0.
        254    2    1    2    0    0  0.51221960511E+01 -0.82473769027E+02 -0.46316401505E+03  0.10203853640E+04  0.90544863282E+03 0.  0.
        -24    2    4    4    0    0 -0.39026074450E+03 -0.34413679115E+02  0.65648121583E+01  0.39936632699E+03  0.77217979607E+02 0.  0.
         24    2    4    4    0    0  0.39538294055E+03 -0.48060089912E+02 -0.46972882721E+03  0.62101903697E+03  0.79887616349E+02 0.  0.
         11    1    3    3    0    0  0.31928249042E+02  0.80626608682E+02 -0.14131210973E+03  0.16579859912E+03  0.00000000000E+00 0. -1.
        -11    1    3    3    0    0 -0.37050445093E+02  0.18471603450E+01 -0.77152501902E+02  0.85607569950E+02  0.00000000000E+00 0.  1.
          2    1    6    6  502    0  0.30051636613E+03 -0.26190194136E+02 -0.30052518348E+03  0.42580676191E+03  0.00000000000E+00 0. -1.
          3    1    5    5  503    0 -0.30248496281E+03 -0.44402275405E+02 -0.22009591927E+02  0.30651775956E+03  0.00000000000E+00 0. -1.
         -4    1    5    5    0  503 -0.87775781681E+02  0.99885962903E+01  0.28574404086E+02  0.92848567434E+02  0.00000000000E+00 0.  1.
         -1    1    6    6    0  502  0.94866574420E+02 -0.21869895776E+02 -0.16920364373E+03  0.19521227506E+03  0.00000000000E+00 0.  1.
<mgrwt>
<rscale>  0 0.10737021E+04</rscale>
<asrwt>0</asrwt>
<pdfrwt beam="1">  1        1 0.15026309E+00 0.10737021E+04</pdfrwt>
<pdfrwt beam="2">  1       -1 0.45397148E-01 0.10737021E+04</pdfrwt>
<totfact> 0.75852217E+01</totfact>
</mgrwt>
</event>
<event>
12    1  0.1489233E-007  0.2098192E+04  0.7818608E-02  0.8562040E-01
         -1   -1    0    0    0  501 -0.00000000000E+00  0.00000000000E+00  0.11265093083E+04  0.11265093083E+04  0.00000000000E+00 0.  1.
          1   -1    0    0  501    0  0.00000000000E+00 -0.00000000000E+00 -0.97700292880E+03  0.97700292880E+03  0.00000000000E+00 0. -1.
         23    2    1    2    0    0  0.12917260316E+03 -0.33951481192E+02 -0.78760493650E+03  0.80352853602E+03  0.86592769364E+02 0.  0.
        254    2    1    2    0    0 -0.12917260316E+03  0.33951481192E+02  0.93711131599E+03  0.12999837011E+04  0.89103408466E+03 0.  0.
        -24    2    4    4    0    0 -0.35266831066E+03  0.33720258186E+03  0.38368735860E+03  0.62582229412E+03  0.79731023478E+02 0.  0.
         24    2    4    4    0    0  0.22349570751E+03 -0.30325110067E+03  0.55342395739E+03  0.67416140696E+03  0.79397510602E+02 0.  0.
         13    1    3    3    0    0  0.65251270367E+02 -0.36438933957E+02 -0.61365181006E+03  0.61818611128E+03  0.00000000000E+00 0. -1.
        -13    1    3    3    0    0  0.63921332788E+02  0.24874527650E+01 -0.17395312644E+03  0.18534242473E+03  0.00000000000E+00 0.  1.
          2    1    6    6  502    0  0.21048515158E+03 -0.24854850655E+03  0.43856723584E+03  0.54627976303E+03  0.00000000000E+00 0. -1.
          3    1    5    5  503    0 -0.33071280895E+03  0.33690372054E+03  0.36150148076E+03  0.59460776947E+03  0.00000000000E+00 0. -1.
         -4    1    5    5    0  503 -0.21955501710E+02  0.29886131729E+00  0.22185877845E+02  0.31214524650E+02  0.00000000000E+00 0.  1.
         -1    1    6    6    0  502  0.13010555923E+02 -0.54702594120E+02  0.11485672154E+03  0.12788164392E+03  0.00000000000E+00 0.  1.
<mgrwt>
<rscale>  0 0.20981925E+04</rscale>
<asrwt>0</asrwt>
<pdfrwt beam="1">  1        1 0.15030814E+00 0.20981925E+04</pdfrwt>
<pdfrwt beam="2">  1       -1 0.17330912E+00 0.20981925E+04</pdfrwt>
<totfact> 0.33765769E+00</totfact>
</mgrwt>
</event>
<event>
12    1  0.1489233E-007  0.2442051E+04  0.7818608E-02  0.8423926E-01
         -2   -1    0    0    0  501 -0.00000000000E+00  0.00000000000E+00  0.18775808113E+04  0.18775808113E+04  0.00000000000E+00 0.  1.
          2   -1    0    0  501    0  0.00000000000E+00 -0.00000000000E+00 -0.79405540705E+03  0.79405540705E+03  0.00000000000E+00 0. -1.
         23    2    1    2    0    0  0.90483768599E+03 -0.55068019663E+03  0.42752092837E+03  0.11461587966E+04  0.94477117876E+02 0.  0.
        254    2    1    2    0    0 -0.90483768599E+03  0.55068019663E+03  0.65600447589E+03  0.15254774218E+04  0.88020428033E+03 0.  0.
        -24    2    4    4    0    0 -0.87283158515E+03  0.74671910150E+03  0.62036316312E+03  0.13079392046E+04  0.80188004889E+02 0.  0.
         24    2    4    4    0    0 -0.32006100839E+02 -0.19603890487E+03  0.35641312773E+02  0.21753821724E+03  0.81221487720E+02 0.  0.
         11    1    3    3    0    0  0.87548428814E+03 -0.53775690980E+03  0.39580385721E+03  0.11010521905E+04  0.00000000000E+00 0. -1.
        -11    1    3    3    0    0  0.29353397845E+02 -0.12923286827E+02  0.31717071161E+02  0.45106606063E+02  0.00000000000E+00 0.  1.
          2    1    6    6  502    0 -0.58573084111E+02 -0.14418948811E+03  0.33740618553E+02  0.15924774411E+03  0.00000000000E+00 0. -1.
          3    1    5    5  503    0 -0.83134895294E+03  0.68600534988E+03  0.57686462735E+03  0.12225044867E+04  0.00000000000E+00 0. -1.
         -4    1    5    5    0  503 -0.41482632204E+02  0.60713751617E+02  0.43498535774E+02  0.85434717911E+02  0.00000000000E+00 0.  1.
         -1    1    6    6    0  502  0.26566983272E+02 -0.51849416767E+02  0.19006942194E+01  0.58290473130E+02  0.00000000000E+00 0.  1.
<mgrwt>
<rscale>  0 0.24420509E+04</rscale>
<asrwt>0</asrwt>
<pdfrwt beam="1">  1        2 0.12216237E+00 0.24420509E+04</pdfrwt>
<pdfrwt beam="2">  1       -2 0.28885858E+00 0.24420509E+04</pdfrwt>
<totfact> 0.11593533E+00</totfact>
</mgrwt>
</event>
<event>
12    1  0.1694823E-007  0.3320156E+04  0.7818608E-02  0.8157786E-01
         -2   -1    0    0    0  501 -0.00000000000E+00  0.00000000000E+00  0.81743893474E+03  0.81743893474E+03  0.00000000000E+00 0.  1.
          2   -1    0    0  501    0  0.00000000000E+00 -0.00000000000E+00 -0.33713334460E+04  0.33713334460E+04  0.00000000000E+00 0. -1.
         23    2    1    2    0    0  0.97394883852E+03 -0.65834138333E+02  0.31360450809E+03  0.10292571989E+04  0.90067309618E+02 0.  0.
        254    2    1    2    0    0 -0.97394883852E+03  0.65834138333E+02 -0.28674990194E+04  0.31595151818E+04  0.89837357718E+03 0.  0.
        -24    2    4    4    0    0 -0.43808146226E+03 -0.36113137167E+03 -0.17941176742E+04  0.18835187981E+04  0.80334293084E+02 0.  0.
         24    2    4    4    0    0 -0.53586737627E+03  0.42696551001E+03 -0.10733813452E+04  0.12759963837E+04  0.81030040496E+02 0.  0.
         11    1    3    3    0    0  0.31736739457E+03 -0.36632001334E+02  0.61539653653E+02  0.32534765349E+03  0.00000000000E+00 0. -1.
        -11    1    3    3    0    0  0.65658144395E+03 -0.29202136999E+02  0.25206485444E+03  0.70390954546E+03  0.00000000000E+00 0.  1.
          2    1    6    6  502    0 -0.23070206030E+02  0.36040234956E+01 -0.22718703677E+02  0.32578564861E+02  0.00000000000E+00 0. -1.
          1    1    5    5  503    0 -0.36599694847E+01  0.35895498620E+01 -0.30520797592E+02  0.30948333242E+02  0.00000000000E+00 0. -1.
         -2    1    5    5    0  503 -0.43442149277E+03 -0.36472092154E+03 -0.17635968766E+04  0.18525704649E+04  0.00000000000E+00 0.  1.
         -1    1    6    6    0  502 -0.51279717024E+03  0.42336148651E+03 -0.10506626415E+04  0.12434178189E+04  0.00000000000E+00 0.  1.
<mgrwt>
<rscale>  0 0.33201562E+04</rscale>
<asrwt>0</asrwt>
<pdfrwt beam="1">  1        2 0.51866669E+00 0.33201562E+04</pdfrwt>
<pdfrwt beam="2">  1       -2 0.12575983E+00 0.33201562E+04</pdfrwt>
<totfact> 0.39218872E-01</totfact>
</mgrwt>
</event>
<event>
12    1  0.1489233E-007  0.1480052E+04  0.7818608E-02  0.8897827E-01
          1   -1    0    0  501    0  0.00000000000E+00  0.00000000000E+00  0.14273065262E+04  0.14273065262E+04  0.00000000000E+00 0. -1.
         -1   -1    0    0    0  501 -0.00000000000E+00 -0.00000000000E+00 -0.38368677618E+03  0.38368677618E+03  0.00000000000E+00 0.  1.
         23    2    1    2    0    0 -0.66374195114E+02  0.33596472694E+03  0.69619645846E+03  0.78145506835E+03  0.93298893603E+02 0.  0.
        254    2    1    2    0    0  0.66374195114E+02 -0.33596472694E+03  0.34742329158E+03  0.10295382341E+04  0.90662461930E+03 0.  0.
        -24    2    4    4    0    0  0.97965192071E+02  0.21002234501E+03 -0.15017075745E+03  0.28585332807E+03  0.73853263408E+02 0.  0.
         24    2    4    4    0    0 -0.31590996958E+02 -0.54598707196E+03  0.49759404903E+03  0.74368490598E+03  0.79796791440E+02 0.  0.
         11    1    3    3    0    0 -0.39526673247E+02  0.26749891301E+03  0.61548090750E+03  0.67226094179E+03  0.00000000000E+00 0. -1.
        -11    1    3    3    0    0 -0.26847521867E+02  0.68465813934E+02  0.80715550961E+02  0.10919412656E+03  0.00000000000E+00 0.  1.
          2    1    6    6  502    0  0.11842761331E+01 -0.12604646170E+01  0.15287120573E+02  0.15384646126E+02  0.00000000000E+00 0. -1.
          1    1    5    5  503    0  0.74188291372E+02  0.75738426542E+02 -0.53989695226E+02  0.11897520339E+03  0.00000000000E+00 0. -1.
         -2    1    5    5    0  503  0.23776900699E+02  0.13428391847E+03 -0.96181062226E+02  0.16687812468E+03  0.00000000000E+00 0.  1.
         -1    1    6    6    0  502 -0.32775273091E+02 -0.54472660734E+03  0.48230692846E+03  0.72830025986E+03  0.00000000000E+00 0.  1.
<mgrwt>
<rscale>  0 0.14800522E+04</rscale>
<asrwt>0</asrwt>
<pdfrwt beam="1">  1        1 0.21958562E+00 0.14800522E+04</pdfrwt>
<pdfrwt beam="2">  1       -1 0.59028736E-01 0.14800522E+04</pdfrwt>
<totfact> 0.20718251E+01</totfact>
</mgrwt>
</event>
<event>
12    1  0.1489233E-007  0.1208397E+04  0.7818608E-02  0.9105538E-01
          1   -1    0    0  501    0  0.00000000000E+00  0.00000000000E+00  0.25801373480E+03  0.25801373480E+03  0.00000000000E+00 0. -1.
         -1   -1    0    0    0  501 -0.00000000000E+00 -0.00000000000E+00 -0.14148694711E+04  0.14148694711E+04  0.00000000000E+00 0.  1.
         23    2    1    2    0    0 -0.17030852116E+03  0.16952927403E+03 -0.38936712680E+03  0.46689676645E+03  0.92955171787E+02 0.  0.
        254    2    1    2    0    0  0.17030852116E+03 -0.16952927403E+03 -0.76748860945E+03  0.12059864394E+04  0.89867644859E+03 0.  0.
        -24    2    4    4    0    0 -0.22617022550E+03 -0.33249674048E+03 -0.62521706904E+03  0.74763866451E+03  0.79750460242E+02 0.  0.
         24    2    4    4    0    0  0.39647874666E+03  0.16296746645E+03 -0.14227154041E+03  0.45834777489E+03  0.78023713477E+02 0.  0.
         13    1    3    3    0    0 -0.86727598685E+02  0.11186997641E+03 -0.14677029689E+03  0.20390705737E+03  0.00000000000E+00 0. -1.
        -13    1    3    3    0    0 -0.83580922474E+02  0.57659297624E+02 -0.24259682991E+03  0.26298970909E+03  0.00000000000E+00 0.  1.
          4    1    6    6  502    0  0.52404402494E+01 -0.73317657535E+01 -0.30144679079E+01  0.95028427241E+01  0.00000000000E+00 0. -1.
          1    1    5    5  503    0 -0.86275862546E+02 -0.76315866814E+02 -0.13886099889E+03  0.18041622155E+03  0.00000000000E+00 0. -1.
         -2    1    5    5    0  503 -0.13989436296E+03 -0.25618087367E+03 -0.48635607015E+03  0.56722244296E+03  0.00000000000E+00 0.  1.
         -3    1    6    6    0  502  0.39123830641E+03  0.17029923220E+03 -0.13925707250E+03  0.44884493217E+03  0.00000000000E+00 0.  1.
<mgrwt>
<rscale>  0 0.12083969E+04</rscale>
<asrwt>0</asrwt>
<pdfrwt beam="1">  1        1 0.39694421E-01 0.12083969E+04</pdfrwt>
<pdfrwt beam="2">  1       -1 0.21767223E+00 0.12083969E+04</pdfrwt>
<totfact> 0.12053311E+01</totfact>
</mgrwt>
</event>
<event>
12    1  0.3051740E-007  0.2396085E+04  0.7818608E-02  0.8440971E-01
         -2   -1    0    0    0  501 -0.00000000000E+00  0.00000000000E+00  0.65386052693E+03  0.65386052693E+03  0.00000000000E+00 0.  1.
          2   -1    0    0  501    0  0.00000000000E+00 -0.00000000000E+00 -0.21951261893E+04  0.21951261893E+04  0.00000000000E+00 0. -1.
         23    2    1    2    0    0  0.47376442074E+03 -0.53396341780E+03  0.21577441343E+03  0.75116133269E+03  0.90083807273E+02 0.  0.
        254    2    1    2    0    0 -0.47376442074E+03  0.53396341780E+03 -0.17570400758E+04  0.20978253835E+04  0.89672284122E+03 0.  0.
        -24    2    4    4    0    0  0.15473926872E+03  0.45265153201E+03 -0.55956584021E+03  0.74065354851E+03  0.81339404193E+02 0.  0.
         24    2    4    4    0    0 -0.62850368946E+03  0.81311885782E+02 -0.11974742356E+04  0.13571718350E+04  0.79638774939E+02 0.  0.
         11    1    3    3    0    0  0.37740405274E+01 -0.10554231900E+02  0.16642571007E+02  0.20065152943E+02  0.00000000000E+00 0. -1.
        -11    1    3    3    0    0  0.46999038021E+03 -0.52340918590E+03  0.19913184242E+03  0.73109617975E+03  0.00000000000E+00 0.  1.
          2    1    6    6  502    0 -0.69411544820E+02  0.34946900711E+02 -0.14458745065E+03  0.16414865004E+03  0.00000000000E+00 0. -1.
          3    1    5    5  503    0  0.15924596807E+02  0.30760068632E+02 -0.14508234473E+02  0.37553474849E+02  0.00000000000E+00 0. -1.
         -4    1    5    5    0  503  0.13881467191E+03  0.42189146338E+03 -0.54505760574E+03  0.70310007367E+03  0.00000000000E+00 0.  1.
         -1    1    6    6    0  502 -0.55909214464E+03  0.46364985071E+02 -0.10528867849E+04  0.11930231850E+04  0.00000000000E+00 0.  1.
<mgrwt>
<rscale>  0 0.23960854E+04</rscale>
<asrwt>0</asrwt>
<pdfrwt beam="1">  1        2 0.33771171E+00 0.23960854E+04</pdfrwt>
<pdfrwt beam="2">  1       -2 0.10059393E+00 0.23960854E+04</pdfrwt>
<totfact> 0.38066346E+00</totfact>
</mgrwt>
</event>
<event>
12    1  0.1489233E-007  0.1384023E+04  0.7818608E-02  0.8965466E-01
         -2   -1    0    0    0  501 -0.00000000000E+00  0.00000000000E+00  0.18554631868E+03  0.18554631868E+03  0.00000000000E+00 0.  1.
          2   -1    0    0  501    0  0.00000000000E+00 -0.00000000000E+00 -0.25809170352E+04  0.25809170352E+04  0.00000000000E+00 0. -1.
         23    2    1    2    0    0  0.26191923769E+03 -0.21809610171E+03 -0.11212254516E+04  0.11750315066E+04  0.85935624029E+02 0.  0.
        254    2    1    2    0    0 -0.26191923769E+03  0.21809610171E+03 -0.12741452649E+04  0.15914318473E+04  0.89052881585E+03 0.  0.
        -24    2    4    4    0    0 -0.37938141654E+03 -0.92452961396E+02 -0.16572719317E+03  0.43155331626E+03  0.79340739427E+02 0.  0.
         24    2    4    4    0    0  0.11746217885E+03  0.31054906311E+03 -0.11084180717E+04  0.11598785311E+04  0.80557438836E+02 0.  0.
         13    1    3    3    0    0  0.13824396159E+03 -0.81488944170E+02 -0.40904206724E+03  0.43939418944E+03  0.00000000000E+00 0.  1.
        -13    1    3    3    0    0  0.12367527610E+03 -0.13660715754E+03 -0.71218338438E+03  0.73563731716E+03  0.00000000000E+00 0. -1.
          2    1    6    6  502    0  0.13951294521E+02  0.14695116359E+03 -0.50913295802E+03  0.53009966237E+03  0.00000000000E+00 0. -1.
          1    1    5    5  503    0  0.21371157387E+01 -0.27715037873E+01 -0.86481434318E+01  0.93294631003E+01  0.00000000000E+00 0. -1.
         -2    1    5    5    0  503 -0.38151853228E+03 -0.89681457608E+02 -0.15707904974E+03  0.42222385316E+03  0.00000000000E+00 0.  1.
         -1    1    6    6    0  502  0.10351088433E+03  0.16359789951E+03 -0.59928511373E+03  0.62977886868E+03  0.00000000000E+00 0.  1.
<mgrwt>
<rscale>  0 0.13840226E+04</rscale>
<asrwt>0</asrwt>
<pdfrwt beam="1">  1        2 0.39706415E+00 0.13840226E+04</pdfrwt>
<pdfrwt beam="2">  1       -2 0.28545589E-01 0.13840226E+04</pdfrwt>
<totfact> 0.34383356E+01</totfact>
</mgrwt>
</event>
<event>
12    1  0.1489233E-007  0.1574226E+04  0.7818608E-02  0.8836540E-01
         -2   -1    0    0    0  501 -0.00000000000E+00  0.00000000000E+00  0.43429268139E+03  0.43429268139E+03  0.00000000000E+00 0.  1.
          2   -1    0    0  501    0  0.00000000000E+00 -0.00000000000E+00 -0.14265661430E+04  0.14265661430E+04  0.00000000000E+00 0. -1.
         23    2    1    2    0    0  0.21406273072E+03  0.60765202209E+02 -0.89541069531E+03  0.92702707035E+03  0.90020072245E+02 0.  0.
        254    2    1    2    0    0 -0.21406273072E+03 -0.60765202209E+02 -0.96862766259E+02  0.93383175401E+03  0.90174502318E+03 0.  0.
        -24    2    4    4    0    0  0.12098423917E+03 -0.41249300369E+03 -0.48613937545E+02  0.43920225261E+03  0.75813188517E+02 0.  0.
         24    2    4    4    0    0 -0.33504696989E+03  0.35172780148E+03 -0.48248828715E+02  0.49462950140E+03  0.79758860390E+02 0.  0.
         11    1    3    3    0    0  0.57709775363E+02  0.12042380057E+02 -0.11080082688E+03  0.12550800902E+03  0.00000000000E+00 0.  1.
        -11    1    3    3    0    0  0.15635295535E+03  0.48722822152E+02 -0.78460986842E+03  0.80151906133E+03  0.00000000000E+00 0. -1.
          4    1    6    6  502    0 -0.15495610410E+03  0.11311285054E+03 -0.37558703562E+02  0.19549058128E+03  0.00000000000E+00 0. -1.
          1    1    5    5  503    0  0.88768623261E+02 -0.21187394077E+03 -0.53850533587E+02  0.23594557682E+03  0.00000000000E+00 0. -1.
         -2    1    5    5    0  503  0.32215615912E+02 -0.20061906292E+03  0.52365960422E+01  0.20325667579E+03  0.00000000000E+00 0.  1.
         -3    1    6    6    0  502 -0.18009086579E+03  0.23861495094E+03 -0.10690125152E+02  0.29913892012E+03  0.00000000000E+00 0.  1.
<mgrwt>
<rscale>  0 0.15742265E+04</rscale>
<asrwt>0</asrwt>
<pdfrwt beam="1">  1        2 0.21947172E+00 0.15742265E+04</pdfrwt>
<pdfrwt beam="2">  1       -2 0.66814258E-01 0.15742265E+04</pdfrwt>
<totfact> 0.27617325E+01</totfact>
</mgrwt>
</event>
<event>
12    1  0.1489233E-007  0.1793695E+04  0.7818608E-02  0.8709660E-01
         -2   -1    0    0    0  501 -0.00000000000E+00  0.00000000000E+00  0.12627952144E+04  0.12627952144E+04  0.00000000000E+00 0. -1.
          2   -1    0    0  501    0  0.00000000000E+00 -0.00000000000E+00 -0.63694819829E+03  0.63694819829E+03  0.00000000000E+00 0.  1.
         23    2    1    2    0    0  0.18992501409E+03 -0.17604230464E+03  0.88105272860E+03  0.92283053634E+03  0.91103700457E+02 0.  0.
        254    2    1    2    0    0 -0.18992501409E+03  0.17604230464E+03 -0.25520571244E+03  0.97691287640E+03  0.90673392372E+03 0.  0.
        -24    2    4    4    0    0 -0.25427619375E+03 -0.10269257697E+03 -0.51025355420E+03  0.58492006946E+03  0.81059546050E+02 0.  0.
         24    2    4    4    0    0  0.64351179668E+02  0.27873488161E+03  0.25504784176E+03  0.39199280694E+03  0.82308872873E+02 0.  0.
         13    1    3    3    0    0  0.17378447219E+03 -0.13584685978E+03  0.81105282538E+03  0.84051299671E+03  0.00000000000E+00 0. -1.
        -13    1    3    3    0    0  0.16140541892E+02 -0.40195444858E+02  0.69999903217E+02  0.82317539627E+02  0.00000000000E+00 0.  1.
          4    1    6    6  502    0  0.67994216022E+02  0.18654314724E+03  0.13292932473E+03  0.23893883018E+03  0.00000000000E+00 0. -1.
          3    1    5    5  503    0 -0.20705929185E+03 -0.96964526549E+02 -0.35254015425E+03  0.42019070683E+03  0.00000000000E+00 0. -1.
         -4    1    5    5    0  503 -0.47216901905E+02 -0.57280504236E+01 -0.15771339995E+03  0.16472936263E+03  0.00000000000E+00 0.  1.
         -3    1    6    6    0  502 -0.36430363542E+01  0.92191734371E+02  0.12211851703E+03  0.15305397676E+03  0.00000000000E+00 0.  1.
<mgrwt>
<rscale>  0 0.17936947E+04</rscale>
<asrwt>0</asrwt>
<pdfrwt beam="1">  1        2 0.97992031E-01 0.17936947E+04</pdfrwt>
<pdfrwt beam="2">  1       -2 0.19427619E+00 0.17936947E+04</pdfrwt>
<totfact> 0.63143183E+00</totfact>
</mgrwt>
</event>
<event>
12    1  0.1489233E-007  0.1823286E+04  0.7818608E-02  0.8694013E-01
         -2   -1    0    0    0  501 -0.00000000000E+00  0.00000000000E+00  0.83195930675E+03  0.83195930675E+03  0.00000000000E+00 0.  1.
          2   -1    0    0  501    0  0.00000000000E+00 -0.00000000000E+00 -0.99895882896E+03  0.99895882896E+03  0.00000000000E+00 0. -1.
         23    2    1    2    0    0  0.63748578106E+03 -0.66175999308E+01 -0.31546737360E+03  0.71721615058E+03  0.91909897025E+02 0.  0.
        254    2    1    2    0    0 -0.63748578106E+03  0.66175999308E+01  0.14846785139E+03  0.11137019851E+04  0.90103135078E+03 0.  0.
        -24    2    4    4    0    0  0.83690370495E+02 -0.14599460554E+03  0.30379181083E+03  0.35614755576E+03  0.78950074038E+02 0.  0.
         24    2    4    4    0    0 -0.72117615155E+03  0.15261220547E+03 -0.15532395944E+03  0.75755442936E+03  0.79860216890E+02 0.  0.
         11    1    3    3    0    0  0.58598550836E+03 -0.23752152864E+02 -0.30801145550E+03  0.66243055295E+03  0.00000000000E+00 0. -1.
        -11    1    3    3    0    0  0.51500272705E+02  0.17134552933E+02 -0.74559180958E+01  0.54785597629E+02  0.00000000000E+00 0.  1.
          4    1    6    6  502    0 -0.71359489194E+03  0.14610713796E+03 -0.14407652715E+03  0.74251128695E+03  0.00000000000E+00 0. -1.
          1    1    5    5  503    0  0.96010058307E+02 -0.11835977197E+03  0.22510524689E+03  0.27184432879E+03  0.00000000000E+00 0. -1.
         -2    1    5    5    0  503 -0.12319687812E+02 -0.27634833562E+02  0.78686563934E+02  0.84303226970E+02  0.00000000000E+00 0.  1.
         -3    1    6    6    0  502 -0.75812596106E+01  0.65050675047E+01 -0.11247432290E+02  0.15043142412E+02  0.00000000000E+00 0.  1.
<mgrwt>
<rscale>  0 0.18232861E+04</rscale>
<asrwt>0</asrwt>
<pdfrwt beam="1">  1        2 0.15368597E+00 0.18232861E+04</pdfrwt>
<pdfrwt beam="2">  1       -2 0.12799374E+00 0.18232861E+04</pdfrwt>
<totfact> 0.10738842E+01</totfact>
</mgrwt>
</event>
<event>
12    1  0.1489233E-007  0.1405107E+04  0.7818608E-02  0.8950130E-01
         -2   -1    0    0    0  501 -0.00000000000E+00  0.00000000000E+00  0.32263539893E+03  0.32263539893E+03  0.00000000000E+00 0.  1.
          2   -1    0    0  501    0  0.00000000000E+00 -0.00000000000E+00 -0.15298437498E+04  0.15298437498E+04  0.00000000000E+00 0. -1.
         23    2    1    2    0    0  0.13563161012E+03  0.60168030488E+02  0.14022920648E+03  0.22401131475E+03  0.92199312523E+02 0.  0.
        254    2    1    2    0    0 -0.13563161012E+03 -0.60168030488E+02 -0.13474375574E+04  0.16284678340E+04  0.90238760508E+03 0.  0.
        -24    2    4    4    0    0  0.31468753627E+03 -0.24948831582E+03 -0.73448100037E+03  0.84072785624E+03  0.78027707494E+02 0.  0.
         24    2    4    4    0    0 -0.45031914638E+03  0.18932028533E+03 -0.61295655701E+03  0.78773997776E+03  0.78670374034E+02 0.  0.
         11    1    3    3    0    0  0.12760077625E+03  0.81164629024E+02  0.12952002157E+03  0.19911075081E+03  0.00000000000E+00 0.  1.
        -11    1    3    3    0    0  0.80308338712E+01 -0.20996598536E+02  0.10709184916E+02  0.24900563936E+02  0.00000000000E+00 0. -1.
          4    1    6    6  502    0 -0.52827292708E+02 -0.18293209223E+01 -0.51984095968E+02  0.74137814262E+02  0.00000000000E+00 0. -1.
          1    1    5    5  503    0  0.19912569891E+02 -0.27796949828E+02 -0.29797842800E+02  0.45355179362E+02  0.00000000000E+00 0. -1.
         -2    1    5    5    0  503  0.29477496638E+03 -0.22169136599E+03 -0.70468315757E+03  0.79537267688E+03  0.00000000000E+00 0.  1.
         -3    1    6    6    0  502 -0.39749185368E+03  0.19114960626E+03 -0.56097246104E+03  0.71360216350E+03  0.00000000000E+00 0.  1.
<mgrwt>
<rscale>  0 0.14051075E+04</rscale>
<asrwt>0</asrwt>
<pdfrwt beam="1">  1        2 0.23536057E+00 0.14051075E+04</pdfrwt>
<pdfrwt beam="2">  1       -2 0.49636216E-01 0.14051075E+04</pdfrwt>
<totfact> 0.45624552E+01</totfact>
</mgrwt>
</event>
<event>
12    1  0.1489233E-007  0.1843858E+04  0.7818608E-02  0.8683318E-01
         -2   -1    0    0    0  501 -0.00000000000E+00  0.00000000000E+00  0.31836577537E+03  0.31836577537E+03  0.00000000000E+00 0.  1.
          2   -1    0    0  501    0  0.00000000000E+00 -0.00000000000E+00 -0.26697387765E+04  0.26697387765E+04  0.00000000000E+00 0. -1.
         23    2    1    2    0    0 -0.41085855729E+03  0.54210019504E+03 -0.11735254722E+04  0.13593583860E+04  0.89531067058E+02 0.  0.
        254    2    1    2    0    0  0.41085855729E+03 -0.54210019504E+03 -0.11778475288E+04  0.16287461658E+04  0.89599770982E+03 0.  0.
        -24    2    4    4    0    0 -0.23047656745E+02 -0.61817948067E+03 -0.92195112332E+03  0.11129882517E+04  0.77922459686E+02 0.  0.
         24    2    4    4    0    0  0.43390621404E+03  0.76079285630E+02 -0.25589640552E+03  0.51575791419E+03  0.80377829109E+02 0.  0.
         11    1    3    3    0    0 -0.13688910028E+03  0.20958992121E+03 -0.51170847434E+03  0.56965965590E+03  0.00000000000E+00 0. -1.
        -11    1    3    3    0    0 -0.27396945701E+03  0.33251027383E+03 -0.66181699790E+03  0.78969873008E+03  0.00000000000E+00 0.  1.
          4    1    6    6  502    0  0.34450324611E+03  0.30476571471E+02 -0.17969607273E+03  0.38974605391E+03  0.00000000000E+00 0. -1.
          1    1    5    5  503    0 -0.70180304541E+01 -0.49537837415E+03 -0.78578339783E+03  0.92892654964E+03  0.00000000000E+00 0. -1.
         -2    1    5    5    0  503 -0.16029626290E+02 -0.12280110652E+03 -0.13616772549E+03  0.18406170201E+03  0.00000000000E+00 0.  1.
         -3    1    6    6    0  502  0.89402967928E+02  0.45602714159E+02 -0.76200332794E+02  0.12601186028E+03  0.00000000000E+00 0.  1.
<mgrwt>
<rscale>  0 0.18438584E+04</rscale>
<asrwt>0</asrwt>
<pdfrwt beam="1">  1        2 0.41072902E+00 0.18438584E+04</pdfrwt>
<pdfrwt beam="2">  1       -2 0.48979352E-01 0.18438584E+04</pdfrwt>
<totfact> 0.10294401E+01</totfact>
</mgrwt>
</event>
<event>
12    1  0.1489233E-007  0.1460493E+04  0.7818608E-02  0.8911158E-01
         -1   -1    0    0    0  501 -0.00000000000E+00  0.00000000000E+00  0.81220942835E+03  0.81220942835E+03  0.00000000000E+00 0.  1.
          1   -1    0    0  501    0  0.00000000000E+00 -0.00000000000E+00 -0.65655516440E+03  0.65655516440E+03  0.00000000000E+00 0. -1.
         23    2    1    2    0    0  0.27602749013E+03 -0.35747210989E+02  0.41305735508E+03  0.50645918531E+03  0.91735976565E+02 0.  0.
        254    2    1    2    0    0 -0.27602749013E+03  0.35747210989E+02 -0.25740309113E+03  0.96230540744E+03  0.88448081238E+03 0.  0.
        -24    2    4    4    0    0  0.17452379932E+03 -0.15323402995E+03 -0.37959188895E+03  0.45219368379E+03  0.80311275908E+02 0.  0.
         24    2    4    4    0    0 -0.45055128945E+03  0.18898124093E+03  0.12218879783E+03  0.51011172365E+03  0.81077089543E+02 0.  0.
         11    1    3    3    0    0  0.17937406988E+02 -0.23443498833E+02  0.18533504695E+02  0.34854540641E+02  0.00000000000E+00 0. -1.
        -11    1    3    3    0    0  0.25809008314E+03 -0.12303712156E+02  0.39452385039E+03  0.47160464467E+03  0.00000000000E+00 0.  1.
          2    1    6    6  502    0 -0.38399358913E+03  0.12937357763E+03  0.11053076695E+03  0.42000672557E+03  0.00000000000E+00 0. -1.
          1    1    5    5  503    0  0.12360684447E+03 -0.14893493349E+03 -0.31671425475E+03  0.37117136955E+03  0.00000000000E+00 0. -1.
         -2    1    5    5    0  503  0.50916954852E+02 -0.42990964589E+01 -0.62877634205E+02  0.81022314242E+02  0.00000000000E+00 0.  1.
         -1    1    6    6    0  502 -0.66557700314E+02  0.59607663301E+02  0.11658030876E+02  0.90104998081E+02  0.00000000000E+00 0.  1.
<mgrwt>
<rscale>  0 0.14604935E+04</rscale>
<asrwt>0</asrwt>
<pdfrwt beam="1">  1        1 0.10100849E+00 0.14604935E+04</pdfrwt>
<pdfrwt beam="2">  1       -1 0.12495530E+00 0.14604935E+04</pdfrwt>
<totfact> 0.16314552E+01</totfact>
</mgrwt>
</event>
<event>
12    1  0.1489233E-007  0.4897051E+04  0.7818608E-02  0.7844587E-01
          2   -1    0    0  501    0  0.00000000000E+00  0.00000000000E+00  0.29956195929E+04  0.29956195929E+04  0.00000000000E+00 0. -1.
         -2   -1    0    0    0  501 -0.00000000000E+00 -0.00000000000E+00 -0.20013482547E+04  0.20013482547E+04  0.00000000000E+00 0.  1.
         23    2    1    2    0    0  0.20662996731E+04 -0.52773792126E+03  0.15164908936E+04  0.26184605046E+04  0.92136478919E+02 0.  0.
        254    2    1    2    0    0 -0.20662996731E+04  0.52773792126E+03 -0.52221955551E+03  0.23785073431E+04  0.91459404338E+03 0.  0.
        -24    2    4    4    0    0 -0.12470254210E+04  0.22286266204E+03 -0.74633449085E+03  0.14725264750E+04  0.81110298718E+02 0.  0.
         24    2    4    4    0    0 -0.81927425216E+03  0.30487525922E+03  0.22411493534E+03  0.90598086811E+03  0.80091230495E+02 0.  0.
         13    1    3    3    0    0  0.81232665450E+03 -0.17263237606E+03  0.62672464399E+03  0.10404135285E+04  0.00000000000E+00 0.  1.
        -13    1    3    3    0    0  0.12539730186E+04 -0.35510554520E+03  0.88976624966E+03  0.15780469761E+04  0.00000000000E+00 0. -1.
          4    1    6    6  502    0 -0.75178741530E+03  0.26585010199E+03  0.22304545091E+03  0.82801562044E+03  0.00000000000E+00 0. -1.
          1    1    5    5  503    0 -0.10918811041E+04  0.21840751044E+03 -0.67028893497E+03  0.12996897485E+04  0.00000000000E+00 0. -1.
         -2    1    5    5    0  503 -0.15514431687E+03  0.44551516019E+01 -0.76045555875E+02  0.17283672642E+03  0.00000000000E+00 0.  1.
         -3    1    6    6    0  502 -0.67486836864E+02  0.39025157232E+02  0.10694844283E+01  0.77965247668E+02  0.00000000000E+00 0.  1.
<mgrwt>
<rscale>  0 0.48970514E+04</rscale>
<asrwt>0</asrwt>
<pdfrwt beam="1">  1        2 0.46086455E+00 0.48970514E+04</pdfrwt>
<pdfrwt beam="2">  1       -2 0.30789973E+00 0.48970514E+04</pdfrwt>
<totfact> 0.36543067E-02</totfact>
</mgrwt>
</event>
<event>
12    1  0.1489233E-007  0.1616521E+04  0.7818608E-02  0.8810462E-01
          2   -1    0    0  501    0  0.00000000000E+00  0.00000000000E+00  0.11643297920E+04  0.11643297920E+04  0.00000000000E+00 0. -1.
         -2   -1    0    0    0  501 -0.00000000000E+00 -0.00000000000E+00 -0.56108228299E+03  0.56108228299E+03  0.00000000000E+00 0.  1.
         23    2    1    2    0    0 -0.31131895638E+03 -0.58011195067E+02 -0.27528177472E+03  0.42926773872E+03  0.90586669310E+02 0.  0.
        254    2    1    2    0    0  0.31131895638E+03  0.58011195067E+02  0.87852928371E+03  0.12961443362E+04  0.89882792941E+03 0.  0.
        -24    2    4    4    0    0  0.19480151911E+03  0.33202099936E+03  0.90485646635E+03  0.98643116368E+03  0.78074580460E+02 0.  0.
         24    2    4    4    0    0  0.11651743727E+03 -0.27400980429E+03 -0.26327182645E+02  0.30971317257E+03  0.81064435356E+02 0.  0.
         13    1    3    3    0    0 -0.16130910628E+02 -0.28405432767E+02 -0.29437483721E+02  0.43973177463E+02  0.00000000000E+00 0. -1.
        -13    1    3    3    0    0 -0.29518804576E+03 -0.29605762301E+02 -0.24584429100E+03  0.38529456126E+03  0.00000000000E+00 0.  1.
          4    1    6    6  502    0  0.32384633412E+02 -0.14057695741E+03  0.19202923876E+02  0.14553143207E+03  0.00000000000E+00 0. -1.
          3    1    5    5  503    0  0.28015940580E+02  0.59423847401E+02  0.92324487219E+02  0.11331327154E+03  0.00000000000E+00 0. -1.
         -4    1    5    5    0  503  0.16678557853E+03  0.27259715196E+03  0.81253197913E+03  0.87311789214E+03  0.00000000000E+00 0.  1.
         -3    1    6    6    0  502  0.84132803857E+02 -0.13343284689E+03 -0.45530106522E+02  0.16418174050E+03  0.00000000000E+00 0.  1.
<mgrwt>
<rscale>  0 0.16165207E+04</rscale>
<asrwt>0</asrwt>
<pdfrwt beam="1">  1        2 0.17912766E+00 0.16165207E+04</pdfrwt>
<pdfrwt beam="2">  1       -2 0.86320352E-01 0.16165207E+04</pdfrwt>
<totfact> 0.22173758E+01</totfact>
</mgrwt>
</event>
<event>
12    1  0.1489233E-007  0.2200226E+04  0.7818608E-02  0.8518334E-01
          2   -1    0    0  501    0  0.00000000000E+00  0.00000000000E+00  0.17420062798E+04  0.17420062798E+04  0.00000000000E+00 0. -1.
         -2   -1    0    0    0  501 -0.00000000000E+00 -0.00000000000E+00 -0.69474412439E+03  0.69474412439E+03  0.00000000000E+00 0.  1.
         23    2    1    2    0    0 -0.45375711849E+03  0.67877663496E+03  0.86377410285E+03  0.11919395112E+04  0.89335630049E+02 0.  0.
        254    2    1    2    0    0  0.45375711849E+03 -0.67877663496E+03  0.18348805259E+03  0.12448108930E+04  0.92154926686E+03 0.  0.
        -24    2    4    4    0    0  0.99811371863E+01  0.18935459260E+03  0.16892692851E+03  0.26630829845E+03  0.80181156182E+02 0.  0.
         24    2    4    4    0    0  0.44377598131E+03 -0.86813122756E+03  0.14561124072E+02  0.97850259460E+03  0.81647727840E+02 0.  0.
         13    1    3    3    0    0 -0.26183098574E+03  0.34900877854E+03  0.51531944990E+03  0.67521606026E+03  0.00000000000E+00 0. -1.
        -13    1    3    3    0    0 -0.19192613276E+03  0.32976785642E+03  0.34845465296E+03  0.51672345092E+03  0.00000000000E+00 0.  1.
          4    1    6    6  502    0  0.41129046957E+03 -0.80643520140E+03 -0.77493448867E+01  0.90529422662E+03  0.00000000000E+00 0. -1.
          3    1    5    5  503    0 -0.13136550212E+02  0.96736723044E+02  0.39099278315E+02  0.10516328305E+03  0.00000000000E+00 0. -1.
         -4    1    5    5    0  503  0.23117687398E+02  0.92617869553E+02  0.12982765020E+03  0.16114501540E+03  0.00000000000E+00 0.  1.
         -3    1    6    6    0  502  0.32485511739E+02 -0.61696026161E+02  0.22310468959E+02  0.73208367979E+02  0.00000000000E+00 0.  1.
<mgrwt>
<rscale>  0 0.22002260E+04</rscale>
<asrwt>0</asrwt>
<pdfrwt beam="1">  1        2 0.26800097E+00 0.22002260E+04</pdfrwt>
<pdfrwt beam="2">  1       -2 0.10688371E+00 0.22002260E+04</pdfrwt>
<totfact> 0.59826836E+00</totfact>
</mgrwt>
</event>
<event>
12    1  0.1489233E-007  0.1606814E+04  0.7818608E-02  0.8816373E-01
         -2   -1    0    0    0  501 -0.00000000000E+00  0.00000000000E+00  0.57882098985E+03  0.57882098985E+03  0.00000000000E+00 0.  1.
          2   -1    0    0  501    0  0.00000000000E+00 -0.00000000000E+00 -0.11151339423E+04  0.11151339423E+04  0.00000000000E+00 0. -1.
         23    2    1    2    0    0  0.11358228507E+03  0.20241949448E+03 -0.68695242369E+03  0.73056937561E+03  0.89181797091E+02 0.  0.
        254    2    1    2    0    0 -0.11358228507E+03 -0.20241949448E+03  0.15063947121E+03  0.96338555657E+03  0.92279190129E+03 0.  0.
        -24    2    4    4    0    0 -0.68286979896E+02  0.36012158491E+03  0.65090598605E+01  0.37528383855E+03  0.80280284489E+02 0.  0.
         24    2    4    4    0    0 -0.45295305170E+02 -0.56254107939E+03  0.14413041135E+03  0.58810171802E+03  0.81153709659E+02 0.  0.
         11    1    3    3    0    0  0.71176002470E+02  0.42713880213E+02 -0.21043880242E+03  0.22621889500E+03  0.00000000000E+00 0.  1.
        -11    1    3    3    0    0  0.42406282596E+02  0.15970561427E+03 -0.47651362128E+03  0.50435048061E+03  0.00000000000E+00 0. -1.
          2    1    6    6  502    0 -0.69684168663E+01 -0.36387891991E+03  0.59446215229E+02  0.36876859912E+03  0.00000000000E+00 0. -1.
          3    1    5    5  503    0 -0.62429295393E+02  0.20082541388E+03  0.35455904395E+02  0.21327302910E+03  0.00000000000E+00 0. -1.
         -4    1    5    5    0  503 -0.58576845026E+01  0.15929617103E+03 -0.28946844534E+02  0.16201080945E+03  0.00000000000E+00 0.  1.
         -1    1    6    6    0  502 -0.38326888304E+02 -0.19866215948E+03  0.84684196118E+02  0.21933311890E+03  0.00000000000E+00 0.  1.
<mgrwt>
<rscale>  0 0.16068142E+04</rscale>
<asrwt>0</asrwt>
<pdfrwt beam="1">  1        2 0.17155907E+00 0.16068142E+04</pdfrwt>
<pdfrwt beam="2">  1       -2 0.89049383E-01 0.16068142E+04</pdfrwt>
<totfact> 0.22137677E+01</totfact>
</mgrwt>
</event>
<event>
12    1  0.1489233E-007  0.1342872E+04  0.7818608E-02  0.8996242E-01
          2   -1    0    0  501    0  0.00000000000E+00  0.00000000000E+00  0.34737524919E+04  0.34737524919E+04  0.00000000000E+00 0.  1.
         -2   -1    0    0    0  501 -0.00000000000E+00 -0.00000000000E+00 -0.12978074986E+03  0.12978074986E+03  0.00000000000E+00 0. -1.
         23    2    1    2    0    0  0.28410617562E+03  0.10567333119E+03  0.14356292149E+04  0.14701809644E+04  0.92291135669E+02 0.  0.
        254    2    1    2    0    0 -0.28410617562E+03 -0.10567333119E+03  0.19083425272E+04  0.21333522773E+04  0.90417783989E+03 0.  0.
        -24    2    4    4    0    0 -0.47748419389E+03 -0.22623546892E+03  0.60263633327E+03  0.80548950691E+03  0.80431043422E+02 0.  0.
         24    2    4    4    0    0  0.19337801828E+03  0.12056213773E+03  0.13057061939E+04  0.13278627704E+04  0.80128554301E+02 0.  0.
         11    1    3    3    0    0  0.23970720094E+03  0.11144945905E+03  0.10866810983E+04  0.11183721802E+04  0.00000000000E+00 0. -1.
        -11    1    3    3    0    0  0.44398974681E+02 -0.57761278627E+01  0.34894811654E+03  0.35180878420E+03  0.00000000000E+00 0.  1.
          2    1    6    6  502    0  0.14353994945E+03  0.57968646366E+02  0.70120682017E+03  0.71809127951E+03  0.00000000000E+00 0. -1.
          3    1    5    5  503    0 -0.23613804009E+02 -0.17529462225E+01  0.92367738812E+01  0.25416580257E+02  0.00000000000E+00 0. -1.
         -4    1    5    5    0  503 -0.45387038988E+03 -0.22448252270E+03  0.59339955939E+03  0.78007292665E+03  0.00000000000E+00 0.  1.
         -1    1    6    6    0  502  0.49838068830E+02  0.62593491364E+02  0.60449937375E+03  0.60977149091E+03  0.00000000000E+00 0.  1.
<mgrwt>
<rscale>  0 0.13428719E+04</rscale>
<asrwt>0</asrwt>
<pdfrwt beam="1">  1        2 0.53442339E+00 0.13428719E+04</pdfrwt>
<pdfrwt beam="2">  1       -2 0.19966272E-01 0.13428719E+04</pdfrwt>
<totfact> 0.18102465E+01</totfact>
</mgrwt>
</event>
<event>
12    1  0.1489233E-007  0.2267048E+04  0.7818608E-02  0.8491028E-01
          2   -1    0    0  501    0  0.00000000000E+00  0.00000000000E+00  0.35562020870E+04  0.35562020870E+04  0.00000000000E+00 0. -1.
         -2   -1    0    0    0  501 -0.00000000000E+00 -0.00000000000E+00 -0.36130578120E+03  0.36130578120E+03  0.00000000000E+00 0.  1.
         23    2    1    2    0    0 -0.32822485385E+03 -0.88192498127E+03  0.14900339807E+04  0.17647417671E+04  0.92676931123E+02 0.  0.
        254    2    1    2    0    0  0.32822485385E+03  0.88192498127E+03  0.17048623250E+04  0.21527661011E+04  0.91778162507E+03 0.  0.
        -24    2    4    4    0    0  0.61963583695E+03  0.74567500160E+03  0.13845296724E+04  0.16917570725E+04  0.71692398941E+02 0.  0.
         24    2    4    4    0    0 -0.29141098310E+03  0.13624997967E+03  0.32033265263E+03  0.46100902859E+03  0.80199115128E+02 0.  0.
         13    1    3    3    0    0 -0.28315998370E+03 -0.78154498380E+03  0.12564395605E+04  0.15065299557E+04  0.00000000000E+00 0.  1.
        -13    1    3    3    0    0 -0.45064870151E+02 -0.10037999746E+03  0.23359442022E+03  0.25821181145E+03  0.00000000000E+00 0. -1.
          2    1    6    6  502    0 -0.40072033890E+02  0.24170210350E+02  0.92799663715E+02  0.10393144160E+03  0.00000000000E+00 0. -1.
          3    1    5    5  503    0  0.26541371247E+03  0.27868796327E+03  0.59002226083E+03  0.70444140134E+03  0.00000000000E+00 0. -1.
         -4    1    5    5    0  503  0.35422212448E+03  0.46698703832E+03  0.79450741157E+03  0.98731567114E+03  0.00000000000E+00 0.  1.
         -1    1    6    6    0  502 -0.25133894921E+03  0.11207976932E+03  0.22753298891E+03  0.35707758698E+03  0.00000000000E+00 0.  1.
<mgrwt>
<rscale>  0 0.22670477E+04</rscale>
<asrwt>0</asrwt>
<pdfrwt beam="1">  1        2 0.54710799E+00 0.22670477E+04</pdfrwt>
<pdfrwt beam="2">  1       -2 0.55585507E-01 0.22670477E+04</pdfrwt>
<totfact> 0.20580127E+00</totfact>
</mgrwt>
</event>
<event>
12    1  0.1489233E-007  0.1418996E+04  0.7818608E-02  0.8940182E-01
          1   -1    0    0  501    0  0.00000000000E+00  0.00000000000E+00  0.22015456464E+04  0.22015456464E+04  0.00000000000E+00 0. -1.
         -1   -1    0    0    0  501 -0.00000000000E+00 -0.00000000000E+00 -0.22865189811E+03  0.22865189811E+03  0.00000000000E+00 0.  1.
         23    2    1    2    0    0 -0.24442729015E+03  0.20788541023E+03  0.13640738044E+03  0.35957020373E+03  0.87878973692E+02 0.  0.
        254    2    1    2    0    0  0.24442729015E+03 -0.20788541023E+03  0.18364863679E+04  0.20706273408E+04  0.90102961170E+03 0.  0.
        -24    2    4    4    0    0  0.43517168666E+03 -0.73820800894E+02  0.36497359489E+03  0.57861653326E+03  0.82264573649E+02 0.  0.
         24    2    4    4    0    0 -0.19074439651E+03 -0.13406460934E+03  0.14715127730E+04  0.14920108076E+04  0.79935377113E+02 0.  0.
         13    1    3    3    0    0 -0.21437122452E+03  0.14165437313E+03  0.12573374877E+03  0.28605936256E+03  0.00000000000E+00 0.  1.
        -13    1    3    3    0    0 -0.30056065633E+02  0.66231037104E+02  0.10673631667E+02  0.73510841174E+02  0.00000000000E+00 0. -1.
          2    1    6    6  502    0 -0.13043242800E+03 -0.12940793006E+03  0.10134196382E+04  0.10299409661E+04  0.00000000000E+00 0. -1.
          3    1    5    5  503    0  0.35044178249E+03 -0.89084890644E+02  0.27670807081E+03  0.45531628250E+03  0.00000000000E+00 0. -1.
         -4    1    5    5    0  503  0.84729904167E+02  0.15264089749E+02  0.88265524082E+02  0.12330025076E+03  0.00000000000E+00 0.  1.
         -1    1    6    6    0  502 -0.60311968502E+02 -0.46566792747E+01  0.45809313482E+03  0.46206984145E+03  0.00000000000E+00 0.  1.
<mgrwt>
<rscale>  0 0.14189963E+04</rscale>
<asrwt>0</asrwt>
<pdfrwt beam="1">  1        1 0.33869931E+00 0.14189963E+04</pdfrwt>
<pdfrwt beam="2">  1       -1 0.35177217E-01 0.14189963E+04</pdfrwt>
<totfact> 0.16297862E+01</totfact>
</mgrwt>
</event>
<event>
12    1  0.1489233E-007  0.1357664E+04  0.7818608E-02  0.8985047E-01
          2   -1    0    0  501    0  0.00000000000E+00  0.00000000000E+00  0.14011505763E+04  0.14011505763E+04  0.00000000000E+00 0. -1.
         -2   -1    0    0    0  501 -0.00000000000E+00 -0.00000000000E+00 -0.32888179110E+03  0.32888179110E+03  0.00000000000E+00 0.  1.
         23    2    1    2    0    0  0.13198107903E+03 -0.17742661701E+03 -0.54870530486E+02  0.24575318829E+03  0.92112131626E+02 0.  0.
        254    2    1    2    0    0 -0.13198107903E+03  0.17742661701E+03  0.11271393157E+04  0.14842791791E+04  0.94007576022E+03 0.  0.
        -24    2    4    4    0    0 -0.28014949954E+02  0.40815983834E+03  0.10733610240E+03  0.43047540803E+03  0.80054649999E+02 0.  0.
         24    2    4    4    0    0 -0.10396612907E+03 -0.23073322133E+03  0.10198032133E+04  0.10538037711E+04  0.80355576689E+02 0.  0.
         13    1    3    3    0    0  0.13777640775E+03 -0.13973015247E+03 -0.26058663046E+02  0.19795430777E+03  0.00000000000E+00 0.  1.
        -13    1    3    3    0    0 -0.57953287260E+01 -0.37696464537E+02 -0.28811867440E+02  0.47798880520E+02  0.00000000000E+00 0. -1.
          2    1    6    6  502    0 -0.11748279172E+03 -0.20413017564E+03  0.89300559257E+03  0.92354226938E+03  0.00000000000E+00 0. -1.
          1    1    5    5  503    0  0.10875523793E+02  0.32383752089E+03  0.83612835013E+02  0.33463431254E+03  0.00000000000E+00 0. -1.
         -2    1    5    5    0  503 -0.38890473747E+02  0.84322317451E+02  0.23723267387E+02  0.95841095487E+02  0.00000000000E+00 0.  1.
         -1    1    6    6    0  502  0.13516662647E+02 -0.26603045693E+02  0.12679762071E+03  0.13026150171E+03  0.00000000000E+00 0.  1.
<mgrwt>
<rscale>  0 0.13576640E+04</rscale>
<asrwt>0</asrwt>
<pdfrwt beam="1">  1        2 0.21556162E+00 0.13576640E+04</pdfrwt>
<pdfrwt beam="2">  1       -2 0.50597199E-01 0.13576640E+04</pdfrwt>
<totfact> 0.52085246E+01</totfact>
</mgrwt>
</event>
<event>
12    1  0.1489233E-007  0.1503584E+04  0.7818608E-02  0.8882073E-01
          3   -1    0    0  501    0  0.00000000000E+00  0.00000000000E+00  0.21173255740E+04  0.21173255740E+04  0.00000000000E+00 0. -1.
         -3   -1    0    0    0  501 -0.00000000000E+00 -0.00000000000E+00 -0.26693647853E+03  0.26693647853E+03  0.00000000000E+00 0.  1.
         23    2    1    2    0    0  0.34947895315E+03 -0.18316069852E+03  0.18204673077E+03  0.44405075438E+03  0.91414878987E+02 0.  0.
        254    2    1    2    0    0 -0.34947895315E+03  0.18316069852E+03  0.16683423647E+04  0.19402112981E+04  0.90849890226E+03 0.  0.
        -24    2    4    4    0    0 -0.33644878550E+03 -0.20887038404E+03  0.14030284385E+04  0.14599671061E+04  0.78679914890E+02 0.  0.
         24    2    4    4    0    0 -0.13030167649E+02  0.39203108256E+03  0.26531392611E+03  0.48024419198E+03  0.79905253732E+02 0.  0.
         13    1    3    3    0    0 -0.56047191353E+01 -0.44630242603E+01  0.94424540456E+00  0.72265525334E+01  0.00000000000E+00 0. -1.
        -13    1    3    3    0    0  0.35508367229E+03 -0.17869767426E+03  0.18110248536E+03  0.43682420184E+03  0.00000000000E+00 0.  1.
          4    1    6    6  502    0 -0.22931033176E+02  0.11083541571E+03  0.11452513499E+03  0.16101654636E+03  0.00000000000E+00 0. -1.
          3    1    5    5  503    0 -0.41183816663E+02 -0.60809461164E+02  0.25560024909E+03  0.26594244614E+03  0.00000000000E+00 0. -1.
         -4    1    5    5    0  503 -0.29526496884E+03 -0.14806092288E+03  0.11474281895E+04  0.11940246600E+04  0.00000000000E+00 0.  1.
         -3    1    6    6    0  502  0.99008655270E+01  0.28119566686E+03  0.15078879112E+03  0.31922764562E+03  0.00000000000E+00 0.  1.
<mgrwt>
<rscale>  0 0.15035843E+04</rscale>
<asrwt>0</asrwt>
<pdfrwt beam="1">  1        3 0.32574239E+00 0.15035843E+04</pdfrwt>
<pdfrwt beam="2">  1       -3 0.41067152E-01 0.15035843E+04</pdfrwt>
<totfact> 0.41972730E-01</totfact>
</mgrwt>
</event>
<event>
12    1  0.1489233E-007  0.2169968E+04  0.7818608E-02  0.8531033E-01
          1   -1    0    0  501    0  0.00000000000E+00  0.00000000000E+00  0.11625185750E+04  0.11625185750E+04  0.00000000000E+00 0. -1.
         -1   -1    0    0    0  501 -0.00000000000E+00 -0.00000000000E+00 -0.10126209473E+04  0.10126209473E+04  0.00000000000E+00 0.  1.
         23    2    1    2    0    0  0.71924297474E+02 -0.41787634355E+03  0.84674606518E+03  0.95085865455E+03  0.85787755391E+02 0.  0.
        254    2    1    2    0    0 -0.71924297474E+02  0.41787634355E+03 -0.69684843747E+03  0.12242808678E+04  0.91294696202E+03 0.  0.
        -24    2    4    4    0    0 -0.28482981931E+03  0.61254521965E+03 -0.60826995763E+03  0.91271493795E+03  0.81954527204E+02 0.  0.
         24    2    4    4    0    0  0.21290552184E+03 -0.19466887610E+03 -0.88578479846E+02  0.31156592988E+03  0.77475473661E+02 0.  0.
         13    1    3    3    0    0  0.19296638808E+02 -0.18605200837E+02  0.86140533999E+02  0.90214773541E+02  0.00000000000E+00 0. -1.
        -13    1    3    3    0    0  0.52627658666E+02 -0.39927114271E+03  0.76060553118E+03  0.86064388101E+03  0.00000000000E+00 0.  1.
          2    1    6    6  502    0  0.10878521669E+03 -0.92541682186E+02 -0.83905734506E+02  0.16564527942E+03  0.00000000000E+00 0. -1.
          1    1    5    5  503    0 -0.54459410519E+00  0.28722269541E+02 -0.12036173888E+02  0.31146987530E+02  0.00000000000E+00 0. -1.
         -2    1    5    5    0  503 -0.28428522521E+03  0.58382295011E+03 -0.59623378374E+03  0.88156795042E+03  0.00000000000E+00 0.  1.
         -1    1    6    6    0  502  0.10412030515E+03 -0.10212719391E+03 -0.46727453402E+01  0.14592065046E+03  0.00000000000E+00 0.  1.
<mgrwt>
<rscale>  0 0.21699684E+04</rscale>
<asrwt>0</asrwt>
<pdfrwt beam="1">  1        1 0.17884901E+00 0.21699684E+04</pdfrwt>
<pdfrwt beam="2">  1       -1 0.15578784E+00 0.21699684E+04</pdfrwt>
<totfact> 0.32758313E+00</totfact>
</mgrwt>
</event>
<event>
12    1  0.1489233E-007  0.1467149E+04  0.7818608E-02  0.8906597E-01
         -2   -1    0    0    0  501 -0.00000000000E+00  0.00000000000E+00  0.32616845207E+03  0.32616845207E+03  0.00000000000E+00 0.  1.
          2   -1    0    0  501    0  0.00000000000E+00 -0.00000000000E+00 -0.16498577416E+04  0.16498577416E+04  0.00000000000E+00 0. -1.
         23    2    1    2    0    0  0.26738086254E+02  0.21700512695E+03  0.59394010934E+02  0.24437380814E+03  0.91568330726E+02 0.  0.
        254    2    1    2    0    0 -0.26738086254E+02 -0.21700512695E+03 -0.13830833004E+04  0.17316523855E+04  0.10187710331E+04 0.  0.
        -24    2    4    4    0    0  0.14901295020E+02 -0.50238158416E+02 -0.15037552860E+04  0.15068618142E+04  0.81281276424E+02 0.  0.
         24    2    4    4    0    0 -0.41639381274E+02 -0.16676696853E+03  0.12067198554E+03  0.22479057128E+03  0.80149940581E+02 0.  0.
         11    1    3    3    0    0  0.11023433419E+02  0.10329888512E+02 -0.17662508229E+02  0.23241920703E+02  0.00000000000E+00 0. -1.
        -11    1    3    3    0    0  0.15714652835E+02  0.20667523844E+03  0.77056519163E+02  0.22113188744E+03  0.00000000000E+00 0.  1.
          2    1    6    6  502    0  0.16036799370E+02 -0.63210304063E+02  0.17189943841E+02  0.67440459985E+02  0.00000000000E+00 0. -1.
          1    1    5    5  503    0  0.32464732266E+02  0.86884666014E+01 -0.40751152508E+03  0.40889496373E+03  0.00000000000E+00 0. -1.
         -2    1    5    5    0  503 -0.17563437246E+02 -0.58926625017E+02 -0.10962437609E+04  0.10979668505E+04  0.00000000000E+00 0.  1.
         -1    1    6    6    0  502 -0.57676180645E+02 -0.10355666447E+03  0.10348204170E+03  0.15735011130E+03  0.00000000000E+00 0.  1.
<mgrwt>
<rscale>  0 0.14671490E+04</rscale>
<asrwt>0</asrwt>
<pdfrwt beam="1">  1        2 0.25382427E+00 0.14671490E+04</pdfrwt>
<pdfrwt beam="2">  1       -2 0.50179762E-01 0.14671490E+04</pdfrwt>
<totfact> 0.38047853E+01</totfact>
</mgrwt>
</event>
<event>
12    1  0.1489233E-007  0.3717319E+04  0.7818608E-02  0.8064134E-01
          2   -1    0    0  501    0  0.00000000000E+00  0.00000000000E+00  0.12260890337E+04  0.12260890337E+04  0.00000000000E+00 0. -1.
         -2   -1    0    0    0  501 -0.00000000000E+00 -0.00000000000E+00 -0.28175896212E+04  0.28175896212E+04  0.00000000000E+00 0.  1.
         23    2    1    2    0    0  0.50499573951E+03 -0.28261793152E+03 -0.25403926755E+04  0.26070251823E+04  0.89954228387E+02 0.  0.
        254    2    1    2    0    0 -0.50499573951E+03  0.28261793152E+03  0.94889208810E+03  0.14366534726E+04  0.91032050027E+03 0.  0.
        -24    2    4    4    0    0 -0.62507157351E+03  0.34211964125E+03  0.10339408134E+04  0.12582286210E+04  0.79657617071E+02 0.  0.
         24    2    4    4    0    0  0.12007583400E+03 -0.59501709727E+02 -0.85048725345E+02  0.17842485160E+03  0.81507561705E+02 0.  0.
         13    1    3    3    0    0  0.35559985513E+03 -0.24256353790E+03 -0.18190595062E+04  0.18692955395E+04  0.00000000000E+00 0.  1.
        -13    1    3    3    0    0  0.14939588439E+03 -0.40054393617E+02 -0.72133316934E+03  0.73772964283E+03  0.00000000000E+00 0. -1.
          2    1    6    6  502    0  0.15781030753E+02 -0.13683224549E+02  0.15873299604E+02  0.26234199168E+02  0.00000000000E+00 0. -1.
          1    1    5    5  503    0 -0.22147952688E+03  0.82170354610E+02  0.36780827094E+03  0.43713621696E+03  0.00000000000E+00 0. -1.
         -2    1    5    5    0  503 -0.40359204662E+03  0.25994928664E+03  0.66613254251E+03  0.82109240400E+03  0.00000000000E+00 0.  1.
         -1    1    6    6    0  502  0.10429480324E+03 -0.45818485178E+02 -0.10092202495E+03  0.15219065243E+03  0.00000000000E+00 0.  1.
<mgrwt>
<rscale>  0 0.37173193E+04</rscale>
<asrwt>0</asrwt>
<pdfrwt beam="1">  1        2 0.18862908E+00 0.37173193E+04</pdfrwt>
<pdfrwt beam="2">  1       -2 0.43347533E+00 0.37173193E+04</pdfrwt>
<totfact> 0.65823342E-02</totfact>
</mgrwt>
</event>
<event>
12    1  0.1489233E-007  0.2232447E+04  0.7818608E-02  0.8505043E-01
          1   -1    0    0  501    0  0.00000000000E+00  0.00000000000E+00  0.13204788875E+04  0.13204788875E+04  0.00000000000E+00 0. -1.
         -1   -1    0    0    0  501 -0.00000000000E+00 -0.00000000000E+00 -0.94356292018E+03  0.94356292018E+03  0.00000000000E+00 0.  1.
         23    2    1    2    0    0  0.12117799403E+03 -0.50788689207E+03  0.94353050802E+03  0.10823299421E+04  0.92493689125E+02 0.  0.
        254    2    1    2    0    0 -0.12117799403E+03  0.50788689207E+03 -0.56661454069E+03  0.11817118656E+04  0.89596746273E+03 0.  0.
        -24    2    4    4    0    0 -0.27617161504E+03  0.31676479957E+03 -0.75062891051E+03  0.86401661568E+03  0.80437874664E+02 0.  0.
         24    2    4    4    0    0  0.15499362101E+03  0.19112209249E+03  0.18401436981E+03  0.31769524995E+03  0.80736031284E+02 0.  0.
         13    1    3    3    0    0 -0.14470239329E+02 -0.66702506682E+02  0.10718093907E+03  0.12706835139E+03  0.00000000000E+00 0.  1.
        -13    1    3    3    0    0  0.13564823336E+03 -0.44118438538E+03  0.83634956894E+03  0.95526159066E+03  0.00000000000E+00 0. -1.
          4    1    6    6  502    0  0.37341528993E+02  0.78982696922E+02  0.10613183274E+03  0.13746498507E+03  0.00000000000E+00 0. -1.
          3    1    5    5  503    0 -0.13085463653E+03  0.17407433432E+03 -0.46217476170E+03  0.51091126443E+03  0.00000000000E+00 0. -1.
         -4    1    5    5    0  503 -0.14531697851E+03  0.14269046525E+03 -0.28845414881E+03  0.35310535125E+03  0.00000000000E+00 0.  1.
         -3    1    6    6    0  502  0.11765209202E+03  0.11213939557E+03  0.77882537077E+02  0.18023026488E+03  0.00000000000E+00 0.  1.
<mgrwt>
<rscale>  0 0.22324470E+04</rscale>
<asrwt>0</asrwt>
<pdfrwt beam="1">  1        1 0.20315060E+00 0.22324470E+04</pdfrwt>
<pdfrwt beam="2">  1       -1 0.14516353E+00 0.22324470E+04</pdfrwt>
<totfact> 0.30292430E+00</totfact>
</mgrwt>
</event>
<event>
12    1  0.1489233E-007  0.1182919E+04  0.7818608E-02  0.9127940E-01
          2   -1    0    0  501    0  0.00000000000E+00  0.00000000000E+00  0.37236599780E+04  0.37236599780E+04  0.00000000000E+00 0. -1.
         -2   -1    0    0    0  501 -0.00000000000E+00 -0.00000000000E+00 -0.93946388486E+02  0.93946388486E+02  0.00000000000E+00 0.  1.
         23    2    1    2    0    0 -0.20705892855E+03 -0.83854433415E+02  0.57929345300E+03  0.62892691693E+03  0.10031548368E+03 0.  0.
        254    2    1    2    0    0  0.20705892855E+03  0.83854433415E+02  0.30504201365E+04  0.31886794496E+04  0.90150355342E+03 0.  0.
        -24    2    4    4    0    0 -0.34066309187E+03 -0.56092139818E+02  0.10318802268E+04  0.10909066043E+04  0.78120077598E+02 0.  0.
         24    2    4    4    0    0  0.54772202042E+03  0.13994657323E+03  0.20185399097E+04  0.20977728453E+04  0.81012888849E+02 0.  0.
         11    1    3    3    0    0 -0.18729645671E+03 -0.75425338045E+02  0.39724246526E+03  0.44561252285E+03  0.00000000000E+00 0.  1.
        -11    1    3    3    0    0 -0.19762471833E+02 -0.84290953703E+01  0.18205098774E+03  0.18331439408E+03  0.00000000000E+00 0. -1.
          4    1    6    6  502    0  0.12558841421E+03  0.64998538883E+02  0.55449681733E+03  0.57224468566E+03  0.00000000000E+00 0. -1.
          1    1    5    5  503    0 -0.18999329998E+02  0.73296237128E+01  0.12358021364E+03  0.12524682482E+03  0.00000000000E+00 0. -1.
         -2    1    5    5    0  503 -0.32166376188E+03 -0.63421763531E+02  0.90830001315E+03  0.96565977947E+03  0.00000000000E+00 0.  1.
         -3    1    6    6    0  502  0.42213360621E+03  0.74948034351E+02  0.14640430924E+04  0.15255281596E+04  0.00000000000E+00 0.  1.
<mgrwt>
<rscale>  0 0.11829191E+04</rscale>
<asrwt>0</asrwt>
<pdfrwt beam="1">  1        2 0.57287065E+00 0.11829191E+04</pdfrwt>
<pdfrwt beam="2">  1       -2 0.14453293E-01 0.11829191E+04</pdfrwt>
<totfact> 0.21397776E+01</totfact>
</mgrwt>
</event>
<event>
12    1  0.1489233E-007  0.2015220E+04  0.7818608E-02  0.8599538E-01
          1   -1    0    0  501    0  0.00000000000E+00  0.00000000000E+00  0.12043390805E+04  0.12043390805E+04  0.00000000000E+00 0. -1.
         -1   -1    0    0    0  501 -0.00000000000E+00 -0.00000000000E+00 -0.84301655156E+03  0.84301655156E+03  0.00000000000E+00 0.  1.
         23    2    1    2    0    0  0.47015000109E+03 -0.33828393130E+03 -0.42292878337E+03  0.72296455774E+03  0.91279539058E+02 0.  0.
        254    2    1    2    0    0 -0.47015000109E+03  0.33828393130E+03  0.78425131235E+03  0.13243910744E+04  0.89637300004E+03 0.  0.
        -24    2    4    4    0    0  0.59646141252E+02  0.25047864455E+02  0.68904622001E+03  0.69657396505E+03  0.79028715030E+02 0.  0.
         24    2    4    4    0    0 -0.52979614234E+03  0.31323606685E+03  0.95205092345E+02  0.62781710931E+03  0.79306538914E+02 0.  0.
         11    1    3    3    0    0  0.27945747430E+03 -0.25154264834E+03 -0.25259029044E+03  0.45295920203E+03  0.00000000000E+00 0.  1.
        -11    1    3    3    0    0  0.19069252679E+03 -0.86741282964E+02 -0.17033849293E+03  0.27000535572E+03  0.00000000000E+00 0. -1.
          4    1    6    6  502    0 -0.24464516565E+03  0.17569345818E+03  0.16809281616E+02  0.30166537798E+03  0.00000000000E+00 0. -1.
          3    1    5    5  503    0  0.47534147338E+02 -0.12097951203E+02  0.54878802550E+03  0.55097563695E+03  0.00000000000E+00 0. -1.
         -4    1    5    5    0  503  0.12111993914E+02  0.37145815659E+02  0.14025819451E+03  0.14559832810E+03  0.00000000000E+00 0.  1.
         -3    1    6    6    0  502 -0.28515097669E+03  0.13754260867E+03  0.78395810729E+02  0.32615173133E+03  0.00000000000E+00 0.  1.
<mgrwt>
<rscale>  0 0.20152199E+04</rscale>
<asrwt>0</asrwt>
<pdfrwt beam="1">  1        1 0.18528294E+00 0.20152199E+04</pdfrwt>
<pdfrwt beam="2">  1       -1 0.12969485E+00 0.20152199E+04</pdfrwt>
<totfact> 0.50140957E+00</totfact>
</mgrwt>
</event>
<event>
12    1  0.1489233E-007  0.2303916E+04  0.7818608E-02  0.8476379E-01
          2   -1    0    0  501    0  0.00000000000E+00  0.00000000000E+00  0.16031633726E+04  0.16031633726E+04  0.00000000000E+00 0. -1.
         -2   -1    0    0    0  501 -0.00000000000E+00 -0.00000000000E+00 -0.82774282600E+03  0.82774282600E+03  0.00000000000E+00 0.  1.
         23    2    1    2    0    0 -0.15216890328E+03  0.27927615486E+02 -0.68689224811E+03  0.71038673549E+03  0.94302845191E+02 0.  0.
        254    2    1    2    0    0  0.15216890328E+03 -0.27927615486E+02  0.14623127947E+04  0.17205194631E+04  0.89324867005E+03 0.  0.
        -24    2    4    4    0    0  0.22770858455E+03 -0.42354152370E+03  0.67113226646E+03  0.82923244666E+03  0.77261308135E+02 0.  0.
         24    2    4    4    0    0 -0.75539681261E+02  0.39561390821E+03  0.79118052822E+03  0.89128701643E+03  0.78799172624E+02 0.  0.
         11    1    3    3    0    0 -0.16446522582E+02 -0.28789564854E+02 -0.15657401783E+03  0.16004608776E+03  0.00000000000E+00 0. -1.
        -11    1    3    3    0    0 -0.13572238070E+03  0.56717180340E+02 -0.53031823028E+03  0.55034064772E+03  0.00000000000E+00 0.  1.
          2    1    6    6  502    0 -0.88035657967E+02  0.37984637714E+03  0.74359340695E+03  0.83962176136E+03  0.00000000000E+00 0. -1.
          3    1    5    5  503    0  0.20617639648E+03 -0.34228953279E+03  0.51422203723E+03  0.65122587042E+03  0.00000000000E+00 0. -1.
         -4    1    5    5    0  503  0.21532188064E+02 -0.81251990911E+02  0.15691022922E+03  0.17800657624E+03  0.00000000000E+00 0.  1.
         -3    1    6    6    0  502  0.12495976706E+02  0.15767531068E+02  0.47587121278E+02  0.51665255070E+02  0.00000000000E+00 0.  1.
<mgrwt>
<rscale>  0 0.23039158E+04</rscale>
<asrwt>0</asrwt>
<pdfrwt beam="1">  1        2 0.24664052E+00 0.23039158E+04</pdfrwt>
<pdfrwt beam="2">  1       -2 0.12734505E+00 0.23039158E+04</pdfrwt>
<totfact> 0.46065912E+00</totfact>
</mgrwt>
</event>
<event>
12    1  0.1489233E-007  0.1834979E+04  0.7818608E-02  0.8687916E-01
         -2   -1    0    0    0  501 -0.00000000000E+00  0.00000000000E+00  0.45571602568E+03  0.45571602568E+03  0.00000000000E+00 0.  1.
          2   -1    0    0  501    0  0.00000000000E+00 -0.00000000000E+00 -0.18471749467E+04  0.18471749467E+04  0.00000000000E+00 0. -1.
         23    2    1    2    0    0 -0.36521188446E+03 -0.10962538920E+03  0.19277556818E+03  0.43713622827E+03  0.92348339851E+02 0.  0.
        254    2    1    2    0    0  0.36521188446E+03  0.10962538920E+03 -0.15842344892E+04  0.18657547441E+04  0.90875981528E+03 0.  0.
        -24    2    4    4    0    0  0.52375403515E+03  0.81651167573E+01 -0.15739195401E+04  0.16608016382E+04  0.81574531751E+02 0.  0.
         24    2    4    4    0    0 -0.15854215069E+03  0.10146027244E+03 -0.10314949078E+02  0.20495310590E+03  0.80433680852E+02 0.  0.
         13    1    3    3    0    0 -0.14629841868E+03 -0.33252758247E+02  0.27812079446E+02  0.15258599216E+03  0.00000000000E+00 0. -1.
        -13    1    3    3    0    0 -0.21891346578E+03 -0.76372630951E+02  0.16496348873E+03  0.28455023611E+03  0.00000000000E+00 0.  1.
          2    1    6    6  502    0 -0.84020490033E+01  0.26858224564E+02 -0.23665040180E+02  0.36769454455E+02  0.00000000000E+00 0. -1.
          1    1    5    5  503    0  0.20281552059E+03  0.34143272777E+02 -0.53691783200E+03  0.57496143939E+03  0.00000000000E+00 0. -1.
         -2    1    5    5    0  503  0.32093851456E+03 -0.25978156020E+02 -0.10370017081E+04  0.10858401988E+04  0.00000000000E+00 0.  1.
         -1    1    6    6    0  502 -0.15014010168E+03  0.74602047876E+02  0.13350091102E+02  0.16818365145E+03  0.00000000000E+00 0.  1.
<mgrwt>
<rscale>  0 0.18349793E+04</rscale>
<asrwt>0</asrwt>
<pdfrwt beam="1">  1        2 0.28418077E+00 0.18349793E+04</pdfrwt>
<pdfrwt beam="2">  1       -2 0.70110156E-01 0.18349793E+04</pdfrwt>
<totfact> 0.14166865E+01</totfact>
</mgrwt>
</event>
<event>
12    1  0.1489233E-007  0.2067756E+04  0.7818608E-02  0.8575582E-01
         -1   -1    0    0    0  501 -0.00000000000E+00  0.00000000000E+00  0.68159694576E+03  0.68159694576E+03  0.00000000000E+00 0.  1.
          1   -1    0    0  501    0  0.00000000000E+00 -0.00000000000E+00 -0.15682345336E+04  0.15682345336E+04  0.00000000000E+00 0. -1.
         23    2    1    2    0    0  0.75347013244E+03  0.87940859338E+02 -0.71536686387E+03  0.10475825362E+04  0.10113646761E+03 0.  0.
        254    2    1    2    0    0 -0.75347013244E+03 -0.87940859338E+02 -0.17127072399E+03  0.12022489431E+04  0.91685223736E+03 0.  0.
        -24    2    4    4    0    0 -0.25388413096E+03 -0.13383094712E+03  0.35937822626E+03  0.46767424844E+03  0.84844674465E+02 0.  0.
         24    2    4    4    0    0 -0.49958600149E+03  0.45890087786E+02 -0.53064895026E+03  0.73457469469E+03  0.79495915850E+02 0.  0.
         13    1    3    3    0    0  0.23038652789E+03  0.36374950629E+02 -0.15952903316E+03  0.28257848766E+03  0.00000000000E+00 0. -1.
        -13    1    3    3    0    0  0.52308360455E+03  0.51565908709E+02 -0.55583783071E+03  0.76500404857E+03  0.00000000000E+00 0.  1.
          4    1    6    6  502    0 -0.45013021810E+03  0.35409531891E+02 -0.43815556208E+03  0.62916718349E+03  0.00000000000E+00 0. -1.
          1    1    5    5  503    0 -0.25243310694E+03 -0.11473288823E+03  0.34946582784E+03  0.44610814155E+03  0.00000000000E+00 0. -1.
         -2    1    5    5    0  503 -0.14510240147E+01 -0.19098058898E+02  0.99123984189E+01  0.21566106899E+02  0.00000000000E+00 0.  1.
         -3    1    6    6    0  502 -0.49455783384E+02  0.10480555895E+02 -0.92493388174E+02  0.10540751120E+03  0.00000000000E+00 0.  1.
<mgrwt>
<rscale>  0 0.20677561E+04</rscale>
<asrwt>0</asrwt>
<pdfrwt beam="1">  1        1 0.24126685E+00 0.20677561E+04</pdfrwt>
<pdfrwt beam="2">  1       -1 0.10486107E+00 0.20677561E+04</pdfrwt>
<totfact> 0.46215108E+00</totfact>
</mgrwt>
</event>
<event>
12    1  0.1489233E-007  0.2579783E+04  0.7818608E-02  0.8375101E-01
         -1   -1    0    0    0  501 -0.00000000000E+00  0.00000000000E+00  0.16066761821E+04  0.16066761821E+04  0.00000000000E+00 0.  1.
          1   -1    0    0  501    0  0.00000000000E+00 -0.00000000000E+00 -0.10355663265E+04  0.10355663265E+04  0.00000000000E+00 0. -1.
         23    2    1    2    0    0 -0.70572176549E+03 -0.34862519508E+03  0.10826875020E+04  0.13416593487E+04  0.90856172565E+02 0.  0.
        254    2    1    2    0    0  0.70572176549E+03  0.34862519508E+03 -0.51157764646E+03  0.13005831599E+04  0.90012339733E+03 0.  0.
        -24    2    4    4    0    0  0.17491993432E+03  0.55542060092E+03 -0.11019944411E+03  0.59888886265E+03  0.86226011016E+02 0.  0.
         24    2    4    4    0    0  0.53080183117E+03 -0.20679540584E+03 -0.40137820236E+03  0.70169429721E+03  0.82191858246E+02 0.  0.
         11    1    3    3    0    0 -0.56754075477E+03 -0.27968688211E+03  0.80464116794E+03  0.10236086506E+04  0.00000000000E+00 0.  1.
        -11    1    3    3    0    0 -0.13818101072E+03 -0.68938312974E+02  0.27804633408E+03  0.31805069818E+03  0.00000000000E+00 0. -1.
          4    1    6    6  502    0  0.25586849606E+03 -0.75498963279E+02 -0.22933480956E+03  0.35179999376E+03  0.00000000000E+00 0. -1.
          1    1    5    5  503    0  0.52627690884E+02  0.14523390804E+03  0.84925109684E+01  0.15470838580E+03  0.00000000000E+00 0. -1.
         -2    1    5    5    0  503  0.12229224344E+03  0.41018669288E+03 -0.11869195508E+03  0.44418047686E+03  0.00000000000E+00 0.  1.
         -3    1    6    6    0  502  0.27493333511E+03 -0.13129644256E+03 -0.17204339279E+03  0.34989430345E+03  0.00000000000E+00 0.  1.
<mgrwt>
<rscale>  0 0.25797827E+04</rscale>
<asrwt>0</asrwt>
<pdfrwt beam="1">  1        1 0.15931790E+00 0.25797827E+04</pdfrwt>
<pdfrwt beam="2">  1       -1 0.24718095E+00 0.25797827E+04</pdfrwt>
<totfact> 0.91118529E-01</totfact>
</mgrwt>
</event>
<event>
12    1  0.1489233E-007  0.1771474E+04  0.7818608E-02  0.8721618E-01
          2   -1    0    0  501    0  0.00000000000E+00  0.00000000000E+00  0.60444256932E+03  0.60444256932E+03  0.00000000000E+00 0.  1.
         -2   -1    0    0    0  501 -0.00000000000E+00 -0.00000000000E+00 -0.12979399859E+04  0.12979399859E+04  0.00000000000E+00 0. -1.
         23    2    1    2    0    0 -0.12508666849E+03 -0.26436994482E+03 -0.87323425413E+03  0.92493739488E+03  0.86214729038E+02 0.  0.
        254    2    1    2    0    0  0.12508666849E+03  0.26436994482E+03  0.17973683757E+03  0.97744516032E+03  0.91518062059E+03 0.  0.
        -24    2    4    4    0    0  0.36728774278E+03 -0.11269874564E+03 -0.14373007980E+03  0.41917439982E+03  0.86299179353E+02 0.  0.
         24    2    4    4    0    0 -0.24220107429E+03  0.37706869047E+03  0.32346691738E+03  0.55827076051E+03  0.78697126254E+02 0.  0.
         11    1    3    3    0    0 -0.79714151398E+02 -0.84957958514E+02 -0.40615125745E+03  0.42252934167E+03  0.00000000000E+00 0.  1.
        -11    1    3    3    0    0 -0.45372517088E+02 -0.17941198631E+03 -0.46708299669E+03  0.50240805321E+03  0.00000000000E+00 0. -1.
          2    1    6    6  502    0 -0.21826576273E+02  0.44555352899E+02  0.69442269076E+02  0.85345226218E+02  0.00000000000E+00 0. -1.
          1    1    5    5  503    0  0.96395174970E+02 -0.68595245255E+02 -0.57092479680E+02  0.13136547745E+03  0.00000000000E+00 0. -1.
         -2    1    5    5    0  503  0.27089256781E+03 -0.44103500390E+02 -0.86637600121E+02  0.28780892237E+03  0.00000000000E+00 0.  1.
         -1    1    6    6    0  502 -0.22037449802E+03  0.33251333757E+03  0.25402464830E+03  0.47292553429E+03  0.00000000000E+00 0.  1.
<mgrwt>
<rscale>  0 0.17714742E+04</rscale>
<asrwt>0</asrwt>
<pdfrwt beam="1">  1        2 0.92991165E-01 0.17714742E+04</pdfrwt>
<pdfrwt beam="2">  1       -2 0.19968307E+00 0.17714742E+04</pdfrwt>
<totfact> 0.62103684E+00</totfact>
</mgrwt>
</event>
<event>
12    1  0.1489233E-007  0.1632296E+04  0.7818608E-02  0.8800949E-01
         -1   -1    0    0    0  501 -0.00000000000E+00  0.00000000000E+00  0.35131118788E+03  0.35131118788E+03  0.00000000000E+00 0.  1.
          1   -1    0    0  501    0  0.00000000000E+00 -0.00000000000E+00 -0.18960325940E+04  0.18960325940E+04  0.00000000000E+00 0. -1.
         23    2    1    2    0    0  0.53994464600E+02  0.11433204367E+03 -0.12842845550E+04  0.12936762353E+04  0.90687182909E+02 0.  0.
        254    2    1    2    0    0 -0.53994464600E+02 -0.11433204367E+03 -0.26043685115E+03  0.95366754661E+03  0.90866232320E+03 0.  0.
        -24    2    4    4    0    0 -0.34315272290E+03 -0.33027932035E+03 -0.31938112390E+03  0.57944680158E+03  0.83162929664E+02 0.  0.
         24    2    4    4    0    0  0.28915825830E+03  0.21594727668E+03  0.58944272755E+02  0.37422074503E+03  0.79504805334E+02 0.  0.
         11    1    3    3    0    0  0.34931031604E+02  0.75495257672E-01 -0.18199049543E+03  0.18531250119E+03  0.00000000000E+00 0.  1.
        -11    1    3    3    0    0  0.19063432996E+02  0.11425654842E+03 -0.11022940596E+04  0.11083637341E+04  0.00000000000E+00 0. -1.
          2    1    6    6  502    0  0.23099548573E+00  0.74934670857E+01  0.12984530718E+02  0.14993446763E+02  0.00000000000E+00 0. -1.
          3    1    5    5  503    0 -0.76040193878E+02 -0.40287025615E+02 -0.84050454166E+02  0.12028979326E+03  0.00000000000E+00 0. -1.
         -4    1    5    5    0  503 -0.26711252902E+03 -0.28999229474E+03 -0.23533066974E+03  0.45915700832E+03  0.00000000000E+00 0.  1.
         -1    1    6    6    0  502  0.28892726282E+03  0.20845380959E+03  0.45959742038E+02  0.35922729827E+03  0.00000000000E+00 0.  1.
<mgrwt>
<rscale>  0 0.16322959E+04</rscale>
<asrwt>0</asrwt>
<pdfrwt beam="1">  1        1 0.29169732E+00 0.16322959E+04</pdfrwt>
<pdfrwt beam="2">  1       -1 0.54047876E-01 0.16322959E+04</pdfrwt>
<totfact> 0.11597904E+01</totfact>
</mgrwt>
</event>
<event>
12    1  0.1489233E-007  0.2044068E+04  0.7818608E-02  0.8586290E-01
          1   -1    0    0  501    0  0.00000000000E+00  0.00000000000E+00  0.11363417317E+04  0.11363417317E+04  0.00000000000E+00 0. -1.
         -1   -1    0    0    0  501 -0.00000000000E+00 -0.00000000000E+00 -0.91922518411E+03  0.91922518411E+03  0.00000000000E+00 0.  1.
         23    2    1    2    0    0 -0.57807298525E+03  0.49566687544E+03 -0.19950660873E+03  0.79230608164E+03  0.89955613459E+02 0.  0.
        254    2    1    2    0    0  0.57807298525E+03 -0.49566687544E+03  0.41662315637E+03  0.12632608342E+04  0.91782299664E+03 0.  0.
        -24    2    4    4    0    0  0.13252412081E+03 -0.49281875404E+03 -0.14889371793E+03  0.53768701378E+03  0.80653695682E+02 0.  0.
         24    2    4    4    0    0  0.44554886444E+03 -0.28481213996E+01  0.56551687430E+03  0.72557382043E+03  0.90145057386E+02 0.  0.
         11    1    3    3    0    0 -0.53406567461E+03  0.46072936746E+03 -0.15898986607E+03  0.72303213784E+03  0.00000000000E+00 0.  1.
        -11    1    3    3    0    0 -0.44007310641E+02  0.34937507974E+02 -0.40516742663E+02  0.69273943798E+02  0.00000000000E+00 0. -1.
          2    1    6    6  502    0  0.70260176829E+02 -0.33893231102E+02  0.98571265380E+02  0.12570416827E+03  0.00000000000E+00 0. -1.
          3    1    5    5  503    0  0.69087560974E+02 -0.18886727048E+03 -0.95495304075E+02  0.22262814297E+03  0.00000000000E+00 0. -1.
         -4    1    5    5    0  503  0.63436559832E+02 -0.30395148355E+03 -0.53398413860E+02  0.31505887082E+03  0.00000000000E+00 0.  1.
         -1    1    6    6    0  502  0.37528868761E+03  0.31045109702E+02  0.46694560892E+03  0.59986965216E+03  0.00000000000E+00 0.  1.
<mgrwt>
<rscale>  0 0.20440684E+04</rscale>
<asrwt>0</asrwt>
<pdfrwt beam="1">  1        1 0.17482181E+00 0.20440684E+04</pdfrwt>
<pdfrwt beam="2">  1       -1 0.14141926E+00 0.20440684E+04</pdfrwt>
<totfact> 0.44924751E+00</totfact>
</mgrwt>
</event>
<event>
12    1  0.1489233E-007  0.2060388E+04  0.7818608E-02  0.8578896E-01
          2   -1    0    0  501    0  0.00000000000E+00  0.00000000000E+00  0.11903106087E+04  0.11903106087E+04  0.00000000000E+00 0. -1.
         -2   -1    0    0    0  501 -0.00000000000E+00 -0.00000000000E+00 -0.89161598644E+03  0.89161598644E+03  0.00000000000E+00 0.  1.
         23    2    1    2    0    0  0.76718847704E+03 -0.29561252414E+03  0.32113108074E+02  0.82799541988E+03  0.92629584423E+02 0.  0.
        254    2    1    2    0    0 -0.76718847704E+03  0.29561252414E+03  0.26658151421E+03  0.12539311753E+04  0.90846726132E+03 0.  0.
        -24    2    4    4    0    0  0.18392528978E+03  0.26735432350E+01  0.14588648395E+03  0.24809366415E+03  0.80199376188E+02 0.  0.
         24    2    4    4    0    0 -0.95111376681E+03  0.29293898091E+03  0.12069503026E+03  0.10058375111E+04  0.81921697361E+02 0.  0.
         11    1    3    3    0    0  0.33870858351E+03 -0.14124393637E+03  0.59330812491E+02  0.37174386265E+03  0.00000000000E+00 0.  1.
        -11    1    3    3    0    0  0.42847989353E+03 -0.15436858778E+03 -0.27217704417E+02  0.45625155724E+03  0.00000000000E+00 0. -1.
          2    1    6    6  502    0 -0.17364571471E+03  0.64355063368E+02  0.53092582558E+02  0.19264794507E+03  0.00000000000E+00 0. -1.
          1    1    5    5  503    0  0.36508700040E+02 -0.19791184445E+02  0.31104004296E+01  0.41644336364E+02  0.00000000000E+00 0. -1.
         -2    1    5    5    0  503  0.14741658974E+03  0.22464727680E+02  0.14277608352E+03  0.20644932779E+03  0.00000000000E+00 0.  1.
         -1    1    6    6    0  502 -0.77746805211E+03  0.22858391754E+03  0.67602447705E+02  0.81318956606E+03  0.00000000000E+00 0.  1.
<mgrwt>
<rscale>  0 0.20603883E+04</rscale>
<asrwt>0</asrwt>
<pdfrwt beam="1">  1        2 0.18312471E+00 0.20603883E+04</pdfrwt>
<pdfrwt beam="2">  1       -2 0.13717169E+00 0.20603883E+04</pdfrwt>
<totfact> 0.67212337E+00</totfact>
</mgrwt>
</event>
<event>
12    1  0.1489233E-007  0.1410023E+04  0.7818608E-02  0.8946595E-01
         -2   -1    0    0    0  501 -0.00000000000E+00  0.00000000000E+00  0.23353688241E+03  0.23353688241E+03  0.00000000000E+00 0. -1.
          2   -1    0    0  501    0  0.00000000000E+00 -0.00000000000E+00 -0.21283213928E+04  0.21283213928E+04  0.00000000000E+00 0.  1.
         23    2    1    2    0    0  0.76969071925E+02  0.25034792879E+03 -0.33141014093E+02  0.27929059064E+03  0.91140461526E+02 0.  0.
        254    2    1    2    0    0 -0.76969071925E+02 -0.25034792879E+03 -0.18616434963E+04  0.20825676846E+04  0.89597618830E+03 0.  0.
        -24    2    4    4    0    0 -0.15080415051E+03  0.18316804852E+03 -0.14614085870E+04  0.14825988880E+04  0.78051130200E+02 0.  0.
         24    2    4    4    0    0  0.73835078581E+02 -0.43351597730E+03 -0.40023490931E+03  0.59996879651E+03  0.79917787448E+02 0.  0.
         11    1    3    3    0    0  0.92225981295E+02  0.15259300415E+03 -0.18082137495E+02  0.17921277923E+03  0.00000000000E+00 0. -1.
        -11    1    3    3    0    0 -0.15256909370E+02  0.97754924634E+02 -0.15058876598E+02  0.10007781142E+03  0.00000000000E+00 0.  1.
          4    1    6    6  502    0  0.10485060210E+02 -0.61537704614E+02 -0.99459582604E+02  0.11742671821E+03  0.00000000000E+00 0. -1.
          3    1    5    5  503    0 -0.60066026439E+02  0.13214265675E+03 -0.80366876751E+03  0.81667196422E+03  0.00000000000E+00 0. -1.
         -4    1    5    5    0  503 -0.90738124066E+02  0.51025391768E+02 -0.65773981946E+03  0.66592692382E+03  0.00000000000E+00 0.  1.
         -3    1    6    6    0  502  0.63350018371E+02 -0.37197827269E+03 -0.30077532670E+03  0.48254207830E+03  0.00000000000E+00 0.  1.
<mgrwt>
<rscale>  0 0.14100235E+04</rscale>
<asrwt>0</asrwt>
<pdfrwt beam="1">  1        2 0.32743405E+00 0.14100235E+04</pdfrwt>
<pdfrwt beam="2">  1       -2 0.35928752E-01 0.14100235E+04</pdfrwt>
<totfact> 0.40186740E+01</totfact>
</mgrwt>
</event>
<event>
12    1  0.1489233E-007  0.1208971E+04  0.7818608E-02  0.9105041E-01
         -1   -1    0    0    0  501 -0.00000000000E+00  0.00000000000E+00  0.19784381681E+03  0.19784381681E+03  0.00000000000E+00 0.  1.
          1   -1    0    0  501    0  0.00000000000E+00 -0.00000000000E+00 -0.18469243662E+04  0.18469243662E+04  0.00000000000E+00 0. -1.
         23    2    1    2    0    0 -0.95111953334E+01 -0.20520522498E+02 -0.85613232705E+03  0.86144130143E+03  0.92773917096E+02 0.  0.
        254    2    1    2    0    0  0.95111953334E+01  0.20520522498E+02 -0.79294822229E+03  0.11833268815E+04  0.87805698601E+03 0.  0.
        -24    2    4    4    0    0  0.92882738900E+02  0.41454590489E+03 -0.23951101755E+03  0.49409913760E+03  0.79327925735E+02 0.  0.
         24    2    4    4    0    0 -0.83371543567E+02 -0.39402538240E+03 -0.55343720474E+03  0.68922774395E+03  0.80841370506E+02 0.  0.
         13    1    3    3    0    0  0.19798223825E+02 -0.49534010241E+02 -0.42309166703E+03  0.42644125803E+03  0.00000000000E+00 0.  1.
        -13    1    3    3    0    0 -0.29309419158E+02  0.29013487743E+02 -0.43304066002E+03  0.43500004339E+03  0.00000000000E+00 0. -1.
          2    1    6    6  502    0 -0.10542672147E+02 -0.32308959775E+02 -0.94089272356E+02  0.10003903233E+03  0.00000000000E+00 0. -1.
          3    1    5    5  503    0  0.45933835332E+02  0.80377180771E+02 -0.72468624945E+02  0.11756747007E+03  0.00000000000E+00 0. -1.
         -4    1    5    5    0  503  0.46948903569E+02  0.33416872412E+03 -0.16704239261E+03  0.37653166753E+03  0.00000000000E+00 0.  1.
         -1    1    6    6    0  502 -0.72828871420E+02 -0.36171642262E+03 -0.45934793238E+03  0.58918871161E+03  0.00000000000E+00 0.  1.
<mgrwt>
<rscale>  0 0.12089707E+04</rscale>
<asrwt>0</asrwt>
<pdfrwt beam="1">  1        1 0.28414221E+00 0.12089707E+04</pdfrwt>
<pdfrwt beam="2">  1       -1 0.30437511E-01 0.12089707E+04</pdfrwt>
<totfact> 0.37280496E+01</totfact>
</mgrwt>
</event>
<event>
12    1  0.1489233E-007  0.1212623E+04  0.7818608E-02  0.9101879E-01
         -1   -1    0    0    0  501 -0.00000000000E+00  0.00000000000E+00  0.17641764248E+03  0.17641764248E+03  0.00000000000E+00 0.  1.
          1   -1    0    0  501    0  0.00000000000E+00 -0.00000000000E+00 -0.20837703060E+04  0.20837703060E+04  0.00000000000E+00 0. -1.
         23    2    1    2    0    0 -0.12700854508E+03 -0.11077688398E+03 -0.82543714727E+03  0.84758018747E+03  0.92967744612E+02 0.  0.
        254    2    1    2    0    0  0.12700854508E+03  0.11077688398E+03 -0.10819155162E+04  0.14126077610E+04  0.89247790653E+03 0.  0.
        -24    2    4    4    0    0 -0.56032635564E+02  0.47818237679E+03 -0.63448747986E+03  0.80046541853E+03  0.79827830016E+02 0.  0.
         24    2    4    4    0    0  0.18304118064E+03 -0.36740549280E+03 -0.44742803638E+03  0.61214234248E+03  0.77688672087E+02 0.  0.
         11    1    3    3    0    0 -0.33543751109E+02 -0.48557387482E+02 -0.12537304342E+03  0.13856912764E+03  0.00000000000E+00 0.  1.
        -11    1    3    3    0    0 -0.93464793971E+02 -0.62219496498E+02 -0.70006410385E+03  0.70901105983E+03  0.00000000000E+00 0. -1.
          4    1    6    6  502    0  0.14356358201E+03 -0.34007329163E+03 -0.38481954514E+03  0.53324143508E+03  0.00000000000E+00 0. -1.
          3    1    5    5  503    0 -0.25662390060E+02  0.39648643507E+03 -0.55461325198E+03  0.68224329291E+03  0.00000000000E+00 0. -1.
         -4    1    5    5    0  503 -0.30370245503E+02  0.81695941720E+02 -0.79874227880E+02  0.11822212561E+03  0.00000000000E+00 0.  1.
         -3    1    6    6    0  502  0.39477598635E+02 -0.27332201177E+02 -0.62608491235E+02  0.78900907408E+02  0.00000000000E+00 0.  1.
<mgrwt>
<rscale>  0 0.12126233E+04</rscale>
<asrwt>0</asrwt>
<pdfrwt beam="1">  1        1 0.32058005E+00 0.12126233E+04</pdfrwt>
<pdfrwt beam="2">  1       -1 0.27141176E-01 0.12126233E+04</pdfrwt>
<totfact> 0.31491808E+01</totfact>
</mgrwt>
</event>
<event>
12    1  0.1489233E-007  0.1467246E+04  0.7818608E-02  0.8906531E-01
         -2   -1    0    0    0  501 -0.00000000000E+00  0.00000000000E+00  0.38102915408E+03  0.38102915408E+03  0.00000000000E+00 0.  1.
          2   -1    0    0  501    0  0.00000000000E+00 -0.00000000000E+00 -0.14124966680E+04  0.14124966680E+04  0.00000000000E+00 0. -1.
         23    2    1    2    0    0 -0.35192028310E+03 -0.24580947364E+03 -0.65030136925E+03  0.78441884200E+03  0.90282145796E+02 0.  0.
        254    2    1    2    0    0  0.35192028310E+03  0.24580947364E+03 -0.38116614464E+03  0.10091069800E+04  0.82990305721E+03 0.  0.
        -24    2    4    4    0    0  0.45212672656E+03  0.48203636255E+03 -0.27358920213E+03  0.71968578532E+03  0.79491800698E+02 0.  0.
         24    2    4    4    0    0 -0.10020644346E+03 -0.23622688892E+03 -0.10757694251E+03  0.28942119472E+03  0.79670289536E+02 0.  0.
         11    1    3    3    0    0 -0.63038385651E+02 -0.10548767853E+02 -0.12528762300E+03  0.14064886436E+03  0.00000000000E+00 0.  1.
        -11    1    3    3    0    0 -0.28888189745E+03 -0.23526070579E+03 -0.52501374625E+03  0.64376997764E+03  0.00000000000E+00 0. -1.
          2    1    6    6  502    0  0.99005325111E+01 -0.20561703189E+02 -0.24345989753E+02  0.33369617904E+02  0.00000000000E+00 0. -1.
          1    1    5    5  503    0  0.14244964130E+02  0.84068479681E+01 -0.21540598097E+02  0.27158635132E+02  0.00000000000E+00 0. -1.
         -2    1    5    5    0  503  0.43788176243E+03  0.47362951459E+03 -0.25204860403E+03  0.69252715019E+03  0.00000000000E+00 0.  1.
         -1    1    6    6    0  502 -0.11010697597E+03 -0.21566518573E+03 -0.83230952755E+02  0.25605157681E+03  0.00000000000E+00 0.  1.
<mgrwt>
<rscale>  0 0.14672456E+04</rscale>
<asrwt>0</asrwt>
<pdfrwt beam="1">  1        2 0.21730718E+00 0.14672456E+04</pdfrwt>
<pdfrwt beam="2">  1       -2 0.58619871E-01 0.14672456E+04</pdfrwt>
<totfact> 0.37500501E+01</totfact>
</mgrwt>
</event>
<event>
12    1  0.1489233E-007  0.1553363E+04  0.7818608E-02  0.8849723E-01
          1   -1    0    0  501    0  0.00000000000E+00  0.00000000000E+00  0.91271746767E+03  0.91271746767E+03  0.00000000000E+00 0. -1.
         -1   -1    0    0    0  501 -0.00000000000E+00 -0.00000000000E+00 -0.66092061649E+03  0.66092061649E+03  0.00000000000E+00 0.  1.
         23    2    1    2    0    0  0.24973223189E+03  0.40666292544E+02 -0.37271840991E+03  0.45957323222E+03  0.90931884865E+02 0.  0.
        254    2    1    2    0    0 -0.24973223189E+03 -0.40666292544E+02  0.62451526109E+03  0.11140648519E+04  0.88718726771E+03 0.  0.
        -24    2    4    4    0    0  0.89194485757E+02 -0.23019514659E+03  0.66618811791E+03  0.71501631160E+03  0.80599352371E+02 0.  0.
         24    2    4    4    0    0 -0.33892671765E+03  0.18952885405E+03 -0.41672856815E+02  0.39904854034E+03  0.81918276942E+02 0.  0.
         11    1    3    3    0    0  0.96658091414E+01 -0.62434161227E+01 -0.67301359122E+02  0.68277969001E+02  0.00000000000E+00 0. -1.
        -11    1    3    3    0    0  0.24006642275E+03  0.46909708667E+02 -0.30541705079E+03  0.39129526322E+03  0.00000000000E+00 0.  1.
          2    1    6    6  502    0 -0.26661263575E+03  0.14205693794E+03 -0.65931226287E+02  0.30920769356E+03  0.00000000000E+00 0. -1.
          1    1    5    5  503    0  0.52102281663E+02 -0.16441820836E+03  0.55030190767E+03  0.57669765439E+03  0.00000000000E+00 0. -1.
         -2    1    5    5    0  503  0.37092204094E+02 -0.65776938234E+02  0.11588621024E+03  0.13831865721E+03  0.00000000000E+00 0.  1.
         -1    1    6    6    0  502 -0.72314081902E+02  0.47471916106E+02  0.24258369472E+02  0.89840846777E+02  0.00000000000E+00 0.  1.
<mgrwt>
<rscale>  0 0.15533625E+04</rscale>
<asrwt>0</asrwt>
<pdfrwt beam="1">  1        1 0.14041807E+00 0.15533625E+04</pdfrwt>
<pdfrwt beam="2">  1       -1 0.10168009E+00 0.15533625E+04</pdfrwt>
<totfact> 0.15700415E+01</totfact>
</mgrwt>
</event>
<event>
12    1  0.1489233E-007  0.1063068E+04  0.7818608E-02  0.9241955E-01
         -2   -1    0    0    0  501 -0.00000000000E+00  0.00000000000E+00  0.12155905728E+03  0.12155905728E+03  0.00000000000E+00 0. -1.
          2   -1    0    0  501    0  0.00000000000E+00 -0.00000000000E+00 -0.23242088670E+04  0.23242088670E+04  0.00000000000E+00 0.  1.
         23    2    1    2    0    0  0.27439028383E+02 -0.75459756764E+02 -0.59711275560E+03  0.60904188793E+03  0.89113989855E+02 0.  0.
        254    2    1    2    0    0 -0.27439028383E+02  0.75459756764E+02 -0.16055370542E+04  0.18367260364E+04  0.88846284408E+03 0.  0.
        -24    2    4    4    0    0 -0.31827783342E+03 -0.27553964621E+03 -0.73021637974E+03  0.84665634093E+03  0.79925731335E+02 0.  0.
         24    2    4    4    0    0  0.29083880503E+03  0.35099940297E+03 -0.87532067442E+03  0.99006969546E+03  0.79144977075E+02 0.  0.
         11    1    3    3    0    0 -0.92154248029E+01 -0.16927853039E+02 -0.39472676026E+03  0.39519702874E+03  0.00000000000E+00 0. -1.
        -11    1    3    3    0    0  0.36654453185E+02 -0.58531903725E+02 -0.20238599534E+03  0.21384485919E+03  0.00000000000E+00 0.  1.
          2    1    6    6  502    0  0.10218257237E+03  0.71372960007E+02 -0.26095819998E+03  0.28919640326E+03  0.00000000000E+00 0. -1.
          3    1    5    5  503    0 -0.16047315123E+02 -0.71116027972E+01 -0.86221093131E+01  0.19555868327E+02  0.00000000000E+00 0. -1.
         -4    1    5    5    0  503 -0.30223051829E+03 -0.26842804341E+03 -0.72159427042E+03  0.82710047261E+03  0.00000000000E+00 0.  1.
         -1    1    6    6    0  502  0.18865623266E+03  0.27962644297E+03 -0.61436247444E+03  0.70087329220E+03  0.00000000000E+00 0.  1.
<mgrwt>
<rscale>  0 0.10630685E+04</rscale>
<asrwt>0</asrwt>
<pdfrwt beam="1">  1        2 0.35757054E+00 0.10630685E+04</pdfrwt>
<pdfrwt beam="2">  1       -2 0.18701396E-01 0.10630685E+04</pdfrwt>
<totfact> 0.10579675E+02</totfact>
</mgrwt>
</event>
<event>
12    1  0.1489233E-007  0.1817827E+04  0.7818608E-02  0.8696876E-01
          2   -1    0    0  501    0  0.00000000000E+00  0.00000000000E+00  0.16959125725E+04  0.16959125725E+04  0.00000000000E+00 0. -1.
         -2   -1    0    0    0  501 -0.00000000000E+00 -0.00000000000E+00 -0.48712640370E+03  0.48712640370E+03  0.00000000000E+00 0.  1.
         23    2    1    2    0    0  0.46229556374E+03  0.10863851146E+03  0.10372656851E+04  0.11445676517E+04  0.92711883227E+02 0.  0.
        254    2    1    2    0    0 -0.46229556374E+03 -0.10863851146E+03  0.17152048367E+03  0.10384713245E+04  0.90746013747E+03 0.  0.
        -24    2    4    4    0    0 -0.59700716998E+03 -0.47503455661E+02 -0.19484522478E+03  0.63525247321E+03  0.83107784140E+02 0.  0.
         24    2    4    4    0    0  0.13471160624E+03 -0.61135055799E+02  0.36636570845E+03  0.40321885131E+03  0.80479176300E+02 0.  0.
         11    1    3    3    0    0  0.35765342856E+03  0.11691835225E+03  0.85699242358E+03  0.93596041056E+03  0.00000000000E+00 0. -1.
        -11    1    3    3    0    0  0.10464213518E+03 -0.82798407940E+01  0.18027326156E+03  0.20860724113E+03  0.00000000000E+00 0.  1.
          4    1    6    6  502    0  0.68579353526E+02 -0.96084911043E+00  0.23118347777E+03  0.24114280282E+03  0.00000000000E+00 0. -1.
          1    1    5    5  503    0 -0.47753202917E+03 -0.68732658386E+02 -0.16889684956E+03  0.51116256025E+03  0.00000000000E+00 0. -1.
         -2    1    5    5    0  503 -0.11947514081E+03  0.21229202725E+02 -0.25948375223E+02  0.12408991295E+03  0.00000000000E+00 0.  1.
         -3    1    6    6    0  502  0.66132252714E+02 -0.60174206688E+02  0.13518223068E+03  0.16207604848E+03  0.00000000000E+00 0.  1.
<mgrwt>
<rscale>  0 0.18178270E+04</rscale>
<asrwt>0</asrwt>
<pdfrwt beam="1">  1        2 0.26090962E+00 0.18178270E+04</pdfrwt>
<pdfrwt beam="2">  1       -2 0.74942525E-01 0.18178270E+04</pdfrwt>
<totfact> 0.14864349E+01</totfact>
</mgrwt>
</event>
<event>
12    1  0.1489233E-007  0.1318576E+04  0.7818608E-02  0.9014962E-01
         -1   -1    0    0    0  501 -0.00000000000E+00  0.00000000000E+00  0.46541657436E+03  0.46541657436E+03  0.00000000000E+00 0.  1.
          1   -1    0    0  501    0  0.00000000000E+00 -0.00000000000E+00 -0.93391788977E+03  0.93391788977E+03  0.00000000000E+00 0. -1.
         23    2    1    2    0    0 -0.26413220468E+03 -0.24460578303E+03 -0.27725032795E+03  0.46382915866E+03  0.93123216404E+02 0.  0.
        254    2    1    2    0    0  0.26413220468E+03  0.24460578303E+03 -0.19125098747E+03  0.93550530548E+03  0.84201866115E+03 0.  0.
        -24    2    4    4    0    0  0.15834236982E+03 -0.50676736568E+02  0.29726449605E+03  0.34955062396E+03  0.78606745200E+02 0.  0.
         24    2    4    4    0    0  0.10578983486E+03  0.29528251960E+03 -0.48851548351E+03  0.58595468152E+03  0.79449704999E+02 0.  0.
         11    1    3    3    0    0 -0.15449739224E+03 -0.90979360647E+02 -0.16827322996E+03  0.24589137479E+03  0.00000000000E+00 0. -1.
        -11    1    3    3    0    0 -0.10963481244E+03 -0.15362642239E+03 -0.10897709799E+03  0.21793778387E+03  0.00000000000E+00 0.  1.
          4    1    6    6  502    0  0.60342823247E+02  0.24865102604E+03 -0.41695325372E+03  0.48920200823E+03  0.00000000000E+00 0. -1.
          3    1    5    5  503    0  0.11019854100E+03 -0.33030607707E+02  0.12529170647E+03  0.17009629977E+03  0.00000000000E+00 0. -1.
         -4    1    5    5    0  503  0.48143828818E+02 -0.17646128862E+02  0.17197278957E+03  0.17945432419E+03  0.00000000000E+00 0.  1.
         -1    1    6    6    0  502  0.45447011615E+02  0.46631493559E+02 -0.71562229795E+02  0.96752673294E+02  0.00000000000E+00 0.  1.
<mgrwt>
<rscale>  0 0.13185763E+04</rscale>
<asrwt>0</asrwt>
<pdfrwt beam="1">  1        1 0.14367968E+00 0.13185763E+04</pdfrwt>
<pdfrwt beam="2">  1       -1 0.71602550E-01 0.13185763E+04</pdfrwt>
<totfact> 0.32997453E+01</totfact>
</mgrwt>
</event>
<event>
12    1  0.1489233E-007  0.1348286E+04  0.7818608E-02  0.8992127E-01
         -1   -1    0    0    0  501 -0.00000000000E+00  0.00000000000E+00  0.41850642045E+03  0.41850642045E+03  0.00000000000E+00 0.  1.
          1   -1    0    0  501    0  0.00000000000E+00 -0.00000000000E+00 -0.10859304336E+04  0.10859304336E+04  0.00000000000E+00 0. -1.
         23    2    1    2    0    0  0.55892550440E+02  0.26015068985E+03  0.77561987555E+02  0.29203252832E+03  0.92004223049E+02 0.  0.
        254    2    1    2    0    0 -0.55892550440E+02 -0.26015068985E+03 -0.74498600072E+03  0.12124043257E+04  0.91875880904E+03 0.  0.
        -24    2    4    4    0    0 -0.39693052588E+03  0.11044619797E+03 -0.48330447221E+03  0.63922086778E+03  0.72580299864E+02 0.  0.
         24    2    4    4    0    0  0.34103797544E+03 -0.37059688782E+03 -0.26168152851E+03  0.57318345797E+03  0.80081834215E+02 0.  0.
         13    1    3    3    0    0 -0.14283162147E+02  0.10916986587E+03  0.57860730875E+02  0.12437818343E+03  0.00000000000E+00 0.  1.
        -13    1    3    3    0    0  0.70175712587E+02  0.15098082398E+03  0.19701256680E+02  0.16765434489E+03  0.00000000000E+00 0. -1.
          2    1    6    6  502    0  0.48239987116E+02 -0.10039247843E+03 -0.51312629739E+02  0.12263250814E+03  0.00000000000E+00 0. -1.
          1    1    5    5  503    0 -0.49681161084E+01  0.13748784920E+02 -0.15728185601E+02  0.21472938474E+02  0.00000000000E+00 0. -1.
         -2    1    5    5    0  503 -0.39196240977E+03  0.96697413048E+02 -0.46757628660E+03  0.61774792930E+03  0.00000000000E+00 0.  1.
         -1    1    6    6    0  502  0.29279798832E+03 -0.27020440939E+03 -0.21036889877E+03  0.45055094983E+03  0.00000000000E+00 0.  1.
<mgrwt>
<rscale>  0 0.13482861E+04</rscale>
<asrwt>0</asrwt>
<pdfrwt beam="1">  1        1 0.16706622E+00 0.13482861E+04</pdfrwt>
<pdfrwt beam="2">  1       -1 0.64385604E-01 0.13482861E+04</pdfrwt>
<totfact> 0.31115304E+01</totfact>
</mgrwt>
</event>
<event>
12    1  0.1489233E-007  0.9995799E+03  0.7818608E-02  0.9309006E-01
         -2   -1    0    0    0  501 -0.00000000000E+00  0.00000000000E+00  0.13990806871E+04  0.13990806871E+04  0.00000000000E+00 0.  1.
          2   -1    0    0  501    0  0.00000000000E+00 -0.00000000000E+00 -0.17853864658E+03  0.17853864658E+03  0.00000000000E+00 0. -1.
         23    2    1    2    0    0  0.10229633426E+03 -0.96603493225E+02  0.78378309143E+02  0.18518429103E+03  0.91396320460E+02 0.  0.
        254    2    1    2    0    0 -0.10229633426E+03  0.96603493225E+02  0.11421637314E+04  0.13924350427E+04  0.78392638929E+03 0.  0.
        -24    2    4    4    0    0  0.42293431016E+02  0.35915759344E+03  0.24957824979E+03  0.44742877199E+03  0.84381822708E+02 0.  0.
         24    2    4    4    0    0 -0.14458976528E+03 -0.26255410021E+03  0.89258548163E+03  0.94500627070E+03  0.80542869859E+02 0.  0.
         13    1    3    3    0    0  0.61838405789E+02 -0.41901615601E+02  0.89140802309E+02  0.11630054367E+03  0.00000000000E+00 0.  1.
        -13    1    3    3    0    0  0.40457928475E+02 -0.54701877624E+02 -0.10762493166E+02  0.68883747366E+02  0.00000000000E+00 0. -1.
          2    1    6    6  502    0 -0.80795957053E+02 -0.69237550928E+02  0.28417364977E+03  0.30344107889E+03  0.00000000000E+00 0. -1.
          1    1    5    5  503    0  0.64043275829E+02  0.22441466377E+03  0.17655630173E+03  0.29263562697E+03  0.00000000000E+00 0. -1.
         -2    1    5    5    0  503 -0.21749844814E+02  0.13474292967E+03  0.73021948064E+02  0.15479314502E+03  0.00000000000E+00 0.  1.
         -1    1    6    6    0  502 -0.63793808226E+02 -0.19331654928E+03  0.60841183186E+03  0.64156519181E+03  0.00000000000E+00 0.  1.
<mgrwt>
<rscale>  0 0.99957986E+03</rscale>
<asrwt>0</asrwt>
<pdfrwt beam="1">  1        2 0.27467485E-01 0.99957986E+03</pdfrwt>
<pdfrwt beam="2">  1       -2 0.21524318E+00 0.99957986E+03</pdfrwt>
<totfact> 0.20882668E+01</totfact>
</mgrwt>
</event>
<event>
12    1  0.1489233E-007  0.1587036E+04  0.7818608E-02  0.8828552E-01
          1   -1    0    0  501    0  0.00000000000E+00  0.00000000000E+00  0.16402414354E+04  0.16402414354E+04  0.00000000000E+00 0. -1.
         -1   -1    0    0    0  501 -0.00000000000E+00 -0.00000000000E+00 -0.38388896276E+03  0.38388896276E+03  0.00000000000E+00 0.  1.
         23    2    1    2    0    0  0.43805803520E+03  0.58890230773E+02  0.82899012623E+03  0.94392278523E+03  0.91666207534E+02 0.  0.
        254    2    1    2    0    0 -0.43805803520E+03 -0.58890230773E+02  0.42736234636E+03  0.10802076129E+04  0.88817059757E+03 0.  0.
        -24    2    4    4    0    0 -0.61576512421E+02 -0.33379307812E+02  0.63374174064E+03  0.64282945437E+03  0.81824620371E+02 0.  0.
         24    2    4    4    0    0 -0.37648152278E+03 -0.25510922961E+02 -0.20637939428E+03  0.43737815853E+03  0.79486193701E+02 0.  0.
         11    1    3    3    0    0  0.19982536953E+03  0.63033275720E+02  0.44771747731E+03  0.49432207278E+03  0.00000000000E+00 0. -1.
        -11    1    3    3    0    0  0.23823266567E+03 -0.41430449471E+01  0.38127264892E+03  0.44960071245E+03  0.00000000000E+00 0.  1.
          2    1    6    6  502    0 -0.29330056556E+03 -0.45489856266E+02 -0.18302288579E+03  0.34870033769E+03  0.00000000000E+00 0. -1.
          3    1    5    5  503    0 -0.44922061208E+02 -0.58973578213E+02  0.51083299033E+03  0.51618428737E+03  0.00000000000E+00 0. -1.
         -4    1    5    5    0  503 -0.16654451213E+02  0.25594270401E+02  0.12290875031E+03  0.12664516700E+03  0.00000000000E+00 0.  1.
         -1    1    6    6    0  502 -0.83180957220E+02  0.19978933305E+02 -0.23356508489E+02  0.88677820839E+02  0.00000000000E+00 0.  1.
<mgrwt>
<rscale>  0 0.15870357E+04</rscale>
<asrwt>0</asrwt>
<pdfrwt beam="1">  1        1 0.25234483E+00 0.15870357E+04</pdfrwt>
<pdfrwt beam="2">  1       -1 0.59059842E-01 0.15870357E+04</pdfrwt>
<totfact> 0.14616035E+01</totfact>
</mgrwt>
</event>
<event>
12    1  0.1489233E-007  0.1360938E+04  0.7818608E-02  0.8982589E-01
          2   -1    0    0  501    0  0.00000000000E+00  0.00000000000E+00  0.13732274240E+04  0.13732274240E+04  0.00000000000E+00 0. -1.
         -2   -1    0    0    0  501 -0.00000000000E+00 -0.00000000000E+00 -0.33718985225E+03  0.33718985225E+03  0.00000000000E+00 0.  1.
         23    2    1    2    0    0  0.72120636789E+02 -0.10639850400E+03 -0.78737588388E+02  0.17686303743E+03  0.92514313922E+02 0.  0.
        254    2    1    2    0    0 -0.72120636789E+02  0.10639850400E+03  0.11147751601E+04  0.15335542388E+04  0.10452477782E+04 0.  0.
        -24    2    4    4    0    0 -0.17457850702E+03  0.53278984900E+03  0.82834357793E+03  0.10036380718E+04  0.82423404984E+02 0.  0.
         24    2    4    4    0    0  0.10245787024E+03 -0.42639134500E+03  0.28643158216E+03  0.52991616701E+03  0.80379714696E+02 0.  0.
         11    1    3    3    0    0  0.57374755203E+02 -0.62611585755E+02 -0.95421974975E+02  0.12773968261E+03  0.00000000000E+00 0.  1.
        -11    1    3    3    0    0  0.14745881586E+02 -0.43786918246E+02  0.16684386587E+02  0.49123354823E+02  0.00000000000E+00 0. -1.
          4    1    6    6  502    0  0.68715474144E+02 -0.38651949751E+03  0.26387023606E+03  0.47301864638E+03  0.00000000000E+00 0. -1.
          1    1    5    5  503    0 -0.17220133838E+03  0.50594570473E+03  0.81206394074E+03  0.97215338343E+03  0.00000000000E+00 0. -1.
         -2    1    5    5    0  503 -0.23771686456E+01  0.26844144271E+02  0.16279637195E+02  0.31484688336E+02  0.00000000000E+00 0.  1.
         -3    1    6    6    0  502  0.33742396091E+02 -0.39871847484E+02  0.22561346107E+02  0.56897520630E+02  0.00000000000E+00 0.  1.
<mgrwt>
<rscale>  0 0.13609384E+04</rscale>
<asrwt>0</asrwt>
<pdfrwt beam="1">  1        2 0.21126575E+00 0.13609384E+04</pdfrwt>
<pdfrwt beam="2">  1       -2 0.51875363E-01 0.13609384E+04</pdfrwt>
<totfact> 0.51335665E+01</totfact>
</mgrwt>
</event>
<event>
12    1  0.1489233E-007  0.1907426E+04  0.7818608E-02  0.8651169E-01
         -2   -1    0    0    0  501 -0.00000000000E+00  0.00000000000E+00  0.23520369178E+03  0.23520369178E+03  0.00000000000E+00 0. -1.
          2   -1    0    0  501    0  0.00000000000E+00 -0.00000000000E+00 -0.38671503016E+04  0.38671503016E+04  0.00000000000E+00 0.  1.
         23    2    1    2    0    0  0.57936965008E+03 -0.27875764201E+03 -0.22524180910E+04  0.23441836004E+04  0.91839434121E+02 0.  0.
        254    2    1    2    0    0 -0.57936965008E+03  0.27875764201E+03 -0.13795285188E+04  0.17581703929E+04  0.88016429255E+03 0.  0.
        -24    2    4    4    0    0 -0.27612487242E+03  0.53142044609E+03 -0.11367785139E+04  0.12873021187E+04  0.78922235783E+02 0.  0.
         24    2    4    4    0    0 -0.30324477766E+03 -0.25266280409E+03 -0.24275000490E+03  0.47086827425E+03  0.83627023585E+02 0.  0.
         11    1    3    3    0    0  0.66841706109E+02 -0.64894424929E+02 -0.28141117638E+03  0.29643102108E+03  0.00000000000E+00 0. -1.
        -11    1    3    3    0    0  0.51252794397E+03 -0.21386321708E+03 -0.19710069146E+04  0.20477525794E+04  0.00000000000E+00 0.  1.
          2    1    6    6  502    0 -0.24016955764E+02 -0.55403867129E+02 -0.50002648132E+02  0.78400685438E+02  0.00000000000E+00 0. -1.
          3    1    5    5  503    0 -0.11524136090E+03  0.15410568267E+03 -0.40543738619E+03  0.44878570255E+03  0.00000000000E+00 0. -1.
         -4    1    5    5    0  503 -0.16088351153E+03  0.37731476342E+03 -0.73134112774E+03  0.83851641612E+03  0.00000000000E+00 0.  1.
         -1    1    6    6    0  502 -0.27922782189E+03 -0.19725893696E+03 -0.19274735677E+03  0.39246758881E+03  0.00000000000E+00 0.  1.
<mgrwt>
<rscale>  0 0.19074255E+04</rscale>
<asrwt>0</asrwt>
<pdfrwt beam="1">  1        2 0.59494616E+00 0.19074255E+04</pdfrwt>
<pdfrwt beam="2">  1       -2 0.36185186E-01 0.19074255E+04</pdfrwt>
<totfact> 0.29645374E+00</totfact>
</mgrwt>
</event>
<event>
12    1  0.1489233E-007  0.1373150E+04  0.7818608E-02  0.8973487E-01
          1   -1    0    0  501    0  0.00000000000E+00  0.00000000000E+00  0.34913264304E+03  0.34913264304E+03  0.00000000000E+00 0. -1.
         -1   -1    0    0    0  501 -0.00000000000E+00 -0.00000000000E+00 -0.13501600976E+04  0.13501600976E+04  0.00000000000E+00 0.  1.
         23    2    1    2    0    0 -0.74530480413E+01  0.49894537647E+02 -0.75732073377E+03  0.76455470682E+03  0.92001049507E+02 0.  0.
        254    2    1    2    0    0  0.74530480413E+01 -0.49894537647E+02 -0.24370672078E+03  0.93473803381E+03  0.90099789860E+03 0.  0.
        -24    2    4    4    0    0 -0.34751353272E+02 -0.30757010502E+03  0.22585654169E+03  0.39160600582E+03  0.80852089139E+02 0.  0.
         24    2    4    4    0    0  0.42204401313E+02  0.25767556737E+03 -0.46956326247E+03  0.54313202799E+03  0.79528817791E+02 0.  0.
         13    1    3    3    0    0  0.21725410206E+01  0.76198930368E+02 -0.51282154657E+03  0.51845630052E+03  0.00000000000E+00 0.  1.
        -13    1    3    3    0    0 -0.96255890619E+01 -0.26304392722E+02 -0.24449918719E+03  0.24609840629E+03  0.00000000000E+00 0. -1.
          2    1    6    6  502    0  0.18785900158E+02  0.19169632915E+03 -0.40235253752E+03  0.44608066210E+03  0.00000000000E+00 0. -1.
          1    1    5    5  503    0  0.39310117047E+01 -0.17347093194E+03  0.16467349948E+03  0.23921742937E+03  0.00000000000E+00 0. -1.
         -2    1    5    5    0  503 -0.38682364977E+02 -0.13409917308E+03  0.61183042204E+02  0.15238857646E+03  0.00000000000E+00 0.  1.
         -1    1    6    6    0  502  0.23418501156E+02  0.65979238218E+02 -0.67210724950E+02  0.97051365887E+02  0.00000000000E+00 0.  1.
<mgrwt>
<rscale>  0 0.13731496E+04</rscale>
<asrwt>0</asrwt>
<pdfrwt beam="1">  1        1 0.53712714E-01 0.13731496E+04</pdfrwt>
<pdfrwt beam="2">  1       -1 0.20771694E+00 0.13731496E+04</pdfrwt>
<totfact> 0.93547505E+00</totfact>
</mgrwt>
</event>
<event>
12    1  0.1489233E-007  0.1783213E+04  0.7818608E-02  0.8715278E-01
         -2   -1    0    0    0  501 -0.00000000000E+00  0.00000000000E+00  0.44641787955E+03  0.44641787955E+03  0.00000000000E+00 0.  1.
          2   -1    0    0  501    0  0.00000000000E+00 -0.00000000000E+00 -0.17807584151E+04  0.17807584151E+04  0.00000000000E+00 0. -1.
         23    2    1    2    0    0 -0.65700073814E+03  0.38939938692E+02 -0.59275172527E+03  0.89043334656E+03  0.91381880687E+02 0.  0.
        254    2    1    2    0    0  0.65700073814E+03 -0.38939938692E+02 -0.74158881028E+03  0.13367429481E+04  0.89652744353E+03 0.  0.
        -24    2    4    4    0    0  0.14825913369E+02  0.19708412791E+03  0.11168767248E+03  0.24022628475E+03  0.78565708288E+02 0.  0.
         24    2    4    4    0    0  0.64217482477E+03 -0.23602406660E+03 -0.85327648276E+03  0.10965166633E+04  0.78563168029E+02 0.  0.
         11    1    3    3    0    0 -0.18388551707E+03 -0.29378427774E+02 -0.15580008879E+03  0.24279753514E+03  0.00000000000E+00 0.  1.
        -11    1    3    3    0    0 -0.47311522107E+03  0.68318366466E+02 -0.43695163648E+03  0.64763581141E+03  0.00000000000E+00 0. -1.
          4    1    6    6  502    0  0.99825862654E+02 -0.79684372967E+01 -0.13314082339E+03  0.16659885264E+03  0.00000000000E+00 0. -1.
          3    1    5    5  503    0  0.35010598171E+02  0.57835818903E+02  0.59802266460E+02  0.90260927350E+02  0.00000000000E+00 0. -1.
         -4    1    5    5    0  503 -0.20184684802E+02  0.13924830900E+03  0.51885406024E+02  0.14996535740E+03  0.00000000000E+00 0.  1.
         -3    1    6    6    0  502  0.54234896212E+03 -0.22805562930E+03 -0.72013565937E+03  0.92991781070E+03  0.00000000000E+00 0.  1.
<mgrwt>
<rscale>  0 0.17832133E+04</rscale>
<asrwt>0</asrwt>
<pdfrwt beam="1">  1        2 0.27396284E+00 0.17832133E+04</pdfrwt>
<pdfrwt beam="2">  1       -2 0.68679672E-01 0.17832133E+04</pdfrwt>
<totfact> 0.16198660E+01</totfact>
</mgrwt>
</event>
<event>
12    1  0.1489233E-007  0.2044970E+04  0.7818608E-02  0.8585879E-01
         -2   -1    0    0    0  501 -0.00000000000E+00  0.00000000000E+00  0.16707268810E+04  0.16707268810E+04  0.00000000000E+00 0. -1.
          2   -1    0    0  501    0  0.00000000000E+00 -0.00000000000E+00 -0.62576117292E+03  0.62576117292E+03  0.00000000000E+00 0.  1.
         23    2    1    2    0    0 -0.70813572138E+03 -0.17305085635E+03 -0.34444734810E+01  0.73491802062E+03  0.93219278358E+02 0.  0.
        254    2    1    2    0    0  0.70813572138E+03  0.17305085635E+03  0.10484101816E+04  0.15615700333E+04  0.89885163479E+03 0.  0.
        -24    2    4    4    0    0  0.48957432887E+03  0.42092868384E+03  0.25507784285E+03  0.69838670550E+03  0.76258141485E+02 0.  0.
         24    2    4    4    0    0  0.21856139251E+03 -0.24787782749E+03  0.79333233874E+03  0.86318332783E+03  0.80602469560E+02 0.  0.
         11    1    3    3    0    0 -0.41329889789E+03 -0.12701801482E+03 -0.40259446821E+02  0.43424690919E+03  0.00000000000E+00 0. -1.
        -11    1    3    3    0    0 -0.29483682349E+03 -0.46032841535E+02  0.36814973340E+02  0.30067111143E+03  0.00000000000E+00 0.  1.
          4    1    6    6  502    0  0.49586285084E+01 -0.93954797200E+01  0.39273145380E+01  0.11326377856E+02  0.00000000000E+00 0. -1.
          3    1    5    5  503    0  0.40374005879E+02  0.22967204020E+02  0.39027337443E+00  0.46451104664E+02  0.00000000000E+00 0. -1.
         -4    1    5    5    0  503  0.44920032299E+03  0.39796147982E+03  0.25468756948E+03  0.65193560084E+03  0.00000000000E+00 0.  1.
         -3    1    6    6    0  502  0.21360276400E+03 -0.23848234777E+03  0.78940502420E+03  0.85185694998E+03  0.00000000000E+00 0.  1.
<mgrwt>
<rscale>  0 0.20449704E+04</rscale>
<asrwt>0</asrwt>
<pdfrwt beam="1">  1        2 0.96270950E-01 0.20449704E+04</pdfrwt>
<pdfrwt beam="2">  1       -2 0.25703490E+00 0.20449704E+04</pdfrwt>
<totfact> 0.25372532E+00</totfact>
</mgrwt>
</event>
<event>
12    1  0.1489233E-007  0.2826604E+04  0.7818608E-02  0.8295056E-01
         -2   -1    0    0    0  501 -0.00000000000E+00  0.00000000000E+00  0.16747155731E+04  0.16747155731E+04  0.00000000000E+00 0.  1.
          2   -1    0    0  501    0  0.00000000000E+00 -0.00000000000E+00 -0.11926933150E+04  0.11926933150E+04  0.00000000000E+00 0. -1.
         23    2    1    2    0    0  0.27988311653E+03  0.96623060705E+03 -0.56064433847E+03  0.11552420286E+04  0.91246508991E+02 0.  0.
        254    2    1    2    0    0 -0.27988311653E+03 -0.96623060705E+03  0.10426665966E+04  0.17121668596E+04  0.91237359593E+03 0.  0.
        -24    2    4    4    0    0 -0.15031553396E+03  0.10613862041E+03 -0.11985977692E+02  0.20066784317E+03  0.79143876135E+02 0.  0.
         24    2    4    4    0    0 -0.12956758257E+03 -0.10723692275E+04  0.10546525743E+04  0.15114990164E+04  0.74657255323E+02 0.  0.
         13    1    3    3    0    0  0.45815765454E+02  0.71983862087E+02 -0.56377304155E+02  0.10227004052E+03  0.00000000000E+00 0. -1.
        -13    1    3    3    0    0  0.23406735108E+03  0.89424674497E+03 -0.50426703431E+03  0.10529719880E+04  0.00000000000E+00 0.  1.
          2    1    6    6  502    0 -0.13698540717E+03 -0.95843479066E+03  0.95564128703E+03  0.13603721988E+04  0.00000000000E+00 0. -1.
          3    1    5    5  503    0 -0.12825417148E+02  0.42147835833E+02 -0.20883413799E+02  0.48754982949E+02  0.00000000000E+00 0. -1.
         -4    1    5    5    0  503 -0.13749011682E+03  0.63990784577E+02  0.88974361069E+01  0.15191286023E+03  0.00000000000E+00 0.  1.
         -1    1    6    6    0  502  0.74178246025E+01 -0.11393443680E+03  0.99011287238E+02  0.15112681764E+03  0.00000000000E+00 0.  1.
<mgrwt>
<rscale>  0 0.28266037E+04</rscale>
<asrwt>0</asrwt>
<pdfrwt beam="1">  1        2 0.18349128E+00 0.28266037E+04</pdfrwt>
<pdfrwt beam="2">  1       -2 0.25764855E+00 0.28266037E+04</pdfrwt>
<totfact> 0.95807676E-01</totfact>
</mgrwt>
</event>
<event>
12    1  0.1489233E-007  0.2347029E+04  0.7818608E-02  0.8459606E-01
          1   -1    0    0  501    0  0.00000000000E+00  0.00000000000E+00  0.59882600865E+03  0.59882600865E+03  0.00000000000E+00 0. -1.
         -1   -1    0    0    0  501 -0.00000000000E+00 -0.00000000000E+00 -0.22997260699E+04  0.22997260699E+04  0.00000000000E+00 0.  1.
         23    2    1    2    0    0 -0.78158264608E+03 -0.33393490910E+03 -0.13633625907E+04  0.16093453330E+04  0.94079174533E+02 0.  0.
        254    2    1    2    0    0  0.78158264608E+03  0.33393490910E+03 -0.33753747064E+03  0.12892067456E+04  0.90870156411E+03 0.  0.
        -24    2    4    4    0    0  0.85935296044E+01 -0.24989280273E+03 -0.13529933697E+03  0.29565223758E+03  0.81142303338E+02 0.  0.
         24    2    4    4    0    0  0.77298911648E+03  0.58382771183E+03 -0.20223813367E+03  0.99355450801E+03  0.88788098234E+02 0.  0.
         11    1    3    3    0    0 -0.57163149130E+03 -0.20331026658E+03 -0.10055660321E+04  0.11744192911E+04  0.00000000000E+00 0.  1.
        -11    1    3    3    0    0 -0.20995115478E+03 -0.13062464251E+03 -0.35779655851E+03  0.43492604188E+03  0.00000000000E+00 0. -1.
          2    1    6    6  502    0  0.10183483014E+03  0.11524552467E+03 -0.21434732701E+02  0.15527817410E+03  0.00000000000E+00 0. -1.
          3    1    5    5  503    0 -0.19265808340E+02 -0.63605038255E+02 -0.50602698853E+01  0.66651170986E+02  0.00000000000E+00 0. -1.
         -4    1    5    5    0  503  0.27859337945E+02 -0.18628776448E+03 -0.13023906709E+03  0.22900106659E+03  0.00000000000E+00 0.  1.
         -1    1    6    6    0  502  0.67115428634E+03  0.46858218716E+03 -0.18080340097E+03  0.83827633391E+03  0.00000000000E+00 0.  1.
<mgrwt>
<rscale>  0 0.23470286E+04</rscale>
<asrwt>0</asrwt>
<pdfrwt beam="1">  1        1 0.92127078E-01 0.23470286E+04</pdfrwt>
<pdfrwt beam="2">  1       -1 0.35380401E+00 0.23470286E+04</pdfrwt>
<totfact> 0.45353393E-01</totfact>
</mgrwt>
</event>
<event>
12    1  0.1489233E-007  0.2569943E+04  0.7818608E-02  0.8378483E-01
          1   -1    0    0  501    0  0.00000000000E+00  0.00000000000E+00  0.65006426320E+03  0.65006426320E+03  0.00000000000E+00 0. -1.
         -1   -1    0    0    0  501 -0.00000000000E+00 -0.00000000000E+00 -0.25399817579E+04  0.25399817579E+04  0.00000000000E+00 0.  1.
         23    2    1    2    0    0 -0.46840272250E+03 -0.80212153043E+03 -0.43298235418E+02  0.93439954564E+03  0.91802579846E+02 0.  0.
        254    2    1    2    0    0  0.46840272250E+03  0.80212153043E+03 -0.18466192593E+04  0.22556464754E+04  0.90285008359E+03 0.  0.
        -24    2    4    4    0    0  0.14541680464E+03  0.69875301341E+03 -0.17547102498E+04  0.18960038222E+04  0.80128723077E+02 0.  0.
         24    2    4    4    0    0  0.32298591787E+03  0.10336851703E+03 -0.91909009422E+02  0.35964265319E+03  0.76750365017E+02 0.  0.
         11    1    3    3    0    0 -0.43693975156E+03 -0.78019929132E+03 -0.33623159095E+02  0.89485071241E+03  0.00000000000E+00 0. -1.
        -11    1    3    3    0    0 -0.31462970937E+02 -0.21922239118E+02 -0.96750763221E+01  0.39548833232E+02  0.00000000000E+00 0.  1.
          2    1    6    6  502    0  0.29358798026E+03  0.67708816967E+02 -0.83694679199E+02  0.31270303065E+03  0.00000000000E+00 0. -1.
          1    1    5    5  503    0  0.12060112969E+03  0.63819863257E+03 -0.15349720573E+04  0.16667277354E+04  0.00000000000E+00 0. -1.
         -2    1    5    5    0  503  0.24815674941E+02  0.60554380840E+02 -0.21973819253E+03  0.22927608688E+03  0.00000000000E+00 0.  1.
         -1    1    6    6    0  502  0.29397937606E+02  0.35659700061E+02 -0.82143302232E+01  0.46939622548E+02  0.00000000000E+00 0.  1.
<mgrwt>
<rscale>  0 0.25699427E+04</rscale>
<asrwt>0</asrwt>
<pdfrwt beam="1">  1        1 0.10000988E+00 0.25699427E+04</pdfrwt>
<pdfrwt beam="2">  1       -1 0.39076643E+00 0.25699427E+04</pdfrwt>
<totfact> 0.22238416E-01</totfact>
</mgrwt>
</event>
<event>
12    1  0.1489233E-007  0.1132540E+04  0.7818608E-02  0.9174044E-01
         -1   -1    0    0    0  501 -0.00000000000E+00  0.00000000000E+00  0.50946896925E+03  0.50946896925E+03  0.00000000000E+00 0.  1.
          1   -1    0    0  501    0  0.00000000000E+00 -0.00000000000E+00 -0.62940435198E+03  0.62940435198E+03  0.00000000000E+00 0. -1.
         23    2    1    2    0    0 -0.67739280995E+02  0.51160010700E+02 -0.18986672847E+03  0.22774211402E+03  0.92796223161E+02 0.  0.
        254    2    1    2    0    0  0.67739280995E+02 -0.51160010700E+02  0.69931345732E+02  0.91113120721E+03  0.90446875388E+03 0.  0.
        -24    2    4    4    0    0  0.34570047366E+03 -0.70417102476E+02 -0.28063266695E+03  0.45779360212E+03  0.79705097575E+02 0.  0.
         24    2    4    4    0    0 -0.27796119266E+03  0.19257091776E+02  0.35056401268E+03  0.45333760509E+03  0.70615840938E+02 0.  0.
         11    1    3    3    0    0  0.22021917788E+02  0.20666534534E+02 -0.57236321711E+02  0.64715276680E+02  0.00000000000E+00 0.  1.
        -11    1    3    3    0    0 -0.89761198783E+02  0.30493476166E+02 -0.13263040676E+03  0.16302683734E+03  0.00000000000E+00 0. -1.
          4    1    6    6  502    0 -0.31091128450E+01 -0.46623244973E+01  0.29465701075E+02  0.29993855908E+02  0.00000000000E+00 0. -1.
          3    1    5    5  503    0  0.77188758745E+02 -0.21421343422E+01 -0.25942490789E+02  0.81459843140E+02  0.00000000000E+00 0. -1.
         -4    1    5    5    0  503  0.26851171491E+03 -0.68274968134E+02 -0.25469017616E+03  0.37633375898E+03  0.00000000000E+00 0.  1.
         -3    1    6    6    0  502 -0.27485207982E+03  0.23919416273E+02  0.32109831160E+03  0.42334374918E+03  0.00000000000E+00 0.  1.
<mgrwt>
<rscale>  0 0.11325405E+04</rscale>
<asrwt>0</asrwt>
<pdfrwt beam="1">  1        1 0.96831439E-01 0.11325405E+04</pdfrwt>
<pdfrwt beam="2">  1       -1 0.78379842E-01 0.11325405E+04</pdfrwt>
<totfact> 0.51770998E+01</totfact>
</mgrwt>
</event>
<event>
12    1  0.1489233E-007  0.1433400E+04  0.7818608E-02  0.8929991E-01
         -2   -1    0    0    0  501 -0.00000000000E+00  0.00000000000E+00  0.29127169384E+03  0.29127169384E+03  0.00000000000E+00 0.  1.
          2   -1    0    0  501    0  0.00000000000E+00 -0.00000000000E+00 -0.17635038756E+04  0.17635038756E+04  0.00000000000E+00 0. -1.
         23    2    1    2    0    0  0.10271730272E+03 -0.84033356750E+02 -0.10293173418E+04  0.10413472276E+04  0.85424873560E+02 0.  0.
        254    2    1    2    0    0 -0.10271730272E+03  0.84033356750E+02 -0.44291483992E+03  0.10134283418E+04  0.90180430203E+03 0.  0.
        -24    2    4    4    0    0  0.33554456922E+03 -0.11541320805E+03 -0.37197417773E+03  0.52018293862E+03  0.79467818713E+02 0.  0.
         24    2    4    4    0    0 -0.43826187194E+03  0.19944656480E+03 -0.70940662191E+02  0.49324540315E+03  0.80037800837E+02 0.  0.
         13    1    3    3    0    0  0.53822770879E+02 -0.33791085921E+02 -0.77322338046E+03  0.77583060280E+03  0.00000000000E+00 0. -1.
        -13    1    3    3    0    0  0.48894531845E+02 -0.50242270829E+02 -0.25609396136E+03  0.26551662485E+03  0.00000000000E+00 0.  1.
          2    1    6    6  502    0 -0.97584890271E+02  0.17276179465E+02  0.61926748497E+01  0.99295651505E+02  0.00000000000E+00 0. -1.
          1    1    5    5  503    0  0.10586279808E+03 -0.20084543271E+02 -0.16280235211E+03  0.19523044524E+03  0.00000000000E+00 0. -1.
         -2    1    5    5    0  503  0.22968177114E+03 -0.95328664784E+02 -0.20917182562E+03  0.32495249338E+03  0.00000000000E+00 0.  1.
         -1    1    6    6    0  502 -0.34067698167E+03  0.18217038534E+03 -0.77133337041E+02  0.39394975164E+03  0.00000000000E+00 0.  1.
<mgrwt>
<rscale>  0 0.14333998E+04</rscale>
<asrwt>0</asrwt>
<pdfrwt beam="1">  1        2 0.27130828E+00 0.14333998E+04</pdfrwt>
<pdfrwt beam="2">  1       -2 0.44811031E-01 0.14333998E+04</pdfrwt>
<totfact> 0.41457177E+01</totfact>
</mgrwt>
</event>
<event>
12    1  0.1489233E-007  0.2295084E+04  0.7818608E-02  0.8479862E-01
          2   -1    0    0  501    0  0.00000000000E+00  0.00000000000E+00  0.32081799837E+04  0.32081799837E+04  0.00000000000E+00 0. -1.
         -2   -1    0    0    0  501 -0.00000000000E+00 -0.00000000000E+00 -0.41046704167E+03  0.41046704167E+03  0.00000000000E+00 0.  1.
         23    2    1    2    0    0  0.24765226162E+03 -0.52770491074E+03  0.24267033543E+04  0.24973936986E+04  0.91005499147E+02 0.  0.
        254    2    1    2    0    0 -0.24765226162E+03  0.52770491074E+03  0.37100958773E+03  0.11212533267E+04  0.88303838702E+03 0.  0.
        -24    2    4    4    0    0  0.40428667411E+02  0.65180876492E+03  0.41757011801E+02  0.65987541756E+03  0.84869166877E+02 0.  0.
         24    2    4    4    0    0 -0.28808092904E+03 -0.12410385418E+03  0.32925257593E+03  0.46137790914E+03  0.77909742614E+02 0.  0.
         13    1    3    3    0    0  0.22745674969E+03 -0.51794269745E+03  0.22882975938E+04  0.23571820228E+04  0.00000000000E+00 0. -1.
        -13    1    3    3    0    0  0.20195511936E+02 -0.97622132909E+01  0.13840576046E+03  0.14021167583E+03  0.00000000000E+00 0.  1.
          2    1    6    6  502    0 -0.22372439680E+03 -0.94488671416E+02  0.29667837523E+03  0.38340419022E+03  0.00000000000E+00 0. -1.
          3    1    5    5  503    0  0.21749470755E+02  0.53438737778E+03  0.30591385671E+01  0.53483854324E+03  0.00000000000E+00 0. -1.
         -4    1    5    5    0  503  0.18679196657E+02  0.11742138714E+03  0.38697873234E+02  0.12503687432E+03  0.00000000000E+00 0.  1.
         -3    1    6    6    0  502 -0.64356532238E+02 -0.29615182765E+02  0.32574200699E+02  0.77973718925E+02  0.00000000000E+00 0.  1.
<mgrwt>
<rscale>  0 0.22950836E+04</rscale>
<asrwt>0</asrwt>
<pdfrwt beam="1">  1        2 0.49356614E+00 0.22950836E+04</pdfrwt>
<pdfrwt beam="2">  1       -2 0.63148778E-01 0.22950836E+04</pdfrwt>
<totfact> 0.27025022E+00</totfact>
</mgrwt>
</event>
<event>
12    1  0.1489233E-007  0.1420459E+04  0.7818608E-02  0.8939141E-01
          2   -1    0    0  501    0  0.00000000000E+00  0.00000000000E+00  0.23929977061E+04  0.23929977061E+04  0.00000000000E+00 0.  1.
         -2   -1    0    0    0  501 -0.00000000000E+00 -0.00000000000E+00 -0.21079241238E+03  0.21079241238E+03  0.00000000000E+00 0. -1.
         23    2    1    2    0    0 -0.34158195864E+03  0.22943143737E+03  0.43940834280E+03  0.60883556267E+03  0.91016656363E+02 0.  0.
        254    2    1    2    0    0  0.34158195864E+03 -0.22943143737E+03  0.17427969509E+04  0.19949545558E+04  0.87930964322E+03 0.  0.
        -24    2    4    4    0    0 -0.16285515959E+03 -0.12146970401E+03  0.51044166823E+02  0.22453798305E+03  0.80840007848E+02 0.  0.
         24    2    4    4    0    0  0.50443711822E+03 -0.10796173335E+03  0.16917527841E+04  0.17704165728E+04  0.78960853945E+02 0.  0.
         11    1    3    3    0    0 -0.17292092035E+03  0.11672794178E+03  0.28838238223E+03  0.35593743196E+03  0.00000000000E+00 0.  1.
        -11    1    3    3    0    0 -0.16866103829E+03  0.11270349558E+03  0.15102596057E+03  0.25289813072E+03  0.00000000000E+00 0. -1.
          2    1    6    6  502    0  0.47100934985E+03 -0.79229197196E+02  0.15607056071E+04  0.16321547308E+04  0.00000000000E+00 0. -1.
          3    1    5    5  503    0 -0.15780518889E+03 -0.11569922557E+03  0.67005925129E+02  0.20682983934E+03  0.00000000000E+00 0. -1.
         -4    1    5    5    0  503 -0.50499706953E+01 -0.57704784421E+01 -0.15961758306E+02  0.17708143711E+02  0.00000000000E+00 0.  1.
         -1    1    6    6    0  502  0.33427768376E+02 -0.28732536159E+02  0.13104717707E+03  0.13826184199E+03  0.00000000000E+00 0.  1.
<mgrwt>
<rscale>  0 0.14204587E+04</rscale>
<asrwt>0</asrwt>
<pdfrwt beam="1">  1        2 0.36815348E+00 0.14204587E+04</pdfrwt>
<pdfrwt beam="2">  1       -2 0.32429603E-01 0.14204587E+04</pdfrwt>
<totfact> 0.34633973E+01</totfact>
</mgrwt>
</event>
<event>
12    1  0.1489233E-007  0.1578288E+04  0.7818608E-02  0.8833999E-01
          1   -1    0    0  501    0  0.00000000000E+00  0.00000000000E+00  0.41744180089E+03  0.41744180089E+03  0.00000000000E+00 0. -1.
         -1   -1    0    0    0  501 -0.00000000000E+00 -0.00000000000E+00 -0.14918202030E+04  0.14918202030E+04  0.00000000000E+00 0.  1.
         23    2    1    2    0    0  0.40396022696E+03  0.15201312379E+03 -0.72155432498E+03  0.84568078838E+03  0.90793706683E+02 0.  0.
        254    2    1    2    0    0 -0.40396022696E+03 -0.15201312379E+03 -0.35282407712E+03  0.10635812155E+04  0.90577498188E+03 0.  0.
        -24    2    4    4    0    0 -0.21780955393E+03  0.17353011285E+02 -0.63539544172E+03  0.67676217309E+03  0.80855072683E+02 0.  0.
         24    2    4    4    0    0 -0.18615067303E+03 -0.16936613507E+03  0.28257136460E+03  0.38681904241E+03  0.80283464680E+02 0.  0.
         11    1    3    3    0    0  0.40654728398E+03  0.14186845087E+03 -0.70487574481E+03  0.82598859985E+03  0.00000000000E+00 0.  1.
        -11    1    3    3    0    0 -0.25870570196E+01  0.10144672920E+02 -0.16678580170E+02  0.19692188531E+02  0.00000000000E+00 0. -1.
          2    1    6    6  502    0 -0.18438691416E+03 -0.14707104596E+03  0.27692508544E+03  0.36375256648E+03  0.00000000000E+00 0. -1.
          3    1    5    5  503    0 -0.19792274755E+03  0.40929738697E+02 -0.54781798559E+03  0.58391198210E+03  0.00000000000E+00 0. -1.
         -4    1    5    5    0  503 -0.19886806378E+02 -0.23576727412E+02 -0.87577456137E+02  0.92850190989E+02  0.00000000000E+00 0.  1.
         -1    1    6    6    0  502 -0.17637588711E+01 -0.22295089107E+02  0.56462791646E+01  0.23066475935E+02  0.00000000000E+00 0.  1.
<mgrwt>
<rscale>  0 0.15782878E+04</rscale>
<asrwt>0</asrwt>
<pdfrwt beam="1">  1        1 0.64221815E-01 0.15782878E+04</pdfrwt>
<pdfrwt beam="2">  1       -1 0.22951080E+00 0.15782878E+04</pdfrwt>
<totfact> 0.51802660E+00</totfact>
</mgrwt>
</event>
<event>
12    1  0.1489233E-007  0.2859975E+04  0.7818608E-02  0.8284887E-01
          1   -1    0    0  501    0  0.00000000000E+00  0.00000000000E+00  0.19302365439E+04  0.19302365439E+04  0.00000000000E+00 0. -1.
         -1   -1    0    0    0  501 -0.00000000000E+00 -0.00000000000E+00 -0.10593850495E+04  0.10593850495E+04  0.00000000000E+00 0.  1.
         23    2    1    2    0    0  0.46610668390E+03 -0.40713541106E+03 -0.78246050142E+03  0.10017079925E+04  0.90331512730E+02 0.  0.
        254    2    1    2    0    0 -0.46610668390E+03  0.40713541106E+03  0.16533119958E+04  0.19879136010E+04  0.91397223463E+03 0.  0.
        -24    2    4    4    0    0 -0.10174054118E+03  0.18998885151E+02 -0.92411896235E+02  0.16115861343E+03  0.81975879134E+02 0.  0.
         24    2    4    4    0    0 -0.36436614272E+03  0.38813652591E+03  0.17457238921E+04  0.18267549875E+04  0.77905253420E+02 0.  0.
         13    1    3    3    0    0  0.32966989780E+03 -0.27617708223E+03 -0.47522470734E+03  0.64093255864E+03  0.00000000000E+00 0.  1.
        -13    1    3    3    0    0  0.13643678610E+03 -0.13095832883E+03 -0.30723579409E+03  0.36077543383E+03  0.00000000000E+00 0. -1.
          2    1    6    6  502    0 -0.39032376854E+02  0.42270460227E+02  0.11954094899E+03  0.13266633611E+03  0.00000000000E+00 0. -1.
          3    1    5    5  503    0 -0.20962813985E+02  0.35066064753E+02 -0.51664724533E+01  0.41179617592E+02  0.00000000000E+00 0. -1.
         -4    1    5    5    0  503 -0.80777727194E+02 -0.16067179601E+02 -0.87245423781E+02  0.11997899584E+03  0.00000000000E+00 0.  1.
         -1    1    6    6    0  502 -0.32533376587E+03  0.34586606568E+03  0.16261829431E+04  0.16940886514E+04  0.00000000000E+00 0.  1.
<mgrwt>
<rscale>  0 0.28599746E+04</rscale>
<asrwt>0</asrwt>
<pdfrwt beam="1">  1        1 0.29695947E+00 0.28599746E+04</pdfrwt>
<pdfrwt beam="2">  1       -1 0.16298232E+00 0.28599746E+04</pdfrwt>
<totfact> 0.79420700E-01</totfact>
</mgrwt>
</event>
<event>
12    1  0.1489233E-007  0.1842199E+04  0.7818608E-02  0.8684175E-01
         -1   -1    0    0    0  501 -0.00000000000E+00  0.00000000000E+00  0.45956054145E+03  0.45956054145E+03  0.00000000000E+00 0.  1.
          1   -1    0    0  501    0  0.00000000000E+00 -0.00000000000E+00 -0.18461634658E+04  0.18461634658E+04  0.00000000000E+00 0. -1.
         23    2    1    2    0    0 -0.58566147983E+03 -0.37086238974E+03 -0.45030226649E+03  0.83153322827E+03  0.90205861446E+02 0.  0.
        254    2    1    2    0    0  0.58566147983E+03  0.37086238974E+03 -0.93630065783E+03  0.14741907789E+04  0.90335001510E+03 0.  0.
        -24    2    4    4    0    0  0.16463458350E+03 -0.27640146062E+03 -0.44570103003E+03  0.55587113102E+03  0.82710293326E+02 0.  0.
         24    2    4    4    0    0  0.42102689633E+03  0.64726385036E+03 -0.49059962781E+03  0.91831964792E+03  0.80055240525E+02 0.  0.
         11    1    3    3    0    0 -0.12796473297E+03 -0.12508171492E+03 -0.10055028283E+03  0.20525780782E+03  0.00000000000E+00 0. -1.
        -11    1    3    3    0    0 -0.45769674685E+03 -0.24578067482E+03 -0.34975198366E+03  0.62627542046E+03  0.00000000000E+00 0.  1.
          4    1    6    6  502    0  0.35337655276E+03  0.48804599247E+03 -0.36413898932E+03  0.70403201799E+03  0.00000000000E+00 0. -1.
          3    1    5    5  503    0  0.16547394762E+02 -0.76077752589E+02 -0.15175346548E+03  0.17056012136E+03  0.00000000000E+00 0. -1.
         -2    1    5    5    0  503  0.14808718874E+03 -0.20032370803E+03 -0.29394756455E+03  0.38531100967E+03  0.00000000000E+00 0.  1.
         -3    1    6    6    0  502  0.67650343568E+02  0.15921785789E+03 -0.12646063848E+03  0.21428762993E+03  0.00000000000E+00 0.  1.
<mgrwt>
<rscale>  0 0.18421986E+04</rscale>
<asrwt>0</asrwt>
<pdfrwt beam="1">  1        1 0.28402515E+00 0.18421986E+04</pdfrwt>
<pdfrwt beam="2">  1       -1 0.70701621E-01 0.18421986E+04</pdfrwt>
<totfact> 0.72024141E+00</totfact>
</mgrwt>
</event>
<event>
12    1  0.1489233E-007  0.2051789E+04  0.7818608E-02  0.8582783E-01
         -2   -1    0    0    0  501 -0.00000000000E+00  0.00000000000E+00  0.18655446400E+04  0.18655446400E+04  0.00000000000E+00 0.  1.
          2   -1    0    0  501    0  0.00000000000E+00 -0.00000000000E+00 -0.56415686958E+03  0.56415686958E+03  0.00000000000E+00 0. -1.
         23    2    1    2    0    0 -0.73718340438E+01  0.26959788675E+03  0.14487522867E+04  0.14764786263E+04  0.91479951250E+02 0.  0.
        254    2    1    2    0    0  0.73718340438E+01 -0.26959788675E+03 -0.14736451625E+03  0.95322288323E+03  0.90231934479E+03 0.  0.
        -24    2    4    4    0    0  0.27301496059E+02 -0.19423742250E+03  0.36946832072E+03  0.42577847615E+03  0.79416136617E+02 0.  0.
         24    2    4    4    0    0 -0.19929662015E+02 -0.75360464249E+02 -0.51683283697E+03  0.52744440707E+03  0.70746237971E+02 0.  0.
         11    1    3    3    0    0 -0.14896059653E+02  0.59821105057E+02  0.17489152457E+03  0.18543867604E+03  0.00000000000E+00 0. -1.
        -11    1    3    3    0    0  0.75242256090E+01  0.20977678169E+03  0.12738607621E+04  0.12910399503E+04  0.00000000000E+00 0.  1.
          4    1    6    6  502    0 -0.16192193183E+02 -0.47773022181E+02 -0.12747246969E+03  0.13709004084E+03  0.00000000000E+00 0. -1.
          3    1    5    5  503    0 -0.18188260368E+02 -0.85017613610E+01  0.42338602270E+02  0.46857763537E+02  0.00000000000E+00 0. -1.
         -4    1    5    5    0  503  0.45489756427E+02 -0.18573566114E+03  0.32712971845E+03  0.37892071262E+03  0.00000000000E+00 0.  1.
         -1    1    6    6    0  502 -0.37374688324E+01 -0.27587442068E+02 -0.38936036728E+03  0.39035436624E+03  0.00000000000E+00 0.  1.
<mgrwt>
<rscale>  0 0.20517893E+04</rscale>
<asrwt>0</asrwt>
<pdfrwt beam="1">  1        2 0.86793366E-01 0.20517893E+04</pdfrwt>
<pdfrwt beam="2">  1       -2 0.28700686E+00 0.20517893E+04</pdfrwt>
<totfact> 0.18868735E+00</totfact>
</mgrwt>
</event>
<event>
12    1  0.1489233E-007  0.3294986E+04  0.7818608E-02  0.8164172E-01
         -1   -1    0    0    0  501 -0.00000000000E+00  0.00000000000E+00  0.14103097531E+04  0.14103097531E+04  0.00000000000E+00 0.  1.
          1   -1    0    0  501    0  0.00000000000E+00 -0.00000000000E+00 -0.19245649603E+04  0.19245649603E+04  0.00000000000E+00 0. -1.
         23    2    1    2    0    0  0.48979295006E+03  0.44353988664E+03  0.11485947661E+04  0.13284336156E+04  0.94027492844E+02 0.  0.
        254    2    1    2    0    0 -0.48979295006E+03 -0.44353988664E+03 -0.16628499733E+04  0.20064410977E+04  0.90780563997E+03 0.  0.
        -24    2    4    4    0    0 -0.20777158143E+03 -0.30949345018E+03 -0.16396415685E+04  0.16834363118E+04  0.81105593014E+02 0.  0.
         24    2    4    4    0    0 -0.28202136864E+03 -0.13404643646E+03 -0.23208404816E+02  0.32300478587E+03  0.79302976905E+02 0.  0.
         11    1    3    3    0    0  0.38569909400E+03  0.34062599489E+03  0.96502998850E+03  0.10936511044E+04  0.00000000000E+00 0. -1.
        -11    1    3    3    0    0  0.10409385606E+03  0.10291389175E+03  0.18356477760E+03  0.23478251119E+03  0.00000000000E+00 0.  1.
          4    1    6    6  502    0 -0.61647338212E+02 -0.65362138645E+01 -0.28760627222E+02  0.68339520620E+02  0.00000000000E+00 0. -1.
          1    1    5    5  503    0 -0.10654453522E+02 -0.62621929717E+02 -0.21494322777E+03  0.22413302886E+03  0.00000000000E+00 0. -1.
         -2    1    5    5    0  503 -0.19711712790E+03 -0.24687152046E+03 -0.14246983407E+04  0.14593032830E+04  0.00000000000E+00 0.  1.
         -3    1    6    6    0  502 -0.22037403043E+03 -0.12751022259E+03  0.55522224057E+01  0.25466526525E+03  0.00000000000E+00 0.  1.
<mgrwt>
<rscale>  0 0.32949857E+04</rscale>
<asrwt>0</asrwt>
<pdfrwt beam="1">  1        1 0.29608692E+00 0.32949857E+04</pdfrwt>
<pdfrwt beam="2">  1       -1 0.21697073E+00 0.32949857E+04</pdfrwt>
<totfact> 0.32096183E-01</totfact>
</mgrwt>
</event>
<event>
12    1  0.1489233E-007  0.2722422E+04  0.7818608E-02  0.8327766E-01
         -1   -1    0    0    0  501 -0.00000000000E+00  0.00000000000E+00  0.10665687748E+04  0.10665687748E+04  0.00000000000E+00 0.  1.
          1   -1    0    0  501    0  0.00000000000E+00 -0.00000000000E+00 -0.17372486215E+04  0.17372486215E+04  0.00000000000E+00 0. -1.
         23    2    1    2    0    0 -0.12113282839E+04 -0.51298714448E+02 -0.31415935971E+03  0.12556677677E+04  0.89764526375E+02 0.  0.
        254    2    1    2    0    0  0.12113282839E+04  0.51298714448E+02 -0.35652048697E+03  0.15481496287E+04  0.89426654065E+03 0.  0.
        -24    2    4    4    0    0  0.41523648441E+03  0.44310456188E+03 -0.10087183689E+03  0.62082658320E+03  0.80545193499E+02 0.  0.
         24    2    4    4    0    0  0.79609179945E+03 -0.39180584743E+03 -0.25564865009E+03  0.92732304546E+03  0.85427297212E+02 0.  0.
         13    1    3    3    0    0 -0.62215143126E+03  0.95181517487E+01 -0.18883099174E+03  0.65024621650E+03  0.00000000000E+00 0.  1.
        -13    1    3    3    0    0 -0.58917685260E+03 -0.60816866197E+02 -0.12532836797E+03  0.60542155121E+03  0.00000000000E+00 0. -1.
          2    1    6    6  502    0  0.40461733741E+03 -0.21799148744E+03 -0.17306433178E+03  0.49110766769E+03  0.00000000000E+00 0. -1.
          3    1    5    5  503    0  0.34700673183E+03  0.34905004591E+03 -0.52559879811E+02  0.49498701746E+03  0.00000000000E+00 0. -1.
         -4    1    5    5    0  503  0.68229752574E+02  0.94054515971E+02 -0.48311957077E+02  0.12583956575E+03  0.00000000000E+00 0.  1.
         -1    1    6    6    0  502  0.39147446205E+03 -0.17381435999E+03 -0.82584318306E+02  0.43621537777E+03  0.00000000000E+00 0.  1.
<mgrwt>
<rscale>  0 0.27224218E+04</rscale>
<asrwt>0</asrwt>
<pdfrwt beam="1">  1        1 0.26726902E+00 0.27224218E+04</pdfrwt>
<pdfrwt beam="2">  1       -1 0.16408751E+00 0.27224218E+04</pdfrwt>
<totfact> 0.10664561E+00</totfact>
</mgrwt>
</event>
<event>
12    1  0.1489233E-007  0.1954445E+04  0.7818608E-02  0.8628220E-01
         -3   -1    0    0    0  501 -0.00000000000E+00  0.00000000000E+00  0.64485652689E+03  0.64485652689E+03  0.00000000000E+00 0.  1.
          3   -1    0    0  501    0  0.00000000000E+00 -0.00000000000E+00 -0.14808934264E+04  0.14808934264E+04  0.00000000000E+00 0. -1.
         23    2    1    2    0    0  0.27221978945E+03 -0.66119480703E+03 -0.56402839589E+03  0.91526751782E+03  0.91128542113E+02 0.  0.
        254    2    1    2    0    0 -0.27221978945E+03  0.66119480703E+03 -0.27200850361E+03  0.12104824355E+04  0.93808150708E+03 0.  0.
        -24    2    4    4    0    0 -0.55658127583E+03  0.14768960197E+03 -0.76854109192E+02  0.58655410634E+03  0.80896417947E+02 0.  0.
         24    2    4    4    0    0  0.28436148637E+03  0.51350520507E+03 -0.19515439442E+03  0.62392832913E+03  0.81561459406E+02 0.  0.
         13    1    3    3    0    0  0.22647163221E+03 -0.60951302002E+03 -0.49102200143E+03  0.81479944014E+03  0.00000000000E+00 0. -1.
        -13    1    3    3    0    0  0.45748157245E+02 -0.51681787016E+02 -0.73006394457E+02  0.10046807768E+03  0.00000000000E+00 0.  1.
          2    1    6    6  502    0  0.18219783882E+02  0.55682035740E+01 -0.39847334783E+01  0.19463902914E+02  0.00000000000E+00 0. -1.
          3    1    5    5  503    0 -0.13198143309E+03  0.22737000228E+02  0.14216247785E+02  0.13467802925E+03  0.00000000000E+00 0. -1.
         -4    1    5    5    0  503 -0.42459984273E+03  0.12495260174E+03 -0.91070356978E+02  0.45187607709E+03  0.00000000000E+00 0.  1.
         -1    1    6    6    0  502  0.26614170249E+03  0.50793700149E+03 -0.19116966094E+03  0.60446442621E+03  0.00000000000E+00 0.  1.
<mgrwt>
<rscale>  0 0.19544450E+04</rscale>
<asrwt>0</asrwt>
<pdfrwt beam="1">  1        3 0.22782975E+00 0.19544450E+04</pdfrwt>
<pdfrwt beam="2">  1       -3 0.99208698E-01 0.19544450E+04</pdfrwt>
<totfact> 0.21606503E-01</totfact>
</mgrwt>
</event>
<event>
12    1  0.1489233E-007  0.1315675E+04  0.7818608E-02  0.9017226E-01
         -1   -1    0    0    0  501 -0.00000000000E+00  0.00000000000E+00  0.15073571020E+03  0.15073571020E+03  0.00000000000E+00 0.  1.
          1   -1    0    0  501    0  0.00000000000E+00 -0.00000000000E+00 -0.28709203710E+04  0.28709203710E+04  0.00000000000E+00 0. -1.
         23    2    1    2    0    0 -0.24924615671E+02  0.25817186198E+03 -0.22847633215E+03  0.35671782675E+03  0.88160233559E+02 0.  0.
        254    2    1    2    0    0  0.24924615671E+02 -0.25817186198E+03 -0.24917083287E+04  0.26649382545E+04  0.90885178011E+03 0.  0.
        -24    2    4    4    0    0  0.11147883739E+03  0.24853455503E+03 -0.30232714696E+03  0.41463911189E+03  0.79542020891E+02 0.  0.
         24    2    4    4    0    0 -0.86554221719E+02 -0.50670641701E+03 -0.21893811817E+04  0.22502991426E+04  0.78824145800E+02 0.  0.
         13    1    3    3    0    0 -0.48781984445E+02  0.17175557748E+03 -0.18490990925E+03  0.25704344952E+03  0.00000000000E+00 0.  1.
        -13    1    3    3    0    0  0.23857368774E+02  0.86416284497E+02 -0.43566422905E+02  0.99674377228E+02  0.00000000000E+00 0. -1.
          2    1    6    6  502    0 -0.58050504075E+02 -0.13696602697E+03 -0.67026211702E+03  0.68657181640E+03  0.00000000000E+00 0. -1.
          3    1    5    5  503    0  0.11093283202E+02  0.76910799282E+02 -0.13035150164E+03  0.15175587619E+03  0.00000000000E+00 0. -1.
         -4    1    5    5    0  503  0.10038555419E+03  0.17162375575E+03 -0.17197564531E+03  0.26288323569E+03  0.00000000000E+00 0.  1.
         -1    1    6    6    0  502 -0.28503717645E+02 -0.36974039003E+03 -0.15191190647E+04  0.15637273262E+04  0.00000000000E+00 0.  1.
<mgrwt>
<rscale>  0 0.13156751E+04</rscale>
<asrwt>0</asrwt>
<pdfrwt beam="1">  1        1 0.44168002E+00 0.13156751E+04</pdfrwt>
<pdfrwt beam="2">  1       -1 0.23190111E-01 0.13156751E+04</pdfrwt>
<totfact> 0.11684484E+01</totfact>
</mgrwt>
</event>
<event>
12    1  0.1489233E-007  0.2047580E+04  0.7818608E-02  0.8584693E-01
         -2   -1    0    0    0  501 -0.00000000000E+00  0.00000000000E+00  0.20217126107E+04  0.20217126107E+04  0.00000000000E+00 0.  1.
          2   -1    0    0  501    0  0.00000000000E+00 -0.00000000000E+00 -0.51844434751E+03  0.51844434751E+03  0.00000000000E+00 0. -1.
         23    2    1    2    0    0  0.11073458198E+03  0.79954720593E+03  0.42409983093E+03  0.91656936144E+03  0.93278323250E+02 0.  0.
        254    2    1    2    0    0 -0.11073458198E+03 -0.79954720593E+03  0.10791684322E+04  0.16235875967E+04  0.90548014721E+03 0.  0.
        -24    2    4    4    0    0  0.18068962326E+03 -0.20901784608E+03 -0.70596272930E+02  0.29611115200E+03  0.79754502378E+02 0.  0.
         24    2    4    4    0    0 -0.29142420524E+03 -0.59052935984E+03  0.11497647052E+04  0.13274764447E+04  0.81128551470E+02 0.  0.
         11    1    3    3    0    0  0.12022475720E+03  0.73340973123E+03  0.36795877694E+03  0.82929939565E+03  0.00000000000E+00 0.  1.
        -11    1    3    3    0    0 -0.94901752265E+01  0.66137474696E+02  0.56141053994E+02  0.87269965788E+02  0.00000000000E+00 0. -1.
          4    1    6    6  502    0 -0.41485973003E+02 -0.39532549886E+02  0.12330321436E+03  0.13596908152E+03  0.00000000000E+00 0. -1.
          3    1    5    5  503    0  0.47144435073E+02 -0.35296012111E+02 -0.47720819135E+02  0.75800282375E+02  0.00000000000E+00 0. -1.
         -4    1    5    5    0  503  0.13354518819E+03 -0.17372183397E+03 -0.22875453795E+02  0.22031086962E+03  0.00000000000E+00 0.  1.
         -3    1    6    6    0  502 -0.24993823224E+03 -0.55099680996E+03  0.10264614908E+04  0.11915073632E+04  0.00000000000E+00 0.  1.
<mgrwt>
<rscale>  0 0.20475795E+04</rscale>
<asrwt>0</asrwt>
<pdfrwt beam="1">  1        2 0.79760670E-01 0.20475795E+04</pdfrwt>
<pdfrwt beam="2">  1       -2 0.31103270E+00 0.20475795E+04</pdfrwt>
<totfact> 0.14873744E+00</totfact>
</mgrwt>
</event>
<event>
12    1  0.1489233E-007  0.1384968E+04  0.7818608E-02  0.8964772E-01
          2   -1    0    0  501    0  0.00000000000E+00  0.00000000000E+00  0.13671995820E+04  0.13671995820E+04  0.00000000000E+00 0.  1.
         -2   -1    0    0    0  501 -0.00000000000E+00 -0.00000000000E+00 -0.35074200002E+03  0.35074200002E+03  0.00000000000E+00 0. -1.
         23    2    1    2    0    0 -0.31193676641E+03  0.13071831385E+03  0.53921447628E+03  0.64343888101E+03  0.94178120316E+02 0.  0.
        254    2    1    2    0    0  0.31193676641E+03 -0.13071831385E+03  0.47724310570E+03  0.10745027010E+04  0.90133414932E+03 0.  0.
        -24    2    4    4    0    0  0.58486758828E+03 -0.69496458332E+01  0.48485608706E+03  0.76387024245E+03  0.79334284778E+02 0.  0.
         24    2    4    4    0    0 -0.27293082187E+03 -0.12376866802E+03 -0.76129813666E+01  0.31063245856E+03  0.81391953610E+02 0.  0.
         13    1    3    3    0    0 -0.27504248054E+03  0.76460753226E+02  0.43811883609E+03  0.52291751494E+03  0.00000000000E+00 0.  1.
        -13    1    3    3    0    0 -0.36894285866E+02  0.54257560625E+02  0.10109564019E+03  0.12052136607E+03  0.00000000000E+00 0. -1.
          4    1    6    6  502    0 -0.88413199305E+02 -0.58933608141E+02  0.32236269957E+02  0.11103711578E+03  0.00000000000E+00 0. -1.
          1    1    5    5  503    0  0.91044774615E+02 -0.18515562637E+00  0.40980018352E+02  0.99842612002E+02  0.00000000000E+00 0. -1.
         -2    1    5    5    0  503  0.49382281367E+03 -0.67644902069E+01  0.44387606871E+03  0.66402763045E+03  0.00000000000E+00 0.  1.
         -3    1    6    6    0  502 -0.18451762257E+03 -0.64835059877E+02 -0.39849251323E+02  0.19959534278E+03  0.00000000000E+00 0.  1.
<mgrwt>
<rscale>  0 0.13849683E+04</rscale>
<asrwt>0</asrwt>
<pdfrwt beam="1">  1        2 0.21033840E+00 0.13849683E+04</pdfrwt>
<pdfrwt beam="2">  1       -2 0.53960308E-01 0.13849683E+04</pdfrwt>
<totfact> 0.47622776E+01</totfact>
</mgrwt>
</event>
<event>
12    1  0.1489233E-007  0.1436514E+04  0.7818608E-02  0.8927804E-01
         -1   -1    0    0    0  501 -0.00000000000E+00  0.00000000000E+00  0.55005689169E+03  0.55005689169E+03  0.00000000000E+00 0. -1.
          1   -1    0    0  501    0  0.00000000000E+00 -0.00000000000E+00 -0.93789049490E+03  0.93789049490E+03  0.00000000000E+00 0.  1.
         23    2    1    2    0    0 -0.12573058887E+03  0.40764624558E+03 -0.14543471615E+03  0.45983805287E+03  0.91192848949E+02 0.  0.
        254    2    1    2    0    0  0.12573058887E+03 -0.40764624558E+03 -0.24239888706E+03  0.10281093337E+04  0.90347547787E+03 0.  0.
        -24    2    4    4    0    0  0.73966120060E+01 -0.53124865349E+03 -0.48210371517E+03  0.72277120738E+03  0.87717639788E+02 0.  0.
         24    2    4    4    0    0  0.11833397687E+03  0.12360240792E+03  0.23970482811E+03  0.30533812633E+03  0.80575935904E+02 0.  0.
         11    1    3    3    0    0 -0.76913904329E+02  0.21163724078E+03 -0.29959926247E+02  0.22716440642E+03  0.00000000000E+00 0. -1.
        -11    1    3    3    0    0 -0.48816684544E+02  0.19600900480E+03 -0.11547478990E+03  0.23267364645E+03  0.00000000000E+00 0.  1.
          2    1    6    6  502    0  0.50728745359E+01 -0.48288704219E+01 -0.35531618444E+01  0.78534708697E+01  0.00000000000E+00 0. -1.
          3    1    5    5  503    0  0.19787743747E+02 -0.60568368138E+02 -0.31609806370E+02  0.71128488528E+02  0.00000000000E+00 0. -1.
         -4    1    5    5    0  503 -0.12391131741E+02 -0.47068028536E+03 -0.45049390880E+03  0.65164271886E+03  0.00000000000E+00 0.  1.
         -1    1    6    6    0  502  0.11326110233E+03  0.12843127834E+03  0.24325798995E+03  0.29748465546E+03  0.00000000000E+00 0.  1.
<mgrwt>
<rscale>  0 0.14365140E+04</rscale>
<asrwt>0</asrwt>
<pdfrwt beam="1">  1        1 0.14429085E+00 0.14365140E+04</pdfrwt>
<pdfrwt beam="2">  1       -1 0.84624137E-01 0.14365140E+04</pdfrwt>
<totfact> 0.22787554E+01</totfact>
</mgrwt>
</event>
<event>
12    1  0.1489233E-007  0.1618198E+04  0.7818608E-02  0.8809446E-01
          2   -1    0    0  501    0  0.00000000000E+00  0.00000000000E+00  0.84611600758E+03  0.84611600758E+03  0.00000000000E+00 0.  1.
         -2   -1    0    0    0  501 -0.00000000000E+00 -0.00000000000E+00 -0.77370161488E+03  0.77370161488E+03  0.00000000000E+00 0. -1.
         23    2    1    2    0    0 -0.40625455658E+03 -0.24626076455E+03 -0.27502123037E+03  0.55639982930E+03  0.90867838062E+02 0.  0.
        254    2    1    2    0    0  0.40625455658E+03  0.24626076455E+03  0.34743562307E+03  0.10634177932E+04  0.88569676624E+03 0.  0.
        -24    2    4    4    0    0 -0.16197160977E+03  0.29705919073E+03  0.34157497567E+03  0.48733698834E+03  0.79654949831E+02 0.  0.
         24    2    4    4    0    0  0.56822616635E+03 -0.50798426182E+02  0.58606474002E+01  0.57608080482E+03  0.79832889637E+02 0.  0.
         11    1    3    3    0    0 -0.19717431369E+03 -0.15743332229E+03 -0.18111156192E+03  0.31058711951E+03  0.00000000000E+00 0. -1.
        -11    1    3    3    0    0 -0.20908024289E+03 -0.88827442261E+02 -0.93909668445E+02  0.24581270978E+03  0.00000000000E+00 0.  1.
          2    1    6    6  502    0  0.48747759642E+03 -0.19682569928E+02  0.20546358900E+02  0.48830724287E+03  0.00000000000E+00 0. -1.
          1    1    5    5  503    0 -0.36212635437E+02  0.14349757765E+03  0.16535863904E+03  0.22191527496E+03  0.00000000000E+00 0. -1.
         -2    1    5    5    0  503 -0.12575897433E+03  0.15356161307E+03  0.17621633663E+03  0.26542171337E+03  0.00000000000E+00 0.  1.
         -1    1    6    6    0  502  0.80748569929E+02 -0.31115856254E+02 -0.14685711500E+02  0.87773561955E+02  0.00000000000E+00 0.  1.
<mgrwt>
<rscale>  0 0.16181982E+04</rscale>
<asrwt>0</asrwt>
<pdfrwt beam="1">  1        2 0.13017169E+00 0.16181982E+04</pdfrwt>
<pdfrwt beam="2">  1       -2 0.11903102E+00 0.16181982E+04</pdfrwt>
<totfact> 0.16570276E+01</totfact>
</mgrwt>
</event>
<event>
12    1  0.1489233E-007  0.1639791E+04  0.7818608E-02  0.8796469E-01
         -2   -1    0    0    0  501 -0.00000000000E+00  0.00000000000E+00  0.34478805896E+03  0.34478805896E+03  0.00000000000E+00 0.  1.
          2   -1    0    0  501    0  0.00000000000E+00 -0.00000000000E+00 -0.19496865259E+04  0.19496865259E+04  0.00000000000E+00 0. -1.
         23    2    1    2    0    0  0.33970307944E+02 -0.44322586383E+03 -0.77488002984E+02  0.46070695631E+03  0.92969676735E+02 0.  0.
        254    2    1    2    0    0 -0.33970307944E+02  0.44322586383E+03 -0.15274104640E+04  0.18337676286E+04  0.91220493420E+03 0.  0.
        -24    2    4    4    0    0 -0.50841210653E+02  0.31927024185E+03 -0.16228788938E+04  0.16567081766E+04  0.80173326849E+02 0.  0.
         24    2    4    4    0    0  0.16870902709E+02  0.12395562199E+03  0.95468429830E+02  0.17705945201E+03  0.81155436478E+02 0.  0.
         11    1    3    3    0    0  0.42916072715E+02 -0.26888485695E+03 -0.87078741540E+02  0.28587333352E+03  0.00000000000E+00 0.  1.
        -11    1    3    3    0    0 -0.89457647713E+01 -0.17434100689E+03  0.95907385565E+01  0.17483362278E+03  0.00000000000E+00 0. -1.
          2    1    6    6  502    0 -0.20433969834E+01  0.16670943001E+02 -0.14557002163E+02  0.22226158547E+02  0.00000000000E+00 0. -1.
          3    1    5    5  503    0 -0.10805947957E+01  0.21089023471E+03 -0.11382012209E+04  0.11575741350E+04  0.00000000000E+00 0. -1.
         -4    1    5    5    0  503 -0.49760615857E+02  0.10838000714E+03 -0.48467767296E+03  0.49913404162E+03  0.00000000000E+00 0.  1.
         -1    1    6    6    0  502  0.18914299692E+02  0.10728467899E+03  0.11002543199E+03  0.15483329346E+03  0.00000000000E+00 0.  1.
<mgrwt>
<rscale>  0 0.16397910E+04</rscale>
<asrwt>0</asrwt>
<pdfrwt beam="1">  1        2 0.29995177E+00 0.16397910E+04</pdfrwt>
<pdfrwt beam="2">  1       -2 0.53044318E-01 0.16397910E+04</pdfrwt>
<totfact> 0.22833507E+01</totfact>
</mgrwt>
</event>
<event>
12    1  0.1489233E-007  0.2179896E+04  0.7818608E-02  0.8526843E-01
          2   -1    0    0  501    0  0.00000000000E+00  0.00000000000E+00  0.34800559855E+04  0.34800559855E+04  0.00000000000E+00 0. -1.
         -2   -1    0    0    0  501 -0.00000000000E+00 -0.00000000000E+00 -0.34136986866E+03  0.34136986866E+03  0.00000000000E+00 0.  1.
         23    2    1    2    0    0 -0.21635971419E+03 -0.80465366200E+03  0.71231293838E+03  0.10997988698E+04  0.88818861975E+02 0.  0.
        254    2    1    2    0    0  0.21635971419E+03  0.80465366200E+03  0.24263731785E+04  0.27216269843E+04  0.90867353812E+03 0.  0.
        -24    2    4    4    0    0  0.56065150063E+03  0.55503167501E+03  0.17066997910E+04  0.18819161103E+04  0.79961265180E+02 0.  0.
         24    2    4    4    0    0 -0.34429178644E+03  0.24962198699E+03  0.71967338742E+03  0.83971087404E+03  0.79602743843E+02 0.  0.
         11    1    3    3    0    0 -0.21917941232E+02 -0.12207749758E+03  0.69163264882E+02  0.14201010095E+03  0.00000000000E+00 0. -1.
        -11    1    3    3    0    0 -0.19444177296E+03 -0.68257616442E+03  0.64314967350E+03  0.95778876890E+03  0.00000000000E+00 0.  1.
          2    1    6    6  502    0 -0.61574553768E+02  0.85079592510E+02  0.19285180365E+03  0.21959458305E+03  0.00000000000E+00 0. -1.
          1    1    5    5  503    0  0.94601432853E+02  0.13942470094E+03  0.35663919379E+03  0.39443655114E+03  0.00000000000E+00 0. -1.
         -2    1    5    5    0  503  0.46605006778E+03  0.41560697407E+03  0.13500605972E+04  0.14874795591E+04  0.00000000000E+00 0.  1.
         -1    1    6    6    0  502 -0.28271723267E+03  0.16454239448E+03  0.52682158377E+03  0.62011629099E+03  0.00000000000E+00 0.  1.
<mgrwt>
<rscale>  0 0.21798956E+04</rscale>
<asrwt>0</asrwt>
<pdfrwt beam="1">  1        2 0.53539320E+00 0.21798956E+04</pdfrwt>
<pdfrwt beam="2">  1       -2 0.52518444E-01 0.21798956E+04</pdfrwt>
<totfact> 0.26389314E+00</totfact>
</mgrwt>
</event>
<event>
12    1  0.1489233E-007  0.1257403E+04  0.7818608E-02  0.9064044E-01
          1   -1    0    0  501    0  0.00000000000E+00  0.00000000000E+00  0.20074412627E+04  0.20074412627E+04  0.00000000000E+00 0. -1.
         -1   -1    0    0    0  501 -0.00000000000E+00 -0.00000000000E+00 -0.19690022063E+03  0.19690022063E+03  0.00000000000E+00 0.  1.
         23    2    1    2    0    0  0.13021802039E+03 -0.15682206204E+03  0.79353610813E+03  0.82447530647E+03  0.92250117097E+02 0.  0.
        254    2    1    2    0    0 -0.13021802039E+03  0.15682206204E+03  0.10170049339E+04  0.13798661769E+04  0.91004491010E+03 0.  0.
        -24    2    4    4    0    0 -0.20453284957E+03  0.49461064135E+03  0.79237212630E+03  0.95951256330E+03  0.79607785448E+02 0.  0.
         24    2    4    4    0    0  0.74314829182E+02 -0.33778857931E+03  0.22463280764E+03  0.42035361355E+03  0.81323084121E+02 0.  0.
         13    1    3    3    0    0  0.30269126449E+02 -0.40855794777E+02  0.38230022925E+03  0.38566680084E+03  0.00000000000E+00 0.  1.
        -13    1    3    3    0    0  0.99948893937E+02 -0.11596626726E+03  0.41123587887E+03  0.43880850563E+03  0.00000000000E+00 0. -1.
          4    1    6    6  502    0  0.27680026839E+02 -0.11369697700E+03  0.12344014503E+03  0.17009014043E+03  0.00000000000E+00 0. -1.
          1    1    5    5  503    0 -0.98152437458E+02  0.29030454543E+03  0.39150161143E+03  0.49717616780E+03  0.00000000000E+00 0. -1.
         -2    1    5    5    0  503 -0.10638041211E+03  0.20430609592E+03  0.40087051487E+03  0.46233639550E+03  0.00000000000E+00 0.  1.
         -3    1    6    6    0  502  0.46634802343E+02 -0.22409160231E+03  0.10119266260E+03  0.25026347313E+03  0.00000000000E+00 0.  1.
<mgrwt>
<rscale>  0 0.12574031E+04</rscale>
<asrwt>0</asrwt>
<pdfrwt beam="1">  1        1 0.30883710E+00 0.12574031E+04</pdfrwt>
<pdfrwt beam="2">  1       -1 0.30292343E-01 0.12574031E+04</pdfrwt>
<totfact> 0.29167413E+01</totfact>
</mgrwt>
</event>
<event>
12    1  0.1489233E-007  0.1636197E+04  0.7818608E-02  0.8798615E-01
         -2   -1    0    0    0  501 -0.00000000000E+00  0.00000000000E+00  0.15569082466E+04  0.15569082466E+04  0.00000000000E+00 0. -1.
          2   -1    0    0  501    0  0.00000000000E+00 -0.00000000000E+00 -0.42988066703E+03  0.42988066703E+03  0.00000000000E+00 0.  1.
         23    2    1    2    0    0  0.45329808475E+03  0.27983745925E+03  0.62354883960E+03  0.82515457308E+03  0.90987674279E+02 0.  0.
        254    2    1    2    0    0 -0.45329808475E+03 -0.27983745925E+03  0.50347874000E+03  0.11616343406E+04  0.90117442393E+03 0.  0.
        -24    2    4    4    0    0  0.11668083128E+03 -0.31580309971E+03  0.46876306451E+03  0.58270495118E+03  0.80375588970E+02 0.  0.
         24    2    4    4    0    0 -0.56997891603E+03  0.35965640457E+02  0.34715675488E+02  0.57892938940E+03  0.88230197615E+02 0.  0.
         13    1    3    3    0    0  0.12565857401E+03  0.12344678283E+03  0.17808842493E+03  0.25048886704E+03  0.00000000000E+00 0. -1.
        -13    1    3    3    0    0  0.32763951074E+03  0.15639067642E+03  0.44546041467E+03  0.57466570605E+03  0.00000000000E+00 0.  1.
          4    1    6    6  502    0 -0.88240969109E+02  0.23880245855E+02 -0.21098496770E+02  0.93818342222E+02  0.00000000000E+00 0. -1.
          1    1    5    5  503    0  0.42701265590E+02 -0.56823497378E+02  0.59138094708E+02  0.92464167021E+02  0.00000000000E+00 0. -1.
         -2    1    5    5    0  503  0.73979565690E+02 -0.25897960233E+03  0.40962496980E+03  0.49024078416E+03  0.00000000000E+00 0.  1.
         -1    1    6    6    0  502 -0.48173794692E+03  0.12085394601E+02  0.55814172258E+02  0.48511104718E+03  0.00000000000E+00 0.  1.
<mgrwt>
<rscale>  0 0.16361965E+04</rscale>
<asrwt>0</asrwt>
<pdfrwt beam="1">  1        2 0.66135488E-01 0.16361965E+04</pdfrwt>
<pdfrwt beam="2">  1       -2 0.23952434E+00 0.16361965E+04</pdfrwt>
<totfact> 0.52252474E+00</totfact>
</mgrwt>
</event>
<event>
12    1  0.1489233E-007  0.1910228E+04  0.7818608E-02  0.8649782E-01
          1   -1    0    0  501    0  0.00000000000E+00  0.00000000000E+00  0.18602456362E+04  0.18602456362E+04  0.00000000000E+00 0. -1.
         -1   -1    0    0    0  501 -0.00000000000E+00 -0.00000000000E+00 -0.49038842322E+03  0.49038842322E+03  0.00000000000E+00 0.  1.
         23    2    1    2    0    0 -0.97940382438E+02  0.32444484879E+02 -0.36533396052E+03  0.39036670571E+03  0.90952180358E+02 0.  0.
        254    2    1    2    0    0  0.97940382438E+02 -0.32444484879E+02  0.17351911735E+04  0.19602673538E+04  0.90615380942E+03 0.  0.
        -24    2    4    4    0    0  0.25721109402E+03  0.24840070562E+03  0.26277715513E+03  0.45078598423E+03  0.79345528436E+02 0.  0.
         24    2    4    4    0    0 -0.15927071158E+03 -0.28084519050E+03  0.14724140184E+04  0.15094813695E+04  0.79308150388E+02 0.  0.
         11    1    3    3    0    0  0.17117449547E+02  0.10117087328E+02 -0.42666292857E+02  0.47072020151E+02  0.00000000000E+00 0. -1.
        -11    1    3    3    0    0 -0.11505783198E+03  0.22327397551E+02 -0.32266766766E+03  0.34329468556E+03  0.00000000000E+00 0.  1.
          2    1    6    6  502    0 -0.97342109935E+02 -0.98119746258E+02  0.68163126401E+03  0.69550280448E+03  0.00000000000E+00 0. -1.
          3    1    5    5  503    0  0.32503190673E+02  0.18908551121E+01  0.19695453286E+02  0.38051854319E+02  0.00000000000E+00 0. -1.
         -4    1    5    5    0  503  0.22470790334E+03  0.24650985051E+03  0.24308170185E+03  0.41273412991E+03  0.00000000000E+00 0.  1.
         -3    1    6    6    0  502 -0.61928601642E+02 -0.18272544424E+03  0.79078275441E+03  0.81397856504E+03  0.00000000000E+00 0.  1.
<mgrwt>
<rscale>  0 0.19102282E+04</rscale>
<asrwt>0</asrwt>
<pdfrwt beam="1">  1        1 0.28619163E+00 0.19102282E+04</pdfrwt>
<pdfrwt beam="2">  1       -1 0.75444374E-01 0.19102282E+04</pdfrwt>
<totfact> 0.61197735E+00</totfact>
</mgrwt>
</event>
<event>
12    1  0.1489233E-007  0.2324729E+04  0.7818608E-02  0.8468234E-01
          4   -1    0    0  501    0  0.00000000000E+00  0.00000000000E+00  0.15649960219E+04  0.15649960219E+04  0.00000000000E+00 0.  1.
         -4   -1    0    0    0  501 -0.00000000000E+00 -0.00000000000E+00 -0.86331941560E+03  0.86331941560E+03  0.00000000000E+00 0. -1.
         23    2    1    2    0    0 -0.63488901294E+03  0.54957987288E+01 -0.48075194774E+03  0.80149339036E+03  0.90304800422E+02 0.  0.
        254    2    1    2    0    0  0.63488901294E+03 -0.54957987288E+01  0.11824285541E+04  0.16268220472E+04  0.91940112309E+03 0.  0.
        -24    2    4    4    0    0 -0.22439901005E+03  0.47033791993E+02  0.18362455192E+03  0.30565081299E+03  0.84482839159E+02 0.  0.
         24    2    4    4    0    0  0.85928802300E+03 -0.52529590722E+02  0.99880400215E+03  0.13211712342E+04  0.82150660103E+02 0.  0.
         13    1    3    3    0    0 -0.58617455457E+03 -0.83627748461E+01 -0.46558029447E+03  0.74862243823E+03  0.00000000000E+00 0. -1.
        -13    1    3    3    0    0 -0.48714458368E+02  0.13858573575E+02 -0.15171653270E+02  0.52870952124E+02  0.00000000000E+00 0.  1.
          2    1    6    6  502    0  0.51571861476E+03 -0.31582233582E+02  0.66004354681E+03  0.83822467798E+03  0.00000000000E+00 0. -1.
          1    1    5    5  503    0 -0.40576856059E+02  0.14226081131E+02 -0.10707547825E+01  0.43011732676E+02  0.00000000000E+00 0. -1.
         -2    1    5    5    0  503 -0.18382215399E+03  0.32807710862E+02  0.18469530670E+03  0.26263908032E+03  0.00000000000E+00 0.  1.
         -1    1    6    6    0  502  0.34356940823E+03 -0.20947357140E+02  0.33876045534E+03  0.48294655620E+03  0.00000000000E+00 0.  1.
<mgrwt>
<rscale>  0 0.23247292E+04</rscale>
<asrwt>0</asrwt>
<pdfrwt beam="1">  1        4 0.24076862E+00 0.23247292E+04</pdfrwt>
<pdfrwt beam="2">  1       -4 0.13281837E+00 0.23247292E+04</pdfrwt>
<totfact> 0.53362832E-02</totfact>
</mgrwt>
</event>
<event>
12    1  0.1489233E-007  0.2046492E+04  0.7818608E-02  0.8585187E-01
          1   -1    0    0  501    0  0.00000000000E+00  0.00000000000E+00  0.64577923851E+03  0.64577923851E+03  0.00000000000E+00 0. -1.
         -1   -1    0    0    0  501 -0.00000000000E+00 -0.00000000000E+00 -0.16213471477E+04  0.16213471477E+04  0.00000000000E+00 0.  1.
         23    2    1    2    0    0  0.44925749569E+03 -0.58373176196E+02 -0.11657479649E+04  0.12541030542E+04  0.92554998560E+02 0.  0.
        254    2    1    2    0    0 -0.44925749569E+03  0.58373176196E+02  0.19018005563E+03  0.10130233321E+04  0.88589395114E+03 0.  0.
        -24    2    4    4    0    0 -0.39065919792E+03 -0.28263653550E+03 -0.15847679662E+03  0.51506205196E+03  0.87612796915E+02 0.  0.
         24    2    4    4    0    0 -0.58598297765E+02  0.34100971170E+03  0.34865685225E+03  0.49796128012E+03  0.81746265405E+02 0.  0.
         13    1    3    3    0    0  0.33196857325E+02 -0.58139412670E+01 -0.37408520450E+02  0.50351073986E+02  0.00000000000E+00 0.  1.
        -13    1    3    3    0    0  0.41606063836E+03 -0.52559234929E+02 -0.11283394444E+04  0.12037519802E+04  0.00000000000E+00 0. -1.
          2    1    6    6  502    0 -0.11620773433E+02  0.23166553275E+03  0.19127693525E+03  0.30065067337E+03  0.00000000000E+00 0. -1.
          3    1    5    5  503    0 -0.37714992326E+03 -0.25916543351E+03 -0.12990052258E+03  0.47569205617E+03  0.00000000000E+00 0. -1.
         -2    1    5    5    0  503 -0.13509274668E+02 -0.23471101992E+02 -0.28576274037E+02  0.39369995791E+02  0.00000000000E+00 0.  1.
         -1    1    6    6    0  502 -0.46977524333E+02  0.10934417895E+03  0.15737991700E+03  0.19731060675E+03  0.00000000000E+00 0.  1.
<mgrwt>
<rscale>  0 0.20464920E+04</rscale>
<asrwt>0</asrwt>
<pdfrwt beam="1">  1        1 0.99350652E-01 0.20464920E+04</pdfrwt>
<pdfrwt beam="2">  1       -1 0.24943802E+00 0.20464920E+04</pdfrwt>
<totfact> 0.19977358E+00</totfact>
</mgrwt>
</event>
<event>
12    1  0.1489233E-007  0.1680894E+04  0.7818608E-02  0.8772337E-01
          2   -1    0    0  501    0  0.00000000000E+00  0.00000000000E+00  0.13836306015E+04  0.13836306015E+04  0.00000000000E+00 0.  1.
         -2   -1    0    0    0  501 -0.00000000000E+00 -0.00000000000E+00 -0.51050533410E+03  0.51050533410E+03  0.00000000000E+00 0. -1.
         23    2    1    2    0    0 -0.26237096203E+03 -0.52912015385E+03  0.34722487847E+03  0.69104288011E+03  0.90379682404E+02 0.  0.
        254    2    1    2    0    0  0.26237096203E+03  0.52912015385E+03  0.52590038891E+03  0.12030930555E+04  0.90667249994E+03 0.  0.
        -24    2    4    4    0    0 -0.14523974645E+03  0.54346712482E+02 -0.18421743752E+03  0.25360565346E+03  0.79571440076E+02 0.  0.
         24    2    4    4    0    0  0.40761070848E+03  0.47477344137E+03  0.71011782643E+03  0.94948740202E+03  0.75516149749E+02 0.  0.
         13    1    3    3    0    0 -0.92202417566E+02 -0.10428044330E+03  0.67809446050E+02  0.15483480756E+03  0.00000000000E+00 0. -1.
        -13    1    3    3    0    0 -0.17016854446E+03 -0.42483971056E+03  0.27941543242E+03  0.53620807255E+03  0.00000000000E+00 0.  1.
          2    1    6    6  502    0  0.40427100409E+03  0.46887655524E+03  0.71087498918E+03  0.94266829746E+03  0.00000000000E+00 0. -1.
          1    1    5    5  503    0 -0.11587774530E+02  0.57328663166E+01 -0.70045503103E+02  0.71228609278E+02  0.00000000000E+00 0. -1.
         -2    1    5    5    0  503 -0.13365197192E+03  0.48613846165E+02 -0.11417193442E+03  0.18237704418E+03  0.00000000000E+00 0.  1.
         -1    1    6    6    0  502  0.33397043942E+01  0.58968861345E+01 -0.75716274793E+00  0.68191045563E+01  0.00000000000E+00 0.  1.
<mgrwt>
<rscale>  0 0.16808936E+04</rscale>
<asrwt>0</asrwt>
<pdfrwt beam="1">  1        2 0.21286625E+00 0.16808936E+04</pdfrwt>
<pdfrwt beam="2">  1       -2 0.78539283E-01 0.16808936E+04</pdfrwt>
<totfact> 0.20302700E+01</totfact>
</mgrwt>
</event>
<event>
12    1  0.1489233E-007  0.3425198E+04  0.7818608E-02  0.8131750E-01
         -2   -1    0    0    0  501 -0.00000000000E+00  0.00000000000E+00  0.14872485972E+04  0.14872485972E+04  0.00000000000E+00 0. -1.
          2   -1    0    0  501    0  0.00000000000E+00 -0.00000000000E+00 -0.19720944468E+04  0.19720944468E+04  0.00000000000E+00 0.  1.
         23    2    1    2    0    0 -0.11268882670E+04 -0.50428621144E+03  0.73869650722E+03  0.14415947627E+04  0.91330065083E+02 0.  0.
        254    2    1    2    0    0  0.11268882670E+04  0.50428621144E+03 -0.12235423569E+04  0.20177482812E+04  0.10247294658E+04 0.  0.
        -24    2    4    4    0    0  0.12377407869E+04  0.23037436022E+03 -0.79470454541E+03  0.14910687255E+04  0.81584486689E+02 0.  0.
         24    2    4    4    0    0 -0.11085251987E+03  0.27391185122E+03 -0.42883781145E+03  0.52667955569E+03  0.78571638983E+02 0.  0.
         11    1    3    3    0    0 -0.88196693753E+03 -0.36616746943E+03  0.53737786704E+03  0.10957733646E+04  0.00000000000E+00 0. -1.
        -11    1    3    3    0    0 -0.24492132948E+03 -0.13811874200E+03  0.20131864018E+03  0.34582139814E+03  0.00000000000E+00 0.  1.
          2    1    6    6  502    0 -0.94290331815E+02  0.22916106610E+03 -0.40113776247E+03  0.47150500036E+03  0.00000000000E+00 0. -1.
          3    1    5    5  503    0  0.11913811748E+04  0.23369577724E+03 -0.75312280706E+03  0.14287045819E+04  0.00000000000E+00 0. -1.
         -4    1    5    5    0  503  0.46359612102E+02 -0.33214170204E+01 -0.41581738354E+02  0.62364143623E+02  0.00000000000E+00 0.  1.
         -1    1    6    6    0  502 -0.16562188053E+02  0.44750785118E+02 -0.27700048983E+02  0.55174555326E+02  0.00000000000E+00 0.  1.
<mgrwt>
<rscale>  0 0.34251976E+04</rscale>
<asrwt>0</asrwt>
<pdfrwt beam="1">  1        2 0.30339914E+00 0.34251976E+04</pdfrwt>
<pdfrwt beam="2">  1       -2 0.22880748E+00 0.34251976E+04</pdfrwt>
<totfact> 0.49798266E-01</totfact>
</mgrwt>
</event>
<event>
12    1  0.1489233E-007  0.2230747E+04  0.7818608E-02  0.8505739E-01
         -1   -1    0    0    0  501 -0.00000000000E+00  0.00000000000E+00  0.37892464648E+03  0.37892464648E+03  0.00000000000E+00 0.  1.
          1   -1    0    0  501    0  0.00000000000E+00 -0.00000000000E+00 -0.32831264600E+04  0.32831264600E+04  0.00000000000E+00 0. -1.
         23    2    1    2    0    0  0.83994301941E+03 -0.32521092960E+03 -0.16327371629E+04  0.18668767138E+04  0.90175368200E+02 0.  0.
        254    2    1    2    0    0 -0.83994301941E+03  0.32521092960E+03 -0.12714646506E+04  0.17951743927E+04  0.89149442938E+03 0.  0.
        -24    2    4    4    0    0 -0.11730915245E+03 -0.20586412076E+03 -0.66249391160E+03  0.70829317191E+03  0.81483501449E+02 0.  0.
         24    2    4    4    0    0 -0.72263386696E+03  0.53107505036E+03 -0.60897073905E+03  0.10868812207E+04  0.78898746451E+02 0.  0.
         13    1    3    3    0    0  0.79390802199E+03 -0.28465087423E+03 -0.15362282506E+04  0.17525162782E+04  0.00000000000E+00 0.  1.
        -13    1    3    3    0    0  0.46034997423E+02 -0.40560055368E+02 -0.96508912305E+02  0.11436043561E+03  0.00000000000E+00 0. -1.
          4    1    6    6  502    0 -0.38987871471E+03  0.33479169461E+03 -0.35185976611E+03  0.62281312283E+03  0.00000000000E+00 0. -1.
          1    1    5    5  503    0 -0.64876540404E+02 -0.92545452786E+02 -0.20527703008E+03  0.23433370523E+03  0.00000000000E+00 0. -1.
         -2    1    5    5    0  503 -0.52432612048E+02 -0.11331866798E+03 -0.45721688152E+03  0.47395946669E+03  0.00000000000E+00 0.  1.
         -3    1    6    6    0  502 -0.33275515225E+03  0.19628335575E+03 -0.25711097294E+03  0.46406809791E+03  0.00000000000E+00 0.  1.
<mgrwt>
<rscale>  0 0.22307465E+04</rscale>
<asrwt>0</asrwt>
<pdfrwt beam="1">  1        1 0.50509639E+00 0.22307465E+04</pdfrwt>
<pdfrwt beam="2">  1       -1 0.58296098E-01 0.22307465E+04</pdfrwt>
<totfact> 0.99889262E-01</totfact>
</mgrwt>
</event>
<event>
12    1  0.1489233E-007  0.2415662E+04  0.7818608E-02  0.8433663E-01
         -1   -1    0    0    0  501 -0.00000000000E+00  0.00000000000E+00  0.85238906379E+03  0.85238906379E+03  0.00000000000E+00 0.  1.
          1   -1    0    0  501    0  0.00000000000E+00 -0.00000000000E+00 -0.17114899841E+04  0.17114899841E+04  0.00000000000E+00 0. -1.
         23    2    1    2    0    0  0.31316471378E+03  0.86958100243E+03  0.11571612635E+03  0.93597883605E+03  0.91776368931E+02 0.  0.
        254    2    1    2    0    0 -0.31316471378E+03 -0.86958100243E+03 -0.97481704665E+03  0.16279002118E+04  0.91953660474E+03 0.  0.
        -24    2    4    4    0    0 -0.33940949426E+03 -0.97184425782E+03 -0.52165056799E+03  0.11564162520E+04  0.74156366212E+02 0.  0.
         24    2    4    4    0    0  0.26244780478E+02  0.10226325539E+03 -0.45316647866E+03  0.47148395978E+03  0.76096682224E+02 0.  0.
         13    1    3    3    0    0  0.16715257776E+03  0.50494496071E+03  0.22938783719E+02  0.53238668784E+03  0.00000000000E+00 0.  1.
        -13    1    3    3    0    0  0.14601213602E+03  0.36463604173E+03  0.92777342633E+02  0.40359214821E+03  0.00000000000E+00 0. -1.
          2    1    6    6  502    0 -0.10234891660E+02  0.40940056871E+02 -0.29454554991E+03  0.29755322589E+03  0.00000000000E+00 0. -1.
          3    1    5    5  503    0 -0.19970085357E+03 -0.64710922024E+03 -0.31456368524E+03  0.74671352332E+03  0.00000000000E+00 0. -1.
         -4    1    5    5    0  503 -0.13970864069E+03 -0.32473503758E+03 -0.20708688275E+03  0.40970272872E+03  0.00000000000E+00 0.  1.
         -1    1    6    6    0  502  0.36479672138E+02  0.61323198516E+02 -0.15862092875E+03  0.17393073389E+03  0.00000000000E+00 0.  1.
<mgrwt>
<rscale>  0 0.24156617E+04</rscale>
<asrwt>0</asrwt>
<pdfrwt beam="1">  1        1 0.26330615E+00 0.24156617E+04</pdfrwt>
<pdfrwt beam="2">  1       -1 0.13113678E+00 0.24156617E+04</pdfrwt>
<totfact> 0.20778651E+00</totfact>
</mgrwt>
</event>
<event>
12    1  0.1489233E-007  0.1731074E+04  0.7818608E-02  0.8743838E-01
          2   -1    0    0  501    0  0.00000000000E+00  0.00000000000E+00  0.76017348013E+03  0.76017348013E+03  0.00000000000E+00 0. -1.
         -2   -1    0    0    0  501 -0.00000000000E+00 -0.00000000000E+00 -0.98550397036E+03  0.98550397036E+03  0.00000000000E+00 0.  1.
         23    2    1    2    0    0 -0.40128949242E+03  0.24244684588E+03 -0.50681249436E+03  0.69529591756E+03  0.82242195538E+02 0.  0.
        254    2    1    2    0    0  0.40128949242E+03 -0.24244684588E+03  0.28148200413E+03  0.10503815329E+04  0.89680294172E+03 0.  0.
        -24    2    4    4    0    0  0.51668313255E+03  0.10279220219E+03  0.39100549155E+03  0.66110765717E+03  0.81549639170E+02 0.  0.
         24    2    4    4    0    0 -0.11539364013E+03 -0.34523904806E+03 -0.10952348742E+03  0.38927387577E+03  0.83863362477E+02 0.  0.
         11    1    3    3    0    0 -0.34525406651E+03  0.22059089183E+03 -0.47489525494E+03  0.62720508223E+03  0.00000000000E+00 0.  1.
        -11    1    3    3    0    0 -0.56035425909E+02  0.21855954044E+02 -0.31917239419E+02  0.68090835332E+02  0.00000000000E+00 0. -1.
          2    1    6    6  502    0 -0.66295026558E+02 -0.27814920806E+03 -0.10935179007E+03  0.30613694073E+03  0.00000000000E+00 0. -1.
          1    1    5    5  503    0  0.25187480020E+03  0.89152486221E+02  0.17887228653E+03  0.32153440821E+03  0.00000000000E+00 0. -1.
         -2    1    5    5    0  503  0.26480833235E+03  0.13639715965E+02  0.21213320502E+03  0.33957324896E+03  0.00000000000E+00 0.  1.
         -1    1    6    6    0  502 -0.49098613572E+02 -0.67089840003E+02 -0.17169735400E+00  0.83136935031E+02  0.00000000000E+00 0.  1.
<mgrwt>
<rscale>  0 0.17310736E+04</rscale>
<asrwt>0</asrwt>
<pdfrwt beam="1">  1        2 0.11694977E+00 0.17310736E+04</pdfrwt>
<pdfrwt beam="2">  1       -2 0.15161599E+00 0.17310736E+04</pdfrwt>
<totfact> 0.10180598E+01</totfact>
</mgrwt>
</event>
<event>
12    1  0.1489233E-007  0.3290614E+04  0.7818608E-02  0.8165288E-01
         -2   -1    0    0    0  501 -0.00000000000E+00  0.00000000000E+00  0.12903692272E+04  0.12903692272E+04  0.00000000000E+00 0. -1.
          2   -1    0    0  501    0  0.00000000000E+00 -0.00000000000E+00 -0.20978763931E+04  0.20978763931E+04  0.00000000000E+00 0.  1.
         23    2    1    2    0    0 -0.71947367573E+03  0.62299549977E+03  0.84451367880E+03  0.12756603540E+04  0.91324817720E+02 0.  0.
        254    2    1    2    0    0  0.71947367573E+03 -0.62299549977E+03 -0.16520208447E+04  0.21125852663E+04  0.90998784249E+03 0.  0.
        -24    2    4    4    0    0  0.85105666910E+03 -0.27042569696E+03 -0.13632586910E+04  0.16315940965E+04  0.78724363282E+02 0.  0.
         24    2    4    4    0    0 -0.13158299337E+03 -0.35256980281E+03 -0.28876215368E+03  0.48099116989E+03  0.79682959987E+02 0.  0.
         11    1    3    3    0    0 -0.45222043232E+03  0.39820385377E+03  0.59200162572E+03  0.84471033700E+03  0.00000000000E+00 0.  1.
        -11    1    3    3    0    0 -0.26725324341E+03  0.22479164600E+03  0.25251205308E+03  0.43095001703E+03  0.00000000000E+00 0. -1.
          2    1    6    6  502    0 -0.36379395911E+02 -0.18407154076E+03 -0.10981541315E+03  0.21740565202E+03  0.00000000000E+00 0. -1.
          3    1    5    5  503    0  0.79933649421E+02 -0.47323250305E+02 -0.16355485497E+03  0.18809324526E+03  0.00000000000E+00 0. -1.
         -4    1    5    5    0  503  0.77112301968E+03 -0.22310244666E+03 -0.11997038361E+04  0.14435008512E+04  0.00000000000E+00 0.  1.
         -1    1    6    6    0  502 -0.95203597459E+02 -0.16849826206E+03 -0.17894674053E+03  0.26358551787E+03  0.00000000000E+00 0.  1.
<mgrwt>
<rscale>  0 0.32906140E+04</rscale>
<asrwt>0</asrwt>
<pdfrwt beam="1">  1        2 0.32275021E+00 0.32906140E+04</pdfrwt>
<pdfrwt beam="2">  1       -2 0.19851835E+00 0.32906140E+04</pdfrwt>
<totfact> 0.66990499E-01</totfact>
</mgrwt>
</event>
<event>
12    1  0.1489233E-007  0.2568806E+04  0.7818608E-02  0.8378875E-01
         -1   -1    0    0    0  501 -0.00000000000E+00  0.00000000000E+00  0.80731788335E+03  0.80731788335E+03  0.00000000000E+00 0.  1.
          1   -1    0    0  501    0  0.00000000000E+00 -0.00000000000E+00 -0.20434223612E+04  0.20434223612E+04  0.00000000000E+00 0. -1.
         23    2    1    2    0    0 -0.98470876345E+03 -0.42557055834E+03 -0.93411125648E+03  0.14252794019E+04  0.89977135663E+02 0.  0.
        254    2    1    2    0    0  0.98470876345E+03  0.42557055834E+03 -0.30199322137E+03  0.14254608427E+04  0.88880653652E+03 0.  0.
        -24    2    4    4    0    0  0.62638720604E+03 -0.20049643193E+03 -0.87498236208E+02  0.66817896549E+03  0.79040733025E+02 0.  0.
         24    2    4    4    0    0  0.35832155740E+03  0.62606699027E+03 -0.21449498517E+03  0.75728187720E+03  0.84341733820E+02 0.  0.
         11    1    3    3    0    0 -0.24730134499E+03 -0.96715435546E+02 -0.28269231055E+03  0.38784890506E+03  0.00000000000E+00 0.  1.
        -11    1    3    3    0    0 -0.73740741845E+03 -0.32885512280E+03 -0.65141894592E+03  0.10374304968E+04  0.00000000000E+00 0. -1.
          4    1    6    6  502    0  0.76826845555E+02  0.78194065686E+02 -0.20707179649E+02  0.11155923716E+03  0.00000000000E+00 0. -1.
          3    1    5    5  503    0  0.73139780879E+01 -0.12543426079E+02 -0.72982256915E+01  0.16251028014E+02  0.00000000000E+00 0. -1.
         -4    1    5    5    0  503  0.61907322796E+03 -0.18795300585E+03 -0.80200010517E+02  0.65192793748E+03  0.00000000000E+00 0.  1.
         -3    1    6    6    0  502  0.28149471185E+03  0.54787292459E+03 -0.19378780552E+03  0.64572264004E+03  0.00000000000E+00 0.  1.
<mgrwt>
<rscale>  0 0.25688063E+04</rscale>
<asrwt>0</asrwt>
<pdfrwt beam="1">  1        1 0.31437267E+00 0.25688063E+04</pdfrwt>
<pdfrwt beam="2">  1       -1 0.12420275E+00 0.25688063E+04</pdfrwt>
<totfact> 0.13979378E+00</totfact>
</mgrwt>
</event>
<event>
12    1  0.1489233E-007  0.1168925E+04  0.7818608E-02  0.9140500E-01
          2   -1    0    0  501    0  0.00000000000E+00  0.00000000000E+00  0.12887981985E+04  0.12887981985E+04  0.00000000000E+00 0. -1.
         -2   -1    0    0    0  501 -0.00000000000E+00 -0.00000000000E+00 -0.26505041117E+03  0.26505041117E+03  0.00000000000E+00 0.  1.
         23    2    1    2    0    0 -0.10430437948E+03  0.15860876744E+03  0.38014156243E+03  0.43536372179E+03  0.94856829340E+02 0.  0.
        254    2    1    2    0    0  0.10430437948E+03 -0.15860876744E+03  0.64360622491E+03  0.11184848879E+04  0.89484262694E+03 0.  0.
        -24    2    4    4    0    0  0.39102800658E+03  0.13447524609E+03  0.10152987237E+03  0.43335362987E+03  0.80626049157E+02 0.  0.
         24    2    4    4    0    0 -0.28672362709E+03 -0.29308401354E+03  0.54207635253E+03  0.68513125801E+03  0.86309856905E+02 0.  0.
         13    1    3    3    0    0 -0.23642206711E+02 -0.96383258087E+01  0.41602303803E+02  0.48811913958E+02  0.00000000000E+00 0.  1.
        -13    1    3    3    0    0 -0.80662172772E+02  0.16824709325E+03  0.33853925863E+03  0.38655180783E+03  0.00000000000E+00 0. -1.
          2    1    6    6  502    0 -0.29307197585E+03 -0.28659898228E+03  0.53088688713E+03  0.67072427018E+03  0.00000000000E+00 0. -1.
          3    1    5    5  503    0  0.37838623926E+03  0.13840329231E+03  0.84305304731E+02  0.41162969012E+03  0.00000000000E+00 0. -1.
         -4    1    5    5    0  503  0.12641767315E+02 -0.39280462133E+01  0.17224567644E+02  0.21723939754E+02  0.00000000000E+00 0.  1.
         -1    1    6    6    0  502  0.63483487612E+01 -0.64850312579E+01  0.11189465397E+02  0.14406987829E+02  0.00000000000E+00 0.  1.
<mgrwt>
<rscale>  0 0.11689251E+04</rscale>
<asrwt>0</asrwt>
<pdfrwt beam="1">  1        2 0.19827664E+00 0.11689251E+04</pdfrwt>
<pdfrwt beam="2">  1       -2 0.40776987E-01 0.11689251E+04</pdfrwt>
<totfact> 0.94434464E+01</totfact>
</mgrwt>
</event>
<event>
12    1  0.1489233E-007  0.1098353E+04  0.7818608E-02  0.9206799E-01
          1   -1    0    0  501    0  0.00000000000E+00  0.00000000000E+00  0.43902485657E+03  0.43902485657E+03  0.00000000000E+00 0. -1.
         -1   -1    0    0    0  501 -0.00000000000E+00 -0.00000000000E+00 -0.68696520917E+03  0.68696520917E+03  0.00000000000E+00 0.  1.
         23    2    1    2    0    0 -0.95922996163E+01  0.16652463650E+03  0.11526317378E+03  0.22257104269E+03  0.91813958856E+02 0.  0.
        254    2    1    2    0    0  0.95922996163E+01 -0.16652463650E+03 -0.36320352638E+03  0.90341902305E+03  0.81020161865E+03 0.  0.
        -24    2    4    4    0    0 -0.32424367140E+02  0.26233169257E+03  0.72878794497E+02  0.28533946470E+03  0.78981231412E+02 0.  0.
         24    2    4    4    0    0  0.42016666756E+02 -0.42885632908E+03 -0.43608232088E+03  0.61807955835E+03  0.78558249683E+02 0.  0.
         11    1    3    3    0    0  0.12264601688E+02  0.17895086781E+02  0.57783934493E+02  0.61722262361E+02  0.00000000000E+00 0.  1.
        -11    1    3    3    0    0 -0.21856901304E+02  0.14862954972E+03  0.57479239290E+02  0.16084878033E+03  0.00000000000E+00 0. -1.
          4    1    6    6  502    0 -0.10320196338E+02 -0.24016658950E+03 -0.21221682337E+03  0.32065944128E+03  0.00000000000E+00 0. -1.
          3    1    5    5  503    0 -0.45930050263E+02  0.23913889735E+03  0.46896185957E+02  0.24798434225E+03  0.00000000000E+00 0. -1.
         -4    1    5    5    0  503  0.13505683123E+02  0.23192795224E+02  0.25982608540E+02  0.37355122452E+02  0.00000000000E+00 0.  1.
         -3    1    6    6    0  502  0.52336863094E+02 -0.18868973958E+03 -0.22386549751E+03  0.29742011707E+03  0.00000000000E+00 0.  1.
<mgrwt>
<rscale>  0 0.10983530E+04</rscale>
<asrwt>0</asrwt>
<pdfrwt beam="1">  1        1 0.67542286E-01 0.10983530E+04</pdfrwt>
<pdfrwt beam="2">  1       -1 0.10568695E+00 0.10983530E+04</pdfrwt>
<totfact> 0.44266886E+01</totfact>
</mgrwt>
</event>
<event>
12    1  0.1489233E-007  0.1652105E+04  0.7818608E-02  0.8789162E-01
          1   -1    0    0  501    0  0.00000000000E+00  0.00000000000E+00  0.16132418980E+04  0.16132418980E+04  0.00000000000E+00 0. -1.
         -1   -1    0    0    0  501 -0.00000000000E+00 -0.00000000000E+00 -0.42297599196E+03  0.42297599196E+03  0.00000000000E+00 0.  1.
         23    2    1    2    0    0  0.83927532576E+02 -0.15595665453E+03  0.10899393822E+04  0.11062366663E+04  0.66523650847E+02 0.  0.
        254    2    1    2    0    0 -0.83927532576E+02  0.15595665453E+03  0.10032652385E+03  0.92998122369E+03  0.90743228740E+03 0.  0.
        -24    2    4    4    0    0 -0.37963055713E+03  0.30062279391E+03 -0.14392107387E+03  0.51197058264E+03  0.83109433077E+02 0.  0.
         24    2    4    4    0    0  0.29570302455E+03 -0.14466613937E+03  0.24424759772E+03  0.41801064105E+03  0.81898940348E+02 0.  0.
         11    1    3    3    0    0 -0.32607786038E+01  0.20259398489E+01  0.94289030769E+02  0.94367146999E+02  0.00000000000E+00 0.  1.
        -11    1    3    3    0    0  0.87188311179E+02 -0.15798259438E+03  0.99565035143E+03  0.10118695193E+04  0.00000000000E+00 0. -1.
          2    1    6    6  502    0  0.29584236340E+03 -0.14432173687E+03  0.22490604379E+03  0.39866551926E+03  0.00000000000E+00 0. -1.
          1    1    5    5  503    0 -0.30277811729E+03  0.27611245308E+03 -0.13149444436E+03  0.43035272040E+03  0.00000000000E+00 0. -1.
         -2    1    5    5    0  503 -0.76852439835E+02  0.24510340823E+02 -0.12426629508E+02  0.81617862241E+02  0.00000000000E+00 0.  1.
         -1    1    6    6    0  502 -0.13933884987E+00 -0.34440249842E+00  0.19341553937E+02  0.19345121790E+02  0.00000000000E+00 0.  1.
<mgrwt>
<rscale>  0 0.16521048E+04</rscale>
<asrwt>0</asrwt>
<pdfrwt beam="1">  1        1 0.24819106E+00 0.16521048E+04</pdfrwt>
<pdfrwt beam="2">  1       -1 0.65073230E-01 0.16521048E+04</pdfrwt>
<totfact> 0.12499441E+01</totfact>
</mgrwt>
</event>
<event>
12    1  0.1489233E-007  0.1421674E+04  0.7818608E-02  0.8938278E-01
          2   -1    0    0  501    0  0.00000000000E+00  0.00000000000E+00  0.16228697446E+04  0.16228697446E+04  0.00000000000E+00 0. -1.
         -2   -1    0    0    0  501 -0.00000000000E+00 -0.00000000000E+00 -0.31135538293E+03  0.31135538293E+03  0.00000000000E+00 0.  1.
         23    2    1    2    0    0 -0.97178220697E+02 -0.32954628743E+03  0.66545277450E+02  0.36164505800E+03  0.91183945333E+02 0.  0.
        254    2    1    2    0    0  0.97178220697E+02  0.32954628743E+03  0.12449690843E+04  0.15725800696E+04  0.89722666719E+03 0.  0.
        -24    2    4    4    0    0 -0.10708508905E+03  0.53958718866E+02 -0.10409408723E+03  0.17830106102E+03  0.81098272032E+02 0.  0.
         24    2    4    4    0    0  0.20426330975E+03  0.27558756857E+03  0.13490631715E+04  0.13942790085E+04  0.79815445706E+02 0.  0.
         11    1    3    3    0    0 -0.78188154662E+02 -0.29660257863E+03  0.86504843477E+02  0.31869980409E+03  0.00000000000E+00 0. -1.
        -11    1    3    3    0    0 -0.18990066035E+02 -0.32943708801E+02 -0.19959566028E+02  0.42945253913E+02  0.00000000000E+00 0.  1.
          2    1    6    6  502    0  0.20605902849E+03  0.27779384069E+03  0.13028756843E+04  0.13480040022E+04  0.00000000000E+00 0. -1.
          3    1    5    5  503    0 -0.93863564839E+02  0.34612559919E+02 -0.11502539947E+03  0.15244422138E+03  0.00000000000E+00 0. -1.
         -4    1    5    5    0  503 -0.13221524213E+02  0.19346158947E+02  0.10931312250E+02  0.25856839637E+02  0.00000000000E+00 0.  1.
         -1    1    6    6    0  502 -0.17957187433E+01 -0.22062721183E+01  0.46187487200E+02  0.46275006389E+02  0.00000000000E+00 0.  1.
<mgrwt>
<rscale>  0 0.14216740E+04</rscale>
<asrwt>0</asrwt>
<pdfrwt beam="1">  1        2 0.24967226E+00 0.14216740E+04</pdfrwt>
<pdfrwt beam="2">  1       -2 0.47900829E-01 0.14216740E+04</pdfrwt>
<totfact> 0.43443561E+01</totfact>
</mgrwt>
</event>
<event>
12    1  0.1489233E-007  0.1949768E+04  0.7818608E-02  0.8630473E-01
          1   -1    0    0  501    0  0.00000000000E+00  0.00000000000E+00  0.29215258966E+04  0.29215258966E+04  0.00000000000E+00 0. -1.
         -1   -1    0    0    0  501 -0.00000000000E+00 -0.00000000000E+00 -0.32530893504E+03  0.32530893504E+03  0.00000000000E+00 0.  1.
         23    2    1    2    0    0 -0.74510113156E+03  0.19207123403E+03  0.10742510997E+04  0.13239398424E+04  0.82062329346E+02 0.  0.
        254    2    1    2    0    0  0.74510113156E+03 -0.19207123403E+03  0.15219658619E+04  0.19228949893E+04  0.88830062469E+03 0.  0.
        -24    2    4    4    0    0  0.90182300550E+03 -0.11199902040E+03  0.94112957000E+03  0.13107121983E+04  0.80081742401E+02 0.  0.
         24    2    4    4    0    0 -0.15672187394E+03 -0.80072213629E+02  0.58083629187E+03  0.61218279094E+03  0.80147778575E+02 0.  0.
         13    1    3    3    0    0 -0.11357032431E+02  0.97186963282E+01  0.83555316502E+01  0.17124548261E+02  0.00000000000E+00 0. -1.
        -13    1    3    3    0    0 -0.73374409912E+03  0.18235253770E+03  0.10658955681E+04  0.13068152942E+04  0.00000000000E+00 0.  1.
          2    1    6    6  502    0 -0.56973636232E+02 -0.45325315771E+02  0.36124212516E+03  0.36850543072E+03  0.00000000000E+00 0. -1.
          1    1    5    5  503    0  0.12687074974E+03  0.11365990088E+02  0.12244908879E+03  0.17668942305E+03  0.00000000000E+00 0. -1.
         -2    1    5    5    0  503  0.77495225576E+03 -0.12336501049E+03  0.81868048121E+03  0.11340227753E+04  0.00000000000E+00 0.  1.
         -1    1    6    6    0  502 -0.99748237709E+02 -0.34746897858E+02  0.21959416670E+03  0.24367736023E+03  0.00000000000E+00 0.  1.
<mgrwt>
<rscale>  0 0.19497677E+04</rscale>
<asrwt>0</asrwt>
<pdfrwt beam="1">  1        1 0.44946551E+00 0.19497677E+04</pdfrwt>
<pdfrwt beam="2">  1       -1 0.50047530E-01 0.19497677E+04</pdfrwt>
<totfact> 0.25491304E+00</totfact>
</mgrwt>
</event>
<event>
12    1  0.1489233E-007  0.2918088E+04  0.7818608E-02  0.8267516E-01
          1   -1    0    0  501    0  0.00000000000E+00  0.00000000000E+00  0.20744147518E+04  0.20744147518E+04  0.00000000000E+00 0. -1.
         -1   -1    0    0    0  501 -0.00000000000E+00 -0.00000000000E+00 -0.10262215560E+04  0.10262215560E+04  0.00000000000E+00 0.  1.
         23    2    1    2    0    0  0.12251188121E+04  0.10099245661E+03 -0.44142034930E+02  0.12334525896E+04  0.91330123392E+02 0.  0.
        254    2    1    2    0    0 -0.12251188121E+04 -0.10099245661E+03  0.10923352308E+04  0.18671837182E+04  0.88434337288E+03 0.  0.
        -24    2    4    4    0    0 -0.18109429928E+03  0.23821562402E+03 -0.87635181256E+01  0.31020028212E+03  0.81274762498E+02 0.  0.
         24    2    4    4    0    0 -0.10440245128E+04 -0.33920808063E+03  0.11010987489E+04  0.15569834361E+04  0.82034505791E+02 0.  0.
         11    1    3    3    0    0  0.24549130310E+02 -0.42713339979E+01  0.10497985741E+02  0.27039079084E+02  0.00000000000E+00 0. -1.
        -11    1    3    3    0    0  0.12005696818E+04  0.10526379061E+03 -0.54640020671E+02  0.12064135105E+04  0.00000000000E+00 0.  1.
          2    1    6    6  502    0 -0.38021110393E+03 -0.94051967813E+02  0.43166351481E+03  0.58287189520E+03  0.00000000000E+00 0. -1.
          1    1    5    5  503    0 -0.89360871552E+02  0.14884845520E+03 -0.40467018774E+02  0.17826611453E+03  0.00000000000E+00 0. -1.
         -2    1    5    5    0  503 -0.91733427727E+02  0.89367168822E+02  0.31703500649E+02  0.13193416760E+03  0.00000000000E+00 0.  1.
         -1    1    6    6    0  502 -0.66381340888E+03 -0.24515611282E+03  0.66943523409E+03  0.97411154090E+03  0.00000000000E+00 0.  1.
<mgrwt>
<rscale>  0 0.29180878E+04</rscale>
<asrwt>0</asrwt>
<pdfrwt beam="1">  1        1 0.31914073E+00 0.29180878E+04</pdfrwt>
<pdfrwt beam="2">  1       -1 0.15788024E+00 0.29180878E+04</pdfrwt>
<totfact> 0.68944411E-01</totfact>
</mgrwt>
</event>
<event>
12    1  0.1489233E-007  0.2953339E+04  0.7818608E-02  0.8257182E-01
          2   -1    0    0  501    0  0.00000000000E+00  0.00000000000E+00  0.28808779185E+04  0.28808779185E+04  0.00000000000E+00 0.  1.
         -2   -1    0    0    0  501 -0.00000000000E+00 -0.00000000000E+00 -0.75690541390E+03  0.75690541390E+03  0.00000000000E+00 0. -1.
         23    2    1    2    0    0  0.52620349299E+03  0.11382285373E+04  0.15564895965E+04  0.20011800009E+04  0.98016391292E+02 0.  0.
        254    2    1    2    0    0 -0.52620349299E+03 -0.11382285373E+04  0.56748290812E+03  0.16366033314E+04  0.88542605240E+03 0.  0.
        -24    2    4    4    0    0 -0.24563430974E+03 -0.38393788879E+03 -0.21571061323E+03  0.51047923577E+03  0.79457315117E+02 0.  0.
         24    2    4    4    0    0 -0.28056918325E+03 -0.75429064855E+03  0.78319352134E+03  0.11261240957E+04  0.84201769134E+02 0.  0.
         11    1    3    3    0    0  0.32964755858E+02  0.14577334512E+03  0.17768722236E+03  0.23218374678E+03  0.00000000000E+00 0. -1.
        -11    1    3    3    0    0  0.49323873713E+03  0.99245519221E+03  0.13788023741E+04  0.17689962541E+04  0.00000000000E+00 0.  1.
          2    1    6    6  502    0 -0.33239281341E+02 -0.12238663660E+03  0.86099554703E+02  0.15328558955E+03  0.00000000000E+00 0. -1.
          3    1    5    5  503    0 -0.10037545521E+03 -0.11098206515E+03 -0.40231086078E+02  0.15495415799E+03  0.00000000000E+00 0. -1.
         -4    1    5    5    0  503 -0.14525885453E+03 -0.27295582364E+03 -0.17547952715E+03  0.35552507778E+03  0.00000000000E+00 0.  1.
         -1    1    6    6    0  502 -0.24732990191E+03 -0.63190401194E+03  0.69709396664E+03  0.97283850613E+03  0.00000000000E+00 0.  1.
<mgrwt>
<rscale>  0 0.29533385E+04</rscale>
<asrwt>0</asrwt>
<pdfrwt beam="1">  1        2 0.44321198E+00 0.29533385E+04</pdfrwt>
<pdfrwt beam="2">  1       -2 0.11644699E+00 0.29533385E+04</pdfrwt>
<totfact> 0.10138907E+00</totfact>
</mgrwt>
</event>
<event>
12    1  0.1489233E-007  0.1547774E+04  0.7818608E-02  0.8853291E-01
         -1   -1    0    0    0  501 -0.00000000000E+00  0.00000000000E+00  0.40167156603E+03  0.40167156603E+03  0.00000000000E+00 0.  1.
          1   -1    0    0  501    0  0.00000000000E+00 -0.00000000000E+00 -0.14910215717E+04  0.14910215717E+04  0.00000000000E+00 0. -1.
         23    2    1    2    0    0 -0.10177310206E+03 -0.46714188971E+03 -0.54866602501E+03  0.73335408234E+03  0.90523442623E+02 0.  0.
        254    2    1    2    0    0  0.10177310206E+03  0.46714188971E+03 -0.54068398061E+03  0.11593390553E+04  0.90727535453E+03 0.  0.
        -24    2    4    4    0    0 -0.20070588685E+03  0.27689613490E+03  0.14613003915E+03  0.38036946780E+03  0.79828698790E+02 0.  0.
         24    2    4    4    0    0  0.30247898890E+03  0.19024575481E+03 -0.68681401976E+03  0.77896958755E+03  0.85983339331E+02 0.  0.
         11    1    3    3    0    0 -0.85178845709E+02 -0.33383173659E+03 -0.33224757232E+03  0.47863087387E+03  0.00000000000E+00 0. -1.
        -11    1    3    3    0    0 -0.16594256346E+02 -0.13331015312E+03 -0.21641845269E+03  0.25472320847E+03  0.00000000000E+00 0.  1.
          2    1    6    6  502    0  0.22110091767E+03  0.11686317119E+03 -0.39780519135E+03  0.46988465269E+03  0.00000000000E+00 0. -1.
          3    1    5    5  503    0 -0.11477670348E+03  0.11179023295E+03  0.36400416544E+02  0.16430379840E+03  0.00000000000E+00 0. -1.
         -2    1    5    5    0  503 -0.85929183368E+02  0.16510590195E+03  0.10972962261E+03  0.21606566939E+03  0.00000000000E+00 0.  1.
         -1    1    6    6    0  502  0.81378071237E+02  0.73382583610E+02 -0.28900882841E+03  0.30908493486E+03  0.00000000000E+00 0.  1.
<mgrwt>
<rscale>  0 0.15477738E+04</rscale>
<asrwt>0</asrwt>
<pdfrwt beam="1">  1        1 0.22938793E+00 0.15477738E+04</pdfrwt>
<pdfrwt beam="2">  1       -1 0.61795627E-01 0.15477738E+04</pdfrwt>
<totfact> 0.16984107E+01</totfact>
</mgrwt>
</event>
<event>
12    1  0.1489233E-007  0.2011699E+04  0.7818608E-02  0.8601171E-01
         -1   -1    0    0    0  501 -0.00000000000E+00  0.00000000000E+00  0.43004149522E+03  0.43004149522E+03  0.00000000000E+00 0.  1.
          1   -1    0    0  501    0  0.00000000000E+00 -0.00000000000E+00 -0.23526406199E+04  0.23526406199E+04  0.00000000000E+00 0. -1.
         23    2    1    2    0    0 -0.18891367863E+03 -0.53512320700E+03  0.11275110301E+02  0.57570755464E+03  0.96264405221E+02 0.  0.
        254    2    1    2    0    0  0.18891367863E+03  0.53512320700E+03 -0.19338742349E+04  0.22069745604E+04  0.89934527811E+03 0.  0.
        -24    2    4    4    0    0  0.13140324138E+03  0.73688782897E+03 -0.10300763514E+04  0.12758266258E+04  0.80036273998E+02 0.  0.
         24    2    4    4    0    0  0.57510437244E+02 -0.20176462197E+03 -0.90379788358E+03  0.93114793464E+03  0.78545838520E+02 0.  0.
         11    1    3    3    0    0 -0.17172053248E+03 -0.44470877732E+03 -0.23578935878E+02  0.47729425318E+03  0.00000000000E+00 0.  1.
        -11    1    3    3    0    0 -0.17193146142E+02 -0.90414429681E+02  0.34854046179E+02  0.98413301458E+02  0.00000000000E+00 0. -1.
          2    1    6    6  502    0  0.16979471153E+02 -0.19201107750E+02 -0.24452843702E+03  0.24586813842E+03  0.00000000000E+00 0. -1.
          1    1    5    5  503    0  0.30756579351E+02  0.63270817510E+02 -0.12011274238E+03  0.13919854311E+03  0.00000000000E+00 0. -1.
         -2    1    5    5    0  503  0.10064666203E+03  0.67361701146E+03 -0.90996360897E+03  0.11366280827E+04  0.00000000000E+00 0.  1.
         -1    1    6    6    0  502  0.40530966092E+02 -0.18256351422E+03 -0.65926944656E+03  0.68527979622E+03  0.00000000000E+00 0.  1.
<mgrwt>
<rscale>  0 0.20116989E+04</rscale>
<asrwt>0</asrwt>
<pdfrwt beam="1">  1        1 0.36194471E+00 0.20116989E+04</pdfrwt>
<pdfrwt beam="2">  1       -1 0.66160230E-01 0.20116989E+04</pdfrwt>
<totfact> 0.36752759E+00</totfact>
</mgrwt>
</event>
<event>
12    1  0.1489233E-007  0.2014856E+04  0.7818608E-02  0.8599706E-01
          2   -1    0    0  501    0  0.00000000000E+00  0.00000000000E+00  0.20331407173E+04  0.20331407173E+04  0.00000000000E+00 0. -1.
         -2   -1    0    0    0  501 -0.00000000000E+00 -0.00000000000E+00 -0.49918378008E+03  0.49918378008E+03  0.00000000000E+00 0.  1.
         23    2    1    2    0    0  0.37917728138E+03  0.31741721768E+03 -0.17833898133E+03  0.53356964928E+03  0.91447676755E+02 0.  0.
        254    2    1    2    0    0 -0.37917728138E+03 -0.31741721768E+03  0.17122959185E+04  0.19987548480E+04  0.90472898113E+03 0.  0.
        -24    2    4    4    0    0 -0.45115937569E+03 -0.56638419078E+03  0.14446784480E+04  0.16178915345E+04  0.78366865261E+02 0.  0.
         24    2    4    4    0    0  0.71982094312E+02  0.24896697310E+03  0.26761747055E+03  0.38086331355E+03  0.79194554554E+02 0.  0.
         13    1    3    3    0    0  0.22917148863E+03  0.19977075982E+03 -0.15576713106E+03  0.34160112236E+03  0.00000000000E+00 0.  1.
        -13    1    3    3    0    0  0.15000579275E+03  0.11764645786E+03 -0.22571850272E+02  0.19196852693E+03  0.00000000000E+00 0. -1.
          4    1    6    6  502    0  0.85563588064E+02  0.16744662422E+03  0.19416474250E+03  0.27029511057E+03  0.00000000000E+00 0. -1.
          1    1    5    5  503    0 -0.37269226248E+03 -0.43821457971E+03  0.11996625451E+04  0.13304592299E+04  0.00000000000E+00 0. -1.
         -2    1    5    5    0  503 -0.78467113214E+02 -0.12816961107E+03  0.24501590283E+03  0.28743230455E+03  0.00000000000E+00 0.  1.
         -3    1    6    6    0  502 -0.13581493752E+02  0.81520348884E+02  0.73452728047E+02  0.11056820299E+03  0.00000000000E+00 0.  1.
<mgrwt>
<rscale>  0 0.20148557E+04</rscale>
<asrwt>0</asrwt>
<pdfrwt beam="1">  1        2 0.31279087E+00 0.20148557E+04</pdfrwt>
<pdfrwt beam="2">  1       -2 0.76797506E-01 0.20148557E+04</pdfrwt>
<totfact> 0.90001294E+00</totfact>
</mgrwt>
</event>
<event>
12    1  0.1489233E-007  0.2109383E+04  0.7818608E-02  0.8557121E-01
         -2   -1    0    0    0  501 -0.00000000000E+00  0.00000000000E+00  0.43044169540E+03  0.43044169540E+03  0.00000000000E+00 0.  1.
          2   -1    0    0  501    0  0.00000000000E+00 -0.00000000000E+00 -0.25842614681E+04  0.25842614681E+04  0.00000000000E+00 0. -1.
         23    2    1    2    0    0  0.73211855078E+02 -0.34809227096E+03 -0.20129676466E+04  0.20461903102E+04  0.91256967757E+02 0.  0.
        254    2    1    2    0    0 -0.73211855078E+02  0.34809227096E+03 -0.14085212606E+03  0.96851285334E+03  0.88974694202E+03 0.  0.
        -24    2    4    4    0    0 -0.42523228141E+03  0.29044460297E+03 -0.26236153145E+03  0.58336346349E+03  0.79364959527E+02 0.  0.
         24    2    4    4    0    0  0.35202042633E+03  0.57647667996E+02  0.12150940539E+03  0.38514938985E+03  0.79585694222E+02 0.  0.
         11    1    3    3    0    0  0.64158332151E+02 -0.34964319431E+03 -0.19891206777E+04  0.20206354756E+04  0.00000000000E+00 0. -1.
        -11    1    3    3    0    0  0.90535229272E+01  0.15509233508E+01 -0.23846968972E+02  0.25554834568E+02  0.00000000000E+00 0.  1.
          2    1    6    6  502    0  0.46631196210E+02  0.36742061864E+02  0.18751859540E+02  0.62258170598E+02  0.00000000000E+00 0. -1.
          1    1    5    5  503    0 -0.43140293924E+01  0.14095894107E+02 -0.19171073530E+02  0.24183364955E+02  0.00000000000E+00 0. -1.
         -2    1    5    5    0  503 -0.42091825202E+03  0.27634870886E+03 -0.24319045792E+03  0.55918009853E+03  0.00000000000E+00 0.  1.
         -1    1    6    6    0  502  0.30538923012E+03  0.20905606132E+02  0.10275754585E+03  0.32289121925E+03  0.00000000000E+00 0.  1.
<mgrwt>
<rscale>  0 0.21093827E+04</rscale>
<asrwt>0</asrwt>
<pdfrwt beam="1">  1        2 0.39757869E+00 0.21093827E+04</pdfrwt>
<pdfrwt beam="2">  1       -2 0.66221799E-01 0.21093827E+04</pdfrwt>
<totfact> 0.60061657E+00</totfact>
</mgrwt>
</event>
<event>
12    1  0.1489233E-007  0.1694491E+04  0.7818608E-02  0.8764512E-01
         -2   -1    0    0    0  501 -0.00000000000E+00  0.00000000000E+00  0.70707818418E+03  0.70707818418E+03  0.00000000000E+00 0.  1.
          2   -1    0    0  501    0  0.00000000000E+00 -0.00000000000E+00 -0.10151993355E+04  0.10151993355E+04  0.00000000000E+00 0. -1.
         23    2    1    2    0    0 -0.21349506266E+01  0.10511992369E+03  0.49733640543E+03  0.51495150740E+03  0.82321312184E+02 0.  0.
        254    2    1    2    0    0  0.21349506266E+01 -0.10511992369E+03 -0.80545755677E+03  0.12073260123E+04  0.89320740472E+03 0.  0.
        -24    2    4    4    0    0  0.25220151098E+03 -0.19394925328E+03  0.29024005672E+02  0.32830969133E+03  0.75650152201E+02 0.  0.
         24    2    4    4    0    0 -0.25006656035E+03  0.88829329593E+02 -0.83448156245E+03  0.87901632097E+03  0.76722096386E+02 0.  0.
         11    1    3    3    0    0 -0.74385835424E+01  0.92740110455E+02  0.24212524308E+03  0.25938522308E+03  0.00000000000E+00 0. -1.
        -11    1    3    3    0    0  0.53036329158E+01  0.12379813233E+02  0.25521116235E+03  0.25556628432E+03  0.00000000000E+00 0.  1.
          2    1    6    6  502    0 -0.19106326996E+03  0.62012598914E+02 -0.71962902328E+03  0.74713898753E+03  0.00000000000E+00 0. -1.
          1    1    5    5  503    0  0.88402148615E+02 -0.91696493428E+02  0.43697363074E+02  0.13465751493E+03  0.00000000000E+00 0. -1.
         -2    1    5    5    0  503  0.16379936236E+03 -0.10225275985E+03 -0.14673357402E+02  0.19365217640E+03  0.00000000000E+00 0.  1.
         -1    1    6    6    0  502 -0.59003290393E+02  0.26816730679E+02 -0.11485253917E+03  0.13187733344E+03  0.00000000000E+00 0.  1.
<mgrwt>
<rscale>  0 0.16944914E+04</rscale>
<asrwt>0</asrwt>
<pdfrwt beam="1">  1        2 0.15618451E+00 0.16944914E+04</pdfrwt>
<pdfrwt beam="2">  1       -2 0.10878126E+00 0.16944914E+04</pdfrwt>
<totfact> 0.15828056E+01</totfact>
</mgrwt>
</event>
<event>
12    1  0.1489233E-007  0.3233723E+04  0.7818608E-02  0.8179967E-01
          2   -1    0    0  501    0  0.00000000000E+00  0.00000000000E+00  0.79737594192E+03  0.79737594192E+03  0.00000000000E+00 0. -1.
         -2   -1    0    0    0  501 -0.00000000000E+00 -0.00000000000E+00 -0.32785547156E+04  0.32785547156E+04  0.00000000000E+00 0.  1.
         23    2    1    2    0    0 -0.14352705060E+03 -0.14784336377E+04 -0.12849379174E+04  0.19661340160E+04  0.90837668341E+02 0.  0.
        254    2    1    2    0    0  0.14352705060E+03  0.14784336377E+04 -0.11962408563E+04  0.21097966415E+04  0.90215500171E+03 0.  0.
        -24    2    4    4    0    0  0.17160872421E+03  0.10249241948E+04 -0.12697025041E+04  0.16426974355E+04  0.79945332178E+02 0.  0.
         24    2    4    4    0    0 -0.28081673605E+02  0.45350944285E+03  0.73461647869E+02  0.46709920605E+03  0.79534014379E+02 0.  0.
         11    1    3    3    0    0 -0.78051921415E+02 -0.65186334432E+03 -0.62440945107E+03  0.90603812540E+03  0.00000000000E+00 0. -1.
        -11    1    3    3    0    0 -0.65475129189E+02 -0.82657029336E+03 -0.66052846638E+03  0.10600958906E+04  0.00000000000E+00 0.  1.
          4    1    6    6  502    0 -0.18227983504E+02  0.18186280137E+03 -0.91346858104E+01  0.18300213220E+03  0.00000000000E+00 0. -1.
          3    1    5    5  503    0  0.18993735395E+02  0.28705600676E+02 -0.42329337173E+02  0.54557733456E+02  0.00000000000E+00 0. -1.
         -4    1    5    5    0  503  0.15261498881E+03  0.99621859416E+03 -0.12273731669E+04  0.15881397020E+04  0.00000000000E+00 0.  1.
         -3    1    6    6    0  502 -0.98536901010E+01  0.27164664147E+03  0.82596333679E+02  0.28409707385E+03  0.00000000000E+00 0.  1.
<mgrwt>
<rscale>  0 0.32337227E+04</rscale>
<asrwt>0</asrwt>
<pdfrwt beam="1">  1        2 0.12267322E+00 0.32337227E+04</pdfrwt>
<pdfrwt beam="2">  1       -2 0.50439304E+00 0.32337227E+04</pdfrwt>
<totfact> 0.44906279E-02</totfact>
</mgrwt>
</event>
<event>
12    1  0.1489233E-007  0.1741528E+04  0.7818608E-02  0.8738028E-01
          1   -1    0    0  501    0  0.00000000000E+00  0.00000000000E+00  0.42994805950E+03  0.42994805950E+03  0.00000000000E+00 0. -1.
         -1   -1    0    0    0  501 -0.00000000000E+00 -0.00000000000E+00 -0.17635383670E+04  0.17635383670E+04  0.00000000000E+00 0.  1.
         23    2    1    2    0    0  0.24915375505E+03  0.15418534328E+02  0.25328093616E+03  0.36741456414E+03  0.92341239240E+02 0.  0.
        254    2    1    2    0    0 -0.24915375505E+03 -0.15418534328E+02 -0.15868712436E+04  0.18260718623E+04  0.86836788156E+03 0.  0.
        -24    2    4    4    0    0 -0.28974091103E+03  0.27674305010E+03 -0.14214791824E+04  0.14789090587E+04  0.77668697761E+02 0.  0.
         24    2    4    4    0    0  0.40587155983E+02 -0.29216158443E+03 -0.16539206119E+03  0.34716280361E+03  0.78496940435E+02 0.  0.
         13    1    3    3    0    0  0.22754797732E+03  0.83289091317E+01  0.25808502012E+03  0.34417340153E+03  0.00000000000E+00 0. -1.
        -13    1    3    3    0    0  0.21605777723E+02  0.70896251961E+01 -0.48040839646E+01  0.23241162603E+02  0.00000000000E+00 0.  1.
          4    1    6    6  502    0 -0.19691701975E+01 -0.20232754705E+03 -0.85615945399E+02  0.21970526628E+03  0.00000000000E+00 0. -1.
          1    1    5    5  503    0 -0.14266316861E+03  0.18794464698E+03 -0.85327158963E+03  0.88529564309E+03  0.00000000000E+00 0. -1.
         -2    1    5    5    0  503 -0.14707774242E+03  0.88798403116E+02 -0.56820759281E+03  0.59361341565E+03  0.00000000000E+00 0.  1.
         -3    1    6    6    0  502  0.42556326181E+02 -0.89834037378E+02 -0.79776115796E+02  0.12745753733E+03  0.00000000000E+00 0.  1.
<mgrwt>
<rscale>  0 0.17415279E+04</rscale>
<asrwt>0</asrwt>
<pdfrwt beam="1">  1        1 0.66145857E-01 0.17415279E+04</pdfrwt>
<pdfrwt beam="2">  1       -1 0.27131359E+00 0.17415279E+04</pdfrwt>
<totfact> 0.26181016E+00</totfact>
</mgrwt>
</event>
<event>
12    1  0.2226378E-007  0.1481274E+04  0.7818608E-02  0.8897002E-01
         -2   -1    0    0    0  501 -0.00000000000E+00  0.00000000000E+00  0.22701440959E+03  0.22701440959E+03  0.00000000000E+00 0.  1.
          2   -1    0    0  501    0  0.00000000000E+00 -0.00000000000E+00 -0.24163373959E+04  0.24163373959E+04  0.00000000000E+00 0. -1.
         23    2    1    2    0    0  0.79419193001E+02  0.13733104260E+02  0.11557353893E+03  0.16755886211E+03  0.90679231359E+02 0.  0.
        254    2    1    2    0    0 -0.79419193001E+02 -0.13733104260E+02 -0.23048965252E+04  0.24757929434E+04  0.90028145604E+03 0.  0.
        -24    2    4    4    0    0 -0.32610611473E+03 -0.18021618888E+03 -0.42412198120E+03  0.56989354795E+03  0.77949523792E+02 0.  0.
         24    2    4    4    0    0  0.24668692173E+03  0.16648308462E+03 -0.18807745440E+04  0.19058993954E+04  0.81046685355E+02 0.  0.
         13    1    3    3    0    0  0.14612661338E+02 -0.26089027988E+02  0.85571308046E+00  0.29914870844E+02  0.00000000000E+00 0. -1.
        -13    1    3    3    0    0  0.64806531664E+02  0.39822132248E+02  0.11471782585E+03  0.13764399126E+03  0.00000000000E+00 0.  1.
          2    1    6    6  502    0  0.84791355449E+02  0.19426002844E+02 -0.42766275483E+03  0.43641995305E+03  0.00000000000E+00 0. -1.
          1    1    5    5  503    0 -0.22418357084E+02  0.40684949556E+01 -0.44474402201E+02  0.49971069997E+02  0.00000000000E+00 0. -1.
         -2    1    5    5    0  503 -0.30368775765E+03 -0.18428468384E+03 -0.37964757900E+03  0.51992247795E+03  0.00000000000E+00 0.  1.
         -1    1    6    6    0  502  0.16189556628E+03  0.14705708178E+03 -0.14531117892E+04  0.14694794424E+04  0.00000000000E+00 0.  1.
<mgrwt>
<rscale>  0 0.14812743E+04</rscale>
<asrwt>0</asrwt>
<pdfrwt beam="1">  1        2 0.37174419E+00 0.14812743E+04</pdfrwt>
<pdfrwt beam="2">  1       -2 0.34925296E-01 0.14812743E+04</pdfrwt>
<totfact> 0.29024546E+01</totfact>
</mgrwt>
</event>
<event>
12    1  0.1489233E-007  0.1937217E+04  0.7818608E-02  0.8636550E-01
         -1   -1    0    0    0  501 -0.00000000000E+00  0.00000000000E+00  0.77092797321E+03  0.77092797321E+03  0.00000000000E+00 0.  1.
          1   -1    0    0  501    0  0.00000000000E+00 -0.00000000000E+00 -0.12169785405E+04  0.12169785405E+04  0.00000000000E+00 0. -1.
         23    2    1    2    0    0  0.49585902402E+03 -0.22877675219E+03  0.36365924906E+03  0.66230564363E+03  0.90475091135E+02 0.  0.
        254    2    1    2    0    0 -0.49585902402E+03  0.22877675219E+03 -0.80970981630E+03  0.13256008700E+04  0.89631060799E+03 0.  0.
        -24    2    4    4    0    0 -0.20112637780E+02  0.47634905878E+03 -0.24232033577E+03  0.54071012528E+03  0.79594914733E+02 0.  0.
         24    2    4    4    0    0 -0.47574638624E+03 -0.24757230659E+03 -0.56738948053E+03  0.78489074476E+03  0.80597689739E+02 0.  0.
         11    1    3    3    0    0  0.45851215088E+03 -0.20471260024E+03  0.30082644981E+03  0.58535219664E+03  0.00000000000E+00 0.  1.
        -11    1    3    3    0    0  0.37346873131E+02 -0.24064151947E+02  0.62832799254E+02  0.76953446991E+02  0.00000000000E+00 0. -1.
          2    1    6    6  502    0 -0.72601615417E+02 -0.23499602856E+02 -0.47459498368E+02  0.89864508461E+02  0.00000000000E+00 0. -1.
          1    1    5    5  503    0 -0.88664677526E+01  0.60136434341E+02 -0.38927634911E+01  0.60911071188E+02  0.00000000000E+00 0. -1.
         -2    1    5    5    0  503 -0.11246170028E+02  0.41621262444E+03 -0.23842757228E+03  0.47979905409E+03  0.00000000000E+00 0.  1.
         -1    1    6    6    0  502 -0.40314477082E+03 -0.22407270373E+03 -0.51992998216E+03  0.69502623630E+03  0.00000000000E+00 0.  1.
<mgrwt>
<rscale>  0 0.19372174E+04</rscale>
<asrwt>0</asrwt>
<pdfrwt beam="1">  1        1 0.18722747E+00 0.19372174E+04</pdfrwt>
<pdfrwt beam="2">  1       -1 0.11860430E+00 0.19372174E+04</pdfrwt>
<totfact> 0.61708575E+00</totfact>
</mgrwt>
</event>
<event>
12    1  0.1489233E-007  0.1394938E+04  0.7818608E-02  0.8957491E-01
         -2   -1    0    0    0  501 -0.00000000000E+00  0.00000000000E+00  0.71571475208E+03  0.71571475208E+03  0.00000000000E+00 0. -1.
          2   -1    0    0  501    0  0.00000000000E+00 -0.00000000000E+00 -0.67968802349E+03  0.67968802349E+03  0.00000000000E+00 0.  1.
         23    2    1    2    0    0  0.24488893216E+03 -0.13307111198E+03 -0.26521160721E+03  0.39599009574E+03  0.93768061655E+02 0.  0.
        254    2    1    2    0    0 -0.24488893216E+03  0.13307111198E+03  0.30123833580E+03  0.99941267983E+03  0.91126431935E+03 0.  0.
        -24    2    4    4    0    0  0.23863241802E+03 -0.21881961814E+03  0.24084795221E+02  0.33538555276E+03  0.84118579553E+02 0.  0.
         24    2    4    4    0    0 -0.48352135019E+03  0.35189073011E+03  0.27715354058E+03  0.66402712707E+03  0.80609915081E+02 0.  0.
         13    1    3    3    0    0  0.24499634473E+03 -0.10593886072E+03 -0.24152877265E+03  0.35997555356E+03  0.00000000000E+00 0.  1.
        -13    1    3    3    0    0 -0.10741257006E+00 -0.27132251254E+02 -0.23682834564E+02  0.36014542181E+02  0.00000000000E+00 0. -1.
          2    1    6    6  502    0 -0.30044823812E+03  0.25794989328E+03  0.20552724324E+03  0.44614878566E+03  0.00000000000E+00 0. -1.
          1    1    5    5  503    0  0.79572226512E+02 -0.12204712403E+03 -0.10268993664E+02  0.14605715301E+03  0.00000000000E+00 0. -1.
         -2    1    5    5    0  503  0.15906019151E+03 -0.96772494109E+02  0.34353788885E+02  0.18932839975E+03  0.00000000000E+00 0.  1.
         -1    1    6    6    0  502 -0.18307311207E+03  0.93940836830E+02  0.71626297342E+02  0.21787834141E+03  0.00000000000E+00 0.  1.
<mgrwt>
<rscale>  0 0.13949376E+04</rscale>
<asrwt>0</asrwt>
<pdfrwt beam="1">  1        2 0.10456739E+00 0.13949376E+04</pdfrwt>
<pdfrwt beam="2">  1       -2 0.11010996E+00 0.13949376E+04</pdfrwt>
<totfact> 0.27139475E+01</totfact>
</mgrwt>
</event>
<event>
12    1  0.1489233E-007  0.1578923E+04  0.7818608E-02  0.8833602E-01
          2   -1    0    0  501    0  0.00000000000E+00  0.00000000000E+00  0.52059003922E+03  0.52059003922E+03  0.00000000000E+00 0. -1.
         -2   -1    0    0    0  501 -0.00000000000E+00 -0.00000000000E+00 -0.11971976439E+04  0.11971976439E+04  0.00000000000E+00 0.  1.
         23    2    1    2    0    0  0.18731089945E+03  0.17959868832E+03  0.27322863166E+03  0.38738227390E+03  0.89833618839E+02 0.  0.
        254    2    1    2    0    0 -0.18731089945E+03 -0.17959868832E+03 -0.94983623629E+03  0.13304054092E+04  0.89467793932E+03 0.  0.
        -24    2    4    4    0    0 -0.93897440688E+02 -0.38847048421E+03 -0.64771666537E+02  0.41264752831E+03  0.79728083906E+02 0.  0.
         24    2    4    4    0    0 -0.93413458763E+02  0.20887179589E+03 -0.88506456975E+03  0.91775788087E+03  0.81158695593E+02 0.  0.
         11    1    3    3    0    0  0.16696714252E+02 -0.85114866481E+01  0.86377473694E+01  0.20635802659E+02  0.00000000000E+00 0.  1.
        -11    1    3    3    0    0  0.17061418520E+03  0.18811017497E+03  0.26459088429E+03  0.36674647124E+03  0.00000000000E+00 0. -1.
          4    1    6    6  502    0 -0.10905238751E+02 -0.43507639786E+01 -0.80058059193E+02  0.80914437656E+02  0.00000000000E+00 0. -1.
          3    1    5    5  503    0 -0.33290229453E+02 -0.32921428258E+02 -0.57150325833E+01  0.47166952552E+02  0.00000000000E+00 0. -1.
         -4    1    5    5    0  503 -0.60607211235E+02 -0.35554905595E+03 -0.59056633953E+02  0.36548057576E+03  0.00000000000E+00 0.  1.
         -3    1    6    6    0  502 -0.82508220012E+02  0.21322255986E+03 -0.80500651056E+03  0.83684344321E+03  0.00000000000E+00 0.  1.
<mgrwt>
<rscale>  0 0.15789226E+04</rscale>
<asrwt>0</asrwt>
<pdfrwt beam="1">  1        2 0.80090776E-01 0.15789226E+04</pdfrwt>
<pdfrwt beam="2">  1       -2 0.18418425E+00 0.15789226E+04</pdfrwt>
<totfact> 0.95650264E+00</totfact>
</mgrwt>
</event>
<event>
12    1  0.1489233E-007  0.1177544E+04  0.7818608E-02  0.9132743E-01
         -2   -1    0    0    0  501 -0.00000000000E+00  0.00000000000E+00  0.21509478586E+03  0.21509478586E+03  0.00000000000E+00 0.  1.
          2   -1    0    0  501    0  0.00000000000E+00 -0.00000000000E+00 -0.16116257211E+04  0.16116257211E+04  0.00000000000E+00 0. -1.
         23    2    1    2    0    0  0.21185979353E+03  0.75371026011E+02 -0.18376857467E+03  0.30314228983E+03  0.86942481971E+02 0.  0.
        254    2    1    2    0    0 -0.21185979353E+03 -0.75371026011E+02 -0.12127623606E+04  0.15235782171E+04  0.89438955540E+03 0.  0.
        -24    2    4    4    0    0  0.31264618328E+03  0.12318556422E+03 -0.56704072327E+03  0.66471563227E+03  0.85961449412E+02 0.  0.
         24    2    4    4    0    0 -0.52450597682E+03 -0.19855659023E+03 -0.64572163729E+03  0.85886258485E+03  0.78468258226E+02 0.  0.
         13    1    3    3    0    0  0.19470296776E+02  0.10993803583E+02 -0.63444656820E+02  0.67269463004E+02  0.00000000000E+00 0. -1.
        -13    1    3    3    0    0  0.19238949676E+03  0.64377222429E+02 -0.12032391785E+03  0.23587282683E+03  0.00000000000E+00 0.  1.
          2    1    6    6  502    0 -0.18960451121E+03 -0.92226390313E+02 -0.19351414634E+03  0.28618753043E+03  0.00000000000E+00 0. -1.
          3    1    5    5  503    0  0.29597137067E+03  0.98889681289E+02 -0.47727101465E+03  0.57023314771E+03  0.00000000000E+00 0. -1.
         -4    1    5    5    0  503  0.16674812611E+02  0.24295882928E+02 -0.89769708617E+02  0.94482484557E+02  0.00000000000E+00 0.  1.
         -1    1    6    6    0  502 -0.33490146561E+03 -0.10633019992E+03 -0.45220749095E+03  0.57267505442E+03  0.00000000000E+00 0.  1.
<mgrwt>
<rscale>  0 0.11775437E+04</rscale>
<asrwt>0</asrwt>
<pdfrwt beam="1">  1        2 0.24794243E+00 0.11775437E+04</pdfrwt>
<pdfrwt beam="2">  1       -2 0.33091505E-01 0.11775437E+04</pdfrwt>
<totfact> 0.92512787E+01</totfact>
</mgrwt>
</event>
<event>
12    1  0.1489233E-007  0.1541442E+04  0.7818608E-02  0.8857353E-01
          2   -1    0    0  501    0  0.00000000000E+00  0.00000000000E+00  0.19757208311E+04  0.19757208311E+04  0.00000000000E+00 0. -1.
         -2   -1    0    0    0  501 -0.00000000000E+00 -0.00000000000E+00 -0.30065511227E+03  0.30065511227E+03  0.00000000000E+00 0.  1.
         23    2    1    2    0    0 -0.32713684186E+03  0.31849672555E+03  0.21806555704E+03  0.51582402602E+03  0.10031530868E+03 0.  0.
        254    2    1    2    0    0  0.32713684186E+03 -0.31849672555E+03  0.14570001618E+04  0.17605519174E+04  0.87649010535E+03 0.  0.
        -24    2    4    4    0    0  0.41488270734E+03 -0.71238710114E+02  0.14207857893E+04  0.14840204404E+04  0.80509588591E+02 0.  0.
         24    2    4    4    0    0 -0.87745865481E+02 -0.24725801544E+03  0.36214372563E+02  0.27653147700E+03  0.79512979336E+02 0.  0.
         13    1    3    3    0    0 -0.10122643828E+03  0.12758584700E+03  0.12643476275E+03  0.20618120524E+03  0.00000000000E+00 0. -1.
        -13    1    3    3    0    0 -0.22591040358E+03  0.19091087855E+03  0.91630794289E+02  0.30964282077E+03  0.00000000000E+00 0.  1.
          2    1    6    6  502    0 -0.64435516585E+02 -0.11096648854E+03  0.49696037539E+02  0.13760520893E+03  0.00000000000E+00 0. -1.
          3    1    5    5  503    0  0.22023333226E+03  0.18142110907E+01  0.69733506546E+03  0.73128804552E+03  0.00000000000E+00 0. -1.
         -4    1    5    5    0  503  0.19464937508E+03 -0.73052921205E+02  0.72345072380E+03  0.75273239487E+03  0.00000000000E+00 0.  1.
         -1    1    6    6    0  502 -0.23310348896E+02 -0.13629152690E+03 -0.13481664976E+02  0.13892626807E+03  0.00000000000E+00 0.  1.
<mgrwt>
<rscale>  0 0.15414416E+04</rscale>
<asrwt>0</asrwt>
<pdfrwt beam="1">  1        2 0.30395704E+00 0.15414416E+04</pdfrwt>
<pdfrwt beam="2">  1       -2 0.46254634E-01 0.15414416E+04</pdfrwt>
<totfact> 0.29426875E+01</totfact>
</mgrwt>
</event>
<event>
12    1  0.1489233E-007  0.2316033E+04  0.7818608E-02  0.8471626E-01
         -2   -1    0    0    0  501 -0.00000000000E+00  0.00000000000E+00  0.19414378584E+04  0.19414378584E+04  0.00000000000E+00 0.  1.
          2   -1    0    0  501    0  0.00000000000E+00 -0.00000000000E+00 -0.69072607111E+03  0.69072607111E+03  0.00000000000E+00 0. -1.
         23    2    1    2    0    0  0.45926911429E+03 -0.40708169875E+03  0.13910647825E+04  0.15232416711E+04  0.92522054372E+02 0.  0.
        254    2    1    2    0    0 -0.45926911429E+03  0.40708169875E+03 -0.14035299525E+03  0.11089222584E+04  0.91288881203E+03 0.  0.
        -24    2    4    4    0    0  0.25250526473E+03  0.16972709736E+03 -0.15996019379E+03  0.35350997922E+03  0.82558134188E+02 0.  0.
         24    2    4    4    0    0 -0.71177437901E+03  0.23735460139E+03  0.19607198545E+02  0.75541227919E+03  0.85459323022E+02 0.  0.
         13    1    3    3    0    0  0.36834227606E+03 -0.32668066429E+03  0.11976321356E+04  0.12948818560E+04  0.00000000000E+00 0.  1.
        -13    1    3    3    0    0  0.90926838229E+02 -0.80401034455E+02  0.19343264692E+03  0.22835981509E+03  0.00000000000E+00 0. -1.
          2    1    6    6  502    0 -0.40557797354E+03  0.10702207639E+03  0.43870258609E+02  0.42174852346E+03  0.00000000000E+00 0. -1.
          3    1    5    5  503    0  0.19667244718E+03  0.15781445694E+03 -0.10157225723E+03  0.27184991767E+03  0.00000000000E+00 0. -1.
         -4    1    5    5    0  503  0.55832817551E+02  0.11912640417E+02 -0.58387936559E+02  0.81660061554E+02  0.00000000000E+00 0.  1.
         -1    1    6    6    0  502 -0.30619640548E+03  0.13033252501E+03 -0.24263060065E+02  0.33366375573E+03  0.00000000000E+00 0.  1.
<mgrwt>
<rscale>  0 0.23160326E+04</rscale>
<asrwt>0</asrwt>
<pdfrwt beam="1">  1        2 0.10626555E+00 0.23160326E+04</pdfrwt>
<pdfrwt beam="2">  1       -2 0.29868275E+00 0.23160326E+04</pdfrwt>
<totfact> 0.12221021E+00</totfact>
</mgrwt>
</event>
<event>
12    1  0.1489233E-007  0.1960967E+04  0.7818608E-02  0.8625090E-01
         -2   -1    0    0    0  501 -0.00000000000E+00  0.00000000000E+00  0.50526607147E+03  0.50526607147E+03  0.00000000000E+00 0.  1.
          2   -1    0    0  501    0  0.00000000000E+00 -0.00000000000E+00 -0.19026566400E+04  0.19026566400E+04  0.00000000000E+00 0. -1.
         23    2    1    2    0    0  0.69182095258E+02 -0.28577036420E+03  0.32250734780E+03  0.44423483302E+03  0.82962245139E+02 0.  0.
        254    2    1    2    0    0 -0.69182095258E+02  0.28577036420E+03 -0.17198979163E+04  0.19636878784E+04  0.90087200980E+03 0.  0.
        -24    2    4    4    0    0  0.34429875583E+03 -0.72580167093E+02 -0.94832090525E+03  0.10145632628E+04  0.78845170868E+02 0.  0.
         24    2    4    4    0    0 -0.41348085109E+03  0.35835053130E+03 -0.77157701107E+03  0.94912461565E+03  0.78261960819E+02 0.  0.
         13    1    3    3    0    0  0.20193821533E+02 -0.15341201521E+03  0.22350020303E+03  0.27183704235E+03  0.00000000000E+00 0. -1.
        -13    1    3    3    0    0  0.48988273725E+02 -0.13235834900E+03  0.99007144771E+02  0.17239779067E+03  0.00000000000E+00 0.  1.
          4    1    6    6  502    0 -0.29342427943E+03  0.27326394515E+03 -0.50711138722E+03  0.64647733954E+03  0.00000000000E+00 0. -1.
          1    1    5    5  503    0  0.25826573755E+03 -0.24466249444E+02 -0.62976232775E+03  0.68110232565E+03  0.00000000000E+00 0. -1.
         -2    1    5    5    0  503  0.86033018281E+02 -0.48113917649E+02 -0.31855857750E+03  0.33346093715E+03  0.00000000000E+00 0.  1.
         -3    1    6    6    0  502 -0.12005657166E+03  0.85086586147E+02 -0.26446562385E+03  0.30264727611E+03  0.00000000000E+00 0.  1.
<mgrwt>
<rscale>  0 0.19609670E+04</rscale>
<asrwt>0</asrwt>
<pdfrwt beam="1">  1        2 0.29271641E+00 0.19609670E+04</pdfrwt>
<pdfrwt beam="2">  1       -2 0.77733241E-01 0.19609670E+04</pdfrwt>
<totfact> 0.10398042E+01</totfact>
</mgrwt>
</event>
<event>
12    1  0.1489233E-007  0.1301180E+04  0.7818608E-02  0.9028630E-01
          2   -1    0    0  501    0  0.00000000000E+00  0.00000000000E+00  0.35910580554E+03  0.35910580554E+03  0.00000000000E+00 0. -1.
         -2   -1    0    0    0  501 -0.00000000000E+00 -0.00000000000E+00 -0.11786695357E+04  0.11786695357E+04  0.00000000000E+00 0.  1.
         23    2    1    2    0    0  0.37800840319E+02 -0.49969393349E+02  0.16198435676E+03  0.20216600926E+03  0.10347134707E+03 0.  0.
        254    2    1    2    0    0 -0.37800840319E+02  0.49969393349E+02 -0.98154808689E+03  0.13356093320E+04  0.90359824974E+03 0.  0.
        -24    2    4    4    0    0 -0.38319666865E+03 -0.15215665711E+03 -0.22885522848E+03  0.47936086035E+03  0.86143970581E+02 0.  0.
         24    2    4    4    0    0  0.34539582833E+03  0.20212605046E+03 -0.75269285841E+03  0.85624847160E+03  0.80384622373E+02 0.  0.
         11    1    3    3    0    0  0.56842437480E+01 -0.78073256504E+02  0.10380145167E+03  0.13000955879E+03  0.00000000000E+00 0.  1.
        -11    1    3    3    0    0  0.32116596571E+02  0.28103863155E+02  0.58182905091E+02  0.72156450469E+02  0.00000000000E+00 0. -1.
          2    1    6    6  502    0  0.33034432374E+03  0.19044568074E+03 -0.66550368441E+03  0.76700201010E+03  0.00000000000E+00 0. -1.
          3    1    5    5  503    0 -0.30954794539E+03 -0.11251609583E+03 -0.14165533455E+03  0.35853317297E+03  0.00000000000E+00 0. -1.
         -4    1    5    5    0  503 -0.73648723264E+02 -0.39640561277E+02 -0.87199893925E+02  0.12082768738E+03  0.00000000000E+00 0.  1.
         -1    1    6    6    0  502  0.15051504599E+02  0.11680369719E+02 -0.87189174001E+02  0.89246461501E+02  0.00000000000E+00 0.  1.
<mgrwt>
<rscale>  0 0.13011796E+04</rscale>
<asrwt>0</asrwt>
<pdfrwt beam="1">  1        2 0.55247048E-01 0.13011796E+04</pdfrwt>
<pdfrwt beam="2">  1       -2 0.18133377E+00 0.13011796E+04</pdfrwt>
<totfact> 0.15603562E+01</totfact>
</mgrwt>
</event>
<event>
12    1  0.1489233E-007  0.1045454E+04  0.7818608E-02  0.9260050E-01
         -1   -1    0    0    0  501 -0.00000000000E+00  0.00000000000E+00  0.25075896556E+03  0.25075896556E+03  0.00000000000E+00 0.  1.
          1   -1    0    0  501    0  0.00000000000E+00 -0.00000000000E+00 -0.10896660739E+04  0.10896660739E+04  0.00000000000E+00 0. -1.
         23    2    1    2    0    0 -0.85120958079E+02 -0.38255730570E+02 -0.49592639858E+02  0.13960956947E+03  0.91226769830E+02 0.  0.
        254    2    1    2    0    0  0.85120958079E+02  0.38255730570E+02 -0.78931446851E+03  0.12008154700E+04  0.90012853772E+03 0.  0.
        -24    2    4    4    0    0 -0.16927928533E+03 -0.20051074344E+03  0.59150696509E+02  0.28008010180E+03  0.78012972318E+02 0.  0.
         24    2    4    4    0    0  0.25440024341E+03  0.23876647401E+03 -0.84846516502E+03  0.92073536822E+03  0.78304336350E+02 0.  0.
         11    1    3    3    0    0 -0.33540759560E+02  0.18602461995E+01 -0.64376838778E+02  0.72614188963E+02  0.00000000000E+00 0. -1.
        -11    1    3    3    0    0 -0.51580198519E+02 -0.40115976770E+02  0.14784198920E+02  0.66995380506E+02  0.00000000000E+00 0.  1.
          2    1    6    6  502    0  0.16295913938E+03  0.16190933642E+03 -0.64638372712E+03  0.68598996859E+03  0.00000000000E+00 0. -1.
          1    1    5    5  503    0 -0.15822829004E+03 -0.15159379850E+03  0.27668064941E+02  0.22086736593E+03  0.00000000000E+00 0. -1.
         -2    1    5    5    0  503 -0.11050995286E+02 -0.48916944940E+02  0.31482631568E+02  0.59212735873E+02  0.00000000000E+00 0.  1.
         -1    1    6    6    0  502  0.91441104026E+02  0.76857137584E+02 -0.20208143790E+03  0.23474539963E+03  0.00000000000E+00 0.  1.
<mgrwt>
<rscale>  0 0.10454540E+04</rscale>
<asrwt>0</asrwt>
<pdfrwt beam="1">  1        1 0.16764094E+00 0.10454540E+04</pdfrwt>
<pdfrwt beam="2">  1       -1 0.38578302E-01 0.10454540E+04</pdfrwt>
<totfact> 0.83918456E+01</totfact>
</mgrwt>
</event>
<event>
12    1  0.1489233E-007  0.1919046E+04  0.7818608E-02  0.8645434E-01
          1   -1    0    0  501    0  0.00000000000E+00  0.00000000000E+00  0.83551996671E+03  0.83551996671E+03  0.00000000000E+00 0. -1.
         -1   -1    0    0    0  501 -0.00000000000E+00 -0.00000000000E+00 -0.11019294602E+04  0.11019294602E+04  0.00000000000E+00 0.  1.
         23    2    1    2    0    0  0.45003295879E+03  0.43878345296E+03 -0.49484915602E+03  0.80586173627E+03  0.97349207329E+02 0.  0.
        254    2    1    2    0    0 -0.45003295879E+03 -0.43878345296E+03  0.22843966257E+03  0.11315876906E+04  0.91282278647E+03 0.  0.
        -24    2    4    4    0    0  0.28247945796E+01 -0.60072555869E+03  0.21993005003E+03  0.64464943880E+03  0.79526698107E+02 0.  0.
         24    2    4    4    0    0 -0.45285775337E+03  0.16194210573E+03  0.85096125439E+01  0.48693825180E+03  0.75703746016E+02 0.  0.
         11    1    3    3    0    0  0.42715829864E+03  0.43797840864E+03 -0.46610921675E+03  0.76912099209E+03  0.00000000000E+00 0.  1.
        -11    1    3    3    0    0  0.22874660155E+02  0.80504432561E+00 -0.28739939270E+02  0.36740744178E+02  0.00000000000E+00 0. -1.
          2    1    6    6  502    0 -0.31709525215E+03  0.13332773949E+03 -0.22675341021E+02  0.34473157114E+03  0.00000000000E+00 0. -1.
          1    1    5    5  503    0 -0.26945367864E+02 -0.37775636082E+03  0.11056962239E+03  0.39452701097E+03  0.00000000000E+00 0. -1.
         -2    1    5    5    0  503  0.29770162444E+02 -0.22296919787E+03  0.10936042763E+03  0.25012242783E+03  0.00000000000E+00 0.  1.
         -1    1    6    6    0  502 -0.13576250123E+03  0.28614366239E+02  0.31184953565E+02  0.14220668066E+03  0.00000000000E+00 0.  1.
<mgrwt>
<rscale>  0 0.19190457E+04</rscale>
<asrwt>0</asrwt>
<pdfrwt beam="1">  1        1 0.12854153E+00 0.19190457E+04</pdfrwt>
<pdfrwt beam="2">  1       -1 0.16952761E+00 0.19190457E+04</pdfrwt>
<totfact> 0.47735542E+00</totfact>
</mgrwt>
</event>
<event>
12    1  0.1489233E-007  0.2228874E+04  0.7818608E-02  0.8506505E-01
          1   -1    0    0  501    0  0.00000000000E+00  0.00000000000E+00  0.10312442573E+04  0.10312442573E+04  0.00000000000E+00 0. -1.
         -1   -1    0    0    0  501 -0.00000000000E+00 -0.00000000000E+00 -0.12043407198E+04  0.12043407198E+04  0.00000000000E+00 0.  1.
         23    2    1    2    0    0 -0.48605011411E+03 -0.59520740009E+03  0.45857728529E+03  0.89960658081E+03  0.92099463113E+02 0.  0.
        254    2    1    2    0    0  0.48605011411E+03  0.59520740009E+03 -0.63167374780E+03  0.13359783962E+04  0.89180154122E+03 0.  0.
        -24    2    4    4    0    0  0.58614033183E+03  0.65461393113E+02 -0.49421415874E+03  0.77384076993E+03  0.82074477877E+02 0.  0.
         24    2    4    4    0    0 -0.10009021773E+03  0.52974600697E+03 -0.13745958907E+03  0.56213762628E+03  0.80341077052E+02 0.  0.
         13    1    3    3    0    0 -0.77375123177E+02 -0.10573833288E+03  0.11986250496E+03  0.17757962953E+03  0.00000000000E+00 0.  1.
        -13    1    3    3    0    0 -0.40867499093E+03 -0.48946906720E+03  0.33871478033E+03  0.72202695128E+03  0.00000000000E+00 0. -1.
          4    1    6    6  502    0 -0.72911898062E+02  0.19163687439E+03 -0.66900799973E+02  0.21567696572E+03  0.00000000000E+00 0. -1.
          1    1    5    5  503    0  0.56058404201E+03  0.66915930333E+02 -0.44686103959E+03  0.72001180448E+03  0.00000000000E+00 0. -1.
         -2    1    5    5    0  503  0.25556289818E+02 -0.14545372206E+01 -0.47353119149E+02  0.53828965445E+02  0.00000000000E+00 0.  1.
         -3    1    6    6    0  502 -0.27178319663E+02  0.33810913258E+03 -0.70558789094E+02  0.34646066055E+03  0.00000000000E+00 0.  1.
<mgrwt>
<rscale>  0 0.22288737E+04</rscale>
<asrwt>0</asrwt>
<pdfrwt beam="1">  1        1 0.15865296E+00 0.22288737E+04</pdfrwt>
<pdfrwt beam="2">  1       -1 0.18528319E+00 0.22288737E+04</pdfrwt>
<totfact> 0.24824732E+00</totfact>
</mgrwt>
</event>
<event>
12    1  0.1489233E-007  0.1618840E+04  0.7818608E-02  0.8809057E-01
          2   -1    0    0  501    0  0.00000000000E+00  0.00000000000E+00  0.34961253665E+03  0.34961253665E+03  0.00000000000E+00 0. -1.
         -2   -1    0    0    0  501 -0.00000000000E+00 -0.00000000000E+00 -0.18739633436E+04  0.18739633436E+04  0.00000000000E+00 0.  1.
         23    2    1    2    0    0  0.21396436315E+03  0.50043087624E+03 -0.67108614138E+03  0.86822554427E+03  0.85130346935E+02 0.  0.
        254    2    1    2    0    0 -0.21396436315E+03 -0.50043087624E+03 -0.85326466554E+03  0.13553503359E+04  0.90149993517E+03 0.  0.
        -24    2    4    4    0    0 -0.54274286302E+03 -0.15799268304E+03 -0.44087633909E+03  0.72126064814E+03  0.79457365525E+02 0.  0.
         24    2    4    4    0    0  0.32877849987E+03 -0.34243819320E+03 -0.41238832645E+03  0.63408968781E+03  0.81525347283E+02 0.  0.
         13    1    3    3    0    0  0.19137516065E+03  0.46685004421E+03 -0.58123429458E+03  0.76967962236E+03  0.00000000000E+00 0. -1.
        -13    1    3    3    0    0  0.22589202503E+02  0.33580832039E+02 -0.89851846805E+02  0.98545921906E+02  0.00000000000E+00 0.  1.
          4    1    6    6  502    0  0.98693212943E+02 -0.57077408670E+02 -0.11651764449E+03  0.16301700015E+03  0.00000000000E+00 0. -1.
          3    1    5    5  503    0 -0.12346031253E+03 -0.67417733615E+02 -0.89125077336E+02  0.16652591086E+03  0.00000000000E+00 0. -1.
         -4    1    5    5    0  503 -0.41928255049E+03 -0.90574949428E+02 -0.35175126175E+03  0.55473473729E+03  0.00000000000E+00 0.  1.
         -3    1    6    6    0  502  0.23008528693E+03 -0.28536078453E+03 -0.29587068196E+03  0.47107268765E+03  0.00000000000E+00 0.  1.
<mgrwt>
<rscale>  0 0.16188404E+04</rscale>
<asrwt>0</asrwt>
<pdfrwt beam="1">  1        2 0.53786544E-01 0.16188404E+04</pdfrwt>
<pdfrwt beam="2">  1       -2 0.28830205E+00 0.16188404E+04</pdfrwt>
<totfact> 0.33270837E+00</totfact>
</mgrwt>
</event>
<event>
12    1  0.1489233E-007  0.1590692E+04  0.7818608E-02  0.8826287E-01
          2   -1    0    0  501    0  0.00000000000E+00  0.00000000000E+00  0.79804042625E+03  0.79804042625E+03  0.00000000000E+00 0. -1.
         -2   -1    0    0    0  501 -0.00000000000E+00 -0.00000000000E+00 -0.79266067390E+03  0.79266067390E+03  0.00000000000E+00 0.  1.
         23    2    1    2    0    0 -0.24618862407E+03  0.17143168496E+03 -0.43610820749E+03  0.53713951892E+03  0.91273396551E+02 0.  0.
        254    2    1    2    0    0  0.24618862407E+03 -0.17143168496E+03  0.44148795984E+03  0.10535615812E+04  0.90834064399E+03 0.  0.
        -24    2    4    4    0    0 -0.11482511586E+02 -0.45032915112E+02 -0.26812462996E+03  0.28367888675E+03  0.80144133197E+02 0.  0.
         24    2    4    4    0    0  0.25767113566E+03 -0.12639876984E+03  0.70961258980E+03  0.76988269447E+03  0.82451637232E+02 0.  0.
         13    1    3    3    0    0 -0.17584676830E+03  0.16515470403E+03 -0.35955117546E+03  0.43298407588E+03  0.00000000000E+00 0.  1.
        -13    1    3    3    0    0 -0.70341855775E+02  0.62769809228E+01 -0.76557032025E+02  0.10415544304E+03  0.00000000000E+00 0. -1.
          4    1    6    6  502    0  0.67270375457E+02 -0.27252362374E+02  0.99894771686E+02  0.12347858146E+03  0.00000000000E+00 0. -1.
          3    1    5    5  503    0  0.28326277243E+02  0.48010138879E+01 -0.90405308949E+02  0.94860674692E+02  0.00000000000E+00 0. -1.
         -4    1    5    5    0  503 -0.39808788830E+02 -0.49833929000E+02 -0.17771932101E+03  0.18881821206E+03  0.00000000000E+00 0.  1.
         -3    1    6    6    0  502  0.19040076020E+03 -0.99146407470E+02  0.60971781811E+03  0.64640411302E+03  0.00000000000E+00 0.  1.
<mgrwt>
<rscale>  0 0.15906920E+04</rscale>
<asrwt>0</asrwt>
<pdfrwt beam="1">  1        2 0.12277545E+00 0.15906920E+04</pdfrwt>
<pdfrwt beam="2">  1       -2 0.12194780E+00 0.15906920E+04</pdfrwt>
<totfact> 0.16915429E+01</totfact>
</mgrwt>
</event>
<event>
12    1  0.1489233E-007  0.1208048E+04  0.7818608E-02  0.9105841E-01
          1   -1    0    0  501    0  0.00000000000E+00  0.00000000000E+00  0.38458822527E+03  0.38458822527E+03  0.00000000000E+00 0. -1.
         -1   -1    0    0    0  501 -0.00000000000E+00 -0.00000000000E+00 -0.94866460091E+03  0.94866460091E+03  0.00000000000E+00 0.  1.
         23    2    1    2    0    0 -0.19306834752E+03  0.16133844476E+03 -0.17228253772E+03  0.31906604523E+03  0.93895622047E+02 0.  0.
        254    2    1    2    0    0  0.19306834752E+03 -0.16133844476E+03 -0.39179383792E+03  0.10141867810E+04  0.90098109562E+03 0.  0.
        -24    2    4    4    0    0 -0.28241001187E-01 -0.22364541777E+03  0.24471773241E+03  0.34128179052E+03  0.81050714352E+02 0.  0.
         24    2    4    4    0    0  0.19309658852E+03  0.62306973009E+02 -0.63651157033E+03  0.67290499043E+03  0.80533816491E+02 0.  0.
         13    1    3    3    0    0 -0.11140988614E+02 -0.12496333497E+02 -0.79689067188E+01  0.18541398342E+02  0.00000000000E+00 0. -1.
        -13    1    3    3    0    0 -0.18192735891E+03  0.17383477826E+03 -0.16431363100E+03  0.30052464689E+03  0.00000000000E+00 0.  1.
          2    1    6    6  502    0  0.55294305935E+02  0.57649155007E+02 -0.21117058351E+03  0.22577400356E+03  0.00000000000E+00 0. -1.
          1    1    5    5  503    0  0.35226772543E+02 -0.10177528283E+03  0.84349678819E+02  0.13679913017E+03  0.00000000000E+00 0. -1.
         -2    1    5    5    0  503 -0.35255013544E+02 -0.12187013495E+03  0.16036805359E+03  0.20448266035E+03  0.00000000000E+00 0.  1.
         -1    1    6    6    0  502  0.13780228259E+03  0.46578180028E+01 -0.42534098682E+03  0.44713098687E+03  0.00000000000E+00 0.  1.
<mgrwt>
<rscale>  0 0.12080484E+04</rscale>
<asrwt>0</asrwt>
<pdfrwt beam="1">  1        1 0.59167419E-01 0.12080484E+04</pdfrwt>
<pdfrwt beam="2">  1       -1 0.14594840E+00 0.12080484E+04</pdfrwt>
<totfact> 0.23484476E+01</totfact>
</mgrwt>
</event>
<event>
12    1  0.1489233E-007  0.1434925E+04  0.7818608E-02  0.8928919E-01
         -1   -1    0    0    0  501 -0.00000000000E+00  0.00000000000E+00  0.19665154568E+03  0.19665154568E+03  0.00000000000E+00 0.  1.
          1   -1    0    0  501    0  0.00000000000E+00 -0.00000000000E+00 -0.26175858588E+04  0.26175858588E+04  0.00000000000E+00 0. -1.
         23    2    1    2    0    0  0.41431396832E+02 -0.38816852655E+03 -0.37514669801E+03  0.54801643659E+03  0.84826906656E+02 0.  0.
        254    2    1    2    0    0 -0.41431396832E+02  0.38816852655E+03 -0.20457876151E+04  0.22662209679E+04  0.89337514152E+03 0.  0.
        -24    2    4    4    0    0 -0.10666497315E+03  0.48090385153E+03 -0.47399944377E+03  0.68826988474E+03  0.79962682791E+02 0.  0.
         24    2    4    4    0    0  0.65233576318E+02 -0.92735324974E+02 -0.15717881713E+04  0.15779510831E+04  0.80971014856E+02 0.  0.
         13    1    3    3    0    0 -0.10026171749E+01 -0.46029990948E+02 -0.88085955175E+02  0.99392659724E+02  0.00000000000E+00 0. -1.
        -13    1    3    3    0    0  0.42434014007E+02 -0.34213853561E+03 -0.28706074283E+03  0.44862377686E+03  0.00000000000E+00 0.  1.
          2    1    6    6  502    0  0.19203535650E+02  0.90010254469E+01 -0.11878629416E+03  0.12066473354E+03  0.00000000000E+00 0. -1.
          3    1    5    5  503    0 -0.66562984872E+02  0.13203436503E+03 -0.13861796759E+03  0.20267867536E+03  0.00000000000E+00 0. -1.
         -4    1    5    5    0  503 -0.40101988278E+02  0.34886948650E+03 -0.33538147618E+03  0.48559120939E+03  0.00000000000E+00 0.  1.
         -1    1    6    6    0  502  0.46030040669E+02 -0.10173635042E+03 -0.14530018772E+04  0.14572863496E+04  0.00000000000E+00 0.  1.
<mgrwt>
<rscale>  0 0.14349248E+04</rscale>
<asrwt>0</asrwt>
<pdfrwt beam="1">  1        1 0.40270551E+00 0.14349248E+04</pdfrwt>
<pdfrwt beam="2">  1       -1 0.30254084E-01 0.14349248E+04</pdfrwt>
<totfact> 0.11008437E+01</totfact>
</mgrwt>
</event>
<event>
12    1  0.1489233E-007  0.3107925E+04  0.7818608E-02  0.8213566E-01
         -1   -1    0    0    0  501 -0.00000000000E+00  0.00000000000E+00  0.14311119325E+04  0.14311119325E+04  0.00000000000E+00 0.  1.
          1   -1    0    0  501    0  0.00000000000E+00 -0.00000000000E+00 -0.16873588944E+04  0.16873588944E+04  0.00000000000E+00 0. -1.
         23    2    1    2    0    0  0.58925355230E+03  0.11489026925E+04 -0.72696175140E+03  0.14840172879E+04  0.81466416054E+02 0.  0.
        254    2    1    2    0    0 -0.58925355230E+03 -0.11489026925E+04  0.47071478949E+03  0.16344535390E+04  0.88468571386E+03 0.  0.
        -24    2    4    4    0    0 -0.33907701048E+03 -0.12350823609E+04  0.43867050961E+03  0.13562338889E+04  0.80851025832E+02 0.  0.
         24    2    4    4    0    0 -0.25017654182E+03  0.86179668365E+02  0.32044279882E+02  0.27821965003E+03  0.79775312436E+02 0.  0.
         11    1    3    3    0    0  0.52571718891E+03  0.10249160791E+04 -0.67647712341E+03  0.13358341328E+04  0.00000000000E+00 0. -1.
        -11    1    3    3    0    0  0.63536363389E+02  0.12398661336E+03 -0.50484627984E+02  0.14818315501E+03  0.00000000000E+00 0.  1.
          2    1    6    6  502    0 -0.21768629189E+03  0.65241251772E+02  0.54255815267E+02  0.23363954310E+03  0.00000000000E+00 0. -1.
          1    1    5    5  503    0 -0.12105456224E+03 -0.47626533148E+03  0.12812028353E+03  0.50783627289E+03  0.00000000000E+00 0. -1.
         -4    1    5    5    0  503 -0.21802244823E+03 -0.75881702937E+03  0.31055022607E+03  0.84839761604E+03  0.00000000000E+00 0.  1.
         -1    1    6    6    0  502 -0.32490249927E+02  0.20938416593E+02 -0.22211535384E+02  0.44580106929E+02  0.00000000000E+00 0.  1.
<mgrwt>
<rscale>  0 0.31079250E+04</rscale>
<asrwt>0</asrwt>
<pdfrwt beam="1">  1        1 0.25959368E+00 0.31079250E+04</pdfrwt>
<pdfrwt beam="2">  1       -1 0.22017107E+00 0.31079250E+04</pdfrwt>
<totfact> 0.45000267E-01</totfact>
</mgrwt>
</event>
<event>
12    1  0.1489233E-007  0.1393053E+04  0.7818608E-02  0.8958863E-01
         -1   -1    0    0    0  501 -0.00000000000E+00  0.00000000000E+00  0.38767284819E+03  0.38767284819E+03  0.00000000000E+00 0.  1.
          1   -1    0    0  501    0  0.00000000000E+00 -0.00000000000E+00 -0.12514388888E+04  0.12514388888E+04  0.00000000000E+00 0. -1.
         23    2    1    2    0    0 -0.30949481124E+03 -0.22516693496E+03 -0.41819538436E+03  0.57377004878E+03  0.88529670683E+02 0.  0.
        254    2    1    2    0    0  0.30949481124E+03  0.22516693496E+03 -0.44557065627E+03  0.10653416882E+04  0.88878147831E+03 0.  0.
        -24    2    4    4    0    0  0.36765403992E+03  0.78988478721E+02 -0.67430135104E+03  0.77647261183E+03  0.82575614217E+02 0.  0.
         24    2    4    4    0    0 -0.58159228683E+02  0.14617845624E+03  0.22873069477E+03  0.28886907641E+03  0.79855968001E+02 0.  0.
         13    1    3    3    0    0 -0.29206963099E+01 -0.22119452076E+00 -0.30806962293E+02  0.30945893422E+02  0.00000000000E+00 0. -1.
        -13    1    3    3    0    0 -0.30657411493E+03 -0.22494574044E+03 -0.38738842207E+03  0.54282415536E+03  0.00000000000E+00 0.  1.
          4    1    6    6  502    0 -0.33117656029E+02  0.10540384752E+03  0.91234730039E+02  0.14328477301E+03  0.00000000000E+00 0. -1.
          1    1    5    5  503    0  0.17938296177E+03  0.23142627869E+01 -0.27388464506E+03  0.32740861562E+03  0.00000000000E+00 0. -1.
         -2    1    5    5    0  503  0.18827107815E+03  0.76674215934E+02 -0.40041670599E+03  0.44906399621E+03  0.00000000000E+00 0.  1.
         -3    1    6    6    0  502 -0.25041572655E+02  0.40774608720E+02  0.13749596473E+03  0.14558430340E+03  0.00000000000E+00 0.  1.
<mgrwt>
<rscale>  0 0.13930526E+04</rscale>
<asrwt>0</asrwt>
<pdfrwt beam="1">  1        1 0.19252906E+00 0.13930526E+04</pdfrwt>
<pdfrwt beam="2">  1       -1 0.59641976E-01 0.13930526E+04</pdfrwt>
<totfact> 0.27257040E+01</totfact>
</mgrwt>
</event>
<event>
12    1  0.1489233E-007  0.1856226E+04  0.7818608E-02  0.8676958E-01
         -2   -1    0    0    0  501 -0.00000000000E+00  0.00000000000E+00  0.40497389439E+03  0.40497389439E+03  0.00000000000E+00 0.  1.
          2   -1    0    0  501    0  0.00000000000E+00 -0.00000000000E+00 -0.21270349151E+04  0.21270349151E+04  0.00000000000E+00 0. -1.
         23    2    1    2    0    0 -0.22274866878E+03  0.55288734808E+03 -0.15317874907E+03  0.62240971342E+03  0.92890974155E+02 0.  0.
        254    2    1    2    0    0  0.22274866878E+03 -0.55288734808E+03 -0.15688822717E+04  0.19095990961E+04  0.91097515686E+03 0.  0.
        -24    2    4    4    0    0 -0.13339994937E+03 -0.65198958124E+03 -0.12352426055E+04  0.14053609442E+04  0.79555820826E+02 0.  0.
         24    2    4    4    0    0  0.35614861815E+03  0.99102233160E+02 -0.33363966620E+03  0.50423815190E+03  0.79231282605E+02 0.  0.
         11    1    3    3    0    0 -0.18038535897E+02  0.13369149727E+03 -0.54981736255E+02  0.14567702819E+03  0.00000000000E+00 0. -1.
        -11    1    3    3    0    0 -0.20471013289E+03  0.41919585080E+03 -0.98197012818E+02  0.47673268523E+03  0.00000000000E+00 0.  1.
          4    1    6    6  502    0  0.24356362399E+03  0.93278216967E+02 -0.19559148102E+03  0.32600627623E+03  0.00000000000E+00 0. -1.
          1    1    5    5  503    0 -0.14238077742E+03 -0.56057064159E+03 -0.10680154269E+04  0.12145652235E+04  0.00000000000E+00 0. -1.
         -2    1    5    5    0  503  0.89808280524E+01 -0.91418939644E+02 -0.16722717853E+03  0.19079572070E+03  0.00000000000E+00 0.  1.
         -3    1    6    6    0  502  0.11258499415E+03  0.58240161930E+01 -0.13804818518E+03  0.17823187567E+03  0.00000000000E+00 0.  1.
<mgrwt>
<rscale>  0 0.18562259E+04</rscale>
<asrwt>0</asrwt>
<pdfrwt beam="1">  1        2 0.32723614E+00 0.18562259E+04</pdfrwt>
<pdfrwt beam="2">  1       -2 0.62303676E-01 0.18562259E+04</pdfrwt>
<totfact> 0.12751017E+01</totfact>
</mgrwt>
</event>
<event>
12    1  0.1489233E-007  0.2808726E+04  0.7818608E-02  0.8300564E-01
         -2   -1    0    0    0  501 -0.00000000000E+00  0.00000000000E+00  0.10636500333E+04  0.10636500333E+04  0.00000000000E+00 0.  1.
          2   -1    0    0  501    0  0.00000000000E+00 -0.00000000000E+00 -0.18542145669E+04  0.18542145669E+04  0.00000000000E+00 0. -1.
         23    2    1    2    0    0 -0.23368656405E+03  0.42129255374E+03  0.85324848679E+03  0.98392244620E+03  0.89294870324E+02 0.  0.
        254    2    1    2    0    0  0.23368656405E+03 -0.42129255374E+03 -0.16438130204E+04  0.19339421540E+04  0.89772723176E+03 0.  0.
        -24    2    4    4    0    0  0.17845614289E+03 -0.63315493564E+03 -0.71011747942E+03  0.97125067305E+03  0.79556695908E+02 0.  0.
         24    2    4    4    0    0  0.55230421158E+02  0.21186238190E+03 -0.93369554101E+03  0.96269148090E+03  0.83972946931E+02 0.  0.
         13    1    3    3    0    0 -0.19038748865E+02  0.65346314908E+01  0.18110822709E+02  0.27077246283E+02  0.00000000000E+00 0. -1.
        -13    1    3    3    0    0 -0.21464781519E+03  0.41475792225E+03  0.83513766408E+03  0.95684519991E+03  0.00000000000E+00 0.  1.
          4    1    6    6  502    0  0.24540035816E+02  0.21078807827E+02 -0.63110023902E+02  0.70918295342E+02  0.00000000000E+00 0. -1.
          1    1    5    5  503    0  0.51240197238E+02 -0.25529685046E+03 -0.33029767310E+03  0.42059314369E+03  0.00000000000E+00 0. -1.
         -2    1    5    5    0  503  0.12721594566E+03 -0.37785808518E+03 -0.37981980633E+03  0.55065752936E+03  0.00000000000E+00 0.  1.
         -3    1    6    6    0  502  0.30690385342E+02  0.19078357407E+03 -0.87058551711E+03  0.89177318556E+03  0.00000000000E+00 0.  1.
<mgrwt>
<rscale>  0 0.28087260E+04</rscale>
<asrwt>0</asrwt>
<pdfrwt beam="1">  1        2 0.28526378E+00 0.28087260E+04</pdfrwt>
<pdfrwt beam="2">  1       -2 0.16363847E+00 0.28087260E+04</pdfrwt>
<totfact> 0.16583919E+00</totfact>
</mgrwt>
</event>
<event>
12    1  0.1489233E-007  0.1571111E+04  0.7818608E-02  0.8838495E-01
          2   -1    0    0  501    0  0.00000000000E+00  0.00000000000E+00  0.16607978170E+04  0.16607978170E+04  0.00000000000E+00 0.  1.
         -2   -1    0    0    0  501 -0.00000000000E+00 -0.00000000000E+00 -0.37156702936E+03  0.37156702936E+03  0.00000000000E+00 0. -1.
         23    2    1    2    0    0  0.21407106945E+03 -0.10206174124E+03 -0.15857103974E+03  0.30075248095E+03  0.95206398689E+02 0.  0.
        254    2    1    2    0    0 -0.21407106945E+03  0.10206174124E+03  0.14478018274E+04  0.17316123655E+04  0.91984141616E+03 0.  0.
        -24    2    4    4    0    0 -0.41534016637E+03  0.27615470526E+03  0.38887902331E+03  0.63643746855E+03  0.71111754003E+02 0.  0.
         24    2    4    4    0    0  0.20126909692E+03 -0.17409296402E+03  0.10589228041E+04  0.10951748969E+04  0.85281535163E+02 0.  0.
         11    1    3    3    0    0  0.29565530533E+02 -0.34401274795E+02  0.42305495151E+01  0.45557281003E+02  0.00000000000E+00 0.  1.
        -11    1    3    3    0    0  0.18450553891E+03 -0.67660466447E+02 -0.16280158926E+03  0.25519519994E+03  0.00000000000E+00 0. -1.
          4    1    6    6  502    0 -0.14947836131E+01  0.69784756210E+01  0.18644136273E+02  0.19963399445E+02  0.00000000000E+00 0. -1.
          3    1    5    5  503    0 -0.27056773680E+03  0.13966377490E+03  0.24679572726E+03  0.39194515077E+03  0.00000000000E+00 0. -1.
         -4    1    5    5    0  503 -0.14477242957E+03  0.13649093037E+03  0.14208329606E+03  0.24449231778E+03  0.00000000000E+00 0.  1.
         -3    1    6    6    0  502  0.20276388054E+03 -0.18107143964E+03  0.10402786678E+04  0.10752114975E+04  0.00000000000E+00 0.  1.
<mgrwt>
<rscale>  0 0.15711113E+04</rscale>
<asrwt>0</asrwt>
<pdfrwt beam="1">  1        2 0.25550735E+00 0.15711113E+04</pdfrwt>
<pdfrwt beam="2">  1       -2 0.57164159E-01 0.15711113E+04</pdfrwt>
<totfact> 0.28421853E+01</totfact>
</mgrwt>
</event>
<event>
12    1  0.1489233E-007  0.1603249E+04  0.7818608E-02  0.8818554E-01
         -1   -1    0    0    0  501 -0.00000000000E+00  0.00000000000E+00  0.39191071430E+03  0.39191071430E+03  0.00000000000E+00 0.  1.
          1   -1    0    0  501    0  0.00000000000E+00 -0.00000000000E+00 -0.16396646391E+04  0.16396646391E+04  0.00000000000E+00 0. -1.
         23    2    1    2    0    0  0.20597523288E+03  0.51171258442E+03 -0.38890898246E+03  0.68106656811E+03  0.91246413349E+02 0.  0.
        254    2    1    2    0    0 -0.20597523288E+03 -0.51171258442E+03 -0.85884494238E+03  0.13505087853E+04  0.88429846690E+03 0.  0.
        -24    2    4    4    0    0  0.18486936920E+03 -0.12289236531E+03  0.87874216510E+02  0.25197617713E+03  0.80566114416E+02 0.  0.
         24    2    4    4    0    0 -0.39084460209E+03 -0.38882021911E+03 -0.94671915889E+03  0.10985326082E+04  0.80969498492E+02 0.  0.
         11    1    3    3    0    0  0.12572518561E+03  0.26081881583E+03 -0.25376462793E+03  0.38500618616E+03  0.00000000000E+00 0. -1.
        -11    1    3    3    0    0  0.80250047278E+02  0.25089376859E+03 -0.13514435452E+03  0.29606038196E+03  0.00000000000E+00 0.  1.
          2    1    6    6  502    0 -0.12046903459E+03 -0.11352260745E+03 -0.21537073884E+03  0.27163344022E+03  0.00000000000E+00 0. -1.
          3    1    5    5  503    0  0.24838823763E+02  0.10816346645E+02  0.15643884312E+02  0.31284047645E+02  0.00000000000E+00 0. -1.
         -4    1    5    5    0  503  0.16003054544E+03 -0.13370871196E+03  0.72230332198E+02  0.22069212948E+03  0.00000000000E+00 0.  1.
         -3    1    6    6    0  502 -0.27037556749E+03 -0.27529761166E+03 -0.73134842005E+03  0.82689916797E+03  0.00000000000E+00 0.  1.
<mgrwt>
<rscale>  0 0.16032494E+04</rscale>
<asrwt>0</asrwt>
<pdfrwt beam="1">  1        1 0.25225610E+00 0.16032494E+04</pdfrwt>
<pdfrwt beam="2">  1       -1 0.60293956E-01 0.16032494E+04</pdfrwt>
<totfact> 0.14023678E+01</totfact>
</mgrwt>
</event>
<event>
12    1  0.1489233E-007  0.1511009E+04  0.7818608E-02  0.8877165E-01
          1   -1    0    0  501    0  0.00000000000E+00  0.00000000000E+00  0.11353999315E+04  0.11353999315E+04  0.00000000000E+00 0. -1.
         -1   -1    0    0    0  501 -0.00000000000E+00 -0.00000000000E+00 -0.50271867403E+03  0.50271867403E+03  0.00000000000E+00 0.  1.
         23    2    1    2    0    0 -0.43061785573E+03  0.15307716875E+03  0.30800005117E+02  0.46961694749E+03  0.10357161670E+03 0.  0.
        254    2    1    2    0    0  0.43061785573E+03 -0.15307716875E+03  0.60188125232E+03  0.11685016580E+04  0.89121867442E+03 0.  0.
        -24    2    4    4    0    0  0.48987638284E+03 -0.40560577211E+03  0.17856000702E+03  0.66538028490E+03  0.79701534468E+02 0.  0.
         24    2    4    4    0    0 -0.59258527107E+02  0.25252860336E+03  0.42332124531E+03  0.50312137312E+03  0.81535089450E+02 0.  0.
         13    1    3    3    0    0 -0.67136940541E+02  0.11530115381E+02 -0.30719801583E+02  0.74726290924E+02  0.00000000000E+00 0.  1.
        -13    1    3    3    0    0 -0.36348091519E+03  0.14154705337E+03  0.61519806700E+02  0.39489065657E+03  0.00000000000E+00 0. -1.
          2    1    6    6  502    0 -0.73003585403E+02  0.17864326427E+03  0.26452451491E+03  0.32743878563E+03  0.00000000000E+00 0. -1.
          1    1    5    5  503    0  0.30576502877E+03 -0.20782203642E+03  0.84271431822E+02  0.37918850967E+03  0.00000000000E+00 0. -1.
         -2    1    5    5    0  503  0.18411135407E+03 -0.19778373569E+03  0.94288575194E+02  0.28619177523E+03  0.00000000000E+00 0.  1.
         -1    1    6    6    0  502  0.13745058296E+02  0.73885339090E+02  0.15879673040E+03  0.17568258749E+03  0.00000000000E+00 0.  1.
<mgrwt>
<rscale>  0 0.15110086E+04</rscale>
<asrwt>0</asrwt>
<pdfrwt beam="1">  1        1 0.17467691E+00 0.15110086E+04</pdfrwt>
<pdfrwt beam="2">  1       -1 0.77341335E-01 0.15110086E+04</pdfrwt>
<totfact> 0.19321376E+01</totfact>
</mgrwt>
</event>
<event>
12    1  0.1489233E-007  0.1254137E+04  0.7818608E-02  0.9066747E-01
         -1   -1    0    0    0  501 -0.00000000000E+00  0.00000000000E+00  0.37524155606E+03  0.37524155606E+03  0.00000000000E+00 0.  1.
          1   -1    0    0  501    0  0.00000000000E+00 -0.00000000000E+00 -0.10478985026E+04  0.10478985026E+04  0.00000000000E+00 0. -1.
         23    2    1    2    0    0  0.52637413363E+02 -0.10593852785E+03  0.13900207278E+03  0.20451504664E+03  0.92255943410E+02 0.  0.
        254    2    1    2    0    0 -0.52637413363E+02  0.10593852785E+03 -0.81165901936E+03  0.12186250120E+04  0.90125628282E+03 0.  0.
        -24    2    4    4    0    0  0.93727914034E+02  0.19258437975E+03  0.12680882497E+03  0.26163729754E+03  0.80622156900E+02 0.  0.
         24    2    4    4    0    0 -0.14636532740E+03 -0.86645851896E+02 -0.93846784432E+03  0.95698771450E+03  0.78570211718E+02 0.  0.
         11    1    3    3    0    0  0.52980724234E+02 -0.79346699702E+02  0.14830222102E+03  0.17634172692E+03  0.00000000000E+00 0.  1.
        -11    1    3    3    0    0 -0.34331087105E+00 -0.26591828153E+02 -0.93001482352E+01  0.28173319721E+02  0.00000000000E+00 0. -1.
          2    1    6    6  502    0 -0.34517307593E+01 -0.35129771357E+02 -0.19215529041E+03  0.19537059890E+03  0.00000000000E+00 0. -1.
          1    1    5    5  503    0  0.39362590457E+02  0.17395628507E+02  0.39796478971E+02  0.58615536824E+02  0.00000000000E+00 0. -1.
         -4    1    5    5    0  503  0.54365323577E+02  0.17518875124E+03  0.87012345996E+02  0.20302176072E+03  0.00000000000E+00 0.  1.
         -1    1    6    6    0  502 -0.14291359664E+03 -0.51516080539E+02 -0.74631255391E+03  0.76161711561E+03  0.00000000000E+00 0.  1.
<mgrwt>
<rscale>  0 0.12541373E+04</rscale>
<asrwt>0</asrwt>
<pdfrwt beam="1">  1        1 0.16121515E+00 0.12541373E+04</pdfrwt>
<pdfrwt beam="2">  1       -1 0.57729470E-01 0.12541373E+04</pdfrwt>
<totfact> 0.41619799E+01</totfact>
</mgrwt>
</event>
<event>
12    1  0.1489233E-007  0.1425145E+04  0.7818608E-02  0.8935816E-01
          2   -1    0    0  501    0  0.00000000000E+00  0.00000000000E+00  0.12509742805E+04  0.12509742805E+04  0.00000000000E+00 0. -1.
         -2   -1    0    0    0  501 -0.00000000000E+00 -0.00000000000E+00 -0.40589115150E+03  0.40589115150E+03  0.00000000000E+00 0.  1.
         23    2    1    2    0    0 -0.37624379629E+03  0.64539956755E+02  0.48196435300E+03  0.62146530887E+03  0.90579756590E+02 0.  0.
        254    2    1    2    0    0  0.37624379629E+03 -0.64539956755E+02  0.36311877597E+03  0.10354001231E+04  0.89133235619E+03 0.  0.
        -24    2    4    4    0    0  0.77801681136E+02  0.25206989216E+03  0.50119704563E+03  0.57191838815E+03  0.79371481253E+02 0.  0.
         24    2    4    4    0    0  0.29844211515E+03 -0.31660984891E+03 -0.13807826965E+03  0.46348173496E+03  0.80250966143E+02 0.  0.
         11    1    3    3    0    0 -0.39900158470E+02  0.33903521439E+00  0.15483770642E+02  0.42800522709E+02  0.00000000000E+00 0.  1.
        -11    1    3    3    0    0 -0.33634363782E+03  0.64200921541E+02  0.46648058236E+03  0.57866478616E+03  0.00000000000E+00 0. -1.
          2    1    6    6  502    0  0.24644556224E+03 -0.23735029637E+03 -0.76992786690E+02  0.35071137355E+03  0.00000000000E+00 0. -1.
          3    1    5    5  503    0  0.58673012875E+01  0.15153846770E+03  0.28735636241E+03  0.32491846890E+03  0.00000000000E+00 0. -1.
         -4    1    5    5    0  503  0.71934379849E+02  0.10053142445E+03  0.21384068322E+03  0.24699991924E+03  0.00000000000E+00 0.  1.
         -1    1    6    6    0  502  0.51996552911E+02 -0.79259552540E+02 -0.61085482961E+02  0.11277036141E+03  0.00000000000E+00 0.  1.
<mgrwt>
<rscale>  0 0.14251448E+04</rscale>
<asrwt>0</asrwt>
<pdfrwt beam="1">  1        2 0.19245758E+00 0.14251448E+04</pdfrwt>
<pdfrwt beam="2">  1       -2 0.62444793E-01 0.14251448E+04</pdfrwt>
<totfact> 0.40829033E+01</totfact>
</mgrwt>
</event>
<event>
12    1  0.1489233E-007  0.2328281E+04  0.7818608E-02  0.8466853E-01
         -2   -1    0    0    0  501 -0.00000000000E+00  0.00000000000E+00  0.18194820305E+04  0.18194820305E+04  0.00000000000E+00 0.  1.
          2   -1    0    0  501    0  0.00000000000E+00 -0.00000000000E+00 -0.74484010308E+03  0.74484010308E+03  0.00000000000E+00 0. -1.
         23    2    1    2    0    0  0.14077122000E+03  0.49887297649E+03  0.13974398239E+04  0.14932388717E+04  0.90738543207E+02 0.  0.
        254    2    1    2    0    0 -0.14077122000E+03 -0.49887297649E+03 -0.32279789648E+03  0.10710832620E+04  0.87996027697E+03 0.  0.
        -24    2    4    4    0    0 -0.37671367317E+03  0.72963177470E+02 -0.75541363362E+02  0.39968778351E+03  0.82504605265E+02 0.  0.
         24    2    4    4    0    0  0.23594245318E+03 -0.57183615396E+03 -0.24725653312E+03  0.67139547845E+03  0.83490521186E+02 0.  0.
         13    1    3    3    0    0  0.11107009397E+03  0.37943115308E+03  0.94525917796E+03  0.10246069877E+04  0.00000000000E+00 0.  1.
        -13    1    3    3    0    0  0.29701126026E+02  0.11944182341E+03  0.45218064598E+03  0.46863188396E+03  0.00000000000E+00 0. -1.
          2    1    6    6  502    0  0.10123759122E+03 -0.35305062437E+03 -0.14507510071E+03  0.39489312236E+03  0.00000000000E+00 0. -1.
          3    1    5    5  503    0 -0.28567290145E+03  0.19910493175E+02 -0.66094072067E+02  0.29389430196E+03  0.00000000000E+00 0. -1.
         -4    1    5    5    0  503 -0.91040771722E+02  0.53052684295E+02 -0.94472912947E+01  0.10579348155E+03  0.00000000000E+00 0.  1.
         -1    1    6    6    0  502  0.13470486196E+03 -0.21878552959E+03 -0.10218143241E+03  0.27650235609E+03  0.00000000000E+00 0.  1.
<mgrwt>
<rscale>  0 0.23282811E+04</rscale>
<asrwt>0</asrwt>
<pdfrwt beam="1">  1        2 0.11459079E+00 0.23282811E+04</pdfrwt>
<pdfrwt beam="2">  1       -2 0.27992031E+00 0.23282811E+04</pdfrwt>
<totfact> 0.14430611E+00</totfact>
</mgrwt>
</event>
<event>
12    1  0.1489233E-007  0.1644717E+04  0.7818608E-02  0.8793538E-01
          2   -1    0    0  501    0  0.00000000000E+00  0.00000000000E+00  0.14309580488E+04  0.14309580488E+04  0.00000000000E+00 0. -1.
         -2   -1    0    0    0  501 -0.00000000000E+00 -0.00000000000E+00 -0.47260205024E+03  0.47260205024E+03  0.00000000000E+00 0.  1.
         23    2    1    2    0    0 -0.30409007569E+03  0.46797595296E+03  0.21768587809E+03  0.60579294872E+03  0.90142601002E+02 0.  0.
        254    2    1    2    0    0  0.30409007569E+03 -0.46797595296E+03  0.74067012050E+03  0.12977671504E+04  0.90781885993E+03 0.  0.
        -24    2    4    4    0    0  0.52383894557E+03 -0.15925040136E+03  0.12043352444E+03  0.56657072139E+03  0.82037901593E+02 0.  0.
         24    2    4    4    0    0 -0.21974886988E+03 -0.30872555160E+03  0.62023659606E+03  0.73119642897E+03  0.79710417270E+02 0.  0.
         11    1    3    3    0    0 -0.19778916348E+02  0.65938565186E+02  0.51938403694E+02  0.86236289861E+02  0.00000000000E+00 0. -1.
        -11    1    3    3    0    0 -0.28431115934E+03  0.40203738778E+03  0.16574747440E+03  0.51955665886E+03  0.00000000000E+00 0.  1.
          4    1    6    6  502    0 -0.11503695019E+03 -0.18024961373E+03  0.27603696305E+03  0.34917019937E+03  0.00000000000E+00 0. -1.
          1    1    5    5  503    0  0.32584448586E+02 -0.23120335725E+02 -0.82853919501E+01  0.40803724505E+02  0.00000000000E+00 0. -1.
         -2    1    5    5    0  503  0.49125449698E+03 -0.13613006564E+03  0.12871891639E+03  0.52576699688E+03  0.00000000000E+00 0.  1.
         -3    1    6    6    0  502 -0.10471191968E+03 -0.12847593787E+03  0.34419963301E+03  0.38202622959E+03  0.00000000000E+00 0.  1.
<mgrwt>
<rscale>  0 0.16447172E+04</rscale>
<asrwt>0</asrwt>
<pdfrwt beam="1">  1        2 0.22014739E+00 0.16447172E+04</pdfrwt>
<pdfrwt beam="2">  1       -2 0.72708008E-01 0.16447172E+04</pdfrwt>
<totfact> 0.22706156E+01</totfact>
</mgrwt>
</event>
<event>
12    1  0.1489233E-007  0.1779083E+04  0.7818608E-02  0.8717502E-01
          2   -1    0    0  501    0  0.00000000000E+00  0.00000000000E+00  0.15947279784E+04  0.15947279784E+04  0.00000000000E+00 0.  1.
         -2   -1    0    0    0  501 -0.00000000000E+00 -0.00000000000E+00 -0.49618766490E+03  0.49618766490E+03  0.00000000000E+00 0. -1.
         23    2    1    2    0    0 -0.20549316500E+03 -0.30704011580E+03  0.10526458081E+04  0.11194106369E+04  0.92281651098E+02 0.  0.
        254    2    1    2    0    0  0.20549316500E+03  0.30704011580E+03  0.45894505406E+02  0.97150500640E+03  0.89733750522E+03 0.  0.
        -24    2    4    4    0    0  0.63027385091E+02 -0.19053737894E+03 -0.28096542443E+03  0.35412847299E+03  0.78666775814E+02 0.  0.
         24    2    4    4    0    0  0.14246577991E+03  0.49757749473E+03  0.32685992984E+03  0.61737653341E+03  0.80227854039E+02 0.  0.
         13    1    3    3    0    0 -0.13052039300E+03 -0.26167232826E+03  0.83864460726E+03  0.88816257389E+03  0.00000000000E+00 0.  1.
        -13    1    3    3    0    0 -0.74972772004E+02 -0.45367787537E+02  0.21400120083E+03  0.23124806301E+03  0.00000000000E+00 0. -1.
          2    1    6    6  502    0  0.51116015321E+02  0.31585751362E+03  0.21148971289E+03  0.38354493164E+03  0.00000000000E+00 0. -1.
          1    1    5    5  503    0  0.45276366846E+02 -0.81990274485E+02 -0.72558348285E+02  0.11847813474E+03  0.00000000000E+00 0. -1.
         -2    1    5    5    0  503  0.17751018245E+02 -0.10854710445E+03 -0.20840707615E+03  0.23565033826E+03  0.00000000000E+00 0.  1.
         -1    1    6    6    0  502  0.91349764588E+02  0.18171998112E+03  0.11537021694E+03  0.23383160177E+03  0.00000000000E+00 0.  1.
<mgrwt>
<rscale>  0 0.17790833E+04</rscale>
<asrwt>0</asrwt>
<pdfrwt beam="1">  1        2 0.24534276E+00 0.17790833E+04</pdfrwt>
<pdfrwt beam="2">  1       -2 0.76336564E-01 0.17790833E+04</pdfrwt>
<totfact> 0.16300255E+01</totfact>
</mgrwt>
</event>
<event>
12    1  0.1489233E-007  0.1273254E+04  0.7818608E-02  0.9051048E-01
          2   -1    0    0  501    0  0.00000000000E+00  0.00000000000E+00  0.10992549801E+04  0.10992549801E+04  0.00000000000E+00 0.  1.
         -2   -1    0    0    0  501 -0.00000000000E+00 -0.00000000000E+00 -0.36869876913E+03  0.36869876913E+03  0.00000000000E+00 0. -1.
         23    2    1    2    0    0 -0.17885009585E+03 -0.24653532075E+03  0.26344469562E+03  0.41373632915E+03  0.94908488781E+02 0.  0.
        254    2    1    2    0    0  0.17885009585E+03  0.24653532075E+03  0.46711151536E+03  0.10542174201E+04  0.89465869462E+03 0.  0.
        -24    2    4    4    0    0  0.13713681317E+03  0.57365613567E+03  0.37398177379E+03  0.70253689093E+03  0.76209241401E+02 0.  0.
         24    2    4    4    0    0  0.41713282676E+02 -0.32712081491E+03  0.93129741566E+02  0.35168052915E+03  0.79107650205E+02 0.  0.
         11    1    3    3    0    0 -0.83919960578E+02 -0.66461596076E+02  0.47954099058E+02  0.11730003901E+03  0.00000000000E+00 0. -1.
        -11    1    3    3    0    0 -0.94930135272E+02 -0.18007372468E+03  0.21549059656E+03  0.29643629013E+03  0.00000000000E+00 0.  1.
          2    1    6    6  502    0  0.63012258679E+01  0.12299281371E+01  0.86854300119E+01  0.10800688180E+02  0.00000000000E+00 0. -1.
          1    1    5    5  503    0  0.53691635559E+01  0.15515367588E+01  0.10904394118E+02  0.12253203446E+02  0.00000000000E+00 0. -1.
         -2    1    5    5    0  503  0.13176764962E+03  0.57210459891E+03  0.36307737967E+03  0.69028368749E+03  0.00000000000E+00 0.  1.
         -1    1    6    6    0  502  0.35412056808E+02 -0.32835074305E+03  0.84444311554E+02  0.34087984097E+03  0.00000000000E+00 0.  1.
<mgrwt>
<rscale>  0 0.12732540E+04</rscale>
<asrwt>0</asrwt>
<pdfrwt beam="1">  1        2 0.16911615E+00 0.12732540E+04</pdfrwt>
<pdfrwt beam="2">  1       -2 0.56722888E-01 0.12732540E+04</pdfrwt>
<totfact> 0.62426990E+01</totfact>
</mgrwt>
</event>
<event>
12    1  0.1489233E-007  0.1376853E+04  0.7818608E-02  0.8970746E-01
         -1   -1    0    0    0  501 -0.00000000000E+00  0.00000000000E+00  0.40809183052E+03  0.40809183052E+03  0.00000000000E+00 0.  1.
          1   -1    0    0  501    0  0.00000000000E+00 -0.00000000000E+00 -0.11613338878E+04  0.11613338878E+04  0.00000000000E+00 0. -1.
         23    2    1    2    0    0 -0.71232916970E+02 -0.30414338875E+03 -0.48809389146E+03  0.58688143167E+03  0.92826928124E+02 0.  0.
        254    2    1    2    0    0  0.71232916970E+02  0.30414338875E+03 -0.26514816584E+03  0.98254428666E+03  0.89303549539E+03 0.  0.
        -24    2    4    4    0    0 -0.11893279139E+03 -0.18821980230E+03 -0.36966079951E+03  0.43882514516E+03  0.79666168991E+02 0.  0.
         24    2    4    4    0    0  0.19016570836E+03  0.49236319105E+03  0.10451263367E+03  0.54371914150E+03  0.78250276062E+02 0.  0.
         11    1    3    3    0    0  0.15638089813E+02 -0.92361007902E+02 -0.18164900354E+03  0.20438068920E+03  0.00000000000E+00 0.  1.
        -11    1    3    3    0    0 -0.86871006783E+02 -0.21178238085E+03 -0.30644488792E+03  0.38250074247E+03  0.00000000000E+00 0. -1.
          4    1    6    6  502    0  0.44049021129E+02  0.63938188330E+02  0.37166743066E+02  0.86080049835E+02  0.00000000000E+00 0. -1.
          3    1    5    5  503    0 -0.11512698727E+03 -0.15233483174E+03 -0.34742162187E+03  0.39643651132E+03  0.00000000000E+00 0. -1.
         -4    1    5    5    0  503 -0.38058041226E+01 -0.35884970556E+02 -0.22239177635E+02  0.42388633838E+02  0.00000000000E+00 0.  1.
         -3    1    6    6    0  502  0.14611668724E+03  0.42842500272E+03  0.67345890607E+02  0.45763909167E+03  0.00000000000E+00 0.  1.
<mgrwt>
<rscale>  0 0.13768527E+04</rscale>
<asrwt>0</asrwt>
<pdfrwt beam="1">  1        1 0.17866675E+00 0.13768527E+04</pdfrwt>
<pdfrwt beam="2">  1       -1 0.62783359E-01 0.13768527E+04</pdfrwt>
<totfact> 0.28677724E+01</totfact>
</mgrwt>
</event>
<event>
12    1  0.1489233E-007  0.1287934E+04  0.7818608E-02  0.9039189E-01
         -1   -1    0    0    0  501 -0.00000000000E+00  0.00000000000E+00  0.50860463324E+03  0.50860463324E+03  0.00000000000E+00 0.  1.
          1   -1    0    0  501    0  0.00000000000E+00 -0.00000000000E+00 -0.81535539785E+03  0.81535539785E+03  0.00000000000E+00 0. -1.
         23    2    1    2    0    0 -0.16006432587E+03  0.19463371917E+03 -0.23028308774E+03  0.35368391223E+03  0.92515599832E+02 0.  0.
        254    2    1    2    0    0  0.16006432587E+03 -0.19463371917E+03 -0.76467676864E+02  0.97027611887E+03  0.93385521800E+03 0.  0.
        -24    2    4    4    0    0 -0.92405513559E+02 -0.52754737707E+03 -0.63339041433E+02  0.54534973899E+03  0.80928917319E+02 0.  0.
         24    2    4    4    0    0  0.25246983943E+03  0.33291365790E+03 -0.13128635431E+02  0.42492637988E+03  0.76272824867E+02 0.  0.
         11    1    3    3    0    0 -0.59008825391E+02  0.77403064664E+02 -0.32656868973E+02  0.10266326989E+03  0.00000000000E+00 0.  1.
        -11    1    3    3    0    0 -0.10105550048E+03  0.11723065451E+03 -0.19762621877E+03  0.25102064234E+03  0.00000000000E+00 0. -1.
          4    1    6    6  502    0  0.22361711209E+03  0.30447133361E+03 -0.34106283352E+02  0.37930283993E+03  0.00000000000E+00 0. -1.
          3    1    5    5  503    0 -0.16176407305E+01 -0.23974453788E+03 -0.33889189135E+02  0.24213330490E+03  0.00000000000E+00 0. -1.
         -4    1    5    5    0  503 -0.90787872829E+02 -0.28780283919E+03 -0.29449852298E+02  0.30321643409E+03  0.00000000000E+00 0.  1.
         -3    1    6    6    0  502  0.28852727338E+02  0.28442324285E+02  0.20977647922E+02  0.45623539953E+02  0.00000000000E+00 0.  1.
<mgrwt>
<rscale>  0 0.12879341E+04</rscale>
<asrwt>0</asrwt>
<pdfrwt beam="1">  1        1 0.12543929E+00 0.12879341E+04</pdfrwt>
<pdfrwt beam="2">  1       -1 0.78246867E-01 0.12879341E+04</pdfrwt>
<totfact> 0.34490225E+01</totfact>
</mgrwt>
</event>
<event>
12    1  0.1489233E-007  0.1418951E+04  0.7818608E-02  0.8940214E-01
          2   -1    0    0  501    0  0.00000000000E+00  0.00000000000E+00  0.31037544757E+04  0.31037544757E+04  0.00000000000E+00 0.  1.
         -2   -1    0    0    0  501 -0.00000000000E+00 -0.00000000000E+00 -0.16217641239E+03  0.16217641239E+03  0.00000000000E+00 0. -1.
         23    2    1    2    0    0  0.27827575137E+01 -0.35130390860E+03  0.13654194846E+04  0.14128030134E+04  0.90663145321E+02 0.  0.
        254    2    1    2    0    0 -0.27827575137E+01  0.35130390860E+03  0.15761585788E+04  0.18531278747E+04  0.90905713500E+03 0.  0.
        -24    2    4    4    0    0 -0.12316901465E+03  0.61887561140E+03  0.12755547702E+04  0.14253620690E+04  0.80246042585E+02 0.  0.
         24    2    4    4    0    0  0.12038625714E+03 -0.26757170280E+03  0.30060380851E+03  0.42776580569E+03  0.80829869320E+02 0.  0.
         11    1    3    3    0    0 -0.27151576249E+02 -0.18887898936E+03  0.59386535207E+03  0.62376961861E+03  0.00000000000E+00 0. -1.
        -11    1    3    3    0    0  0.29934333763E+02 -0.16242491924E+03  0.77155413252E+03  0.78903339481E+03  0.00000000000E+00 0.  1.
          4    1    6    6  502    0  0.12236238792E+03 -0.27157811821E+03  0.30075292174E+03  0.42329605267E+03  0.00000000000E+00 0. -1.
          1    1    5    5  503    0 -0.11912776945E+03  0.40448490415E+03  0.84783577084E+03  0.94690282366E+03  0.00000000000E+00 0. -1.
         -2    1    5    5    0  503 -0.40412451951E+01  0.21439070725E+03  0.42771899941E+03  0.47845924536E+03  0.00000000000E+00 0.  1.
         -3    1    6    6    0  502 -0.19761307803E+01  0.40064154116E+01 -0.14911322382E+00  0.44697530206E+01  0.00000000000E+00 0.  1.
<mgrwt>
<rscale>  0 0.14189514E+04</rscale>
<asrwt>0</asrwt>
<pdfrwt beam="1">  1        2 0.47750065E+00 0.14189514E+04</pdfrwt>
<pdfrwt beam="2">  1       -2 0.24950220E-01 0.14189514E+04</pdfrwt>
<totfact> 0.21158174E+01</totfact>
</mgrwt>
</event>
<event>
12    1  0.1489233E-007  0.1219271E+04  0.7818608E-02  0.9096154E-01
         -2   -1    0    0    0  501 -0.00000000000E+00  0.00000000000E+00  0.88124157693E+03  0.88124157693E+03  0.00000000000E+00 0.  1.
          2   -1    0    0  501    0  0.00000000000E+00 -0.00000000000E+00 -0.42174040357E+03  0.42174040357E+03  0.00000000000E+00 0. -1.
         23    2    1    2    0    0 -0.75095368387E+02 -0.24694315697E+03  0.14503799586E+03  0.30833267656E+03  0.86097514824E+02 0.  0.
        254    2    1    2    0    0  0.75095368387E+02  0.24694315697E+03  0.31446317750E+03  0.99464930394E+03  0.90764525598E+03 0.  0.
        -24    2    4    4    0    0 -0.67771276105E+02  0.32531292641E+03  0.58028799031E+03  0.67321228706E+03  0.77840772043E+02 0.  0.
         24    2    4    4    0    0  0.14286664449E+03 -0.78369769434E+02 -0.26582481281E+03  0.32143701689E+03  0.78142343524E+02 0.  0.
         11    1    3    3    0    0 -0.53339999502E+02 -0.13807557762E+03  0.12864071772E+03  0.19610827350E+03  0.00000000000E+00 0.  1.
        -11    1    3    3    0    0 -0.21755368884E+02 -0.10886757935E+03  0.16397278146E+02  0.11222440305E+03  0.00000000000E+00 0. -1.
          4    1    6    6  502    0  0.12063512796E+03 -0.93139174341E+02 -0.23997265360E+03  0.28427911350E+03  0.00000000000E+00 0. -1.
          3    1    5    5  503    0 -0.56109636047E+02  0.29777585366E+03  0.47219326249E+03  0.56105724077E+03  0.00000000000E+00 0. -1.
         -4    1    5    5    0  503 -0.11661640058E+02  0.27537072743E+02  0.10809472782E+03  0.11215504629E+03  0.00000000000E+00 0.  1.
         -3    1    6    6    0  502  0.22231516530E+02  0.14769404908E+02 -0.25852159207E+02  0.37157903388E+02  0.00000000000E+00 0.  1.
<mgrwt>
<rscale>  0 0.12192706E+04</rscale>
<asrwt>0</asrwt>
<pdfrwt beam="1">  1        2 0.64883139E-01 0.12192706E+04</pdfrwt>
<pdfrwt beam="2">  1       -2 0.13557563E+00 0.12192706E+04</pdfrwt>
<totfact> 0.28779535E+01</totfact>
</mgrwt>
</event>
<event>
12    1  0.1489233E-007  0.2640508E+04  0.7818608E-02  0.8354570E-01
         -2   -1    0    0    0  501 -0.00000000000E+00  0.00000000000E+00  0.12952152001E+04  0.12952152001E+04  0.00000000000E+00 0.  1.
          2   -1    0    0  501    0  0.00000000000E+00 -0.00000000000E+00 -0.13457769685E+04  0.13457769685E+04  0.00000000000E+00 0. -1.
         23    2    1    2    0    0 -0.51688051262E+03  0.37296098626E+03  0.95298976193E+03  0.11501725111E+04  0.91880124499E+02 0.  0.
        254    2    1    2    0    0  0.51688051262E+03 -0.37296098626E+03 -0.10035515303E+04  0.14908196575E+04  0.89953444379E+03 0.  0.
        -24    2    4    4    0    0  0.20775414026E+03 -0.43899692919E+03 -0.63917466555E+02  0.49616728473E+03  0.78844437145E+02 0.  0.
         24    2    4    4    0    0  0.30912637236E+03  0.66035942929E+02 -0.93963406374E+03  0.99465237274E+03  0.80630695296E+02 0.  0.
         13    1    3    3    0    0 -0.35639418877E+03  0.20303488085E+03  0.61546374427E+03  0.73961855110E+03  0.00000000000E+00 0.  1.
        -13    1    3    3    0    0 -0.16048632384E+03  0.16992610541E+03  0.33752601766E+03  0.41055395996E+03  0.00000000000E+00 0. -1.
          2    1    6    6  502    0  0.21138124450E+03  0.69883755907E+01 -0.58267560603E+03  0.61987234958E+03  0.00000000000E+00 0. -1.
          1    1    5    5  503    0  0.20021471159E+02 -0.11246239482E+03 -0.29281667928E+02  0.11792398243E+03  0.00000000000E+00 0. -1.
         -2    1    5    5    0  503  0.18773266910E+03 -0.32653453437E+03 -0.34635798627E+02  0.37824330230E+03  0.00000000000E+00 0.  1.
         -1    1    6    6    0  502  0.97745127852E+02  0.59047567339E+02 -0.35695845771E+03  0.37478002316E+03  0.00000000000E+00 0.  1.
<mgrwt>
<rscale>  0 0.26405081E+04</rscale>
<asrwt>0</asrwt>
<pdfrwt beam="1">  1        2 0.20704261E+00 0.26405081E+04</pdfrwt>
<pdfrwt beam="2">  1       -2 0.19926388E+00 0.26405081E+04</pdfrwt>
<totfact> 0.18437478E+00</totfact>
</mgrwt>
</event>
<event>
12    1  0.1489233E-007  0.1537600E+04  0.7818608E-02  0.8859828E-01
         -1   -1    0    0    0  501 -0.00000000000E+00  0.00000000000E+00  0.90585427372E+03  0.90585427372E+03  0.00000000000E+00 0.  1.
          1   -1    0    0  501    0  0.00000000000E+00 -0.00000000000E+00 -0.65248144788E+03  0.65248144788E+03  0.00000000000E+00 0. -1.
         23    2    1    2    0    0  0.22639425403E+03  0.46399224725E+02 -0.36631231727E+03  0.44266681357E+03  0.91443686164E+02 0.  0.
        254    2    1    2    0    0 -0.22639425403E+03 -0.46399224725E+02  0.61968514311E+03  0.11156689080E+04  0.89849885334E+03 0.  0.
        -24    2    4    4    0    0 -0.22314601998E+03 -0.38922461637E+03  0.68147066145E+02  0.46098651381E+03  0.81083876745E+02 0.  0.
         24    2    4    4    0    0 -0.32482340418E+01  0.34282539165E+03  0.55153807697E+03  0.65468239422E+03  0.82915540007E+02 0.  0.
         13    1    3    3    0    0  0.12909107980E+03  0.71824036418E+02 -0.22736900636E+03  0.27114546676E+03  0.00000000000E+00 0.  1.
        -13    1    3    3    0    0  0.97303174227E+02 -0.25424811693E+02 -0.13894331091E+03  0.17152134681E+03  0.00000000000E+00 0. -1.
          4    1    6    6  502    0 -0.26774334251E+02  0.28495859577E+03  0.48690695114E+03  0.56479788008E+03  0.00000000000E+00 0. -1.
          1    1    5    5  503    0 -0.98879383643E+02 -0.20493060054E+03 -0.31374571945E+01  0.22755994196E+03  0.00000000000E+00 0. -1.
         -2    1    5    5    0  503 -0.12426663634E+03 -0.18429401583E+03  0.71284523339E+02  0.23342657185E+03  0.00000000000E+00 0.  1.
         -3    1    6    6    0  502  0.23526100209E+02  0.57866795874E+02  0.64631125830E+02  0.89884514137E+02  0.00000000000E+00 0.  1.
<mgrwt>
<rscale>  0 0.15375996E+04</rscale>
<asrwt>0</asrwt>
<pdfrwt beam="1">  1        1 0.10038176E+00 0.15375996E+04</pdfrwt>
<pdfrwt beam="2">  1       -1 0.13936220E+00 0.15375996E+04</pdfrwt>
<totfact> 0.12391513E+01</totfact>
</mgrwt>
</event>
<event>
12    1  0.1489233E-007  0.2207698E+04  0.7818608E-02  0.8515231E-01
         -1   -1    0    0    0  501 -0.00000000000E+00  0.00000000000E+00  0.73029911327E+03  0.73029911327E+03  0.00000000000E+00 0.  1.
          1   -1    0    0  501    0  0.00000000000E+00 -0.00000000000E+00 -0.16684708165E+04  0.16684708165E+04  0.00000000000E+00 0. -1.
         23    2    1    2    0    0 -0.49867881284E+03 -0.50344371273E+03 -0.10293133330E+04  0.12531870709E+04  0.94105084254E+02 0.  0.
        254    2    1    2    0    0  0.49867881284E+03  0.50344371273E+03  0.91141629786E+02  0.11455828589E+04  0.89549827447E+03 0.  0.
        -24    2    4    4    0    0  0.65934669243E+03  0.15226971735E+03  0.24261758344E+03  0.72336413266E+03  0.80425424918E+02 0.  0.
         24    2    4    4    0    0 -0.16066787959E+03  0.35117399538E+03 -0.15147595366E+03  0.42221872621E+03  0.78653325790E+02 0.  0.
         11    1    3    3    0    0 -0.63712597035E+02 -0.10289491535E+03 -0.13772164371E+03  0.18334096588E+03  0.00000000000E+00 0.  1.
        -11    1    3    3    0    0 -0.43496621581E+03 -0.40054879738E+03 -0.89159168928E+03  0.10698461050E+04  0.00000000000E+00 0. -1.
          4    1    6    6  502    0 -0.27828518088E+02  0.13960173223E+03 -0.75339169429E+02  0.16105607878E+03  0.00000000000E+00 0. -1.
          1    1    5    5  503    0  0.12258864360E+03  0.23705415457E+02  0.12886933401E+02  0.12552288761E+03  0.00000000000E+00 0. -1.
         -2    1    5    5    0  503  0.53675804884E+03  0.12856430189E+03  0.22973065004E+03  0.59784124505E+03  0.00000000000E+00 0.  1.
         -3    1    6    6    0  502 -0.13283936150E+03  0.21157226315E+03 -0.76136784230E+02  0.26116264743E+03  0.00000000000E+00 0.  1.
<mgrwt>
<rscale>  0 0.22076981E+04</rscale>
<asrwt>0</asrwt>
<pdfrwt beam="1">  1        1 0.25668781E+00 0.22076981E+04</pdfrwt>
<pdfrwt beam="2">  1       -1 0.11235371E+00 0.22076981E+04</pdfrwt>
<totfact> 0.33114356E+00</totfact>
</mgrwt>
</event>
<event>
12    1  0.1489233E-007  0.1457094E+04  0.7818608E-02  0.8913497E-01
         -1   -1    0    0    0  501 -0.00000000000E+00  0.00000000000E+00  0.78644178962E+03  0.78644178962E+03  0.00000000000E+00 0.  1.
          1   -1    0    0  501    0  0.00000000000E+00 -0.00000000000E+00 -0.67491444124E+03  0.67491444124E+03  0.00000000000E+00 0. -1.
         23    2    1    2    0    0 -0.41379501007E+03  0.15581141602E+03  0.15801507523E+02  0.45111512997E+03  0.88043541046E+02 0.  0.
        254    2    1    2    0    0  0.41379501007E+03 -0.15581141602E+03  0.95725840858E+02  0.10102411009E+04  0.90328297759E+03 0.  0.
        -24    2    4    4    0    0  0.42162953303E+03  0.72977630328E+02  0.42041812976E+03  0.60517749915E+03  0.79945006099E+02 0.  0.
         24    2    4    4    0    0 -0.78345229553E+01 -0.22878904635E+03 -0.32469228890E+03  0.40506360174E+03  0.79029307855E+02 0.  0.
         11    1    3    3    0    0 -0.11210217816E+03  0.52720541061E+02  0.43014212792E+02  0.13113571710E+03  0.00000000000E+00 0.  1.
        -11    1    3    3    0    0 -0.30169283192E+03  0.10309087496E+03 -0.27212705269E+02  0.31997941287E+03  0.00000000000E+00 0. -1.
          4    1    6    6  502    0 -0.27777763221E+02 -0.27804389523E+02 -0.66677774399E+02  0.77399055583E+02  0.00000000000E+00 0. -1.
          3    1    5    5  503    0  0.14790010726E+03  0.64409426677E+02  0.14893668989E+03  0.21955672062E+03  0.00000000000E+00 0. -1.
         -4    1    5    5    0  503  0.27372942577E+03  0.85682036510E+01  0.27148143987E+03  0.38562077854E+03  0.00000000000E+00 0.  1.
         -3    1    6    6    0  502  0.19943240266E+02 -0.20098465683E+03 -0.25801451450E+03  0.32766454615E+03  0.00000000000E+00 0.  1.
<mgrwt>
<rscale>  0 0.14570943E+04</rscale>
<asrwt>0</asrwt>
<pdfrwt beam="1">  1        1 0.10383299E+00 0.14570943E+04</pdfrwt>
<pdfrwt beam="2">  1       -1 0.12099104E+00 0.14570943E+04</pdfrwt>
<totfact> 0.16961037E+01</totfact>
</mgrwt>
</event>
<event>
12    1  0.1489233E-007  0.1931850E+04  0.7818608E-02  0.8639163E-01
          1   -1    0    0  501    0  0.00000000000E+00  0.00000000000E+00  0.61184953090E+03  0.61184953090E+03  0.00000000000E+00 0. -1.
         -1   -1    0    0    0  501 -0.00000000000E+00 -0.00000000000E+00 -0.15249023470E+04  0.15249023470E+04  0.00000000000E+00 0.  1.
         23    2    1    2    0    0 -0.68414393006E+03  0.21650269286E+03 -0.10457155021E+03  0.73098659896E+03  0.92086186239E+02 0.  0.
        254    2    1    2    0    0  0.68414393006E+03 -0.21650269286E+03 -0.80848126592E+03  0.14057652790E+04  0.89866997787E+03 0.  0.
        -24    2    4    4    0    0  0.79463551737E+02 -0.40820509743E+03 -0.59706425548E+03  0.73221965352E+03  0.81939234908E+02 0.  0.
         24    2    4    4    0    0  0.60468037833E+03  0.19170240457E+03 -0.21141701044E+03  0.67354562543E+03  0.81107246228E+02 0.  0.
         11    1    3    3    0    0 -0.70331675656E+02  0.35664476837E+02 -0.38302504794E+02  0.87667447677E+02  0.00000000000E+00 0.  1.
        -11    1    3    3    0    0 -0.61381225441E+03  0.18083821602E+03 -0.66269045416E+02  0.64331915129E+03  0.00000000000E+00 0. -1.
          2    1    6    6  502    0  0.17065277704E+03  0.50880013060E+02 -0.21766045679E+02  0.17940152392E+03  0.00000000000E+00 0. -1.
          1    1    5    5  503    0  0.65778348283E+02 -0.13696726760E+03 -0.20033852381E+03  0.25144054490E+03  0.00000000000E+00 0. -1.
         -2    1    5    5    0  503  0.13685203453E+02 -0.27123782982E+03 -0.39672573167E+03  0.48077910863E+03  0.00000000000E+00 0.  1.
         -1    1    6    6    0  502  0.43402760129E+03  0.14082239150E+03 -0.18965096476E+03  0.49414410152E+03  0.00000000000E+00 0.  1.
<mgrwt>
<rscale>  0 0.19318497E+04</rscale>
<asrwt>0</asrwt>
<pdfrwt beam="1">  1        1 0.94130699E-01 0.19318497E+04</pdfrwt>
<pdfrwt beam="2">  1       -1 0.23460036E+00 0.19318497E+04</pdfrwt>
<totfact> 0.27330822E+00</totfact>
</mgrwt>
</event>
<event>
12    1  0.1489233E-007  0.2187355E+04  0.7818608E-02  0.8523710E-01
         -2   -1    0    0    0  501 -0.00000000000E+00  0.00000000000E+00  0.29054201054E+03  0.29054201054E+03  0.00000000000E+00 0.  1.
          2   -1    0    0  501    0  0.00000000000E+00 -0.00000000000E+00 -0.41168925445E+04  0.41168925445E+04  0.00000000000E+00 0. -1.
         23    2    1    2    0    0  0.33103046217E+03 -0.62744946503E+03 -0.24575040571E+04  0.25593844257E+04  0.88591476278E+02 0.  0.
        254    2    1    2    0    0 -0.33103046217E+03  0.62744946503E+03 -0.13688464769E+04  0.18480501294E+04  0.10189576073E+04 0.  0.
        -24    2    4    4    0    0  0.26631645640E+03  0.49806336404E+03 -0.93126994790E+03  0.10921816688E+04  0.81274302940E+02 0.  0.
         24    2    4    4    0    0 -0.59734691857E+03  0.12938610099E+03 -0.43757652897E+03  0.75586846055E+03  0.79371321628E+02 0.  0.
         11    1    3    3    0    0  0.25527877550E+03 -0.52833653443E+03 -0.21142632573E+04  0.21941777203E+04  0.00000000000E+00 0. -1.
        -11    1    3    3    0    0  0.75751686671E+02 -0.99112930600E+02 -0.34324079979E+03  0.36520670542E+03  0.00000000000E+00 0.  1.
          4    1    6    6  502    0 -0.49881296853E+03  0.11664854216E+03 -0.32964009289E+03  0.60916652141E+03  0.00000000000E+00 0. -1.
          3    1    5    5  503    0  0.22986881494E+03  0.41635419775E+03 -0.83358601924E+03  0.95971669858E+03  0.00000000000E+00 0. -1.
         -4    1    5    5    0  503  0.36447641464E+02  0.81709166298E+02 -0.97683928660E+02  0.13246497025E+03  0.00000000000E+00 0.  1.
         -3    1    6    6    0  502 -0.98533950038E+02  0.12737558831E+02 -0.10793643608E+03  0.14670193914E+03  0.00000000000E+00 0.  1.
<mgrwt>
<rscale>  0 0.21873548E+04</rscale>
<asrwt>0</asrwt>
<pdfrwt beam="1">  1        2 0.63336803E+00 0.21873548E+04</pdfrwt>
<pdfrwt beam="2">  1       -2 0.44698775E-01 0.21873548E+04</pdfrwt>
<totfact> 0.11995499E+00</totfact>
</mgrwt>
</event>
<event>
12    1  0.1500558E-007  0.1901672E+04  0.7818608E-02  0.8654025E-01
          1   -1    0    0  501    0  0.00000000000E+00  0.00000000000E+00  0.10045826749E+04  0.10045826749E+04  0.00000000000E+00 0. -1.
         -1   -1    0    0    0  501 -0.00000000000E+00 -0.00000000000E+00 -0.89996449387E+03  0.89996449387E+03  0.00000000000E+00 0.  1.
         23    2    1    2    0    0  0.50214203302E+03 -0.23093480893E+02  0.56914038942E+03  0.76477153109E+03  0.90965827255E+02 0.  0.
        254    2    1    2    0    0 -0.50214203302E+03  0.23093480893E+02 -0.46452220839E+03  0.11397756377E+04  0.91138778353E+03 0.  0.
        -24    2    4    4    0    0 -0.25822591180E+03  0.40937943494E+03 -0.46424436121E+03  0.67562183111E+03  0.81669385171E+02 0.  0.
         24    2    4    4    0    0 -0.24391612122E+03 -0.38628595405E+03 -0.27784717779E+00  0.46415380657E+03  0.82016866984E+02 0.  0.
         11    1    3    3    0    0  0.49656502332E+03 -0.10628112952E+02  0.55889974391E+03  0.74770228227E+03  0.00000000000E+00 0. -1.
        -11    1    3    3    0    0  0.55770096923E+01 -0.12465367941E+02  0.10240645509E+02  0.17069248825E+02  0.00000000000E+00 0.  1.
          4    1    6    6  502    0 -0.22674038198E+03 -0.34123781439E+03  0.23547551896E+02  0.41037657583E+03  0.00000000000E+00 0. -1.
          1    1    5    5  503    0 -0.21819034851E+03  0.38301344495E+03 -0.43589962534E+03  0.61993129504E+03  0.00000000000E+00 0. -1.
         -2    1    5    5    0  503 -0.40035563287E+02  0.26365989989E+02 -0.28344735871E+02  0.55690536067E+02  0.00000000000E+00 0.  1.
         -3    1    6    6    0  502 -0.17175739237E+02 -0.45048139658E+02 -0.23825399073E+02  0.53777230739E+02  0.00000000000E+00 0.  1.
<mgrwt>
<rscale>  0 0.19016716E+04</rscale>
<asrwt>0</asrwt>
<pdfrwt beam="1">  1        1 0.15455118E+00 0.19016716E+04</pdfrwt>
<pdfrwt beam="2">  1       -1 0.13845608E+00 0.19016716E+04</pdfrwt>
<totfact> 0.60580817E+00</totfact>
</mgrwt>
</event>
<event>
12    1  0.1489233E-007  0.2717826E+04  0.7818608E-02  0.8329244E-01
         -2   -1    0    0    0  501 -0.00000000000E+00  0.00000000000E+00  0.10139226468E+04  0.10139226468E+04  0.00000000000E+00 0. -1.
          2   -1    0    0  501    0  0.00000000000E+00 -0.00000000000E+00 -0.18212878652E+04  0.18212878652E+04  0.00000000000E+00 0.  1.
         23    2    1    2    0    0  0.23256221664E+03  0.47752300724E+03  0.76995829445E+03  0.94015770327E+03  0.94590299653E+02 0.  0.
        254    2    1    2    0    0 -0.23256221664E+03 -0.47752300724E+03 -0.15773235129E+04  0.18950528087E+04  0.90618004638E+03 0.  0.
        -24    2    4    4    0    0 -0.24520066421E+03 -0.58450633350E+03 -0.16305844802E+04  0.17512997108E+04  0.80460612373E+02 0.  0.
         24    2    4    4    0    0  0.12638447570E+02  0.10698332626E+03  0.53260967371E+02  0.14375309792E+03  0.78886374365E+02 0.  0.
         11    1    3    3    0    0  0.17338536466E+02  0.59395163327E+02  0.14808805638E+03  0.16049449435E+03  0.00000000000E+00 0.  1.
        -11    1    3    3    0    0  0.21522368018E+03  0.41812784391E+03  0.62187023807E+03  0.77966320893E+03  0.00000000000E+00 0. -1.
          2    1    6    6  502    0  0.29596941265E+02  0.24062109890E+02 -0.83731299479E+01  0.39052187772E+02  0.00000000000E+00 0. -1.
          3    1    5    5  503    0 -0.77583850797E+02 -0.16822494704E+03 -0.38277586007E+03  0.42524845181E+03  0.00000000000E+00 0. -1.
         -4    1    5    5    0  503 -0.16761681342E+03 -0.41628138646E+03 -0.12478086202E+04  0.13260512590E+04  0.00000000000E+00 0.  1.
         -1    1    6    6    0  502 -0.16958493695E+02  0.82921216374E+02  0.61634097319E+02  0.10470091015E+03  0.00000000000E+00 0.  1.
<mgrwt>
<rscale>  0 0.27178263E+04</rscale>
<asrwt>0</asrwt>
<pdfrwt beam="1">  1        2 0.28019813E+00 0.27178263E+04</pdfrwt>
<pdfrwt beam="2">  1       -2 0.15598810E+00 0.27178263E+04</pdfrwt>
<totfact> 0.19853905E+00</totfact>
</mgrwt>
</event>
<event>
12    1  0.1489233E-007  0.2268701E+04  0.7818608E-02  0.8490365E-01
          1   -1    0    0  501    0  0.00000000000E+00  0.00000000000E+00  0.17475876783E+04  0.17475876783E+04  0.00000000000E+00 0. -1.
         -1   -1    0    0    0  501 -0.00000000000E+00 -0.00000000000E+00 -0.73630137726E+03  0.73630137726E+03  0.00000000000E+00 0.  1.
         23    2    1    2    0    0 -0.91672928868E+02 -0.13209020691E+03 -0.60054825921E+03  0.62834178954E+03  0.91123236279E+02 0.  0.
        254    2    1    2    0    0  0.91672928868E+02  0.13209020691E+03  0.16118345603E+04  0.18555472661E+04  0.90509295554E+03 0.  0.
        -24    2    4    4    0    0 -0.34945097512E+03 -0.14835256661E+03  0.60356105215E+03  0.71696822614E+03  0.75053484920E+02 0.  0.
         24    2    4    4    0    0  0.44112390399E+03  0.28044277352E+03  0.10082735081E+04  0.11385790399E+04  0.80674128492E+02 0.  0.
         11    1    3    3    0    0 -0.40927385776E+02 -0.12428009755E+03 -0.38000457874E+03  0.40190057653E+03  0.00000000000E+00 0.  1.
        -11    1    3    3    0    0 -0.50745543092E+02 -0.78101093615E+01 -0.22054368048E+03  0.22644121301E+03  0.00000000000E+00 0. -1.
          2    1    6    6  502    0  0.25558330056E+03  0.12190809608E+03  0.58673809988E+03  0.65149520740E+03  0.00000000000E+00 0. -1.
          1    1    5    5  503    0 -0.25378779808E+03 -0.91441106658E+02  0.36649043328E+03  0.45506588548E+03  0.00000000000E+00 0. -1.
         -2    1    5    5    0  503 -0.95663177039E+02 -0.56911459952E+02  0.23707061887E+03  0.26190234067E+03  0.00000000000E+00 0.  1.
         -1    1    6    6    0  502  0.18554060343E+03  0.15853467745E+03  0.42153540827E+03  0.48708383252E+03  0.00000000000E+00 0.  1.
<mgrwt>
<rscale>  0 0.22687011E+04</rscale>
<asrwt>0</asrwt>
<pdfrwt beam="1">  1        1 0.26885964E+00 0.22687011E+04</pdfrwt>
<pdfrwt beam="2">  1       -1 0.11327714E+00 0.22687011E+04</pdfrwt>
<totfact> 0.28525225E+00</totfact>
</mgrwt>
</event>
<event>
12    1  0.1489233E-007  0.3501469E+04  0.7818608E-02  0.8113442E-01
         -1   -1    0    0    0  501 -0.00000000000E+00  0.00000000000E+00  0.15262632074E+04  0.15262632074E+04  0.00000000000E+00 0.  1.
          1   -1    0    0  501    0  0.00000000000E+00 -0.00000000000E+00 -0.20082191396E+04  0.20082191396E+04  0.00000000000E+00 0. -1.
         23    2    1    2    0    0 -0.15093902261E+04 -0.45052159826E+03  0.20713468034E+03  0.15913328009E+04  0.90591072304E+02 0.  0.
        254    2    1    2    0    0  0.15093902261E+04  0.45052159826E+03 -0.68909061255E+03  0.19431495462E+04  0.90540362357E+03 0.  0.
        -24    2    4    4    0    0  0.12913507902E+04  0.70411393453E+03 -0.55743372290E+03  0.15746723546E+04  0.74144269630E+02 0.  0.
         24    2    4    4    0    0  0.21803943590E+03 -0.25359233627E+03 -0.13165688965E+03  0.36847719165E+03  0.81188888111E+02 0.  0.
         13    1    3    3    0    0 -0.14541583905E+04 -0.41634383446E+03  0.20427946000E+03  0.15263187449E+04  0.00000000000E+00 0.  1.
        -13    1    3    3    0    0 -0.55231835540E+02 -0.34177763803E+02  0.28552203416E+01  0.65014056010E+02  0.00000000000E+00 0. -1.
          2    1    6    6  502    0  0.13134745706E+03 -0.90775640668E+02 -0.63612779070E+02  0.17186901139E+03  0.00000000000E+00 0. -1.
          3    1    5    5  503    0  0.92739219421E+03  0.54221166192E+03 -0.39873530607E+03  0.11458794057E+04  0.00000000000E+00 0. -1.
         -4    1    5    5    0  503  0.36395859595E+03  0.16190227261E+03 -0.15869841683E+03  0.42879294881E+03  0.00000000000E+00 0.  1.
         -1    1    6    6    0  502  0.86691978843E+02 -0.16281669560E+03 -0.68044110576E+02  0.19660818026E+03  0.00000000000E+00 0.  1.
<mgrwt>
<rscale>  0 0.35014688E+04</rscale>
<asrwt>0</asrwt>
<pdfrwt beam="1">  1        1 0.30895679E+00 0.35014688E+04</pdfrwt>
<pdfrwt beam="2">  1       -1 0.23480972E+00 0.35014688E+04</pdfrwt>
<totfact> 0.21052810E-01</totfact>
</mgrwt>
</event>
<event>
12    1  0.1489233E-007  0.1220826E+04  0.7818608E-02  0.9094820E-01
         -2   -1    0    0    0  501 -0.00000000000E+00  0.00000000000E+00  0.48580794656E+03  0.48580794656E+03  0.00000000000E+00 0.  1.
          2   -1    0    0  501    0  0.00000000000E+00 -0.00000000000E+00 -0.76697844314E+03  0.76697844314E+03  0.00000000000E+00 0. -1.
         23    2    1    2    0    0  0.23858965083E+03 -0.13211789016E+03 -0.50757132743E+01  0.28759101758E+03  0.91118999892E+02 0.  0.
        254    2    1    2    0    0 -0.23858965083E+03  0.13211789016E+03 -0.27609478331E+03  0.96519537213E+03  0.88373843337E+03 0.  0.
        -24    2    4    4    0    0 -0.30990951980E+03 -0.17076585915E+03 -0.46711224773E+03  0.59114737992E+03  0.77823413471E+02 0.  0.
         24    2    4    4    0    0  0.71319868975E+02  0.30288374932E+03  0.19101746442E+03  0.37404799221E+03  0.81235087576E+02 0.  0.
         11    1    3    3    0    0  0.35364897349E+02 -0.25298246240E+01 -0.28416869191E+02  0.45437808395E+02  0.00000000000E+00 0. -1.
        -11    1    3    3    0    0  0.20322475348E+03 -0.12958806554E+03  0.23341155917E+02  0.24215320918E+03  0.00000000000E+00 0.  1.
          2    1    6    6  502    0  0.67698879352E+02  0.30697807288E+03  0.18127341316E+03  0.36287563408E+03  0.00000000000E+00 0. -1.
          3    1    5    5  503    0 -0.17003262725E+03 -0.13687606788E+03 -0.27480692615E+03  0.35094871270E+03  0.00000000000E+00 0. -1.
         -4    1    5    5    0  503 -0.13987689255E+03 -0.33889791277E+02 -0.19230532158E+03  0.24019866722E+03  0.00000000000E+00 0.  1.
         -1    1    6    6    0  502  0.36209896230E+01 -0.40943235585E+01  0.97440512567E+01  0.11172358128E+02  0.00000000000E+00 0.  1.
<mgrwt>
<rscale>  0 0.12208263E+04</rscale>
<asrwt>0</asrwt>
<pdfrwt beam="1">  1        2 0.11799668E+00 0.12208263E+04</pdfrwt>
<pdfrwt beam="2">  1       -2 0.74739684E-01 0.12208263E+04</pdfrwt>
<totfact> 0.57778641E+01</totfact>
</mgrwt>
</event>
<event>
12    1  0.1489233E-007  0.2355380E+04  0.7818608E-02  0.8456400E-01
          1   -1    0    0  501    0  0.00000000000E+00  0.00000000000E+00  0.11378413101E+04  0.11378413101E+04  0.00000000000E+00 0. -1.
         -1   -1    0    0    0  501 -0.00000000000E+00 -0.00000000000E+00 -0.12189347556E+04  0.12189347556E+04  0.00000000000E+00 0.  1.
         23    2    1    2    0    0 -0.98712614010E+03 -0.46876838412E+02 -0.12118013016E+03  0.99971326037E+03  0.90147238307E+02 0.  0.
        254    2    1    2    0    0  0.98712614010E+03  0.46876838412E+02  0.40086684575E+02  0.13570628053E+04  0.92919161691E+03 0.  0.
        -24    2    4    4    0    0  0.53947159506E+03 -0.39061645211E+03  0.21095127565E+03  0.70316082963E+03  0.79522934423E+02 0.  0.
         24    2    4    4    0    0  0.44765454504E+03  0.43749329052E+03 -0.17086459107E+03  0.65390197572E+03  0.81228778260E+02 0.  0.
         11    1    3    3    0    0 -0.33787779249E+03  0.67765705348E+01 -0.77948850473E+02  0.34681889778E+03  0.00000000000E+00 0.  1.
        -11    1    3    3    0    0 -0.64924834760E+03 -0.53653408947E+02 -0.43231279683E+02  0.65289436259E+03  0.00000000000E+00 0. -1.
          4    1    6    6  502    0  0.40420273605E+03  0.37311420729E+03 -0.12646096832E+03  0.56443461979E+03  0.00000000000E+00 0. -1.
          1    1    5    5  503    0  0.36489929736E+03 -0.30435203987E+03  0.13312542763E+03  0.49346128609E+03  0.00000000000E+00 0. -1.
         -2    1    5    5    0  503  0.17457229770E+03 -0.86264412237E+02  0.77825848016E+02  0.20969954354E+03  0.00000000000E+00 0.  1.
         -3    1    6    6    0  502  0.43451808987E+02  0.64379083234E+02 -0.44403622755E+02  0.89467355924E+02  0.00000000000E+00 0.  1.
<mgrwt>
<rscale>  0 0.23553805E+04</rscale>
<asrwt>0</asrwt>
<pdfrwt beam="1">  1        1 0.17505251E+00 0.23553805E+04</pdfrwt>
<pdfrwt beam="2">  1       -1 0.18752842E+00 0.23553805E+04</pdfrwt>
<totfact> 0.19652135E+00</totfact>
</mgrwt>
</event>
<event>
12    1  0.1489233E-007  0.2428315E+04  0.7818608E-02  0.8428978E-01
         -1   -1    0    0    0  501 -0.00000000000E+00  0.00000000000E+00  0.32396939711E+04  0.32396939711E+04  0.00000000000E+00 0.  1.
          1   -1    0    0  501    0  0.00000000000E+00 -0.00000000000E+00 -0.45503618558E+03  0.45503618558E+03  0.00000000000E+00 0. -1.
         23    2    1    2    0    0  0.99710019394E+03 -0.35199647667E+02  0.74297686732E+03  0.12473069003E+04  0.91170533913E+02 0.  0.
        254    2    1    2    0    0 -0.99710019394E+03  0.35199647667E+02  0.20416809182E+04  0.24474232564E+04  0.90882991374E+03 0.  0.
        -24    2    4    4    0    0 -0.32866148546E+03 -0.15542401747E+03  0.10239923250E+03  0.38580159367E+03  0.78627410144E+02 0.  0.
         24    2    4    4    0    0 -0.66843870848E+03  0.19062366514E+03  0.19392816857E+04  0.20616216627E+04  0.79515626902E+02 0.  0.
         11    1    3    3    0    0  0.82641022908E+03 -0.73996832058E-01  0.58983072012E+03  0.10153098791E+04  0.00000000000E+00 0. -1.
        -11    1    3    3    0    0  0.17068996486E+03 -0.35125650835E+02  0.15314614720E+03  0.23199702122E+03  0.00000000000E+00 0.  1.
          2    1    6    6  502    0 -0.63439157022E+03  0.19424538973E+03  0.18726756214E+04  0.19867304595E+04  0.00000000000E+00 0. -1.
          3    1    5    5  503    0 -0.13253179556E+03 -0.10455658460E+03  0.56857084221E+02  0.17812771891E+03  0.00000000000E+00 0. -1.
         -4    1    5    5    0  503 -0.19612968990E+03 -0.50867432876E+02  0.45542148283E+02  0.20767387476E+03  0.00000000000E+00 0.  1.
         -1    1    6    6    0  502 -0.34047138263E+02 -0.36217245934E+01  0.66606064350E+02  0.74891203229E+02  0.00000000000E+00 0.  1.
<mgrwt>
<rscale>  0 0.24283146E+04</rscale>
<asrwt>0</asrwt>
<pdfrwt beam="1">  1        1 0.70005569E-01 0.24283146E+04</pdfrwt>
<pdfrwt beam="2">  1       -1 0.49841444E+00 0.24283146E+04</pdfrwt>
<totfact> 0.68518629E-02</totfact>
</mgrwt>
</event>
<event>
12    1  0.1489233E-007  0.1347496E+04  0.7818608E-02  0.8992726E-01
          1   -1    0    0  501    0  0.00000000000E+00  0.00000000000E+00  0.15128028569E+04  0.15128028569E+04  0.00000000000E+00 0. -1.
         -1   -1    0    0    0  501 -0.00000000000E+00 -0.00000000000E+00 -0.30006294549E+03  0.30006294549E+03  0.00000000000E+00 0.  1.
         23    2    1    2    0    0  0.61513917045E+02  0.20136565420E+03 -0.39832328531E+02  0.23328686098E+03  0.92217441036E+02 0.  0.
        254    2    1    2    0    0 -0.61513917045E+02 -0.20136565420E+03  0.12525722400E+04  0.15795789414E+04  0.93904223929E+03 0.  0.
        -24    2    4    4    0    0 -0.33139477460E+03 -0.46364895072E+03  0.69961786359E+03  0.90595334123E+03  0.80581978774E+02 0.  0.
         24    2    4    4    0    0  0.26988085755E+03  0.26228329653E+03  0.55295437638E+03  0.67362560019E+03  0.79904330057E+02 0.  0.
         11    1    3    3    0    0  0.17012016395E+02  0.27433460741E+02 -0.42945945912E+02  0.53724833553E+02  0.00000000000E+00 0. -1.
        -11    1    3    3    0    0  0.44501900650E+02  0.17393219345E+03  0.31136173805E+01  0.17956202743E+03  0.00000000000E+00 0.  1.
          4    1    6    6  502    0  0.13744114477E+03  0.18497748802E+03  0.35461404945E+03  0.42291590585E+03  0.00000000000E+00 0. -1.
          3    1    5    5  503    0 -0.28943355441E+03 -0.36412256883E+03  0.59850146234E+03  0.75799803956E+03  0.00000000000E+00 0. -1.
         -4    1    5    5    0  503 -0.41961220184E+02 -0.99526381896E+02  0.10111640125E+03  0.14795530167E+03  0.00000000000E+00 0.  1.
         -3    1    6    6    0  502  0.13243971278E+03  0.77305808504E+02  0.19834032693E+03  0.25070969434E+03  0.00000000000E+00 0.  1.
<mgrwt>
<rscale>  0 0.13474956E+04</rscale>
<asrwt>0</asrwt>
<pdfrwt beam="1">  1        1 0.23273890E+00 0.13474956E+04</pdfrwt>
<pdfrwt beam="2">  1       -1 0.46163531E-01 0.13474956E+04</pdfrwt>
<totfact> 0.29291519E+01</totfact>
</mgrwt>
</event>
<event>
12    1  0.1489233E-007  0.1802120E+04  0.7818608E-02  0.8705173E-01
          1   -1    0    0  501    0  0.00000000000E+00  0.00000000000E+00  0.72064005118E+03  0.72064005118E+03  0.00000000000E+00 0. -1.
         -1   -1    0    0    0  501 -0.00000000000E+00 -0.00000000000E+00 -0.11266494799E+04  0.11266494799E+04  0.00000000000E+00 0.  1.
         23    2    1    2    0    0 -0.55447490130E+02  0.14486562797E+03 -0.81487239079E+03  0.83425007748E+03  0.88857774984E+02 0.  0.
        254    2    1    2    0    0  0.55447490130E+02 -0.14486562797E+03  0.40886296204E+03  0.10130394536E+04  0.91379403509E+03 0.  0.
        -24    2    4    4    0    0  0.25991031545E+03 -0.44433334743E+03  0.37147004057E+03  0.63989151388E+03  0.80533612710E+02 0.  0.
         24    2    4    4    0    0 -0.20446282532E+03  0.29946771946E+03  0.37392921471E+02  0.37314793976E+03  0.79719460821E+02 0.  0.
         11    1    3    3    0    0  0.22098845699E+02  0.29240471841E+02 -0.11626205731E+03  0.12190254363E+03  0.00000000000E+00 0. -1.
        -11    1    3    3    0    0 -0.77546335829E+02  0.11562515613E+03 -0.69861033348E+03  0.71234753385E+03  0.00000000000E+00 0.  1.
          2    1    6    6  502    0 -0.11631337568E+02  0.50590803378E+02  0.26108641861E+02  0.58106613909E+02  0.00000000000E+00 0. -1.
          1    1    5    5  503    0  0.37906601368E+02 -0.10157444577E+03  0.11297496024E+03  0.15658103366E+03  0.00000000000E+00 0. -1.
         -2    1    5    5    0  503  0.22200371408E+03 -0.34275890166E+03  0.25849508033E+03  0.48331048022E+03  0.00000000000E+00 0.  1.
         -1    1    6    6    0  502 -0.19283148775E+03  0.24887691608E+03  0.11284279609E+02  0.31504132585E+03  0.00000000000E+00 0.  1.
<mgrwt>
<rscale>  0 0.18021196E+04</rscale>
<asrwt>0</asrwt>
<pdfrwt beam="1">  1        1 0.11086770E+00 0.18021196E+04</pdfrwt>
<pdfrwt beam="2">  1       -1 0.17333069E+00 0.18021196E+04</pdfrwt>
<totfact> 0.57184397E+00</totfact>
</mgrwt>
</event>
<event>
12    1  0.1489233E-007  0.2344374E+04  0.7818608E-02  0.8460628E-01
          2   -1    0    0  501    0  0.00000000000E+00  0.00000000000E+00  0.35343232514E+04  0.35343232514E+04  0.00000000000E+00 0. -1.
         -2   -1    0    0    0  501 -0.00000000000E+00 -0.00000000000E+00 -0.38876539381E+03  0.38876539381E+03  0.00000000000E+00 0.  1.
         23    2    1    2    0    0 -0.72196760930E+03 -0.22719945874E+03  0.24505788748E+04  0.25664585787E+04  0.92282129753E+02 0.  0.
        254    2    1    2    0    0  0.72196760930E+03  0.22719945874E+03  0.69497898275E+03  0.13566300665E+04  0.88577227769E+03 0.  0.
        -24    2    4    4    0    0  0.82335178412E+03  0.31554955796E+03  0.30461622635E+03  0.93614700149E+03  0.78105563775E+02 0.  0.
         24    2    4    4    0    0 -0.10138417482E+03 -0.88350099217E+02  0.39036275640E+03  0.42048306501E+03  0.79614291677E+02 0.  0.
         13    1    3    3    0    0 -0.30026969597E+03 -0.14089257166E+03  0.11056090612E+04  0.11542893932E+04  0.00000000000E+00 0.  1.
        -13    1    3    3    0    0 -0.42169791333E+03 -0.86306887077E+02  0.13449698136E+04  0.14121691855E+04  0.00000000000E+00 0. -1.
          4    1    6    6  502    0 -0.25241301423E+02  0.10361810623E+02  0.11534849316E+03  0.11853170585E+03  0.00000000000E+00 0. -1.
          1    1    5    5  503    0  0.49836290981E+03  0.22364192837E+03  0.21203847896E+03  0.58595359762E+03  0.00000000000E+00 0. -1.
         -2    1    5    5    0  503  0.32498887431E+03  0.91907629589E+02  0.92577747391E+02  0.35019340387E+03  0.00000000000E+00 0.  1.
         -3    1    6    6    0  502 -0.76142873398E+02 -0.98711909840E+02  0.27501426324E+03  0.30195135916E+03  0.00000000000E+00 0.  1.
<mgrwt>
<rscale>  0 0.23443742E+04</rscale>
<asrwt>0</asrwt>
<pdfrwt beam="1">  1        2 0.54374202E+00 0.23443742E+04</pdfrwt>
<pdfrwt beam="2">  1       -2 0.59810063E-01 0.23443742E+04</pdfrwt>
<totfact> 0.18158106E+00</totfact>
</mgrwt>
</event>
<event>
12    1  0.1489233E-007  0.1309037E+04  0.7818608E-02  0.9022429E-01
          1   -1    0    0  501    0  0.00000000000E+00  0.00000000000E+00  0.59836006852E+03  0.59836006852E+03  0.00000000000E+00 0. -1.
         -1   -1    0    0    0  501 -0.00000000000E+00 -0.00000000000E+00 -0.71594782826E+03  0.71594782826E+03  0.00000000000E+00 0.  1.
         23    2    1    2    0    0 -0.90070055152E+02 -0.84159565417E+02  0.22697610207E+03  0.27430169761E+03  0.92346213322E+02 0.  0.
        254    2    1    2    0    0  0.90070055152E+02  0.84159565417E+02 -0.34456386181E+03  0.10400061992E+04  0.97349534779E+03 0.  0.
        -24    2    4    4    0    0 -0.35326614378E+03  0.30833191991E+03 -0.21632942478E+03  0.52191217238E+03  0.75685893513E+02 0.  0.
         24    2    4    4    0    0  0.44333619893E+03 -0.22417235450E+03 -0.12823443703E+03  0.51809402679E+03  0.71952205998E+02 0.  0.
         11    1    3    3    0    0 -0.42243703210E+01  0.29237470807E+01  0.92108073559E+02  0.92251237479E+02  0.00000000000E+00 0. -1.
        -11    1    3    3    0    0 -0.85845684831E+02 -0.87083312498E+02  0.13486802851E+03  0.18205046013E+03  0.00000000000E+00 0.  1.
          2    1    6    6  502    0  0.31164770309E+03 -0.18910959996E+03 -0.10888624238E+03  0.38045097637E+03  0.00000000000E+00 0. -1.
          3    1    5    5  503    0 -0.32697951551E+03  0.25225762559E+03 -0.18528278195E+03  0.45263586084E+03  0.00000000000E+00 0. -1.
         -4    1    5    5    0  503 -0.26286628267E+02  0.56074294327E+02 -0.31046642827E+02  0.69276311541E+02  0.00000000000E+00 0.  1.
         -1    1    6    6    0  502  0.13168849584E+03 -0.35062754537E+02 -0.19348194649E+02  0.13764305042E+03  0.00000000000E+00 0.  1.
<mgrwt>
<rscale>  0 0.13090372E+04</rscale>
<asrwt>0</asrwt>
<pdfrwt beam="1">  1        1 0.92055395E-01 0.13090372E+04</pdfrwt>
<pdfrwt beam="2">  1       -1 0.11014582E+00 0.13090372E+04</pdfrwt>
<totfact> 0.25696991E+01</totfact>
</mgrwt>
</event>
<event>
12    1  0.1489233E-007  0.1499205E+04  0.7818608E-02  0.8884981E-01
          1   -1    0    0  501    0  0.00000000000E+00  0.00000000000E+00  0.13975923644E+04  0.13975923644E+04  0.00000000000E+00 0. -1.
         -1   -1    0    0    0  501 -0.00000000000E+00 -0.00000000000E+00 -0.40205157042E+03  0.40205157042E+03  0.00000000000E+00 0.  1.
         23    2    1    2    0    0 -0.27662892802E+03  0.22089679038E+03 -0.57899221996E+02  0.37027599004E+03  0.91831547260E+02 0.  0.
        254    2    1    2    0    0  0.27662892802E+03 -0.22089679038E+03  0.10534400159E+04  0.14293679447E+04  0.89890928264E+03 0.  0.
        -24    2    4    4    0    0 -0.31865350291E+03 -0.15058907645E+03  0.40628617529E+03  0.54375542229E+03  0.79902303929E+02 0.  0.
         24    2    4    4    0    0  0.59528243093E+03 -0.70307713932E+02  0.64715384064E+03  0.88561252244E+03  0.78721656615E+02 0.  0.
         13    1    3    3    0    0 -0.33800775665E+02  0.75181047826E+02 -0.16639922693E+02  0.84092624023E+02  0.00000000000E+00 0. -1.
        -13    1    3    3    0    0 -0.24282815236E+03  0.14571574256E+03 -0.41259299302E+02  0.28618336602E+03  0.00000000000E+00 0.  1.
          4    1    6    6  502    0  0.32085330255E+03 -0.10906011106E+02  0.38707229369E+03  0.50288243495E+03  0.00000000000E+00 0. -1.
          1    1    5    5  503    0 -0.20819295346E+03 -0.55650190148E+02  0.23281338168E+03  0.31724331392E+03  0.00000000000E+00 0. -1.
         -2    1    5    5    0  503 -0.11046054945E+03 -0.94938886304E+02  0.17347279360E+03  0.22651210837E+03  0.00000000000E+00 0.  1.
         -1    1    6    6    0  502  0.27442912839E+03 -0.59401702826E+02  0.26008154695E+03  0.38273008749E+03  0.00000000000E+00 0.  1.
<mgrwt>
<rscale>  0 0.14992054E+04</rscale>
<asrwt>0</asrwt>
<pdfrwt beam="1">  1        1 0.21501421E+00 0.14992054E+04</pdfrwt>
<pdfrwt beam="2">  1       -1 0.61854088E-01 0.14992054E+04</pdfrwt>
<totfact> 0.19779860E+01</totfact>
</mgrwt>
</event>
<event>
12    1  0.1489233E-007  0.1805617E+04  0.7818608E-02  0.8703318E-01
         -1   -1    0    0    0  501 -0.00000000000E+00  0.00000000000E+00  0.12403152486E+04  0.12403152486E+04  0.00000000000E+00 0.  1.
          1   -1    0    0  501    0  0.00000000000E+00 -0.00000000000E+00 -0.65714196403E+03  0.65714196403E+03  0.00000000000E+00 0. -1.
         23    2    1    2    0    0  0.19286746926E+03 -0.61967018910E+03  0.13786377976E+02  0.65570235644E+03  0.92555453995E+02 0.  0.
        254    2    1    2    0    0 -0.19286746926E+03  0.61967018910E+03  0.56938690660E+03  0.12417548562E+04  0.89250471679E+03 0.  0.
        -24    2    4    4    0    0  0.33295346171E+03  0.13683722116E+03  0.29617102727E+03  0.47332738671E+03  0.82092051113E+02 0.  0.
         24    2    4    4    0    0 -0.52582093097E+03  0.48283296794E+03  0.27321587933E+03  0.76842746948E+03  0.78857674004E+02 0.  0.
         11    1    3    3    0    0  0.20165593088E+03 -0.55916613344E+03  0.12144309170E+02  0.59454130512E+03  0.00000000000E+00 0. -1.
        -11    1    3    3    0    0 -0.87884616185E+01 -0.60504055659E+02  0.16420688058E+01  0.61161051321E+02  0.00000000000E+00 0.  1.
          2    1    6    6  502    0 -0.38824007839E+03  0.37608639480E+03  0.17313243196E+03  0.56757922250E+03  0.00000000000E+00 0. -1.
          3    1    5    5  503    0  0.30968558777E+03  0.12835185384E+03  0.29794360207E+03  0.44849721479E+03  0.00000000000E+00 0. -1.
         -4    1    5    5    0  503  0.23267873941E+02  0.84853673196E+01 -0.17725748022E+01  0.24830171922E+02  0.00000000000E+00 0.  1.
         -1    1    6    6    0  502 -0.13758085258E+03  0.10674657314E+03  0.10008344737E+03  0.20084824698E+03  0.00000000000E+00 0.  1.
<mgrwt>
<rscale>  0 0.18056170E+04</rscale>
<asrwt>0</asrwt>
<pdfrwt beam="1">  1        1 0.10109876E+00 0.18056170E+04</pdfrwt>
<pdfrwt beam="2">  1       -1 0.19081773E+00 0.18056170E+04</pdfrwt>
<totfact> 0.49275576E+00</totfact>
</mgrwt>
</event>
<event>
12    1  0.1489233E-007  0.1642499E+04  0.7818608E-02  0.8794856E-01
         -1   -1    0    0    0  501 -0.00000000000E+00  0.00000000000E+00  0.10821377957E+04  0.10821377957E+04  0.00000000000E+00 0. -1.
          1   -1    0    0  501    0  0.00000000000E+00 -0.00000000000E+00 -0.62325761755E+03  0.62325761755E+03  0.00000000000E+00 0.  1.
         23    2    1    2    0    0  0.69691516993E+02  0.55774884920E+03  0.27275785878E+03  0.63102570058E+03  0.88633509149E+02 0.  0.
        254    2    1    2    0    0 -0.69691516993E+02 -0.55774884920E+03  0.18612231935E+03  0.10743697126E+04  0.89648651712E+03 0.  0.
        -24    2    4    4    0    0 -0.17311893881E+02 -0.79008651571E+03  0.21043596046E+03  0.82192481414E+03  0.82101782361E+02 0.  0.
         24    2    4    4    0    0 -0.52379623113E+02  0.23233766651E+03 -0.24313641104E+02  0.25244489851E+03  0.80080318686E+02 0.  0.
         11    1    3    3    0    0  0.53032928977E+02  0.41886001267E+03  0.16055372435E+03  0.45170089680E+03  0.00000000000E+00 0. -1.
        -11    1    3    3    0    0  0.16658588016E+02  0.13888883653E+03  0.11220413443E+03  0.17932480378E+03  0.00000000000E+00 0.  1.
          4    1    6    6  502    0 -0.57184978532E+02  0.12721908956E+03 -0.42161998393E+02  0.14571359795E+03  0.00000000000E+00 0. -1.
          1    1    5    5  503    0  0.33083238618E+02 -0.33119821205E+03  0.92013349232E+02  0.34533058477E+03  0.00000000000E+00 0. -1.
         -2    1    5    5    0  503 -0.50395132499E+02 -0.45888830366E+03  0.11842261122E+03  0.47659422937E+03  0.00000000000E+00 0.  1.
         -3    1    6    6    0  502  0.48053554197E+01  0.10511857696E+03  0.17848357290E+02  0.10673130056E+03  0.00000000000E+00 0.  1.
<mgrwt>
<rscale>  0 0.16424989E+04</rscale>
<asrwt>0</asrwt>
<pdfrwt beam="1">  1        1 0.95885788E-01 0.16424989E+04</pdfrwt>
<pdfrwt beam="2">  1       -1 0.16648274E+00 0.16424989E+04</pdfrwt>
<totfact> 0.80940488E+00</totfact>
</mgrwt>
</event>
<event>
12    1  0.1489233E-007  0.1445777E+04  0.7818608E-02  0.8921333E-01
         -2   -1    0    0    0  501 -0.00000000000E+00  0.00000000000E+00  0.62813958254E+03  0.62813958254E+03  0.00000000000E+00 0.  1.
          2   -1    0    0  501    0  0.00000000000E+00 -0.00000000000E+00 -0.83192958735E+03  0.83192958735E+03  0.00000000000E+00 0. -1.
         23    2    1    2    0    0  0.17692199226E+03 -0.32602242102E+02 -0.46041505688E+03  0.50278757111E+03  0.91918548332E+02 0.  0.
        254    2    1    2    0    0 -0.17692199226E+03  0.32602242102E+02  0.25662505206E+03  0.95728159878E+03  0.90452603306E+03 0.  0.
        -24    2    4    4    0    0 -0.31079071671E+03 -0.46270114865E+02 -0.25823058422E+03  0.41480282313E+03  0.81526402650E+02 0.  0.
         24    2    4    4    0    0  0.13386872445E+03  0.78872356966E+02  0.51485563628E+03  0.54247877565E+03  0.71170300944E+02 0.  0.
         11    1    3    3    0    0  0.16471333604E+02 -0.36859239539E+02 -0.72610346073E+02  0.83079303842E+02  0.00000000000E+00 0.  1.
        -11    1    3    3    0    0  0.16045065865E+03  0.42569974374E+01 -0.38780471081E+03  0.41970826727E+03  0.00000000000E+00 0. -1.
          2    1    6    6  502    0  0.13707648788E+03  0.68237032201E+02  0.42124937870E+03  0.44821567927E+03  0.00000000000E+00 0. -1.
          1    1    5    5  503    0 -0.68304985163E+02 -0.48406820938E+01 -0.10378348444E+03  0.12433830803E+03  0.00000000000E+00 0. -1.
         -2    1    5    5    0  503 -0.24248573155E+03 -0.41429432771E+02 -0.15444709978E+03  0.29046451511E+03  0.00000000000E+00 0.  1.
         -1    1    6    6    0  502 -0.32077634270E+01  0.10635324765E+02  0.93606257586E+02  0.94263096375E+02  0.00000000000E+00 0.  1.
<mgrwt>
<rscale>  0 0.14457772E+04</rscale>
<asrwt>0</asrwt>
<pdfrwt beam="1">  1        2 0.12798917E+00 0.14457772E+04</pdfrwt>
<pdfrwt beam="2">  1       -2 0.96636859E-01 0.14457772E+04</pdfrwt>
<totfact> 0.28395030E+01</totfact>
</mgrwt>
</event>
<event>
12    1  0.1489233E-007  0.2021796E+04  0.7818608E-02  0.8596498E-01
         -2   -1    0    0    0  501 -0.00000000000E+00  0.00000000000E+00  0.14882715375E+04  0.14882715375E+04  0.00000000000E+00 0.  1.
          2   -1    0    0  501    0  0.00000000000E+00 -0.00000000000E+00 -0.68664504189E+03  0.68664504189E+03  0.00000000000E+00 0. -1.
         23    2    1    2    0    0  0.33397997516E+03  0.28078147780E+03 -0.41259221447E+03  0.60688903765E+03  0.87755948526E+02 0.  0.
        254    2    1    2    0    0 -0.33397997516E+03 -0.28078147780E+03  0.12142187101E+04  0.15680275417E+04  0.89106814197E+03 0.  0.
        -24    2    4    4    0    0  0.14270297368E+03 -0.34949730858E+03  0.92067086940E+03  0.99825052335E+03  0.79729230622E+02 0.  0.
         24    2    4    4    0    0 -0.47668294885E+03  0.68715830783E+02  0.29354784067E+03  0.56977701837E+03  0.80789954698E+02 0.  0.
         13    1    3    3    0    0  0.94767400494E+02  0.64852132718E+02 -0.16247469334E+03  0.19895900404E+03  0.00000000000E+00 0.  1.
        -13    1    3    3    0    0  0.23921257467E+03  0.21592934508E+03 -0.25011752113E+03  0.40793003361E+03  0.00000000000E+00 0. -1.
          2    1    6    6  502    0 -0.31326820211E+03  0.41029555563E+02  0.23589434848E+03  0.39429244797E+03  0.00000000000E+00 0. -1.
          1    1    5    5  503    0  0.81890497470E+02 -0.16098832584E+03  0.34440605014E+03  0.38889435841E+03  0.00000000000E+00 0. -1.
         -2    1    5    5    0  503  0.60812476213E+02 -0.18850898274E+03  0.57626481926E+03  0.60935616494E+03  0.00000000000E+00 0.  1.
         -1    1    6    6    0  502 -0.16341474674E+03  0.27686275220E+02  0.57653492194E+02  0.17548457040E+03  0.00000000000E+00 0.  1.
<mgrwt>
<rscale>  0 0.20217955E+04</rscale>
<asrwt>0</asrwt>
<pdfrwt beam="1">  1        2 0.10563770E+00 0.20217955E+04</pdfrwt>
<pdfrwt beam="2">  1       -2 0.22896485E+00 0.20217955E+04</pdfrwt>
<totfact> 0.33775717E+00</totfact>
</mgrwt>
</event>
<event>
12    1  0.1489233E-007  0.2102943E+04  0.7818608E-02  0.8559948E-01
          2   -1    0    0  501    0  0.00000000000E+00  0.00000000000E+00  0.14487130501E+04  0.14487130501E+04  0.00000000000E+00 0. -1.
         -2   -1    0    0    0  501 -0.00000000000E+00 -0.00000000000E+00 -0.76315504643E+03  0.76315504643E+03  0.00000000000E+00 0.  1.
         23    2    1    2    0    0  0.29943322490E+02 -0.47359185789E+03 -0.45238493746E+03  0.66179075139E+03  0.90161058960E+02 0.  0.
        254    2    1    2    0    0 -0.29943322490E+02  0.47359185789E+03  0.11379429411E+04  0.15500773451E+04  0.93948911024E+03 0.  0.
        -24    2    4    4    0    0 -0.80154606837E+02  0.41766030353E+03  0.12913322783E+04  0.13615806389E+04  0.74147779289E+02 0.  0.
         24    2    4    4    0    0  0.50211284346E+02  0.55931554363E+02 -0.15338933717E+03  0.18849670623E+03  0.79707011317E+02 0.  0.
         11    1    3    3    0    0  0.53005955716E+02 -0.27282709018E+03 -0.29793173714E+03  0.40744026859E+03  0.00000000000E+00 0.  1.
        -11    1    3    3    0    0 -0.23062633225E+02 -0.20076476772E+03 -0.15445320033E+03  0.25435048280E+03  0.00000000000E+00 0. -1.
          2    1    6    6  502    0  0.38863068893E+02 -0.97053926228E+01 -0.79457879902E+02  0.88983635846E+02  0.00000000000E+00 0. -1.
          3    1    5    5  503    0 -0.70301770760E+02  0.40694498655E+03  0.11994651526E+04  0.12685673862E+04  0.00000000000E+00 0. -1.
         -4    1    5    5    0  503 -0.98528360766E+01  0.10715316978E+02  0.91867125656E+02  0.93013252673E+02  0.00000000000E+00 0.  1.
         -1    1    6    6    0  502  0.11348215453E+02  0.65636946985E+02 -0.73931457264E+02  0.99513070381E+02  0.00000000000E+00 0.  1.
<mgrwt>
<rscale>  0 0.21029433E+04</rscale>
<asrwt>0</asrwt>
<pdfrwt beam="1">  1        2 0.22287893E+00 0.21029433E+04</pdfrwt>
<pdfrwt beam="2">  1       -2 0.11740847E+00 0.21029433E+04</pdfrwt>
<totfact> 0.70099122E+00</totfact>
</mgrwt>
</event>
<event>
12    1  0.1489233E-007  0.2265384E+04  0.7818608E-02  0.8491696E-01
         -1   -1    0    0    0  501 -0.00000000000E+00  0.00000000000E+00  0.11875122499E+04  0.11875122499E+04  0.00000000000E+00 0.  1.
          1   -1    0    0  501    0  0.00000000000E+00 -0.00000000000E+00 -0.10804020664E+04  0.10804020664E+04  0.00000000000E+00 0. -1.
         23    2    1    2    0    0  0.48600592217E+03 -0.51968478029E+03  0.67918022291E+03  0.98767551582E+03  0.89124194896E+02 0.  0.
        254    2    1    2    0    0 -0.48600592217E+03  0.51968478029E+03 -0.57207003935E+03  0.12802388005E+04  0.89748160381E+03 0.  0.
        -24    2    4    4    0    0 -0.64832693645E+03  0.55572728152E+03 -0.65019068712E+03  0.10762736737E+04  0.80352119163E+02 0.  0.
         24    2    4    4    0    0  0.16232101428E+03 -0.36042501227E+02  0.78120647771E+02  0.20396512685E+03  0.88610178817E+02 0.  0.
         11    1    3    3    0    0  0.27223828789E+03 -0.23807365661E+03  0.30767004731E+03  0.47481955454E+03  0.00000000000E+00 0.  1.
        -11    1    3    3    0    0  0.21376763428E+03 -0.28161112368E+03  0.37151017560E+03  0.51285596128E+03  0.00000000000E+00 0. -1.
          2    1    6    6  502    0 -0.55551062497E+01 -0.53964228188E+01 -0.94006011161E+01  0.12179978901E+02  0.00000000000E+00 0. -1.
          1    1    5    5  503    0 -0.19194532576E+03  0.21064405195E+03 -0.19830322864E+03  0.34718596629E+03  0.00000000000E+00 0. -1.
         -2    1    5    5    0  503 -0.45638161070E+03  0.34508322957E+03 -0.45188745848E+03  0.72908770737E+03  0.00000000000E+00 0.  1.
         -1    1    6    6    0  502  0.16787612053E+03 -0.30646078409E+02  0.87521248887E+02  0.19178514795E+03  0.00000000000E+00 0.  1.
<mgrwt>
<rscale>  0 0.22653836E+04</rscale>
<asrwt>0</asrwt>
<pdfrwt beam="1">  1        1 0.16621570E+00 0.22653836E+04</pdfrwt>
<pdfrwt beam="2">  1       -1 0.18269419E+00 0.22653836E+04</pdfrwt>
<totfact> 0.23676094E+00</totfact>
</mgrwt>
</event>
<event>
12    1  0.1489233E-007  0.1825284E+04  0.7818608E-02  0.8692968E-01
         -2   -1    0    0    0  501 -0.00000000000E+00  0.00000000000E+00  0.16871922344E+04  0.16871922344E+04  0.00000000000E+00 0.  1.
          2   -1    0    0  501    0  0.00000000000E+00 -0.00000000000E+00 -0.49366973348E+03  0.49366973348E+03  0.00000000000E+00 0. -1.
         23    2    1    2    0    0 -0.31426551210E+03 -0.51990577361E+03  0.83310271109E+03  0.10355388812E+04  0.95999071516E+02 0.  0.
        254    2    1    2    0    0  0.31426551210E+03  0.51990577361E+03  0.36041978982E+03  0.11453230867E+04  0.90155295044E+03 0.  0.
        -24    2    4    4    0    0 -0.21098090501E+03 -0.10993601136E+03  0.13253543672E+02  0.25123418311E+03  0.79649792687E+02 0.  0.
         24    2    4    4    0    0  0.52524641710E+03  0.62984178497E+03  0.34716624615E+03  0.89408890356E+03  0.79284880212E+02 0.  0.
         11    1    3    3    0    0 -0.23945337904E+02 -0.94332519235E+01  0.20270430668E+02  0.32760583155E+02  0.00000000000E+00 0. -1.
        -11    1    3    3    0    0 -0.29032017419E+03 -0.51047252169E+03  0.81283228043E+03  0.10027782981E+04  0.00000000000E+00 0.  1.
          4    1    6    6  502    0  0.41156516682E+03  0.51898452580E+03  0.25025935919E+03  0.70806819687E+03  0.00000000000E+00 0. -1.
          3    1    5    5  503    0 -0.20583233284E+03 -0.12062783221E+03  0.15798407802E+02  0.23909749650E+03  0.00000000000E+00 0. -1.
         -4    1    5    5    0  503 -0.51485721661E+01  0.10691820850E+02 -0.25448641303E+01  0.12136686611E+02  0.00000000000E+00 0.  1.
         -3    1    6    6    0  502  0.11368125028E+03  0.11085725917E+03  0.96906886956E+02  0.18602070668E+03  0.00000000000E+00 0.  1.
<mgrwt>
<rscale>  0 0.18252844E+04</rscale>
<asrwt>0</asrwt>
<pdfrwt beam="1">  1        2 0.75949191E-01 0.18252844E+04</pdfrwt>
<pdfrwt beam="2">  1       -2 0.25956803E+00 0.18252844E+04</pdfrwt>
<totfact> 0.33059797E+00</totfact>
</mgrwt>
</event>
<event>
12    1  0.1489233E-007  0.2211276E+04  0.7818608E-02  0.8513749E-01
          2   -1    0    0  501    0  0.00000000000E+00  0.00000000000E+00  0.68608080418E+03  0.68608080418E+03  0.00000000000E+00 0. -1.
         -2   -1    0    0    0  501 -0.00000000000E+00 -0.00000000000E+00 -0.17817661334E+04  0.17817661334E+04  0.00000000000E+00 0.  1.
         23    2    1    2    0    0 -0.77490697813E+03  0.12093447795E+03 -0.99528992335E+03  0.12703316492E+04  0.89635343621E+02 0.  0.
        254    2    1    2    0    0  0.77490697813E+03 -0.12093447795E+03 -0.10039540587E+03  0.11975152883E+04  0.89936514030E+03 0.  0.
        -24    2    4    4    0    0  0.44333115799E+03 -0.30914258794E+03  0.31333480268E+03  0.62979556421E+03  0.79700055260E+02 0.  0.
         24    2    4    4    0    0  0.33157582014E+03  0.18820810999E+03 -0.41373020855E+03  0.56771972414E+03  0.75948551930E+02 0.  0.
         11    1    3    3    0    0 -0.52616476113E+03  0.72495505889E+02 -0.73740380782E+03  0.90877353065E+03  0.00000000000E+00 0. -1.
        -11    1    3    3    0    0 -0.24874221701E+03  0.48438972057E+02 -0.25788611554E+03  0.36155811859E+03  0.00000000000E+00 0.  1.
          4    1    6    6  502    0  0.22460754252E+03  0.10766303876E+03 -0.22067087919E+03  0.33276946223E+03  0.00000000000E+00 0. -1.
          1    1    5    5  503    0  0.17203325252E+03 -0.10025721468E+03  0.75721911342E+02  0.21302759663E+03  0.00000000000E+00 0. -1.
         -2    1    5    5    0  503  0.27129790547E+03 -0.20888537326E+03  0.23761289133E+03  0.41676796758E+03  0.00000000000E+00 0.  1.
         -3    1    6    6    0  502  0.10696827762E+03  0.80545071234E+02 -0.19305932936E+03  0.23495026191E+03  0.00000000000E+00 0.  1.
<mgrwt>
<rscale>  0 0.22112761E+04</rscale>
<asrwt>0</asrwt>
<pdfrwt beam="1">  1        2 0.10555090E+00 0.22112761E+04</pdfrwt>
<pdfrwt beam="2">  1       -2 0.27411786E+00 0.22112761E+04</pdfrwt>
<totfact> 0.17556376E+00</totfact>
</mgrwt>
</event>
<event>
12    1  0.1489233E-007  0.1532217E+04  0.7818608E-02  0.8863307E-01
         -2   -1    0    0    0  501 -0.00000000000E+00  0.00000000000E+00  0.28971632242E+03  0.28971632242E+03  0.00000000000E+00 0.  1.
          2   -1    0    0  501    0  0.00000000000E+00 -0.00000000000E+00 -0.20258510525E+04  0.20258510525E+04  0.00000000000E+00 0. -1.
         23    2    1    2    0    0 -0.88940238710E+02  0.65341733591E+01  0.16669731350E+03  0.21052511451E+03  0.92627037243E+02 0.  0.
        254    2    1    2    0    0  0.88940238710E+02 -0.65341733591E+01 -0.19028320435E+04  0.21050422604E+04  0.89581251973E+03 0.  0.
        -24    2    4    4    0    0  0.30324621676E+03 -0.30352528323E+03 -0.55452472810E+03  0.70570118719E+03  0.80191183945E+02 0.  0.
         24    2    4    4    0    0 -0.21430597805E+03  0.29699110987E+03 -0.13483073154E+04  0.13993410732E+04  0.78051589617E+02 0.  0.
         11    1    3    3    0    0  0.16081005226E+02 -0.20702848347E+01  0.40244514846E+01  0.16705718126E+02  0.00000000000E+00 0. -1.
        -11    1    3    3    0    0 -0.10502124394E+03  0.86044581938E+01  0.16267286202E+03  0.19381939639E+03  0.00000000000E+00 0.  1.
          4    1    6    6  502    0 -0.82582211809E+02  0.18075143749E+03 -0.72834735186E+03  0.75497070727E+03  0.00000000000E+00 0. -1.
          1    1    5    5  503    0  0.25529866530E+03 -0.28992250654E+03 -0.48201079559E+03  0.61771099664E+03  0.00000000000E+00 0. -1.
         -2    1    5    5    0  503  0.47947551458E+02 -0.13602776691E+02 -0.72513932512E+02  0.87990190549E+02  0.00000000000E+00 0.  1.
         -3    1    6    6    0  502 -0.13172376624E+03  0.11623967238E+03 -0.61995996357E+03  0.64437036590E+03  0.00000000000E+00 0.  1.
<mgrwt>
<rscale>  0 0.15322168E+04</rscale>
<asrwt>0</asrwt>
<pdfrwt beam="1">  1        2 0.31166940E+00 0.15322168E+04</pdfrwt>
<pdfrwt beam="2">  1       -2 0.44571741E-01 0.15322168E+04</pdfrwt>
<totfact> 0.29750263E+01</totfact>
</mgrwt>
</event>
<event>
12    1  0.1489233E-007  0.2526277E+04  0.7818608E-02  0.8393684E-01
         -2   -1    0    0    0  501 -0.00000000000E+00  0.00000000000E+00  0.89194669361E+03  0.89194669361E+03  0.00000000000E+00 0.  1.
          2   -1    0    0  501    0  0.00000000000E+00 -0.00000000000E+00 -0.17888053524E+04  0.17888053524E+04  0.00000000000E+00 0. -1.
         23    2    1    2    0    0 -0.33754234371E+02  0.68936091820E+03 -0.13015864073E+04  0.14761869850E+04  0.92967816881E+02 0.  0.
        254    2    1    2    0    0  0.33754234371E+02 -0.68936091820E+03  0.40472774856E+03  0.12045650610E+04  0.90045244843E+03 0.  0.
        -24    2    4    4    0    0  0.21845664676E+03  0.12836470578E+03 -0.89515679459E+01  0.26600932803E+03  0.80498620047E+02 0.  0.
         24    2    4    4    0    0 -0.18470241238E+03 -0.81772562399E+03  0.41367931651E+03  0.93855573298E+03  0.83463223864E+02 0.  0.
         11    1    3    3    0    0 -0.37478105951E+02  0.56459580386E+03 -0.98618410413E+03  0.11369837806E+04  0.00000000000E+00 0. -1.
        -11    1    3    3    0    0  0.37238715791E+01  0.12476511434E+03 -0.31540230322E+03  0.33920320436E+03  0.00000000000E+00 0.  1.
          2    1    6    6  502    0 -0.77031579610E+02 -0.44938809751E+03  0.18658099359E+03  0.49264185126E+03  0.00000000000E+00 0. -1.
          3    1    5    5  503    0  0.28895857032E+02  0.55166696771E+02  0.39206026525E+01  0.62399568199E+02  0.00000000000E+00 0. -1.
         -4    1    5    5    0  503  0.18956078972E+03  0.73198009014E+02 -0.12872170598E+02  0.20360975984E+03  0.00000000000E+00 0.  1.
         -1    1    6    6    0  502 -0.10767083277E+03 -0.36833752648E+03  0.22709832292E+03  0.44591388172E+03  0.00000000000E+00 0.  1.
<mgrwt>
<rscale>  0 0.25262771E+04</rscale>
<asrwt>0</asrwt>
<pdfrwt beam="1">  1        2 0.27520082E+00 0.25262771E+04</pdfrwt>
<pdfrwt beam="2">  1       -2 0.13722257E+00 0.25262771E+04</pdfrwt>
<totfact> 0.29474488E+00</totfact>
</mgrwt>
</event>
<event>
12    1  0.1489233E-007  0.1213589E+04  0.7818608E-02  0.9101044E-01
         -2   -1    0    0    0  501 -0.00000000000E+00  0.00000000000E+00  0.15916584500E+04  0.15916584500E+04  0.00000000000E+00 0.  1.
          2   -1    0    0  501    0  0.00000000000E+00 -0.00000000000E+00 -0.23133095418E+03  0.23133095418E+03  0.00000000000E+00 0. -1.
         23    2    1    2    0    0  0.89806997451E+02 -0.20866796875E+03  0.10994343092E+03  0.26804678103E+03  0.90298952622E+02 0.  0.
        254    2    1    2    0    0 -0.89806997451E+02  0.20866796875E+03  0.12503840649E+04  0.15549426231E+04  0.89597914794E+03 0.  0.
        -24    2    4    4    0    0  0.21468795579E+03  0.16038136177E+03  0.15660238401E+02  0.27982347159E+03  0.79011598045E+02 0.  0.
         24    2    4    4    0    0 -0.30449495324E+03  0.48286606989E+02  0.12347238265E+04  0.12751191515E+04  0.79606218183E+02 0.  0.
         13    1    3    3    0    0 -0.14627909449E+02 -0.70325926286E+01  0.11974477531E+01  0.16274734254E+02  0.00000000000E+00 0.  1.
        -13    1    3    3    0    0  0.10443490690E+03 -0.20163537613E+03  0.10874598317E+03  0.25177204678E+03  0.00000000000E+00 0. -1.
          2    1    6    6  502    0 -0.12851668241E+03  0.54068897765E+02  0.46151763690E+03  0.48211877430E+03  0.00000000000E+00 0. -1.
          3    1    5    5  503    0  0.46754778328E+02  0.17307496471E+02 -0.24550429123E+02  0.55572315956E+02  0.00000000000E+00 0. -1.
         -4    1    5    5    0  503  0.16793317746E+03  0.14307386529E+03  0.40210667523E+02  0.22425115564E+03  0.00000000000E+00 0.  1.
         -1    1    6    6    0  502 -0.17597827083E+03 -0.57822907759E+01  0.77320618958E+03  0.79300037724E+03  0.00000000000E+00 0.  1.
<mgrwt>
<rscale>  0 0.12135895E+04</rscale>
<asrwt>0</asrwt>
<pdfrwt beam="1">  1        2 0.35589379E-01 0.12135895E+04</pdfrwt>
<pdfrwt beam="2">  1       -2 0.24487052E+00 0.12135895E+04</pdfrwt>
<totfact> 0.10027428E+01</totfact>
</mgrwt>
</event>
<event>
12    1  0.1489233E-007  0.1507837E+04  0.7818608E-02  0.8879258E-01
          1   -1    0    0  501    0  0.00000000000E+00  0.00000000000E+00  0.28552902076E+03  0.28552902076E+03  0.00000000000E+00 0. -1.
         -1   -1    0    0    0  501 -0.00000000000E+00 -0.00000000000E+00 -0.19906677411E+04  0.19906677411E+04  0.00000000000E+00 0.  1.
         23    2    1    2    0    0  0.16629016204E+03  0.16492235583E+03  0.81012274256E+02  0.26310153441E+03  0.88360779675E+02 0.  0.
        254    2    1    2    0    0 -0.16629016204E+03 -0.16492235583E+03 -0.17861509946E+04  0.20130952275E+04  0.89853503984E+03 0.  0.
        -24    2    4    4    0    0 -0.44233436648E+03 -0.32753130461E+03 -0.13883922786E+04  0.14960039682E+04  0.86361486243E+02 0.  0.
         24    2    4    4    0    0  0.27604420444E+03  0.16260894878E+03 -0.39775871598E+03  0.51709125924E+03  0.80804091555E+02 0.  0.
         13    1    3    3    0    0  0.30625922686E-01 -0.37279726224E+01 -0.90059883110E+01  0.97471300021E+01  0.00000000000E+00 0. -1.
        -13    1    3    3    0    0  0.16625953612E+03  0.16865032846E+03  0.90018262567E+02  0.25335440441E+03  0.00000000000E+00 0.  1.
          4    1    6    6  502    0  0.56409672103E+02  0.39608993808E+02 -0.40152706285E+02  0.79769438504E+02  0.00000000000E+00 0. -1.
          3    1    5    5  503    0 -0.31651928375E+03 -0.27509108933E+03 -0.10926978857E+04  0.11704051579E+04  0.00000000000E+00 0. -1.
         -4    1    5    5    0  503 -0.12581508273E+03 -0.52440215287E+02 -0.29569439298E+03  0.32559881029E+03  0.00000000000E+00 0.  1.
         -3    1    6    6    0  502  0.21963453234E+03  0.12299995497E+03 -0.35760600970E+03  0.43732182073E+03  0.00000000000E+00 0.  1.
<mgrwt>
<rscale>  0 0.15078374E+04</rscale>
<asrwt>0</asrwt>
<pdfrwt beam="1">  1        1 0.43927542E-01 0.15078374E+04</pdfrwt>
<pdfrwt beam="2">  1       -1 0.30625657E+00 0.15078374E+04</pdfrwt>
<totfact> 0.27269291E+00</totfact>
</mgrwt>
</event>
<event>
12    1  0.1489233E-007  0.1439955E+04  0.7818608E-02  0.8925394E-01
          2   -1    0    0  501    0  0.00000000000E+00  0.00000000000E+00  0.52779965350E+03  0.52779965350E+03  0.00000000000E+00 0. -1.
         -2   -1    0    0    0  501 -0.00000000000E+00 -0.00000000000E+00 -0.98212952262E+03  0.98212952262E+03  0.00000000000E+00 0.  1.
         23    2    1    2    0    0 -0.17283457733E+03 -0.59203927207E+01  0.27925142326E+03  0.34290593996E+03  0.98469711553E+02 0.  0.
        254    2    1    2    0    0  0.17283457733E+03  0.59203927207E+01 -0.73358129238E+03  0.11670232362E+04  0.89100778843E+03 0.  0.
        -24    2    4    4    0    0  0.84849689309E+02 -0.37642484492E+03 -0.81843162071E+02  0.40225387577E+03  0.78833646030E+02 0.  0.
         24    2    4    4    0    0  0.87984888016E+02  0.38234523764E+03 -0.65173813031E+03  0.76476936039E+03  0.78615283700E+02 0.  0.
         13    1    3    3    0    0  0.26126596437E+01 -0.18616635646E+02  0.10019365075E+02  0.21302412767E+02  0.00000000000E+00 0.  1.
        -13    1    3    3    0    0 -0.17544723697E+03  0.12696242925E+02  0.26923205819E+03  0.32160352719E+03  0.00000000000E+00 0. -1.
          2    1    6    6  502    0  0.41491638625E+02  0.77293009109E+02 -0.19178494040E+03  0.21089625103E+03  0.00000000000E+00 0. -1.
          3    1    5    5  503    0  0.28236298266E+02 -0.32059025219E+02  0.38641272702E+01  0.42895234203E+02  0.00000000000E+00 0. -1.
         -4    1    5    5    0  503  0.56613391043E+02 -0.34436581970E+03 -0.85707289342E+02  0.35935864157E+03  0.00000000000E+00 0.  1.
         -1    1    6    6    0  502  0.46493249391E+02  0.30505222853E+03 -0.45995318990E+03  0.55387310936E+03  0.00000000000E+00 0.  1.
<mgrwt>
<rscale>  0 0.14399550E+04</rscale>
<asrwt>0</asrwt>
<pdfrwt beam="1">  1        2 0.81199947E-01 0.14399550E+04</pdfrwt>
<pdfrwt beam="2">  1       -2 0.15109685E+00 0.14399550E+04</pdfrwt>
<totfact> 0.16470269E+01</totfact>
</mgrwt>
</event>
<event>
12    1  0.1489233E-007  0.4102049E+04  0.7818608E-02  0.7984271E-01
          1   -1    0    0  501    0  0.00000000000E+00  0.00000000000E+00  0.36845449859E+04  0.36845449859E+04  0.00000000000E+00 0. -1.
         -1   -1    0    0    0  501 -0.00000000000E+00 -0.00000000000E+00 -0.11417152489E+04  0.11417152489E+04  0.00000000000E+00 0.  1.
         23    2    1    2    0    0  0.16950198471E+04 -0.42187196410E+03  0.17637856772E+03  0.17579796858E+04  0.91186294600E+02 0.  0.
        254    2    1    2    0    0 -0.16950198471E+04  0.42187196410E+03  0.23664511693E+04  0.30682805490E+04  0.87360526240E+03 0.  0.
        -24    2    4    4    0    0 -0.10567308524E+04  0.41001293221E+03  0.84376972817E+03  0.14153063250E+04  0.79711607721E+02 0.  0.
         24    2    4    4    0    0 -0.63828899468E+03  0.11859031889E+02  0.15226814411E+04  0.16529742240E+04  0.78813302427E+02 0.  0.
         13    1    3    3    0    0  0.16419950359E+04 -0.39195735467E+03  0.16679189760E+03  0.16963483731E+04  0.00000000000E+00 0.  1.
        -13    1    3    3    0    0  0.53024811238E+02 -0.29914609431E+02  0.95866701223E+01  0.61631312725E+02  0.00000000000E+00 0. -1.
          2    1    6    6  502    0 -0.57883791503E+03  0.33038890498E+02  0.13561865652E+04  0.14749192858E+04  0.00000000000E+00 0. -1.
          1    1    5    5  503    0 -0.10304092105E+04  0.38504173727E+03  0.81623047442E+03  0.13697563535E+04  0.00000000000E+00 0. -1.
         -2    1    5    5    0  503 -0.26321641952E+02  0.24971194937E+02  0.27539253751E+02  0.45549971557E+02  0.00000000000E+00 0.  1.
         -1    1    6    6    0  502 -0.59451079655E+02 -0.21179858608E+02  0.16649487592E+03  0.17805493813E+03  0.00000000000E+00 0.  1.
<mgrwt>
<rscale>  0 0.41020489E+04</rscale>
<asrwt>0</asrwt>
<pdfrwt beam="1">  1        1 0.56685307E+00 0.41020489E+04</pdfrwt>
<pdfrwt beam="2">  1       -1 0.17564850E+00 0.41020489E+04</pdfrwt>
<totfact> 0.30783238E-02</totfact>
</mgrwt>
</event>
<event>
12    1  0.1489233E-007  0.2750502E+04  0.7818608E-02  0.8318802E-01
         -2   -1    0    0    0  501 -0.00000000000E+00  0.00000000000E+00  0.49517111229E+03  0.49517111229E+03  0.00000000000E+00 0. -1.
          2   -1    0    0  501    0  0.00000000000E+00 -0.00000000000E+00 -0.38195187879E+04  0.38195187879E+04  0.00000000000E+00 0.  1.
         23    2    1    2    0    0  0.29961151916E+03  0.41355418895E+03  0.24677118012E+03  0.57526055529E+03  0.96096626011E+02 0.  0.
        254    2    1    2    0    0 -0.29961151916E+03 -0.41355418895E+03 -0.35711188557E+04  0.37394293449E+04  0.98470696868E+03 0.  0.
        -24    2    4    4    0    0  0.33878459047E+03 -0.17272636876E+03 -0.87875941565E+03  0.96093850501E+03  0.81088239692E+02 0.  0.
         24    2    4    4    0    0 -0.63839610962E+03 -0.24082782019E+03 -0.26923594401E+04  0.27784908399E+04  0.75261949450E+02 0.  0.
         11    1    3    3    0    0  0.22519071439E+02  0.45049680804E+02 -0.38067259370E+01  0.50508152623E+02  0.00000000000E+00 0.  1.
        -11    1    3    3    0    0  0.27709244772E+03  0.36850450814E+03  0.25057790605E+03  0.52475240267E+03  0.00000000000E+00 0. -1.
          2    1    6    6  502    0 -0.44349348630E+03 -0.16539995016E+03 -0.17210766268E+04  0.17849785353E+04  0.00000000000E+00 0. -1.
          1    1    5    5  503    0  0.33141315494E+03 -0.16835063955E+03 -0.87651174125E+03  0.95207638856E+03  0.00000000000E+00 0. -1.
         -2    1    5    5    0  503  0.73714355238E+01 -0.43757292069E+01 -0.22476744016E+01  0.88621164509E+01  0.00000000000E+00 0.  1.
         -1    1    6    6    0  502 -0.19490262332E+03 -0.75427870035E+02 -0.97128281322E+03  0.99351230461E+03  0.00000000000E+00 0.  1.
<mgrwt>
<rscale>  0 0.27505020E+04</rscale>
<asrwt>0</asrwt>
<pdfrwt beam="1">  1        2 0.58761826E+00 0.27505020E+04</pdfrwt>
<pdfrwt beam="2">  1       -2 0.76180173E-01 0.27505020E+04</pdfrwt>
<totfact> 0.63986742E-01</totfact>
</mgrwt>
</event>
<event>
12    1  0.1489233E-007  0.1181241E+04  0.7818608E-02  0.9129436E-01
          1   -1    0    0  501    0  0.00000000000E+00  0.00000000000E+00  0.14504167068E+04  0.14504167068E+04  0.00000000000E+00 0. -1.
         -1   -1    0    0    0  501 -0.00000000000E+00 -0.00000000000E+00 -0.24050525018E+03  0.24050525018E+03  0.00000000000E+00 0.  1.
         23    2    1    2    0    0  0.18406186414E+03  0.90995355805E+02  0.39817056360E+03  0.45695744110E+03  0.90063203632E+02 0.  0.
        254    2    1    2    0    0 -0.18406186414E+03 -0.90995355805E+02  0.81174089304E+03  0.12339645159E+04  0.90641393661E+03 0.  0.
        -24    2    4    4    0    0  0.15948229127E+03  0.99348673987E+02  0.80768672065E+03  0.83309787546E+03  0.79934167505E+02 0.  0.
         24    2    4    4    0    0 -0.34354415541E+03 -0.19034402979E+03  0.40541723961E+01  0.40086664045E+03  0.80151049390E+02 0.  0.
         13    1    3    3    0    0  0.48568270931E+02  0.16606721506E+02  0.19517494078E+03  0.20181158948E+03  0.00000000000E+00 0. -1.
        -13    1    3    3    0    0  0.13549359321E+03  0.74388634299E+02  0.20299562282E+03  0.25514585162E+03  0.00000000000E+00 0.  1.
          2    1    6    6  502    0 -0.15534903906E+03 -0.11092668732E+03  0.35601440334E+02  0.19417908346E+03  0.00000000000E+00 0. -1.
          1    1    5    5  503    0  0.82488335313E+02  0.92423884159E+01  0.26844549653E+03  0.28098528754E+03  0.00000000000E+00 0. -1.
         -2    1    5    5    0  503  0.76993955959E+02  0.90106285571E+02  0.53924122411E+03  0.55211258792E+03  0.00000000000E+00 0.  1.
         -1    1    6    6    0  502 -0.18819511635E+03 -0.79417342471E+02 -0.31547267938E+02  0.20668755699E+03  0.00000000000E+00 0.  1.
<mgrwt>
<rscale>  0 0.11812414E+04</rscale>
<asrwt>0</asrwt>
<pdfrwt beam="1">  1        1 0.22314103E+00 0.11812414E+04</pdfrwt>
<pdfrwt beam="2">  1       -1 0.37000809E-01 0.11812414E+04</pdfrwt>
<totfact> 0.49257563E+01</totfact>
</mgrwt>
</event>
<event>
12    1  0.1489233E-007  0.1164110E+04  0.7818608E-02  0.9144864E-01
          2   -1    0    0  501    0  0.00000000000E+00  0.00000000000E+00  0.18292332137E+04  0.18292332137E+04  0.00000000000E+00 0. -1.
         -2   -1    0    0    0  501 -0.00000000000E+00 -0.00000000000E+00 -0.18520760031E+03  0.18520760031E+03  0.00000000000E+00 0.  1.
         23    2    1    2    0    0 -0.18597294074E+03 -0.76057321628E+02  0.37902971120E+03  0.43546792828E+03  0.74820744010E+02 0.  0.
        254    2    1    2    0    0  0.18597294074E+03  0.76057321628E+02  0.12649959022E+04  0.15789728857E+04  0.92334722093E+03 0.  0.
        -24    2    4    4    0    0  0.14996047901E+03  0.40034691690E+03  0.11404502766E+04  0.12205498583E+04  0.79682644710E+02 0.  0.
         24    2    4    4    0    0  0.36012461723E+02 -0.32428959527E+03  0.12454562551E+03  0.35842302742E+03  0.80590413522E+02 0.  0.
         11    1    3    3    0    0 -0.62156155222E+02 -0.46927477744E+02  0.20962935464E+03  0.22362925150E+03  0.00000000000E+00 0. -1.
        -11    1    3    3    0    0 -0.12381678552E+03 -0.29129843884E+02  0.16940035655E+03  0.21183867678E+03  0.00000000000E+00 0.  1.
          2    1    6    6  502    0  0.32678286144E+02 -0.32471183304E+03  0.13058757611E+03  0.35150926010E+03  0.00000000000E+00 0. -1.
          3    1    5    5  503    0  0.80326507153E+02  0.24844238125E+03  0.58768220537E+03  0.64307568689E+03  0.00000000000E+00 0. -1.
         -4    1    5    5    0  503  0.69633971861E+02  0.15190453565E+03  0.55276807127E+03  0.57747417137E+03  0.00000000000E+00 0.  1.
         -1    1    6    6    0  502  0.33341755791E+01  0.42223776512E+00 -0.60419506029E+01  0.69137673240E+01  0.00000000000E+00 0.  1.
<mgrwt>
<rscale>  0 0.11641098E+04</rscale>
<asrwt>0</asrwt>
<pdfrwt beam="1">  1        2 0.28142048E+00 0.11641098E+04</pdfrwt>
<pdfrwt beam="2">  1       -2 0.28493478E-01 0.11641098E+04</pdfrwt>
<totfact> 0.92826408E+01</totfact>
</mgrwt>
</event>
<event>
12    1  0.1489233E-007  0.1707814E+04  0.7818608E-02  0.8756920E-01
         -2   -1    0    0    0  501 -0.00000000000E+00  0.00000000000E+00  0.37076039655E+03  0.37076039655E+03  0.00000000000E+00 0.  1.
          2   -1    0    0  501    0  0.00000000000E+00 -0.00000000000E+00 -0.19666530668E+04  0.19666530668E+04  0.00000000000E+00 0. -1.
         23    2    1    2    0    0  0.48463107332E+03  0.63790550751E+02 -0.10943989883E+04  0.12020674751E+04  0.91217090070E+02 0.  0.
        254    2    1    2    0    0 -0.48463107332E+03 -0.63790550751E+02 -0.50149368197E+03  0.11353459883E+04  0.89363196475E+03 0.  0.
        -24    2    4    4    0    0 -0.54633888392E+03  0.26599941511E+03 -0.49980404115E+03  0.79090789874E+03  0.80556562836E+02 0.  0.
         24    2    4    4    0    0  0.61707810603E+02 -0.32978996586E+03 -0.16896408214E+01  0.34443808953E+03  0.77881109142E+02 0.  0.
         11    1    3    3    0    0  0.74592722390E+02 -0.19312134288E+02 -0.13557970673E+03  0.15594514946E+03  0.00000000000E+00 0.  1.
        -11    1    3    3    0    0  0.41003835093E+03  0.83102685039E+02 -0.95881928156E+03  0.10461223256E+04  0.00000000000E+00 0. -1.
          4    1    6    6  502    0  0.34724775737E+02 -0.72816923155E+02  0.25545596138E+02  0.84620871124E+02  0.00000000000E+00 0. -1.
          3    1    5    5  503    0 -0.30347288636E+03  0.14233447242E+03 -0.32654269353E+03  0.46795835872E+03  0.00000000000E+00 0. -1.
         -4    1    5    5    0  503 -0.24286599757E+03  0.12366494269E+03 -0.17326134762E+03  0.32294954003E+03  0.00000000000E+00 0.  1.
         -3    1    6    6    0  502  0.26983034866E+02 -0.25697304270E+03 -0.27235236959E+02  0.25981721840E+03  0.00000000000E+00 0.  1.
<mgrwt>
<rscale>  0 0.17078139E+04</rscale>
<asrwt>0</asrwt>
<pdfrwt beam="1">  1        2 0.30256201E+00 0.17078139E+04</pdfrwt>
<pdfrwt beam="2">  1       -2 0.57040062E-01 0.17078139E+04</pdfrwt>
<totfact> 0.19105833E+01</totfact>
</mgrwt>
</event>
<event>
12    1  0.1489233E-007  0.1458859E+04  0.7818608E-02  0.8912281E-01
          2   -1    0    0  501    0  0.00000000000E+00  0.00000000000E+00  0.11886136851E+04  0.11886136851E+04  0.00000000000E+00 0. -1.
         -2   -1    0    0    0  501 -0.00000000000E+00 -0.00000000000E+00 -0.44763720714E+03  0.44763720714E+03  0.00000000000E+00 0.  1.
         23    2    1    2    0    0 -0.20202071539E+03 -0.19942064953E+03 -0.15603162906E+03  0.33662116508E+03  0.91580426981E+02 0.  0.
        254    2    1    2    0    0  0.20202071539E+03  0.19942064953E+03  0.89700810701E+03  0.12996297271E+04  0.89656729739E+03 0.  0.
        -24    2    4    4    0    0 -0.24340736624E+03  0.11555460744E+03  0.77249787205E+03  0.82193848389E+03  0.78929688546E+02 0.  0.
         24    2    4    4    0    0  0.44542808163E+03  0.83866042092E+02  0.12451023496E+03  0.47769124326E+03  0.85126002830E+02 0.  0.
         11    1    3    3    0    0 -0.46876900785E+02 -0.37001944241E+02  0.54784468838E+01  0.59971669021E+02  0.00000000000E+00 0. -1.
        -11    1    3    3    0    0 -0.15514381460E+03 -0.16241870529E+03 -0.16151007594E+03  0.27664949606E+03  0.00000000000E+00 0.  1.
          4    1    6    6  502    0  0.19458488947E+03  0.31518166958E+02  0.10997419067E+02  0.19742749881E+03  0.00000000000E+00 0. -1.
          3    1    5    5  503    0 -0.12322626996E+02  0.30955959395E+02  0.12137877486E+03  0.12586868373E+03  0.00000000000E+00 0. -1.
         -4    1    5    5    0  503 -0.23108473925E+03  0.84598648045E+02  0.65111909719E+03  0.69606980016E+03  0.00000000000E+00 0.  1.
         -3    1    6    6    0  502  0.25084319216E+03  0.52347875135E+02  0.11351281589E+03  0.28026374445E+03  0.00000000000E+00 0.  1.
<mgrwt>
<rscale>  0 0.14588594E+04</rscale>
<asrwt>0</asrwt>
<pdfrwt beam="1">  1        2 0.18286364E+00 0.14588594E+04</pdfrwt>
<pdfrwt beam="2">  1       -2 0.68867263E-01 0.14588594E+04</pdfrwt>
<totfact> 0.35923527E+01</totfact>
</mgrwt>
</event>
<event>
12    1  0.1489233E-007  0.1838795E+04  0.7818608E-02  0.8685937E-01
         -2   -1    0    0    0  501 -0.00000000000E+00  0.00000000000E+00  0.23021219053E+03  0.23021219053E+03  0.00000000000E+00 0.  1.
          2   -1    0    0  501    0  0.00000000000E+00 -0.00000000000E+00 -0.36717925044E+04  0.36717925044E+04  0.00000000000E+00 0. -1.
         23    2    1    2    0    0 -0.57365760857E+02  0.68041902439E+03 -0.16417387036E+04  0.17804722275E+04  0.92274063235E+02 0.  0.
        254    2    1    2    0    0  0.57365760857E+02 -0.68041902439E+03 -0.17998416103E+04  0.21215324675E+04  0.89174509196E+03 0.  0.
        -24    2    4    4    0    0 -0.39475530471E+03 -0.45841042531E+03 -0.10441264030E+04  0.12092988736E+04  0.78942710088E+02 0.  0.
         24    2    4    4    0    0  0.45212106557E+03 -0.22200859908E+03 -0.75571520730E+03  0.91223359391E+03  0.85810135317E+02 0.  0.
         11    1    3    3    0    0 -0.38725310807E+02  0.46457548822E+03 -0.12265936544E+04  0.13121974040E+04  0.00000000000E+00 0. -1.
        -11    1    3    3    0    0 -0.18640450050E+02  0.21584353617E+03 -0.41514504911E+03  0.46827482346E+03  0.00000000000E+00 0.  1.
          2    1    6    6  502    0  0.41906536453E+03 -0.18797761937E+03 -0.71449858466E+03  0.84938777517E+03  0.00000000000E+00 0. -1.
          1    1    5    5  503    0 -0.29296921978E+03 -0.37554934326E+03 -0.86146820041E+03  0.98437580897E+03  0.00000000000E+00 0. -1.
         -2    1    5    5    0  503 -0.10178608494E+03 -0.82861082048E+02 -0.18265820260E+03  0.22492306459E+03  0.00000000000E+00 0.  1.
         -1    1    6    6    0  502  0.33055701042E+02 -0.34030979712E+02 -0.41216622641E+02  0.62845818743E+02  0.00000000000E+00 0.  1.
<mgrwt>
<rscale>  0 0.18387946E+04</rscale>
<asrwt>0</asrwt>
<pdfrwt beam="1">  1        2 0.56489112E+00 0.18387946E+04</pdfrwt>
<pdfrwt beam="2">  1       -2 0.35417262E-01 0.18387946E+04</pdfrwt>
<totfact> 0.43565786E+00</totfact>
</mgrwt>
</event>
<event>
12    1  0.1489233E-007  0.2777837E+04  0.7818608E-02  0.8310182E-01
          1   -1    0    0  501    0  0.00000000000E+00  0.00000000000E+00  0.21122152229E+04  0.21122152229E+04  0.00000000000E+00 0. -1.
         -1   -1    0    0    0  501 -0.00000000000E+00 -0.00000000000E+00 -0.91330426753E+03  0.91330426753E+03  0.00000000000E+00 0.  1.
         23    2    1    2    0    0  0.34721746767E+03  0.10640226149E+04 -0.48994697409E+02  0.11241250750E+04  0.92480316456E+02 0.  0.
        254    2    1    2    0    0 -0.34721746767E+03 -0.10640226149E+04  0.12479056528E+04  0.19013944154E+04  0.89740075208E+03 0.  0.
        -24    2    4    4    0    0  0.25772387059E+03 -0.88436514484E+02  0.26112175618E+03  0.38567024731E+03  0.79462931867E+02 0.  0.
         24    2    4    4    0    0 -0.60494133826E+03 -0.97558610046E+03  0.98678389662E+03  0.15157241681E+04  0.77168860948E+02 0.  0.
         11    1    3    3    0    0  0.11985093161E+03  0.47582513774E+03  0.97377114101E+01  0.49078369017E+03  0.00000000000E+00 0. -1.
        -11    1    3    3    0    0  0.22736653606E+03  0.58819747720E+03 -0.58732408819E+02  0.63334138484E+03  0.00000000000E+00 0.  1.
          4    1    6    6  502    0 -0.13695546337E+03 -0.25737494054E+03  0.28744427163E+03  0.40941771854E+03  0.00000000000E+00 0. -1.
          3    1    5    5  503    0  0.65454785617E+02  0.66219439355E+01  0.88922603499E+02  0.11061378085E+03  0.00000000000E+00 0. -1.
         -4    1    5    5    0  503  0.19226908498E+03 -0.95058458420E+02  0.17219915268E+03  0.27505646646E+03  0.00000000000E+00 0.  1.
         -3    1    6    6    0  502 -0.46798587490E+03 -0.71821115991E+03  0.69933962499E+03  0.11063064496E+04  0.00000000000E+00 0.  1.
<mgrwt>
<rscale>  0 0.27778374E+04</rscale>
<asrwt>0</asrwt>
<pdfrwt beam="1">  1        1 0.32495619E+00 0.27778374E+04</pdfrwt>
<pdfrwt beam="2">  1       -1 0.14050835E+00 0.27778374E+04</pdfrwt>
<totfact> 0.90021919E-01</totfact>
</mgrwt>
</event>
<event>
12    1  0.1489233E-007  0.1865906E+04  0.7818608E-02  0.8672016E-01
          2   -1    0    0  501    0  0.00000000000E+00  0.00000000000E+00  0.10245310473E+04  0.10245310473E+04  0.00000000000E+00 0. -1.
         -2   -1    0    0    0  501 -0.00000000000E+00 -0.00000000000E+00 -0.84956024266E+03  0.84956024266E+03  0.00000000000E+00 0.  1.
         23    2    1    2    0    0  0.23752273753E+03  0.63007079836E+03 -0.16905867321E+03  0.70039926998E+03  0.92585315283E+02 0.  0.
        254    2    1    2    0    0 -0.23752273753E+03 -0.63007079836E+03  0.34402947781E+03  0.11736920199E+04  0.89765829483E+03 0.  0.
        -24    2    4    4    0    0  0.19705095112E+03 -0.11320765663E+03 -0.19063039091E+03  0.30896009534E+03  0.86436934899E+02 0.  0.
         24    2    4    4    0    0 -0.43457368866E+03 -0.51686314173E+03  0.53465986872E+03  0.86473192460E+03  0.76800573217E+02 0.  0.
         13    1    3    3    0    0  0.24394700217E+03  0.58821003111E+03 -0.16522200956E+03  0.65787498281E+03  0.00000000000E+00 0.  1.
        -13    1    3    3    0    0 -0.64242646385E+01  0.41860767254E+02 -0.38366636487E+01  0.42524287169E+02  0.00000000000E+00 0. -1.
          4    1    6    6  502    0 -0.20095366368E+03 -0.27820951779E+03  0.30777410885E+03  0.46098569697E+03  0.00000000000E+00 0. -1.
          3    1    5    5  503    0  0.34359563029E+01  0.16155402890E+01 -0.35213304054E+02  0.35417404599E+02  0.00000000000E+00 0. -1.
         -4    1    5    5    0  503  0.19361499482E+03 -0.11482319692E+03 -0.15541708686E+03  0.27354269074E+03  0.00000000000E+00 0.  1.
         -3    1    6    6    0  502 -0.23362002497E+03 -0.23865362394E+03  0.22688575987E+03  0.40374622763E+03  0.00000000000E+00 0.  1.
<mgrwt>
<rscale>  0 0.18659055E+04</rscale>
<asrwt>0</asrwt>
<pdfrwt beam="1">  1        2 0.15762016E+00 0.18659055E+04</pdfrwt>
<pdfrwt beam="2">  1       -2 0.13070158E+00 0.18659055E+04</pdfrwt>
<totfact> 0.97744503E+00</totfact>
</mgrwt>
</event>
<event>
12    1  0.1489233E-007  0.2328716E+04  0.7818608E-02  0.8466684E-01
         -2   -1    0    0    0  501 -0.00000000000E+00  0.00000000000E+00  0.51347326356E+03  0.51347326356E+03  0.00000000000E+00 0.  1.
          2   -1    0    0  501    0  0.00000000000E+00 -0.00000000000E+00 -0.26403123667E+04  0.26403123667E+04  0.00000000000E+00 0. -1.
         23    2    1    2    0    0 -0.41291412690E+03  0.83707414751E+03 -0.13467877081E+04  0.16410948770E+04  0.90355188463E+02 0.  0.
        254    2    1    2    0    0  0.41291412690E+03 -0.83707414751E+03 -0.78005139505E+03  0.15126907532E+04  0.89920071807E+03 0.  0.
        -24    2    4    4    0    0  0.65109273367E+03 -0.80949125592E+03 -0.60003904277E+03  0.12023138568E+04  0.79460154015E+02 0.  0.
         24    2    4    4    0    0 -0.23817860678E+03 -0.27582891587E+02 -0.18001235229E+03  0.31037689647E+03  0.80246534206E+02 0.  0.
         13    1    3    3    0    0 -0.38325803354E+03  0.72335720979E+03 -0.12078410868E+04  0.14591135885E+04  0.00000000000E+00 0.  1.
        -13    1    3    3    0    0 -0.29656093361E+02  0.11371693772E+03 -0.13894662134E+03  0.18198128854E+03  0.00000000000E+00 0. -1.
          4    1    6    6  502    0 -0.23745276704E+03 -0.30592994471E+02 -0.18630525220E+03  0.30336346992E+03  0.00000000000E+00 0. -1.
          3    1    5    5  503    0  0.42359035816E+03 -0.57721612578E+03 -0.43409011433E+03  0.83728219541E+03  0.00000000000E+00 0. -1.
         -4    1    5    5    0  503  0.22750237551E+03 -0.23227513014E+03 -0.16594892843E+03  0.36503166136E+03  0.00000000000E+00 0.  1.
         -3    1    6    6    0  502 -0.72583973921E+00  0.30101028842E+01  0.62928999111E+01  0.70134265514E+01  0.00000000000E+00 0.  1.
<mgrwt>
<rscale>  0 0.23287162E+04</rscale>
<asrwt>0</asrwt>
<pdfrwt beam="1">  1        2 0.40620190E+00 0.23287162E+04</pdfrwt>
<pdfrwt beam="2">  1       -2 0.78995886E-01 0.23287162E+04</pdfrwt>
<totfact> 0.37063493E+00</totfact>
</mgrwt>
</event>
<event>
12    1  0.1489233E-007  0.1248502E+04  0.7818608E-02  0.9071431E-01
          1   -1    0    0  501    0  0.00000000000E+00  0.00000000000E+00  0.15436831153E+04  0.15436831153E+04  0.00000000000E+00 0. -1.
         -1   -1    0    0    0  501 -0.00000000000E+00 -0.00000000000E+00 -0.25244129772E+03  0.25244129772E+03  0.00000000000E+00 0.  1.
         23    2    1    2    0    0 -0.11086605178E+02  0.28439547197E+03  0.32589541408E+03  0.44309330266E+03  0.95499511282E+02 0.  0.
        254    2    1    2    0    0  0.11086605178E+02 -0.28439547197E+03  0.96534640355E+03  0.13530311104E+04  0.90432063427E+03 0.  0.
        -24    2    4    4    0    0  0.43688858975E+03 -0.24746864539E+03  0.59026309300E+03  0.77884525048E+03  0.77955339301E+02 0.  0.
         24    2    4    4    0    0 -0.42580198457E+03 -0.36926826583E+02  0.37508331055E+03  0.57418585992E+03  0.79567526653E+02 0.  0.
         11    1    3    3    0    0  0.21030617421E+02  0.25722414918E+03  0.27723168448E+03  0.37876636159E+03  0.00000000000E+00 0.  1.
        -11    1    3    3    0    0 -0.32117222599E+02  0.27171322791E+02  0.48663729596E+02  0.64326941073E+02  0.00000000000E+00 0. -1.
          4    1    6    6  502    0 -0.41548203879E+02 -0.28361366336E+02  0.47187327619E+02  0.68972923918E+02  0.00000000000E+00 0. -1.
          1    1    5    5  503    0  0.32103698707E+02 -0.34545289055E+02  0.85840801884E+02  0.97942165254E+02  0.00000000000E+00 0. -1.
         -2    1    5    5    0  503  0.40478489104E+03 -0.21292335634E+03  0.50442229112E+03  0.68090308522E+03  0.00000000000E+00 0.  1.
         -3    1    6    6    0  502 -0.38425378069E+03 -0.85654602468E+01  0.32789598293E+03  0.50521293600E+03  0.00000000000E+00 0.  1.
<mgrwt>
<rscale>  0 0.12485021E+04</rscale>
<asrwt>0</asrwt>
<pdfrwt beam="1">  1        1 0.23748970E+00 0.12485021E+04</pdfrwt>
<pdfrwt beam="2">  1       -1 0.38837124E-01 0.12485021E+04</pdfrwt>
<totfact> 0.38680890E+01</totfact>
</mgrwt>
</event>
<event>
12    1  0.1489233E-007  0.1858350E+04  0.7818608E-02  0.8675871E-01
          1   -1    0    0  501    0  0.00000000000E+00  0.00000000000E+00  0.18805374249E+04  0.18805374249E+04  0.00000000000E+00 0. -1.
         -1   -1    0    0    0  501 -0.00000000000E+00 -0.00000000000E+00 -0.45910595381E+03  0.45910595381E+03  0.00000000000E+00 0.  1.
         23    2    1    2    0    0 -0.79890182291E+02 -0.26548961654E+03  0.13249854674E+04  0.13568459301E+04  0.92613236126E+02 0.  0.
        254    2    1    2    0    0  0.79890182291E+02  0.26548961654E+03  0.96446003692E+02  0.98279744861E+03  0.93793486749E+03 0.  0.
        -24    2    4    4    0    0 -0.18581866678E+03  0.35097831857E+03 -0.29099026427E+03  0.49880864596E+03  0.80127238500E+02 0.  0.
         24    2    4    4    0    0  0.26570884907E+03 -0.85488702034E+02  0.38743626796E+03  0.48398880266E+03  0.78922675561E+02 0.  0.
         11    1    3    3    0    0 -0.86465039345E+01 -0.58247064724E+02  0.14186487521E+03  0.15360053840E+03  0.00000000000E+00 0.  1.
        -11    1    3    3    0    0 -0.71243678356E+02 -0.20724255182E+03  0.11831205922E+04  0.12032453917E+04  0.00000000000E+00 0. -1.
          4    1    6    6  502    0  0.16385288766E+03 -0.72024586522E+02  0.18758611449E+03  0.25927564523E+03  0.00000000000E+00 0. -1.
          3    1    5    5  503    0 -0.75272913665E+02  0.12118417373E+03 -0.60076271520E+02  0.15479268037E+03  0.00000000000E+00 0. -1.
         -4    1    5    5    0  503 -0.11054575312E+03  0.22979414484E+03 -0.23091399275E+03  0.34401596559E+03  0.00000000000E+00 0.  1.
         -3    1    6    6    0  502  0.10185596141E+03 -0.13464115512E+02  0.19985015347E+03  0.22471315743E+03  0.00000000000E+00 0.  1.
<mgrwt>
<rscale>  0 0.18583497E+04</rscale>
<asrwt>0</asrwt>
<pdfrwt beam="1">  1        1 0.28931345E+00 0.18583497E+04</pdfrwt>
<pdfrwt beam="2">  1       -1 0.70631686E-01 0.18583497E+04</pdfrwt>
<totfact> 0.68301643E+00</totfact>
</mgrwt>
</event>
<event>
12    1  0.1489233E-007  0.1754063E+04  0.7818608E-02  0.8731117E-01
          1   -1    0    0  501    0  0.00000000000E+00  0.00000000000E+00  0.20739776579E+04  0.20739776579E+04  0.00000000000E+00 0. -1.
         -1   -1    0    0    0  501 -0.00000000000E+00 -0.00000000000E+00 -0.37087407966E+03  0.37087407966E+03  0.00000000000E+00 0.  1.
         23    2    1    2    0    0  0.56696312708E+03 -0.10973827676E+03  0.25849504605E+03  0.63897267259E+03  0.89312432660E+02 0.  0.
        254    2    1    2    0    0 -0.56696312708E+03  0.10973827676E+03  0.14446085322E+04  0.18058790649E+04  0.91696003681E+03 0.  0.
        -24    2    4    4    0    0  0.13299849077E+03  0.13105869106E+03  0.87868193344E+03  0.90198291981E+03  0.81401894526E+02 0.  0.
         24    2    4    4    0    0 -0.69996161785E+03 -0.21320414306E+02  0.56592659872E+03  0.90389614512E+03  0.79715114599E+02 0.  0.
         11    1    3    3    0    0  0.15933756016E+03 -0.64063157943E+02  0.50097647711E+02  0.17889192433E+03  0.00000000000E+00 0.  1.
        -11    1    3    3    0    0  0.40762556692E+03 -0.45675118813E+02  0.20839739833E+03  0.46008074826E+03  0.00000000000E+00 0. -1.
          2    1    6    6  502    0 -0.44732934260E+03  0.81828318217E+01  0.31970523529E+03  0.54989265949E+03  0.00000000000E+00 0. -1.
          3    1    5    5  503    0  0.58188992218E+02  0.12703844431E+02  0.35221612505E+03  0.35721638431E+03  0.00000000000E+00 0. -1.
         -4    1    5    5    0  503  0.74809498548E+02  0.11835484663E+03  0.52646580839E+03  0.54476653550E+03  0.00000000000E+00 0.  1.
         -1    1    6    6    0  502 -0.25263227525E+03 -0.29503246128E+02  0.24622136343E+03  0.35400348563E+03  0.00000000000E+00 0.  1.
<mgrwt>
<rscale>  0 0.17540633E+04</rscale>
<asrwt>0</asrwt>
<pdfrwt beam="1">  1        1 0.31907348E+00 0.17540633E+04</pdfrwt>
<pdfrwt beam="2">  1       -1 0.57057552E-01 0.17540633E+04</pdfrwt>
<totfact> 0.78224588E+00</totfact>
</mgrwt>
</event>
<event>
12    1  0.1489233E-007  0.2386246E+04  0.7818608E-02  0.8444671E-01
          1   -1    0    0  501    0  0.00000000000E+00  0.00000000000E+00  0.14558629322E+04  0.14558629322E+04  0.00000000000E+00 0. -1.
         -1   -1    0    0    0  501 -0.00000000000E+00 -0.00000000000E+00 -0.97779941785E+03  0.97779941785E+03  0.00000000000E+00 0.  1.
         23    2    1    2    0    0  0.86522990694E+03  0.57169035132E+03  0.16943249567E+03  0.10554229500E+04  0.98780479281E+02 0.  0.
        254    2    1    2    0    0 -0.86522990694E+03 -0.57169035132E+03  0.30863101868E+03  0.13782394001E+04  0.85372014652E+03 0.  0.
        -24    2    4    4    0    0 -0.83294032176E+03 -0.74277425865E+03  0.14838139492E+03  0.11286993343E+04  0.80261884170E+02 0.  0.
         24    2    4    4    0    0 -0.32289585180E+02  0.17108390733E+03  0.16024962376E+03  0.24954006574E+03  0.79233716529E+02 0.  0.
         11    1    3    3    0    0  0.68312309457E+03  0.41709421292E+03  0.16083466514E+03  0.81638994010E+03  0.00000000000E+00 0. -1.
        -11    1    3    3    0    0  0.18210681237E+03  0.15459613839E+03  0.85978305290E+01  0.23903300987E+03  0.00000000000E+00 0.  1.
          2    1    6    6  502    0 -0.47603225644E+01  0.16232111387E+03  0.13541292248E+03  0.21144139673E+03  0.00000000000E+00 0. -1.
          3    1    5    5  503    0 -0.46938572842E+03 -0.39245036432E+03  0.46098208540E+02  0.61356767787E+03  0.00000000000E+00 0. -1.
         -4    1    5    5    0  503 -0.36355459333E+03 -0.35032389432E+03  0.10228318638E+03  0.51513165646E+03  0.00000000000E+00 0.  1.
         -1    1    6    6    0  502 -0.27529262616E+02  0.87627934623E+01  0.24836701282E+02  0.38098669006E+02  0.00000000000E+00 0.  1.
<mgrwt>
<rscale>  0 0.23862455E+04</rscale>
<asrwt>0</asrwt>
<pdfrwt beam="1">  1        1 0.22397891E+00 0.23862455E+04</pdfrwt>
<pdfrwt beam="2">  1       -1 0.15043068E+00 0.23862455E+04</pdfrwt>
<totfact> 0.21809168E+00</totfact>
</mgrwt>
</event>
<event>
12    1  0.1489233E-007  0.1457913E+04  0.7818608E-02  0.8912933E-01
          3   -1    0    0  501    0  0.00000000000E+00  0.00000000000E+00  0.44268213908E+03  0.44268213908E+03  0.00000000000E+00 0.  1.
         -3   -1    0    0    0  501 -0.00000000000E+00 -0.00000000000E+00 -0.12003592352E+04  0.12003592352E+04  0.00000000000E+00 0. -1.
         23    2    1    2    0    0  0.13020448801E+03  0.21531824534E+03 -0.65731507806E+03  0.70988166972E+03  0.92486310842E+02 0.  0.
        254    2    1    2    0    0 -0.13020448801E+03 -0.21531824534E+03 -0.10036201803E+03  0.93315970451E+03  0.89297219665E+03 0.  0.
        -24    2    4    4    0    0 -0.28281261910E+03  0.27382362510E+03 -0.10378289694E+03  0.41460501143E+03  0.78511595488E+02 0.  0.
         24    2    4    4    0    0  0.15260813109E+03 -0.48914187044E+03  0.34208789087E+01  0.51855469308E+03  0.79613166054E+02 0.  0.
         13    1    3    3    0    0  0.57524151931E+01  0.74077052238E+01 -0.12105268637E+03  0.12141547370E+03  0.00000000000E+00 0.  1.
        -13    1    3    3    0    0  0.12445207282E+03  0.20791054012E+03 -0.53626239169E+03  0.58846619603E+03  0.00000000000E+00 0. -1.
          4    1    6    6  502    0  0.19256643904E+02 -0.27335563807E+02 -0.16870947639E+02  0.37452373187E+02  0.00000000000E+00 0. -1.
          1    1    5    5  503    0 -0.13190206894E+03  0.88003479317E+02 -0.14929770463E+02  0.15926602340E+03  0.00000000000E+00 0. -1.
         -2    1    5    5    0  503 -0.15091055016E+03  0.18582014578E+03 -0.88853126473E+02  0.25533898803E+03  0.00000000000E+00 0.  1.
         -1    1    6    6    0  502  0.13335148719E+03 -0.46180630663E+03  0.20291826548E+02  0.48110231989E+03  0.00000000000E+00 0.  1.
<mgrwt>
<rscale>  0 0.14579130E+04</rscale>
<asrwt>0</asrwt>
<pdfrwt beam="1">  1        3 0.68104945E-01 0.14579130E+04</pdfrwt>
<pdfrwt beam="2">  1       -3 0.18467065E+00 0.14579130E+04</pdfrwt>
<totfact> 0.96777834E-01</totfact>
</mgrwt>
</event>
<event>
12    1  0.1489233E-007  0.1841750E+04  0.7818608E-02  0.8684407E-01
         -2   -1    0    0    0  501 -0.00000000000E+00  0.00000000000E+00  0.11634033313E+04  0.11634033313E+04  0.00000000000E+00 0.  1.
          2   -1    0    0  501    0  0.00000000000E+00 -0.00000000000E+00 -0.72890485646E+03  0.72890485646E+03  0.00000000000E+00 0. -1.
         23    2    1    2    0    0 -0.34365688418E+03  0.10113521905E+03  0.73717731036E+03  0.82460308528E+03  0.90617187976E+02 0.  0.
        254    2    1    2    0    0  0.34365688418E+03 -0.10113521905E+03 -0.30267883549E+03  0.10677051025E+04  0.95919305767E+03 0.  0.
        -24    2    4    4    0    0  0.20494837767E+03  0.41979640512E+03 -0.80337391403E+02  0.47950400724E+03  0.72368067785E+02 0.  0.
         24    2    4    4    0    0  0.13870850650E+03 -0.52093162418E+03 -0.22234144409E+03  0.58820109527E+03  0.77038976306E+02 0.  0.
         13    1    3    3    0    0 -0.24642820189E+02  0.11890068090E+02  0.17862013586E+02  0.32675584698E+02  0.00000000000E+00 0. -1.
        -13    1    3    3    0    0 -0.31901406399E+03  0.89245150963E+02  0.71931529678E+03  0.79192750058E+03  0.00000000000E+00 0.  1.
          4    1    6    6  502    0  0.22148835665E+02 -0.30841713637E+02 -0.10664692560E+01  0.37985781261E+02  0.00000000000E+00 0. -1.
          1    1    5    5  503    0  0.65839451721E+02  0.21640273081E+03 -0.43723225125E+02  0.23038380091E+03  0.00000000000E+00 0. -1.
         -2    1    5    5    0  503  0.13910892595E+03  0.20339367431E+03 -0.36614166278E+02  0.24912020633E+03  0.00000000000E+00 0.  1.
         -3    1    6    6    0  502  0.11655967084E+03 -0.49008991054E+03 -0.22127497484E+03  0.55021531401E+03  0.00000000000E+00 0.  1.
<mgrwt>
<rscale>  0 0.18417495E+04</rscale>
<asrwt>0</asrwt>
<pdfrwt beam="1">  1        2 0.11213921E+00 0.18417495E+04</pdfrwt>
<pdfrwt beam="2">  1       -2 0.17898513E+00 0.18417495E+04</pdfrwt>
<totfact> 0.67423797E+00</totfact>
</mgrwt>
</event>
<event>
12    1  0.1489233E-007  0.1671116E+04  0.7818608E-02  0.8778012E-01
         -2   -1    0    0    0  501 -0.00000000000E+00  0.00000000000E+00  0.31869499710E+03  0.31869499710E+03  0.00000000000E+00 0.  1.
          2   -1    0    0  501    0  0.00000000000E+00 -0.00000000000E+00 -0.21906743128E+04  0.21906743128E+04  0.00000000000E+00 0. -1.
         23    2    1    2    0    0  0.27754124480E+03 -0.39573588741E+03 -0.16724399029E+03  0.51911065571E+03  0.88708993001E+02 0.  0.
        254    2    1    2    0    0 -0.27754124480E+03  0.39573588741E+03 -0.17047353254E+04  0.19902586542E+04  0.90629517585E+03 0.  0.
        -24    2    4    4    0    0 -0.74142355274E+02 -0.99355970638E+02 -0.13151845923E+04  0.13235959907E+04  0.82626491931E+02 0.  0.
         24    2    4    4    0    0 -0.20339888952E+03  0.49509185805E+03 -0.38955073317E+03  0.66666266351E+03  0.78754536609E+02 0.  0.
         13    1    3    3    0    0  0.19472885117E+03 -0.25744894337E+03 -0.68197344003E+02  0.32992447870E+03  0.00000000000E+00 0. -1.
        -13    1    3    3    0    0  0.82812393628E+02 -0.13828694404E+03 -0.99046646286E+02  0.18918617701E+03  0.00000000000E+00 0.  1.
          4    1    6    6  502    0 -0.10267338972E+02  0.93607056702E+00 -0.96168816375E+01  0.14098896769E+02  0.00000000000E+00 0. -1.
          1    1    5    5  503    0  0.58398736466E+01  0.10281710335E+02 -0.64974710666E+02  0.66041886086E+02  0.00000000000E+00 0. -1.
         -2    1    5    5    0  503 -0.79982228921E+02 -0.10963768097E+03 -0.12502098816E+04  0.12575541046E+04  0.00000000000E+00 0.  1.
         -3    1    6    6    0  502 -0.19313155055E+03  0.49415578748E+03 -0.37993385153E+03  0.65256376674E+03  0.00000000000E+00 0.  1.
<mgrwt>
<rscale>  0 0.16711157E+04</rscale>
<asrwt>0</asrwt>
<pdfrwt beam="1">  1        2 0.33702681E+00 0.16711157E+04</pdfrwt>
<pdfrwt beam="2">  1       -2 0.49030001E-01 0.16711157E+04</pdfrwt>
<totfact> 0.19642747E+01</totfact>
</mgrwt>
</event>
<event>
12    1  0.1489233E-007  0.2474720E+04  0.7818608E-02  0.8412047E-01
         -2   -1    0    0    0  501 -0.00000000000E+00  0.00000000000E+00  0.90943436158E+03  0.90943436158E+03  0.00000000000E+00 0.  1.
          2   -1    0    0  501    0  0.00000000000E+00 -0.00000000000E+00 -0.16835297806E+04  0.16835297806E+04  0.00000000000E+00 0. -1.
         23    2    1    2    0    0  0.10418356136E+04 -0.22791403074E+03 -0.44420262967E+03  0.11589409526E+04  0.91988608975E+02 0.  0.
        254    2    1    2    0    0 -0.10418356136E+04  0.22791403074E+03 -0.32989278932E+03  0.14340231896E+04  0.90012610482E+03 0.  0.
        -24    2    4    4    0    0 -0.11165442683E+04  0.20636386186E+03 -0.57828824835E+02  0.11398266848E+04  0.81262241398E+02 0.  0.
         24    2    4    4    0    0  0.74708654672E+02  0.21550168874E+02 -0.27206396448E+03  0.29419650477E+03  0.80541851169E+02 0.  0.
         13    1    3    3    0    0  0.64636197590E+03 -0.11464129050E+03 -0.31217804224E+03  0.72689858951E+03  0.00000000000E+00 0. -1.
        -13    1    3    3    0    0  0.39547363771E+03 -0.11327274024E+03 -0.13202458743E+03  0.43204236308E+03  0.00000000000E+00 0.  1.
          2    1    6    6  502    0  0.87241488967E+02  0.33166484252E+02 -0.24515046530E+03  0.26231630470E+03  0.00000000000E+00 0. -1.
          3    1    5    5  503    0 -0.10374554411E+04  0.20772070126E+03 -0.67172255173E+02  0.10601763032E+04  0.00000000000E+00 0. -1.
         -4    1    5    5    0  503 -0.79088827177E+02 -0.13568393980E+01  0.93434303381E+01  0.79650381593E+02  0.00000000000E+00 0.  1.
         -1    1    6    6    0  502 -0.12532834296E+02 -0.11616315379E+02 -0.26913499184E+02  0.31880200074E+02  0.00000000000E+00 0.  1.
<mgrwt>
<rscale>  0 0.24747200E+04</rscale>
<asrwt>0</asrwt>
<pdfrwt beam="1">  1        2 0.25900458E+00 0.24747200E+04</pdfrwt>
<pdfrwt beam="2">  1       -2 0.13991298E+00 0.24747200E+04</pdfrwt>
<totfact> 0.32208561E+00</totfact>
</mgrwt>
</event>
<event>
12    1  0.1489233E-007  0.2186178E+04  0.7818608E-02  0.8524203E-01
          1   -1    0    0  501    0  0.00000000000E+00  0.00000000000E+00  0.26272101948E+04  0.26272101948E+04  0.00000000000E+00 0. -1.
         -1   -1    0    0    0  501 -0.00000000000E+00 -0.00000000000E+00 -0.45479547271E+03  0.45479547271E+03  0.00000000000E+00 0.  1.
         23    2    1    2    0    0  0.16123158017E+03  0.79756293430E+03  0.14596361887E+04  0.16736313136E+04  0.91660862838E+02 0.  0.
        254    2    1    2    0    0 -0.16123158017E+03 -0.79756293430E+03  0.71277853338E+03  0.14083743539E+04  0.90186630192E+03 0.  0.
        -24    2    4    4    0    0  0.15885262537E+03 -0.84394548439E+03  0.39702254392E+03  0.94946875170E+03  0.79911656744E+02 0.  0.
         24    2    4    4    0    0 -0.32008420554E+03  0.46382550085E+02  0.31575598947E+03  0.45890560223E+03  0.79292290199E+02 0.  0.
         11    1    3    3    0    0  0.19010534417E+02  0.17269906290E+02  0.47330295835E+02  0.53849855951E+02  0.00000000000E+00 0.  1.
        -11    1    3    3    0    0  0.14222104575E+03  0.78029302801E+03  0.14123058929E+04  0.16197814577E+04  0.00000000000E+00 0. -1.
          2    1    6    6  502    0 -0.16292377025E+03 -0.36986253883E+01  0.11697945899E+03  0.20060415890E+03  0.00000000000E+00 0. -1.
          3    1    5    5  503    0  0.15330239993E+03 -0.82986372778E+03  0.40022165518E+03  0.93399829003E+03  0.00000000000E+00 0. -1.
         -4    1    5    5    0  503  0.55502254401E+01 -0.14081756608E+02 -0.31991112595E+01  0.15470461675E+02  0.00000000000E+00 0.  1.
         -1    1    6    6    0  502 -0.15716043529E+03  0.50081175473E+02  0.19877653048E+03  0.25830144333E+03  0.00000000000E+00 0.  1.
<mgrwt>
<rscale>  0 0.21861778E+04</rscale>
<asrwt>0</asrwt>
<pdfrwt beam="1">  1        1 0.40418617E+00 0.21861778E+04</pdfrwt>
<pdfrwt beam="2">  1       -1 0.69968536E-01 0.21861778E+04</pdfrwt>
<totfact> 0.20821344E+00</totfact>
</mgrwt>
</event>
<event>
12    1  0.1489233E-007  0.1582164E+04  0.7818608E-02  0.8831581E-01
          1   -1    0    0  501    0  0.00000000000E+00  0.00000000000E+00  0.21132483580E+04  0.21132483580E+04  0.00000000000E+00 0. -1.
         -1   -1    0    0    0  501 -0.00000000000E+00 -0.00000000000E+00 -0.29613668498E+03  0.29613668498E+03  0.00000000000E+00 0.  1.
         23    2    1    2    0    0  0.25105998429E+03 -0.44493941881E+03  0.48056299471E+03  0.70937401507E+03  0.10615318766E+03 0.  0.
        254    2    1    2    0    0 -0.25105998429E+03  0.44493941881E+03  0.13365486783E+04  0.17000110279E+04  0.91797218009E+03 0.  0.
        -24    2    4    4    0    0 -0.15743076292E+03 -0.13137096755E+03  0.99455840948E+03  0.10186545182E+04  0.80422766676E+02 0.  0.
         24    2    4    4    0    0 -0.93629221372E+02  0.57631038636E+03  0.34199026882E+03  0.68135650969E+03  0.79932826827E+02 0.  0.
         11    1    3    3    0    0  0.15856581378E+03 -0.30663504673E+03  0.25543966788E+03  0.42943869540E+03  0.00000000000E+00 0.  1.
        -11    1    3    3    0    0  0.92494170511E+02 -0.13830437208E+03  0.22512332683E+03  0.27993531967E+03  0.00000000000E+00 0. -1.
          2    1    6    6  502    0 -0.12543054602E+02  0.32314921115E+03  0.18176517649E+03  0.37097347650E+03  0.00000000000E+00 0. -1.
          1    1    5    5  503    0 -0.13430492870E+03 -0.10390316789E+03  0.63513881963E+03  0.65744581706E+03  0.00000000000E+00 0. -1.
         -2    1    5    5    0  503 -0.23125834217E+02 -0.27467799661E+02  0.35941958985E+03  0.36120870116E+03  0.00000000000E+00 0.  1.
         -1    1    6    6    0  502 -0.81086166771E+02  0.25316117521E+03  0.16022509234E+03  0.31038303318E+03  0.00000000000E+00 0.  1.
<mgrwt>
<rscale>  0 0.15821635E+04</rscale>
<asrwt>0</asrwt>
<pdfrwt beam="1">  1        1 0.32511512E+00 0.15821635E+04</pdfrwt>
<pdfrwt beam="2">  1       -1 0.45559491E-01 0.15821635E+04</pdfrwt>
<totfact> 0.11486685E+01</totfact>
</mgrwt>
</event>
<event>
12    1  0.1489233E-007  0.2797697E+04  0.7818608E-02  0.8303984E-01
         -2   -1    0    0    0  501 -0.00000000000E+00  0.00000000000E+00  0.10387754176E+04  0.10387754176E+04  0.00000000000E+00 0. -1.
          2   -1    0    0  501    0  0.00000000000E+00 -0.00000000000E+00 -0.18837345825E+04  0.18837345825E+04  0.00000000000E+00 0.  1.
         23    2    1    2    0    0 -0.14742544338E+03  0.11947931028E+04 -0.22360796576E+02  0.12081561096E+04  0.99379877891E+02 0.  0.
        254    2    1    2    0    0  0.14742544338E+03 -0.11947931028E+04 -0.82259836834E+03  0.17143538905E+04  0.90170747279E+03 0.  0.
        -24    2    4    4    0    0 -0.49419379765E+02 -0.84219574783E+03 -0.62274766051E+02  0.84967840006E+03  0.79619622514E+02 0.  0.
         24    2    4    4    0    0  0.19684482314E+03 -0.35259735498E+03 -0.76032360229E+03  0.86467549046E+03  0.80616031129E+02 0.  0.
         13    1    3    3    0    0 -0.12451491500E+01  0.69212800117E+02  0.20865831208E+02  0.72300380417E+02  0.00000000000E+00 0.  1.
        -13    1    3    3    0    0 -0.14618029423E+03  0.11255803027E+04 -0.43226627785E+02  0.11358557292E+04  0.00000000000E+00 0. -1.
          2    1    6    6  502    0  0.42771219492E+02 -0.59000071058E+02 -0.20886481203E+03  0.22121233082E+03  0.00000000000E+00 0. -1.
          3    1    5    5  503    0  0.80153715287E+01 -0.38146563693E+02  0.10307542659E+02  0.40319374226E+02  0.00000000000E+00 0. -1.
         -4    1    5    5    0  503 -0.57434751294E+02 -0.80404918413E+03 -0.72582308710E+02  0.80935902583E+03  0.00000000000E+00 0.  1.
         -3    1    6    6    0  502  0.15407360365E+03 -0.29359728392E+03 -0.55145879026E+03  0.64346315965E+03  0.00000000000E+00 0.  1.
<mgrwt>
<rscale>  0 0.27976970E+04</rscale>
<asrwt>0</asrwt>
<pdfrwt beam="1">  1        2 0.28980532E+00 0.27976970E+04</pdfrwt>
<pdfrwt beam="2">  1       -2 0.15981161E+00 0.27976970E+04</pdfrwt>
<totfact> 0.17053357E+00</totfact>
</mgrwt>
</event>
<event>
12    1  0.1489233E-007  0.1506506E+04  0.7818608E-02  0.8880138E-01
         -1   -1    0    0    0  501 -0.00000000000E+00  0.00000000000E+00  0.10557944584E+04  0.10557944584E+04  0.00000000000E+00 0.  1.
          1   -1    0    0  501    0  0.00000000000E+00 -0.00000000000E+00 -0.53740572156E+03  0.53740572156E+03  0.00000000000E+00 0. -1.
         23    2    1    2    0    0  0.51296900717E+02 -0.30935330019E+03 -0.21315730949E+03  0.38924770985E+03  0.88016502252E+02 0.  0.
        254    2    1    2    0    0 -0.51296900717E+02  0.30935330019E+03  0.73154604634E+03  0.12039524701E+04  0.90333332498E+03 0.  0.
        -24    2    4    4    0    0  0.79490121056E+02 -0.30176000823E+03  0.19598567281E+03  0.37706436362E+03  0.79933525221E+02 0.  0.
         24    2    4    4    0    0 -0.13078702177E+03  0.61111330842E+03  0.53556037353E+03  0.82688810649E+03  0.79713902002E+02 0.  0.
         11    1    3    3    0    0  0.10846564110E+02 -0.22511764361E+03 -0.18520214559E+03  0.29171122047E+03  0.00000000000E+00 0. -1.
        -11    1    3    3    0    0  0.40450336606E+02 -0.84235656580E+02 -0.27955163906E+02  0.97536489377E+02  0.00000000000E+00 0.  1.
          2    1    6    6  502    0 -0.20571361735E+02  0.22659594781E+03  0.15947139118E+03  0.27784893214E+03  0.00000000000E+00 0. -1.
          3    1    5    5  503    0 -0.10084816378E+02 -0.86366176202E+02  0.71954019283E+02  0.11286363810E+03  0.00000000000E+00 0. -1.
         -4    1    5    5    0  503  0.89574937434E+02 -0.21539383203E+03  0.12403165353E+03  0.26420072553E+03  0.00000000000E+00 0.  1.
         -1    1    6    6    0  502 -0.11021566004E+03  0.38451736061E+03  0.37608898235E+03  0.54903917436E+03  0.00000000000E+00 0.  1.
<mgrwt>
<rscale>  0 0.15065059E+04</rscale>
<asrwt>0</asrwt>
<pdfrwt beam="1">  1        1 0.82677803E-01 0.15065059E+04</pdfrwt>
<pdfrwt beam="2">  1       -1 0.16242992E+00 0.15065059E+04</pdfrwt>
<totfact> 0.10855432E+01</totfact>
</mgrwt>
</event>
<event>
12    1  0.1489233E-007  0.1756616E+04  0.7818608E-02  0.8729717E-01
         -1   -1    0    0    0  501 -0.00000000000E+00  0.00000000000E+00  0.14878957583E+04  0.14878957583E+04  0.00000000000E+00 0.  1.
          1   -1    0    0  501    0  0.00000000000E+00 -0.00000000000E+00 -0.51846720848E+03  0.51846720848E+03  0.00000000000E+00 0. -1.
         23    2    1    2    0    0 -0.64020875954E+03 -0.52678085779E+02  0.34118038705E+03  0.73301158282E+03  0.90882823092E+02 0.  0.
        254    2    1    2    0    0  0.64020875954E+03  0.52678085779E+02  0.62824816277E+03  0.12733513840E+04  0.90226700955E+03 0.  0.
        -24    2    4    4    0    0  0.31569085807E+02 -0.34479058954E+03  0.96119016359E+02  0.36891655764E+03  0.83566760057E+02 0.  0.
         24    2    4    4    0    0  0.60863967373E+03  0.39746867532E+03  0.53212914641E+03  0.90443482633E+03  0.80108216281E+02 0.  0.
         11    1    3    3    0    0 -0.24097047269E+03  0.99279289965E+01  0.16465673362E+03  0.29202255463E+03  0.00000000000E+00 0. -1.
        -11    1    3    3    0    0 -0.39923828684E+03 -0.62606014776E+02  0.17652365343E+03  0.44098902819E+03  0.00000000000E+00 0.  1.
          2    1    6    6  502    0  0.60583504132E+03  0.38682430050E+03  0.51568673269E+03  0.88464792037E+03  0.00000000000E+00 0. -1.
          1    1    5    5  503    0  0.20032739737E+02 -0.34301567364E+03  0.87974334033E+02  0.35468372738E+03  0.00000000000E+00 0. -1.
         -2    1    5    5    0  503  0.11536346070E+02 -0.17749159020E+01  0.81446823263E+01  0.14232830263E+02  0.00000000000E+00 0.  1.
         -1    1    6    6    0  502  0.28046324101E+01  0.10644374816E+02  0.16442413724E+02  0.19786905955E+02  0.00000000000E+00 0.  1.
<mgrwt>
<rscale>  0 0.17566162E+04</rscale>
<asrwt>0</asrwt>
<pdfrwt beam="1">  1        1 0.79764187E-01 0.17566162E+04</pdfrwt>
<pdfrwt beam="2">  1       -1 0.22890704E+00 0.17566162E+04</pdfrwt>
<totfact> 0.38308258E+00</totfact>
</mgrwt>
</event>
<event>
12    1  0.1489233E-007  0.1541724E+04  0.7818608E-02  0.8857172E-01
          2   -1    0    0  501    0  0.00000000000E+00  0.00000000000E+00  0.34672647700E+03  0.34672647700E+03  0.00000000000E+00 0. -1.
         -2   -1    0    0    0  501 -0.00000000000E+00 -0.00000000000E+00 -0.17138234168E+04  0.17138234168E+04  0.00000000000E+00 0.  1.
         23    2    1    2    0    0  0.44749862971E+03 -0.82390673528E+02 -0.72844983620E+03  0.86371884244E+03  0.91256935353E+02 0.  0.
        254    2    1    2    0    0 -0.44749862971E+03  0.82390673528E+02 -0.63864710359E+03  0.11968310514E+04  0.90415219730E+03 0.  0.
        -24    2    4    4    0    0  0.82273415986E+02  0.38162299822E+03 -0.22834582618E+03  0.45871315487E+03  0.76621892226E+02 0.  0.
         24    2    4    4    0    0 -0.52977204569E+03 -0.29923232469E+03 -0.41030127741E+03  0.73811789648E+03  0.79199029822E+02 0.  0.
         11    1    3    3    0    0  0.49565765114E+02 -0.40316023848E+02 -0.10415828221E+03  0.12219285824E+03  0.00000000000E+00 0. -1.
        -11    1    3    3    0    0  0.39793286459E+03 -0.42074649680E+02 -0.62429155399E+03  0.74152598420E+03  0.00000000000E+00 0.  1.
          4    1    6    6  502    0 -0.27279060114E+03 -0.11585813324E+03 -0.17293411098E+03  0.34313849368E+03  0.00000000000E+00 0. -1.
          3    1    5    5  503    0  0.92449246063E+02  0.36403865596E+03 -0.20548682974E+03  0.42813063815E+03  0.00000000000E+00 0. -1.
         -2    1    5    5    0  503 -0.10175830077E+02  0.17584342265E+02 -0.22858996435E+02  0.30582516716E+02  0.00000000000E+00 0.  1.
         -3    1    6    6    0  502 -0.25698144456E+03 -0.18337419145E+03 -0.23736716643E+03  0.39497940280E+03  0.00000000000E+00 0.  1.
<mgrwt>
<rscale>  0 0.15417237E+04</rscale>
<asrwt>0</asrwt>
<pdfrwt beam="1">  1        2 0.53342535E-01 0.15417237E+04</pdfrwt>
<pdfrwt beam="2">  1       -2 0.26366514E+00 0.15417237E+04</pdfrwt>
<totfact> 0.47715008E+00</totfact>
</mgrwt>
</event>
<event>
12    1  0.1489233E-007  0.2036894E+04  0.7818608E-02  0.8589563E-01
         -1   -1    0    0    0  501 -0.00000000000E+00  0.00000000000E+00  0.53984736241E+03  0.53984736241E+03  0.00000000000E+00 0.  1.
          1   -1    0    0  501    0  0.00000000000E+00 -0.00000000000E+00 -0.19213469525E+04  0.19213469525E+04  0.00000000000E+00 0. -1.
         23    2    1    2    0    0 -0.60925617809E+03 -0.53812529966E+03 -0.41914591582E+03  0.91899830899E+03  0.90014801573E+02 0.  0.
        254    2    1    2    0    0  0.60925617809E+03  0.53812529966E+03 -0.96235367430E+03  0.15421960060E+04  0.88964711974E+03 0.  0.
        -24    2    4    4    0    0  0.10233034013E+03 -0.74923278440E+02  0.12329755487E+03  0.19407505448E+03  0.79861402263E+02 0.  0.
         24    2    4    4    0    0  0.50692583796E+03  0.61304857810E+03 -0.10856512292E+04  0.13481209515E+04  0.77389560654E+02 0.  0.
         13    1    3    3    0    0 -0.60095285601E+03 -0.53020894528E+03 -0.42385462900E+03  0.90659726855E+03  0.00000000000E+00 0. -1.
        -13    1    3    3    0    0 -0.83033220794E+01 -0.79163543777E+01  0.47087131878E+01  0.12401040443E+02  0.00000000000E+00 0.  1.
          2    1    6    6  502    0  0.40383426677E+03  0.52481446648E+03 -0.87038586380E+03  0.10936562034E+04  0.00000000000E+00 0. -1.
          1    1    5    5  503    0  0.99529983513E+01 -0.35492104029E+02  0.24586381683E+01  0.36943152630E+02  0.00000000000E+00 0. -1.
         -2    1    5    5    0  503  0.92377341782E+02 -0.39431174411E+02  0.12083891670E+03  0.15713190185E+03  0.00000000000E+00 0.  1.
         -1    1    6    6    0  502  0.10309157119E+03  0.88234111618E+02 -0.21526536537E+03  0.25446474812E+03  0.00000000000E+00 0.  1.
<mgrwt>
<rscale>  0 0.20368938E+04</rscale>
<asrwt>0</asrwt>
<pdfrwt beam="1">  1        1 0.29559184E+00 0.20368938E+04</pdfrwt>
<pdfrwt beam="2">  1       -1 0.83053439E-01 0.20368938E+04</pdfrwt>
<totfact> 0.44850263E+00</totfact>
</mgrwt>
</event>
<event>
12    1  0.1489233E-007  0.2107523E+04  0.7818608E-02  0.8557937E-01
          2   -1    0    0  501    0  0.00000000000E+00  0.00000000000E+00  0.14373584941E+04  0.14373584941E+04  0.00000000000E+00 0. -1.
         -2   -1    0    0    0  501 -0.00000000000E+00 -0.00000000000E+00 -0.77253751354E+03  0.77253751354E+03  0.00000000000E+00 0.  1.
         23    2    1    2    0    0  0.36612937578E+03  0.42996597549E+03  0.94608006181E+03  0.11053042517E+04  0.87798323123E+02 0.  0.
        254    2    1    2    0    0 -0.36612937578E+03 -0.42996597549E+03 -0.28125908125E+03  0.11045917560E+04  0.90669444503E+03 0.  0.
        -24    2    4    4    0    0  0.15187900376E+03  0.12595145057E+03 -0.26834865993E+03  0.34058480759E+03  0.71105612913E+02 0.  0.
         24    2    4    4    0    0 -0.51800837954E+03 -0.55591742606E+03 -0.12910421321E+02  0.76400694836E+03  0.78505237365E+02 0.  0.
         11    1    3    3    0    0  0.37123952669E+03  0.42542548711E+03  0.93307471882E+03  0.10906117834E+04  0.00000000000E+00 0. -1.
        -11    1    3    3    0    0 -0.51101509066E+01  0.45404883782E+01  0.13005342982E+02  0.14692468243E+02  0.00000000000E+00 0.  1.
          2    1    6    6  502    0 -0.18277428619E+03 -0.17983428148E+03 -0.39809883285E+02  0.25948340081E+03  0.00000000000E+00 0. -1.
          3    1    5    5  503    0  0.35307834956E+02  0.35690893655E+02 -0.25060194553E+02  0.56111464517E+02  0.00000000000E+00 0. -1.
         -4    1    5    5    0  503  0.11657116881E+03  0.90260556916E+02 -0.24328846538E+03  0.28447334307E+03  0.00000000000E+00 0.  1.
         -1    1    6    6    0  502 -0.33523409335E+03 -0.37608314457E+03  0.26899461964E+02  0.50452354755E+03  0.00000000000E+00 0.  1.
<mgrwt>
<rscale>  0 0.21075231E+04</rscale>
<asrwt>0</asrwt>
<pdfrwt beam="1">  1        2 0.22113207E+00 0.21075231E+04</pdfrwt>
<pdfrwt beam="2">  1       -2 0.11885193E+00 0.21075231E+04</pdfrwt>
<totfact> 0.69014270E+00</totfact>
</mgrwt>
</event>
<event>
12    1  0.1967916E-007  0.3002236E+04  0.7818608E-02  0.8243093E-01
         -1   -1    0    0    0  501 -0.00000000000E+00  0.00000000000E+00  0.12484816678E+04  0.12484816678E+04  0.00000000000E+00 0.  1.
          1   -1    0    0  501    0  0.00000000000E+00 -0.00000000000E+00 -0.18048762809E+04  0.18048762809E+04  0.00000000000E+00 0. -1.
         23    2    1    2    0    0  0.43555642999E+03 -0.50324998924E+03  0.95845204984E+03  0.11704682484E+04  0.91627687828E+02 0.  0.
        254    2    1    2    0    0 -0.43555642999E+03  0.50324998924E+03 -0.15148466630E+04  0.18828897003E+04  0.89863410559E+03 0.  0.
        -24    2    4    4    0    0  0.13885444250E+03  0.50767367440E+03 -0.82170836354E+03  0.97915191017E+03  0.80750929383E+02 0.  0.
         24    2    4    4    0    0 -0.57441087250E+03 -0.44236851587E+01 -0.69313829943E+03  0.90373779011E+03  0.79585625015E+02 0.  0.
         13    1    3    3    0    0  0.23744672950E+02 -0.10594639565E+02  0.17631618414E+02  0.31415439658E+02  0.00000000000E+00 0. -1.
        -13    1    3    3    0    0  0.41181175704E+03 -0.49265534968E+03  0.94082043143E+03  0.11390528087E+04  0.00000000000E+00 0.  1.
          4    1    6    6  502    0 -0.12900197328E+03 -0.34314060706E+02 -0.15669554418E+03  0.20584571270E+03  0.00000000000E+00 0. -1.
          3    1    5    5  503    0 -0.88687971911E+01  0.10112747008E+02 -0.21080936968E+02  0.25006581516E+02  0.00000000000E+00 0. -1.
         -4    1    5    5    0  503  0.14772323969E+03  0.49756092739E+03 -0.80062742657E+03  0.95414532865E+03  0.00000000000E+00 0.  1.
         -3    1    6    6    0  502 -0.44540889922E+03  0.29890375547E+02 -0.53644275525E+03  0.69789207741E+03  0.00000000000E+00 0.  1.
<mgrwt>
<rscale>  0 0.30022358E+04</rscale>
<asrwt>0</asrwt>
<pdfrwt beam="1">  1        1 0.27767327E+00 0.30022358E+04</pdfrwt>
<pdfrwt beam="2">  1       -1 0.19207410E+00 0.30022358E+04</pdfrwt>
<totfact> 0.58788847E-01</totfact>
</mgrwt>
</event>
<event>
12    1  0.1489233E-007  0.1081235E+04  0.7818608E-02  0.9223677E-01
          2   -1    0    0  501    0  0.00000000000E+00  0.00000000000E+00  0.19041494120E+03  0.19041494120E+03  0.00000000000E+00 0. -1.
         -2   -1    0    0    0  501 -0.00000000000E+00 -0.00000000000E+00 -0.15348974624E+04  0.15348974624E+04  0.00000000000E+00 0.  1.
         23    2    1    2    0    0 -0.10720840596E+03  0.33012028020E+02 -0.65395504232E+02  0.15790095704E+03  0.89848227344E+02 0.  0.
        254    2    1    2    0    0  0.10720840596E+03 -0.33012028020E+02 -0.12790870169E+04  0.15674114465E+04  0.89896140602E+03 0.  0.
        -24    2    4    4    0    0 -0.21816774586E+03 -0.27081457615E+03 -0.19182109215E+03  0.40520271280E+03  0.80350526289E+02 0.  0.
         24    2    4    4    0    0  0.32537615182E+03  0.23780254813E+03 -0.10872659248E+04  0.11622087337E+04  0.78500047676E+02 0.  0.
         13    1    3    3    0    0 -0.11633696866E+03  0.45844486469E+02 -0.67356298293E+02  0.14203125760E+03  0.00000000000E+00 0. -1.
        -13    1    3    3    0    0  0.91285626988E+01 -0.12832458448E+02  0.19607940617E+01  0.15869699434E+02  0.00000000000E+00 0.  1.
          2    1    6    6  502    0  0.13977030272E+03  0.11448697183E+03 -0.59562611969E+03  0.62242548043E+03  0.00000000000E+00 0. -1.
          3    1    5    5  503    0 -0.93921943365E+02 -0.17292702734E+03 -0.85139977105E+02  0.21441526049E+03  0.00000000000E+00 0. -1.
         -4    1    5    5    0  503 -0.12424580250E+03 -0.97887548809E+02 -0.10668111504E+03  0.19078745230E+03  0.00000000000E+00 0.  1.
         -1    1    6    6    0  502  0.18560584911E+03  0.12331557630E+03 -0.49163980509E+03  0.53978325329E+03  0.00000000000E+00 0.  1.
<mgrwt>
<rscale>  0 0.10812352E+04</rscale>
<asrwt>0</asrwt>
<pdfrwt beam="1">  1        2 0.29294607E-01 0.10812352E+04</pdfrwt>
<pdfrwt beam="2">  1       -2 0.23613807E+00 0.10812352E+04</pdfrwt>
<totfact> 0.14281175E+01</totfact>
</mgrwt>
</event>
<event>
12    1  0.2067828E-007  0.2160162E+04  0.7818608E-02  0.8535195E-01
          1   -1    0    0  501    0  0.00000000000E+00  0.00000000000E+00  0.13032712946E+04  0.13032712946E+04  0.00000000000E+00 0. -1.
         -1   -1    0    0    0  501 -0.00000000000E+00 -0.00000000000E+00 -0.89511280304E+03  0.89511280304E+03  0.00000000000E+00 0.  1.
         23    2    1    2    0    0 -0.10449982801E+03  0.10699124996E+03 -0.72515331814E+03  0.74612050404E+03  0.92093051400E+02 0.  0.
        254    2    1    2    0    0  0.10449982801E+03 -0.10699124996E+03  0.11333118097E+04  0.14522635936E+04  0.89571566119E+03 0.  0.
        -24    2    4    4    0    0 -0.35946685963E+03  0.26580043348E+02  0.73082922096E+03  0.81883830062E+03  0.80385884795E+02 0.  0.
         24    2    4    4    0    0  0.46396668764E+03 -0.13357129331E+03  0.40248258874E+03  0.63342529299E+03  0.78287865791E+02 0.  0.
         11    1    3    3    0    0 -0.25241593028E+02 -0.10148738297E+02 -0.56970123542E+02  0.63132637233E+02  0.00000000000E+00 0. -1.
        -11    1    3    3    0    0 -0.79258234983E+02  0.11713998826E+03 -0.66818319460E+03  0.68298786680E+03  0.00000000000E+00 0.  1.
          2    1    6    6  502    0  0.52536965543E+02 -0.12756724859E+02  0.81470240571E+02  0.97776617227E+02  0.00000000000E+00 0. -1.
          3    1    5    5  503    0 -0.66847528075E+02 -0.23792741708E+01  0.77424204067E+02  0.10231696013E+03  0.00000000000E+00 0. -1.
         -4    1    5    5    0  503 -0.29261933155E+03  0.28959317519E+02  0.65340501689E+03  0.71652134048E+03  0.00000000000E+00 0.  1.
         -1    1    6    6    0  502  0.41142972210E+03 -0.12081456845E+03  0.32101234817E+03  0.53564867576E+03  0.00000000000E+00 0.  1.
<mgrwt>
<rscale>  0 0.21601619E+04</rscale>
<asrwt>0</asrwt>
<pdfrwt beam="1">  1        1 0.20050328E+00 0.21601619E+04</pdfrwt>
<pdfrwt beam="2">  1       -1 0.13770966E+00 0.21601619E+04</pdfrwt>
<totfact> 0.36022572E+00</totfact>
</mgrwt>
</event>
<event>
12    1  0.1489233E-007  0.1451777E+04  0.7818608E-02  0.8917170E-01
          1   -1    0    0  501    0  0.00000000000E+00  0.00000000000E+00  0.13545208788E+04  0.13545208788E+04  0.00000000000E+00 0. -1.
         -1   -1    0    0    0  501 -0.00000000000E+00 -0.00000000000E+00 -0.38900400947E+03  0.38900400947E+03  0.00000000000E+00 0.  1.
         23    2    1    2    0    0  0.14792008626E+03  0.30222460190E+03  0.71083535946E+03  0.79143175522E+03  0.88641147363E+02 0.  0.
        254    2    1    2    0    0 -0.14792008626E+03 -0.30222460190E+03  0.25468150983E+03  0.95209313301E+03  0.85346271187E+03 0.  0.
        -24    2    4    4    0    0 -0.49432897178E+03 -0.10628330107E+03  0.14580635405E+03  0.53198730431E+03  0.78062325338E+02 0.  0.
         24    2    4    4    0    0  0.34640888552E+03 -0.19594130083E+03  0.10887515578E+03  0.42010582870E+03  0.79012647198E+02 0.  0.
         13    1    3    3    0    0  0.14875850465E+01  0.70286419977E+02  0.19354052742E+03  0.20591340291E+03  0.00000000000E+00 0.  1.
        -13    1    3    3    0    0  0.14643250121E+03  0.23193818193E+03  0.51729483203E+03  0.58551835231E+03  0.00000000000E+00 0. -1.
          4    1    6    6  502    0  0.38650631438E+01 -0.19960854544E+02  0.19033485528E+01  0.20420508391E+02  0.00000000000E+00 0. -1.
          3    1    5    5  503    0 -0.75122265125E+02 -0.36465506732E+02  0.46418920480E+02  0.95539541956E+02  0.00000000000E+00 0. -1.
         -4    1    5    5    0  503 -0.41920670666E+03 -0.69817794340E+02  0.99387433566E+02  0.43644776235E+03  0.00000000000E+00 0.  1.
         -3    1    6    6    0  502  0.34254382238E+03 -0.17598044629E+03  0.10697180723E+03  0.39968532031E+03  0.00000000000E+00 0.  1.
<mgrwt>
<rscale>  0 0.14517769E+04</rscale>
<asrwt>0</asrwt>
<pdfrwt beam="1">  1        1 0.20838782E+00 0.14517769E+04</pdfrwt>
<pdfrwt beam="2">  1       -1 0.59846771E-01 0.14517769E+04</pdfrwt>
<totfact> 0.22738974E+01</totfact>
</mgrwt>
</event>
<event>
12    1  0.1489233E-007  0.1918245E+04  0.7818608E-02  0.8645828E-01
         -1   -1    0    0    0  501 -0.00000000000E+00  0.00000000000E+00  0.94068333038E+03  0.94068333038E+03  0.00000000000E+00 0.  1.
          1   -1    0    0  501    0  0.00000000000E+00 -0.00000000000E+00 -0.97792294770E+03  0.97792294770E+03  0.00000000000E+00 0. -1.
         23    2    1    2    0    0 -0.48122865605E+03 -0.43411713512E+03 -0.37600137248E+03  0.75546310029E+03  0.96481901798E+02 0.  0.
        254    2    1    2    0    0  0.48122865605E+03  0.43411713512E+03  0.33876175516E+03  0.11631431778E+04  0.90449091696E+03 0.  0.
        -24    2    4    4    0    0 -0.84236984748E+02 -0.19572987015E+03  0.19681498892E+03  0.30100399020E+03  0.80381655788E+02 0.  0.
         24    2    4    4    0    0  0.56546564080E+03  0.62984700527E+03  0.14194676624E+03  0.86213918758E+03  0.81709567035E+02 0.  0.
         13    1    3    3    0    0 -0.34177281033E+03 -0.29492635602E+03 -0.21028299171E+03  0.49800516660E+03  0.00000000000E+00 0. -1.
        -13    1    3    3    0    0 -0.13945584572E+03 -0.13919077910E+03 -0.16571838078E+03  0.25745793369E+03  0.00000000000E+00 0.  1.
          2    1    6    6  502    0  0.48628924294E+03  0.54228362730E+03  0.92838600422E+02  0.73428044095E+03  0.00000000000E+00 0. -1.
          1    1    5    5  503    0 -0.56514592550E+02 -0.18868917492E+03  0.18442438582E+03  0.26983301871E+03  0.00000000000E+00 0. -1.
         -2    1    5    5    0  503 -0.27722392198E+02 -0.70406952313E+01  0.12390603097E+02  0.31170971490E+02  0.00000000000E+00 0.  1.
         -1    1    6    6    0  502  0.79176397863E+02  0.87563377977E+02  0.49108165820E+02  0.12785874664E+03  0.00000000000E+00 0.  1.
<mgrwt>
<rscale>  0 0.19182448E+04</rscale>
<asrwt>0</asrwt>
<pdfrwt beam="1">  1        1 0.15044968E+00 0.19182448E+04</pdfrwt>
<pdfrwt beam="2">  1       -1 0.14472051E+00 0.19182448E+04</pdfrwt>
<totfact> 0.56504493E+00</totfact>
</mgrwt>
</event>
<event>
12    1  0.1489233E-007  0.1561197E+04  0.7818608E-02  0.8844747E-01
          2   -1    0    0  501    0  0.00000000000E+00  0.00000000000E+00  0.15043430514E+04  0.15043430514E+04  0.00000000000E+00 0.  1.
         -2   -1    0    0    0  501 -0.00000000000E+00 -0.00000000000E+00 -0.40504973209E+03  0.40504973209E+03  0.00000000000E+00 0. -1.
         23    2    1    2    0    0  0.12614484675E+03  0.70580604573E+02 -0.23920259664E+03  0.29000574687E+03  0.77403532688E+02 0.  0.
        254    2    1    2    0    0 -0.12614484675E+03 -0.70580604573E+02  0.13384959160E+04  0.16193870366E+04  0.89997161804E+03 0.  0.
        -24    2    4    4    0    0 -0.47686833594E+03  0.91466724341E+02  0.55110179544E+03  0.73879253180E+03  0.79571631935E+02 0.  0.
         24    2    4    4    0    0  0.35072348919E+03 -0.16204732891E+03  0.78739412053E+03  0.88059450485E+03  0.78682134261E+02 0.  0.
         11    1    3    3    0    0  0.11987258071E+03  0.66463883668E+02 -0.24485785530E+03  0.28061050005E+03  0.00000000000E+00 0. -1.
        -11    1    3    3    0    0  0.62722660379E+01  0.41167209045E+01  0.56552586556E+01  0.93952468152E+01  0.00000000000E+00 0.  1.
          2    1    6    6  502    0  0.26471697089E+03 -0.12405335602E+03  0.66360507973E+03  0.72514551068E+03  0.00000000000E+00 0. -1.
          3    1    5    5  503    0 -0.29565972695E+03  0.61001575405E+02  0.28320483084E+03  0.41393337937E+03  0.00000000000E+00 0. -1.
         -4    1    5    5    0  503 -0.18120860899E+03  0.30465148936E+02  0.26789696461E+03  0.32485915243E+03  0.00000000000E+00 0.  1.
         -1    1    6    6    0  502  0.86006518303E+02 -0.37993972892E+02  0.12378904080E+03  0.15544899417E+03  0.00000000000E+00 0.  1.
<mgrwt>
<rscale>  0 0.15611967E+04</rscale>
<asrwt>0</asrwt>
<pdfrwt beam="1">  1        2 0.23143739E+00 0.15611967E+04</pdfrwt>
<pdfrwt beam="2">  1       -2 0.62315344E-01 0.15611967E+04</pdfrwt>
<totfact> 0.29006548E+01</totfact>
</mgrwt>
</event>
<event>
12    1  0.1489233E-007  0.1504675E+04  0.7818608E-02  0.8881350E-01
         -2   -1    0    0    0  501 -0.00000000000E+00  0.00000000000E+00  0.32190250326E+03  0.32190250326E+03  0.00000000000E+00 0.  1.
          2   -1    0    0  501    0  0.00000000000E+00 -0.00000000000E+00 -0.17583317555E+04  0.17583317555E+04  0.00000000000E+00 0. -1.
         23    2    1    2    0    0  0.22370490844E+03 -0.26792362676E+03 -0.92341293146E+01  0.36059611437E+03  0.90096241421E+02 0.  0.
        254    2    1    2    0    0 -0.22370490844E+03  0.26792362676E+03 -0.14271951229E+04  0.17196381444E+04  0.89355608269E+03 0.  0.
        -24    2    4    4    0    0  0.15948943645E+03 -0.16498613768E+03 -0.90352489271E+03  0.93548443889E+03  0.78208680394E+02 0.  0.
         24    2    4    4    0    0 -0.38319434489E+03  0.43290976445E+03 -0.52367023020E+03  0.78415370549E+03  0.80110883935E+02 0.  0.
         13    1    3    3    0    0  0.17867885473E+03 -0.19104457262E+03  0.29905392300E+02  0.26328405638E+03  0.00000000000E+00 0.  1.
        -13    1    3    3    0    0  0.45026053714E+02 -0.76879054147E+02 -0.39139521615E+02  0.97312057998E+02  0.00000000000E+00 0. -1.
          4    1    6    6  502    0 -0.34667926283E+01  0.19518986396E+02 -0.33539765916E+02  0.38960561839E+02  0.00000000000E+00 0. -1.
          1    1    5    5  503    0  0.89425559374E+01 -0.55670434599E+02 -0.20988766407E+03  0.21732923900E+03  0.00000000000E+00 0. -1.
         -2    1    5    5    0  503  0.15054688051E+03 -0.10931570309E+03 -0.69363722864E+03  0.71815519989E+03  0.00000000000E+00 0.  1.
         -3    1    6    6    0  502 -0.37972755226E+03  0.41339077805E+03 -0.49013046428E+03  0.74519314365E+03  0.00000000000E+00 0.  1.
<mgrwt>
<rscale>  0 0.15046746E+04</rscale>
<asrwt>0</asrwt>
<pdfrwt beam="1">  1        2 0.27051258E+00 0.15046746E+04</pdfrwt>
<pdfrwt beam="2">  1       -2 0.49523462E-01 0.15046746E+04</pdfrwt>
<totfact> 0.33918842E+01</totfact>
</mgrwt>
</event>
<event>
12    1  0.1489233E-007  0.1894608E+04  0.7818608E-02  0.8657545E-01
          2   -1    0    0  501    0  0.00000000000E+00  0.00000000000E+00  0.12990184379E+04  0.12990184379E+04  0.00000000000E+00 0. -1.
         -2   -1    0    0    0  501 -0.00000000000E+00 -0.00000000000E+00 -0.69081745613E+03  0.69081745613E+03  0.00000000000E+00 0.  1.
         23    2    1    2    0    0 -0.39968188529E+03  0.20736622528E+03 -0.32337072500E+03  0.56182902654E+03  0.91306453580E+02 0.  0.
        254    2    1    2    0    0  0.39968188529E+03 -0.20736622528E+03  0.93157170673E+03  0.14280068675E+04  0.98419073756E+03 0.  0.
        -24    2    4    4    0    0 -0.12691238049E+03 -0.33986140106E+03  0.30213637786E+02  0.37265957862E+03  0.79685465296E+02 0.  0.
         24    2    4    4    0    0  0.52659426578E+03  0.13249517578E+03  0.90135806894E+03  0.10553472888E+04  0.80343258765E+02 0.  0.
         13    1    3    3    0    0 -0.26805170391E+03  0.13914576380E+03 -0.26732456540E+03  0.40333073627E+03  0.00000000000E+00 0. -1.
        -13    1    3    3    0    0 -0.13163018138E+03  0.68220461472E+02 -0.56046159602E+02  0.15849829028E+03  0.00000000000E+00 0.  1.
          2    1    6    6  502    0  0.37993163739E+03  0.12752269626E+03  0.62519429630E+03  0.74261564438E+03  0.00000000000E+00 0. -1.
          3    1    5    5  503    0 -0.11916734946E+03 -0.21711540994E+03  0.31489484284E+02  0.24966286475E+03  0.00000000000E+00 0. -1.
         -2    1    5    5    0  503 -0.77450310330E+01 -0.12274599111E+03 -0.12758464977E+01  0.12299671388E+03  0.00000000000E+00 0.  1.
         -1    1    6    6    0  502  0.14666262840E+03  0.49724795230E+01  0.27616377264E+03  0.31273164445E+03  0.00000000000E+00 0.  1.
<mgrwt>
<rscale>  0 0.18946077E+04</rscale>
<asrwt>0</asrwt>
<pdfrwt beam="1">  1        2 0.19984899E+00 0.18946077E+04</pdfrwt>
<pdfrwt beam="2">  1       -2 0.10627961E+00 0.18946077E+04</pdfrwt>
<totfact> 0.11075538E+01</totfact>
</mgrwt>
</event>
<event>
12    1  0.1489233E-007  0.2643188E+04  0.7818608E-02  0.8353677E-01
          2   -1    0    0  501    0  0.00000000000E+00  0.00000000000E+00  0.27987341924E+04  0.27987341924E+04  0.00000000000E+00 0. -1.
         -2   -1    0    0    0  501 -0.00000000000E+00 -0.00000000000E+00 -0.62407166592E+03  0.62407166592E+03  0.00000000000E+00 0.  1.
         23    2    1    2    0    0  0.10076813151E+02  0.38004749433E+03  0.23876531065E+04  0.24192646279E+04  0.86118191543E+02 0.  0.
        254    2    1    2    0    0 -0.10076813151E+02 -0.38004749433E+03 -0.21299058004E+03  0.10035412304E+04  0.90398693228E+03 0.  0.
        -24    2    4    4    0    0 -0.10874348477E+02  0.28880538101E+03 -0.12025233845E+03  0.32357544816E+03  0.81936842696E+02 0.  0.
         24    2    4    4    0    0  0.79753532563E+00 -0.66885287534E+03 -0.92738241590E+02  0.67996578220E+03  0.79926707655E+02 0.  0.
         11    1    3    3    0    0 -0.23212017583E+02  0.19194807147E+03  0.14022948502E+04  0.14155612692E+04  0.00000000000E+00 0.  1.
        -11    1    3    3    0    0  0.33288830734E+02  0.18809942286E+03  0.98535825633E+03  0.10037033588E+04  0.00000000000E+00 0. -1.
          4    1    6    6  502    0  0.70441215404E+00 -0.57364682426E+03 -0.10746773215E+03  0.58362701157E+03  0.00000000000E+00 0. -1.
          1    1    5    5  503    0 -0.14566094589E+02  0.29095363720E+03 -0.10815633322E+03  0.31074745780E+03  0.00000000000E+00 0. -1.
         -2    1    5    5    0  503  0.36917461122E+01 -0.21482561920E+01 -0.12096005233E+02  0.12827990358E+02  0.00000000000E+00 0.  1.
         -3    1    6    6    0  502  0.93123171593E-01 -0.95206051081E+02  0.14729490564E+02  0.96338770630E+02  0.00000000000E+00 0.  1.
<mgrwt>
<rscale>  0 0.26431880E+04</rscale>
<asrwt>0</asrwt>
<pdfrwt beam="1">  1        2 0.43057448E+00 0.26431880E+04</pdfrwt>
<pdfrwt beam="2">  1       -2 0.96011027E-01 0.26431880E+04</pdfrwt>
<totfact> 0.18558865E+00</totfact>
</mgrwt>
</event>
<event>
12    1  0.1489233E-007  0.4387959E+04  0.7818608E-02  0.7930551E-01
         -1   -1    0    0    0  501 -0.00000000000E+00  0.00000000000E+00  0.36206086061E+04  0.36206086061E+04  0.00000000000E+00 0.  1.
          1   -1    0    0  501    0  0.00000000000E+00 -0.00000000000E+00 -0.13294850965E+04  0.13294850965E+04  0.00000000000E+00 0. -1.
         23    2    1    2    0    0 -0.11428610264E+04  0.17625023189E+04  0.10970116597E+04  0.23715703882E+04  0.91464609785E+02 0.  0.
        254    2    1    2    0    0  0.11428610264E+04 -0.17625023189E+04  0.11941118499E+04  0.25785233144E+04  0.90018532706E+03 0.  0.
        -24    2    4    4    0    0  0.10356783716E+04 -0.13120012985E+04  0.12721685976E+04  0.21020832477E+04  0.79774323411E+02 0.  0.
         24    2    4    4    0    0  0.10718265481E+03 -0.45050102043E+03 -0.78056747751E+02  0.47644006674E+03  0.80392726246E+02 0.  0.
         11    1    3    3    0    0 -0.89071404500E+03  0.13550103686E+04  0.80448346839E+03  0.18101431600E+04  0.00000000000E+00 0.  1.
        -11    1    3    3    0    0 -0.25214698141E+03  0.40749195034E+03  0.29252819129E+03  0.56142722817E+03  0.00000000000E+00 0. -1.
          4    1    6    6  502    0  0.68441635904E+02 -0.30804102851E+03 -0.90524849943E+02  0.32828079631E+03  0.00000000000E+00 0. -1.
          3    1    5    5  503    0  0.48279454424E+03 -0.67522390478E+03  0.62340039060E+03  0.10380972693E+04  0.00000000000E+00 0. -1.
         -4    1    5    5    0  503  0.55288382737E+03 -0.63677739372E+03  0.64876820700E+03  0.10639859784E+04  0.00000000000E+00 0.  1.
         -3    1    6    6    0  502  0.38741018902E+02 -0.14245999192E+03  0.12468102193E+02  0.14815927043E+03  0.00000000000E+00 0.  1.
<mgrwt>
<rscale>  0 0.43879586E+04</rscale>
<asrwt>0</asrwt>
<pdfrwt beam="1">  1        1 0.20453617E+00 0.43879586E+04</pdfrwt>
<pdfrwt beam="2">  1       -1 0.55701671E+00 0.43879586E+04</pdfrwt>
<totfact> 0.45305971E-03</totfact>
</mgrwt>
</event>
<event>
12    1  0.1489233E-007  0.4003439E+04  0.7818608E-02  0.8003853E-01
         -2   -1    0    0    0  501 -0.00000000000E+00  0.00000000000E+00  0.20258348308E+04  0.20258348308E+04  0.00000000000E+00 0.  1.
          2   -1    0    0  501    0  0.00000000000E+00 -0.00000000000E+00 -0.19778912985E+04  0.19778912985E+04  0.00000000000E+00 0. -1.
         23    2    1    2    0    0  0.14806210459E+04 -0.11190377398E+04 -0.38414759215E+03  0.18968080595E+04  0.76336736525E+02 0.  0.
        254    2    1    2    0    0 -0.14806210459E+04  0.11190377398E+04  0.43209112453E+03  0.21069180698E+04  0.89884195958E+03 0.  0.
        -24    2    4    4    0    0 -0.21431921215E+03  0.42339457850E+03  0.45133295872E+03  0.65979386246E+03  0.80192315791E+02 0.  0.
         24    2    4    4    0    0 -0.12663018338E+04  0.69564316130E+03 -0.19241834192E+02  0.14471242073E+04  0.79740085639E+02 0.  0.
         13    1    3    3    0    0  0.42465934096E+03 -0.27914476408E+03 -0.98242685188E+02  0.51759924688E+03  0.00000000000E+00 0.  1.
        -13    1    3    3    0    0  0.10559617050E+04 -0.83989297573E+03 -0.28590490697E+03  0.13792088126E+04  0.00000000000E+00 0. -1.
          4    1    6    6  502    0 -0.11647486748E+04  0.63030445616E+03 -0.38090438086E+02  0.13249053039E+04  0.00000000000E+00 0. -1.
          3    1    5    5  503    0 -0.11045586495E+03  0.24907449994E+03  0.20695723491E+03  0.34215479202E+03  0.00000000000E+00 0. -1.
         -4    1    5    5    0  503 -0.10386334720E+03  0.17432007856E+03  0.24437572381E+03  0.31763907044E+03  0.00000000000E+00 0.  1.
         -3    1    6    6    0  502 -0.10155315897E+03  0.65338705144E+02  0.18848603894E+02  0.12221890343E+03  0.00000000000E+00 0.  1.
<mgrwt>
<rscale>  0 0.40034391E+04</rscale>
<asrwt>0</asrwt>
<pdfrwt beam="1">  1        2 0.30429097E+00 0.40034391E+04</pdfrwt>
<pdfrwt beam="2">  1       -2 0.31166690E+00 0.40034391E+04</pdfrwt>
<totfact> 0.14608939E-01</totfact>
</mgrwt>
</event>
<event>
12    1  0.1489233E-007  0.2247842E+04  0.7818608E-02  0.8498775E-01
         -2   -1    0    0    0  501 -0.00000000000E+00  0.00000000000E+00  0.13323909958E+04  0.13323909958E+04  0.00000000000E+00 0.  1.
          2   -1    0    0  501    0  0.00000000000E+00 -0.00000000000E+00 -0.94806922403E+03  0.94806922403E+03  0.00000000000E+00 0. -1.
         23    2    1    2    0    0 -0.53134286629E+03 -0.77462157505E+03  0.21883730909E+03  0.96888920804E+03  0.92155865330E+02 0.  0.
        254    2    1    2    0    0  0.53134286629E+03  0.77462157505E+03  0.16548446270E+03  0.13115710118E+04  0.90026084307E+03 0.  0.
        -24    2    4    4    0    0  0.69251506413E+03  0.34872256543E+03  0.29221139234E+03  0.83203997058E+03  0.75620586743E+02 0.  0.
         24    2    4    4    0    0 -0.16117219784E+03  0.42589900962E+03 -0.12672692964E+03  0.47953104124E+03  0.80770421973E+02 0.  0.
         11    1    3    3    0    0 -0.48471284188E+03 -0.66603998930E+03  0.21164661466E+03  0.85049990942E+03  0.00000000000E+00 0.  1.
        -11    1    3    3    0    0 -0.46630024403E+02 -0.10858158576E+03  0.71906944362E+01  0.11838929862E+03  0.00000000000E+00 0. -1.
          2    1    6    6  502    0  0.63650097493E+01  0.83990706193E+01  0.36593641381E+01  0.11155656963E+02  0.00000000000E+00 0. -1.
          3    1    5    5  503    0  0.14826208336E+03  0.45275118579E+02  0.42537385745E+02  0.16075108370E+03  0.00000000000E+00 0. -1.
         -4    1    5    5    0  503  0.54425298077E+03  0.30344744685E+03  0.24967400659E+03  0.67128888688E+03  0.00000000000E+00 0.  1.
         -1    1    6    6    0  502 -0.16753720759E+03  0.41749993900E+03 -0.13038629377E+03  0.46837538428E+03  0.00000000000E+00 0.  1.
<mgrwt>
<rscale>  0 0.22478424E+04</rscale>
<asrwt>0</asrwt>
<pdfrwt beam="1">  1        2 0.14585680E+00 0.22478424E+04</pdfrwt>
<pdfrwt beam="2">  1       -2 0.20498323E+00 0.22478424E+04</pdfrwt>
<totfact> 0.30582248E+00</totfact>
</mgrwt>
</event>
<event>
12    1  0.1489233E-007  0.2711138E+04  0.7818608E-02  0.8331400E-01
          2   -1    0    0  501    0  0.00000000000E+00  0.00000000000E+00  0.21507083878E+04  0.21507083878E+04  0.00000000000E+00 0. -1.
         -2   -1    0    0    0  501 -0.00000000000E+00 -0.00000000000E+00 -0.85440098655E+03  0.85440098655E+03  0.00000000000E+00 0.  1.
         23    2    1    2    0    0 -0.73205389740E+02  0.19639207082E+03  0.18924880056E+04  0.19070301970E+04  0.10641638246E+03 0.  0.
        254    2    1    2    0    0  0.73205389740E+02 -0.19639207082E+03 -0.59618060432E+03  0.10980791774E+04  0.89800762370E+03 0.  0.
        -24    2    4    4    0    0  0.33458091518E+02  0.28008923968E+03 -0.53506742725E+03  0.60959865598E+03  0.75788809208E+02 0.  0.
         24    2    4    4    0    0  0.39747298222E+02 -0.47648131050E+03 -0.61113177069E+02  0.48848052138E+03  0.79146145733E+02 0.  0.
         11    1    3    3    0    0 -0.55331019243E+02  0.20540519469E+03  0.17907990175E+04  0.18033895688E+04  0.00000000000E+00 0. -1.
        -11    1    3    3    0    0 -0.17874370497E+02 -0.90131238737E+01  0.10168898814E+03  0.10364062828E+03  0.00000000000E+00 0.  1.
          4    1    6    6  502    0  0.49860672741E+02 -0.17402419062E+03 -0.38010645122E+02  0.18497382180E+03  0.00000000000E+00 0. -1.
          1    1    5    5  503    0 -0.59414640994E+01  0.23284865518E+02 -0.10011147698E+03  0.10295529992E+03  0.00000000000E+00 0. -1.
         -2    1    5    5    0  503  0.39399555617E+02  0.25680437416E+03 -0.43495595027E+03  0.50664335606E+03  0.00000000000E+00 0.  1.
         -3    1    6    6    0  502 -0.10113374519E+02 -0.30245711988E+03 -0.23102531947E+02  0.30350669958E+03  0.00000000000E+00 0.  1.
<mgrwt>
<rscale>  0 0.27111380E+04</rscale>
<asrwt>0</asrwt>
<pdfrwt beam="1">  1        2 0.33087821E+00 0.27111380E+04</pdfrwt>
<pdfrwt beam="2">  1       -2 0.13144631E+00 0.27111380E+04</pdfrwt>
<totfact> 0.20370545E+00</totfact>
</mgrwt>
</event>
<event>
12    1  0.1489233E-007  0.1725211E+04  0.7818608E-02  0.8747115E-01
         -2   -1    0    0    0  501 -0.00000000000E+00  0.00000000000E+00  0.29870700114E+03  0.29870700114E+03  0.00000000000E+00 0.  1.
          2   -1    0    0  501    0  0.00000000000E+00 -0.00000000000E+00 -0.24910311266E+04  0.24910311266E+04  0.00000000000E+00 0. -1.
         23    2    1    2    0    0  0.52539606999E+03  0.32636005207E+03 -0.86246583883E+03  0.10641624091E+04  0.77732849258E+02 0.  0.
        254    2    1    2    0    0 -0.52539606999E+03 -0.32636005207E+03 -0.13298582866E+04  0.17255757186E+04  0.90914057453E+03 0.  0.
        -24    2    4    4    0    0 -0.95276489508E+02  0.43501002286E+02 -0.11005071008E+04  0.11084066175E+04  0.80494746279E+02 0.  0.
         24    2    4    4    0    0 -0.43011958048E+03 -0.36986105436E+03 -0.22935118587E+03  0.61716910116E+03  0.80595781038E+02 0.  0.
         11    1    3    3    0    0  0.48314522085E+03  0.32211632813E+03 -0.79611410043E+03  0.98538616500E+03  0.00000000000E+00 0. -1.
        -11    1    3    3    0    0  0.42250849140E+02  0.42437239427E+01 -0.66351738399E+02  0.78776244100E+02  0.00000000000E+00 0.  1.
          4    1    6    6  502    0 -0.92479879066E+02 -0.46719615464E+02 -0.62056702280E+02  0.12077369250E+03  0.00000000000E+00 0. -1.
          1    1    5    5  503    0 -0.23037071118E+02  0.81648675596E+01 -0.59868932722E+02  0.64665762296E+02  0.00000000000E+00 0. -1.
         -2    1    5    5    0  503 -0.72239418390E+02  0.35336134727E+02 -0.10406381680E+04  0.10437408552E+04  0.00000000000E+00 0.  1.
         -3    1    6    6    0  502 -0.33763970141E+03 -0.32314143889E+03 -0.16729448359E+03  0.49639540866E+03  0.00000000000E+00 0.  1.
<mgrwt>
<rscale>  0 0.17252112E+04</rscale>
<asrwt>0</asrwt>
<pdfrwt beam="1">  1        2 0.38323555E+00 0.17252112E+04</pdfrwt>
<pdfrwt beam="2">  1       -2 0.45954925E-01 0.17252112E+04</pdfrwt>
<totfact> 0.15044324E+01</totfact>
</mgrwt>
</event>
<event>
12    1  0.1489233E-007  0.1860478E+04  0.7818608E-02  0.8674783E-01
         -2   -1    0    0    0  501 -0.00000000000E+00  0.00000000000E+00  0.37575434240E+03  0.37575434240E+03  0.00000000000E+00 0.  1.
          2   -1    0    0  501    0  0.00000000000E+00 -0.00000000000E+00 -0.23029531789E+04  0.23029531789E+04  0.00000000000E+00 0. -1.
         23    2    1    2    0    0  0.45430167883E+03 -0.43613100191E+03 -0.25168084578E+03  0.68618959585E+03  0.10446361615E+03 0.  0.
        254    2    1    2    0    0 -0.45430167883E+03  0.43613100191E+03 -0.16755179907E+04  0.19925179254E+04  0.87530959081E+03 0.  0.
        -24    2    4    4    0    0 -0.10281518026E+03 -0.25748621534E+03 -0.56413077968E+03  0.63373288501E+03  0.80645648265E+02 0.  0.
         24    2    4    4    0    0 -0.35148649857E+03  0.69361721725E+03 -0.11113872110E+04  0.13587850404E+04  0.80421704043E+02 0.  0.
         13    1    3    3    0    0  0.10106912573E+03 -0.98544534381E+02 -0.10535628018E+03  0.17614181561E+03  0.00000000000E+00 0. -1.
        -13    1    3    3    0    0  0.35323255310E+03 -0.33758646753E+03 -0.14632456560E+03  0.51004778024E+03  0.00000000000E+00 0.  1.
          4    1    6    6  502    0 -0.21448792868E+03  0.47885575643E+03 -0.69811834350E+03  0.87331387745E+03  0.00000000000E+00 0. -1.
          3    1    5    5  503    0 -0.65810124289E+02 -0.22774541684E+03 -0.50521744511E+03  0.55807133432E+03  0.00000000000E+00 0. -1.
         -2    1    5    5    0  503 -0.37005055967E+02 -0.29740798496E+02 -0.58913334566E+02  0.75661550685E+02  0.00000000000E+00 0.  1.
         -3    1    6    6    0  502 -0.13699856989E+03  0.21476146082E+03 -0.41326886750E+03  0.48547116295E+03  0.00000000000E+00 0.  1.
<mgrwt>
<rscale>  0 0.18604781E+04</rscale>
<asrwt>0</asrwt>
<pdfrwt beam="1">  1        2 0.35430050E+00 0.18604781E+04</pdfrwt>
<pdfrwt beam="2">  1       -2 0.57808358E-01 0.18604781E+04</pdfrwt>
<totfact> 0.11891043E+01</totfact>
</mgrwt>
</event>
<event>
12    1  0.1489233E-007  0.3031794E+04  0.7818608E-02  0.8234710E-01
         -1   -1    0    0    0  501 -0.00000000000E+00  0.00000000000E+00  0.12452379184E+04  0.12452379184E+04  0.00000000000E+00 0. -1.
          1   -1    0    0  501    0  0.00000000000E+00 -0.00000000000E+00 -0.18453848698E+04  0.18453848698E+04  0.00000000000E+00 0.  1.
         23    2    1    2    0    0 -0.11646408793E+04 -0.57144269218E+03 -0.75518580954E+03  0.15038478378E+04  0.91200790767E+02 0.  0.
        254    2    1    2    0    0  0.11646408793E+04  0.57144269218E+03  0.15503885814E+03  0.15867749504E+04  0.90049018180E+03 0.  0.
        -24    2    4    4    0    0  0.10077127733E+04  0.10946977492E+03 -0.11535796574E+03  0.10235333652E+04  0.82731035551E+02 0.  0.
         24    2    4    4    0    0  0.15692810593E+03  0.46197291726E+03  0.27039682389E+03  0.56324158519E+03  0.77982268525E+02 0.  0.
         11    1    3    3    0    0 -0.11387150480E+04 -0.56217797014E+03 -0.75262387819E+03  0.14761973895E+04  0.00000000000E+00 0.  1.
        -11    1    3    3    0    0 -0.25925831224E+02 -0.92647220428E+01 -0.25619313485E+01  0.27650448304E+02  0.00000000000E+00 0. -1.
          4    1    6    6  502    0 -0.60790257781E+01  0.36473389887E+02  0.94843158311E+01  0.38173485183E+02  0.00000000000E+00 0. -1.
          3    1    5    5  503    0  0.22584894123E+03  0.15901311583E+02 -0.59587739732E+02  0.23411812123E+03  0.00000000000E+00 0. -1.
         -4    1    5    5    0  503  0.78186383210E+03  0.93568463338E+02 -0.55770226010E+02  0.78941524396E+03  0.00000000000E+00 0.  1.
         -3    1    6    6    0  502  0.16300713171E+03  0.42549952737E+03  0.26091250806E+03  0.52506810000E+03  0.00000000000E+00 0.  1.
<mgrwt>
<rscale>  0 0.30317937E+04</rscale>
<asrwt>0</asrwt>
<pdfrwt beam="1">  1        1 0.28390536E+00 0.30317937E+04</pdfrwt>
<pdfrwt beam="2">  1       -1 0.19157506E+00 0.30317937E+04</pdfrwt>
<totfact> 0.55483360E-01</totfact>
</mgrwt>
</event>
<event>
12    1  0.1489233E-007  0.1877570E+04  0.7818608E-02  0.8666102E-01
         -2   -1    0    0    0  501 -0.00000000000E+00  0.00000000000E+00  0.61428702900E+03  0.61428702900E+03  0.00000000000E+00 0.  1.
          2   -1    0    0  501    0  0.00000000000E+00 -0.00000000000E+00 -0.14346994561E+04  0.14346994561E+04  0.00000000000E+00 0. -1.
         23    2    1    2    0    0 -0.46822404589E+03  0.34668452321E+03  0.14479741371E+03  0.60729010501E+03  0.91711857693E+02 0.  0.
        254    2    1    2    0    0  0.46822404589E+03 -0.34668452321E+03 -0.96520984076E+03  0.14416963800E+04  0.89857359172E+03 0.  0.
        -24    2    4    4    0    0  0.40810067372E+03 -0.13851971956E+03 -0.10929177236E+04  0.11774970541E+04  0.79349160674E+02 0.  0.
         24    2    4    4    0    0  0.60123372174E+02 -0.20816480365E+03  0.12770788286E+03  0.26419932590E+03  0.80898548230E+02 0.  0.
         11    1    3    3    0    0 -0.22107281705E+03  0.20159565407E+03  0.38659003259E+02  0.30167617856E+03  0.00000000000E+00 0. -1.
        -11    1    3    3    0    0 -0.24715122884E+03  0.14508886914E+03  0.10613841045E+03  0.30561392645E+03  0.00000000000E+00 0.  1.
          4    1    6    6  502    0  0.69522393156E+02 -0.11283560583E+03  0.94660431277E+02  0.16286753618E+03  0.00000000000E+00 0. -1.
          3    1    5    5  503    0  0.24788218196E+03 -0.10400068713E+03 -0.76595298539E+03  0.81175470118E+03  0.00000000000E+00 0. -1.
         -4    1    5    5    0  503  0.16021849176E+03 -0.34519032432E+02 -0.32696473823E+03  0.36574235296E+03  0.00000000000E+00 0.  1.
         -3    1    6    6    0  502 -0.93990209825E+01 -0.95329197819E+02  0.33047451579E+02  0.10133178972E+03  0.00000000000E+00 0.  1.
<mgrwt>
<rscale>  0 0.18775700E+04</rscale>
<asrwt>0</asrwt>
<pdfrwt beam="1">  1        2 0.22072299E+00 0.18775700E+04</pdfrwt>
<pdfrwt beam="2">  1       -2 0.94505698E-01 0.18775700E+04</pdfrwt>
<totfact> 0.12238558E+01</totfact>
</mgrwt>
</event>
<event>
12    1  0.1843355E-007  0.2076787E+04  0.7818608E-02  0.8571538E-01
         -1   -1    0    0    0  501 -0.00000000000E+00  0.00000000000E+00  0.11050946908E+04  0.11050946908E+04  0.00000000000E+00 0.  1.
          1   -1    0    0  501    0  0.00000000000E+00 -0.00000000000E+00 -0.97571853281E+03  0.97571853281E+03  0.00000000000E+00 0. -1.
         23    2    1    2    0    0 -0.37082219184E+03  0.67316232032E+03 -0.28369670101E+03  0.82417549367E+03  0.90137776416E+02 0.  0.
        254    2    1    2    0    0  0.37082219184E+03 -0.67316232032E+03  0.41307285898E+03  0.12566377299E+04  0.90435202769E+03 0.  0.
        -24    2    4    4    0    0  0.50095959013E+03 -0.67930425177E+03  0.58205527827E+03  0.10287732661E+04  0.84683579498E+02 0.  0.
         24    2    4    4    0    0 -0.13013739829E+03  0.61419314462E+01 -0.16898241929E+03  0.22786446384E+03  0.79960553395E+02 0.  0.
         13    1    3    3    0    0 -0.33666015916E+03  0.65088567788E+03 -0.27314759345E+03  0.78204976583E+03  0.00000000000E+00 0. -1.
        -13    1    3    3    0    0 -0.34162032679E+02  0.22276642446E+02 -0.10549107557E+02  0.42125727836E+02  0.00000000000E+00 0.  1.
          4    1    6    6  502    0 -0.13211594276E+02 -0.12011475188E+02  0.39861434385E+01  0.18295111342E+02  0.00000000000E+00 0. -1.
          3    1    5    5  503    0  0.19157880681E+02 -0.48330780841E+02  0.55989039853E+02  0.76404589865E+02  0.00000000000E+00 0. -1.
         -4    1    5    5    0  503  0.48180170945E+03 -0.63097347093E+03  0.52606623841E+03  0.95236867622E+03  0.00000000000E+00 0.  1.
         -3    1    6    6    0  502 -0.11692580401E+03  0.18153406634E+02 -0.17296856272E+03  0.20956935250E+03  0.00000000000E+00 0.  1.
<mgrwt>
<rscale>  0 0.20767873E+04</rscale>
<asrwt>0</asrwt>
<pdfrwt beam="1">  1        1 0.15011054E+00 0.20767873E+04</pdfrwt>
<pdfrwt beam="2">  1       -1 0.17001457E+00 0.20767873E+04</pdfrwt>
<totfact> 0.35845636E+00</totfact>
</mgrwt>
</event>
<event>
12    1  0.1489233E-007  0.1443759E+04  0.7818608E-02  0.8922738E-01
          2   -1    0    0  501    0  0.00000000000E+00  0.00000000000E+00  0.16430082499E+04  0.16430082499E+04  0.00000000000E+00 0. -1.
         -2   -1    0    0    0  501 -0.00000000000E+00 -0.00000000000E+00 -0.31716836304E+03  0.31716836304E+03  0.00000000000E+00 0.  1.
         23    2    1    2    0    0 -0.29174810615E+03 -0.32773969440E+03  0.44619834310E+03  0.63241594865E+03  0.91250786254E+02 0.  0.
        254    2    1    2    0    0  0.29174810615E+03  0.32773969440E+03  0.87964154378E+03  0.13277606643E+04  0.89255188724E+03 0.  0.
        -24    2    4    4    0    0  0.39876385945E+03  0.41939985971E+02  0.92253030667E+03  0.10093530906E+04  0.83426115826E+02 0.  0.
         24    2    4    4    0    0 -0.10701575330E+03  0.28579970843E+03 -0.42888762888E+02  0.31840757369E+03  0.80063051446E+02 0.  0.
         11    1    3    3    0    0 -0.21362791663E+03 -0.23935543587E+03  0.37937544323E+03  0.49684367598E+03  0.00000000000E+00 0.  1.
        -11    1    3    3    0    0 -0.78120189526E+02 -0.88384258536E+02  0.66822899869E+02  0.13557227266E+03  0.00000000000E+00 0. -1.
          4    1    6    6  502    0 -0.24382129636E+02  0.11144885248E+03 -0.51726262837E+02  0.12526348723E+03  0.00000000000E+00 0. -1.
          3    1    5    5  503    0  0.38244140049E+02 -0.11375294577E+02  0.14933739022E+03  0.15457576683E+03  0.00000000000E+00 0. -1.
         -4    1    5    5    0  503  0.36051971940E+03  0.53315280547E+02  0.77319291645E+03  0.85477732379E+03  0.00000000000E+00 0.  1.
         -3    1    6    6    0  502 -0.82633623662E+02  0.17435085595E+03  0.88374999491E+01  0.19314408646E+03  0.00000000000E+00 0.  1.
<mgrwt>
<rscale>  0 0.14437593E+04</rscale>
<asrwt>0</asrwt>
<pdfrwt beam="1">  1        2 0.25277050E+00 0.14437593E+04</pdfrwt>
<pdfrwt beam="2">  1       -2 0.48795134E-01 0.14437593E+04</pdfrwt>
<totfact> 0.40707633E+01</totfact>
</mgrwt>
</event>
<event>
12    1  0.1489233E-007  0.1356167E+04  0.7818608E-02  0.8986173E-01
         -2   -1    0    0    0  501 -0.00000000000E+00  0.00000000000E+00  0.17219407528E+03  0.17219407528E+03  0.00000000000E+00 0.  1.
          2   -1    0    0  501    0  0.00000000000E+00 -0.00000000000E+00 -0.26702281136E+04  0.26702281136E+04  0.00000000000E+00 0. -1.
         23    2    1    2    0    0 -0.99279996858E+02  0.24157363657E+01  0.47178483134E+02  0.14166926162E+03  0.89342133725E+02 0.  0.
        254    2    1    2    0    0  0.99279996858E+02 -0.24157363657E+01 -0.25452125214E+04  0.27007529272E+04  0.89782918265E+03 0.  0.
        -24    2    4    4    0    0 -0.11325890132E+03 -0.40583598329E+03 -0.14381619836E+04  0.15007544090E+04  0.80146622035E+02 0.  0.
         24    2    4    4    0    0  0.21253889818E+03  0.40342024692E+03 -0.11070505378E+04  0.11999985182E+04  0.80714754481E+02 0.  0.
         11    1    3    3    0    0 -0.85636846238E+02  0.11070636731E+02 -0.55434556668E+01  0.86527211512E+02  0.00000000000E+00 0. -1.
        -11    1    3    3    0    0 -0.13643150620E+02 -0.86549003649E+01  0.52721938801E+02  0.55142050108E+02  0.00000000000E+00 0.  1.
          4    1    6    6  502    0  0.20176777142E+03  0.40245121522E+03 -0.10942481665E+04  0.11832397323E+04  0.00000000000E+00 0. -1.
          1    1    5    5  503    0 -0.41361572968E+02 -0.18882264102E+03 -0.79525970013E+03  0.81841478489E+03  0.00000000000E+00 0. -1.
         -4    1    5    5    0  503 -0.71897328355E+02 -0.21701334227E+03 -0.64290228348E+03  0.68233962413E+03  0.00000000000E+00 0.  1.
         -3    1    6    6    0  502  0.10771126758E+02  0.96903170909E+00 -0.12802371298E+02  0.16758785903E+02  0.00000000000E+00 0.  1.
<mgrwt>
<rscale>  0 0.13561673E+04</rscale>
<asrwt>0</asrwt>
<pdfrwt beam="1">  1        2 0.41080430E+00 0.13561673E+04</pdfrwt>
<pdfrwt beam="2">  1       -2 0.26491398E-01 0.13561673E+04</pdfrwt>
<totfact> 0.35063388E+01</totfact>
</mgrwt>
</event>
<event>
12    1  0.1489233E-007  0.2312442E+04  0.7818608E-02  0.8473032E-01
          2   -1    0    0  501    0  0.00000000000E+00  0.00000000000E+00  0.14343046476E+04  0.14343046476E+04  0.00000000000E+00 0.  1.
         -2   -1    0    0    0  501 -0.00000000000E+00 -0.00000000000E+00 -0.93205226929E+03  0.93205226929E+03  0.00000000000E+00 0. -1.
         23    2    1    2    0    0  0.52877598730E+03 -0.72071193282E+03 -0.19763541084E+03  0.92009573060E+03  0.92123086074E+02 0.  0.
        254    2    1    2    0    0 -0.52877598730E+03  0.72071193282E+03  0.69988778911E+03  0.14462611863E+04  0.89599038313E+03 0.  0.
        -24    2    4    4    0    0  0.18683933413E+03 -0.13554108091E+01  0.27662048017E+03  0.34287272944E+03  0.78307372761E+02 0.  0.
         24    2    4    4    0    0 -0.71561532144E+03  0.72206734363E+03  0.42326730894E+03  0.11033884568E+04  0.69457431484E+02 0.  0.
         11    1    3    3    0    0  0.85271106763E+02 -0.81352080251E+02 -0.50334581454E+02  0.12815183456E+03  0.00000000000E+00 0.  1.
        -11    1    3    3    0    0  0.44350488054E+03 -0.63935985257E+03 -0.14730082938E+03  0.79194389604E+03  0.00000000000E+00 0. -1.
          4    1    6    6  502    0 -0.91710947656E+02  0.91370594828E+02  0.79761293740E+02  0.15205705343E+03  0.00000000000E+00 0. -1.
          1    1    5    5  503    0  0.39169166178E+02 -0.30052909842E+02  0.45700488168E+02  0.67275074046E+02  0.00000000000E+00 0. -1.
         -2    1    5    5    0  503  0.14767016796E+03  0.28697499033E+02  0.23091999200E+03  0.27559765540E+03  0.00000000000E+00 0.  1.
         -3    1    6    6    0  502 -0.62390437378E+03  0.63069674880E+03  0.34350601520E+03  0.95133140338E+03  0.00000000000E+00 0.  1.
<mgrwt>
<rscale>  0 0.23124419E+04</rscale>
<asrwt>0</asrwt>
<pdfrwt beam="1">  1        2 0.22066225E+00 0.23124419E+04</pdfrwt>
<pdfrwt beam="2">  1       -2 0.14339266E+00 0.23124419E+04</pdfrwt>
<totfact> 0.42274934E+00</totfact>
</mgrwt>
</event>
<event>
12    1  0.1489233E-007  0.2931052E+04  0.7818608E-02  0.8263698E-01
          2   -1    0    0  501    0  0.00000000000E+00  0.00000000000E+00  0.26101316628E+04  0.26101316628E+04  0.00000000000E+00 0.  1.
         -2   -1    0    0    0  501 -0.00000000000E+00 -0.00000000000E+00 -0.82285742396E+03  0.82285742396E+03  0.00000000000E+00 0. -1.
         23    2    1    2    0    0 -0.77835999804E+03 -0.76682798346E+03  0.16885260624E+04  0.20132175858E+04  0.89751556323E+02 0.  0.
        254    2    1    2    0    0  0.77835999804E+03  0.76682798346E+03  0.98748176465E+02  0.14197715009E+04  0.90118281702E+03 0.  0.
        -24    2    4    4    0    0  0.75593702996E+02  0.64470643842E+03 -0.12945603543E+03  0.66683875948E+03  0.80958423633E+02 0.  0.
         24    2    4    4    0    0  0.70276629505E+03  0.12212154504E+03  0.22820421190E+03  0.75293274144E+03  0.77694360080E+02 0.  0.
         11    1    3    3    0    0 -0.45781957467E+02 -0.75328470460E+02  0.11618333940E+03  0.14583872752E+03  0.00000000000E+00 0. -1.
        -11    1    3    3    0    0 -0.73257804058E+03 -0.69149951300E+03  0.15723427230E+04  0.18673788583E+04  0.00000000000E+00 0.  1.
          4    1    6    6  502    0  0.10894477503E+03 -0.48001551297E+01  0.50888337743E+02  0.12033963775E+03  0.00000000000E+00 0. -1.
          3    1    5    5  503    0 -0.17624065543E+01  0.13690763140E+03 -0.56116050882E+02  0.14797235140E+03  0.00000000000E+00 0. -1.
         -4    1    5    5    0  503  0.77356109551E+02  0.50779880702E+03 -0.73339984551E+02  0.51886640808E+03  0.00000000000E+00 0.  1.
         -3    1    6    6    0  502  0.59382152002E+03  0.12692170017E+03  0.17731587415E+03  0.63259310369E+03  0.00000000000E+00 0.  1.
<mgrwt>
<rscale>  0 0.29310518E+04</rscale>
<asrwt>0</asrwt>
<pdfrwt beam="1">  1        2 0.40155871E+00 0.29310518E+04</pdfrwt>
<pdfrwt beam="2">  1       -2 0.12659345E+00 0.29310518E+04</pdfrwt>
<totfact> 0.11998221E+00</totfact>
</mgrwt>
</event>
<event>
12    1  0.1489233E-007  0.1719702E+04  0.7818608E-02  0.8750207E-01
          2   -1    0    0  501    0  0.00000000000E+00  0.00000000000E+00  0.96589012126E+03  0.96589012126E+03  0.00000000000E+00 0. -1.
         -2   -1    0    0    0  501 -0.00000000000E+00 -0.00000000000E+00 -0.76545297390E+03  0.76545297390E+03  0.00000000000E+00 0.  1.
         23    2    1    2    0    0 -0.52500762167E+03 -0.24158880493E+03 -0.16311532200E+03  0.60775933093E+03  0.93630350739E+02 0.  0.
        254    2    1    2    0    0  0.52500762167E+03  0.24158880493E+03  0.36355246937E+03  0.11235837642E+04  0.89234069939E+03 0.  0.
        -24    2    4    4    0    0 -0.85657748416E+02  0.34353932793E+03  0.34216172497E+03  0.49872297774E+03  0.79331222022E+02 0.  0.
         24    2    4    4    0    0  0.61066537008E+03 -0.10195052301E+03  0.21390744400E+02  0.62486078650E+03  0.81776128514E+02 0.  0.
         11    1    3    3    0    0 -0.25735200569E+03 -0.74707887831E+02 -0.49546904950E+02  0.27251829137E+03  0.00000000000E+00 0. -1.
        -11    1    3    3    0    0 -0.26765561597E+03 -0.16688091710E+03 -0.11356841705E+03  0.33524103956E+03  0.00000000000E+00 0.  1.
          2    1    6    6  502    0  0.52399643992E+03 -0.91323302323E+02 -0.10230867347E+02  0.53199331316E+03  0.00000000000E+00 0. -1.
          3    1    5    5  503    0 -0.80806682923E+02  0.20206270944E+03  0.17206346548E+03  0.27742547595E+03  0.00000000000E+00 0. -1.
         -4    1    5    5    0  503 -0.48510654935E+01  0.14147661849E+03  0.17009825949E+03  0.22129750179E+03  0.00000000000E+00 0.  1.
         -3    1    6    6    0  502  0.86668930163E+02 -0.10627220684E+02  0.31621611748E+02  0.92867473340E+02  0.00000000000E+00 0.  1.
<mgrwt>
<rscale>  0 0.17197017E+04</rscale>
<asrwt>0</asrwt>
<pdfrwt beam="1">  1        2 0.14859848E+00 0.17197017E+04</pdfrwt>
<pdfrwt beam="2">  1       -2 0.11776200E+00 0.17197017E+04</pdfrwt>
<totfact> 0.14010824E+01</totfact>
</mgrwt>
</event>
<event>
12    1  0.1489233E-007  0.1404552E+04  0.7818608E-02  0.8950530E-01
         -2   -1    0    0    0  501 -0.00000000000E+00  0.00000000000E+00  0.19395004964E+03  0.19395004964E+03  0.00000000000E+00 0.  1.
          2   -1    0    0  501    0  0.00000000000E+00 -0.00000000000E+00 -0.25428776878E+04  0.25428776878E+04  0.00000000000E+00 0. -1.
         23    2    1    2    0    0  0.41681387892E+02 -0.17056731357E+03  0.16677787571E+02  0.19896328692E+03  0.92074395949E+02 0.  0.
        254    2    1    2    0    0 -0.41681387892E+02  0.17056731357E+03 -0.23656054257E+04  0.25378644505E+04  0.90212881141E+03 0.  0.
        -24    2    4    4    0    0  0.60426819122E+02 -0.32507993921E+03 -0.14446160319E+04  0.14841678886E+04  0.80687512453E+02 0.  0.
         24    2    4    4    0    0 -0.10210820701E+03  0.49564725278E+03 -0.92098939382E+03  0.10536965619E+04  0.77218494263E+02 0.  0.
         11    1    3    3    0    0  0.37626342119E+02 -0.35890003209E+02  0.35436779512E+02  0.62925346990E+02  0.00000000000E+00 0. -1.
        -11    1    3    3    0    0  0.40550457734E+01 -0.13467731036E+03 -0.18758991942E+02  0.13603793993E+03  0.00000000000E+00 0.  1.
          2    1    6    6  502    0  0.10124334657E+02  0.78726125040E+02 -0.16500858737E+03  0.18310690545E+03  0.00000000000E+00 0. -1.
          3    1    5    5  503    0 -0.18609244070E+02 -0.43173270862E+02 -0.23107375719E+03  0.23580779576E+03  0.00000000000E+00 0. -1.
         -2    1    5    5    0  503  0.79036063191E+02 -0.28190666835E+03 -0.12135422747E+04  0.12483600929E+04  0.00000000000E+00 0.  1.
         -1    1    6    6    0  502 -0.11223254167E+03  0.41692112774E+03 -0.75598080645E+03  0.87058965643E+03  0.00000000000E+00 0.  1.
<mgrwt>
<rscale>  0 0.14045515E+04</rscale>
<asrwt>0</asrwt>
<pdfrwt beam="1">  1        2 0.39121196E+00 0.14045515E+04</pdfrwt>
<pdfrwt beam="2">  1       -2 0.29838469E-01 0.14045515E+04</pdfrwt>
<totfact> 0.33259486E+01</totfact>
</mgrwt>
</event>
<event>
12    1  0.1489233E-007  0.1973418E+04  0.7818608E-02  0.8619151E-01
         -2   -1    0    0    0  501 -0.00000000000E+00  0.00000000000E+00  0.39235935437E+03  0.39235935437E+03  0.00000000000E+00 0.  1.
          2   -1    0    0  501    0  0.00000000000E+00 -0.00000000000E+00 -0.24813844742E+04  0.24813844742E+04  0.00000000000E+00 0. -1.
         23    2    1    2    0    0 -0.63435866709E+03 -0.23924367489E+02 -0.13762834369E+04  0.15184539704E+04  0.92536845696E+02 0.  0.
        254    2    1    2    0    0  0.63435866709E+03  0.23924367489E+02 -0.71274168296E+03  0.13552898581E+04  0.96219883552E+03 0.  0.
        -24    2    4    4    0    0  0.64905614012E+03  0.37826125105E+03 -0.32486835884E+03  0.82328095430E+03  0.88862995995E+02 0.  0.
         24    2    4    4    0    0 -0.14697473033E+02 -0.35433688356E+03 -0.38787332411E+03  0.53200890384E+03  0.82565824890E+02 0.  0.
         13    1    3    3    0    0 -0.12589267575E+03  0.16876336237E+02 -0.35123925561E+03  0.37350072452E+03  0.00000000000E+00 0. -1.
        -13    1    3    3    0    0 -0.50846599134E+03 -0.40800703727E+02 -0.10250441813E+04  0.11449532459E+04  0.00000000000E+00 0.  1.
          2    1    6    6  502    0 -0.15075027926E+02 -0.38364693138E+02 -0.16484830411E+02  0.44394321486E+02  0.00000000000E+00 0. -1.
          3    1    5    5  503    0  0.10303053890E+02  0.23823599430E+02 -0.12143684031E+02  0.28656340853E+02  0.00000000000E+00 0. -1.
         -4    1    5    5    0  503  0.63875308623E+03  0.35443765162E+03 -0.31272467481E+03  0.79462461345E+03  0.00000000000E+00 0.  1.
         -1    1    6    6    0  502  0.37755489226E+00 -0.31597219042E+03 -0.37138849370E+03  0.48761458235E+03  0.00000000000E+00 0.  1.
<mgrwt>
<rscale>  0 0.19734178E+04</rscale>
<asrwt>0</asrwt>
<pdfrwt beam="1">  1        2 0.38175145E+00 0.19734178E+04</pdfrwt>
<pdfrwt beam="2">  1       -2 0.60362978E-01 0.19734178E+04</pdfrwt>
<totfact> 0.85010485E+00</totfact>
</mgrwt>
</event>
<event>
12    1  0.1489233E-007  0.2052352E+04  0.7818608E-02  0.8582528E-01
          1   -1    0    0  501    0  0.00000000000E+00  0.00000000000E+00  0.98685642766E+03  0.98685642766E+03  0.00000000000E+00 0. -1.
         -1   -1    0    0    0  501 -0.00000000000E+00 -0.00000000000E+00 -0.10670617526E+04  0.10670617526E+04  0.00000000000E+00 0.  1.
         23    2    1    2    0    0 -0.81426981549E+03 -0.17865350772E+02 -0.17633455793E+03  0.83872447991E+03  0.94922988248E+02 0.  0.
        254    2    1    2    0    0  0.81426981549E+03  0.17865350772E+02  0.96129232994E+02  0.12151937003E+04  0.89671645280E+03 0.  0.
        -24    2    4    4    0    0  0.99049517949E+02  0.37156577506E+03  0.12560110456E+03  0.41288159949E+03  0.82605360152E+02 0.  0.
         24    2    4    4    0    0  0.71522029755E+03 -0.35370042429E+03 -0.29471871568E+02  0.80231210085E+03  0.78689591422E+02 0.  0.
         13    1    3    3    0    0 -0.55243635628E+02  0.10125199291E+02  0.90437480582E+01  0.56887330022E+02  0.00000000000E+00 0.  1.
        -13    1    3    3    0    0 -0.75902617987E+03 -0.27990550063E+02 -0.18537830599E+03  0.78183714989E+03  0.00000000000E+00 0. -1.
          2    1    6    6  502    0  0.19354775914E+03 -0.59574463666E+02  0.33623726928E+01  0.20253680490E+03  0.00000000000E+00 0. -1.
          3    1    5    5  503    0  0.35150484407E+02  0.27546378989E+03  0.82561587023E+02  0.28971066902E+03  0.00000000000E+00 0. -1.
         -4    1    5    5    0  503  0.63899033542E+02  0.96101985173E+02  0.43039517540E+02  0.12317093047E+03  0.00000000000E+00 0.  1.
         -1    1    6    6    0  502  0.52167253840E+03 -0.29412596062E+03 -0.32834244261E+02  0.59977529595E+03  0.00000000000E+00 0.  1.
<mgrwt>
<rscale>  0 0.20523516E+04</rscale>
<asrwt>0</asrwt>
<pdfrwt beam="1">  1        1 0.15182407E+00 0.20523516E+04</pdfrwt>
<pdfrwt beam="2">  1       -1 0.16416335E+00 0.20523516E+04</pdfrwt>
<totfact> 0.38904379E+00</totfact>
</mgrwt>
</event>
<event>
12    1  0.1489233E-007  0.1751509E+04  0.7818608E-02  0.8732520E-01
         -2   -1    0    0    0  501 -0.00000000000E+00  0.00000000000E+00  0.88717926013E+03  0.88717926013E+03  0.00000000000E+00 0.  1.
          2   -1    0    0  501    0  0.00000000000E+00 -0.00000000000E+00 -0.86447656321E+03  0.86447656321E+03  0.00000000000E+00 0. -1.
         23    2    1    2    0    0  0.67721328946E+03  0.77245379236E+02  0.98562695636E+02  0.69477244159E+03  0.91703067514E+02 0.  0.
        254    2    1    2    0    0 -0.67721328946E+03 -0.77245379236E+02 -0.75859998720E+02  0.10568833817E+04  0.80415362660E+03 0.  0.
        -24    2    4    4    0    0 -0.85787650611E+02  0.30763349744E+03 -0.10583948180E+03  0.34606281395E+03  0.80991268340E+02 0.  0.
         24    2    4    4    0    0 -0.59142563885E+03 -0.38487887667E+03  0.29979483077E+02  0.71082056780E+03  0.80318579429E+02 0.  0.
         11    1    3    3    0    0  0.59941442222E+03  0.95548609879E+02  0.98033686702E+02  0.61484777802E+03  0.00000000000E+00 0.  1.
        -11    1    3    3    0    0  0.77798867239E+02 -0.18303230644E+02  0.52900893396E+00  0.79924663566E+02  0.00000000000E+00 0. -1.
          2    1    6    6  502    0 -0.12228576356E+03 -0.51422922366E+02 -0.14940762435E+02  0.13349663402E+03  0.00000000000E+00 0. -1.
          1    1    5    5  503    0 -0.48654792077E+02  0.53637647170E+02 -0.16583252461E+02  0.74291925861E+02  0.00000000000E+00 0. -1.
         -2    1    5    5    0  503 -0.37132858534E+02  0.25399585027E+03 -0.89256229336E+02  0.27177088809E+03  0.00000000000E+00 0.  1.
         -1    1    6    6    0  502 -0.46913987529E+03 -0.33345595431E+03  0.44920245512E+02  0.57732393377E+03  0.00000000000E+00 0.  1.
<mgrwt>
<rscale>  0 0.17515087E+04</rscale>
<asrwt>0</asrwt>
<pdfrwt beam="1">  1        2 0.13299639E+00 0.17515087E+04</pdfrwt>
<pdfrwt beam="2">  1       -2 0.13648912E+00 0.17515087E+04</pdfrwt>
<totfact> 0.11271215E+01</totfact>
</mgrwt>
</event>
<event>
12    1  0.1489233E-007  0.1360264E+04  0.7818608E-02  0.8983095E-01
         -2   -1    0    0    0  501 -0.00000000000E+00  0.00000000000E+00  0.42359924141E+03  0.42359924141E+03  0.00000000000E+00 0.  1.
          2   -1    0    0  501    0  0.00000000000E+00 -0.00000000000E+00 -0.10920214426E+04  0.10920214426E+04  0.00000000000E+00 0. -1.
         23    2    1    2    0    0 -0.23964455896E+02 -0.70915946006E+02 -0.59416353100E+03  0.60530091387E+03  0.88065476870E+02 0.  0.
        254    2    1    2    0    0  0.23964455896E+02  0.70915946006E+02 -0.74258670175E+02  0.91031977012E+03  0.90419266046E+03 0.  0.
        -24    2    4    4    0    0 -0.63653033354E+02  0.47214651686E+03 -0.89218639130E+02  0.49135946128E+03  0.80623275672E+02 0.  0.
         24    2    4    4    0    0  0.87617489250E+02 -0.40123057086E+03  0.14959968955E+02  0.41896030884E+03  0.81493216276E+02 0.  0.
         13    1    3    3    0    0  0.74550344495E+01 -0.33763449644E+01 -0.34840971246E+03  0.34850581772E+03  0.00000000000E+00 0. -1.
        -13    1    3    3    0    0 -0.31419490345E+02 -0.67539601041E+02 -0.24575381853E+03  0.25679509615E+03  0.00000000000E+00 0.  1.
          4    1    6    6  502    0  0.44956122857E+02 -0.28764407496E+03 -0.22423027383E+02  0.29199821746E+03  0.00000000000E+00 0. -1.
          3    1    5    5  503    0 -0.80930857637E+02  0.42414597742E+03 -0.85718286062E+02  0.44022407754E+03  0.00000000000E+00 0. -1.
         -4    1    5    5    0  503  0.17277824283E+02  0.48000539441E+02 -0.35003530676E+01  0.51135383739E+02  0.00000000000E+00 0.  1.
         -3    1    6    6    0  502  0.42661366392E+02 -0.11358649589E+03  0.37382996337E+02  0.12696209138E+03  0.00000000000E+00 0.  1.
<mgrwt>
<rscale>  0 0.13602639E+04</rscale>
<asrwt>0</asrwt>
<pdfrwt beam="1">  1        2 0.16800330E+00 0.13602639E+04</pdfrwt>
<pdfrwt beam="2">  1       -2 0.65169114E-01 0.13602639E+04</pdfrwt>
<totfact> 0.46698933E+01</totfact>
</mgrwt>
</event>
<event>
12    1  0.1489233E-007  0.1370539E+04  0.7818608E-02  0.8975424E-01
          1   -1    0    0  501    0  0.00000000000E+00  0.00000000000E+00  0.92428815053E+03  0.92428815053E+03  0.00000000000E+00 0. -1.
         -1   -1    0    0    0  501 -0.00000000000E+00 -0.00000000000E+00 -0.50806040285E+03  0.50806040285E+03  0.00000000000E+00 0.  1.
         23    2    1    2    0    0 -0.21330170514E+03 -0.29421275930E+03  0.14796548944E+03  0.40303598751E+03  0.92116534946E+02 0.  0.
        254    2    1    2    0    0  0.21330170514E+03  0.29421275930E+03  0.26826225824E+03  0.10293125659E+04  0.92491132218E+03 0.  0.
        -24    2    4    4    0    0  0.21685661638E+03 -0.28863036798E+03 -0.25227217945E+02  0.37155805546E+03  0.84170628307E+02 0.  0.
         24    2    4    4    0    0 -0.35549112399E+01  0.58284312728E+03  0.29348947619E+03  0.65775451040E+03  0.82378242954E+02 0.  0.
         13    1    3    3    0    0 -0.94580986480E+02 -0.94551896748E+02  0.12963286378E+02  0.13436394969E+03  0.00000000000E+00 0. -1.
        -13    1    3    3    0    0 -0.11872071866E+03 -0.19966086255E+03  0.13500220306E+03  0.26867203782E+03  0.00000000000E+00 0.  1.
          4    1    6    6  502    0 -0.13380228326E+02  0.17651550223E+03  0.49969057990E+02  0.18393928290E+03  0.00000000000E+00 0. -1.
          3    1    5    5  503    0  0.20543299723E+03 -0.22698359918E+03 -0.68379312596E+01  0.30622055443E+03  0.00000000000E+00 0. -1.
         -4    1    5    5    0  503  0.11423619148E+02 -0.61646768793E+02 -0.18389286685E+02  0.65337501038E+02  0.00000000000E+00 0.  1.
         -3    1    6    6    0  502  0.98253170858E+01  0.40632762505E+03  0.24352041820E+03  0.47381522750E+03  0.00000000000E+00 0.  1.
<mgrwt>
<rscale>  0 0.13705389E+04</rscale>
<asrwt>0</asrwt>
<pdfrwt beam="1">  1        1 0.14219818E+00 0.13705389E+04</pdfrwt>
<pdfrwt beam="2">  1       -1 0.78163139E-01 0.13705389E+04</pdfrwt>
<totfact> 0.27852118E+01</totfact>
</mgrwt>
</event>
<event>
12    1  0.1489233E-007  0.1400661E+04  0.7818608E-02  0.8953340E-01
         -2   -1    0    0    0  501 -0.00000000000E+00  0.00000000000E+00  0.43372433058E+03  0.43372433058E+03  0.00000000000E+00 0.  1.
          2   -1    0    0  501    0  0.00000000000E+00 -0.00000000000E+00 -0.11308174022E+04  0.11308174022E+04  0.00000000000E+00 0. -1.
         23    2    1    2    0    0  0.22230687510E+03 -0.85681961111E+02 -0.56028691568E+03  0.61536263640E+03  0.89375618731E+02 0.  0.
        254    2    1    2    0    0 -0.22230687510E+03  0.85681961111E+02 -0.13680615596E+03  0.94917909638E+03  0.90855010183E+03 0.  0.
        -24    2    4    4    0    0  0.48556271228E+01  0.21627310151E+02 -0.50115457441E+03  0.50780233527E+03  0.78841528369E+02 0.  0.
         24    2    4    4    0    0 -0.22716250222E+03  0.64054650961E+02  0.36434841845E+03  0.44137676111E+03  0.79736280926E+02 0.  0.
         11    1    3    3    0    0  0.12836537435E+03 -0.21101533800E+02 -0.21035530599E+03  0.24733034350E+03  0.00000000000E+00 0.  1.
        -11    1    3    3    0    0  0.93941500747E+02 -0.64580427311E+02 -0.34993160969E+03  0.36803229290E+03  0.00000000000E+00 0. -1.
          4    1    6    6  502    0 -0.10291187513E+03 -0.10831891673E+02  0.13708833540E+03  0.17175970314E+03  0.00000000000E+00 0. -1.
          1    1    5    5  503    0  0.23325310250E+02  0.45739116171E+02 -0.33094945478E+03  0.33490846282E+03  0.00000000000E+00 0. -1.
         -2    1    5    5    0  503 -0.18469683127E+02 -0.24111806020E+02 -0.17020511963E+03  0.17289387245E+03  0.00000000000E+00 0.  1.
         -3    1    6    6    0  502 -0.12425062709E+03  0.74886542634E+02  0.22726008305E+03  0.26961705797E+03  0.00000000000E+00 0.  1.
<mgrwt>
<rscale>  0 0.14006613E+04</rscale>
<asrwt>0</asrwt>
<pdfrwt beam="1">  1        2 0.17397191E+00 0.14006613E+04</pdfrwt>
<pdfrwt beam="2">  1       -2 0.66726821E-01 0.14006613E+04</pdfrwt>
<totfact> 0.41881406E+01</totfact>
</mgrwt>
</event>
<event>
12    1  0.1489233E-007  0.2169092E+04  0.7818608E-02  0.8531404E-01
          2   -1    0    0  501    0  0.00000000000E+00  0.00000000000E+00  0.14567128705E+04  0.14567128705E+04  0.00000000000E+00 0. -1.
         -2   -1    0    0    0  501 -0.00000000000E+00 -0.00000000000E+00 -0.80746188536E+03  0.80746188536E+03  0.00000000000E+00 0.  1.
         23    2    1    2    0    0  0.23634452353E+03 -0.84509476147E+03  0.97477186636E+02  0.88768472524E+03  0.91861198841E+02 0.  0.
        254    2    1    2    0    0 -0.23634452353E+03  0.84509476147E+03  0.55177379846E+03  0.13764900306E+04  0.90566361854E+03 0.  0.
        -24    2    4    4    0    0  0.23181773537E+03  0.62123179864E+03  0.83024668807E+02  0.67246926985E+03  0.75189182590E+02 0.  0.
         24    2    4    4    0    0 -0.46816225890E+03  0.22386296282E+03  0.46874912965E+03  0.70402076073E+03  0.81418414402E+02 0.  0.
         11    1    3    3    0    0  0.86215065823E+01 -0.14776869751E+03  0.29272507483E+01  0.14804893494E+03  0.00000000000E+00 0.  1.
        -11    1    3    3    0    0  0.22772301694E+03 -0.69732606395E+03  0.94549935888E+02  0.73963579030E+03  0.00000000000E+00 0. -1.
          4    1    6    6  502    0 -0.22900755875E+03  0.11024264633E+03  0.28424021103E+03  0.38130093181E+03  0.00000000000E+00 0. -1.
          3    1    5    5  503    0  0.38008727302E+02  0.17908920134E+03  0.28363485469E+01  0.18310010994E+03  0.00000000000E+00 0. -1.
         -4    1    5    5    0  503  0.19380900807E+03  0.44214259730E+03  0.80188320260E+02  0.48936915991E+03  0.00000000000E+00 0.  1.
         -1    1    6    6    0  502 -0.23915470015E+03  0.11362031650E+03  0.18450891862E+03  0.32271982891E+03  0.00000000000E+00 0.  1.
<mgrwt>
<rscale>  0 0.21690921E+04</rscale>
<asrwt>0</asrwt>
<pdfrwt beam="1">  1        2 0.22410967E+00 0.21690921E+04</pdfrwt>
<pdfrwt beam="2">  1       -2 0.12422491E+00 0.21690921E+04</pdfrwt>
<totfact> 0.59954549E+00</totfact>
</mgrwt>
</event>
<event>
12    1  0.1489233E-007  0.1578231E+04  0.7818608E-02  0.8834034E-01
          1   -1    0    0  501    0  0.00000000000E+00  0.00000000000E+00  0.20323816008E+04  0.20323816008E+04  0.00000000000E+00 0. -1.
         -1   -1    0    0    0  501 -0.00000000000E+00 -0.00000000000E+00 -0.30639082879E+03  0.30639082879E+03  0.00000000000E+00 0.  1.
         23    2    1    2    0    0  0.36618092171E+02 -0.42772369379E+03  0.12767697709E+03  0.45717003875E+03  0.91731079467E+02 0.  0.
        254    2    1    2    0    0 -0.36618092171E+02  0.42772369379E+03  0.15983137949E+04  0.18816023908E+04  0.89528326651E+03 0.  0.
        -24    2    4    4    0    0 -0.42108048636E+03  0.27283363853E+03  0.53700327900E+03  0.73907869181E+03  0.78216499072E+02 0.  0.
         24    2    4    4    0    0  0.38446239419E+03  0.15489005526E+03  0.10613105159E+04  0.11425236990E+04  0.84723844814E+02 0.  0.
         11    1    3    3    0    0  0.10638190380E+02 -0.22795098264E+03  0.11442411059E+03  0.25527964797E+03  0.00000000000E+00 0. -1.
        -11    1    3    3    0    0  0.25979901791E+02 -0.19977271115E+03  0.13252866502E+02  0.20189039078E+03  0.00000000000E+00 0.  1.
          2    1    6    6  502    0  0.17628364335E+03  0.82630725606E+02  0.60948726195E+03  0.63982691582E+03  0.00000000000E+00 0. -1.
          3    1    5    5  503    0 -0.48456463187E+02  0.36110138144E+02  0.32209431928E+02  0.68479328315E+02  0.00000000000E+00 0. -1.
         -4    1    5    5    0  503 -0.37262402317E+03  0.23672350039E+03  0.50479384707E+03  0.67059936349E+03  0.00000000000E+00 0.  1.
         -1    1    6    6    0  502  0.20817875084E+03  0.72259329659E+02  0.45182325395E+03  0.50269678320E+03  0.00000000000E+00 0.  1.
<mgrwt>
<rscale>  0 0.15782308E+04</rscale>
<asrwt>0</asrwt>
<pdfrwt beam="1">  1        1 0.31267408E+00 0.15782308E+04</pdfrwt>
<pdfrwt beam="2">  1       -1 0.47137052E-01 0.15782308E+04</pdfrwt>
<totfact> 0.12229799E+01</totfact>
</mgrwt>
</event>
<event>
12    1  0.1489233E-007  0.1924889E+04  0.7818608E-02  0.8642566E-01
         -1   -1    0    0    0  501 -0.00000000000E+00  0.00000000000E+00  0.13694042775E+04  0.13694042775E+04  0.00000000000E+00 0.  1.
          1   -1    0    0  501    0  0.00000000000E+00 -0.00000000000E+00 -0.67642489477E+03  0.67642489477E+03  0.00000000000E+00 0. -1.
         23    2    1    2    0    0  0.40481936598E+03 -0.53175960174E+03 -0.10691532353E+02  0.67467181266E+03  0.91764659925E+02 0.  0.
        254    2    1    2    0    0 -0.40481936598E+03  0.53175960174E+03  0.70367091508E+03  0.13711573596E+04  0.96864480329E+03 0.  0.
        -24    2    4    4    0    0 -0.19253208803E+03  0.38455329542E+02 -0.21671885457E+03  0.30298772420E+03  0.79291120535E+02 0.  0.
         24    2    4    4    0    0 -0.21228727795E+03  0.49330427220E+03  0.92038976966E+03  0.10681696354E+04  0.73851530537E+02 0.  0.
         11    1    3    3    0    0  0.38678660366E+03 -0.52158174684E+03 -0.24456528626E+02  0.64980729236E+03  0.00000000000E+00 0. -1.
        -11    1    3    3    0    0  0.18032762325E+02 -0.10177854902E+02  0.13764996273E+02  0.24864520302E+02  0.00000000000E+00 0.  1.
          2    1    6    6  502    0 -0.19838836879E+02  0.16776989173E+02  0.68568183088E+02  0.73325592711E+02  0.00000000000E+00 0. -1.
          1    1    5    5  503    0 -0.81899618396E+02  0.55556597503E+02 -0.11511849600E+03  0.15181024715E+03  0.00000000000E+00 0. -1.
         -2    1    5    5    0  503 -0.11063246963E+03 -0.17101267961E+02 -0.10160035857E+03  0.15117747704E+03  0.00000000000E+00 0.  1.
         -1    1    6    6    0  502 -0.19244844108E+03  0.47652728303E+03  0.85182158657E+03  0.99484404270E+03  0.00000000000E+00 0.  1.
<mgrwt>
<rscale>  0 0.19248887E+04</rscale>
<asrwt>0</asrwt>
<pdfrwt beam="1">  1        1 0.10406537E+00 0.19248887E+04</pdfrwt>
<pdfrwt beam="2">  1       -1 0.21067758E+00 0.19248887E+04</pdfrwt>
<totfact> 0.34073229E+00</totfact>
</mgrwt>
</event>
<event>
12    1  0.1489233E-007  0.2304862E+04  0.7818608E-02  0.8476006E-01
         -1   -1    0    0    0  501 -0.00000000000E+00  0.00000000000E+00  0.19630636578E+04  0.19630636578E+04  0.00000000000E+00 0.  1.
          1   -1    0    0  501    0  0.00000000000E+00 -0.00000000000E+00 -0.67654331963E+03  0.67654331963E+03  0.00000000000E+00 0. -1.
         23    2    1    2    0    0 -0.72880012536E+03  0.42218805551E+03  0.11149171511E+04  0.14003241638E+04  0.92060485487E+02 0.  0.
        254    2    1    2    0    0  0.72880012536E+03 -0.42218805551E+03  0.17160318705E+03  0.12392828136E+04  0.89273840588E+03 0.  0.
        -24    2    4    4    0    0  0.87144544409E+03 -0.40304638546E+03  0.32343929090E+03  0.10162968789E+04  0.79892555368E+02 0.  0.
         24    2    4    4    0    0 -0.14264531873E+03 -0.19141670054E+02 -0.15183610385E+03  0.22298593465E+03  0.77164979959E+02 0.  0.
         13    1    3    3    0    0 -0.61514676604E+03  0.38742748455E+03  0.98527597441E+03  0.12244485883E+04  0.00000000000E+00 0.  1.
        -13    1    3    3    0    0 -0.11365335933E+03  0.34760570963E+02  0.12964117666E+03  0.17587557552E+03  0.00000000000E+00 0. -1.
          2    1    6    6  502    0 -0.57938862657E+02  0.17253651936E+02 -0.10098669301E+03  0.11769839623E+03  0.00000000000E+00 0. -1.
          1    1    5    5  503    0  0.78585326465E+03 -0.38002936622E+03  0.31164793821E+03  0.92688300780E+03  0.00000000000E+00 0. -1.
         -2    1    5    5    0  503  0.85592179442E+02 -0.23017019239E+02  0.11791352690E+02  0.89413871153E+02  0.00000000000E+00 0.  1.
         -1    1    6    6    0  502 -0.84706456071E+02 -0.36395321991E+02 -0.50849410841E+02  0.10528753842E+03  0.00000000000E+00 0.  1.
<mgrwt>
<rscale>  0 0.23048623E+04</rscale>
<asrwt>0</asrwt>
<pdfrwt beam="1">  1        1 0.10408359E+00 0.23048623E+04</pdfrwt>
<pdfrwt beam="2">  1       -1 0.30200979E+00 0.23048623E+04</pdfrwt>
<totfact> 0.83089730E-01</totfact>
</mgrwt>
</event>
<event>
12    1  0.3432196E-007  0.1587111E+04  0.7818608E-02  0.8828505E-01
          1   -1    0    0  501    0  0.00000000000E+00  0.00000000000E+00  0.14096233426E+04  0.14096233426E+04  0.00000000000E+00 0. -1.
         -1   -1    0    0    0  501 -0.00000000000E+00 -0.00000000000E+00 -0.44673666364E+03  0.44673666364E+03  0.00000000000E+00 0.  1.
         23    2    1    2    0    0  0.47172420854E+03 -0.20184317344E+03  0.44076234426E+03  0.68263111211E+03  0.91920593549E+02 0.  0.
        254    2    1    2    0    0 -0.47172420854E+03  0.20184317344E+03  0.52212433470E+03  0.11737288941E+04  0.91747550399E+03 0.  0.
        -24    2    4    4    0    0  0.19644673519E+03 -0.53077123802E+02 -0.81432129021E+02  0.23449171171E+03  0.83346687898E+02 0.  0.
         24    2    4    4    0    0 -0.66817094374E+03  0.25492029724E+03  0.60355646372E+03  0.93923718241E+03  0.80307608197E+02 0.  0.
         13    1    3    3    0    0  0.46911799874E+03 -0.20779967981E+03  0.42741481972E+03  0.66778427040E+03  0.00000000000E+00 0. -1.
        -13    1    3    3    0    0  0.26062098003E+01  0.59565063690E+01  0.13347524537E+02  0.14846841715E+02  0.00000000000E+00 0.  1.
          4    1    6    6  502    0 -0.14395418515E+03  0.64520551131E+02  0.93068452525E+02  0.18315961836E+03  0.00000000000E+00 0. -1.
          1    1    5    5  503    0  0.13853082357E+02 -0.26657997711E+02  0.54996948157E+01  0.30541829935E+02  0.00000000000E+00 0. -1.
         -2    1    5    5    0  503  0.18259365283E+03 -0.26419126091E+02 -0.86931823836E+02  0.20394988177E+03  0.00000000000E+00 0.  1.
         -3    1    6    6    0  502 -0.52421675858E+03  0.19039974611E+03  0.51048801119E+03  0.75607756405E+03  0.00000000000E+00 0.  1.
<mgrwt>
<rscale>  0 0.15871111E+04</rscale>
<asrwt>0</asrwt>
<pdfrwt beam="1">  1        1 0.21686513E+00 0.15871111E+04</pdfrwt>
<pdfrwt beam="2">  1       -1 0.68728718E-01 0.15871111E+04</pdfrwt>
<totfact> 0.15565062E+01</totfact>
</mgrwt>
</event>
<event>
12    1  0.1489233E-007  0.3506433E+04  0.7818608E-02  0.8112267E-01
         -2   -1    0    0    0  501 -0.00000000000E+00  0.00000000000E+00  0.11739268407E+04  0.11739268407E+04  0.00000000000E+00 0.  1.
          2   -1    0    0  501    0  0.00000000000E+00 -0.00000000000E+00 -0.26183639207E+04  0.26183639207E+04  0.00000000000E+00 0. -1.
         23    2    1    2    0    0  0.43165500097E+03  0.15629657251E+04 -0.91603396229E+03  0.18646062838E+04  0.91926470988E+02 0.  0.
        254    2    1    2    0    0 -0.43165500097E+03 -0.15629657251E+04 -0.52840311774E+03  0.19276844776E+04  0.89864881502E+03 0.  0.
        -24    2    4    4    0    0 -0.22043808023E+03  0.27078985714E+02  0.29778862648E+01  0.23608855049E+03  0.80016980582E+02 0.  0.
         24    2    4    4    0    0 -0.21121692074E+03 -0.15900447108E+04 -0.53138100400E+03  0.16915959271E+04  0.79222719689E+02 0.  0.
         13    1    3    3    0    0  0.29931519496E+03  0.10150648235E+04 -0.55165884229E+03  0.11934293696E+04  0.00000000000E+00 0. -1.
        -13    1    3    3    0    0  0.13233980601E+03  0.54790090157E+03 -0.36437512000E+03  0.67117691428E+03  0.00000000000E+00 0.  1.
          2    1    6    6  502    0 -0.63204915381E+02 -0.30469423107E+03 -0.12612640806E+03  0.33576972256E+03  0.00000000000E+00 0. -1.
          3    1    5    5  503    0 -0.12271932583E+02 -0.12972463697E+02 -0.15030389161E+02  0.23340902768E+02  0.00000000000E+00 0. -1.
         -4    1    5    5    0  503 -0.20816614765E+03  0.40051449410E+02  0.18008275426E+02  0.21274764772E+03  0.00000000000E+00 0.  1.
         -1    1    6    6    0  502 -0.14801200536E+03 -0.12853504797E+04 -0.40525459594E+03  0.13558262046E+04  0.00000000000E+00 0.  1.
<mgrwt>
<rscale>  0 0.35064328E+04</rscale>
<asrwt>0</asrwt>
<pdfrwt beam="1">  1        2 0.40282521E+00 0.35064328E+04</pdfrwt>
<pdfrwt beam="2">  1       -2 0.18060413E+00 0.35064328E+04</pdfrwt>
<totfact> 0.43774041E-01</totfact>
</mgrwt>
</event>
<event>
12    1  0.1489233E-007  0.1114880E+04  0.7818608E-02  0.9190809E-01
         -2   -1    0    0    0  501 -0.00000000000E+00  0.00000000000E+00  0.28553548761E+03  0.28553548761E+03  0.00000000000E+00 0.  1.
          2   -1    0    0  501    0  0.00000000000E+00 -0.00000000000E+00 -0.10882681047E+04  0.10882681047E+04  0.00000000000E+00 0. -1.
         23    2    1    2    0    0 -0.12098901110E+02 -0.17914575686E+03 -0.62404638276E+02  0.21064062718E+03  0.90749927449E+02 0.  0.
        254    2    1    2    0    0  0.12098901110E+02  0.17914575686E+03 -0.74032797877E+03  0.11631629651E+04  0.87898975056E+03 0.  0.
        -24    2    4    4    0    0  0.28666146107E+02  0.51095654330E+03 -0.27704278390E+03  0.58749158905E+03  0.80593585459E+02 0.  0.
         24    2    4    4    0    0 -0.16567244997E+02 -0.33181078644E+03 -0.46328519487E+03  0.57567137603E+03  0.79946793519E+02 0.  0.
         11    1    3    3    0    0  0.58409039727E+01  0.92448411431E+01 -0.85583408597E+01  0.13886268226E+02  0.00000000000E+00 0.  1.
        -11    1    3    3    0    0 -0.17939805083E+02 -0.18839059801E+03 -0.53846297416E+02  0.19675435896E+03  0.00000000000E+00 0. -1.
          4    1    6    6  502    0  0.24021140007E+02 -0.21160308362E+03 -0.26057416401E+03  0.33652901081E+03  0.00000000000E+00 0. -1.
          3    1    5    5  503    0 -0.26702497571E+02  0.19070089171E+03 -0.11560609442E+03  0.22459880352E+03  0.00000000000E+00 0. -1.
         -2    1    5    5    0  503  0.55368643678E+02  0.32025565159E+03 -0.16143668948E+03  0.36289278553E+03  0.00000000000E+00 0.  1.
         -3    1    6    6    0  502 -0.40588385004E+02 -0.12020770282E+03 -0.20271103086E+03  0.23914236523E+03  0.00000000000E+00 0.  1.
<mgrwt>
<rscale>  0 0.11148797E+04</rscale>
<asrwt>0</asrwt>
<pdfrwt beam="1">  1        2 0.16742587E+00 0.11148797E+04</pdfrwt>
<pdfrwt beam="2">  1       -2 0.43928536E-01 0.11148797E+04</pdfrwt>
<totfact> 0.10793714E+02</totfact>
</mgrwt>
</event>
<event>
12    1  0.1489233E-007  0.2047177E+04  0.7818608E-02  0.8584876E-01
         -2   -1    0    0    0  501 -0.00000000000E+00  0.00000000000E+00  0.28663232639E+04  0.28663232639E+04  0.00000000000E+00 0.  1.
          2   -1    0    0  501    0  0.00000000000E+00 -0.00000000000E+00 -0.36553232091E+03  0.36553232091E+03  0.00000000000E+00 0. -1.
         23    2    1    2    0    0  0.48261016631E+03  0.45374938270E+03  0.17953554232E+04  0.19158377670E+04  0.91280770561E+02 0.  0.
        254    2    1    2    0    0 -0.48261016631E+03 -0.45374938270E+03  0.70543551976E+03  0.13160178177E+04  0.89188707197E+03 0.  0.
        -24    2    4    4    0    0  0.12537698134E+03  0.16156202989E+03  0.25916660454E+03  0.33933437303E+03  0.78478091563E+02 0.  0.
         24    2    4    4    0    0 -0.60798714765E+03 -0.61531141259E+03  0.44626891522E+03  0.97668344472E+03  0.80610795359E+02 0.  0.
         13    1    3    3    0    0  0.19730629006E+03  0.22029935361E+03  0.90823531385E+03  0.95517169275E+03  0.00000000000E+00 0.  1.
        -13    1    3    3    0    0  0.28530387625E+03  0.23345002909E+03  0.88712010933E+03  0.96066607428E+03  0.00000000000E+00 0. -1.
          2    1    6    6  502    0 -0.28195697594E+02 -0.84143339557E+01  0.15843488866E+02  0.33418774935E+02  0.00000000000E+00 0. -1.
          3    1    5    5  503    0  0.61355271997E+02  0.47620000290E+02  0.48962828211E+02  0.91812267023E+02  0.00000000000E+00 0. -1.
         -4    1    5    5    0  503  0.64021709339E+02  0.11394202960E+03  0.21020377633E+03  0.24752210600E+03  0.00000000000E+00 0.  1.
         -1    1    6    6    0  502 -0.57979145005E+03 -0.60689707864E+03  0.43042542635E+03  0.94326466978E+03  0.00000000000E+00 0.  1.
<mgrwt>
<rscale>  0 0.20471774E+04</rscale>
<asrwt>0</asrwt>
<pdfrwt beam="1">  1        2 0.56235743E-01 0.20471774E+04</pdfrwt>
<pdfrwt beam="2">  1       -2 0.44097280E+00 0.20471774E+04</pdfrwt>
<totfact> 0.32497523E-01</totfact>
</mgrwt>
</event>
<event>
12    1  0.1489233E-007  0.1508467E+04  0.7818608E-02  0.8878842E-01
         -2   -1    0    0    0  501 -0.00000000000E+00  0.00000000000E+00  0.15780833183E+04  0.15780833183E+04  0.00000000000E+00 0.  1.
          2   -1    0    0  501    0  0.00000000000E+00 -0.00000000000E+00 -0.36048022234E+03  0.36048022234E+03  0.00000000000E+00 0. -1.
         23    2    1    2    0    0  0.26964747541E+03 -0.12949751281E+03  0.88089353103E+03  0.93464948007E+03  0.90093677630E+02 0.  0.
        254    2    1    2    0    0 -0.26964747541E+03  0.12949751281E+03  0.33670956492E+03  0.10039140606E+04  0.89721276354E+03 0.  0.
        -24    2    4    4    0    0 -0.47053449271E+03 -0.12949017624E+03  0.42907019966E+03  0.65468402390E+03  0.79621104891E+02 0.  0.
         24    2    4    4    0    0  0.20088701730E+03  0.25898768906E+03 -0.92360634742E+02  0.34923003666E+03  0.77465572032E+02 0.  0.
         13    1    3    3    0    0  0.69168158320E+02 -0.16221570682E+02  0.33011685921E+03  0.33767516079E+03  0.00000000000E+00 0.  1.
        -13    1    3    3    0    0  0.20047931709E+03 -0.11327594213E+03  0.55077667182E+03  0.59697431927E+03  0.00000000000E+00 0. -1.
          4    1    6    6  502    0  0.10858716154E+03  0.90083038073E+02 -0.63035470213E+02  0.15453024269E+03  0.00000000000E+00 0. -1.
          1    1    5    5  503    0 -0.44113082171E+03 -0.10054933527E+03  0.40284330047E+03  0.60579641417E+03  0.00000000000E+00 0. -1.
         -2    1    5    5    0  503 -0.29403671007E+02 -0.28940840973E+02  0.26226899189E+02  0.48887609739E+02  0.00000000000E+00 0.  1.
         -3    1    6    6    0  502  0.92299855762E+02  0.16890465098E+03 -0.29325164529E+02  0.19469979397E+03  0.00000000000E+00 0.  1.
<mgrwt>
<rscale>  0 0.15084665E+04</rscale>
<asrwt>0</asrwt>
<pdfrwt beam="1">  1        2 0.55458497E-01 0.15084665E+04</pdfrwt>
<pdfrwt beam="2">  1       -2 0.24278205E+00 0.15084665E+04</pdfrwt>
<totfact> 0.61474479E+00</totfact>
</mgrwt>
</event>
<event>
12    1  0.1489233E-007  0.2348825E+04  0.7818608E-02  0.8458915E-01
          2   -1    0    0  501    0  0.00000000000E+00  0.00000000000E+00  0.10736486096E+04  0.10736486096E+04  0.00000000000E+00 0. -1.
         -2   -1    0    0    0  501 -0.00000000000E+00 -0.00000000000E+00 -0.12846331414E+04  0.12846331414E+04  0.00000000000E+00 0.  1.
         23    2    1    2    0    0 -0.56415027844E+02  0.48784317137E+03  0.78540256003E+03  0.93198933548E+03  0.10282667425E+03 0.  0.
        254    2    1    2    0    0  0.56415027844E+02 -0.48784317137E+03 -0.99638709184E+03  0.14262924155E+04  0.89462237982E+03 0.  0.
        -24    2    4    4    0    0 -0.36066008315E+03 -0.45994809019E+03 -0.65567201430E+03  0.88196417626E+03  0.79542923140E+02 0.  0.
         24    2    4    4    0    0  0.41707511099E+03 -0.27895081176E+02 -0.34071507754E+03  0.54432823923E+03  0.74004622813E+02 0.  0.
         11    1    3    3    0    0 -0.58659909205E+02  0.49199009414E+03  0.78324122963E+03  0.92680206165E+03  0.00000000000E+00 0. -1.
        -11    1    3    3    0    0  0.22448813602E+01 -0.41469227685E+01  0.21613303961E+01  0.51872738361E+01  0.00000000000E+00 0.  1.
          4    1    6    6  502    0  0.24992142573E+03 -0.52261419848E+02 -0.19569054436E+03  0.32169358743E+03  0.00000000000E+00 0. -1.
          3    1    5    5  503    0 -0.36380459820E+03 -0.44967464035E+03 -0.63702056400E+03  0.86043957766E+03  0.00000000000E+00 0. -1.
         -4    1    5    5    0  503  0.31445150508E+01 -0.10273449840E+02 -0.18651450306E+02  0.21524598603E+02  0.00000000000E+00 0.  1.
         -3    1    6    6    0  502  0.16715368527E+03  0.24366338672E+02 -0.14502453318E+03  0.22263465180E+03  0.00000000000E+00 0.  1.
<mgrwt>
<rscale>  0 0.23488249E+04</rscale>
<asrwt>0</asrwt>
<pdfrwt beam="1">  1        2 0.16517671E+00 0.23488249E+04</pdfrwt>
<pdfrwt beam="2">  1       -2 0.19763587E+00 0.23488249E+04</pdfrwt>
<totfact> 0.28158158E+00</totfact>
</mgrwt>
</event>
<event>
12    1  0.1489233E-007  0.1567564E+04  0.7818608E-02  0.8840726E-01
          2   -1    0    0  501    0  0.00000000000E+00  0.00000000000E+00  0.11927049255E+04  0.11927049255E+04  0.00000000000E+00 0. -1.
         -2   -1    0    0    0  501 -0.00000000000E+00 -0.00000000000E+00 -0.51505991807E+03  0.51505991807E+03  0.00000000000E+00 0.  1.
         23    2    1    2    0    0 -0.42861859385E+03 -0.25963329184E+03  0.92929711145E+02  0.51767470112E+03  0.90707330129E+02 0.  0.
        254    2    1    2    0    0  0.42861859385E+03  0.25963329184E+03  0.58471529626E+03  0.11900901424E+04  0.90735837694E+03 0.  0.
        -24    2    4    4    0    0  0.28799111205E+03 -0.18104263178E+03 -0.94445066648E+02  0.36428834067E+03  0.89837683587E+02 0.  0.
         24    2    4    4    0    0  0.14062748180E+03  0.44067592363E+03  0.67916036291E+03  0.82580180176E+03  0.81966206084E+02 0.  0.
         13    1    3    3    0    0 -0.41261586255E+03 -0.26381288723E+03  0.79049328429E+02  0.49608253933E+03  0.00000000000E+00 0.  1.
        -13    1    3    3    0    0 -0.16002731298E+02  0.41795953887E+01  0.13880382716E+02  0.21592161794E+02  0.00000000000E+00 0. -1.
          2    1    6    6  502    0 -0.13139266034E+01  0.10570254251E+03  0.16459543076E+03  0.19561801994E+03  0.00000000000E+00 0. -1.
          1    1    5    5  503    0 -0.56752468980E+01 -0.11694213151E+01 -0.68020856686E+01  0.89355661829E+01  0.00000000000E+00 0. -1.
         -2    1    5    5    0  503  0.29366635895E+03 -0.17987321047E+03 -0.87642980979E+02  0.35535277449E+03  0.00000000000E+00 0.  1.
         -1    1    6    6    0  502  0.14194140840E+03  0.33497338112E+03  0.51456493215E+03  0.63018378182E+03  0.00000000000E+00 0.  1.
<mgrwt>
<rscale>  0 0.15675644E+04</rscale>
<asrwt>0</asrwt>
<pdfrwt beam="1">  1        2 0.18349307E+00 0.15675644E+04</pdfrwt>
<pdfrwt beam="2">  1       -2 0.79239988E-01 0.15675644E+04</pdfrwt>
<totfact> 0.25978308E+01</totfact>
</mgrwt>
</event>
<event>
12    1  0.1489233E-007  0.1809650E+04  0.7818608E-02  0.8701185E-01
         -1   -1    0    0    0  501 -0.00000000000E+00  0.00000000000E+00  0.11259696794E+04  0.11259696794E+04  0.00000000000E+00 0.  1.
          1   -1    0    0  501    0  0.00000000000E+00 -0.00000000000E+00 -0.72711373447E+03  0.72711373447E+03  0.00000000000E+00 0. -1.
         23    2    1    2    0    0 -0.26659456899E+03 -0.60526678551E+03  0.54996000007E+01  0.66769759111E+03  0.91483778454E+02 0.  0.
        254    2    1    2    0    0  0.26659456899E+03  0.60526678551E+03  0.39335634490E+03  0.11853858227E+04  0.90165946388E+03 0.  0.
        -24    2    4    4    0    0  0.47703732912E+03  0.68261955266E+03  0.16101782333E+03  0.85210470452E+03  0.81373343306E+02 0.  0.
         24    2    4    4    0    0 -0.21044276013E+03 -0.77352767146E+02  0.23233852157E+03  0.33328111821E+03  0.82616640426E+02 0.  0.
         11    1    3    3    0    0 -0.36085397793E+02 -0.43101633621E+02 -0.19757400762E+02  0.59584072029E+02  0.00000000000E+00 0.  1.
        -11    1    3    3    0    0 -0.23050917119E+03 -0.56216515189E+03  0.25257000762E+02  0.60811351908E+03  0.00000000000E+00 0. -1.
          2    1    6    6  502    0 -0.17081801941E+03 -0.85694110217E+02  0.21897174691E+03  0.29063878307E+03  0.00000000000E+00 0. -1.
          3    1    5    5  503    0  0.27768206589E+03  0.46233733195E+03  0.92205798367E+02  0.54714262079E+03  0.00000000000E+00 0. -1.
         -4    1    5    5    0  503  0.19935526323E+03  0.22028222071E+03  0.68812024960E+02  0.30496208373E+03  0.00000000000E+00 0.  1.
         -1    1    6    6    0  502 -0.39624740717E+02  0.83413430705E+01  0.13366774657E+02  0.42642335136E+02  0.00000000000E+00 0.  1.
<mgrwt>
<rscale>  0 0.18096497E+04</rscale>
<asrwt>0</asrwt>
<pdfrwt beam="1">  1        1 0.11186365E+00 0.18096497E+04</pdfrwt>
<pdfrwt beam="2">  1       -1 0.17322610E+00 0.18096497E+04</pdfrwt>
<totfact> 0.56464085E+00</totfact>
</mgrwt>
</event>
<event>
12    1  0.1489233E-007  0.2030383E+04  0.7818608E-02  0.8592546E-01
          1   -1    0    0  501    0  0.00000000000E+00  0.00000000000E+00  0.60390734313E+03  0.60390734313E+03  0.00000000000E+00 0. -1.
         -1   -1    0    0    0  501 -0.00000000000E+00 -0.00000000000E+00 -0.17065752817E+04  0.17065752817E+04  0.00000000000E+00 0.  1.
         23    2    1    2    0    0 -0.47366047008E+02  0.62205927943E+03 -0.10427934607E+04  0.12187003264E+04  0.92795443227E+02 0.  0.
        254    2    1    2    0    0  0.47366047008E+02 -0.62205927943E+03 -0.59874477888E+02  0.10917822985E+04  0.89398117690E+03 0.  0.
        -24    2    4    4    0    0 -0.14121716318E+03 -0.12671262640E+03 -0.40455724525E+03  0.45453305121E+03  0.83278767356E+02 0.  0.
         24    2    4    4    0    0  0.18858321018E+03 -0.49534665303E+03  0.34468276737E+03  0.63724924728E+03  0.79677218869E+02 0.  0.
         11    1    3    3    0    0 -0.86559075959E+01  0.95477332786E+01 -0.49032921754E+02  0.50698238262E+02  0.00000000000E+00 0. -1.
        -11    1    3    3    0    0 -0.38710139412E+02  0.61251154615E+03 -0.99376053896E+03  0.11680020881E+04  0.00000000000E+00 0.  1.
          2    1    6    6  502    0  0.27071810964E+02 -0.20548827661E+02  0.28749567824E+02  0.44516007426E+02  0.00000000000E+00 0. -1.
          1    1    5    5  503    0 -0.12287416447E+02  0.74211776510E+01 -0.78406360628E+01  0.16356346002E+02  0.00000000000E+00 0. -1.
         -2    1    5    5    0  503 -0.12892974673E+03 -0.13413380405E+03 -0.39671660919E+03  0.43817670521E+03  0.00000000000E+00 0.  1.
         -1    1    6    6    0  502  0.16151139922E+03 -0.47479782536E+03  0.31593319954E+03  0.59273323985E+03  0.00000000000E+00 0.  1.
<mgrwt>
<rscale>  0 0.20303826E+04</rscale>
<asrwt>0</asrwt>
<pdfrwt beam="1">  1        1 0.92908821E-01 0.20303826E+04</pdfrwt>
<pdfrwt beam="2">  1       -1 0.26255005E+00 0.20303826E+04</pdfrwt>
<totfact> 0.18131660E+00</totfact>
</mgrwt>
</event>
<event>
12    1  0.1489233E-007  0.1205893E+04  0.7818608E-02  0.9107714E-01
         -1   -1    0    0    0  501 -0.00000000000E+00  0.00000000000E+00  0.18130171869E+03  0.18130171869E+03  0.00000000000E+00 0.  1.
          1   -1    0    0  501    0  0.00000000000E+00 -0.00000000000E+00 -0.20051909369E+04  0.20051909369E+04  0.00000000000E+00 0. -1.
         23    2    1    2    0    0 -0.23606578523E+03  0.18211745976E+02 -0.54831550304E+03  0.60433782292E+03  0.92279958246E+02 0.  0.
        254    2    1    2    0    0  0.23606578523E+03 -0.18211745976E+02 -0.12755737152E+04  0.15821548327E+04  0.90557544636E+03 0.  0.
        -24    2    4    4    0    0  0.12112458238E+03  0.40423105250E+03 -0.34474106948E+03  0.55047926277E+03  0.78147971734E+02 0.  0.
         24    2    4    4    0    0  0.11494120285E+03 -0.42244279848E+03 -0.93083264569E+03  0.10316755699E+04  0.78966253207E+02 0.  0.
         13    1    3    3    0    0 -0.19511403094E+03 -0.10873293203E+02 -0.36208759325E+03  0.41145490489E+03  0.00000000000E+00 0.  1.
        -13    1    3    3    0    0 -0.40951754293E+02  0.29085039179E+02 -0.18622790979E+03  0.19288291803E+03  0.00000000000E+00 0. -1.
          4    1    6    6  502    0  0.87553819790E+02 -0.17648321226E+03 -0.43377907640E+03  0.47642027948E+03  0.00000000000E+00 0. -1.
          3    1    5    5  503    0  0.67416471776E+02  0.29412239954E+03 -0.20583954628E+03  0.36527097529E+03  0.00000000000E+00 0. -1.
         -4    1    5    5    0  503  0.53708110607E+02  0.11010865296E+03 -0.13890152320E+03  0.18520828748E+03  0.00000000000E+00 0.  1.
         -1    1    6    6    0  502  0.27387383056E+02 -0.24595958622E+03 -0.49705356928E+03  0.55525529042E+03  0.00000000000E+00 0.  1.
<mgrwt>
<rscale>  0 0.12058931E+04</rscale>
<asrwt>0</asrwt>
<pdfrwt beam="1">  1        1 0.30849093E+00 0.12058931E+04</pdfrwt>
<pdfrwt beam="2">  1       -1 0.27892570E-01 0.12058931E+04</pdfrwt>
<totfact> 0.33959205E+01</totfact>
</mgrwt>
</event>
<event>
12    1  0.1489233E-007  0.1330591E+04  0.7818608E-02  0.9005652E-01
         -1   -1    0    0    0  501 -0.00000000000E+00  0.00000000000E+00  0.55413935325E+03  0.55413935325E+03  0.00000000000E+00 0.  1.
          1   -1    0    0  501    0  0.00000000000E+00 -0.00000000000E+00 -0.79874816946E+03  0.79874816946E+03  0.00000000000E+00 0. -1.
         23    2    1    2    0    0  0.19226252010E+03  0.15977734316E+03  0.18552436009E+03  0.32396400332E+03  0.89664436861E+02 0.  0.
        254    2    1    2    0    0 -0.19226252010E+03 -0.15977734316E+03 -0.43013317630E+03  0.10289235194E+04  0.90065275406E+03 0.  0.
        -24    2    4    4    0    0  0.15306577750E+03  0.29138731676E+03 -0.52966186481E+02  0.34239055975E+03  0.78039591767E+02 0.  0.
         24    2    4    4    0    0 -0.34532829760E+03 -0.45116465992E+03 -0.37716698982E+03  0.68653295965E+03  0.79192063918E+02 0.  0.
         11    1    3    3    0    0  0.55126061771E+02  0.54321055981E+02  0.10899549862E+02  0.78156637571E+02  0.00000000000E+00 0. -1.
        -11    1    3    3    0    0  0.13713645832E+03  0.10545628718E+03  0.17462481023E+03  0.24580736575E+03  0.00000000000E+00 0.  1.
          4    1    6    6  502    0 -0.19668607101E+03 -0.29976970625E+03 -0.20285801931E+03  0.41194497607E+03  0.00000000000E+00 0. -1.
          1    1    5    5  503    0  0.15931110217E+03  0.27253674280E+03 -0.59977446038E+02  0.32133097809E+03  0.00000000000E+00 0. -1.
         -2    1    5    5    0  503 -0.62453246662E+01  0.18850573965E+02  0.70112595570E+01  0.21059581657E+02  0.00000000000E+00 0.  1.
         -3    1    6    6    0  502 -0.14864222659E+03 -0.15139495367E+03 -0.17430897051E+03  0.27458798357E+03  0.00000000000E+00 0.  1.
<mgrwt>
<rscale>  0 0.13305905E+04</rscale>
<asrwt>0</asrwt>
<pdfrwt beam="1">  1        1 0.12288433E+00 0.13305905E+04</pdfrwt>
<pdfrwt beam="2">  1       -1 0.85252208E-01 0.13305905E+04</pdfrwt>
<totfact> 0.29569156E+01</totfact>
</mgrwt>
</event>
