<LesHouchesEvents version="3.0">
  <!--
  <scalesfunctionalform>
    muR  H_T/2 := sum_i mT(i)/2, i=final state
    muF1 H_T/2 := sum_i mT(i)/2, i=final state
    muF2 H_T/2 := sum_i mT(i)/2, i=final state
    QES  H_T/2 := sum_i mT(i)/2, i=final state
  </scalesfunctionalform>
HERWIG6   
  -->
  <header>
      562
  </header>
  <init>
   2212   2212 0.65000000D+04 0.65000000D+04 -1 -1   244800   244800 -4   1
 0.14387611D-02 0.48649651D-05 0.27727860D-05     66
  </init>
  <event>
  8     66 0.27727860E-05 0.21308052E+03 0.75467711E-02 0.10462396E+00
        1 -1    0    0  501    0 0.00000000E+00 0.00000000E+00 0.13138992E+04 0.13138992E+04 0.32000000E+00 0.0000E+00 0.9000E+01
       -1 -1    0    0    0  501 0.00000000E+00 0.00000000E+00 -.55852277E+02 0.55853194E+02 0.32000000E+00 0.0000E+00 0.9000E+01
       25  2    1    2    0    0 -.90954579E+02 0.28198540E+02 0.11736028E+04 0.12151595E+04 0.30033535E+03 0.0000E+00 0.0000E+00
       23  2    1    2    0    0 0.90954579E+02 -.28198540E+02 0.84444158E+02 0.15459291E+03 0.87751123E+02 0.0000E+00 0.0000E+00
       24  1    3    3    0    0 0.83163932E+02 -.14789271E+02 0.37455807E+03 0.39229571E+03 0.80419002E+02 0.0000E+00 0.9000E+01
      -11  1    4    4    0    0 -.21920885E+00 0.12950128E+02 0.45403705E+02 0.47214937E+02 0.51099893E-03 0.0000E+00 0.9000E+01
       11  1    4    4    0    0 0.91173788E+02 -.41148668E+02 0.39040453E+02 0.10737797E+03 0.51099893E-03 0.0000E+00 0.9000E+01
      -24  1    3    3    0    0 -.17411851E+03 0.42987811E+02 0.79904469E+03 0.82286381E+03 0.80419002E+02 0.0000E+00 0.9000E+01
#aMCatNLO 1  0  0  1  1 0.27185025D+02 0.00000000D+00  -5  7  0 0.00000000D+00 0.00000000D+00 0.00000000D+00 0.00000000D+00 0.00000000D+00
  <mgrwgt>
 0.2397377610D-03    4    2    0
 0.270896506114067D+03 0.000000000000000D+00 0.000000000000000D+00 0.270896506114067D+03
 0.270896506114067D+03 0.000000000000000D+00 0.000000000000000D+00 -.270896506114067D+03
 0.122069457644522D+03 0.831639322372849D+02 -.147892712622960D+02 0.360385122559150D+02
 0.139403492418605D+02 -.219208847284573D+00 0.129501280983376D+02 0.515552778122262D+01
 0.180819091494326D+03 0.911737876259758D+02 -.411486679739161D+02 -.150630911245798D+03
 0.224964113847426D+03 -.174118511015976D+03 0.429878111378745D+02 0.109436871208660D+03
 0.000000000000000D+00 0.000000000000000D+00 -.000000000000000D+00 -.000000000000000D+00
 0.278888466565025D+03 0.000000000000000D+00 0.000000000000000D+00 0.278888466565025D+03
 0.295384783782621D+03 0.000000000000000D+00 0.000000000000000D+00 -.295384783782621D+03
 0.117992850913709D+03 0.771841259854362D+02 -.141043696285492D+02 0.360385122559150D+02
 0.140427544780527D+02 -.916250959290585D+00 0.130299643440614D+02 0.515552778122262D+01
 0.176266598883672D+03 0.822790000327367D+02 -.401298967465780D+02 -.150630911245798D+03
 0.234172397584537D+03 -.185555322558788D+03 0.442977350017294D+02 0.109436871208660D+03
 0.317986484876748D+02 0.270084474999057D+02 -.309343297066357D+01 -.164963172175958D+02
0.105126732052D-04 0.000000000000D+00 0.000000000000D+00 0.148597123974D-06 0.000000000000D+00  7 1 -1 24 -11 11 -24 21 0 0.20213841D+00 0.85927316D-02 0.45403309D+05 0.45403309D+05 0.45403309D+05 0.11509977D+01  1  2  2  1  7  1        1 0.844143956455D-03 0.100000000000D+01
-.543112645709D-06 0.000000000000D+00 -.403714331582D-07 0.148597123974D-06 0.000000000000D+00  7 1 -1 24 -11 11 -24 21 2 0.20213841D+00 0.85927316D-02 0.45403309D+05 0.45403309D+05 0.45403309D+05 0.11509977D+01  1  2  3  1  7  1        1 -.577752932180D-04 0.100000000000D+01
0.632137568522D-06 0.000000000000D+00 0.000000000000D+00 0.148597123974D-06 0.000000000000D+00  7 1 -1 24 -11 11 -24 21 2 0.20213841D+00 0.85927316D-02 0.45403309D+05 0.45403309D+05 0.45403309D+05 0.11509977D+01  1  2 15  1  7  1        1 0.672455956680D-04 0.100000000000D+01
-.577070353652D-05 0.000000000000D+00 0.000000000000D+00 0.148597123974D-06 0.000000000000D+00  7 1 -1 24 -11 11 -24 21 2 0.20213841D+00 0.85927316D-02 0.45403309D+05 0.45403309D+05 0.45403309D+05 0.11509977D+01  1  2  4  1  7  1        1 -.613876497870D-03 0.100000000000D+01
  </mgrwgt>
  </event>
  <event>
  9     66 -.27727860E-05 0.67776170E+03 0.75467711E-02 0.91206454E-01
        1 -1    0    0  502    0 0.00000000E+00 0.00000000E+00 0.27471334E+04 0.27471334E+04 0.32000000E+00 0.0000E+00 0.9000E+01
       -1 -1    0    0    0  501 0.00000000E+00 0.00000000E+00 -.22451135E+03 0.22451158E+03 0.32000000E+00 0.0000E+00 0.9000E+01
       25  2    1    2    0    0 -.44505211E+03 -.48518167E+03 0.62169904E+03 0.95303604E+03 0.29714533E+03 0.0000E+00 0.0000E+00
       23  2    1    2    0    0 0.44936641E+03 0.47421091E+03 0.18139926E+04 0.19308797E+04 0.10450342E+03 0.0000E+00 0.0000E+00
       24  1    3    3    0    0 -.19886638E+03 -.11742948E+03 0.35189466E+03 0.42852606E+03 0.80419002E+02 0.0000E+00 0.9000E+01
      -13  1    4    4    0    0 0.20089208E+03 0.13961483E+03 0.69407268E+03 0.73592583E+03 0.10565837E+00 0.0000E+00 0.9000E+01
       13  1    4    4    0    0 0.24847433E+03 0.33459608E+03 0.11199199E+04 0.11949538E+04 0.10565837E+00 0.0000E+00 0.9000E+01
      -24  1    3    3    0    0 -.24618573E+03 -.36775220E+03 0.26980438E+03 0.52450997E+03 0.80419002E+02 0.0000E+00 0.9000E+01
       21  1    1    2  502  501 -.43142966E+01 0.10970766E+02 0.86930424E+02 0.87729311E+02 0.75000000E+00 0.0000E+00 0.9000E+01
#aMCatNLO 2  0  0  1  2 0.11788591D+02 0.00000000D+00  -5  7  0 0.00000000D+00 0.00000000D+00 0.00000000D+00 0.00000000D+00 0.00000000D+00
  <mgrwgt>
 -.8038155367D-03    3    2    0
 0.772048736680466D+03 0.000000000000000D+00 0.000000000000000D+00 0.772048736680466D+03
 0.772048736680466D+03 0.000000000000000D+00 0.000000000000000D+00 -.772048736680466D+03
 0.244994787780515D+03 -.199551275953349D+03 -.115687858383036D+03 -.187306639867812D+02
 0.280076684635248D+03 0.200110104799750D+03 0.141602979084827D+03 0.135452912658265D+03
 0.466917161541872D+03 0.247172172439571D+03 0.337907634524095D+03 0.206726832907951D+03
 0.552108839403297D+03 -.247731001285971D+03 -.363822755225887D+03 -.323449081579435D+03
 0.000000000000000D+00 -.000000000000000D+00 0.000000000000000D+00 0.000000000000000D+00
 0.797415389243285D+03 0.000000000000000D+00 0.000000000000000D+00 0.797415389243285D+03
 0.773442074330314D+03 0.000000000000000D+00 0.000000000000000D+00 -.773442074330314D+03
 0.245266328833764D+03 -.198866377137186D+03 -.117429478310032D+03 -.187306639867812D+02
 0.279637881113254D+03 0.200892030656155D+03 0.139614630410819D+03 0.135452912658265D+03
 0.465220558545552D+03 0.248474376508697D+03 0.334596277426839D+03 0.206726832907951D+03
 0.554017704892725D+03 -.246185733396999D+03 -.367752196019866D+03 -.323449081579435D+03
 0.267149901883029D+02 -.431429663066670D+01 0.109707664922393D+02 0.239733149129714D+02
-.130923399689D-02 0.000000000000D+00 0.000000000000D+00 0.232397866839D-08 0.000000000000D+00  7 1 -1 24 -13 13 -24 21 2 0.42299562D+00 0.34477769D-01 0.46754356D+06 0.46754356D+06 0.46754356D+06 0.10705765D+01  1  2 13  1  7  1        1 -.129453684474D-02 0.100000000000D+01
-.520997699275D-02 0.000000000000D+00 0.000000000000D+00 0.232397866839D-08 0.000000000000D+00  7 1 -1 24 -13 13 -24 21 2 0.40918864D+00 0.34477769D-01 0.45936093D+06 0.45936093D+06 0.45936093D+06 0.10711221D+01  1  2  8  1  7  1        1 -.598465223806D-02 0.100000000000D+01
0.654371513426D-02 0.000000000000D+00 0.000000000000D+00 0.232397866839D-08 0.102299902555D-09  7 1 -1 24 -13 13 -24 21 2 0.42263306D+00 0.34539992D-01 0.46754356D+06 0.46754356D+06 0.46754356D+06 0.10705765D+01  1  2  1  1  7  1        1 0.647537354612D-02 0.100000000000D+01
  </mgrwgt>
  </event>
  <event>
  9     66 0.27727860E-05 0.21421145E+03 0.75467711E-02 0.10297805E+00
        1 -1    0    0  501    0 0.00000000E+00 0.00000000E+00 0.16016662E+04 0.16016663E+04 0.32000000E+00 0.0000E+00 0.9000E+01
       21 -1    0    0  502  501 0.00000000E+00 0.00000000E+00 -.31487742E+03 0.31487831E+03 0.75000000E+00 0.0000E+00 0.9000E+01
       25  2    1    2    0    0 0.58605812E+02 0.28882349E+02 0.67589310E+03 0.74207617E+03 0.29929371E+03 0.0000E+00 0.0000E+00
       23  2    1    2    0    0 -.11681142E+03 -.65802979E+02 0.88091430E+03 0.89579088E+03 0.91958430E+02 0.0000E+00 0.0000E+00
       24  1    3    3    0    0 0.15443079E+03 0.43929701E+02 0.37100146E+03 0.41217471E+03 0.80419002E+02 0.0000E+00 0.9000E+01
      -13  1    4    4    0    0 -.68252698E+02 -.34044784E+02 0.73214663E+03 0.73610881E+03 0.10565837E+00 0.0000E+00 0.9000E+01
       13  1    4    4    0    0 -.48558726E+02 -.31758195E+02 0.14876767E+03 0.15968207E+03 0.10565837E+00 0.0000E+00 0.9000E+01
      -24  1    3    3    0    0 -.95824976E+02 -.15047352E+02 0.30489164E+03 0.32990146E+03 0.80419002E+02 0.0000E+00 0.9000E+01
        1  1    1    2  502    0 0.58205612E+02 0.36920630E+02 -.27001858E+03 0.27867753E+03 0.32000000E+00 0.0000E+00 0.9000E+01
#aMCatNLO 2  0  0  2  1 0.68927688D+02 0.00000000D+00  -5  7  0 0.00000000D+00 0.00000000D+00 0.00000000D+00 0.00000000D+00 0.00000000D+00
  <mgrwgt>
 0.3210736101D-03    2    2    0
 0.252095297633561D+03 0.000000000000000D+00 0.000000000000000D+00 0.252095297633561D+03
 0.252095297633561D+03 0.000000000000000D+00 0.000000000000000D+00 -.252095297633561D+03
 0.214443104640652D+03 0.177760754648026D+03 0.587282246042962D+02 -.668635843740252D+02
 0.120207456757758D+03 -.539129774161297D+02 -.249488860355080D+02 0.104502519643708D+03
 0.514417027787369D+02 -.422233159702582D+02 -.277395695687342D+02 -.969312402649453D+01
 0.118098331089974D+03 -.816244612616385D+02 -.603976900005390D+01 -.279458112431878D+02
 0.000000000000000D+00 0.000000000000000D+00 0.000000000000000D+00 -.000000000000000D+00
 0.255129788799950D+03 0.000000000000000D+00 0.000000000000000D+00 0.255129788799950D+03
 0.197675604924713D+04 0.000000000000000D+00 0.000000000000000D+00 -.197675604924713D+04
 0.191615870237321D+03 0.154430787672684D+03 0.439297015228588D+02 -.668635843740252D+02
 0.129376423124072D+03 -.682527261606829D+02 -.340447884430239D+02 0.104502519643708D+03
 0.588259021679122D+02 -.485587000918098D+02 -.317581919804866D+02 -.969312402649453D+01
 0.129062126897311D+03 -.958249732049757D+02 -.150473515647359D+02 -.279458112431878D+02
 0.172300551562047D+04 0.582056117847846D+02 0.369206304653876D+02 -.172162626044718D+04
-.877481179907D-04 0.000000000000D+00 0.000000000000D+00 0.344988518426D-06 0.000000000000D+00  7 1 21 24 -13 13 -24 1 2 0.24347947D+00 0.48062479D-01 0.64717735D+05 0.64717735D+05 0.64717735D+05 0.11375677D+01  1  2 13  4  7  2       -1 -.357873674117D-02 0.100000000000D+01
0.100051465959D-03 0.000000000000D+00 0.000000000000D+00 0.344988518426D-06 0.507706420515D-09  7 1 21 24 -13 13 -24 1 2 0.24641025D+00 0.48442748D-01 0.64717735D+05 0.64717735D+05 0.64717735D+05 0.11375677D+01  1  2  1  4  7  2       -1 0.389981035126D-02 0.100000000000D+01
  </mgrwgt>
  </event>
  <event>
  7     66 0.27727860E-05 0.41728790E+03 0.75467711E-02 0.95233363E-01
        1 -1    0    0  501    0 0.00000000E+00 0.00000000E+00 0.47445493E+03 0.47445504E+03 0.32000000E+00 0.0000E+00 0.9000E+01
       -1 -1    0    0    0  501 0.00000000E+00 0.00000000E+00 -.11228632E+04 0.11228633E+04 0.32000000E+00 0.0000E+00 0.9000E+01
       25  2    1    2    0    0 0.13975311E+03 0.27961928E+03 0.20433181E+03 0.47908872E+03 0.30009439E+03 0.0000E+00 0.0000E+00
       24  1    3    3    0    0 0.57992366E+01 0.10079817E+03 0.20426138E+03 0.24162746E+03 0.80419002E+02 0.0000E+00 0.9000E+01
      -11  1    1    2    0    0 0.11508446E+03 -.12523216E+03 0.41993884E+02 0.17518850E+03 0.51099893E-03 0.0000E+00 0.9000E+01
       11  1    1    2    0    0 -.25483757E+03 -.15438712E+03 -.89473401E+03 0.94304110E+03 0.51099893E-03 0.0000E+00 0.9000E+01
      -24  1    3    3    0    0 0.13395387E+03 0.17882112E+03 0.70430100E-01 0.23746127E+03 0.80419002E+02 0.0000E+00 0.9000E+01
#aMCatNLO 1  0  0  1  1 0.94237833D+02 0.00000000D+00  -5  7  0 0.00000000D+00 0.00000000D+00 0.00000000D+00 0.00000000D+00 0.00000000D+00
  <mgrwgt>
 0.2678968430D-02    4    2    0
 0.729895967699423D+03 0.000000000000000D+00 0.000000000000000D+00 0.729895967699423D+03
 0.729895967699423D+03 0.000000000000000D+00 0.000000000000000D+00 -.729895967699423D+03
 0.355119643767311D+03 0.579924629739456D+01 0.100798186251152D+03 0.330830530371536D+03
 0.210345670753008D+03 0.115084422907112D+03 -.125232156630767D+03 0.123765034457543D+03
 0.634462921429915D+03 -.254837549952422D+03 -.154387160626884D+03 -.560147861227014D+03
 0.259863699448611D+03 0.133953880747916D+03 0.178821131006499D+03 0.105552296397935D+03
 0.000000000000000D+00 0.000000000000000D+00 0.000000000000000D+00 -.000000000000000D+00
 0.766378253101898D+03 0.000000000000000D+00 0.000000000000000D+00 0.766378253101898D+03
 0.794916531497952D+03 0.000000000000000D+00 0.000000000000000D+00 -.794916531497952D+03
 0.354712495570217D+03 -.169260143550801D+02 0.980734865874587D+02 0.330830530371536D+03
 0.204369406926472D+03 0.101807328627367D+03 -.126824045712792D+03 0.123765034457543D+03
 0.653304275494748D+03 -.296065389025941D+03 -.159330271334227D+03 -.560147861227014D+03
 0.250444387637811D+03 0.117616378330897D+03 0.176862306946261D+03 0.105552296397935D+03
 0.984642189706014D+02 0.935676964227579D+02 0.112185235132991D+02 -.285382783960543D+02
0.102392040402D-01 0.000000000000D+00 0.000000000000D+00 0.505936689649D-09 0.000000000000D+00  7 1 -1 24 -11 11 -24 21 0 0.72993078D-01 0.17274820D+00 0.17412919D+06 0.17412919D+06 0.17412919D+06 0.11024758D+01  1  2  2  1  7  1        1 0.143344942570D-01 0.100000000000D+01
-.352625611305D-03 0.000000000000D+00 -.393212395588D-04 0.505936689649D-09 0.000000000000D+00  7 1 -1 24 -11 11 -24 21 2 0.72993078D-01 0.17274820D+00 0.17412919D+06 0.17412919D+06 0.17412919D+06 0.11024758D+01  1  2  3  1  7  1        1 -.600023374206D-03 0.100000000000D+01
0.603752941385D-03 0.000000000000D+00 0.000000000000D+00 0.505936689649D-09 0.000000000000D+00  7 1 -1 24 -11 11 -24 21 2 0.72993078D-01 0.17274820D+00 0.17412919D+06 0.17412919D+06 0.17412919D+06 0.11024758D+01  1  2 15  1  7  1        1 0.102733852977D-02 0.100000000000D+01
-.710092201573D-02 0.000000000000D+00 0.000000000000D+00 0.505936689649D-09 0.000000000000D+00  7 1 -1 24 -11 11 -24 21 2 0.72993078D-01 0.17274820D+00 0.17412919D+06 0.17412919D+06 0.17412919D+06 0.11024758D+01  1  2  4  1  7  1        1 -.120828409828D-01 0.100000000000D+01
  </mgrwgt>
  </event>
  <event>
  8     66 0.27727860E-05 0.14629248E+03 0.75467711E-02 0.10414738E+00
        1 -1    0    0  501    0 0.00000000E+00 0.00000000E+00 0.27096595E+03 0.27096614E+03 0.32000000E+00 0.0000E+00 0.9000E+01
       -1 -1    0    0    0  501 0.00000000E+00 0.00000000E+00 -.93766841E+03 0.93766847E+03 0.32000000E+00 0.0000E+00 0.9000E+01
       25  2    1    2    0    0 -.17421673E+02 0.18724317E+03 -.85610375E+03 0.92626513E+03 0.29948278E+03 0.0000E+00 0.0000E+00
       23  2    1    2    0    0 0.17421673E+02 -.18724317E+03 0.18940129E+03 0.28236948E+03 0.92174595E+02 0.0000E+00 0.0000E+00
       24  1    3    3    0    0 -.41255363E+02 0.68687500E+02 -.85556366E+02 0.14215163E+03 0.80419002E+02 0.0000E+00 0.9000E+01
      -11  1    4    4    0    0 0.15814854E+02 -.76433809E+01 -.44322416E+01 0.18115619E+02 0.51099893E-03 0.0000E+00 0.9000E+01
       11  1    4    4    0    0 0.16068196E+01 -.17959979E+03 0.19383353E+03 0.26425386E+03 0.51099893E-03 0.0000E+00 0.9000E+01
      -24  1    3    3    0    0 0.23833690E+02 0.11855567E+03 -.77054739E+03 0.78411350E+03 0.80419002E+02 0.0000E+00 0.9000E+01
#aMCatNLO 1  0  0  1  2 0.10934777D+02 0.00000000D+00  -5  7  0 0.00000000D+00 0.00000000D+00 0.00000000D+00 0.00000000D+00 0.00000000D+00
  <mgrwgt>
 0.7848182061D-03    9    2    0
 0.504059878209343D+03 0.000000000000000D+00 0.000000000000000D+00 0.504059878209343D+03
 0.504059878209343D+03 0.000000000000000D+00 0.000000000000000D+00 -.504059878209343D+03
 0.113844349207967D+03 -.412553629826904D+02 0.686875003454563D+02 -.856400687028901D+01
 0.187876261996890D+02 0.158148537563730D+02 -.764338084796578D+01 0.666663544051449D+01
 0.445002344309579D+03 0.160681956268858D+01 -.179599786467134D+03 0.407146682748213D+03
 0.430485436701451D+03 0.238336896636288D+02 0.118555666969644D+03 -.405249311318439D+03
 0.000000000000000D+00 -.000000000000000D+00 -.000000000000000D+00 0.000000000000000D+00
 0.514253729825008D+03 0.000000000000000D+00 0.000000000000000D+00 0.514253729825008D+03
 0.507030471823221D+03 0.000000000000000D+00 0.000000000000000D+00 -.507030471823221D+03
 0.114186557124868D+03 -.405232278057288D+02 0.696841421572428D+02 -.856400687028901D+01
 0.188234723888810D+02 0.159356111079255D+02 -.747899614221067D+01 0.666663544051449D+01
 0.443468859831171D+03 0.445941982082839D+01 -.175716595522296D+03 0.407146682748213D+03
 0.431700168471872D+03 0.266018951703683D+02 0.122323972930687D+03 -.405249311318439D+03
 0.131051438314376D+02 -.647369829339338D+01 -.881252342342367D+01 0.722325800178782D+01
0.723305121163D-04 0.000000000000D+00 0.000000000000D+00 0.547548494754D-05 0.000000000000D+00  7 1 -1 24 -11 11 -24 21 0 0.41687088D-01 0.14425670D+00 0.51965806D+05 0.51965806D+05 0.51965806D+05 0.11458252D+01  1  2  2  1  7  1        1 0.385219894758D-03 0.100000000000D+01
-.941902477610D-06 0.000000000000D+00 -.277768211588D-06 0.547548494754D-05 0.000000000000D+00  7 1 -1 24 -11 11 -24 21 2 0.41687088D-01 0.14425670D+00 0.51965806D+05 0.51965806D+05 0.51965806D+05 0.11458252D+01  1  2  3  1  7  1        1 -.658612290150D-05 0.100000000000D+01
0.424439379070D-05 0.000000000000D+00 0.000000000000D+00 0.547548494754D-05 0.000000000000D+00  7 1 -1 24 -11 11 -24 21 2 0.41687088D-01 0.14425670D+00 0.51965806D+05 0.51965806D+05 0.51965806D+05 0.11458252D+01  1  2 15  1  7  1        1 0.296783369960D-04 0.100000000000D+01
0.103336424181D-03 0.000000000000D+00 0.000000000000D+00 0.547548494754D-05 0.000000000000D+00  7 1 -1 24 -11 11 -24 21 2 0.42651357D-01 0.14425670D+00 0.54514038D+05 0.54514038D+05 0.54514038D+05 0.11440081D+01  1  2 12  1  7  1        1 0.697913455356D-03 0.100000000000D+01
-.102554235773D-03 0.000000000000D+00 0.000000000000D+00 0.547548494754D-05 0.000000000000D+00  7 1 -1 24 -11 11 -24 21 2 0.41687088D-01 0.14425670D+00 0.51965806D+05 0.51965806D+05 0.51965806D+05 0.11458252D+01  1  2  4  1  7  1        1 -.717096320398D-03 0.100000000000D+01
-.288722696908D-02 0.000000000000D+00 -.395292746770D-03 0.547548494754D-05 0.000000000000D+00  7 1 -1 24 -11 11 -24 21 2 0.42740777D-01 0.14425670D+00 0.51965806D+05 0.51965806D+05 0.51965806D+05 0.11458252D+01  1  2  5  1  7  1        1 -.195467558013D-01 0.100000000000D+01
0.289631498668D-02 0.000000000000D+00 0.395169625168D-03 0.547548494754D-05 0.000000000000D+00  7 1 -1 24 -11 11 -24 21 2 0.41687088D-01 0.14425670D+00 0.51965806D+05 0.51965806D+05 0.51965806D+05 0.11458252D+01  1  2  6  1  7  1        1 0.202520822667D-01 0.100000000000D+01
0.405868253943D-05 0.000000000000D+00 0.000000000000D+00 0.547548494754D-05 0.000000000000D+00  7 21 -1 24 -11 11 -24 -1 2 0.42651357D-01 0.14425670D+00 0.54514038D+05 0.54514038D+05 0.54514038D+05 0.11440081D+01  1  2 12  3  7  1        1 0.141166883961D-03 0.100000000000D+01
-.129317608614D-04 0.000000000000D+00 -.178275340280D-05 0.547548494754D-05 0.000000000000D+00  7 21 -1 24 -11 11 -24 -1 2 0.42740777D-01 0.14425670D+00 0.51965806D+05 0.51965806D+05 0.51965806D+05 0.11458252D+01  1  2  5  3  7  1        1 -.450804386966D-03 0.100000000000D+01
  </mgrwgt>
  </event>
  <event>
  8     66 0.27727860E-05 0.30061041E+03 0.75467711E-02 0.94150960E-01
        1 -1    0    0  501    0 0.00000000E+00 0.00000000E+00 0.19593186E+03 0.19593213E+03 0.32000000E+00 0.0000E+00 0.9000E+01
       -1 -1    0    0    0  501 0.00000000E+00 0.00000000E+00 -.59679891E+03 0.59679900E+03 0.32000000E+00 0.0000E+00 0.9000E+01
       25  2    1    2    0    0 -.17707179E+03 0.18115638E+03 -.13730554E+03 0.41584256E+03 0.29983357E+03 0.0000E+00 0.0000E+00
       23  2    1    2    0    0 0.17707179E+03 -.18115638E+03 -.26356151E+03 0.37688857E+03 0.91696634E+02 0.0000E+00 0.0000E+00
       24  1    3    3    0    0 -.12019661E+03 0.19883417E+03 0.91497504E-01 0.24586476E+03 0.80419002E+02 0.0000E+00 0.9000E+01
      -11  1    4    4    0    0 0.49817098E+02 -.72418675E+02 -.37404501E+02 0.95526459E+02 0.51099893E-03 0.0000E+00 0.9000E+01
       11  1    4    4    0    0 0.12725469E+03 -.10873770E+03 -.22615701E+03 0.28136211E+03 0.51099893E-03 0.0000E+00 0.9000E+01
      -24  1    3    3    0    0 -.56875177E+02 -.17677799E+02 -.13739704E+03 0.16997780E+03 0.80419002E+02 0.0000E+00 0.9000E+01
#aMCatNLO 1  0  0  1  1 0.35232312D+03 0.00000000D+00  -5  7  0 0.00000000D+00 0.00000000D+00 0.00000000D+00 0.00000000D+00 0.00000000D+00
  <mgrwgt>
 0.4254366374D-03    5    2    0
 0.341953302906982D+03 0.000000000000000D+00 0.000000000000000D+00 0.341953302906982D+03
 0.341953302906982D+03 0.000000000000000D+00 0.000000000000000D+00 -.341953302906982D+03
 0.285040855570569D+03 -.120196612352310D+03 0.198834174228916D+03 0.144217956329179D+03
 0.888024256681957D+02 0.498170977022539D+02 -.724186749301906D+02 0.126357865776094D+02
 0.193572641070124D+03 0.127254691622788D+03 -.108737700519347D+03 -.972251166963394D+02
 0.116490683505076D+03 -.568751769727318D+02 -.176777987793781D+02 -.596286262104494D+02
 0.000000000000000D+00 0.000000000000000D+00 0.000000000000000D+00 0.000000000000000D+00
 0.855790342414636D+03 0.000000000000000D+00 0.000000000000000D+00 0.855790342414636D+03
 0.450531455439090D+03 0.000000000000000D+00 0.000000000000000D+00 -.450531455439090D+03
 0.251491455849546D+03 -.172181324729612D+03 0.795959100553831D+02 0.144217956329179D+03
 0.123835714916063D+03 0.292145499275281D+02 -.119675107097799D+03 0.126357865776094D+02
 0.242899496159978D+03 0.849648275611873D+02 -.205738717784601D+03 -.972251166963394D+02
 0.151097600208848D+03 -.828018540214732D+02 -.771462814487088D+02 -.596286262104494D+02
 0.536997530719291D+03 0.140803801262369D+03 0.322964196275726D+03 0.405258886975546D+03
0.194081767128D-04 0.000000000000D+00 0.000000000000D+00 0.219130140279D-05 0.000000000000D+00  7 1 -1 24 -11 11 -24 21 0 0.30143390D-01 0.91815244D-01 0.90366617D+05 0.90366617D+05 0.90366617D+05 0.11253501D+01  1  2  2  1  7  1        1 0.453454784621D-03 0.100000000000D+01
-.105646377256D-05 0.000000000000D+00 -.745325088673D-07 0.219130140279D-05 0.000000000000D+00  7 1 -1 24 -11 11 -24 21 2 0.30143390D-01 0.91815244D-01 0.90366617D+05 0.90366617D+05 0.90366617D+05 0.11253501D+01  1  2  3  1  7  1        1 -.312592924874D-04 0.100000000000D+01
0.122245713672D-05 0.000000000000D+00 0.000000000000D+00 0.219130140279D-05 0.000000000000D+00  7 1 -1 24 -11 11 -24 21 2 0.30143390D-01 0.91815244D-01 0.90366617D+05 0.90366617D+05 0.90366617D+05 0.11253501D+01  1  2 15  1  7  1        1 0.361708050787D-04 0.100000000000D+01
-.440868747742D-05 0.000000000000D+00 -.668731724145D-05 0.219130140279D-05 0.000000000000D+00  7 1 -1 24 -11 11 -24 21 2 0.93616769D-01 0.91815244D-01 0.90366617D+05 0.90366617D+05 0.90366617D+05 0.11253501D+01  1  2  5  1  7  1        1 -.287238127020D-04 0.100000000000D+01
-.261043801111D-06 0.000000000000D+00 -.867918512943D-06 0.219130140279D-05 0.000000000000D+00  7 21 -1 24 -11 11 -24 -1 2 0.93616769D-01 0.91815244D-01 0.90366617D+05 0.90366617D+05 0.90366617D+05 0.11253501D+01  1  2  5  3  7  1        1 -.420584709331D-05 0.100000000000D+01
  </mgrwgt>
  </event>
  <event>
  8     66 0.27727860E-05 0.98344608E+03 0.75467711E-02 0.84769636E-01
        1 -1    0    0  501    0 0.00000000E+00 0.00000000E+00 0.10377389E+04 0.10377390E+04 0.32000000E+00 0.0000E+00 0.9000E+01
       -1 -1    0    0    0  501 0.00000000E+00 0.00000000E+00 -.10101345E+04 0.10101346E+04 0.32000000E+00 0.0000E+00 0.9000E+01
       25  2    1    2    0    0 0.90652330E+03 0.34038594E+03 0.26263319E+03 0.10473008E+04 0.30035930E+03 0.0000E+00 0.0000E+00
       23  2    1    2    0    0 -.90652330E+03 -.34038594E+03 -.23502874E+03 0.10005727E+04 0.90885846E+02 0.0000E+00 0.0000E+00
       24  1    3    3    0    0 0.14161598E+03 0.27667172E+02 -.28178953E+02 0.16757633E+03 0.80419002E+02 0.0000E+00 0.9000E+01
      -11  1    4    4    0    0 -.89454411E+03 -.32459630E+03 -.23691589E+03 0.98066358E+03 0.51099893E-03 0.0000E+00 0.9000E+01
       11  1    4    4    0    0 -.11979189E+02 -.15789633E+02 0.18871497E+01 0.19909164E+02 0.51099893E-03 0.0000E+00 0.9000E+01
      -24  1    3    3    0    0 0.76490732E+03 0.31271876E+03 0.29081214E+03 0.87972447E+03 0.80419002E+02 0.0000E+00 0.9000E+01
#aMCatNLO 1  0  0  1  2 0.59000310D+03 0.00000000D+00  -5  7  0 0.00000000D+00 0.00000000D+00 0.00000000D+00 0.00000000D+00 0.00000000D+00
  <mgrwgt>
 0.1303518622D-02    3    2    0
 0.102384374682427D+04 0.000000000000000D+00 0.000000000000000D+00 0.102384374682427D+04
 0.102384374682427D+04 0.000000000000000D+00 0.000000000000000D+00 -.102384374682427D+04
 0.167971432234130D+03 0.141615977453511D+03 0.276671723461456D+02 -.304405748413193D+02
 0.983946500014516D+03 -.894544108810528D+03 -.324596302835103D+03 -.250157535303210D+03
 0.198855324537027D+02 -.119791886515626D+02 -.157896328772409D+02 0.161892983772959D+01
 0.875884028946194D+03 0.764907320008580D+03 0.312718763366198D+03 0.278979180306800D+03
 0.000000000000000D+00 0.000000000000000D+00 -.000000000000000D+00 -.000000000000000D+00
 0.116422576478193D+04 0.000000000000000D+00 0.000000000000000D+00 0.116422576478193D+04
 0.194695266676640D+04 0.000000000000000D+00 0.000000000000000D+00 -.194695266676640D+04
 0.164284829302226D+03 0.121263305045436D+03 0.699347655839248D+02 -.304405748413193D+02
 0.105153108532799D+04 -.101922921872205D+04 -.656553931166577D+02 -.250157535303210D+03
 0.180929314773073D+02 -.143055954779547D+02 -.109582468325992D+02 0.161892983772959D+01
 0.897083347562168D+03 0.656302521900572D+03 0.538264742688270D+03 0.278979180306800D+03
 0.980186237878646D+03 0.255968987254000D+03 -.531585868322938D+03 -.782726901984468D+03
0.249539068224D-02 0.000000000000D+00 0.000000000000D+00 0.281110433593D-04 0.000000000000D+00  7 1 -1 24 -11 11 -24 21 0 0.15965215D+00 0.15540532D+00 0.96716619D+06 0.96716619D+06 0.96716619D+06 0.10488305D+01  1  2  2  1  7  1        1 0.129405038867D-02 0.100000000000D+01
-.138359655592D-03 0.000000000000D+00 -.958295727126D-05 0.281110433593D-04 0.000000000000D+00  7 1 -1 24 -11 11 -24 21 2 0.15965215D+00 0.15540532D+00 0.96716619D+06 0.96716619D+06 0.96716619D+06 0.10488305D+01  1  2  3  1  7  1        1 -.789282908274D-04 0.100000000000D+01
0.154957271904D-03 0.000000000000D+00 0.000000000000D+00 0.281110433593D-04 0.000000000000D+00  7 1 -1 24 -11 11 -24 21 2 0.15965215D+00 0.15540532D+00 0.96716619D+06 0.96716619D+06 0.96716619D+06 0.10488305D+01  1  2 15  1  7  1        1 0.883965240471D-04 0.100000000000D+01
  </mgrwgt>
  </event>
  <event>
  8     66 0.27727860E-05 0.15841259E+03 0.75467711E-02 0.10042780E+00
        1 -1    0    0  501    0 0.00000000E+00 0.00000000E+00 0.17379103E+04 0.17379103E+04 0.32000000E+00 0.0000E+00 0.9000E+01
       -1 -1    0    0    0  501 0.00000000E+00 0.00000000E+00 -.74042925E+02 0.74043617E+02 0.32000000E+00 0.0000E+00 0.9000E+01
       25  2    1    2    0    0 -.11079507E+03 -.13866530E+03 0.39103540E+03 0.52381407E+03 0.29994813E+03 0.0000E+00 0.0000E+00
       23  2    1    2    0    0 0.11079507E+03 0.13866530E+03 0.12728319E+04 0.12881398E+04 0.87746776E+02 0.0000E+00 0.0000E+00
       24  1    3    3    0    0 -.13114363E+03 -.17203127E+03 0.36292426E+03 0.43008679E+03 0.80419002E+02 0.0000E+00 0.9000E+01
      -13  1    4    4    0    0 0.99694362E+02 0.10988723E+03 0.11986895E+04 0.12078372E+04 0.10565837E+00 0.0000E+00 0.9000E+01
       13  1    4    4    0    0 0.11100708E+02 0.28778062E+02 0.74142478E+02 0.80302682E+02 0.10565837E+00 0.0000E+00 0.9000E+01
      -24  1    3    3    0    0 0.20348560E+02 0.33365969E+02 0.28111142E+02 0.93727285E+02 0.80419002E+02 0.0000E+00 0.9000E+01
#aMCatNLO 1  0  0  1  2 0.98785234D+02 0.00000000D+00  -5  7  0 0.00000000D+00 0.00000000D+00 0.00000000D+00 0.00000000D+00 0.00000000D+00
  <mgrwgt>
 0.7134722002D-03    9    2    0
 0.358720801623435D+03 0.000000000000000D+00 0.000000000000000D+00 0.358720801623435D+03
 0.358720801623435D+03 0.000000000000000D+00 0.000000000000000D+00 -.358720801623435D+03
 0.244535037371586D+03 -.131143630213583D+03 -.172031265806023D+03 -.808502343072233D+02
 0.270524138236291D+03 0.996944910383255D+02 0.109887352469998D+03 0.226205852250183D+03
 0.308614139625132D+02 0.111005792298098D+02 0.287779445209711D+02 0.101681939213566D+01
 0.171521013676481D+03 0.203485599454477D+02 0.333659688150538D+02 -.146372437335095D+03
 0.000000000000000D+00 0.000000000000000D+00 -.000000000000000D+00 0.000000000000000D+00
 0.509350430297706D+03 0.000000000000000D+00 0.000000000000000D+00 0.509350430297706D+03
 0.378673791376569D+03 0.000000000000000D+00 0.000000000000000D+00 -.378673791376569D+03
 0.229731612796222D+03 -.140979906567126D+03 -.141057802054244D+03 -.808502343072233D+02
 0.283342457822720D+03 0.882073141518525D+02 0.146059339115664D+03 0.226205852250183D+03
 0.344665638136960D+02 0.974567889516150D+01 0.330443919950081D+02 0.101681939213566D+01
 0.176669954083102D+03 0.131270895311164D+02 0.561056666512443D+02 -.146372437335095D+03
 0.163813633158536D+03 0.298998239889958D+02 -.941515957076726D+02 0.130676638921138D+03
0.235157851542D-04 0.000000000000D+00 0.000000000000D+00 0.462286033717D-06 0.000000000000D+00  7 1 -1 24 -13 13 -24 21 0 0.26737087D+00 0.11391275D-01 0.62352972D+05 0.62352972D+05 0.62352972D+05 0.11389555D+01  1  2  2  1  7  1        1 0.644226249859D-03 0.100000000000D+01
-.109797775742D-05 0.000000000000D+00 -.903068068407D-07 0.462286033717D-06 0.000000000000D+00  7 1 -1 24 -13 13 -24 21 2 0.26737087D+00 0.11391275D-01 0.62352972D+05 0.62352972D+05 0.62352972D+05 0.11389555D+01  1  2  3  1  7  1        1 -.390198856914D-04 0.100000000000D+01
0.144588566228D-05 0.000000000000D+00 0.000000000000D+00 0.462286033717D-06 0.000000000000D+00  7 1 -1 24 -13 13 -24 21 2 0.26737087D+00 0.11391275D-01 0.62352972D+05 0.62352972D+05 0.62352972D+05 0.11389555D+01  1  2 15  1  7  1        1 0.513838216519D-04 0.100000000000D+01
0.269467522636D-04 0.000000000000D+00 0.000000000000D+00 0.462286033717D-06 0.000000000000D+00  7 1 -1 24 -13 13 -24 21 2 0.38466557D+00 0.11391275D-01 0.95428594D+05 0.95428594D+05 0.95428594D+05 0.11233935D+01  1  2 12  1  7  1        1 0.288128317536D-03 0.100000000000D+01
-.325999866245D-04 0.000000000000D+00 0.000000000000D+00 0.462286033717D-06 0.000000000000D+00  7 1 -1 24 -13 13 -24 21 2 0.26737087D+00 0.11391275D-01 0.62352972D+05 0.62352972D+05 0.62352972D+05 0.11389555D+01  1  2  4  1  7  1        1 -.115853690390D-02 0.100000000000D+01
-.363359746407D-04 0.000000000000D+00 -.841943862241D-05 0.462286033717D-06 0.000000000000D+00  7 1 -1 24 -13 13 -24 21 2 0.38591836D+00 0.11391275D-01 0.62352972D+05 0.62352972D+05 0.62352972D+05 0.11389555D+01  1  2  5  1  7  1        1 -.401408540787D-03 0.100000000000D+01
0.374146926642D-04 0.000000000000D+00 0.788263362587D-05 0.462286033717D-06 0.000000000000D+00  7 1 -1 24 -13 13 -24 21 2 0.26737087D+00 0.11391275D-01 0.62352972D+05 0.62352972D+05 0.62352972D+05 0.11389555D+01  1  2  6  1  7  1        1 0.132964171730D-02 0.100000000000D+01
0.119689987138D-05 0.000000000000D+00 0.000000000000D+00 0.462286033717D-06 0.000000000000D+00  7 21 -1 24 -13 13 -24 -1 2 0.38466557D+00 0.11391275D-01 0.95428594D+05 0.95428594D+05 0.95428594D+05 0.11233935D+01  1  2 12  3  7  1        1 0.461645637773D-05 0.100000000000D+01
-.136944223240D-05 0.000000000000D+00 -.376385389010D-06 0.462286033717D-06 0.000000000000D+00  7 21 -1 24 -13 13 -24 -1 2 0.38591836D+00 0.11391275D-01 0.62352972D+05 0.62352972D+05 0.62352972D+05 0.11389555D+01  1  2  5  3  7  1        1 -.555903211855D-05 0.100000000000D+01
  </mgrwgt>
  </event>
  <event>
  8     66 0.27727860E-05 0.23196204E+03 0.75467711E-02 0.90112151E-01
        1 -1    0    0  501    0 0.00000000E+00 0.00000000E+00 0.10135431E+03 0.10135481E+03 0.32000000E+00 0.0000E+00 0.9000E+01
       -1 -1    0    0    0  501 0.00000000E+00 0.00000000E+00 -.65854010E+03 0.65854017E+03 0.32000000E+00 0.0000E+00 0.9000E+01
       25  2    1    2    0    0 -.60828697E+02 0.10924149E+03 -.23399134E+03 0.40142373E+03 0.30125609E+03 0.0000E+00 0.0000E+00
       23  2    1    2    0    0 0.60828697E+02 -.10924149E+03 -.32319445E+03 0.35847125E+03 0.91723238E+02 0.0000E+00 0.0000E+00
       24  1    3    3    0    0 0.64372148E+01 -.75364487E+02 -.10858028E+03 0.15484875E+03 0.80419002E+02 0.0000E+00 0.9000E+01
      -13  1    4    4    0    0 0.53471739E+02 -.11813935E+03 -.32166990E+03 0.34682512E+03 0.10565837E+00 0.0000E+00 0.9000E+01
       13  1    4    4    0    0 0.73569585E+01 0.88978631E+01 -.15245508E+01 0.11646125E+02 0.10565837E+00 0.0000E+00 0.9000E+01
      -24  1    3    3    0    0 -.67265912E+02 0.18460598E+03 -.12541107E+03 0.24657498E+03 0.80419002E+02 0.0000E+00 0.9000E+01
#aMCatNLO 1  0  0  2  2 0.69079922D+03 0.00000000D+00  -5  7  0 0.00000000D+00 0.00000000D+00 0.00000000D+00 0.00000000D+00 0.00000000D+00
  <mgrwgt>
 0.7787548857D-03    5    2    0
 0.258352657082978D+03 0.000000000000000D+00 0.000000000000000D+00 0.258352657082978D+03
 0.258352657082978D+03 0.000000000000000D+00 0.000000000000000D+00 -.258352657082978D+03
 0.110642170804417D+03 0.643720989440884D+01 -.753644720192656D+02 0.729607373700876D+01
 0.163189507056521D+03 0.534718053897671D+02 -.118139532794777D+03 -.990688247267566D+02
 0.154832389924129D+02 0.735689773654135D+01 0.889803030494893D+01 0.103165789912382D+02
 0.227390397312605D+03 -.672659130207173D+02 0.184605974509094D+03 0.814561719985096D+02
 0.000000000000000D+00 0.000000000000000D+00 0.000000000000000D+00 -.000000000000000D+00
 0.642671735718618D+03 0.000000000000000D+00 0.000000000000000D+00 0.642671735718618D+03
 0.995828841175539D+03 0.000000000000000D+00 0.000000000000000D+00 -.995828841175539D+03
 0.209814439673030D+03 -.145077916908023D+03 -.128273335010008D+03 0.729607373700876D+01
 0.257031409734631D+03 -.145212894538202D+03 -.187519942452178D+03 -.990688247267566D+02
 0.126423434772484D+02 -.594116214099988D+01 0.425436704206588D+01 0.103165789912382D+02
 0.383175092346795D+03 -.355947452306497D+03 0.837987988008606D+02 0.814561719985096D+02
 0.775837291662452D+03 0.652179425893723D+03 0.227740111619260D+03 -.353157105456921D+03
0.171769880017D-04 0.000000000000D+00 0.000000000000D+00 0.261143854846D-06 0.000000000000D+00  7 1 -1 24 -13 13 -24 21 0 0.15593015D-01 0.10131391D+00 0.53806387D+05 0.53806387D+05 0.53806387D+05 0.11445032D+01  1  2  2  2  7  2       -1 0.768951887980D-03 0.100000000000D+01
-.940805945416D-06 0.000000000000D+00 -.659641567315D-07 0.261143854846D-06 0.000000000000D+00  7 1 -1 24 -13 13 -24 21 2 0.15593015D-01 0.10131391D+00 0.53806387D+05 0.53806387D+05 0.53806387D+05 0.11445032D+01  1  2  3  2  7  2       -1 -.551678684665D-04 0.100000000000D+01
0.110156938199D-05 0.000000000000D+00 0.000000000000D+00 0.261143854846D-06 0.000000000000D+00  7 1 -1 24 -13 13 -24 21 2 0.15593015D-01 0.10131391D+00 0.53806387D+05 0.53806387D+05 0.53806387D+05 0.11445032D+01  1  2 15  2  7  2       -1 0.645948668464D-04 0.100000000000D+01
0.105519943352D-04 0.000000000000D+00 -.699795303686D-05 0.261143854846D-06 0.000000000000D+00  7 1 -1 24 -13 13 -24 21 2 0.15593015D-01 0.56028761D+00 0.53806387D+05 0.53806387D+05 0.53806387D+05 0.11445032D+01  1  2  5  2  7  2       -1 0.659273726198D-07 0.100000000000D+01
0.187371814054D-05 0.000000000000D+00 -.146494592112D-05 0.261143854846D-06 0.000000000000D+00  7 1 21 24 -13 13 -24 1 2 0.15593015D-01 0.56028761D+00 0.53806387D+05 0.53806387D+05 0.53806387D+05 0.11445032D+01  1  2  5  4  7  2       -1 0.310071977792D-06 0.100000000000D+01
  </mgrwgt>
  </event>
  <event>
  8     66 0.27727860E-05 0.21806601E+03 0.75467711E-02 0.10439063E+00
        1 -1    0    0  501    0 0.00000000E+00 0.00000000E+00 0.13789706E+04 0.13789707E+04 0.32000000E+00 0.0000E+00 0.9000E+01
       -1 -1    0    0    0  501 0.00000000E+00 0.00000000E+00 -.42266721E+02 0.42267932E+02 0.32000000E+00 0.0000E+00 0.9000E+01
       25  2    1    2    0    0 -.98815838E+01 -.12026822E+03 0.10101905E+04 0.10607823E+04 0.30035343E+03 0.0000E+00 0.0000E+00
       23  2    1    2    0    0 0.98815838E+01 0.12026822E+03 0.32651342E+03 0.36045630E+03 0.93571562E+02 0.0000E+00 0.0000E+00
       24  1    3    3    0    0 0.10909630E+03 -.50589717E+02 0.30248234E+03 0.33529704E+03 0.80419002E+02 0.0000E+00 0.9000E+01
      -11  1    4    4    0    0 0.31789732E+02 0.63905861E+02 0.26401187E+03 0.27349006E+03 0.51099893E-03 0.0000E+00 0.9000E+01
       11  1    4    4    0    0 -.21908148E+02 0.56362358E+02 0.62501556E+02 0.86966239E+02 0.51099893E-03 0.0000E+00 0.9000E+01
      -24  1    3    3    0    0 -.11897788E+03 -.69678502E+02 0.70770814E+03 0.72548526E+03 0.80419002E+02 0.0000E+00 0.9000E+01
#aMCatNLO 1  0  0  1  1 0.23099216D+02 0.00000000D+00  -5  7  0 0.00000000D+00 0.00000000D+00 0.00000000D+00 0.00000000D+00 0.00000000D+00
  <mgrwgt>
 0.4433472816D-03    4    2    0
 0.241423804764298D+03 0.000000000000000D+00 0.000000000000000D+00 0.241423804764298D+03
 0.241423804764298D+03 0.000000000000000D+00 0.000000000000000D+00 -.241423804764298D+03
 0.149545664149396D+03 0.109096299232492D+03 -.505897166092663D+02 -.378862478833966D+02
 0.741205547286246D+02 0.317897321183501D+02 0.639058608153871D+02 0.199827555298798D+02
 0.829530922904950D+02 -.219081482927637D+02 0.563623575889959D+02 -.567849734168099D+02
 0.176228298360081D+03 -.118977883058078D+03 -.696785017951167D+02 0.746884657703267D+02
 0.000000000000000D+00 -.000000000000000D+00 0.000000000000000D+00 -.000000000000000D+00
 0.244985253069188D+03 0.000000000000000D+00 0.000000000000000D+00 0.244985253069188D+03
 0.282302515539014D+03 0.000000000000000D+00 0.000000000000000D+00 -.282302515539014D+03
 0.154321368533796D+03 0.112539151539991D+03 -.569863178644652D+02 -.378862478833966D+02
 0.722340391755832D+02 0.334479483680262D+02 0.608250001810325D+02 0.199827555298798D+02
 0.801769476728266D+02 -.200598640957227D+02 0.529283627617981D+02 -.567849734168099D+02
 0.176667466520211D+03 -.114979528950046D+03 -.771071901679719D+02 0.746884657703267D+02
 0.438879467057854D+02 -.109477068622484D+02 0.203401450896065D+02 -.373172624698261D+02
0.500965936212D-05 0.000000000000D+00 0.000000000000D+00 0.119645082694D-06 0.000000000000D+00  7 1 -1 24 -11 11 -24 21 0 0.21214942D+00 0.65026684D-02 0.47552786D+05 0.47552786D+05 0.47552786D+05 0.11492173D+01  1  2  2  1  7  1        1 0.552997326121D-03 0.100000000000D+01
-.274810619738D-06 0.000000000000D+00 -.192384110241D-07 0.119645082694D-06 0.000000000000D+00  7 1 -1 24 -11 11 -24 21 2 0.21214942D+00 0.65026684D-02 0.47552786D+05 0.47552786D+05 0.47552786D+05 0.11492173D+01  1  2  3  1  7  1        1 -.400638497095D-04 0.100000000000D+01
0.313685464034D-06 0.000000000000D+00 0.000000000000D+00 0.119645082694D-06 0.000000000000D+00  7 1 -1 24 -11 11 -24 21 2 0.21214942D+00 0.65026684D-02 0.47552786D+05 0.47552786D+05 0.47552786D+05 0.11492173D+01  1  2 15  1  7  1        1 0.457313014290D-04 0.100000000000D+01
-.790999188193D-06 0.000000000000D+00 0.000000000000D+00 0.119645082694D-06 0.000000000000D+00  7 1 -1 24 -11 11 -24 21 2 0.21214942D+00 0.65026684D-02 0.47552786D+05 0.47552786D+05 0.47552786D+05 0.11492173D+01  1  2  4  1  7  1        1 -.115317496195D-03 0.100000000000D+01
  </mgrwgt>
  </event>
  <event>
  8     66 0.27727860E-05 0.74643404E+02 0.75467711E-02 0.10247176E+00
        1 -1    0    0  501    0 0.00000000E+00 0.00000000E+00 0.43479849E+03 0.43479861E+03 0.32000000E+00 0.0000E+00 0.9000E+01
       -1 -1    0    0    0  501 0.00000000E+00 0.00000000E+00 -.13096638E+03 0.13096677E+03 0.32000000E+00 0.0000E+00 0.9000E+01
       25  2    1    2    0    0 -.54255610E+02 -.92470940E+02 0.13179477E+03 0.34253644E+03 0.29743369E+03 0.0000E+00 0.0000E+00
       23  2    1    2    0    0 0.54255610E+02 0.92470940E+02 0.17203734E+03 0.22322895E+03 0.93486743E+02 0.0000E+00 0.0000E+00
       24  1    3    3    0    0 0.36807390E+01 -.11658610E+03 0.18052903E+03 0.22948598E+03 0.80419002E+02 0.0000E+00 0.9000E+01
      -13  1    4    4    0    0 0.20860829E+02 0.68508785E+02 0.34139097E+02 0.79335471E+02 0.10565837E+00 0.0000E+00 0.9000E+01
       13  1    4    4    0    0 0.33394782E+02 0.23962154E+02 0.13789824E+03 0.14389348E+03 0.10565837E+00 0.0000E+00 0.9000E+01
      -24  1    3    3    0    0 -.57936349E+02 0.24115164E+02 -.48734259E+02 0.11305046E+03 0.80419002E+02 0.0000E+00 0.9000E+01
#aMCatNLO 1  0  0  1  2 0.14290311D+03 0.00000000D+00  -5  7  0 0.00000000D+00 0.00000000D+00 0.00000000D+00 0.00000000D+00 0.00000000D+00
  <mgrwgt>
 0.5583725892D-03    7    2    0
 0.238629690688007D+03 0.000000000000000D+00 0.000000000000000D+00 0.238629690688007D+03
 0.238629690688007D+03 0.000000000000000D+00 0.000000000000000D+00 -.238629690688007D+03
 0.157115217793029D+03 0.368072410561740D+01 -.116586129401181D+03 0.679124613682179D+02
 0.723143355773728D+02 0.208608335979828D+02 0.685088293273954D+02 -.100363865900019D+02
 0.827894364739109D+02 0.333948074455609D+02 0.239621623946333D+02 0.718657943719741D+02
 0.165040391531701D+03 -.579363651491611D+02 0.241151376791527D+02 -.129741869150190D+03
 0.000000000000000D+00 -.000000000000000D+00 -.000000000000000D+00 0.000000000000000D+00
 0.434672807423361D+03 0.000000000000000D+00 0.000000000000000D+00 0.434672807423361D+03
 0.276608040995950D+03 0.000000000000000D+00 0.000000000000000D+00 -.276608040995950D+03
 0.142315014782566D+03 0.371837394982119D+02 -.882701228391062D+02 0.679124613682179D+02
 0.934984633790236D+02 0.394134984639891D+02 0.841891307550076D+02 -.100363865900019D+02
 0.986893953586978D+02 0.537003325223681D+02 0.411239424488653D+02 0.718657943719741D+02
 0.163691681857338D+03 -.211547896213393D+02 0.552021106517252D+02 -.129741869150190D+03
 0.213086293041686D+03 -.109142780863230D+03 -.922450610164920D+02 0.158064766427411D+03
0.630615080910D-05 0.000000000000D+00 0.000000000000D+00 0.119422436802D-07 0.000000000000D+00  7 1 -1 24 -13 13 -24 21 0 0.66892115D-01 0.20148713D-01 0.31755785D+05 0.31755785D+05 0.31755785D+05 0.11650510D+01  1  2  2  1  7  1        1 0.770576849360D-03 0.100000000000D+01
-.314022817147D-06 0.000000000000D+00 -.242172795546D-07 0.119422436802D-07 0.000000000000D+00  7 1 -1 24 -13 13 -24 21 2 0.66892115D-01 0.20148713D-01 0.31755785D+05 0.31755785D+05 0.31755785D+05 0.11650510D+01  1  2  3  1  7  1        1 -.520838007485D-04 0.100000000000D+01
0.386596323346D-06 0.000000000000D+00 0.000000000000D+00 0.119422436802D-07 0.000000000000D+00  7 1 -1 24 -13 13 -24 21 2 0.66892115D-01 0.20148713D-01 0.31755785D+05 0.31755785D+05 0.31755785D+05 0.11650510D+01  1  2 15  1  7  1        1 0.641208370086D-04 0.100000000000D+01
0.397600958668D-06 0.000000000000D+00 0.000000000000D+00 0.119422436802D-07 0.000000000000D+00  7 1 -1 24 -13 13 -24 21 2 0.12337152D+00 0.20148713D-01 0.69795061D+05 0.69795061D+05 0.69795061D+05 0.11347679D+01  1  2 12  1  7  1        1 0.260886824789D-04 0.100000000000D+01
-.384808201320D-05 0.000000000000D+00 -.206734881668D-05 0.119422436802D-07 0.000000000000D+00  7 1 -1 24 -13 13 -24 21 2 0.13382051D+00 0.20148713D-01 0.31755785D+05 0.31755785D+05 0.31755785D+05 0.11650510D+01  1  2  5  1  7  1        1 -.236111570841D-03 0.100000000000D+01
0.265630888947D-07 0.000000000000D+00 0.000000000000D+00 0.119422436802D-07 0.000000000000D+00  7 21 -1 24 -13 13 -24 -1 2 0.12337152D+00 0.20148713D-01 0.69795061D+05 0.69795061D+05 0.69795061D+05 0.11347679D+01  1  2 12  3  7  1        1 0.319901881142D-05 0.100000000000D+01
-.164647908919D-06 0.000000000000D+00 -.155110025171D-06 0.119422436802D-07 0.000000000000D+00  7 21 -1 24 -13 13 -24 -1 2 0.13382051D+00 0.20148713D-01 0.31755785D+05 0.31755785D+05 0.31755785D+05 0.11650510D+01  1  2  5  3  7  1        1 -.174174269053D-04 0.100000000000D+01
  </mgrwgt>
  </event>
  <event>
  8     66 0.27727860E-05 0.36009622E+03 0.75467711E-02 0.81332834E-01
        1 -1    0    0  501    0 0.00000000E+00 0.00000000E+00 0.89522883E+03 0.89522889E+03 0.32000000E+00 0.0000E+00 0.9000E+01
       -1 -1    0    0    0  501 0.00000000E+00 0.00000000E+00 -.36413775E+03 0.36413789E+03 0.32000000E+00 0.0000E+00 0.9000E+01
       25  2    1    2    0    0 0.22998898E+03 -.24194062E+03 0.73256176E+03 0.85919542E+03 0.30023300E+03 0.0000E+00 0.0000E+00
       23  2    1    2    0    0 -.22998898E+03 0.24194062E+03 -.20147067E+03 0.40017135E+03 0.90091536E+02 0.0000E+00 0.0000E+00
       24  1    3    3    0    0 0.38680250E+02 -.44184473E+02 0.35881497E+02 0.10584483E+03 0.80419002E+02 0.0000E+00 0.9000E+01
      -13  1    4    4    0    0 -.10658972E+03 0.10505418E+03 -.14255292E+03 0.20668598E+03 0.10565837E+00 0.0000E+00 0.9000E+01
       13  1    4    4    0    0 -.12339926E+03 0.13688644E+03 -.58917745E+02 0.19348537E+03 0.10565837E+00 0.0000E+00 0.9000E+01
      -24  1    3    3    0    0 0.19130873E+03 -.19775615E+03 0.69668026E+03 0.75335060E+03 0.80419002E+02 0.0000E+00 0.9000E+01
#aMCatNLO 1  0  0  2  1 0.18952691D+04 0.00000000D+00  -5  7  0 0.00000000D+00 0.00000000D+00 0.00000000D+00 0.00000000D+00 0.00000000D+00
  <mgrwgt>
 0.6391670712D-03    5    2    0
 0.570952479127478D+03 0.000000000000000D+00 0.000000000000000D+00 0.570952479127478D+03
 0.570952479127478D+03 0.000000000000000D+00 0.000000000000000D+00 -.570952479127478D+03
 0.100044327909014D+03 0.386802504371962D+02 -.441844728632993D+02 -.965516319406166D+01
 0.294247019896197D+03 -.106589697836526D+03 0.105054135169268D+03 -.253344772428302D+03
 0.240790311615368D+03 -.123399284870158D+03 0.136886486562589D+03 -.154966707579111D+03
 0.506823298834377D+03 0.191308732269488D+03 -.197756148868557D+03 0.417966643201474D+03
 0.000000000000000D+00 -.000000000000000D+00 -.000000000000000D+00 -.000000000000000D+00
 0.161712555462869D+04 0.000000000000000D+00 0.000000000000000D+00 0.161712555462869D+04
 0.286445798463151D+04 0.000000000000000D+00 0.000000000000000D+00 -.286445798463151D+04
 0.166428577706755D+03 0.119471820256494D+03 0.828523838608090D+02 -.965516319406166D+01
 0.622359430751272D+03 0.171315006520482D+03 0.542032153907115D+03 -.253344772428302D+03
 0.548385015242071D+03 0.115869744647628D+03 0.513113678203408D+03 -.154966707579111D+03
 0.875515815900605D+03 0.610418310573453D+03 0.461252749829498D+03 0.417966643201474D+03
 0.226889469965950D+04 -.101707488199806D+04 -.159925096580083D+04 -.124733243000282D+04
0.844732123139D-04 0.000000000000D+00 0.000000000000D+00 0.558288480722D-05 0.000000000000D+00  7 1 -1 24 -13 13 -24 21 0 0.13772753D+00 0.56021207D-01 0.12966929D+06 0.12966929D+06 0.12966929D+06 0.11125784D+01  1  2  2  2  7  2       -1 0.625120918504D-03 0.100000000000D+01
-.348066540535D-05 0.000000000000D+00 -.324399377593D-06 0.558288480722D-05 0.000000000000D+00  7 1 -1 24 -13 13 -24 21 2 0.13772753D+00 0.56021207D-01 0.12966929D+06 0.12966929D+06 0.12966929D+06 0.11125784D+01  1  2  3  2  7  2       -1 -.318836881227D-04 0.100000000000D+01
0.490791173022D-05 0.000000000000D+00 0.000000000000D+00 0.558288480722D-05 0.000000000000D+00  7 1 -1 24 -13 13 -24 21 2 0.13772753D+00 0.56021207D-01 0.12966929D+06 0.12966929D+06 0.12966929D+06 0.11125784D+01  1  2 15  2  7  2       -1 0.449575896320D-04 0.100000000000D+01
0.148665884709D-03 0.000000000000D+00 -.521270686242D-04 0.558288480722D-05 0.000000000000D+00  7 1 -1 24 -13 13 -24 21 2 0.13772753D+00 0.49280079D+00 0.12966929D+06 0.12966929D+06 0.12966929D+06 0.11125784D+01  1  2  5  2  7  2       -1 0.144556633025D-06 0.100000000000D+01
0.318062391166D-04 0.000000000000D+00 -.136576886633D-04 0.558288480722D-05 0.000000000000D+00  7 1 21 24 -13 13 -24 1 2 0.13772753D+00 0.49280079D+00 0.12966929D+06 0.12966929D+06 0.12966929D+06 0.11125784D+01  1  2  5  4  7  2       -1 0.827694531280D-06 0.100000000000D+01
  </mgrwgt>
  </event>
  <event>
  9     66 -.27727860E-05 0.27722047E+03 0.75467711E-02 0.10047113E+00
        1 -1    0    0  501    0 0.00000000E+00 0.00000000E+00 0.16245102E+04 0.16245102E+04 0.32000000E+00 0.0000E+00 0.9000E+01
       -1 -1    0    0    0  502 0.00000000E+00 0.00000000E+00 -.98467713E+02 0.98468233E+02 0.32000000E+00 0.0000E+00 0.9000E+01
       25  2    1    2    0    0 0.24393434E+03 -.62585660E+02 0.40925352E+03 0.56621844E+03 0.29948948E+03 0.0000E+00 0.0000E+00
       23  2    1    2    0    0 -.21635083E+03 0.11541609E+02 0.98743457E+03 0.10149874E+04 0.90727974E+02 0.0000E+00 0.0000E+00
       24  1    3    3    0    0 0.54090092E+02 -.65137316E+02 0.32164772E+03 0.34218866E+03 0.80419002E+02 0.0000E+00 0.9000E+01
      -13  1    4    4    0    0 -.12436593E+03 0.51325603E+02 0.54926740E+03 0.56550499E+03 0.10565837E+00 0.0000E+00 0.9000E+01
       13  1    4    4    0    0 -.91984898E+02 -.39783994E+02 0.43816717E+03 0.44948244E+03 0.10565837E+00 0.0000E+00 0.9000E+01
      -24  1    3    3    0    0 0.18984425E+03 0.25516554E+01 0.87605804E+02 0.22402978E+03 0.80419002E+02 0.0000E+00 0.9000E+01
       21  1    1    2  501  502 -.27583510E+02 0.51044052E+02 0.12935436E+03 0.14177256E+03 0.75000000E+00 0.0000E+00 0.9000E+01
#aMCatNLO 2  0  0  2  1 0.58020214D+02 0.00000000D+00  -5  7  0 0.00000000D+00 0.00000000D+00 0.00000000D+00 0.00000000D+00 0.00000000D+00
  <mgrwgt>
 -.1239184587D-03    2    2    0
 0.369495613474445D+03 0.000000000000000D+00 0.000000000000000D+00 0.369495613474445D+03
 0.369495613474445D+03 0.000000000000000D+00 0.000000000000000D+00 -.369495613474445D+03
 0.117744715896912D+03 0.495875595139787D+02 -.568052545678609D+02 0.413622915492125D+02
 0.180076468730967D+03 -.130914775359916D+03 0.634444596015011D+02 0.106130376089748D+03
 0.134301857277682D+03 -.969696782333237D+02 -.305595609899912D+02 0.877495504470510D+02
 0.306868185043329D+03 0.178296894079261D+03 0.239203559563511D+02 -.235242218086011D+03
 0.000000000000000D+00 -.000000000000000D+00 0.000000000000000D+00 0.000000000000000D+00
 0.404375089973277D+03 0.000000000000000D+00 0.000000000000000D+00 0.404375089973277D+03
 0.395574205989194D+03 0.000000000000000D+00 0.000000000000000D+00 -.395574205989194D+03
 0.123881649365615D+03 0.540900917714912D+02 -.651373157654216D+02 0.413622915492125D+02
 0.171361848415160D+03 -.124365976938200D+03 0.513257259424164D+02 0.106130376089748D+03
 0.133206504783460D+03 -.919848537170670D+02 -.397841174291487D+02 0.877495504470510D+02
 0.312815387658082D+03 0.189844248493616D+03 0.255165537907211D+01 -.235242218086011D+03
 0.586839057401544D+02 -.275835096098406D+02 0.510440518730817D+02 0.880088398408333D+01
-.107741200927D-04 0.000000000000D+00 0.000000000000D+00 0.802144871457D-06 0.000000000000D+00  7 1 -1 24 -13 13 -24 21 2 0.22836600D+00 0.15764978D-01 0.94785123D+05 0.94785123D+05 0.94785123D+05 0.11236358D+01  1  2 13  2  7  2       -1 -.326097282001D-03 0.100000000000D+01
0.776021510161D-05 0.000000000000D+00 0.000000000000D+00 0.802144871457D-06 0.162816595097D-08  7 1 -1 24 -13 13 -24 21 2 0.24992318D+00 0.15148830D-01 0.94785123D+05 0.94785123D+05 0.94785123D+05 0.11236358D+01  1  2  1  2  7  2       -1 0.202178823257D-03 0.100000000000D+01
  </mgrwgt>
  </event>
  <event>
  8     66 0.27727860E-05 0.27324520E+03 0.75467711E-02 0.94943956E-01
        1 -1    0    0  501    0 0.00000000E+00 0.00000000E+00 0.22958530E+03 0.22958553E+03 0.32000000E+00 0.0000E+00 0.9000E+01
       -1 -1    0    0    0  501 0.00000000E+00 0.00000000E+00 -.39112156E+03 0.39112169E+03 0.32000000E+00 0.0000E+00 0.9000E+01
       25  2    1    2    0    0 -.11652431E+03 0.14881552E+03 0.51141148E+01 0.35271749E+03 0.29775745E+03 0.0000E+00 0.0000E+00
       23  2    1    2    0    0 0.11652431E+03 -.14881552E+03 -.16665037E+03 0.26798973E+03 0.91225955E+02 0.0000E+00 0.0000E+00
       24  1    3    3    0    0 -.19279357E+03 0.98702555E+02 0.42509952E+01 0.23107757E+03 0.80419002E+02 0.0000E+00 0.9000E+01
      -11  1    4    4    0    0 0.31651038E+02 -.14230030E+02 -.79107407E+02 0.86384396E+02 0.51099893E-03 0.0000E+00 0.9000E+01
       11  1    4    4    0    0 0.84873274E+02 -.13458549E+03 -.87542965E+02 0.18160534E+03 0.51099893E-03 0.0000E+00 0.9000E+01
      -24  1    3    3    0    0 0.76269259E+02 0.50112967E+02 0.86311966E+00 0.12163992E+03 0.80419002E+02 0.0000E+00 0.9000E+01
#aMCatNLO 1  0  0  1  2 0.32908354D+03 0.00000000D+00  -5  7  0 0.00000000D+00 0.00000000D+00 0.00000000D+00 0.00000000D+00 0.00000000D+00
  <mgrwgt>
 0.1061823283D-02    5    2    0
 0.299659594735970D+03 0.000000000000000D+00 0.000000000000000D+00 0.299659594735970D+03
 0.299659594735970D+03 0.000000000000000D+00 0.000000000000000D+00 -.299659594735970D+03
 0.240469864988093D+03 -.192793571182288D+03 0.987025545360451D+02 0.666857155008490D+02
 0.681451627183823D+02 0.316510379954341D+02 -.142300298299498D+02 -.586470906931036D+02
 0.164490612207444D+03 0.848732740438746D+02 -.134585492086993D+03 -.417185112049216D+02
 0.126213549558021D+03 0.762692591429792D+02 0.501129673808973D+02 0.336798863971762D+02
 0.000000000000000D+00 -.000000000000000D+00 -.000000000000000D+00 0.000000000000000D+00
 0.706560510176886D+03 0.000000000000000D+00 0.000000000000000D+00 0.706560510176886D+03
 0.416099066315962D+03 0.000000000000000D+00 0.000000000000000D+00 -.416099066315962D+03
 0.196697339912215D+03 -.889298687317785D+02 0.140950776406728D+03 0.666857155008490D+02
 0.908969265484077D+02 0.694368097814952D+02 0.113993708157217D+01 -.586470906931036D+02
 0.202980915299173D+03 0.172178435465316D+03 -.990727215698205D+02 -.417185112049216D+02
 0.193149518646041D+03 0.152144645763512D+03 0.809764942226786D+02 0.336798863971762D+02
 0.438934876087012D+03 -.304830022278544D+03 -.123994486141158D+03 0.290461443860924D+03
0.246803270874D-04 0.000000000000D+00 0.000000000000D+00 0.103117022761D-06 0.000000000000D+00  7 1 -1 24 -11 11 -24 21 0 0.35320843D-01 0.60172575D-01 0.74662939D+05 0.74662939D+05 0.74662939D+05 0.11322864D+01  1  2  2  1  7  1        1 0.108442079065D-02 0.100000000000D+01
-.135693372705D-05 0.000000000000D+00 -.947789544948D-07 0.103117022761D-06 0.000000000000D+00  7 1 -1 24 -11 11 -24 21 2 0.35320843D-01 0.60172575D-01 0.74662939D+05 0.74662939D+05 0.74662939D+05 0.11322864D+01  1  2  3  1  7  1        1 -.764395547562D-04 0.100000000000D+01
0.156254629935D-05 0.000000000000D+00 0.000000000000D+00 0.103117022761D-06 0.000000000000D+00  7 1 -1 24 -11 11 -24 21 2 0.35320843D-01 0.60172575D-01 0.74662939D+05 0.74662939D+05 0.74662939D+05 0.11322864D+01  1  2 15  1  7  1        1 0.880222379522D-04 0.100000000000D+01
-.284342287905D-05 0.000000000000D+00 -.841102596526D-05 0.103117022761D-06 0.000000000000D+00  7 1 -1 24 -11 11 -24 21 2 0.10783125D+00 0.60172575D-01 0.74662939D+05 0.74662939D+05 0.74662939D+05 0.11322864D+01  1  2  5  1  7  1        1 -.353445946351D-04 0.100000000000D+01
0.439064453376D-07 0.000000000000D+00 -.107164929555D-05 0.103117022761D-06 0.000000000000D+00  7 21 -1 24 -11 11 -24 -1 2 0.10783125D+00 0.60172575D-01 0.74662939D+05 0.74662939D+05 0.74662939D+05 0.11322864D+01  1  2  5  3  7  1        1 0.116440356686D-05 0.100000000000D+01
  </mgrwgt>
  </event>
  <event>
  8     66 0.27727860E-05 0.39078213E+03 0.75467711E-02 0.90355523E-01
        1 -1    0    0  501    0 0.00000000E+00 0.00000000E+00 0.12567403E+04 0.12567403E+04 0.32000000E+00 0.0000E+00 0.9000E+01
       -1 -1    0    0    0  501 0.00000000E+00 0.00000000E+00 -.18685207E+03 0.18685235E+03 0.32000000E+00 0.0000E+00 0.9000E+01
       25  2    1    2    0    0 -.32188280E+03 -.91738741E+02 0.17341013E+03 0.48237226E+03 0.30097739E+03 0.0000E+00 0.0000E+00
       23  2    1    2    0    0 0.32188280E+03 0.91738741E+02 0.89647810E+03 0.96122043E+03 0.90814078E+02 0.0000E+00 0.0000E+00
       24  1    3    3    0    0 0.19422857E+02 -.32979034E+02 0.56533255E+01 0.89241471E+02 0.80419002E+02 0.0000E+00 0.9000E+01
      -11  1    4    4    0    0 -.73511416E+00 0.19460902E+01 -.16727726E+01 0.26694248E+01 0.51099893E-03 0.0000E+00 0.9000E+01
       11  1    4    4    0    0 0.32261792E+03 0.89792651E+02 0.89815087E+03 0.95855101E+03 0.51099893E-03 0.0000E+00 0.9000E+01
      -24  1    3    3    0    0 -.34130566E+03 -.58759706E+02 0.16775680E+03 0.39313079E+03 0.80419002E+02 0.0000E+00 0.9000E+01
#aMCatNLO 1  0  0  2  2 0.53820456D+03 0.00000000D+00  -5  7  0 0.00000000D+00 0.00000000D+00 0.00000000D+00 0.00000000D+00 0.00000000D+00
  <mgrwgt>
 0.1114694856D-02    5    2    0
 0.484587203303962D+03 0.000000000000000D+00 0.000000000000000D+00 0.484587203303962D+03
 0.484587203303962D+03 0.000000000000000D+00 0.000000000000000D+00 -.484587203303962D+03
 0.126685050341449D+03 0.194228568169510D+02 -.329790344829318D+02 -.900945167215333D+02
 0.582273095069733D+01 -.735114170940019D+00 0.194609020508625D+01 -.543843137251534D+01
 0.436284918920588D+03 0.322617915453051D+03 0.897926505086045D+02 0.279641719027959D+03
 0.400381706395190D+03 -.341305658099062D+03 -.587597062307590D+02 -.184108770933910D+03
 0.000000000000000D+00 -.000000000000000D+00 -.000000000000000D+00 -.000000000000000D+00
 0.747013113388448D+03 0.000000000000000D+00 0.000000000000000D+00 0.747013113388448D+03
 0.930050724127774D+03 0.000000000000000D+00 0.000000000000000D+00 -.930050724127774D+03
 0.143133802714351D+03 0.764747812554291D+02 0.739292998396354D+01 -.900945167215333D+02
 0.695133286054590D+01 0.196590139960883D+01 0.385742458533697D+01 -.543843137251534D+01
 0.674090639056069D+03 0.557401592407294D+03 0.255933904404870D+03 0.279641719027959D+03
 0.284410343381769D+03 -.196509607573023D+03 0.437031127594710D+02 -.184108770933910D+03
 0.568477719503487D+03 -.439332667489310D+03 -.310887371733641D+03 -.183037610739326D+03
0.807371257117D-04 0.000000000000D+00 0.000000000000D+00 0.267332910846D-05 0.000000000000D+00  7 1 -1 24 -11 11 -24 21 0 0.19334469D+00 0.28746497D-01 0.15271067D+06 0.15271067D+06 0.15271067D+06 0.11069386D+01  1  2  2  2  7  2       -1 0.103030903577D-02 0.100000000000D+01
-.423295846351D-05 0.000000000000D+00 -.310051821306D-06 0.267332910846D-05 0.000000000000D+00  7 1 -1 24 -11 11 -24 21 2 0.19334469D+00 0.28746497D-01 0.15271067D+06 0.15271067D+06 0.15271067D+06 0.11069386D+01  1  2  3  2  7  2       -1 -.661889219642D-04 0.100000000000D+01
0.499639910529D-05 0.000000000000D+00 0.000000000000D+00 0.267332910846D-05 0.000000000000D+00  7 1 -1 24 -11 11 -24 21 2 0.19334469D+00 0.28746497D-01 0.15271067D+06 0.15271067D+06 0.15271067D+06 0.11069386D+01  1  2 15  2  7  2       -1 0.781265097053D-04 0.100000000000D+01
0.119483481908D-04 0.000000000000D+00 -.253301420542D-04 0.267332910846D-05 0.000000000000D+00  7 1 -1 24 -11 11 -24 21 2 0.19334469D+00 0.84314990D-01 0.15271067D+06 0.15271067D+06 0.15271067D+06 0.11069386D+01  1  2  5  2  7  2       -1 0.262975953830D-04 0.100000000000D+01
0.277539580316D-05 0.000000000000D+00 -.308794910121D-05 0.267332910846D-05 0.000000000000D+00  7 1 21 24 -11 11 -24 1 2 0.19334469D+00 0.84314990D-01 0.15271067D+06 0.15271067D+06 0.15271067D+06 0.11069386D+01  1  2  5  4  7  2       -1 0.461506369870D-04 0.100000000000D+01
  </mgrwgt>
  </event>
  <event>
  8     66 0.27727860E-05 0.58703068E+02 0.75467711E-02 0.10760077E+00
        1 -1    0    0  501    0 0.00000000E+00 0.00000000E+00 0.33446331E+03 0.33446347E+03 0.32000000E+00 0.0000E+00 0.9000E+01
       -1 -1    0    0    0  501 0.00000000E+00 0.00000000E+00 -.26369073E+03 0.26369093E+03 0.32000000E+00 0.0000E+00 0.9000E+01
       25  2    1    2    0    0 -.56321778E+02 0.23975806E+02 0.24642604E+03 0.39320942E+03 0.30023470E+03 0.0000E+00 0.0000E+00
       23  2    1    2    0    0 0.56321778E+02 -.23975806E+02 -.17565346E+03 0.20494497E+03 0.86030920E+02 0.0000E+00 0.0000E+00
       24  1    3    3    0    0 0.72160165E+02 0.70866772E+02 0.45058421E+02 0.13684541E+03 0.80419002E+02 0.0000E+00 0.9000E+01
      -13  1    4    4    0    0 0.18294956E+02 -.13804146E+02 0.19781826E+01 0.23004004E+02 0.10565837E+00 0.0000E+00 0.9000E+01
       13  1    4    4    0    0 0.38026822E+02 -.10171660E+02 -.17763165E+03 0.18194097E+03 0.10565837E+00 0.0000E+00 0.9000E+01
      -24  1    3    3    0    0 -.12848194E+03 -.46890966E+02 0.20136762E+03 0.25636401E+03 0.80419002E+02 0.0000E+00 0.9000E+01
#aMCatNLO 1  0  0  2  1 0.14956575D+02 0.00000000D+00  -5  7  0 0.00000000D+00 0.00000000D+00 0.00000000D+00 0.00000000D+00 0.00000000D+00
  <mgrwgt>
 0.4407298676D-03    9    2    0
 0.296976396180048D+03 0.000000000000000D+00 0.000000000000000D+00 0.296976396180048D+03
 0.296976396180048D+03 0.000000000000000D+00 0.000000000000000D+00 -.296976396180048D+03
 0.132444501993159D+03 0.721601643656838D+02 0.708667718324202D+02 0.290713171805929D+02
 0.229307479757983D+02 0.182949249201408D+02 -.138041503109773D+02 -.748571364623245D+00
 0.204394022397979D+03 0.380268536179782D+02 -.101716558631942D+02 -.200567724753867D+03
 0.234183519993159D+03 -.128481942903803D+03 -.468909656582486D+02 0.172244978937898D+03
 0.000000000000000D+00 -.000000000000000D+00 -.000000000000000D+00 -.000000000000000D+00
 0.299939681953479D+03 0.000000000000000D+00 0.000000000000000D+00 0.299939681953479D+03
 0.316562340605409D+03 0.000000000000000D+00 0.000000000000000D+00 -.316562340605409D+03
 0.135010222068835D+03 0.748575940689713D+02 0.728817071444969D+02 0.290713171805929D+02
 0.230990777228940D+02 0.187591613231891D+02 -.134573734068329D+02 -.748571364623245D+00
 0.205072695598546D+03 0.421565532952046D+02 -.708683860260954D+01 -.200567724753867D+03
 0.230959081025188D+03 -.123790720968383D+03 -.433867005710264D+02 0.172244978937898D+03
 0.223609461434248D+02 -.119825877189821D+02 -.895079456402807D+01 -.166226586519308D+02
0.659235677756D-05 0.000000000000D+00 0.000000000000D+00 0.119356821461D-06 0.000000000000D+00  7 1 -1 24 -13 13 -24 21 0 0.51455921D-01 0.40567832D-01 0.30652780D+05 0.30652780D+05 0.30652780D+05 0.11664695D+01  1  2  2  2  7  2       -1 0.361249312133D-03 0.100000000000D+01
-.241905937222D-06 0.000000000000D+00 -.253163858332D-07 0.119356821461D-06 0.000000000000D+00  7 1 -1 24 -13 13 -24 21 2 0.51455921D-01 0.40567832D-01 0.30652780D+05 0.30652780D+05 0.30652780D+05 0.11664695D+01  1  2  3  2  7  2       -1 -.180368067662D-04 0.100000000000D+01
0.389434870364D-06 0.000000000000D+00 0.000000000000D+00 0.119356821461D-06 0.000000000000D+00  7 1 -1 24 -13 13 -24 21 2 0.51455921D-01 0.40567832D-01 0.30652780D+05 0.30652780D+05 0.30652780D+05 0.11664695D+01  1  2 15  2  7  2       -1 0.290367470326D-04 0.100000000000D+01
0.407259204705D-04 0.000000000000D+00 0.000000000000D+00 0.119356821461D-06 0.000000000000D+00  7 1 -1 24 -13 13 -24 21 2 0.51455921D-01 0.43437516D-01 0.33580117D+05 0.33580117D+05 0.33580117D+05 0.11628203D+01  1  2 12  2  7  2       -1 0.268168169682D-02 0.100000000000D+01
-.414743683385D-04 0.000000000000D+00 0.000000000000D+00 0.119356821461D-06 0.000000000000D+00  7 1 -1 24 -13 13 -24 21 2 0.51455921D-01 0.40567832D-01 0.30652780D+05 0.30652780D+05 0.30652780D+05 0.11664695D+01  1  2  4  2  7  2       -1 -.309238035273D-02 0.100000000000D+01
-.866451423539D-04 0.000000000000D+00 -.119617710036D-04 0.119356821461D-06 0.000000000000D+00  7 1 -1 24 -13 13 -24 21 2 0.51455921D-01 0.43571684D-01 0.30652780D+05 0.30652780D+05 0.30652780D+05 0.11664695D+01  1  2  5  2  7  2       -1 -.571427151589D-02 0.100000000000D+01
0.873072102469D-04 0.000000000000D+00 0.119313180547D-04 0.119356821461D-06 0.000000000000D+00  7 1 -1 24 -13 13 -24 21 2 0.51455921D-01 0.40567832D-01 0.30652780D+05 0.30652780D+05 0.30652780D+05 0.11664695D+01  1  2  6  2  7  2       -1 0.650973390157D-02 0.100000000000D+01
0.550155283227D-06 0.000000000000D+00 0.000000000000D+00 0.119356821461D-06 0.000000000000D+00  7 1 21 24 -13 13 -24 1 2 0.51455921D-01 0.43437516D-01 0.33580117D+05 0.33580117D+05 0.33580117D+05 0.11628203D+01  1  2 12  4  7  2       -1 0.364054723511D-03 0.100000000000D+01
-.102494105620D-05 0.000000000000D+00 -.144382958021D-06 0.119356821461D-06 0.000000000000D+00  7 1 21 24 -13 13 -24 1 2 0.51455921D-01 0.43571684D-01 0.30652780D+05 0.30652780D+05 0.30652780D+05 0.11664695D+01  1  2  5  4  7  2       -1 -.680337838129D-03 0.100000000000D+01
  </mgrwgt>
  </event>
  <event>
  8     66 0.27727860E-05 0.34492213E+03 0.75467711E-02 0.92034143E-01
        1 -1    0    0  501    0 0.00000000E+00 0.00000000E+00 0.15464957E+04 0.15464957E+04 0.32000000E+00 0.0000E+00 0.9000E+01
       -1 -1    0    0    0  501 0.00000000E+00 0.00000000E+00 -.24518181E+03 0.24518202E+03 0.32000000E+00 0.0000E+00 0.9000E+01
       25  2    1    2    0    0 0.32782222E+01 -.28443540E+03 -.41483460E+02 0.41598238E+03 0.30067627E+03 0.0000E+00 0.0000E+00
       23  2    1    2    0    0 -.32782222E+01 0.28443540E+03 0.13427973E+04 0.13756953E+04 0.92297451E+02 0.0000E+00 0.0000E+00
       24  1    3    3    0    0 0.10578388E+03 -.19897458E+03 0.36010398E+02 0.24196090E+03 0.80419002E+02 0.0000E+00 0.9000E+01
      -13  1    4    4    0    0 -.35565454E+02 0.21817896E+03 0.10984951E+04 0.11205171E+04 0.10565837E+00 0.0000E+00 0.9000E+01
       13  1    4    4    0    0 0.32287232E+02 0.66256439E+02 0.24430219E+03 0.25517827E+03 0.10565837E+00 0.0000E+00 0.9000E+01
      -24  1    3    3    0    0 -.10250565E+03 -.85460815E+02 -.77493858E+02 0.17402148E+03 0.80419002E+02 0.0000E+00 0.9000E+01
#aMCatNLO 1  0  0  2  2 0.47007308D+03 0.00000000D+00  -5  7  0 0.00000000D+00 0.00000000D+00 0.00000000D+00 0.00000000D+00 0.00000000D+00
  <mgrwgt>
 0.6759601842D-03    3    2    0
 0.615770109545100D+03 0.000000000000000D+00 0.000000000000000D+00 0.615770109545100D+03
 0.615770109545100D+03 0.000000000000000D+00 0.000000000000000D+00 -.615770109545100D+03
 0.313960614424440D+03 0.105783875849199D+03 -.198974582035963D+03 -.203280443647038D+03
 0.469427726352940D+03 -.355655426499541D+02 0.218179157479409D+03 0.414119955672846D+03
 0.113096453739880D+03 0.322873204486522D+02 0.662562397919448D+02 0.857813935268905D+02
 0.335055424572941D+03 -.102505653647897D+03 -.854608152353910D+02 -.296620905552699D+03
 0.000000000000000D+00 0.000000000000000D+00 0.000000000000000D+00 0.000000000000000D+00
 0.919493238876776D+03 0.000000000000000D+00 0.000000000000000D+00 0.919493238876776D+03
 0.871252060206473D+03 0.000000000000000D+00 0.000000000000000D+00 -.871252060206473D+03
 0.368732152531116D+03 0.254309285401126D+02 -.295848801687807D+03 -.203280443647038D+03
 0.447029972970515D+03 -.143432625456674D+03 0.881336541971638D+02 0.414119955672846D+03
 0.937220172354289D+02 0.794478379789161D+01 0.369086636125930D+02 0.857813935268905D+02
 0.408719185375240D+03 -.190047934650111D+03 -.191002558788498D+03 -.296620905552699D+03
 0.472541970970947D+03 0.300104847768781D+03 0.361809042666548D+03 0.482411786703029D+02
0.126223459994D-03 0.000000000000D+00 0.000000000000D+00 0.271762415020D-05 0.000000000000D+00  7 1 -1 24 -13 13 -24 21 0 0.23792243D+00 0.37720298D-01 0.11897128D+06 0.11897128D+06 0.11897128D+06 0.11155832D+01  1  2  2  2  7  2       -1 0.654267063499D-03 0.100000000000D+01
-.414864274654D-05 0.000000000000D+00 -.484731321778D-06 0.271762415020D-05 0.000000000000D+00  7 1 -1 24 -13 13 -24 21 2 0.23792243D+00 0.37720298D-01 0.11897128D+06 0.11897128D+06 0.11897128D+06 0.11155832D+01  1  2  3  2  7  2       -1 -.267623942094D-04 0.100000000000D+01
0.751145876298D-05 0.000000000000D+00 0.000000000000D+00 0.271762415020D-05 0.000000000000D+00  7 1 -1 24 -13 13 -24 21 2 0.23792243D+00 0.37720298D-01 0.11897128D+06 0.11897128D+06 0.11897128D+06 0.11155832D+01  1  2 15  2  7  2       -1 0.484555149199D-04 0.100000000000D+01
  </mgrwgt>
  </event>
  <event>
  8     66 0.27727860E-05 0.13835837E+03 0.75467711E-02 0.96902720E-01
        3 -1    0    0  501    0 0.00000000E+00 0.00000000E+00 0.19071453E+03 0.19071519E+03 0.50000000E+00 0.0000E+00 0.9000E+01
       -3 -1    0    0    0  501 0.00000000E+00 0.00000000E+00 -.96883442E+03 0.96883455E+03 0.50000000E+00 0.0000E+00 0.9000E+01
       25  2    1    2    0    0 0.20985121E+03 0.10857986E+03 -.45278431E+02 0.38418615E+03 0.29953589E+03 0.0000E+00 0.0000E+00
       23  2    1    2    0    0 -.20985121E+03 -.10857986E+03 -.73284146E+03 0.77536359E+03 0.91131652E+02 0.0000E+00 0.0000E+00
       24  1    3    3    0    0 -.25086208E+02 -.21005943E+02 -.56970952E+02 0.10384350E+03 0.80419002E+02 0.0000E+00 0.9000E+01
      -13  1    4    4    0    0 -.11790448E+03 -.84425892E+02 -.31399994E+03 0.34586872E+03 0.10565837E+00 0.0000E+00 0.9000E+01
       13  1    4    4    0    0 -.91946729E+02 -.24153969E+02 -.41884152E+03 0.42949487E+03 0.10565837E+00 0.0000E+00 0.9000E+01
      -24  1    3    3    0    0 0.23493742E+03 0.12958580E+03 0.11692520E+02 0.28034265E+03 0.80419002E+02 0.0000E+00 0.9000E+01
#aMCatNLO 1  0  0  2  1 0.20018062D+03 0.00000000D+00  -5  7  0 0.00000000D+00 0.00000000D+00 0.00000000D+00 0.00000000D+00 0.00000000D+00
  <mgrwgt>
 0.8017059799D-04    9    2    0
 0.429850277158584D+03 0.000000000000000D+00 0.000000000000000D+00 0.429850277158584D+03
 0.429850277158584D+03 0.000000000000000D+00 0.000000000000000D+00 -.429850277158584D+03
 0.884976449578725D+02 -.250862076991081D+02 -.210059428068602D+02 0.171478791339121D+02
 0.182298784359032D+03 -.117904516879161D+03 -.844259731588821D+02 -.110470026407385D+03
 0.200199674639845D+03 -.919466942095317D+02 -.241538876286005D+02 -.176188265393197D+03
 0.388704450360419D+03 0.234937418787801D+03 0.129585803594343D+03 0.269510412666670D+03
 0.000000000000000D+00 -.000000000000000D+00 -.000000000000000D+00 -.000000000000000D+00
 0.502731731123932D+03 0.000000000000000D+00 0.000000000000000D+00 0.502731731123932D+03
 0.604557281479291D+03 0.000000000000000D+00 0.000000000000000D+00 -.604557281479291D+03
 0.832972072799770D+02 -.115158552790522D+02 -.667413699841383D+01 0.171478791339121D+02
 0.154024763725428D+03 -.913377774500261D+02 -.563685330367491D+02 -.110470026407385D+03
 0.186751065908874D+03 -.613808312046399D+02 0.812707305641906D+01 -.176188265393197D+03
 0.458625849993383D+03 0.301869405644271D+03 0.200273447386313D+03 0.269510412666670D+03
 0.224590125695562D+03 -.137634941710553D+03 -.145357850407569D+03 -.101825550355359D+03
0.598686203325D-04 0.000000000000D+00 0.000000000000D+00 0.282288341904D-05 0.000000000000D+00  7 3 -3 24 -13 13 -24 21 0 0.29340758D-01 0.14905151D+00 0.92112246D+05 0.92112246D+05 0.92112246D+05 0.11246620D+01  1  2  2  2  7  2       -3 0.733235053700D-04 0.100000000000D+01
-.283613731681D-05 0.000000000000D+00 -.229911265846D-06 0.282288341904D-05 0.000000000000D+00  7 3 -3 24 -13 13 -24 21 2 0.29340758D-01 0.14905151D+00 0.92112246D+05 0.92112246D+05 0.92112246D+05 0.11246620D+01  1  2  3  2  7  2       -3 -.439354712269D-05 0.100000000000D+01
0.370812384655D-05 0.000000000000D+00 0.000000000000D+00 0.282288341904D-05 0.000000000000D+00  7 3 -3 24 -13 13 -24 21 2 0.29340758D-01 0.14905151D+00 0.92112246D+05 0.92112246D+05 0.92112246D+05 0.11246620D+01  1  2 15  2  7  2       -3 0.574436814466D-05 0.100000000000D+01
0.960232320933D-05 0.000000000000D+00 0.000000000000D+00 0.282288341904D-05 0.000000000000D+00  7 3 -3 24 -13 13 -24 21 2 0.29340758D-01 0.21817639D+00 0.16893061D+06 0.16893061D+06 0.16893061D+06 0.11035015D+01  1  2 12  2  7  2       -3 0.296152943565D-05 0.100000000000D+01
-.338877306307D-04 0.000000000000D+00 0.000000000000D+00 0.282288341904D-05 0.000000000000D+00  7 3 -3 24 -13 13 -24 21 2 0.29340758D-01 0.14905151D+00 0.92112246D+05 0.92112246D+05 0.92112246D+05 0.11246620D+01  1  2  4  2  7  2       -3 -.524965207165D-04 0.100000000000D+01
-.373756902873D-04 0.000000000000D+00 -.207345343160D-04 0.282288341904D-05 0.000000000000D+00  7 3 -3 24 -13 13 -24 21 2 0.29340758D-01 0.22914903D+00 0.92112246D+05 0.92112246D+05 0.92112246D+05 0.11246620D+01  1  2  5  2  7  2       -3 -.927059721535D-05 0.100000000000D+01
0.439460187588D-04 0.000000000000D+00 0.189543585894D-04 0.282288341904D-05 0.000000000000D+00  7 3 -3 24 -13 13 -24 21 2 0.29340758D-01 0.14905151D+00 0.92112246D+05 0.92112246D+05 0.92112246D+05 0.11246620D+01  1  2  6  2  7  2       -3 0.680781227082D-04 0.100000000000D+01
0.441111271791D-06 0.000000000000D+00 0.000000000000D+00 0.282288341904D-05 0.000000000000D+00  7 3 21 24 -13 13 -24 3 2 0.29340758D-01 0.21817639D+00 0.16893061D+06 0.16893061D+06 0.16893061D+06 0.11035015D+01  1  2 12  4  7  2       -3 0.299203782930D-05 0.100000000000D+01
-.109813066441D-05 0.000000000000D+00 -.104137749164D-05 0.282288341904D-05 0.000000000000D+00  7 3 21 24 -13 13 -24 3 2 0.29340758D-01 0.22914903D+00 0.92112246D+05 0.92112246D+05 0.92112246D+05 0.11246620D+01  1  2  5  4  7  2       -3 -.676830044041D-05 0.100000000000D+01
  </mgrwgt>
  </event>
  <event>
  8     66 0.27727860E-05 0.20596558E+03 0.75467711E-02 0.10366807E+00
        1 -1    0    0  501    0 0.00000000E+00 0.00000000E+00 0.14596197E+04 0.14596197E+04 0.32000000E+00 0.0000E+00 0.9000E+01
       -1 -1    0    0    0  501 0.00000000E+00 0.00000000E+00 -.77562817E+02 0.77563477E+02 0.32000000E+00 0.0000E+00 0.9000E+01
       25  2    1    2    0    0 -.35465570E+02 0.49987137E+02 0.23932629E+03 0.38920851E+03 0.30074853E+03 0.0000E+00 0.0000E+00
       23  2    1    2    0    0 0.35465570E+02 -.49987137E+02 0.11427306E+04 0.11479747E+04 0.90863478E+02 0.0000E+00 0.0000E+00
       24  1    3    3    0    0 -.20948638E+02 0.15210909E+03 0.11008874E+03 0.20533575E+03 0.80419002E+02 0.0000E+00 0.9000E+01
      -13  1    4    4    0    0 0.66825690E+01 -.71538970E+02 0.65768274E+03 0.66159586E+03 0.10565837E+00 0.0000E+00 0.9000E+01
       13  1    4    4    0    0 0.28783001E+02 0.21551834E+02 0.48504786E+03 0.48637885E+03 0.10565837E+00 0.0000E+00 0.9000E+01
      -24  1    3    3    0    0 -.14516933E+02 -.10212196E+03 0.12923755E+03 0.18387277E+03 0.80419002E+02 0.0000E+00 0.9000E+01
#aMCatNLO 1  0  0  2  1 0.62741198D+02 0.00000000D+00  -5  7  0 0.00000000D+00 0.00000000D+00 0.00000000D+00 0.00000000D+00 0.00000000D+00
  <mgrwgt>
 0.9028571794D-03    4    2    0
 0.336471025150890D+03 0.000000000000000D+00 0.000000000000000D+00 0.336471025150890D+03
 0.336471025150890D+03 0.000000000000000D+00 0.000000000000000D+00 -.336471025150890D+03
 0.242947755855319D+03 -.209486376504870D+02 0.152109093324690D+03 -.170236231247329D+03
 0.160547449668601D+03 0.668253929424129D+01 -.715390958931943D+02 0.143572229287064D+03
 0.114853307167631D+03 0.287830312182206D+02 0.215519591961531D+02 0.109079477153315D+03
 0.154593537610229D+03 -.145169328619749D+02 -.102121956627649D+03 -.824154751930495D+02
 0.000000000000000D+00 -.000000000000000D+00 0.000000000000000D+00 0.000000000000000D+00
 0.467839475698422D+03 0.000000000000000D+00 0.000000000000000D+00 0.467839475698422D+03
 0.345505668724592D+03 0.000000000000000D+00 0.000000000000000D+00 -.345505668724592D+03
 0.234491605651326D+03 -.249070712683360D+01 0.139758789044842D+03 -.170236231247329D+03
 0.165470689248239D+03 0.192864857694296D+02 -.799724667901111D+02 0.143572229287064D+03
 0.116464338368056D+03 0.377258318635616D+02 0.155682813974721D+02 0.109079477153315D+03
 0.159433900375861D+03 -.237655001926822D+01 -.110245154512110D+03 -.824154751930495D+02
 0.137484610779532D+03 -.521450604868893D+02 0.348905508599071D+02 0.122333806973830D+03
0.242961654428D-04 0.000000000000D+00 0.000000000000D+00 0.868855038161D-06 0.000000000000D+00  7 1 -1 24 -13 13 -24 21 0 0.22455693D+00 0.11932795D-01 0.42421819D+05 0.42421819D+05 0.42421819D+05 0.11536274D+01  1  2  2  2  7  2       -1 0.948527203575D-03 0.100000000000D+01
-.954455744327D-06 0.000000000000D+00 -.933036726276D-07 0.868855038161D-06 0.000000000000D+00  7 1 -1 24 -13 13 -24 21 2 0.22455693D+00 0.11932795D-01 0.42421819D+05 0.42421819D+05 0.42421819D+05 0.11536274D+01  1  2  3  2  7  2       -1 -.495905585814D-04 0.100000000000D+01
0.144205809539D-05 0.000000000000D+00 0.000000000000D+00 0.868855038161D-06 0.000000000000D+00  7 1 -1 24 -13 13 -24 21 2 0.22455693D+00 0.11932795D-01 0.42421819D+05 0.42421819D+05 0.42421819D+05 0.11536274D+01  1  2 15  2  7  2       -1 0.749248636015D-04 0.100000000000D+01
-.136660065496D-05 0.000000000000D+00 0.000000000000D+00 0.868855038161D-06 0.000000000000D+00  7 1 -1 24 -13 13 -24 21 2 0.22455693D+00 0.11932795D-01 0.42421819D+05 0.42421819D+05 0.42421819D+05 0.11536274D+01  1  2  4  2  7  2       -1 -.710043291583D-04 0.100000000000D+01
  </mgrwgt>
  </event>
  <event>
  8     66 0.27727860E-05 0.22478981E+03 0.75467711E-02 0.10024920E+00
        1 -1    0    0  501    0 0.00000000E+00 0.00000000E+00 0.19242840E+04 0.19242840E+04 0.32000000E+00 0.0000E+00 0.9000E+01
       -1 -1    0    0    0  501 0.00000000E+00 0.00000000E+00 -.33106593E+02 0.33108140E+02 0.32000000E+00 0.0000E+00 0.9000E+01
       25  2    1    2    0    0 0.11300168E+03 0.78653736E+02 0.11202870E+04 0.11676487E+04 0.29900607E+03 0.0000E+00 0.0000E+00
       23  2    1    2    0    0 -.11300168E+03 -.78653736E+02 0.77089040E+03 0.78974350E+03 0.10230836E+03 0.0000E+00 0.0000E+00
       24  1    3    3    0    0 0.91645979E+02 -.51084852E+02 0.81509794E+03 0.82574846E+03 0.80419002E+02 0.0000E+00 0.9000E+01
      -11  1    4    4    0    0 -.11094035E+03 -.30498480E+02 0.41684546E+03 0.43243272E+03 0.51099893E-03 0.0000E+00 0.9000E+01
       11  1    4    4    0    0 -.20613370E+01 -.48155256E+02 0.35404494E+03 0.35731078E+03 0.51099893E-03 0.0000E+00 0.9000E+01
      -24  1    3    3    0    0 0.21355703E+02 0.12973859E+03 0.30518905E+03 0.34190019E+03 0.80419002E+02 0.0000E+00 0.9000E+01
#aMCatNLO 1  0  0  1  1 0.14939372D+03 0.00000000D+00  -5  7  0 0.00000000D+00 0.00000000D+00 0.00000000D+00 0.00000000D+00 0.00000000D+00
  <mgrwgt>
 0.5539411259D-03    4    2    0
 0.252404489907564D+03 0.000000000000000D+00 0.000000000000000D+00 0.252404489907564D+03
 0.252404489907564D+03 0.000000000000000D+00 0.000000000000000D+00 -.252404489907564D+03
 0.148212010756079D+03 0.916459808227754D+02 -.510848512671488D+02 0.670144488004970D+02
 0.115116210547723D+03 -.110940344202346D+03 -.304984830311249D+02 -.371813016621034D+01
 0.591026325488712D+02 -.206134084532655D+01 -.481552548417675D+02 0.342044365433886D+02
 0.182378125962455D+03 0.213557042248968D+02 0.129738589140041D+03 -.975007551776753D+02
 0.000000000000000D+00 -.000000000000000D+00 -.000000000000000D+00 -.000000000000000D+00
 0.312516779668511D+03 0.000000000000000D+00 0.000000000000000D+00 0.312516779668511D+03
 0.376422312071999D+03 0.000000000000000D+00 0.000000000000000D+00 -.376422312071999D+03
 0.171764119901028D+03 0.132861906323472D+03 -.298743105537610D+02 0.670144488004970D+02
 0.867284372761289D+02 -.849408612086054D+02 -.171186283786693D+02 -.371813016621034D+01
 0.545729616358178D+02 0.125811414284041D+02 -.406199402118250D+02 0.342044365433886D+02
 0.213385418472258D+03 0.723337591498528D+02 0.155972917165911D+03 -.975007551776753D+02
 0.162488154455277D+03 -.132835945693124D+03 -.683600380216557D+02 -.639055324034887D+02
0.101266550736D-04 0.000000000000D+00 0.000000000000D+00 0.265052725760D-08 0.000000000000D+00  7 1 -1 24 -11 11 -24 21 0 0.29604381D+00 0.50934430D-02 0.50530460D+05 0.50530460D+05 0.50530460D+05 0.11468925D+01  1  2  2  1  7  1        1 0.708903172530D-03 0.100000000000D+01
-.553408719395D-06 0.000000000000D+00 -.388890218923D-07 0.265052725760D-08 0.000000000000D+00  7 1 -1 24 -11 11 -24 21 2 0.29604381D+00 0.50934430D-02 0.50530460D+05 0.50530460D+05 0.50530460D+05 0.11468925D+01  1  2  3  1  7  1        1 -.509579912124D-04 0.100000000000D+01
0.671218390185D-06 0.000000000000D+00 0.000000000000D+00 0.265052725760D-08 0.000000000000D+00  7 1 -1 24 -11 11 -24 21 2 0.29604381D+00 0.50934430D-02 0.50530460D+05 0.50530460D+05 0.50530460D+05 0.11468925D+01  1  2 15  1  7  1        1 0.618059304633D-04 0.100000000000D+01
-.180071250440D-05 0.000000000000D+00 0.000000000000D+00 0.265052725760D-08 0.000000000000D+00  7 1 -1 24 -11 11 -24 21 2 0.29604381D+00 0.50934430D-02 0.50530460D+05 0.50530460D+05 0.50530460D+05 0.11468925D+01  1  2  4  1  7  1        1 -.165809985928D-03 0.100000000000D+01
  </mgrwgt>
  </event>
  <event>
  8     66 0.27727860E-05 0.25008593E+03 0.75467711E-02 0.98317320E-01
        1 -1    0    0  501    0 0.00000000E+00 0.00000000E+00 0.18400567E+03 0.18400595E+03 0.32000000E+00 0.0000E+00 0.9000E+01
       -1 -1    0    0    0  501 0.00000000E+00 0.00000000E+00 -.35695239E+03 0.35695254E+03 0.32000000E+00 0.0000E+00 0.9000E+01
       25  2    1    2    0    0 0.38692876E+01 0.14994568E+03 -.10210655E+03 0.35065582E+03 0.30005846E+03 0.0000E+00 0.0000E+00
       23  2    1    2    0    0 -.38692876E+01 -.14994568E+03 -.70840177E+02 0.19030266E+03 0.93263575E+02 0.0000E+00 0.0000E+00
       24  1    3    3    0    0 0.10026994E+03 0.15181263E+03 -.18422778E+02 0.19976924E+03 0.80419002E+02 0.0000E+00 0.9000E+01
      -11  1    4    4    0    0 0.29015141E+02 -.13751789E+03 -.48635248E+02 0.14872269E+03 0.51099893E-03 0.0000E+00 0.9000E+01
       11  1    4    4    0    0 -.32884429E+02 -.12427781E+02 -.22204929E+02 0.41579974E+02 0.51099893E-03 0.0000E+00 0.9000E+01
      -24  1    3    3    0    0 -.96400650E+02 -.18669540E+01 -.83683771E+02 0.15088658E+03 0.80419002E+02 0.0000E+00 0.9000E+01
#aMCatNLO 1  0  0  2  1 0.19580075D+03 0.00000000D+00  -5  7  0 0.00000000D+00 0.00000000D+00 0.00000000D+00 0.00000000D+00 0.00000000D+00
  <mgrwgt>
 0.5932941891D-03    6    2    0
 0.256283782569619D+03 0.000000000000000D+00 0.000000000000000D+00 0.256283782569619D+03
 0.256283782569619D+03 0.000000000000000D+00 0.000000000000000D+00 -.256283782569619D+03
 0.204618304804138D+03 0.100269937297350D+03 0.151812630392252D+03 0.479614390351212D+02
 0.140550233948273D+03 0.290151408802949D+02 -.137517894898102D+03 -.114823577956624D+01
 0.363908511103456D+02 -.328844284962202D+02 -.124277814930035D+02 -.940524609856035D+01
 0.131008175276481D+03 -.964006496814248D+02 -.186695400114696D+01 -.374079571569947D+02
 0.000000000000000D+00 -.000000000000000D+00 0.000000000000000D+00 -.000000000000000D+00
 0.365065966510822D+03 0.000000000000000D+00 0.000000000000000D+00 0.365065966510822D+03
 0.379995624342282D+03 0.000000000000000D+00 0.000000000000000D+00 -.379995624342282D+03
 0.184725938903697D+03 0.132848610118938D+03 0.877918202603675D+02 0.479614390351212D+02
 0.202301303081045D+03 0.577035014552063D+02 -.193893797483809D+03 -.114823577956624D+01
 0.374895140230870D+02 -.267024333016856D+02 -.245761075697880D+02 -.940524609856035D+01
 0.124175726836561D+03 -.750479444838224D+02 -.438274565895759D+02 -.374079571569947D+02
 0.196369108008715D+03 -.888017337886359D+02 0.174505541382805D+03 -.149296578314603D+02
0.580929018480D-05 0.000000000000D+00 0.000000000000D+00 0.199727209626D-06 0.000000000000D+00  7 1 -1 24 -11 11 -24 21 0 0.28308597D-01 0.54915785D-01 0.62542973D+05 0.62542973D+05 0.62542973D+05 0.11388419D+01  1  2  2  2  7  2       -1 0.402324626123D-03 0.100000000000D+01
-.322503173459D-06 0.000000000000D+00 -.223092039309D-07 0.199727209626D-06 0.000000000000D+00  7 1 -1 24 -11 11 -24 21 2 0.28308597D-01 0.54915785D-01 0.62542973D+05 0.62542973D+05 0.62542973D+05 0.11388419D+01  1  2  3  2  7  2       -1 -.289677255684D-04 0.100000000000D+01
0.374655931872D-06 0.000000000000D+00 0.000000000000D+00 0.199727209626D-06 0.000000000000D+00  7 1 -1 24 -11 11 -24 21 2 0.28308597D-01 0.54915785D-01 0.62542973D+05 0.62542973D+05 0.62542973D+05 0.11388419D+01  1  2 15  2  7  2       -1 0.336521656536D-04 0.100000000000D+01
-.145618798165D-05 0.000000000000D+00 -.178601795384D-05 0.199727209626D-06 0.000000000000D+00  7 1 -1 24 -11 11 -24 21 2 0.28308597D-01 0.10967775D+00 0.62542973D+05 0.62542973D+05 0.62542973D+05 0.11388419D+01  1  2  5  2  7  2       -1 -.325853134347D-04 0.100000000000D+01
0.244017807677D-05 0.000000000000D+00 0.143001548300D-05 0.199727209626D-06 0.000000000000D+00  7 1 -1 24 -11 11 -24 21 2 0.28308597D-01 0.54915785D-01 0.62542973D+05 0.62542973D+05 0.62542973D+05 0.11388419D+01  1  2  6  2  7  2       -1 0.219180506373D-03 0.100000000000D+01
-.195961432621D-08 0.000000000000D+00 -.133688688962D-06 0.199727209626D-06 0.000000000000D+00  7 1 21 24 -11 11 -24 1 2 0.28308597D-01 0.10967775D+00 0.62542973D+05 0.62542973D+05 0.62542973D+05 0.11388419D+01  1  2  5  4  7  2       -1 -.310070092195D-06 0.100000000000D+01
  </mgrwgt>
  </event>
  <event>
  9     66 0.27727860E-05 0.26492839E+03 0.75467711E-02 0.98827453E-01
        1 -1    0    0  501    0 0.00000000E+00 0.00000000E+00 0.22112093E+03 0.22112117E+03 0.32000000E+00 0.0000E+00 0.9000E+01
       -1 -1    0    0    0  502 0.00000000E+00 0.00000000E+00 -.63575945E+03 0.63575953E+03 0.32000000E+00 0.0000E+00 0.9000E+01
       25  2    1    2    0    0 0.13201102E+03 -.38694468E+01 -.71412889E+02 0.34146346E+03 0.30668488E+03 0.0000E+00 0.0000E+00
       23  2    1    2    0    0 -.15120613E+03 0.15117309E+03 -.17471710E+03 0.29077863E+03 0.91156747E+02 0.0000E+00 0.0000E+00
       24  1    3    3    0    0 -.69620538E+02 0.11522894E+02 0.13547007E+02 0.10784495E+03 0.80419002E+02 0.0000E+00 0.9000E+01
      -11  1    4    4    0    0 -.12894728E+03 0.75332737E+02 -.87543691E+02 0.17310783E+03 0.51099893E-03 0.0000E+00 0.9000E+01
       11  1    4    4    0    0 -.22258848E+02 0.75840353E+02 -.87173404E+02 0.11767080E+03 0.51099893E-03 0.0000E+00 0.9000E+01
      -24  1    3    3    0    0 0.20163155E+03 -.15392340E+02 -.84959896E+02 0.23361851E+03 0.80419002E+02 0.0000E+00 0.9000E+01
       21  1    1    2  501  502 0.19195113E+02 -.14730364E+03 -.16850853E+03 0.22463861E+03 0.75000000E+00 0.0000E+00 0.9000E+01
#aMCatNLO 2  0  0  2  1 0.14854903D+03 0.00000000D+00  -5  7  0 0.00000000D+00 0.00000000D+00 0.00000000D+00 0.00000000D+00 0.00000000D+00
  <mgrwgt>
 0.3747372988D-04    2    2    0
 0.281550739982620D+03 0.000000000000000D+00 0.000000000000000D+00 0.281550739982620D+03
 0.281550739982620D+03 0.000000000000000D+00 0.000000000000000D+00 -.281550739982620D+03
 0.121620536205694D+03 -.655245594038549D+02 -.199097098857846D+02 0.602866024899781D+02
 0.131995717904827D+03 -.124206097150738D+03 0.389488087426558D+02 -.218793343893252D+02
 0.734177159658300D+02 -.195052051265790D+02 0.547088452848906D+02 -.449071290354133D+02
 0.236067509888889D+03 0.209235861681172D+03 -.737479441417618D+02 0.649986093476047D+01
 0.000000000000000D+00 0.000000000000000D+00 -.000000000000000D+00 -.000000000000000D+00
 0.333512197543044D+03 0.000000000000000D+00 0.000000000000000D+00 0.333512197543044D+03
 0.421511457848098D+03 0.000000000000000D+00 0.000000000000000D+00 -.421511457848098D+03
 0.122806704205151D+03 -.696205367287238D+02 0.115228932643087D+02 0.602866024899781D+02
 0.150934183935748D+03 -.128947280909629D+03 0.753327375915905D+02 -.218793343893252D+02
 0.909058066751781D+02 -.222588483847887D+02 0.758403528317516D+02 -.449071290354133D+02
 0.217719248850571D+03 0.201631552640173D+03 -.153923407390908D+02 0.649986093476047D+01
 0.172657711724494D+03 0.191951133829681D+02 -.147303642948560D+03 -.879992603050542D+02
-.190772322146D-05 0.000000000000D+00 0.000000000000D+00 0.603713845434D-08 0.000000000000D+00  7 1 -1 24 -11 11 -24 21 2 0.28718435D-01 0.10142897D+00 0.12304003D+06 0.12304003D+06 0.12304003D+06 0.11144067D+01  1  2 13  2  7  2       -1 -.471738950353D-04 0.100000000000D+01
0.393821257462D-05 0.000000000000D+00 0.000000000000D+00 0.603713845434D-08 0.187503083576D-11  7 1 -1 24 -11 11 -24 21 2 0.34018551D-01 0.97808946D-01 0.12304003D+06 0.12304003D+06 0.12304003D+06 0.11144067D+01  1  2  1  2  7  2       -1 0.846476249152D-04 0.100000000000D+01
  </mgrwgt>
  </event>
  <event>
  8     66 -.27727860E-05 0.59944136E+02 0.75467711E-02 0.11535380E+00
        1 -1    0    0  501    0 0.00000000E+00 0.00000000E+00 0.19623836E+03 0.19623862E+03 0.32000000E+00 0.0000E+00 0.9000E+01
       -1 -1    0    0    0  501 0.00000000E+00 0.00000000E+00 -.69056295E+03 0.69056302E+03 0.32000000E+00 0.0000E+00 0.9000E+01
       25  2    1    2    0    0 -.73209039E+01 0.19771884E+02 -.64396718E+03 0.70961796E+03 0.29735400E+03 0.0000E+00 0.0000E+00
       23  2    1    2    0    0 0.73209039E+01 -.19771884E+02 0.14964259E+03 0.17718368E+03 0.92502043E+02 0.0000E+00 0.0000E+00
       24  1    3    3    0    0 -.27276457E+02 0.80754315E+01 -.61526924E+03 0.62115430E+03 0.80419002E+02 0.0000E+00 0.9000E+01
      -13  1    4    4    0    0 0.28344172E+02 -.27222356E+01 0.14728597E+03 0.15001324E+03 0.10565837E+00 0.0000E+00 0.9000E+01
       13  1    4    4    0    0 -.21023268E+02 -.17049648E+02 0.23566240E+01 0.27170446E+02 0.10565837E+00 0.0000E+00 0.9000E+01
      -24  1    3    3    0    0 0.19955553E+02 0.11696452E+02 -.28697939E+02 0.88463658E+02 0.80419002E+02 0.0000E+00 0.9000E+01
#aMCatNLO 1  0  0  1  2 0.15831174D+03 0.00000000D+00  -5  7  0 0.00000000D+00 0.00000000D+00 0.00000000D+00 0.00000000D+00 0.00000000D+00
  <mgrwgt>
 -.8026129612D-04    1    2    0
 0.368123743576581D+03 0.000000000000000D+00 0.000000000000000D+00 0.368123743576581D+03
 0.368123743576581D+03 0.000000000000000D+00 0.000000000000000D+00 -.368123743576581D+03
 0.335074757992364D+03 -.272764570354016D+02 0.807543154355071D+01 -.324034966919084D+03
 0.279578944885940D+03 0.283442356150929D+02 -.272221732083349D+01 0.278125116204542D+03
 0.343084330558588D+02 -.210233317229142D+02 -.170496666775207D+02 0.210807250397632D+02
 0.872853512189989D+02 0.199555531432228D+02 0.116964524548034D+02 0.248291256747793D+02
 0.000000000000000D+00 -.000000000000000D+00 0.000000000000000D+00 0.000000000000000D+00
 0.399733575395310D+03 0.000000000000000D+00 0.000000000000000D+00 0.399733575395310D+03
 0.377980202149291D+03 0.000000000000000D+00 0.000000000000000D+00 -.377980202149291D+03
 0.334703940459479D+03 -.226702335330209D+02 -.684927222687138D+01 -.324034966919084D+03
 0.280394653679247D+03 0.321953039700372D+02 -.152001299465417D+02 0.278125116204542D+03
 0.348166974407231D+02 -.205479421629976D+02 -.185899845439113D+02 0.210807250397632D+02
 0.871334183546583D+02 0.211550714878992D+02 0.780987249353357D+01 0.248291256747793D+02
 0.406650676104948D+02 -.101321997619179D+02 0.328295142237909D+02 0.217533732460191D+02
-.312743910517D-05 0.000000000000D+00 0.000000000000D+00 0.911176358871D-07 0.000000000000D+00  7 1 -1 24 -13 13 -24 21 2 0.30190543D-01 0.10624048D+00 0.12602758D+05 0.12602758D+05 0.12602758D+05 0.12039845D+01  1  2 14  1  7  1        1 -.802612961210D-04 0.100000000000D+01
  </mgrwgt>
  </event>
  <event>
  8     66 0.27727860E-05 0.33758030E+03 0.75467711E-02 0.99127922E-01
        1 -1    0    0  501    0 0.00000000E+00 0.00000000E+00 0.13207668E+04 0.13207668E+04 0.32000000E+00 0.0000E+00 0.9000E+01
       -1 -1    0    0    0  501 0.00000000E+00 0.00000000E+00 -.13479908E+03 0.13479946E+03 0.32000000E+00 0.0000E+00 0.9000E+01
       25  2    1    2    0    0 -.16330395E+02 -.29407515E+03 0.10234116E+04 0.11065053E+04 0.30039280E+03 0.0000E+00 0.0000E+00
       23  2    1    2    0    0 0.16330395E+02 0.29407515E+03 0.16255605E+03 0.34906092E+03 0.93124559E+02 0.0000E+00 0.0000E+00
       24  1    3    3    0    0 -.68506708E+02 -.23559550E+03 0.42216512E+03 0.49486263E+03 0.80419002E+02 0.0000E+00 0.9000E+01
      -13  1    4    4    0    0 -.23737234E+02 0.33635066E+02 0.36000467E+01 0.41324877E+02 0.10565837E+00 0.0000E+00 0.9000E+01
       13  1    4    4    0    0 0.40067629E+02 0.26044008E+03 0.15895601E+03 0.30773605E+03 0.10565837E+00 0.0000E+00 0.9000E+01
      -24  1    3    3    0    0 0.52176313E+02 -.58479643E+02 0.60124650E+03 0.61164271E+03 0.80419002E+02 0.0000E+00 0.9000E+01
#aMCatNLO 1  0  0  2  1 0.95981581D+01 0.00000000D+00  -5  7  0 0.00000000D+00 0.00000000D+00 0.00000000D+00 0.00000000D+00 0.00000000D+00
  <mgrwgt>
 0.4566330379D-03    8    2    0
 0.421946026000009D+03 0.000000000000000D+00 0.000000000000000D+00 0.421946026000009D+03
 0.421946026000009D+03 0.000000000000000D+00 0.000000000000000D+00 -.421946026000009D+03
 0.260259764809680D+03 -.685067081856164D+02 -.235595502061430D+03 0.327035100014231D+02
 0.662185347205737D+02 -.237373160389148D+02 0.336347742203668D+02 -.518665222562055D+02
 0.307401612816034D+03 0.400677111787778D+02 0.260440371371864D+03 -.158307116209218D+03
 0.210012139653729D+03 0.521763130457534D+02 -.584796435308005D+02 0.177470128464001D+03
 0.000000000000000D+00 -.000000000000000D+00 0.000000000000000D+00 0.000000000000000D+00
 0.443619073949489D+03 0.000000000000000D+00 0.000000000000000D+00 0.443619073949489D+03
 0.423037320131347D+03 0.000000000000000D+00 0.000000000000000D+00 -.423037320131347D+03
 0.262721634516162D+03 -.678578460508174D+02 -.238497870957801D+03 0.327035100014231D+02
 0.657905788284010D+02 -.235735325557150D+02 0.329021685374573D+02 -.518665222562055D+02
 0.304630117648907D+03 0.408270579083291D+02 0.257043803424354D+03 -.158307116209218D+03
 0.210804302430504D+03 0.526984192914465D+02 -.608150316615472D+02 0.177470128464001D+03
 0.227097606568612D+02 -.209409859324321D+01 0.936693065753659D+01 0.205817538181419D+02
0.273675516928D-04 0.000000000000D+00 0.000000000000D+00 0.803350648455D-06 0.000000000000D+00  7 1 -1 24 -13 13 -24 21 0 0.20319492D+00 0.20738352D-01 0.11396046D+06 0.11396046D+06 0.11396046D+06 0.11170942D+01  1  2  2  2  7  2       -1 0.543367575165D-03 0.100000000000D+01
-.142842907711D-05 0.000000000000D+00 -.105098604542D-06 0.803350648455D-06 0.000000000000D+00  7 1 -1 24 -13 13 -24 21 2 0.20319492D+00 0.20738352D-01 0.11396046D+06 0.11396046D+06 0.11396046D+06 0.11170942D+01  1  2  3  2  7  2       -1 -.353912649396D-04 0.100000000000D+01
0.164159324883D-05 0.000000000000D+00 0.000000000000D+00 0.803350648455D-06 0.000000000000D+00  7 1 -1 24 -13 13 -24 21 2 0.20319492D+00 0.20738352D-01 0.11396046D+06 0.11396046D+06 0.11396046D+06 0.11170942D+01  1  2 15  2  7  2       -1 0.406726959871D-04 0.100000000000D+01
-.371335898223D-05 0.000000000000D+00 0.000000000000D+00 0.803350648455D-06 0.000000000000D+00  7 1 -1 24 -13 13 -24 21 2 0.20319492D+00 0.20738352D-01 0.11396046D+06 0.11396046D+06 0.11396046D+06 0.11170942D+01  1  2  4  2  7  2       -1 -.920034978721D-04 0.100000000000D+01
0.567312051013D-08 0.000000000000D+00 0.000000000000D+00 0.803350648455D-06 0.000000000000D+00  7 1 -1 24 -13 13 -24 21 2 0.20319492D+00 0.22091987D-01 0.11396046D+06 0.11396046D+06 0.11396046D+06 0.11170942D+01  1  2  5  2  7  2       -1 0.126910773350D-06 0.100000000000D+01
-.566179862920D-08 0.000000000000D+00 0.000000000000D+00 0.803350648455D-06 0.000000000000D+00  7 1 -1 24 -13 13 -24 21 2 0.20319492D+00 0.20738352D-01 0.11396046D+06 0.11396046D+06 0.11396046D+06 0.11170942D+01  1  2  6  2  7  2       -1 -.140278728942D-06 0.100000000000D+01
0.268830595126D-10 0.000000000000D+00 0.000000000000D+00 0.803350648455D-06 0.579904930068D-07  7 1 -1 24 -13 13 -24 21 2 0.21363192D+00 0.20791989D-01 0.11723237D+06 0.11723237D+06 0.11723237D+06 0.11160996D+01  1  2 11  2  7  2       -1 0.595206131719D-09 0.100000000000D+01
0.114301977669D-11 0.000000000000D+00 0.000000000000D+00 0.803350648455D-06 0.285220938495D-10  7 1 21 24 -13 13 -24 1 2 0.21363192D+00 0.20791989D-01 0.11723237D+06 0.11723237D+06 0.11723237D+06 0.11160996D+01  1  2 11  4  7  2       -1 0.302358742645D-09 0.100000000000D+01
  </mgrwgt>
  </event>
  <event>
  8     66 0.27727860E-05 0.29380331E+03 0.75467711E-02 0.93841660E-01
        1 -1    0    0  501    0 0.00000000E+00 0.00000000E+00 0.82299980E+03 0.82299986E+03 0.32000000E+00 0.0000E+00 0.9000E+01
       -1 -1    0    0    0  501 0.00000000E+00 0.00000000E+00 -.26583545E+03 0.26583564E+03 0.32000000E+00 0.0000E+00 0.9000E+01
       25  2    1    2    0    0 0.16608364E+03 -.20360387E+03 0.67717827E+03 0.78586507E+03 0.29995864E+03 0.0000E+00 0.0000E+00
       23  2    1    2    0    0 -.16608364E+03 0.20360387E+03 -.12001392E+03 0.30297042E+03 0.91375189E+02 0.0000E+00 0.0000E+00
       24  1    3    3    0    0 0.27453904E+02 -.54655140E+02 0.48260734E+03 0.49306994E+03 0.80419002E+02 0.0000E+00 0.9000E+01
      -11  1    4    4    0    0 -.97636604E+02 0.15730101E+03 -.11945401E+03 0.22033106E+03 0.51099893E-03 0.0000E+00 0.9000E+01
       11  1    4    4    0    0 -.68447034E+02 0.46302858E+02 -.55991286E+00 0.82639364E+02 0.51099893E-03 0.0000E+00 0.9000E+01
      -24  1    3    3    0    0 0.13862973E+03 -.14894873E+03 0.19457093E+03 0.29279513E+03 0.80419002E+02 0.0000E+00 0.9000E+01
#aMCatNLO 1  0  0  1  1 0.39536781D+03 0.00000000D+00  -5  7  0 0.00000000D+00 0.00000000D+00 0.00000000D+00 0.00000000D+00 0.00000000D+00
  <mgrwgt>
 0.6329397903D-03    5    2    0
 0.467742082892940D+03 0.000000000000000D+00 0.000000000000000D+00 0.467742082892940D+03
 0.467742082892940D+03 0.000000000000000D+00 0.000000000000000D+00 -.467742082892940D+03
 0.286461763502347D+03 0.274539044565091D+02 -.546551401062416D+02 0.268052653007882D+03
 0.327594849325337D+03 -.976366035950675D+02 0.157301014768838D+03 -.270262593962990D+03
 0.965196848720236D+02 -.684470338274180D+02 0.463028575780969D+02 -.498708182018855D+02
 0.224907868086172D+03 0.138629732965976D+03 -.148948732240693D+03 0.520807591569928D+02
 0.000000000000000D+00 0.000000000000000D+00 0.000000000000000D+00 0.000000000000000D+00
 0.819224311647651D+03 0.000000000000000D+00 0.000000000000000D+00 0.819224311647651D+03
 0.633285533391038D+03 0.000000000000000D+00 0.000000000000000D+00 -.633285533391038D+03
 0.333627917863788D+03 0.225912539097876D+02 -.180215931831721D+03 0.268052653007882D+03
 0.290816774622490D+03 -.102486095066468D+03 0.320800097295999D+02 -.270262593962990D+03
 0.863508303574953D+02 -.698810770595211D+02 0.927375136094801D+01 -.498708182018855D+02
 0.304805939407339D+03 0.134475796506432D+03 -.256209483476338D+03 0.520807591569928D+02
 0.436908382787577D+03 0.153001217097703D+02 0.395071654217511D+03 0.185938778256612D+03
0.415569505714D-04 0.000000000000D+00 0.000000000000D+00 0.935473343948D-05 0.000000000000D+00  7 1 -1 24 -11 11 -24 21 0 0.12661537D+00 0.40897780D-01 0.86320387D+05 0.86320387D+05 0.86320387D+05 0.11270027D+01  1  2  2  1  7  1        1 0.626013723561D-03 0.100000000000D+01
-.170174460505D-05 0.000000000000D+00 -.159589632390D-06 0.935473343948D-05 0.000000000000D+00  7 1 -1 24 -11 11 -24 21 2 0.12661537D+00 0.40897780D-01 0.86320387D+05 0.86320387D+05 0.86320387D+05 0.11270027D+01  1  2  3  1  7  1        1 -.325600053220D-04 0.100000000000D+01
0.252258580919D-05 0.000000000000D+00 0.000000000000D+00 0.935473343948D-05 0.000000000000D+00  7 1 -1 24 -11 11 -24 21 2 0.12661537D+00 0.40897780D-01 0.86320387D+05 0.86320387D+05 0.86320387D+05 0.11270027D+01  1  2 15  1  7  1        1 0.482654136989D-04 0.100000000000D+01
-.235107267137D-05 0.000000000000D+00 -.125696652504D-04 0.935473343948D-05 0.000000000000D+00  7 1 -1 24 -11 11 -24 21 2 0.26403178D+00 0.40897780D-01 0.86320387D+05 0.86320387D+05 0.86320387D+05 0.11270027D+01  1  2  5  1  7  1        1 -.105714734050D-04 0.100000000000D+01
0.588764861046D-06 0.000000000000D+00 -.998943744255D-06 0.935473343948D-05 0.000000000000D+00  7 21 -1 24 -11 11 -24 -1 2 0.26403178D+00 0.40897780D-01 0.86320387D+05 0.86320387D+05 0.86320387D+05 0.11270027D+01  1  2  5  3  7  1        1 0.179213180756D-05 0.100000000000D+01
  </mgrwgt>
  </event>
  <event>
  8     66 0.27727860E-05 0.34012505E+03 0.75467711E-02 0.89241870E-01
        1 -1    0    0  501    0 0.00000000E+00 0.00000000E+00 0.98868987E+03 0.98868992E+03 0.32000000E+00 0.0000E+00 0.9000E+01
       -1 -1    0    0    0  501 0.00000000E+00 0.00000000E+00 -.51373266E+03 0.51373276E+03 0.32000000E+00 0.0000E+00 0.9000E+01
       25  2    1    2    0    0 -.19984978E+03 0.49505849E+03 -.19065840E+03 0.64282955E+03 0.30307814E+03 0.0000E+00 0.0000E+00
       23  2    1    2    0    0 0.19984978E+03 -.49505849E+03 0.66561561E+03 0.85959314E+03 0.10408357E+03 0.0000E+00 0.0000E+00
       24  1    3    3    0    0 -.35352367E+02 0.39614517E+03 -.12875721E+03 0.42570696E+03 0.80419002E+02 0.0000E+00 0.9000E+01
      -11  1    4    4    0    0 0.10166833E+03 -.22322353E+03 0.38672980E+03 0.45795756E+03 0.51099893E-03 0.0000E+00 0.9000E+01
       11  1    4    4    0    0 0.98181448E+02 -.27183496E+03 0.27888581E+03 0.40163558E+03 0.51099893E-03 0.0000E+00 0.9000E+01
      -24  1    3    3    0    0 -.16449741E+03 0.98913323E+02 -.61901189E+02 0.21712259E+03 0.80419002E+02 0.0000E+00 0.9000E+01
#aMCatNLO 1  0  0  1  2 0.45648261D+03 0.00000000D+00  -5  7  0 0.00000000D+00 0.00000000D+00 0.00000000D+00 0.00000000D+00 0.00000000D+00
  <mgrwgt>
 0.8012169067D-03    9    2    0
 0.712686745216877D+03 0.000000000000000D+00 0.000000000000000D+00 0.712686745216877D+03
 0.712686745216877D+03 0.000000000000000D+00 0.000000000000000D+00 -.712686745216877D+03
 0.491622700218913D+03 -.353523668770004D+02 0.396145166990814D+03 -.277569595312921D+03
 0.353848118560609D+03 0.101668331154333D+03 -.223223529368142D+03 0.255035874703160D+03
 0.330416963003282D+03 0.981814479594472D+02 -.271834960622390D+03 0.160129718979089D+03
 0.249485708650949D+03 -.164497412236780D+03 0.989133229997183D+02 -.137595998369328D+03
 0.000000000000000D+00 0.000000000000000D+00 -.000000000000000D+00 0.000000000000000D+00
 0.105278417452687D+04 0.000000000000000D+00 0.000000000000000D+00 0.105278417452687D+04
 0.919456035922340D+03 0.000000000000000D+00 0.000000000000000D+00 -.919456035922340D+03
 0.621758711914879D+03 -.145151576858490D+03 0.531039376488217D+03 -.277569595312921D+03
 0.295553568499317D+03 0.376257744682349D+02 -.144543818832700D+03 0.255035874703160D+03
 0.259581181198850D+03 0.399971371581864D+02 -.200352418880875D+03 0.160129718979089D+03
 0.319791529171023D+03 -.220638273124249D+03 0.167885377090049D+03 -.137595998369328D+03
 0.475555219665139D+03 0.288166938356318D+03 -.354028515864691D+03 0.133328138604529D+03
0.247874955143D-03 0.000000000000D+00 0.000000000000D+00 0.514841950487D-08 0.000000000000D+00  7 1 -1 24 -11 11 -24 21 0 0.15210615D+00 0.79035806D-01 0.32958405D+06 0.32958405D+06 0.32958405D+06 0.10815429D+01  1  2  2  1  7  1        1 0.766356327316D-03 0.100000000000D+01
-.129878549111D-04 0.000000000000D+00 -.951905094724D-06 0.514841950487D-08 0.000000000000D+00  7 1 -1 24 -11 11 -24 21 2 0.15210615D+00 0.79035806D-01 0.32958405D+06 0.32958405D+06 0.32958405D+06 0.10815429D+01  1  2  3  1  7  1        1 -.469702629101D-04 0.100000000000D+01
0.153250812054D-04 0.000000000000D+00 0.000000000000D+00 0.514841950487D-08 0.000000000000D+00  7 1 -1 24 -11 11 -24 21 2 0.15210615D+00 0.79035806D-01 0.32958405D+06 0.32958405D+06 0.32958405D+06 0.10815429D+01  1  2 15  1  7  1        1 0.554227852301D-04 0.100000000000D+01
0.853105854002D-05 0.000000000000D+00 0.000000000000D+00 0.514841950487D-08 0.000000000000D+00  7 1 -1 24 -11 11 -24 21 2 0.23821638D+00 0.79035806D-01 0.68491153D+06 0.68491153D+06 0.68491153D+06 0.10589837D+01  1  2 12  1  7  1        1 0.113916104168D-04 0.100000000000D+01
-.979190802598D-04 0.000000000000D+00 0.000000000000D+00 0.514841950487D-08 0.000000000000D+00  7 1 -1 24 -11 11 -24 21 2 0.15210615D+00 0.79035806D-01 0.32958405D+06 0.32958405D+06 0.32958405D+06 0.10815429D+01  1  2  4  1  7  1        1 -.354121983592D-03 0.100000000000D+01
-.998208223084D-04 0.000000000000D+00 -.813326426238D-04 0.514841950487D-08 0.000000000000D+00  7 1 -1 24 -11 11 -24 21 2 0.26114733D+00 0.79035806D-01 0.32958405D+06 0.32958405D+06 0.32958405D+06 0.10815429D+01  1  2  5  1  7  1        1 -.115384326792D-03 0.100000000000D+01
0.134273591204D-03 0.000000000000D+00 0.707446767093D-04 0.514841950487D-08 0.000000000000D+00  7 1 -1 24 -11 11 -24 21 2 0.15210615D+00 0.79035806D-01 0.32958405D+06 0.32958405D+06 0.32958405D+06 0.10815429D+01  1  2  6  1  7  1        1 0.485597192446D-03 0.100000000000D+01
0.442272797529D-06 0.000000000000D+00 0.000000000000D+00 0.514841950487D-08 0.000000000000D+00  7 21 -1 24 -11 11 -24 -1 2 0.23821638D+00 0.79035806D-01 0.68491153D+06 0.68491153D+06 0.68491153D+06 0.10589837D+01  1  2 12  3  7  1        1 0.422608947096D-06 0.100000000000D+01
-.200454870820D-05 0.000000000000D+00 -.488383985392D-05 0.514841950487D-08 0.000000000000D+00  7 21 -1 24 -11 11 -24 -1 2 0.26114733D+00 0.79035806D-01 0.32958405D+06 0.32958405D+06 0.32958405D+06 0.10815429D+01  1  2  5  3  7  1        1 -.149704440461D-05 0.100000000000D+01
  </mgrwgt>
  </event>
  <event>
  9     66 0.27727860E-05 0.24582327E+03 0.75467711E-02 0.99270513E-01
        1 -1    0    0  501    0 0.00000000E+00 0.00000000E+00 0.91353853E+03 0.91353859E+03 0.32000000E+00 0.0000E+00 0.9000E+01
       21 -1    0    0  502  501 0.00000000E+00 0.00000000E+00 -.15318942E+03 0.15319126E+03 0.75000000E+00 0.0000E+00 0.9000E+01
       25  2    1    2    0    0 0.62683284E+01 -.98848955E+02 0.35030672E+03 0.47202196E+03 0.30046552E+03 0.0000E+00 0.0000E+00
       23  2    1    2    0    0 -.12508866E+03 0.21073859E+03 0.29808691E+03 0.39678948E+03 0.92348019E+02 0.0000E+00 0.0000E+00
       24  1    3    3    0    0 0.76432943E+01 -.14398090E+03 0.34157624E+03 0.37938169E+03 0.80419002E+02 0.0000E+00 0.9000E+01
      -11  1    4    4    0    0 0.25867465E+01 0.55136191E+02 0.10093386E+03 0.11504058E+03 0.51099893E-03 0.0000E+00 0.9000E+01
       11  1    4    4    0    0 -.12767541E+03 0.15560240E+03 0.19715306E+03 0.28174890E+03 0.51099893E-03 0.0000E+00 0.9000E+01
      -24  1    3    3    0    0 -.13749659E+01 0.45131946E+02 0.87304727E+01 0.92640273E+02 0.80419002E+02 0.0000E+00 0.9000E+01
        1  1    1    2  502    0 0.11882034E+03 -.11188963E+03 0.11195548E+03 0.19791840E+03 0.32000000E+00 0.0000E+00 0.9000E+01
#aMCatNLO 2  0  0  2  1 0.16321018D+03 0.00000000D+00  -5  7  0 0.00000000D+00 0.00000000D+00 0.00000000D+00 0.00000000D+00 0.00000000D+00
  <mgrwgt>
 0.1419234417D-03    2    2    0
 0.277390275550711D+03 0.000000000000000D+00 0.000000000000000D+00 0.277390275550711D+03
 0.277390275550711D+03 0.000000000000000D+00 0.000000000000000D+00 -.277390275550711D+03
 0.225590894547532D+03 0.509090868026845D+02 -.184723031888520D+03 0.878049094254683D+02
 0.516274214564106D+02 0.142575242330843D+02 0.441461608535333D+02 0.226545829993586D+02
 0.152083835784826D+03 -.905188511057876D+02 0.120613152431833D+03 -.197052825904520D+02
 0.125478399312655D+03 0.253522400700188D+02 0.199637186031534D+02 -.907542098343749D+02
 0.000000000000000D+00 0.000000000000000D+00 -.000000000000000D+00 -.000000000000000D+00
 0.348199661540902D+03 0.000000000000000D+00 0.000000000000000D+00 0.348199661540902D+03
 0.401911171277623D+03 0.000000000000000D+00 0.000000000000000D+00 -.401911171277623D+03
 0.186991545241872D+03 0.764329429933134D+01 -.143980901409220D+03 0.878049094254683D+02
 0.596650727954370D+02 0.258674647061122D+01 0.551361906873040D+02 0.226545829993586D+02
 0.202240981663298D+03 -.127675410745902D+03 0.155602397131375D+03 -.197052825904520D+02
 0.129392139066432D+03 -.137496585361701D+01 0.451319461585248D+02 -.907542098343749D+02
 0.171821094051486D+03 0.118820335829577D+03 -.111889632567983D+03 -.537115097367214D+02
-.311411106752D-07 0.000000000000D+00 0.000000000000D+00 0.286419038015D-06 0.000000000000D+00  7 1 21 24 -11 11 -24 1 2 0.11196355D+00 0.24888641D-01 0.11458496D+06 0.11458496D+06 0.11458496D+06 0.11169020D+01  1  2 13  4  7  2       -1 -.185457994382D-04 0.100000000000D+01
0.348759600165D-06 0.000000000000D+00 0.000000000000D+00 0.286419038015D-06 0.769601563919D-11  7 1 21 24 -11 11 -24 1 2 0.14054448D+00 0.23567739D-01 0.11458496D+06 0.11458496D+06 0.11458496D+06 0.11169020D+01  1  2  1  4  7  2       -1 0.160469241142D-03 0.100000000000D+01
  </mgrwgt>
  </event>
  <event>
  8     66 0.27727860E-05 0.21868534E+03 0.75467711E-02 0.10345950E+00
        3 -1    0    0  501    0 0.00000000E+00 0.00000000E+00 0.41965920E+03 0.41965950E+03 0.50000000E+00 0.0000E+00 0.9000E+01
       -3 -1    0    0    0  501 0.00000000E+00 0.00000000E+00 -.14284157E+03 0.14284244E+03 0.50000000E+00 0.0000E+00 0.9000E+01
       25  2    1    2    0    0 0.79862703E+02 0.84159699E+02 0.10847529E+03 0.33736005E+03 0.29763066E+03 0.0000E+00 0.0000E+00
       23  2    1    2    0    0 -.79862703E+02 -.84159699E+02 0.16834235E+03 0.22514189E+03 0.94280519E+02 0.0000E+00 0.0000E+00
       24  1    3    3    0    0 -.70101166E+02 0.27908667E+02 0.11325707E+03 0.15807418E+03 0.80419002E+02 0.0000E+00 0.9000E+01
      -11  1    4    4    0    0 -.26905281E+01 -.69217140E+02 0.95483637E+02 0.11796345E+03 0.51099893E-03 0.0000E+00 0.9000E+01
       11  1    4    4    0    0 -.77172175E+02 -.14942560E+02 0.72858713E+02 0.10717843E+03 0.51099893E-03 0.0000E+00 0.9000E+01
      -24  1    3    3    0    0 0.14996387E+03 0.56251032E+02 -.47817877E+01 0.17928587E+03 0.80419002E+02 0.0000E+00 0.9000E+01
#aMCatNLO 1  0  0  2  2 0.52046219D+02 0.00000000D+00  -5  7  0 0.00000000D+00 0.00000000D+00 0.00000000D+00 0.00000000D+00 0.00000000D+00
  <mgrwgt>
 0.9764804239D-04    3    2    0
 0.244836898641812D+03 0.000000000000000D+00 0.000000000000000D+00 0.244836898641812D+03
 0.244836898641812D+03 0.000000000000000D+00 0.000000000000000D+00 -.244836898641812D+03
 0.117558832641462D+03 -.701011663661136D+02 0.279086669905782D+02 0.407405934980348D+02
 0.815300241743623D+02 -.269052813433947D+01 -.692171395048192D+02 0.429987615984556D+02
 0.819310742602648D+02 -.771721748453378D+02 -.149425595633740D+02 0.231057627611959D+02
 0.208653866207535D+03 0.149963869345791D+03 0.562510320776150D+02 -.106845117857686D+03
 0.000000000000000D+00 0.000000000000000D+00 0.000000000000000D+00 0.000000000000000D+00
 0.522001682268094D+03 0.000000000000000D+00 0.000000000000000D+00 0.522001682268094D+03
 0.248671518616165D+03 0.000000000000000D+00 0.000000000000000D+00 -.248671518616165D+03
 0.121691169398473D+03 -.794263078628359D+02 0.193181369677108D+02 0.407405934980348D+02
 0.871842119192087D+02 -.926642828342853D+01 -.752750065814726D+02 0.429987615984556D+02
 0.895013973830033D+02 -.838540224590296D+02 -.210980278266513D+02 0.231057627611959D+02
 0.194055182780840D+03 0.134267656882644D+03 0.417913282267554D+02 -.106845117857686D+03
 0.278241239402734D+03 0.382791017226498D+02 0.352635692136576D+02 0.273330163651929D+03
0.509154608184D-05 0.000000000000D+00 0.000000000000D+00 0.320303157342D-08 0.000000000000D+00  7 3 -3 24 -11 11 -24 21 0 0.64563044D-01 0.21975716D-01 0.47823276D+05 0.47823276D+05 0.47823276D+05 0.11489996D+01  1  2  2  2  7  2       -3 0.966369725943D-04 0.100000000000D+01
-.278475377607D-06 0.000000000000D+00 -.195528775891D-07 0.320303157342D-08 0.000000000000D+00  7 3 -3 24 -11 11 -24 21 2 0.64563044D-01 0.21975716D-01 0.47823276D+05 0.47823276D+05 0.47823276D+05 0.11489996D+01  1  2  3  2  7  2       -3 -.697782688432D-05 0.100000000000D+01
0.318825768422D-06 0.000000000000D+00 0.000000000000D+00 0.320303157342D-08 0.000000000000D+00  7 3 -3 24 -11 11 -24 21 2 0.64563044D-01 0.21975716D-01 0.47823276D+05 0.47823276D+05 0.47823276D+05 0.11489996D+01  1  2 15  2  7  2       -3 0.798889667527D-05 0.100000000000D+01
  </mgrwgt>
  </event>
  <event>
  8     66 0.27727860E-05 0.27343961E+03 0.75467711E-02 0.96465380E-01
        1 -1    0    0  501    0 0.00000000E+00 0.00000000E+00 0.14147815E+04 0.14147816E+04 0.32000000E+00 0.0000E+00 0.9000E+01
       -1 -1    0    0    0  501 0.00000000E+00 0.00000000E+00 -.59165802E+02 0.59166667E+02 0.32000000E+00 0.0000E+00 0.9000E+01
       25  2    1    2    0    0 0.19896486E+03 -.15234256E+01 0.82647583E+03 0.90128350E+03 0.29943330E+03 0.0000E+00 0.0000E+00
       23  2    1    2    0    0 -.19896486E+03 0.15234256E+01 0.52913989E+03 0.57266473E+03 0.91468786E+02 0.0000E+00 0.0000E+00
       24  1    3    3    0    0 -.14002655E+02 0.71828754E+02 0.37400354E+03 0.38948852E+03 0.80419002E+02 0.0000E+00 0.9000E+01
      -13  1    4    4    0    0 -.15187057E+03 0.55449127E+00 0.48458658E+03 0.50782787E+03 0.10565837E+00 0.0000E+00 0.9000E+01
       13  1    4    4    0    0 -.47094283E+02 0.96893429E+00 0.44553304E+02 0.64836860E+02 0.10565837E+00 0.0000E+00 0.9000E+01
      -24  1    3    3    0    0 0.21296751E+03 -.73352179E+02 0.45247229E+03 0.51179497E+03 0.80419002E+02 0.0000E+00 0.9000E+01
#aMCatNLO 1  0  0  2  1 0.25116771D+03 0.00000000D+00  -5  7  0 0.00000000D+00 0.00000000D+00 0.00000000D+00 0.00000000D+00 0.00000000D+00
  <mgrwgt>
 0.7375195460D-03    3    2    0
 0.289322220959466D+03 0.000000000000000D+00 0.000000000000000D+00 0.289322220959466D+03
 0.289322220959466D+03 0.000000000000000D+00 0.000000000000000D+00 -.289322220959466D+03
 0.115927556714356D+03 -.140026548175427D+02 0.718287538994480D+02 0.402061963222464D+02
 0.158299064376169D+03 -.151870712736114D+03 0.554490746801158D+00 0.446494449619120D+02
 0.607781523776026D+02 -.470941442614448D+02 0.968934819007924D+00 -.384081573110950D+02
 0.243639668450803D+03 0.212967511815102D+03 -.733521794652571D+02 -.464474839730634D+02
 0.000000000000000D+00 0.000000000000000D+00 0.000000000000000D+00 0.000000000000000D+00
 0.493393157579938D+03 0.000000000000000D+00 0.000000000000000D+00 0.493393157579938D+03
 0.404009780498158D+03 0.000000000000000D+00 0.000000000000000D+00 -.404009780498158D+03
 0.983377844331447D+02 -.270094832157503D+02 0.292754758554695D+02 0.402061963222464D+02
 0.191607771627931D+03 -.173111563668380D+03 -.689373029433466D+02 0.446494449619120D+02
 0.718299550976483D+02 -.551440271258615D+02 -.253671475266457D+02 -.384081573110950D+02
 0.269029218409590D+03 0.181846303873670D+03 -.175168654170092D+03 -.464474839730634D+02
 0.266598208509782D+03 0.734187701363222D+02 0.240197628784615D+03 0.893833770817806D+02
0.116205065835D-04 0.000000000000D+00 0.000000000000D+00 0.819115213169D-06 0.000000000000D+00  7 1 -1 24 -13 13 -24 21 0 0.21765877D+00 0.91025004D-02 0.74769218D+05 0.74769218D+05 0.74769218D+05 0.11322342D+01  1  2  2  2  7  2       -1 0.728025237046D-03 0.100000000000D+01
-.643081513381D-06 0.000000000000D+00 -.446258050304D-07 0.819115213169D-06 0.000000000000D+00  7 1 -1 24 -13 13 -24 21 2 0.21765877D+00 0.91025004D-02 0.74769218D+05 0.74769218D+05 0.74769218D+05 0.11322342D+01  1  2  3  2  7  2       -1 -.516487673821D-04 0.100000000000D+01
0.761295652964D-06 0.000000000000D+00 0.000000000000D+00 0.819115213169D-06 0.000000000000D+00  7 1 -1 24 -13 13 -24 21 2 0.21765877D+00 0.91025004D-02 0.74769218D+05 0.74769218D+05 0.74769218D+05 0.11322342D+01  1  2 15  2  7  2       -1 0.611430763764D-04 0.100000000000D+01
  </mgrwgt>
  </event>
  <event>
  9     66 -.27727860E-05 0.82658766E+03 0.75467711E-02 0.88638191E-01
        1 -1    0    0  501    0 0.00000000E+00 0.00000000E+00 0.27460382E+04 0.27460382E+04 0.32000000E+00 0.0000E+00 0.9000E+01
       -1 -1    0    0    0  502 0.00000000E+00 0.00000000E+00 -.40746380E+03 0.40746393E+03 0.32000000E+00 0.0000E+00 0.9000E+01
       25  2    1    2    0    0 0.74912383E+03 0.85646094E+02 0.15324397E+04 0.17340286E+04 0.29993704E+03 0.0000E+00 0.0000E+00
       23  2    1    2    0    0 -.82800275E+03 -.15016563E+03 0.93106317E+03 0.12582521E+04 0.90451590E+02 0.0000E+00 0.0000E+00
       24  1    3    3    0    0 0.71398603E+02 0.68859072E+02 0.21015319E+03 0.24590834E+03 0.80419002E+02 0.0000E+00 0.9000E+01
      -11  1    4    4    0    0 -.26924848E+03 -.79529868E+01 0.31516814E+03 0.41459492E+03 0.51099893E-03 0.0000E+00 0.9000E+01
       11  1    4    4    0    0 -.55875428E+03 -.14221265E+03 0.61589503E+03 0.84365720E+03 0.51099893E-03 0.0000E+00 0.9000E+01
      -24  1    3    3    0    0 0.67772522E+03 0.16787022E+02 0.13222865E+04 0.14881203E+04 0.80419002E+02 0.0000E+00 0.9000E+01
       21  1    1    2  501  502 0.78878927E+02 0.64519539E+02 -.12492844E+03 0.16122138E+03 0.75000000E+00 0.0000E+00 0.9000E+01
#aMCatNLO 2  0  0  2  1 0.10190513D+03 0.00000000D+00  -5  7  0 0.00000000D+00 0.00000000D+00 0.00000000D+00 0.00000000D+00 0.00000000D+00
  <mgrwgt>
 -.5585906741D-04    2    2    0
 0.847719478842684D+03 0.000000000000000D+00 0.000000000000000D+00 0.847719478842684D+03
 0.847719478842684D+03 0.000000000000000D+00 0.000000000000000D+00 -.847719478842684D+03
 0.134589578170918D+03 0.775111401776565D+02 0.738588622010591D+02 0.135657738658634D+02
 0.260944602049196D+03 -.256832481521399D+03 0.220275820701307D+01 -.460902335691101D+02
 0.562657010978292D+03 -.531895642491197D+03 -.120243447920203D+03 -.138605377724547D+03
 0.737247766486962D+03 0.711216983834939D+03 0.441818275121311D+02 0.171129837427794D+03
 0.000000000000000D+00 0.000000000000000D+00 0.000000000000000D+00 -.000000000000000D+00
 0.854898434493486D+03 0.000000000000000D+00 0.000000000000000D+00 0.854898434493486D+03
 0.130882285413985D+04 0.000000000000000D+00 0.000000000000000D+00 -.130882285413985D+04
 0.128415647477590D+03 0.713986031120488D+02 0.688590721385821D+02 0.135657738658634D+02
 0.273280628004708D+03 -.269248476344450D+03 -.795298675874543D+01 -.460902335691101D+02
 0.592994291971837D+03 -.558754277739917D+03 -.142212646007167D+03 -.138605377724547D+03
 0.703808156476621D+03 0.677725224418339D+03 0.167870217042189D+02 0.171129837427794D+03
 0.465222564702582D+03 0.788789265539794D+02 0.645195389231114D+02 -.453924419646365D+03
-.279205452220D-02 0.000000000000D+00 0.000000000000D+00 0.420941659598D-05 0.000000000000D+00  7 1 -1 24 -11 11 -24 21 2 0.41891964D+00 0.62781975D-01 0.77283657D+06 0.77283657D+06 0.77283657D+06 0.10553958D+01  1  2 13  2  7  2       -1 -.910453516324D-03 0.100000000000D+01
0.271522509919D-02 0.000000000000D+00 0.000000000000D+00 0.420941659598D-05 0.253997211164D-08  7 1 -1 24 -11 11 -24 21 2 0.42246728D+00 0.62686728D-01 0.77283657D+06 0.77283657D+06 0.77283657D+06 0.10553958D+01  1  2  1  2  7  2       -1 0.854594448919D-03 0.100000000000D+01
  </mgrwgt>
  </event>
  <event>
  8     66 0.27727860E-05 0.53480313E+03 0.75467711E-02 0.92754235E-01
        1 -1    0    0  501    0 0.00000000E+00 0.00000000E+00 0.15010412E+04 0.15010413E+04 0.32000000E+00 0.0000E+00 0.9000E+01
       -1 -1    0    0    0  501 0.00000000E+00 0.00000000E+00 -.22603766E+03 0.22603788E+03 0.32000000E+00 0.0000E+00 0.9000E+01
       25  2    1    2    0    0 -.14662602E+03 0.49668591E+03 0.88926806E+03 0.10720850E+04 0.30062003E+03 0.0000E+00 0.0000E+00
       23  2    1    2    0    0 0.14662602E+03 -.49668591E+03 0.38573551E+03 0.65499418E+03 0.10967867E+03 0.0000E+00 0.0000E+00
       24  1    3    3    0    0 -.35345431E+02 0.18141331E+03 0.56326812E+03 0.59824600E+03 0.80419002E+02 0.0000E+00 0.9000E+01
      -13  1    4    4    0    0 -.73409758E+01 -.73186507E+02 0.24725400E+02 0.77598397E+02 0.10565837E+00 0.0000E+00 0.9000E+01
       13  1    4    4    0    0 0.15396699E+03 -.42349940E+03 0.36101011E+03 0.57739578E+03 0.10565837E+00 0.0000E+00 0.9000E+01
      -24  1    3    3    0    0 -.11128059E+03 0.31527260E+03 0.32599994E+03 0.47383896E+03 0.80419002E+02 0.0000E+00 0.9000E+01
#aMCatNLO 1  0  0  2  2 0.10559357D+03 0.00000000D+00  -5  7  0 0.00000000D+00 0.00000000D+00 0.00000000D+00 0.00000000D+00 0.00000000D+00
  <mgrwgt>
 0.8166013149D-03    4    2    0
 0.582487824874314D+03 0.000000000000000D+00 0.000000000000000D+00 0.582487824874314D+03
 0.582487824874314D+03 0.000000000000000D+00 0.000000000000000D+00 -.582487824874314D+03
 0.270434262344473D+03 -.353454312402569D+02 0.181413309012540D+03 0.180298047962228D+03
 0.879788294378632D+02 -.734111803490783D+01 -.731861833864407D+02 -.482717824052565D+02
 0.460884689009199D+03 0.153967136244341D+03 -.423499730385230D+03 -.967305323228429D+02
 0.345677868957092D+03 -.111280586969176D+03 0.315272604759130D+03 -.352957332341288D+02
 0.000000000000000D+00 0.000000000000000D+00 -.000000000000000D+00 0.000000000000000D+00
 0.848473598539133D+03 0.000000000000000D+00 0.000000000000000D+00 0.848473598539133D+03
 0.595450505565343D+03 0.000000000000000D+00 0.000000000000000D+00 -.595450505565343D+03
 0.288076044165225D+03 -.441120048848601D+02 0.205103233015870D+03 0.180298047962228D+03
 0.823491255769516D+02 -.100146453520731D+02 -.659615068443733D+02 -.482717824052565D+02
 0.421930498843791D+03 0.140110159446093D+03 -.386054002946609D+03 -.967305323228429D+02
 0.377395701219653D+03 -.122630203313831D+03 0.345942688599393D+03 -.352957332341288D+02
 0.274172734298856D+03 0.366466941046717D+02 -.990304118242803D+02 0.253023092973789D+03
0.138061614293D-03 0.000000000000D+00 0.000000000000D+00 0.191520565290D-07 0.000000000000D+00  7 1 -1 24 -13 13 -24 21 0 0.23092944D+00 0.34775044D-01 0.28601439D+06 0.28601439D+06 0.28601439D+06 0.10860892D+01  1  2  2  2  7  2       -1 0.850522091386D-03 0.100000000000D+01
-.760206052195D-05 0.000000000000D+00 -.530192951344D-06 0.191520565290D-07 0.000000000000D+00  7 1 -1 24 -13 13 -24 21 2 0.23092944D+00 0.34775044D-01 0.28601439D+06 0.28601439D+06 0.28601439D+06 0.10860892D+01  1  2  3  2  7  2       -1 -.552427037158D-04 0.100000000000D+01
0.865916345064D-05 0.000000000000D+00 0.000000000000D+00 0.191520565290D-07 0.000000000000D+00  7 1 -1 24 -13 13 -24 21 2 0.23092944D+00 0.34775044D-01 0.28601439D+06 0.28601439D+06 0.28601439D+06 0.10860892D+01  1  2 15  2  7  2       -1 0.629244662745D-04 0.100000000000D+01
-.572500979460D-05 0.000000000000D+00 0.000000000000D+00 0.191520565290D-07 0.000000000000D+00  7 1 -1 24 -13 13 -24 21 2 0.23092944D+00 0.34775044D-01 0.28601439D+06 0.28601439D+06 0.28601439D+06 0.10860892D+01  1  2  4  2  7  2       -1 -.416025390668D-04 0.100000000000D+01
  </mgrwgt>
  </event>
  <event>
  8     66 0.27727860E-05 0.33829903E+03 0.75467711E-02 0.91348378E-01
        1 -1    0    0  501    0 0.00000000E+00 0.00000000E+00 0.31207570E+03 0.31207586E+03 0.32000000E+00 0.0000E+00 0.9000E+01
       -1 -1    0    0    0  501 0.00000000E+00 0.00000000E+00 -.49444140E+03 0.49444150E+03 0.32000000E+00 0.0000E+00 0.9000E+01
       25  2    1    2    0    0 -.26644165E+03 -.10069313E+02 -.30014868E+03 0.50101838E+03 0.29972928E+03 0.0000E+00 0.0000E+00
       23  2    1    2    0    0 0.26644165E+03 0.10069313E+02 0.11778298E+03 0.30549898E+03 0.91456298E+02 0.0000E+00 0.0000E+00
       24  1    3    3    0    0 -.13973900E+02 -.86664252E+02 -.51660196E+02 0.12977656E+03 0.80419002E+02 0.0000E+00 0.9000E+01
      -11  1    4    4    0    0 0.50383383E+02 0.39041744E+02 0.22524858E+02 0.67602606E+02 0.51099893E-03 0.0000E+00 0.9000E+01
       11  1    4    4    0    0 0.21605827E+03 -.28972432E+02 0.95258122E+02 0.23789638E+03 0.51099893E-03 0.0000E+00 0.9000E+01
      -24  1    3    3    0    0 -.25246775E+03 0.76594939E+02 -.24848848E+03 0.37124183E+03 0.80419002E+02 0.0000E+00 0.9000E+01
#aMCatNLO 1  0  0  2  1 0.52087066D+03 0.00000000D+00  -5  7  0 0.00000000D+00 0.00000000D+00 0.00000000D+00 0.00000000D+00 0.00000000D+00
  <mgrwgt>
 0.8693356971D-03    3    2    0
 0.392814527789763D+03 0.000000000000000D+00 0.000000000000000D+00 0.392814527789763D+03
 0.392814527789763D+03 0.000000000000000D+00 0.000000000000000D+00 -.392814527789763D+03
 0.121235329575742D+03 -.139738997307293D+02 -.866642517968655D+02 -.229090979694352D+02
 0.746286518815519D+02 0.503833834344927D+02 0.390417442531372D+02 0.388161378942236D+02
 0.266333549494704D+03 0.216058268688817D+03 -.289724315089408D+02 0.153013013597205D+03
 0.323431524627528D+03 -.252467752392581D+03 0.765949390526691D+02 -.168920053521993D+03
 0.000000000000000D+00 0.000000000000000D+00 0.000000000000000D+00 0.000000000000000D+00
 0.628861979468933D+04 0.000000000000000D+00 0.000000000000000D+00 0.628861979468933D+04
 0.482965927537034D+03 0.000000000000000D+00 0.000000000000000D+00 -.482965927537034D+03
 0.188251043301098D+03 -.873083433142744D+02 -.144304073981038D+03 -.229090979694352D+02
 0.472826348884187D+02 0.214958550476205D+02 0.163365607377996D+02 0.388161378942236D+02
 0.218799927975941D+03 0.101103308625946D+03 -.119325383456603D+03 0.153013013597205D+03
 0.488279387667625D+03 -.444806974150643D+03 -.745809341036724D+02 -.168920053521993D+03
 0.582897272839328D+04 0.409516153791351D+03 0.321873830803514D+03 0.580565386715230D+04
0.461275185615D-04 0.000000000000D+00 0.000000000000D+00 0.290964153525D-05 0.000000000000D+00  7 1 -1 24 -11 11 -24 21 0 0.48011667D-01 0.76067928D-01 0.11444623D+06 0.11444623D+06 0.11444623D+06 0.11169446D+01  1  2  2  2  7  2       -1 0.860208132936D-03 0.100000000000D+01
-.249308736683D-05 0.000000000000D+00 -.177141816931D-06 0.290964153525D-05 0.000000000000D+00  7 1 -1 24 -11 11 -24 21 2 0.48011667D-01 0.76067928D-01 0.11444623D+06 0.11444623D+06 0.11444623D+06 0.11169446D+01  1  2  3  2  7  2       -1 -.580021668336D-04 0.100000000000D+01
0.288541434657D-05 0.000000000000D+00 0.000000000000D+00 0.290964153525D-05 0.000000000000D+00  7 1 -1 24 -11 11 -24 21 2 0.48011667D-01 0.76067928D-01 0.11444623D+06 0.11444623D+06 0.11444623D+06 0.11169446D+01  1  2 15  2  7  2       -1 0.671297310078D-04 0.100000000000D+01
  </mgrwgt>
  </event>
  <event>
  8     66 0.27727860E-05 0.29228410E+03 0.75467711E-02 0.99854499E-01
        1 -1    0    0  501    0 0.00000000E+00 0.00000000E+00 0.21680381E+03 0.21680405E+03 0.32000000E+00 0.0000E+00 0.9000E+01
       -1 -1    0    0    0  501 0.00000000E+00 0.00000000E+00 -.52446596E+03 0.52446606E+03 0.32000000E+00 0.0000E+00 0.9000E+01
       25  2    1    2    0    0 0.17239327E+03 -.14601377E+03 -.36573882E+02 0.37733258E+03 0.30000461E+03 0.0000E+00 0.0000E+00
       23  2    1    2    0    0 -.17239327E+03 0.14601377E+03 -.27108827E+03 0.36393753E+03 0.89006823E+02 0.0000E+00 0.0000E+00
       24  1    3    3    0    0 0.60524851E+01 -.13531444E+03 0.60019967E+02 0.16857118E+03 0.80419002E+02 0.0000E+00 0.9000E+01
      -11  1    4    4    0    0 0.85093333E+01 0.19342633E+02 -.15818368E+02 0.26396344E+02 0.51099893E-03 0.0000E+00 0.9000E+01
       11  1    4    4    0    0 -.18090261E+03 0.12667113E+03 -.25526990E+03 0.33754118E+03 0.51099893E-03 0.0000E+00 0.9000E+01
      -24  1    3    3    0    0 0.16634079E+03 -.10699326E+02 -.96593849E+02 0.20876140E+03 0.80419002E+02 0.0000E+00 0.9000E+01
#aMCatNLO 1  0  0  1  2 0.61681209D+02 0.00000000D+00  -5  7  0 0.00000000D+00 0.00000000D+00 0.00000000D+00 0.00000000D+00 0.00000000D+00
  <mgrwgt>
 0.7444009856D-03    4    2    0
 0.337203711393944D+03 0.000000000000000D+00 0.000000000000000D+00 0.337203711393944D+03
 0.337203711393944D+03 0.000000000000000D+00 0.000000000000000D+00 -.337203711393944D+03
 0.212664695566389D+03 0.605248506487997D+01 -.135314441276328D+03 0.142872062323567D+03
 0.217970726892361D+02 0.850933332316396D+01 0.193426330606371D+02 -.534473296776230D+01
 0.254552808015459D+03 -.180902606461405D+03 0.126671133793869D+03 -.126593060265565D+03
 0.185392846516803D+03 0.166340788073361D+03 -.106993255781781D+02 -.109342690902397D+02
 0.000000000000000D+00 -.000000000000000D+00 -.000000000000000D+00 -.000000000000000D+00
 0.346042454205600D+03 0.000000000000000D+00 0.000000000000000D+00 0.346042454205600D+03
 0.466601856564997D+03 0.000000000000000D+00 0.000000000000000D+00 -.466601856564997D+03
 0.208736459439293D+03 0.234186918863422D+02 -.127054445898696D+03 0.142872062323567D+03
 0.233507242151136D+02 0.103699024489504D+02 0.202275869562551D+02 -.534473296776230D+01
 0.245650101529354D+03 -.160288929738722D+03 0.136475743182428D+03 -.126593060265565D+03
 0.199484940858918D+03 0.182201843927523D+03 -.315523437929672D+01 -.109342690902397D+02
 0.135422084727919D+03 -.557015085240936D+02 -.264936498606910D+02 -.120559402359397D+03
0.302173298974D-04 0.000000000000D+00 0.000000000000D+00 0.604580961482D-06 0.000000000000D+00  7 1 -1 24 -11 11 -24 21 0 0.33354458D-01 0.80687097D-01 0.85429993D+05 0.85429993D+05 0.85429993D+05 0.11273778D+01  1  2  2  1  7  1        1 0.809903027142D-03 0.100000000000D+01
-.163702479851D-05 0.000000000000D+00 -.116042503212D-06 0.604580961482D-06 0.000000000000D+00  7 1 -1 24 -11 11 -24 21 2 0.33354458D-01 0.80687097D-01 0.85429993D+05 0.85429993D+05 0.85429993D+05 0.11273778D+01  1  2  3  1  7  1        1 -.557662110452D-04 0.100000000000D+01
0.188394811415D-05 0.000000000000D+00 0.000000000000D+00 0.604580961482D-06 0.000000000000D+00  7 1 -1 24 -11 11 -24 21 2 0.33354458D-01 0.80687097D-01 0.85429993D+05 0.85429993D+05 0.85429993D+05 0.11273778D+01  1  2 15  1  7  1        1 0.641777987890D-04 0.100000000000D+01
-.216974475870D-05 0.000000000000D+00 0.000000000000D+00 0.604580961482D-06 0.000000000000D+00  7 1 -1 24 -11 11 -24 21 2 0.33354458D-01 0.80687097D-01 0.85429993D+05 0.85429993D+05 0.85429993D+05 0.11273778D+01  1  2  4  1  7  1        1 -.739136293094D-04 0.100000000000D+01
  </mgrwgt>
  </event>
  <event>
  9     66 0.27727860E-05 0.19220397E+03 0.75467711E-02 0.10178086E+00
        3 -1    0    0  502    0 0.00000000E+00 0.00000000E+00 0.21277774E+03 0.21277833E+03 0.50000000E+00 0.0000E+00 0.9000E+01
       -3 -1    0    0    0  501 0.00000000E+00 0.00000000E+00 -.58399323E+03 0.58399344E+03 0.50000000E+00 0.0000E+00 0.9000E+01
       25  2    1    2    0    0 0.59612968E+02 0.13051113E+03 -.39607930E+02 0.33577562E+03 0.30098109E+03 0.0000E+00 0.0000E+00
       23  2    1    2    0    0 -.74599602E+02 0.33174250E+02 -.24785723E+03 0.27651801E+03 0.91451461E+02 0.0000E+00 0.0000E+00
       24  1    3    3    0    0 -.73564999E+02 0.89694164E+02 -.89787090E+02 0.16728954E+03 0.80419002E+02 0.0000E+00 0.9000E+01
      -13  1    4    4    0    0 -.12696692E+02 -.88524097E+01 -.16156678E+03 0.16230652E+03 0.10565837E+00 0.0000E+00 0.9000E+01
       13  1    4    4    0    0 -.61902910E+02 0.42026660E+02 -.86290448E+02 0.11421148E+03 0.10565837E+00 0.0000E+00 0.9000E+01
      -24  1    3    3    0    0 0.13317797E+03 0.40816970E+02 0.50179160E+02 0.16848608E+03 0.80419002E+02 0.0000E+00 0.9000E+01
       21  1    1    2  502  501 0.14986634E+02 -.16368538E+03 -.83750334E+02 0.18447814E+03 0.75000000E+00 0.0000E+00 0.9000E+01
#aMCatNLO 2  0  0  1  2 0.16437002D+03 0.00000000D+00  -5  7  0 0.00000000D+00 0.00000000D+00 0.00000000D+00 0.00000000D+00 0.00000000D+00
  <mgrwgt>
 0.1149192677D-04    1    2    0
 0.257512020759570D+03 0.000000000000000D+00 0.000000000000000D+00 0.257512020759570D+03
 0.257512020759570D+03 0.000000000000000D+00 0.000000000000000D+00 -.257512020759570D+03
 0.118121746702880D+03 -.698760058743126D+02 0.494027283806651D+02 -.127375555491642D+02
 0.105224569076338D+03 -.981272019032422D+01 -.403508035413275D+02 -.966836755266197D+02
 0.724598774658608D+02 -.596892832357143D+02 0.178485606205065D+02 -.370007053034175D+02
 0.219217848274062D+03 0.139378009300351D+03 -.269004854598441D+02 0.146421936379201D+03
 0.000000000000000D+00 0.000000000000000D+00 -.000000000000000D+00 0.000000000000000D+00
 0.354129378604128D+03 0.000000000000000D+00 0.000000000000000D+00 0.354129378604128D+03
 0.350890048004992D+03 0.000000000000000D+00 0.000000000000000D+00 -.350890048004992D+03
 0.141726185084515D+03 -.735649909414238D+02 0.896941601814731D+02 -.127375555491642D+02
 0.979147785904979D+02 -.126966300792003D+02 -.885247636096849D+01 -.966836755266197D+02
 0.834702137714914D+02 -.619029771224854D+02 0.420267274181701D+02 -.370007053034175D+02
 0.217506309962722D+03 0.133177964192814D+03 0.408169734259159D+02 0.146421936379201D+03
 0.164401939199894D+03 0.149866339502960D+02 -.163685384664591D+03 0.323933059913578D+01
0.219014551377D-05 0.000000000000D+00 0.000000000000D+00 0.310835609578D-06 0.837090650702D-10  7 3 -3 24 -13 13 -24 21 2 0.32735019D-01 0.89844956D-01 0.77468241D+05 0.77468241D+05 0.77468241D+05 0.11309359D+01  1  2  1  1  7  1        3 0.114919267705D-04 0.100000000000D+01
  </mgrwgt>
  </event>
  <event>
  8     66 0.27727860E-05 0.29279104E+03 0.75467711E-02 0.91720763E-01
        3 -1    0    0  501    0 0.00000000E+00 0.00000000E+00 0.27152421E+03 0.27152467E+03 0.50000000E+00 0.0000E+00 0.9000E+01
       -3 -1    0    0    0  501 0.00000000E+00 0.00000000E+00 -.36481456E+03 0.36481490E+03 0.50000000E+00 0.0000E+00 0.9000E+01
       25  2    1    2    0    0 -.15954238E+03 0.16818958E+03 -.49688972E+02 0.38255791E+03 0.30023334E+03 0.0000E+00 0.0000E+00
       23  2    1    2    0    0 0.15954238E+03 -.16818958E+03 -.43601372E+02 0.25378166E+03 0.93608470E+02 0.0000E+00 0.0000E+00
       24  1    3    3    0    0 -.11288104E+02 -.29785965E+02 -.83579650E+02 0.12028050E+03 0.80419002E+02 0.0000E+00 0.9000E+01
      -13  1    4    4    0    0 -.50580240E+01 -.68941039E+01 0.13846518E+02 0.16274197E+02 0.10565837E+00 0.0000E+00 0.9000E+01
       13  1    4    4    0    0 0.16460041E+03 -.16129547E+03 -.57447890E+02 0.23750746E+03 0.10565837E+00 0.0000E+00 0.9000E+01
      -24  1    3    3    0    0 -.14825428E+03 0.19797554E+03 0.33890678E+02 0.26227741E+03 0.80419002E+02 0.0000E+00 0.9000E+01
#aMCatNLO 1  0  0  2  1 0.52197285D+03 0.00000000D+00  -5  7  0 0.00000000D+00 0.00000000D+00 0.00000000D+00 0.00000000D+00 0.00000000D+00
  <mgrwgt>
 0.2281148418D-03    3    2    0
 0.314732015351054D+03 0.000000000000000D+00 0.000000000000000D+00 0.314732015351054D+03
 0.314732015351054D+03 0.000000000000000D+00 0.000000000000000D+00 -.314732015351054D+03
 0.109207301277183D+03 -.112881041772912D+02 -.297859645953375D+02 -.666662861953691D+02
 0.185038225306556D+02 -.505823920057545D+01 -.689390754612542D+01 0.164097441534362D+02
 0.231587873704605D+03 0.164600624144326D+03 -.161295671586840D+03 -.228754039454693D+02
 0.270165033189664D+03 -.148254280766460D+03 0.197975543728303D+03 0.731319459874022D+02
 0.000000000000000D+00 0.000000000000000D+00 -.000000000000000D+00 0.000000000000000D+00
 0.337580057902711D+04 0.000000000000000D+00 0.000000000000000D+00 0.337580057902711D+04
 0.431822130227966D+03 0.000000000000000D+00 0.000000000000000D+00 -.431822130227966D+03
 0.118267288525894D+03 -.197488667512000D+02 0.518220428761458D+02 -.666662861953691D+02
 0.187844488406195D+02 -.644515107999439D+01 0.648350542690169D+01 0.164097441534362D+02
 0.153738710060664D+03 0.150268664071443D+03 -.230572215072094D+02 -.228754039454693D+02
 0.526938491400270D+03 -.177902003943891D+03 0.483941683711649D+03 0.731319459874022D+02
 0.298989377042763D+04 0.538273577036426D+02 -.519190010507487D+03 0.294397844879914D+04
0.300443596805D-04 0.000000000000D+00 0.000000000000D+00 0.403701377991D-06 0.000000000000D+00  7 3 -3 24 -13 13 -24 21 0 0.41773018D-01 0.56125378D-01 0.85726593D+05 0.85726593D+05 0.85726593D+05 0.11272524D+01  1  2  2  2  7  2       -3 0.226108236284D-03 0.100000000000D+01
-.165853377056D-05 0.000000000000D+00 -.115378252035D-06 0.403701377991D-06 0.000000000000D+00  7 3 -3 24 -13 13 -24 21 2 0.41773018D-01 0.56125378D-01 0.85726593D+05 0.85726593D+05 0.85726593D+05 0.11272524D+01  1  2  3  2  7  2       -3 -.158606161236D-04 0.100000000000D+01
0.186836313158D-05 0.000000000000D+00 0.000000000000D+00 0.403701377991D-06 0.000000000000D+00  7 3 -3 24 -13 13 -24 21 2 0.41773018D-01 0.56125378D-01 0.85726593D+05 0.85726593D+05 0.85726593D+05 0.11272524D+01  1  2 15  2  7  2       -3 0.178672215999D-04 0.100000000000D+01
  </mgrwgt>
  </event>
  <event>
  9     66 -.27727860E-05 0.10294070E+04 0.75467711E-02 0.86999206E-01
        1 -1    0    0  502    0 0.00000000E+00 0.00000000E+00 0.77287512E+03 0.77287518E+03 0.32000000E+00 0.0000E+00 0.9000E+01
       -1 -1    0    0    0  501 0.00000000E+00 0.00000000E+00 -.15012535E+04 0.15012535E+04 0.32000000E+00 0.0000E+00 0.9000E+01
       25  2    1    2    0    0 -.27883033E+03 -.99361742E+03 -.58889215E+03 0.12255409E+04 0.30022420E+03 0.0000E+00 0.0000E+00
       23  2    1    2    0    0 0.27809887E+03 0.97237228E+03 -.14691386E+03 0.10260573E+04 0.91450250E+02 0.0000E+00 0.0000E+00
       24  1    3    3    0    0 -.15386698E+03 -.42780567E+03 -.39980392E+03 0.61073983E+03 0.80419002E+02 0.0000E+00 0.9000E+01
      -11  1    4    4    0    0 0.42190201E+02 0.95693287E+02 -.39786646E+02 0.11189368E+03 0.51099893E-03 0.0000E+00 0.9000E+01
       11  1    4    4    0    0 0.23590867E+03 0.87667900E+03 -.10712722E+03 0.91416366E+03 0.51099893E-03 0.0000E+00 0.9000E+01
      -24  1    3    3    0    0 -.12496335E+03 -.56581175E+03 -.18908823E+03 0.61480106E+03 0.80419002E+02 0.0000E+00 0.9000E+01
       21  1    1    2  502  501 0.73146086E+00 0.21245138E+02 0.74276242E+01 0.22530491E+02 0.75000000E+00 0.0000E+00 0.9000E+01
#aMCatNLO 2  0  0  1  2 0.21257726D+02 0.00000000D+00  -5  7  0 0.00000000D+00 0.00000000D+00 0.00000000D+00 0.00000000D+00 0.00000000D+00
  <mgrwgt>
 -.3011695166D-03    3    2    0
 0.106393517302834D+04 0.000000000000000D+00 0.000000000000000D+00 0.106393517302834D+04
 0.106393517302834D+04 0.000000000000000D+00 0.000000000000000D+00 -.106393517302834D+04
 0.503677889205402D+03 -.153693108751812D+03 -.422755506144140D+03 -.211849971600315D+03
 0.105611808345891D+03 0.422263371164266D+02 0.967428452828641D+02 -.340769752103705D+01
 0.939108983842653D+03 0.236229955222626D+03 0.886010706736988D+03 0.202746440996928D+03
 0.579471664662727D+03 -.124763183587240D+03 -.559998045875712D+03 0.125112281244249D+02
 0.000000000000000D+00 0.000000000000000D+00 0.000000000000000D+00 0.000000000000000D+00
 0.108501153793706D+04 0.000000000000000D+00 0.000000000000000D+00 0.108501153793706D+04
 0.106936196175434D+04 0.000000000000000D+00 0.000000000000000D+00 -.106936196175434D+04
 0.507976741649610D+03 -.153866983842741D+03 -.427805674247861D+03 -.211849971600315D+03
 0.104636660580648D+03 0.421902012944404D+02 0.956932873811406D+02 -.340769752103705D+01
 0.930228510028159D+03 0.235908668474353D+03 0.876678995796606D+03 0.202746440996928D+03
 0.585134614996166D+03 -.124963346781867D+03 -.565811746824184D+03 0.125112281244249D+02
 0.263969724368172D+02 0.731460855813693D+00 0.212451378942976D+02 0.156495761827207D+02
-.237966435018D-02 0.000000000000D+00 0.000000000000D+00 0.354502137832D-04 0.000000000000D+00  7 1 -1 24 -11 11 -24 21 2 0.11919687D+00 0.22978886D+00 0.10820132D+07 0.10820132D+07 0.10820132D+07 0.10455928D+01  1  2 13  1  7  1        1 -.536932742805D-03 0.100000000000D+01
-.228514758744D-01 0.000000000000D+00 0.000000000000D+00 0.354502137832D-04 0.000000000000D+00  7 1 -1 24 -11 11 -24 21 2 0.11659358D+00 0.22978886D+00 0.10596787D+07 0.10596787D+07 0.10596787D+07 0.10461923D+01  1  2  8  1  7  1        1 -.535562895648D-02 0.100000000000D+01
0.252413310052D-01 0.000000000000D+00 0.000000000000D+00 0.354502137832D-04 0.457579279000D-06  7 1 -1 24 -11 11 -24 21 2 0.11890328D+00 0.23096094D+00 0.10820132D+07 0.10820132D+07 0.10820132D+07 0.10455928D+01  1  2  1  1  7  1        1 0.559139218272D-02 0.100000000000D+01
  </mgrwgt>
  </event>
  <event>
  8     66 0.27727860E-05 0.30227604E+03 0.75467711E-02 0.91072012E-01
        1 -1    0    0  501    0 0.00000000E+00 0.00000000E+00 0.64172875E+03 0.64172883E+03 0.32000000E+00 0.0000E+00 0.9000E+01
       -1 -1    0    0    0  501 0.00000000E+00 0.00000000E+00 -.26648526E+03 0.26648545E+03 0.32000000E+00 0.0000E+00 0.9000E+01
       25  2    1    2    0    0 0.25435237E+03 0.12771984E+02 -.55727727E+02 0.39947235E+03 0.30267858E+03 0.0000E+00 0.0000E+00
       23  2    1    2    0    0 -.25435237E+03 -.12771984E+02 0.43097121E+03 0.50874193E+03 0.90685792E+02 0.0000E+00 0.0000E+00
       24  1    3    3    0    0 0.10150598E+03 -.80392575E+02 0.68615356E+02 0.16715775E+03 0.80419002E+02 0.0000E+00 0.9000E+01
      -11  1    4    4    0    0 -.72142283E+02 0.76117581E+01 0.57048072E+02 0.92287217E+02 0.51099893E-03 0.0000E+00 0.9000E+01
       11  1    4    4    0    0 -.18221009E+03 -.20383742E+02 0.37392314E+03 0.41645471E+03 0.51099893E-03 0.0000E+00 0.9000E+01
      -24  1    3    3    0    0 0.15284639E+03 0.93164559E+02 -.12434308E+03 0.23231460E+03 0.80419002E+02 0.0000E+00 0.9000E+01
#aMCatNLO 1  0  0  2  2 0.55293223D+03 0.00000000D+00  -5  7  0 0.00000000D+00 0.00000000D+00 0.00000000D+00 0.00000000D+00 0.00000000D+00
  <mgrwgt>
 0.6068895852D-03    5    2    0
 0.413535217912616D+03 0.000000000000000D+00 0.000000000000000D+00 0.413535217912616D+03
 0.413535217912616D+03 0.000000000000000D+00 0.000000000000000D+00 -.413535217912616D+03
 0.152426668787083D+03 0.101505983046667D+03 -.803925752738686D+02 -.492594886105238D+00
 0.754586894113459D+02 -.721422834228186D+02 0.761175810408359D+01 0.207741639731805D+02
 0.287663402605159D+03 -.182210090029794D+03 -.203837418107998D+02 0.221662399516704D+03
 0.311521675021644D+03 0.152846390405946D+03 0.931645589805848D+02 -.241943968603779D+03
 0.000000000000000D+00 0.000000000000000D+00 -.000000000000000D+00 -.000000000000000D+00
 0.757255063004745D+03 0.000000000000000D+00 0.000000000000000D+00 0.757255063004745D+03
 0.791620740464791D+03 0.000000000000000D+00 0.000000000000000D+00 -.791620740464791D+03
 0.974735539129800D+02 0.484459953015170D+02 -.262034472461099D+02 -.492594886105238D+00
 0.128147672091340D+03 -.115372941360781D+03 0.517623837879093D+02 0.207741639731805D+02
 0.421515985560368D+03 -.332786384995081D+03 0.133396884091538D+03 0.221662399516704D+03
 0.347739444684552D+03 0.128689764024033D+02 0.236120754991504D+03 -.241943968603779D+03
 0.553999147220297D+03 0.386844354651942D+03 -.395076575624841D+03 -.343656774600460D+02
0.250249054462D-04 0.000000000000D+00 0.000000000000D+00 0.251864478728D-06 0.000000000000D+00  7 1 -1 24 -11 11 -24 21 0 0.98727520D-01 0.40997753D-01 0.91370804D+05 0.91370804D+05 0.91370804D+05 0.11249525D+01  1  2  2  2  7  2       -1 0.547080866181D-03 0.100000000000D+01
-.122424309043D-05 0.000000000000D+00 -.961022261222D-07 0.251864478728D-06 0.000000000000D+00  7 1 -1 24 -11 11 -24 21 2 0.98727520D-01 0.40997753D-01 0.91370804D+05 0.91370804D+05 0.91370804D+05 0.11249525D+01  1  2  3  2  7  2       -1 -.338699936892D-04 0.100000000000D+01
0.156789516008D-05 0.000000000000D+00 0.000000000000D+00 0.251864478728D-06 0.000000000000D+00  7 1 -1 24 -11 11 -24 21 2 0.98727520D-01 0.40997753D-01 0.91370804D+05 0.91370804D+05 0.91370804D+05 0.11249525D+01  1  2 15  2  7  2       -1 0.433774955257D-04 0.100000000000D+01
0.925040854604D-05 0.000000000000D+00 -.801286299918D-05 0.251864478728D-06 0.000000000000D+00  7 1 -1 24 -11 11 -24 21 2 0.98727520D-01 0.13296060D+00 0.91370804D+05 0.91370804D+05 0.91370804D+05 0.11249525D+01  1  2  5  2  7  2       -1 0.235218032844D-04 0.100000000000D+01
0.159050030627D-05 0.000000000000D+00 -.108835206516D-05 0.251864478728D-06 0.000000000000D+00  7 1 21 24 -11 11 -24 1 2 0.98727520D-01 0.13296060D+00 0.91370804D+05 0.91370804D+05 0.91370804D+05 0.11249525D+01  1  2  5  4  7  2       -1 0.267794139146D-04 0.100000000000D+01
  </mgrwgt>
  </event>
  <event>
  9     66 0.27727860E-05 0.30779774E+03 0.75467711E-02 0.99250892E-01
       21 -1    0    0  501  502 0.00000000E+00 0.00000000E+00 0.20744235E+03 0.20744370E+03 0.75000000E+00 0.0000E+00 0.9000E+01
       -3 -1    0    0    0  501 0.00000000E+00 0.00000000E+00 -.78176461E+03 0.78176477E+03 0.50000000E+00 0.0000E+00 0.9000E+01
       25  2    1    2    0    0 0.24598698E+03 -.11913635E+03 -.54050305E+03 0.67543252E+03 0.29893557E+03 0.0000E+00 0.0000E+00
       23  2    1    2    0    0 -.22321179E+03 0.64410463E+02 -.52952781E+02 0.25148649E+03 0.80431649E+02 0.0000E+00 0.0000E+00
       24  1    3    3    0    0 0.49644294E+02 -.14405462E+03 -.34599281E+03 0.38651589E+03 0.80419002E+02 0.0000E+00 0.9000E+01
      -11  1    4    4    0    0 -.83251494E+02 0.15974959E+02 0.18932056E+02 0.86858698E+02 0.51099893E-03 0.0000E+00 0.9000E+01
       11  1    4    4    0    0 -.13996029E+03 0.48435504E+02 -.71884837E+02 0.16462780E+03 0.51099893E-03 0.0000E+00 0.9000E+01
      -24  1    3    3    0    0 0.19634269E+03 0.24918272E+02 -.19451024E+03 0.28891663E+03 0.80419002E+02 0.0000E+00 0.9000E+01
       -3  1    1    2    0  502 -.22775193E+02 0.54725890E+02 0.19133571E+02 0.62289454E+02 0.50000000E+00 0.0000E+00 0.9000E+01
#aMCatNLO 2  0  0  1  2 0.59275901D+02 0.00000000D+00  -5  7  0 0.00000000D+00 0.00000000D+00 0.00000000D+00 0.00000000D+00 0.00000000D+00
  <mgrwgt>
 0.6107487099D-05    2    2    0
 0.354780003095851D+03 0.000000000000000D+00 0.000000000000000D+00 0.354780003095851D+03
 0.354780003095851D+03 0.000000000000000D+00 0.000000000000000D+00 -.354780003095851D+03
 0.202834571234222D+03 0.429535636623000D+02 -.127977650761054D+03 -.128262853577294D+03
 0.133204563019296D+03 -.874498707609946D+02 0.260631230407510D+02 0.970396276291789D+02
 0.163163730207260D+03 -.145047918203152D+03 0.606604213333574D+02 0.436327579203854D+02
 0.210357141730924D+03 0.189544225301847D+03 0.412541063869458D+02 -.124095319722702D+02
 0.000000000000000D+00 -.000000000000000D+00 0.000000000000000D+00 0.000000000000000D+00
 0.442944839536439D+03 0.000000000000000D+00 0.000000000000000D+00 0.442944839536439D+03
 0.366120700895427D+03 0.000000000000000D+00 0.000000000000000D+00 -.366120700895427D+03
 0.214790284948949D+03 0.496442943819715D+02 -.144054624992070D+03 -.128262853577294D+03
 0.128851464767019D+03 -.832514944205404D+02 0.159749591218031D+02 0.970396276291789D+02
 0.154397859332957D+03 -.139960292188879D+03 0.484355036441690D+02 0.436327579203854D+02
 0.213992015860065D+03 0.196342685456995D+03 0.249182720357663D+02 -.124095319722702D+02
 0.970339155228764D+02 -.227751932295466D+02 0.547258901903312D+02 0.768241386410114D+02
-.594282307063D-05 0.000000000000D+00 0.000000000000D+00 0.712510083962D-08 0.000000000000D+00  7 21 -3 24 -11 11 -24 -3 2 0.32251665D-01 0.11654595D+00 0.11494522D+06 0.11494522D+06 0.11494522D+06 0.11167916D+01  1  2 13  3  7  1        3 -.253081788206D-03 0.100000000000D+01
0.650926138424D-05 0.000000000000D+00 0.000000000000D+00 0.712510083962D-08 0.441979305430D-12  7 21 -3 24 -11 11 -24 -3 2 0.31914269D-01 0.12027139D+00 0.11494522D+06 0.11494522D+06 0.11494522D+06 0.11167916D+01  1  2  1  3  7  1        3 0.259189275305D-03 0.100000000000D+01
  </mgrwgt>
  </event>
  <event>
  9     66 0.27727860E-05 0.27251484E+03 0.75467711E-02 0.97387060E-01
        1 -1    0    0  502    0 0.00000000E+00 0.00000000E+00 0.13029197E+04 0.13029197E+04 0.32000000E+00 0.0000E+00 0.9000E+01
       -1 -1    0    0    0  501 0.00000000E+00 0.00000000E+00 -.19645974E+03 0.19646000E+03 0.32000000E+00 0.0000E+00 0.9000E+01
       25  2    1    2    0    0 0.87249574E+02 0.32181055E+03 0.30780758E+03 0.54402835E+03 0.30007803E+03 0.0000E+00 0.0000E+00
       23  2    1    2    0    0 -.11417804E+03 -.11688073E+03 0.70294352E+03 0.72757490E+03 0.92400842E+02 0.0000E+00 0.0000E+00
       24  1    3    3    0    0 0.57251181E+02 0.48753380E+02 0.21768876E+03 0.24394713E+03 0.80419002E+02 0.0000E+00 0.9000E+01
      -13  1    4    4    0    0 -.10984826E+03 -.13138297E+03 0.66566004E+03 0.68733647E+03 0.10565837E+00 0.0000E+00 0.9000E+01
       13  1    4    4    0    0 -.43297866E+01 0.14502247E+02 0.37283484E+02 0.40238434E+02 0.10565837E+00 0.0000E+00 0.9000E+01
      -24  1    3    3    0    0 0.29998393E+02 0.27305717E+03 0.90118818E+02 0.30008122E+03 0.80419002E+02 0.0000E+00 0.9000E+01
       21  1    1    2  502  501 0.26928468E+02 -.20492982E+03 0.95708838E+02 0.22777647E+03 0.75000000E+00 0.0000E+00 0.9000E+01
#aMCatNLO 2  0  0  1  1 0.20669150D+03 0.00000000D+00  -5  7  0 0.00000000D+00 0.00000000D+00 0.00000000D+00 0.00000000D+00 0.00000000D+00
  <mgrwgt>
 0.7940257785D-04    1    2    0
 0.371697345359345D+03 0.000000000000000D+00 0.000000000000000D+00 0.371697345359345D+03
 0.371697345359345D+03 0.000000000000000D+00 0.000000000000000D+00 -.371697345359345D+03
 0.109935509923894D+03 0.612825493321529D+02 0.180740381436805D+02 0.391966666999772D+02
 0.302893200603814D+03 -.998295775129286D+02 -.207627906258662D+03 0.196644346392814D+03
 0.139820509897741D+02 -.377052845401948D+01 0.102474462025356D+02 0.873331044817549D+01
 0.316583929201207D+03 0.423175566347952D+02 0.179306421912446D+03 -.244574323540967D+03
 0.000000000000000D+00 0.000000000000000D+00 -.000000000000000D+00 -.000000000000000D+00
 0.440476607420758D+03 0.000000000000000D+00 0.000000000000000D+00 0.440476607420758D+03
 0.581122514841839D+03 0.000000000000000D+00 0.000000000000000D+00 -.581122514841839D+03
 0.116868235204093D+03 0.572511806303621D+02 0.487533802047535D+02 0.391966666999772D+02
 0.260762735117515D+03 -.109848393104194D+03 -.131383163267357D+03 0.196644346392814D+03
 0.174739022654715D+02 -.432964861037595D+01 0.145024374471918D+02 0.873331044817549D+01
 0.376488958675487D+03 0.299983934451873D+02 0.273057167467489D+03 -.244574323540967D+03
 0.250005291000029D+03 0.269284676390202D+02 -.204929821852078D+03 -.140645907421081D+03
0.595405917132D-05 0.000000000000D+00 0.000000000000D+00 0.217012515007D-05 0.364225213024D-09  7 1 -1 24 -13 13 -24 21 2 0.20044897D+00 0.30224562D-01 0.15579197D+06 0.15579197D+06 0.15579197D+06 0.11062558D+01  1  2  1  1  7  1        1 0.794025778525D-04 0.100000000000D+01
  </mgrwgt>
  </event>
  <event>
  8     66 0.27727860E-05 0.13853133E+03 0.75467711E-02 0.10511814E+00
        3 -1    0    0  501    0 0.00000000E+00 0.00000000E+00 0.18722809E+03 0.18722875E+03 0.50000000E+00 0.0000E+00 0.9000E+01
       -3 -1    0    0    0  501 0.00000000E+00 0.00000000E+00 -.22876562E+03 0.22876617E+03 0.50000000E+00 0.0000E+00 0.9000E+01
       25  2    1    2    0    0 -.28284825E+02 0.30333469E+02 -.21105575E+02 0.30270223E+03 0.29910373E+03 0.0000E+00 0.0000E+00
       23  2    1    2    0    0 0.28284825E+02 -.30333469E+02 -.20431961E+02 0.11329270E+03 0.10342930E+03 0.0000E+00 0.0000E+00
       24  1    3    3    0    0 0.38134964E+02 0.12939553E+03 -.23719064E+02 0.15883101E+03 0.80419002E+02 0.0000E+00 0.9000E+01
      -13  1    4    4    0    0 -.45664048E+01 0.90193861E+01 -.52076994E+02 0.53049278E+02 0.10565837E+00 0.0000E+00 0.9000E+01
       13  1    4    4    0    0 0.32851230E+02 -.39352855E+02 0.31645033E+02 0.60243421E+02 0.10565837E+00 0.0000E+00 0.9000E+01
      -24  1    3    3    0    0 -.66419789E+02 -.99062064E+02 0.26134881E+01 0.14387122E+03 0.80419002E+02 0.0000E+00 0.9000E+01
#aMCatNLO 1  0  0  2  1 0.66779848D+02 0.00000000D+00  -5  7  0 0.00000000D+00 0.00000000D+00 0.00000000D+00 0.00000000D+00 0.00000000D+00
  <mgrwgt>
 0.3499747774D-03    9    2    0
 0.206957973425784D+03 0.000000000000000D+00 0.000000000000000D+00 0.206957973425784D+03
 0.206957973425784D+03 0.000000000000000D+00 0.000000000000000D+00 -.206957973425784D+03
 0.157269593389810D+03 0.381011566627766D+02 0.129431789626877D+03 -.788813955049254D+01
 0.480648396918733D+02 -.452962673171694D+01 0.897776261787527D+01 -.470011816304002D+02
 0.637327666439129D+02 0.328793999488701D+02 -.393808842357988D+02 0.378147664265735D+02
 0.144848747125972D+03 -.664509298799297D+02 -.990286680089538D+02 0.170745547543193D+02
 0.000000000000000D+00 0.000000000000000D+00 0.000000000000000D+00 -.000000000000000D+00
 0.223445539535229D+03 0.000000000000000D+00 0.000000000000000D+00 0.223445539535229D+03
 0.290356653485734D+03 0.000000000000000D+00 0.000000000000000D+00 -.290356653485734D+03
 0.140881764099570D+03 0.201770798771419D+02 0.113627101536120D+03 -.788813955049254D+01
 0.482765564482065D+02 -.103214185135523D+02 0.387080711365199D+01 -.470011816304002D+02
 0.647801713976128D+02 0.251535395375658D+02 -.461932191467524D+02 0.378147664265735D+02
 0.165329869783368D+03 -.850980539231031D+02 -.115470908399723D+03 0.170745547543193D+02
 0.945338312922060D+02 0.500888530219477D+02 0.441662188967032D+02 -.669111139505052D+02
0.771490761078D-05 0.000000000000D+00 0.000000000000D+00 0.263609186779D-08 0.000000000000D+00  7 3 -3 24 -13 13 -24 21 0 0.28804415D-01 0.35194805D-01 0.32809594D+05 0.32809594D+05 0.32809594D+05 0.11637457D+01  1  2  2  2  7  2       -3 0.293487824949D-03 0.100000000000D+01
-.419349322064D-06 0.000000000000D+00 -.296272766072D-07 0.263609186779D-08 0.000000000000D+00  7 3 -3 24 -13 13 -24 21 2 0.28804415D-01 0.35194805D-01 0.32809594D+05 0.32809594D+05 0.32809594D+05 0.11637457D+01  1  2  3  2  7  2       -3 -.216048614935D-04 0.100000000000D+01
0.496738901990D-06 0.000000000000D+00 0.000000000000D+00 0.263609186779D-08 0.000000000000D+00  7 3 -3 24 -13 13 -24 21 2 0.28804415D-01 0.35194805D-01 0.32809594D+05 0.32809594D+05 0.32809594D+05 0.11637457D+01  1  2 15  2  7  2       -3 0.255919697762D-04 0.100000000000D+01
0.771320101704D-05 0.000000000000D+00 0.000000000000D+00 0.263609186779D-08 0.000000000000D+00  7 3 -3 24 -13 13 -24 21 2 0.28804415D-01 0.50342428D-01 0.47416686D+05 0.47416686D+05 0.47416686D+05 0.11493274D+01  1  2 12  2  7  2       -3 0.192568138702D-03 0.100000000000D+01
-.893027166551D-05 0.000000000000D+00 0.000000000000D+00 0.263609186779D-08 0.000000000000D+00  7 3 -3 24 -13 13 -24 21 2 0.28804415D-01 0.35194805D-01 0.32809594D+05 0.32809594D+05 0.32809594D+05 0.11637457D+01  1  2  4  2  7  2       -3 -.460087264439D-03 0.100000000000D+01
-.112172743820D-04 0.000000000000D+00 -.317442157841D-05 0.263609186779D-08 0.000000000000D+00  7 3 -3 24 -13 13 -24 21 2 0.28804415D-01 0.52502697D-01 0.32809594D+05 0.32809594D+05 0.32809594D+05 0.11637457D+01  1  2  5  2  7  2       -3 -.260916604478D-03 0.100000000000D+01
0.117708303328D-04 0.000000000000D+00 0.293640149130D-05 0.263609186779D-08 0.000000000000D+00  7 3 -3 24 -13 13 -24 21 2 0.28804415D-01 0.35194805D-01 0.32809594D+05 0.32809594D+05 0.32809594D+05 0.11637457D+01  1  2  6  2  7  2       -3 0.606432741447D-03 0.100000000000D+01
0.338647964626D-06 0.000000000000D+00 0.000000000000D+00 0.263609186779D-08 0.000000000000D+00  7 3 21 24 -13 13 -24 3 2 0.28804415D-01 0.50342428D-01 0.47416686D+05 0.47416686D+05 0.47416686D+05 0.11493274D+01  1  2 12  4  7  2       -3 0.136701938988D-03 0.100000000000D+01
-.425569204731D-06 0.000000000000D+00 -.151092346216D-06 0.263609186779D-08 0.000000000000D+00  7 3 21 24 -13 13 -24 3 2 0.28804415D-01 0.52502697D-01 0.32809594D+05 0.32809594D+05 0.32809594D+05 0.11637457D+01  1  2  5  4  7  2       -3 -.162199106069D-03 0.100000000000D+01
  </mgrwgt>
  </event>
  <event>
  8     66 0.27727860E-05 0.23259468E+03 0.75467711E-02 0.95010056E-01
        1 -1    0    0  501    0 0.00000000E+00 0.00000000E+00 0.61620783E+03 0.61620791E+03 0.32000000E+00 0.0000E+00 0.9000E+01
       -1 -1    0    0    0  501 0.00000000E+00 0.00000000E+00 -.20378604E+03 0.20378629E+03 0.32000000E+00 0.0000E+00 0.9000E+01
       25  2    1    2    0    0 0.23770328E+03 0.61131515E+02 0.79035914E+02 0.39594702E+03 0.30047870E+03 0.0000E+00 0.0000E+00
       23  2    1    2    0    0 -.23770328E+03 -.61131515E+02 0.33338587E+03 0.42404719E+03 0.91814838E+02 0.0000E+00 0.0000E+00
       24  1    3    3    0    0 0.27909428E+03 0.30736679E+02 0.50939679E+02 0.29648006E+03 0.80419002E+02 0.0000E+00 0.9000E+01
      -13  1    4    4    0    0 0.64249978E+01 -.10611098E+02 0.11559486E+02 0.16956087E+02 0.10565837E+00 0.0000E+00 0.9000E+01
       13  1    4    4    0    0 -.24412828E+03 -.50520417E+02 0.32182639E+03 0.40709110E+03 0.10565837E+00 0.0000E+00 0.9000E+01
      -24  1    3    3    0    0 -.41390996E+02 0.30394836E+02 0.28096235E+02 0.99466954E+02 0.80419002E+02 0.0000E+00 0.9000E+01
#aMCatNLO 1  0  0  1  2 0.26603825D+03 0.00000000D+00  -5  7  0 0.00000000D+00 0.00000000D+00 0.00000000D+00 0.00000000D+00 0.00000000D+00
  <mgrwgt>
 0.7660143792D-03    7    2    0
 0.354365193950182D+03 0.000000000000000D+00 0.000000000000000D+00 0.354365193950182D+03
 0.354365193950182D+03 0.000000000000000D+00 0.000000000000000D+00 -.354365193950182D+03
 0.313381931516917D+03 0.279094278708338D+03 0.307366786585516D+02 -.113589872894624D+03
 0.128910159802408D+02 0.642532944433992D+01 -.106110453237655D+02 0.350701463805275D+01
 0.283724794630483D+03 -.244128612882074D+03 -.505204695926488D+02 0.135457231673035D+03
 0.987326457727237D+02 -.413909952706039D+02 0.303948362578628D+02 -.253743734164644D+02
 0.000000000000000D+00 0.000000000000000D+00 -.000000000000000D+00 0.000000000000000D+00
 0.818622683471231D+03 0.000000000000000D+00 0.000000000000000D+00 0.818622683471231D+03
 0.418712035072336D+03 0.000000000000000D+00 0.000000000000000D+00 -.418712035072336D+03
 0.246039714053108D+03 0.188158555904052D+03 0.759079939983222D+02 -.113589872894624D+03
 0.983724128348455D+01 0.273078076406383D+01 -.877581909661975D+01 0.350701463805275D+01
 0.376690204502579D+03 -.351481118407245D+03 0.280570113597334D+01 0.135457231673035D+03
 0.124450086047599D+03 -.776700402382616D+02 0.484160509128208D+02 -.253743734164644D+02
 0.480317472656798D+03 0.238261821977390D+03 -.118353926950497D+03 0.399910648398895D+03
0.248123601465D-04 0.000000000000D+00 0.000000000000D+00 0.205358195040D-05 0.000000000000D+00  7 1 -1 24 -13 13 -24 21 0 0.94801230D-01 0.31351724D-01 0.10536306D+06 0.10536306D+06 0.10536306D+06 0.11198649D+01  1  2  2  1  7  1        1 0.906849833376D-03 0.100000000000D+01
-.136556073254D-05 0.000000000000D+00 -.952859962072D-07 0.205358195040D-05 0.000000000000D+00  7 1 -1 24 -13 13 -24 21 2 0.94801230D-01 0.31351724D-01 0.10536306D+06 0.10536306D+06 0.10536306D+06 0.11198649D+01  1  2  3  1  7  1        1 -.625906727205D-04 0.100000000000D+01
0.154465574430D-05 0.000000000000D+00 0.000000000000D+00 0.205358195040D-05 0.000000000000D+00  7 1 -1 24 -13 13 -24 21 2 0.94801230D-01 0.31351724D-01 0.10536306D+06 0.10536306D+06 0.10536306D+06 0.11198649D+01  1  2 15  1  7  1        1 0.707995183616D-04 0.100000000000D+01
0.141683983708D-05 0.000000000000D+00 0.000000000000D+00 0.205358195040D-05 0.000000000000D+00  7 1 -1 24 -13 13 -24 21 2 0.21678187D+00 0.31351724D-01 0.23367886D+06 0.23367886D+06 0.23367886D+06 0.10926718D+01  1  2 12  1  7  1        1 0.144617100326D-04 0.100000000000D+01
-.170740922985D-04 0.000000000000D+00 -.762691910906D-05 0.205358195040D-05 0.000000000000D+00  7 1 -1 24 -13 13 -24 21 2 0.23595058D+00 0.31351724D-01 0.10536306D+06 0.10536306D+06 0.10536306D+06 0.11198649D+01  1  2  5  1  7  1        1 -.155716169650D-03 0.100000000000D+01
0.127457063861D-06 0.000000000000D+00 0.000000000000D+00 0.205358195040D-05 0.000000000000D+00  7 21 -1 24 -13 13 -24 -1 2 0.21678187D+00 0.31351724D-01 0.23367886D+06 0.23367886D+06 0.23367886D+06 0.10926718D+01  1  2 12  3  7  1        1 0.111145782771D-05 0.100000000000D+01
-.124011950052D-05 0.000000000000D+00 -.764992478253D-06 0.205358195040D-05 0.000000000000D+00  7 21 -1 24 -13 13 -24 -1 2 0.23595058D+00 0.31351724D-01 0.10536306D+06 0.10536306D+06 0.10536306D+06 0.11198649D+01  1  2  5  3  7  1        1 -.890129800287D-05 0.100000000000D+01
  </mgrwgt>
  </event>
  <event>
  8     66 0.27727860E-05 0.22672878E+03 0.75467711E-02 0.94397503E-01
        1 -1    0    0  501    0 0.00000000E+00 0.00000000E+00 0.75183687E+03 0.75183694E+03 0.32000000E+00 0.0000E+00 0.9000E+01
       -1 -1    0    0    0  501 0.00000000E+00 0.00000000E+00 -.12411477E+03 0.12411518E+03 0.32000000E+00 0.0000E+00 0.9000E+01
       25  2    1    2    0    0 0.74361553E+02 -.15424706E+03 0.18331875E+03 0.39109046E+03 0.30004031E+03 0.0000E+00 0.0000E+00
       23  2    1    2    0    0 -.74361553E+02 0.15424706E+03 0.44440335E+03 0.48486167E+03 0.90965400E+02 0.0000E+00 0.0000E+00
       24  1    3    3    0    0 0.11823923E+03 -.10827600E+03 -.19321748E+01 0.17937435E+03 0.80419002E+02 0.0000E+00 0.9000E+01
      -13  1    4    4    0    0 -.65031656E+02 0.12512244E+03 0.42698258E+03 0.44966530E+03 0.10565837E+00 0.0000E+00 0.9000E+01
       13  1    4    4    0    0 -.93298966E+01 0.29124616E+02 0.17420767E+02 0.35196371E+02 0.10565837E+00 0.0000E+00 0.9000E+01
      -24  1    3    3    0    0 -.43877679E+02 -.45971051E+02 0.18525092E+03 0.21171610E+03 0.80419002E+02 0.0000E+00 0.9000E+01
#aMCatNLO 1  0  0  1  1 0.44280653D+03 0.00000000D+00  -5  7  0 0.00000000D+00 0.00000000D+00 0.00000000D+00 0.00000000D+00 0.00000000D+00
  <mgrwgt>
 0.6680980695D-03    5    2    0
 0.305473848910714D+03 0.000000000000000D+00 0.000000000000000D+00 0.305473848910714D+03
 0.305473848910714D+03 0.000000000000000D+00 0.000000000000000D+00 -.305473848910714D+03
 0.259164924051065D+03 0.118239232454400D+03 -.108276004053214D+03 -.187069593357357D+03
 0.206006195483674D+03 -.650317316236309D+02 0.125122568698237D+03 0.150179123922217D+03
 0.325638223438271D+02 -.932982151808467D+01 0.291244867170935D+02 -.111857601237851D+02
 0.113212755942862D+03 -.438776793126844D+02 -.459710513621163D+02 0.480762295589242D+02
 0.000000000000000D+00 -.000000000000000D+00 0.000000000000000D+00 0.000000000000000D+00
 0.620749702422753D+03 0.000000000000000D+00 0.000000000000000D+00 0.620749702422753D+03
 0.578600995492807D+03 0.000000000000000D+00 0.000000000000000D+00 -.578600995492807D+03
 0.421826480141163D+03 0.188811040748239D+03 -.317530662340808D+03 -.187069593357357D+03
 0.153430813659252D+03 -.277829212175228D+02 0.146749653054532D+02 0.150179123922217D+03
 0.180544081011845D+02 -.408420456440812D+01 0.135705451406097D+02 -.111857601237851D+02
 0.161231016801769D+03 -.154368015008039D+02 -.130301980550504D+03 0.480762295589242D+02
 0.444807979212191D+03 -.141507113465505D+03 0.419587132445249D+03 0.421487069299461D+02
0.103227769069D-04 0.000000000000D+00 0.000000000000D+00 0.249006349027D-05 0.000000000000D+00  7 1 -1 24 -13 13 -24 21 0 0.11566725D+00 0.19094617D-01 0.51405939D+05 0.51405939D+05 0.51405939D+05 0.11462376D+01  1  2  2  1  7  1        1 0.634673331715D-03 0.100000000000D+01
-.511521001600D-06 0.000000000000D+00 -.396421813719D-07 0.249006349027D-05 0.000000000000D+00  7 1 -1 24 -13 13 -24 21 2 0.11566725D+00 0.19094617D-01 0.51405939D+05 0.51405939D+05 0.51405939D+05 0.11462376D+01  1  2  3  1  7  1        1 -.413205845528D-04 0.100000000000D+01
0.632146007394D-06 0.000000000000D+00 0.000000000000D+00 0.249006349027D-05 0.000000000000D+00  7 1 -1 24 -13 13 -24 21 2 0.11566725D+00 0.19094617D-01 0.51405939D+05 0.51405939D+05 0.51405939D+05 0.11462376D+01  1  2 15  1  7  1        1 0.510646531942D-04 0.100000000000D+01
0.287437674535D-05 0.000000000000D+00 -.320159765054D-05 0.249006349027D-05 0.000000000000D+00  7 1 -1 24 -13 13 -24 21 2 0.34482550D+00 0.19094617D-01 0.51405939D+05 0.51405939D+05 0.51405939D+05 0.11462376D+01  1  2  5  1  7  1        1 0.218743933187D-04 0.100000000000D+01
0.518786742578D-06 0.000000000000D+00 -.397432871649D-06 0.249006349027D-05 0.000000000000D+00  7 21 -1 24 -13 13 -24 -1 2 0.34482550D+00 0.19094617D-01 0.51405939D+05 0.51405939D+05 0.51405939D+05 0.11462376D+01  1  2  5  3  7  1        1 0.180627578842D-05 0.100000000000D+01
  </mgrwgt>
  </event>
  <event>
  9     66 0.27727860E-05 0.21616102E+03 0.75467711E-02 0.10140788E+00
        1 -1    0    0  502    0 0.00000000E+00 0.00000000E+00 0.10869504E+04 0.10869505E+04 0.32000000E+00 0.0000E+00 0.9000E+01
       -1 -1    0    0    0  501 0.00000000E+00 0.00000000E+00 -.77741249E+03 0.77741255E+03 0.32000000E+00 0.0000E+00 0.9000E+01
       25  2    1    2    0    0 -.10625112E+03 -.13076818E+03 0.13236146E+02 0.34117400E+03 0.29636951E+03 0.0000E+00 0.0000E+00
       23  2    1    2    0    0 0.15731243E+03 0.31142030E+02 -.59601121E+03 0.62388058E+03 0.90997718E+02 0.0000E+00 0.0000E+00
       24  1    3    3    0    0 -.13989790E+03 -.61202465E+02 -.85155807E+02 0.19244712E+03 0.80419002E+02 0.0000E+00 0.9000E+01
      -11  1    4    4    0    0 0.28467488E+02 0.38190062E+02 -.91830219E+02 0.10344887E+03 0.51099893E-03 0.0000E+00 0.9000E+01
       11  1    4    4    0    0 0.12884494E+03 -.70480318E+01 -.50418099E+03 0.52043171E+03 0.51099893E-03 0.0000E+00 0.9000E+01
      -24  1    3    3    0    0 0.33646787E+02 -.69565712E+02 0.98391953E+02 0.14872689E+03 0.80419002E+02 0.0000E+00 0.9000E+01
       21  1    1    2  502  501 -.51061316E+02 0.99626146E+02 0.89231300E+03 0.89930844E+03 0.75000000E+00 0.0000E+00 0.9000E+01
#aMCatNLO 2  0  0  1  2 0.11194922D+03 0.00000000D+00  -5  7  0 0.00000000D+00 0.00000000D+00 0.00000000D+00 0.00000000D+00 0.00000000D+00
  <mgrwgt>
 0.1855487889D-02    2    2    0
 0.380516406253453D+03 0.000000000000000D+00 0.000000000000000D+00 0.380516406253453D+03
 0.380516406253453D+03 0.000000000000000D+00 0.000000000000000D+00 -.380516406253453D+03
 0.180204182766434D+03 -.151814556783339D+03 -.379517873971572D+02 0.389658018547930D+02
 0.639507003577537D+02 0.243244041748160D+02 0.462736670911109D+02 -.368342662710747D+02
 0.264298377184024D+03 0.110984864022507D+03 0.277989157252628D+02 -.238250314636758D+03
 0.252579552198695D+03 0.165052885860163D+02 -.361207954192165D+02 0.236118779053039D+03
 0.000000000000000D+00 -.000000000000000D+00 0.000000000000000D+00 0.000000000000000D+00
 0.218716091889138D+04 0.000000000000000D+00 0.000000000000000D+00 0.218716091889138D+04
 0.386349532714418D+03 0.000000000000000D+00 0.000000000000000D+00 -.386349532714418D+03
 0.176925732843735D+03 -.139897904192796D+03 -.612024646251980D+02 0.389658018547930D+02
 0.602133033952067D+02 0.284674883363514D+02 0.381900620823595D+02 -.368342662710747D+02
 0.270950008152591D+03 0.128844944567168D+03 -.704803184290462D+01 -.238250314636758D+03
 0.261133659790885D+03 0.336467869900151D+02 -.695657115622474D+02 0.236118779053039D+03
 0.180428774742338D+04 -.510613157007384D+02 0.996261459479905D+02 0.180081138617696D+04
-.159488005861D-02 0.000000000000D+00 0.000000000000D+00 0.845673326790D-07 0.000000000000D+00  7 1 -1 24 -11 11 -24 21 2 0.16582375D+00 0.11779615D+00 0.82004919D+05 0.82004919D+05 0.82004919D+05 0.11288618D+01  1  2 13  1  7  1        1 -.241617702333D-02 0.100000000000D+01
0.296956571353D-02 0.000000000000D+00 0.000000000000D+00 0.845673326790D-07 0.142556040149D-09  7 1 -1 24 -11 11 -24 21 2 0.16722312D+00 0.11960191D+00 0.82004919D+05 0.82004919D+05 0.82004919D+05 0.11288618D+01  1  2  1  1  7  1        1 0.427166491281D-02 0.100000000000D+01
  </mgrwgt>
  </event>
  <event>
  8     66 0.27727860E-05 0.11108906E+04 0.75467711E-02 0.78685801E-01
        1 -1    0    0  501    0 0.00000000E+00 0.00000000E+00 0.28394401E+04 0.28394401E+04 0.32000000E+00 0.0000E+00 0.9000E+01
       -1 -1    0    0    0  501 0.00000000E+00 0.00000000E+00 -.79444093E+03 0.79444100E+03 0.32000000E+00 0.0000E+00 0.9000E+01
       25  2    1    2    0    0 0.97806881E+03 0.48766993E+03 -.18525414E+03 0.11484278E+04 0.30021110E+03 0.0000E+00 0.0000E+00
       23  2    1    2    0    0 -.97806881E+03 -.48766993E+03 0.22302533E+04 0.24854534E+04 0.94910213E+02 0.0000E+00 0.0000E+00
       24  1    3    3    0    0 0.82774758E+03 0.33268186E+03 -.94091047E+02 0.90064622E+03 0.80419002E+02 0.0000E+00 0.9000E+01
      -11  1    4    4    0    0 -.10609223E+03 -.26986046E+02 0.18790165E+03 0.21746457E+03 0.51099893E-03 0.0000E+00 0.9000E+01
       11  1    4    4    0    0 -.87197658E+03 -.46068388E+03 0.20423517E+04 0.22679888E+04 0.51099893E-03 0.0000E+00 0.9000E+01
      -24  1    3    3    0    0 0.15032123E+03 0.15498806E+03 -.91163095E+02 0.24778155E+03 0.80419002E+02 0.0000E+00 0.9000E+01
#aMCatNLO 1  0  0  1  2 0.23708879D+04 0.00000000D+00  -5  7  0 0.00000000D+00 0.00000000D+00 0.00000000D+00 0.00000000D+00 0.00000000D+00
  <mgrwgt>
 0.5471207776D-03    5    2    0
 0.150192130818746D+04 0.000000000000000D+00 0.000000000000000D+00 0.150192130818746D+04
 0.150192130818746D+04 0.000000000000000D+00 0.000000000000000D+00 -.150192130818746D+04
 0.115360818923546D+04 0.827747578831053D+03 0.332681863168635D+03 -.726980991481017D+03
 0.135154106951292D+03 -.106092227186606D+03 -.269860462322497D+02 0.792642748351227D+02
 0.135326470354870D+04 -.871976581639130D+03 -.460683879694991D+03 0.926689031948069D+03
 0.361815616639479D+03 0.150321229994682D+03 0.154988062758606D+03 -.278972315302175D+03
 0.000000000000000D+00 -.000000000000000D+00 -.000000000000000D+00 0.000000000000000D+00
 0.336007495068716D+04 0.000000000000000D+00 0.000000000000000D+00 0.336007495068716D+04
 0.288476050035067D+04 0.000000000000000D+00 0.000000000000000D+00 -.288476050035067D+04
 0.199276163949398D+04 0.130795955118119D+04 0.131353423494918D+04 -.726980991481017D+03
 0.116230247373054D+03 -.677249076471838D+02 0.513807553802379D+02 0.792642748351227D+02
 0.109480192309409D+04 -.498342531220017D+03 0.302478776866914D+03 0.926689031948069D+03
 0.622977673653173D+03 0.300624453719524D+03 0.461988475004226D+03 -.278972315302175D+03
 0.241806396742354D+04 -.104251656603351D+04 -.212938224220056D+04 0.475314450336490D+03
0.994319361967D-02 0.000000000000D+00 0.000000000000D+00 0.107698241284D-04 0.000000000000D+00  7 1 -1 24 -11 11 -24 21 0 0.43683695D+00 0.12222169D+00 0.12340780D+07 0.12340780D+07 0.12340780D+07 0.10418372D+01  1  2  2  1  7  1        1 0.540051640372D-03 0.100000000000D+01
-.491312638841D-03 0.000000000000D+00 -.381844816025D-04 0.107698241284D-04 0.000000000000D+00  7 1 -1 24 -11 11 -24 21 2 0.43683695D+00 0.12222169D+00 0.12340780D+07 0.12340780D+07 0.12340780D+07 0.10418372D+01  1  2  3  1  7  1        1 -.289645660265D-04 0.100000000000D+01
0.611223017643D-03 0.000000000000D+00 0.000000000000D+00 0.107698241284D-04 0.000000000000D+00  7 1 -1 24 -11 11 -24 21 2 0.43683695D+00 0.12222169D+00 0.12340780D+07 0.12340780D+07 0.12340780D+07 0.10418372D+01  1  2 15  1  7  1        1 0.360336943361D-04 0.100000000000D+01
0.102813027158D-03 0.000000000000D+00 -.190821727663D-02 0.107698241284D-04 0.000000000000D+00  7 1 -1 24 -11 11 -24 21 2 0.98408984D+00 0.12222169D+00 0.12340780D+07 0.12340780D+07 0.12340780D+07 0.10418372D+01  1  2  5  1  7  1        1 0.881360413738D-11 0.100000000000D+01
0.129710142497D-03 0.000000000000D+00 -.168307917786D-03 0.107698241284D-04 0.000000000000D+00  7 21 -1 24 -11 11 -24 -1 2 0.98408984D+00 0.12222169D+00 0.12340780D+07 0.12340780D+07 0.12340780D+07 0.10418372D+01  1  2  5  3  7  1        1 0.144255254167D-12 0.100000000000D+01
  </mgrwgt>
  </event>
  <event>
  8     66 0.27727860E-05 0.19934516E+03 0.75467711E-02 0.97632301E-01
        1 -1    0    0  501    0 0.00000000E+00 0.00000000E+00 0.54872921E+02 0.54873855E+02 0.32000000E+00 0.0000E+00 0.9000E+01
       -1 -1    0    0    0  501 0.00000000E+00 0.00000000E+00 -.96392420E+03 0.96392425E+03 0.32000000E+00 0.0000E+00 0.9000E+01
       25  2    1    2    0    0 0.81374302E+02 0.64751173E+02 -.68963217E+03 0.75977153E+03 0.30140629E+03 0.0000E+00 0.0000E+00
       23  2    1    2    0    0 -.81374302E+02 -.64751173E+02 -.21941910E+03 0.25902658E+03 0.90197186E+02 0.0000E+00 0.0000E+00
       24  1    3    3    0    0 -.30778367E+02 -.62754522E+02 -.40451033E+03 0.41830762E+03 0.80419002E+02 0.0000E+00 0.9000E+01
      -11  1    4    4    0    0 -.70214411E+02 -.52454225E+02 -.22503235E+03 0.24149755E+03 0.51099893E-03 0.0000E+00 0.9000E+01
       11  1    4    4    0    0 -.11159891E+02 -.12296948E+02 0.56132466E+01 0.17529023E+02 0.51099893E-03 0.0000E+00 0.9000E+01
      -24  1    3    3    0    0 0.11215267E+03 0.12750570E+03 -.28512184E+03 0.34146391E+03 0.80419002E+02 0.0000E+00 0.9000E+01
#aMCatNLO 1  0  0  1  2 0.28135848D+03 0.00000000D+00  -5  7  0 0.00000000D+00 0.00000000D+00 0.00000000D+00 0.00000000D+00 0.00000000D+00
  <mgrwgt>
 0.9036548131D-03    3    2    0
 0.229986606565009D+03 0.000000000000000D+00 0.000000000000000D+00 0.229986606565009D+03
 0.229986606565009D+03 0.000000000000000D+00 0.000000000000000D+00 -.229986606565009D+03
 0.127073431132773D+03 -.307783669534603D+02 -.627545223715689D+02 -.692459601354439D+02
 0.901602585147886D+02 -.702144110154171D+02 -.524542247713462D+02 -.211509575397586D+02
 0.499186990859579D+02 -.111598912798220D+02 -.122969483067030D+02 0.470756668290449D+02
 0.192820824396498D+03 0.112152669248699D+03 0.127505695449618D+03 0.433212508461577D+02
 0.000000000000000D+00 0.000000000000000D+00 -.000000000000000D+00 -.000000000000000D+00
 0.398799626849627D+03 0.000000000000000D+00 0.000000000000000D+00 0.398799626849627D+03
 0.422780169912836D+03 0.000000000000000D+00 0.000000000000000D+00 -.422780169912836D+03
 0.142809155667256D+03 -.934847777455846D+02 -.198199980525545D+02 -.692459601354439D+02
 0.123001337548306D+03 -.119741869479202D+03 -.185432124360744D+02 -.211509575397586D+02
 0.598999955875923D+02 -.366759360995531D+02 0.517366168355018D+01 0.470756668290449D+02
 0.213490728346515D+03 0.177473968004716D+02 0.192144149709237D+03 0.433212508461577D+02
 0.282378579612794D+03 0.232155186523868D+03 -.158954600904158D+03 -.239805430632087D+02
0.225302219236D-04 0.000000000000D+00 0.000000000000D+00 0.809257637115D-07 0.000000000000D+00  7 1 -1 24 -11 11 -24 21 0 0.84420638D-02 0.14829611D+00 0.39738492D+05 0.39738492D+05 0.39738492D+05 0.11561749D+01  1  2  2  1  7  1        1 0.891531967092D-03 0.100000000000D+01
-.122056577033D-05 0.000000000000D+00 -.865219845304D-07 0.809257637115D-07 0.000000000000D+00  7 1 -1 24 -11 11 -24 21 2 0.84420638D-02 0.14829611D+00 0.39738492D+05 0.39738492D+05 0.39738492D+05 0.11561749D+01  1  2  3  1  7  1        1 -.645624032456D-04 0.100000000000D+01
0.144975071653D-05 0.000000000000D+00 0.000000000000D+00 0.809257637115D-07 0.000000000000D+00  7 1 -1 24 -11 11 -24 21 2 0.84420638D-02 0.14829611D+00 0.39738492D+05 0.39738492D+05 0.39738492D+05 0.11561749D+01  1  2 15  1  7  1        1 0.766852492847D-04 0.100000000000D+01
  </mgrwgt>
  </event>
  <event>
  8     66 0.27727860E-05 0.27145848E+03 0.75467711E-02 0.82422325E-01
        1 -1    0    0  501    0 0.00000000E+00 0.00000000E+00 0.36360782E+03 0.36360796E+03 0.32000000E+00 0.0000E+00 0.9000E+01
       -1 -1    0    0    0  501 0.00000000E+00 0.00000000E+00 -.42333842E+03 0.42333855E+03 0.32000000E+00 0.0000E+00 0.9000E+01
       25  2    1    2    0    0 0.70300891E+02 0.20545919E+03 0.21301142E+03 0.42671838E+03 0.29926413E+03 0.0000E+00 0.0000E+00
       23  2    1    2    0    0 -.70300891E+02 -.20545919E+03 -.27274203E+03 0.36022812E+03 0.90666381E+02 0.0000E+00 0.0000E+00
       24  1    3    3    0    0 -.68659715E+01 -.87851602E+01 -.27660019E+02 0.85770701E+02 0.80419002E+02 0.0000E+00 0.9000E+01
      -13  1    4    4    0    0 -.99429405E+01 -.55106464E+01 0.52469301E+01 0.12520812E+02 0.10565837E+00 0.0000E+00 0.9000E+01
       13  1    4    4    0    0 -.60357951E+02 -.19994854E+03 -.27798896E+03 0.34770731E+03 0.10565837E+00 0.0000E+00 0.9000E+01
      -24  1    3    3    0    0 0.77166863E+02 0.21424435E+03 0.24067144E+03 0.34094768E+03 0.80419002E+02 0.0000E+00 0.9000E+01
#aMCatNLO 1  0  0  2  2 0.16829177D+04 0.00000000D+00  -5  7  0 0.00000000D+00 0.00000000D+00 0.00000000D+00 0.00000000D+00 0.00000000D+00
  <mgrwgt>
 0.6971372021D-03    5    2    0
 0.392338199830367D+03 0.000000000000000D+00 0.000000000000000D+00 0.392338199830367D+03
 0.392338199830367D+03 0.000000000000000D+00 0.000000000000000D+00 -.392338199830367D+03
 0.839133223226521D+02 -.686597147713302D+01 -.878516012821115D+01 -.212110609364938D+02
 0.129560110261143D+02 -.994287198079555D+01 -.551038232309601D+01 0.621556153019306D+01
 0.327552779557657D+03 -.603580195026119D+02 -.199948804322665D+03 -.252325600222423D+03
 0.360254286754311D+03 0.771668629605404D+02 0.214244346773972D+03 0.267321099628723D+03
 0.000000000000000D+00 0.000000000000000D+00 -.000000000000000D+00 -.000000000000000D+00
 0.121305190377275D+04 0.000000000000000D+00 0.000000000000000D+00 0.121305190377275D+04
 0.341612688185650D+04 0.000000000000000D+00 0.000000000000000D+00 -.341612688185650D+04
 0.202020767169950D+03 -.165073342267381D+03 0.815233523610797D+02 -.212110609364938D+02
 0.433202091572922D+02 -.410805122986361D+02 0.122637198915150D+02 0.621556153019306D+01
 0.674954025653929D+03 -.615045171822589D+03 0.116679753327479D+03 -.252325600222423D+03
 0.936565006948995D+03 -.640363429460837D+03 0.623827623778754D+03 0.267321099628723D+03
 0.277231877669909D+04 0.146156245584944D+04 -.834294449358827D+03 -.220307497808375D+04
0.328651218874D-04 0.000000000000D+00 0.000000000000D+00 0.160509948855D-05 0.000000000000D+00  7 1 -1 24 -13 13 -24 21 0 0.55939684D-01 0.65129009D-01 0.73689706D+05 0.73689706D+05 0.73689706D+05 0.11327680D+01  1  2  2  2  7  2       -1 0.683238770101D-03 0.100000000000D+01
-.152468992938D-05 0.000000000000D+00 -.126210721633D-06 0.160509948855D-05 0.000000000000D+00  7 1 -1 24 -13 13 -24 21 2 0.55939684D-01 0.65129009D-01 0.73689706D+05 0.73689706D+05 0.73689706D+05 0.11327680D+01  1  2  3  2  7  2       -1 -.406724884472D-04 0.100000000000D+01
0.204329023705D-05 0.000000000000D+00 0.000000000000D+00 0.160509948855D-05 0.000000000000D+00  7 1 -1 24 -13 13 -24 21 2 0.55939684D-01 0.65129009D-01 0.73689706D+05 0.73689706D+05 0.73689706D+05 0.11327680D+01  1  2 15  2  7  2       -1 0.545066225986D-04 0.100000000000D+01
0.611863608207D-04 0.000000000000D+00 -.250205271711D-04 0.160509948855D-05 0.000000000000D+00  7 1 -1 24 -13 13 -24 21 2 0.55939684D-01 0.73791611D+00 0.73689706D+05 0.73689706D+05 0.73689706D+05 0.11327680D+01  1  2  5  2  7  2       -1 0.543009131517D-07 0.100000000000D+01
0.129085769022D-04 0.000000000000D+00 -.712230532391D-05 0.160509948855D-05 0.000000000000D+00  7 1 21 24 -13 13 -24 1 2 0.55939684D-01 0.73791611D+00 0.73689706D+05 0.73689706D+05 0.73689706D+05 0.11327680D+01  1  2  5  4  7  2       -1 0.999693323111D-08 0.100000000000D+01
  </mgrwgt>
  </event>
  <event>
  8     66 0.27727860E-05 0.20469092E+03 0.75467711E-02 0.10174247E+00
        1 -1    0    0  501    0 0.00000000E+00 0.00000000E+00 0.43066411E+04 0.43066411E+04 0.32000000E+00 0.0000E+00 0.9000E+01
       -1 -1    0    0    0  501 0.00000000E+00 0.00000000E+00 -.15189653E+02 0.15193023E+02 0.32000000E+00 0.0000E+00 0.9000E+01
       25  2    1    2    0    0 0.15054751E+03 -.10762891E+02 0.28016772E+04 0.28216798E+04 0.29950227E+03 0.0000E+00 0.0000E+00
       23  2    1    2    0    0 -.15054751E+03 0.10762891E+02 0.14897743E+04 0.15001544E+04 0.90858133E+02 0.0000E+00 0.0000E+00
       24  1    3    3    0    0 0.84066139E+02 -.62066719E+02 0.23971686E+04 0.24007924E+04 0.80419002E+02 0.0000E+00 0.9000E+01
      -11  1    4    4    0    0 -.29947724E+02 0.26043623E+02 0.16054578E+03 0.16537861E+03 0.51099893E-03 0.0000E+00 0.9000E+01
       11  1    4    4    0    0 -.12059979E+03 -.15280732E+02 0.13292285E+04 0.13347758E+04 0.51099893E-03 0.0000E+00 0.9000E+01
      -24  1    3    3    0    0 0.66481375E+02 0.51303829E+02 0.40450853E+03 0.42088742E+03 0.80419002E+02 0.0000E+00 0.9000E+01
#aMCatNLO 1  0  0  1  2 0.12421924D+03 0.00000000D+00  -5  7  0 0.00000000D+00 0.00000000D+00 0.00000000D+00 0.00000000D+00 0.00000000D+00
  <mgrwgt>
 0.2636220705D-03    3    2    0
 0.255780554860543D+03 0.000000000000000D+00 0.000000000000000D+00 0.255780554860543D+03
 0.255780554860543D+03 0.000000000000000D+00 0.000000000000000D+00 -.255780554860543D+03
 0.172987487327191D+03 0.840661390806305D+02 -.620667191075297D+02 0.111973485507542D+03
 0.503644481486661D+02 -.299477242144503D+02 0.260436228030986D+02 -.310071147155750D+02
 0.125810361684595D+03 -.120599790256263D+03 -.152807322727613D+02 0.324104445906245D+02
 0.162398812560634D+03 0.664813753900833D+02 0.513038285771924D+02 -.113376815382591D+03
 0.000000000000000D+00 -.000000000000000D+00 -.000000000000000D+00 -.000000000000000D+00
 0.279181018908850D+03 0.000000000000000D+00 0.000000000000000D+00 0.279181018908850D+03
 0.504802728369256D+03 0.000000000000000D+00 0.000000000000000D+00 -.504802728369256D+03
 0.181553983924353D+03 0.113782566536184D+03 -.317820581486628D+02 0.111973485507542D+03
 0.512487423313694D+02 -.214308615953383D+02 0.347233437163491D+02 -.310071147155750D+02
 0.106307631824672D+03 -.101144470993054D+03 0.454660897187735D+01 0.324104445906245D+02
 0.187316453738862D+03 0.957932872079117D+02 0.811762388050662D+02 -.113376815382591D+03
 0.257556935458850D+03 -.870005211557026D+02 -.886641333446299D+02 -.225621709460407D+03
0.811465857872D-04 0.000000000000D+00 0.000000000000D+00 0.623035898272D-06 0.000000000000D+00  7 1 -1 24 -11 11 -24 21 0 0.66256043D+00 0.23371298D-02 0.41898373D+05 0.41898373D+05 0.41898373D+05 0.11541101D+01  1  2  2  1  7  1        1 0.259853562380D-03 0.100000000000D+01
-.423600976526D-05 0.000000000000D+00 -.311624255810D-06 0.623035898272D-06 0.000000000000D+00  7 1 -1 24 -11 11 -24 21 2 0.66256043D+00 0.23371298D-02 0.41898373D+05 0.41898373D+05 0.41898373D+05 0.11541101D+01  1  2  3  1  7  1        1 -.180679921082D-04 0.100000000000D+01
0.511953002786D-05 0.000000000000D+00 0.000000000000D+00 0.623035898272D-06 0.000000000000D+00  7 1 -1 24 -11 11 -24 21 2 0.66256043D+00 0.23371298D-02 0.41898373D+05 0.41898373D+05 0.41898373D+05 0.11541101D+01  1  2 15  1  7  1        1 0.218365002130D-04 0.100000000000D+01
  </mgrwgt>
  </event>
  <event>
  7     66 0.27727860E-05 0.35496158E+03 0.75467711E-02 0.91405780E-01
        1 -1    0    0  501    0 0.00000000E+00 0.00000000E+00 0.22279764E+04 0.22279764E+04 0.32000000E+00 0.0000E+00 0.9000E+01
       -1 -1    0    0    0  501 0.00000000E+00 0.00000000E+00 -.66681221E+02 0.66681989E+02 0.32000000E+00 0.0000E+00 0.9000E+01
       23  2    1    2    0    0 0.15353057E+03 -.24492072E+03 0.56274177E+03 0.63970098E+03 0.94769463E+02 0.0000E+00 0.0000E+00
       24  1    1    2    0    0 -.16641005E+03 0.27687089E+03 0.13790925E+04 0.14187012E+04 0.80419002E+02 0.0000E+00 0.9000E+01
      -13  1    3    3    0    0 0.48633112E+02 -.63542230E+02 0.78598445E+02 0.11216292E+03 0.10565837E+00 0.0000E+00 0.9000E+01
       13  1    3    3    0    0 0.10489746E+03 -.18137849E+03 0.48414332E+03 0.52753805E+03 0.10565837E+00 0.0000E+00 0.9000E+01
      -24  1    1    2    0    0 0.12879477E+02 -.31950175E+02 0.21946098E+03 0.23625629E+03 0.80419002E+02 0.0000E+00 0.9000E+01
#aMCatNLO 1  0  0  2  2 0.49035515D+03 0.00000000D+00  -5  7  0 0.00000000D+00 0.00000000D+00 0.00000000D+00 0.00000000D+00 0.00000000D+00
  <mgrwgt>
 0.6099406370D-03    3    2    0
 0.385441428824124D+03 0.000000000000000D+00 0.000000000000000D+00 0.385441428824124D+03
 0.385441428824124D+03 0.000000000000000D+00 0.000000000000000D+00 -.385441428824124D+03
 0.356485626030018D+03 -.166410029513282D+03 0.276870841059421D+03 0.127534407357704D+03
 0.113507640228516D+03 0.486330662536738D+02 -.635421235171300D+02 -.805059488233368D+02
 0.212928816793800D+03 0.104897577683238D+03 -.181378704203061D+03 -.379070557946041D+02
 0.879607745959147D+02 0.128793855763699D+02 -.319500133392306D+02 -.912140273976317D+01
 0.000000000000000D+00 -.000000000000000D+00 0.000000000000000D+00 0.000000000000000D+00
 0.834391595600488D+03 0.000000000000000D+00 0.000000000000000D+00 0.834391595600488D+03
 0.616015531089814D+03 0.000000000000000D+00 0.000000000000000D+00 -.616015531089814D+03
 0.217175787393016D+03 -.861091555263020D+02 0.130454187168800D+03 0.127534407357704D+03
 0.184840119345853D+03 0.903956552744769D+02 -.139689968971796D+03 -.805059488233368D+02
 0.385601053848405D+03 0.188679527445372D+03 -.334142580005866D+03 -.379070557946041D+02
 0.126006896827994D+03 0.428304867281368D+02 -.865613742528400D+02 -.912140273976317D+01
 0.536783269275035D+03 -.235796513921683D+03 0.429939736061702D+03 0.218376064510674D+03
0.402392806980D-04 0.000000000000D+00 0.000000000000D+00 0.603685697708D-09 0.000000000000D+00  7 1 -1 24 -13 13 -24 21 0 0.34276566D+00 0.10258710D-01 0.12599772D+06 0.12599772D+06 0.12599772D+06 0.11135780D+01  1  2  2  2  7  2       -1 0.605219822870D-03 0.100000000000D+01
-.221706971018D-05 0.000000000000D+00 -.154529433126D-06 0.603685697708D-09 0.000000000000D+00  7 1 -1 24 -13 13 -24 21 2 0.34276566D+00 0.10258710D-01 0.12599772D+06 0.12599772D+06 0.12599772D+06 0.11135780D+01  1  2  3  2  7  2       -1 -.413507669511D-04 0.100000000000D+01
0.247018167803D-05 0.000000000000D+00 0.000000000000D+00 0.603685697708D-09 0.000000000000D+00  7 1 -1 24 -13 13 -24 21 2 0.34276566D+00 0.10258710D-01 0.12599772D+06 0.12599772D+06 0.12599772D+06 0.11135780D+01  1  2 15  2  7  2       -1 0.460715810721D-04 0.100000000000D+01
  </mgrwgt>
  </event>
  <event>
  8     66 0.27727860E-05 0.36704259E+03 0.75467711E-02 0.89846209E-01
        1 -1    0    0  501    0 0.00000000E+00 0.00000000E+00 0.22770788E+04 0.22770788E+04 0.32000000E+00 0.0000E+00 0.9000E+01
       -1 -1    0    0    0  501 0.00000000E+00 0.00000000E+00 -.34402874E+03 0.34402889E+03 0.32000000E+00 0.0000E+00 0.9000E+01
       25  2    1    2    0    0 -.57769521E+03 0.28952596E+03 0.18261097E+04 0.19598489E+04 0.29795002E+03 0.0000E+00 0.0000E+00
       23  2    1    2    0    0 0.57769521E+03 -.28952596E+03 0.10694038E+03 0.66125878E+03 0.90938972E+02 0.0000E+00 0.0000E+00
       24  1    3    3    0    0 -.53408285E+03 0.29451880E+03 0.15037075E+04 0.16246812E+04 0.80419002E+02 0.0000E+00 0.9000E+01
      -11  1    4    4    0    0 0.30051041E+03 -.16943695E+03 0.14261643E+02 0.34528073E+03 0.51099893E-03 0.0000E+00 0.9000E+01
       11  1    4    4    0    0 0.27718480E+03 -.12008901E+03 0.92678735E+02 0.31597806E+03 0.51099893E-03 0.0000E+00 0.9000E+01
      -24  1    3    3    0    0 -.43612363E+02 -.49928412E+01 0.32240220E+03 0.33516766E+03 0.80419002E+02 0.0000E+00 0.9000E+01
#aMCatNLO 1  0  0  1  2 0.19264702D+03 0.00000000D+00  -5  7  0 0.00000000D+00 0.00000000D+00 0.00000000D+00 0.00000000D+00 0.00000000D+00
  <mgrwgt>
 0.1390012588D-02    9    2    0
 0.885088002155068D+03 0.000000000000000D+00 0.000000000000000D+00 0.885088002155068D+03
 0.885088002155068D+03 0.000000000000000D+00 0.000000000000000D+00 -.885088002155068D+03
 0.763609240496298D+03 -.534082849491307D+03 0.294518801220200D+03 0.452378206619224D+03
 0.495684892346851D+03 0.300510411613157D+03 -.169436948110609D+03 -.355932754362342D+03
 0.366664038276097D+03 0.277184800395533D+03 -.120089011941823D+03 -.207821395927993D+03
 0.144217833190890D+03 -.436123625173832D+02 -.499284116776839D+01 0.111375943671112D+03
 0.000000000000000D+00 0.000000000000000D+00 0.000000000000000D+00 0.000000000000000D+00
 0.107975636842569D+04 0.000000000000000D+00 0.000000000000000D+00 0.107975636842569D+04
 0.939290448218279D+03 0.000000000000000D+00 0.000000000000000D+00 -.939290448218279D+03
 0.786361270288765D+03 -.593366153930092D+03 0.234877408453803D+03 0.452378206619224D+03
 0.488633971155926D+03 0.262862163182728D+03 -.207312602864716D+03 -.355932754362342D+03
 0.356831965901714D+03 0.249512510130996D+03 -.147928450853621D+03 -.207821395927993D+03
 0.148800760272373D+03 -.548197437944042D+02 -.162679182734278D+02 0.111375943671112D+03
 0.238418849025187D+03 0.135811224410772D+03 0.136631563537962D+03 0.140465920207408D+03
0.104196044059D-02 0.000000000000D+00 0.000000000000D+00 0.171685255043D-05 0.000000000000D+00  7 1 -1 24 -11 11 -24 21 0 0.35031982D+00 0.52927512D-01 0.45824232D+06 0.45824232D+06 0.45824232D+06 0.10711975D+01  1  2  2  1  7  1        1 0.895986330328D-03 0.100000000000D+01
-.528274257594D-04 0.000000000000D+00 -.400140244636D-05 0.171685255043D-05 0.000000000000D+00  7 1 -1 24 -11 11 -24 21 2 0.35031982D+00 0.52927512D-01 0.45824232D+06 0.45824232D+06 0.45824232D+06 0.10711975D+01  1  2  3  1  7  1        1 -.521253182379D-04 0.100000000000D+01
0.633943387771D-04 0.000000000000D+00 0.000000000000D+00 0.171685255043D-05 0.000000000000D+00  7 1 -1 24 -11 11 -24 21 2 0.35031982D+00 0.52927512D-01 0.45824232D+06 0.45824232D+06 0.45824232D+06 0.10711975D+01  1  2 15  1  7  1        1 0.625517907742D-04 0.100000000000D+01
0.111695293076D-02 0.000000000000D+00 0.000000000000D+00 0.171685255043D-05 0.000000000000D+00  7 1 -1 24 -11 11 -24 21 2 0.43637376D+00 0.52927512D-01 0.60791385D+06 0.60791385D+06 0.60791385D+06 0.10625633D+01  1  2 12  1  7  1        1 0.429534395252D-03 0.100000000000D+01
-.118604349839D-02 0.000000000000D+00 0.000000000000D+00 0.171685255043D-05 0.000000000000D+00  7 1 -1 24 -11 11 -24 21 2 0.35031982D+00 0.52927512D-01 0.45824232D+06 0.45824232D+06 0.45824232D+06 0.10711975D+01  1  2  4  1  7  1        1 -.117028028356D-02 0.100000000000D+01
-.198227224726D-02 0.000000000000D+00 -.498377625109D-03 0.171685255043D-05 0.000000000000D+00  7 1 -1 24 -11 11 -24 21 2 0.43541588D+00 0.52927512D-01 0.45824232D+06 0.45824232D+06 0.45824232D+06 0.10711975D+01  1  2  5  1  7  1        1 -.799610560091D-03 0.100000000000D+01
0.205346022302D-02 0.000000000000D+00 0.486822087133D-03 0.171685255043D-05 0.000000000000D+00  7 1 -1 24 -11 11 -24 21 2 0.35031982D+00 0.52927512D-01 0.45824232D+06 0.45824232D+06 0.45824232D+06 0.10711975D+01  1  2  6  1  7  1        1 0.202616853036D-02 0.100000000000D+01
0.343246632112D-04 0.000000000000D+00 0.000000000000D+00 0.171685255043D-05 0.000000000000D+00  7 21 -1 24 -11 11 -24 -1 2 0.43637376D+00 0.52927512D-01 0.60791385D+06 0.60791385D+06 0.60791385D+06 0.10625633D+01  1  2 12  3  7  1        1 0.326716960638D-05 0.100000000000D+01
-.538356289044D-04 0.000000000000D+00 -.151997068170D-04 0.171685255043D-05 0.000000000000D+00  7 21 -1 24 -11 11 -24 -1 2 0.43541588D+00 0.52927512D-01 0.45824232D+06 0.45824232D+06 0.45824232D+06 0.10711975D+01  1  2  5  3  7  1        1 -.547946658459D-05 0.100000000000D+01
  </mgrwgt>
  </event>
  <event>
  9     66 -.27727860E-05 0.34860746E+03 0.75467711E-02 0.98177547E-01
        1 -1    0    0  502    0 0.00000000E+00 0.00000000E+00 0.16116056E+04 0.16116057E+04 0.32000000E+00 0.0000E+00 0.9000E+01
       -1 -1    0    0    0  501 0.00000000E+00 0.00000000E+00 -.31734964E+03 0.31734980E+03 0.32000000E+00 0.0000E+00 0.9000E+01
       25  2    1    2    0    0 -.10666212E+03 0.31331690E+03 -.12277509E+03 0.46326127E+03 0.29998832E+03 0.0000E+00 0.0000E+00
       23  2    1    2    0    0 0.68890664E+02 -.29536946E+03 0.13500874E+04 0.13867587E+04 0.91513223E+02 0.0000E+00 0.0000E+00
       24  1    3    3    0    0 -.44454183E+02 0.24157954E+03 -.19097503E+03 0.32136509E+03 0.80419002E+02 0.0000E+00 0.9000E+01
      -11  1    4    4    0    0 -.15482582E+02 -.13172489E+02 0.13262994E+03 0.13417871E+03 0.51099893E-03 0.0000E+00 0.9000E+01
       11  1    4    4    0    0 0.84373246E+02 -.28219697E+03 0.12174575E+04 0.12525800E+04 0.51099893E-03 0.0000E+00 0.9000E+01
      -24  1    3    3    0    0 -.62207934E+02 0.71737363E+02 0.68199937E+02 0.14189617E+03 0.80419002E+02 0.0000E+00 0.9000E+01
       21  1    1    2  502  501 0.37771453E+02 -.17947443E+02 0.66943676E+02 0.78935491E+02 0.75000000E+00 0.0000E+00 0.9000E+01
#aMCatNLO 2  0  0  1  2 0.41818577D+02 0.00000000D+00  -5  7  0 0.00000000D+00 0.00000000D+00 0.00000000D+00 0.00000000D+00 0.00000000D+00
  <mgrwgt>
 -.1737032514D-03    3    2    0
 0.691832639082082D+03 0.000000000000000D+00 0.000000000000000D+00 0.691832639082082D+03
 0.691832639082082D+03 0.000000000000000D+00 0.000000000000000D+00 -.691832639082082D+03
 0.594726939843285D+03 -.281673762369049D+02 0.233840715882438D+03 -.540146309375992D+03
 0.615080452690026D+02 -.138008600679687D+02 -.139715743121777D+02 0.582886867705676D+02
 0.600831073068391D+03 0.100685973889544D+03 -.289948106433862D+03 0.516517578211862D+03
 0.126599219983485D+03 -.587177375846699D+02 0.700789648636018D+02 -.346599556064368D+02
 0.000000000000000D+00 0.000000000000000D+00 -.000000000000000D+00 0.000000000000000D+00
 0.724956333849285D+03 0.000000000000000D+00 0.000000000000000D+00 0.724956333849285D+03
 0.705474588817737D+03 0.000000000000000D+00 0.000000000000000D+00 -.705474588817737D+03
 0.598800550076484D+03 -.444541829176634D+02 0.241579537432595D+03 -.540146309375992D+03
 0.617316435462806D+02 -.154825816907076D+02 -.131724892741762D+02 0.582886867705676D+02
 0.594595982186933D+03 0.843732458507445D+02 -.282196968119090D+03 0.516517578211862D+03
 0.129168900467766D+03 -.622079344742032D+02 0.717373630648232D+02 -.346599556064368D+02
 0.461338463895577D+02 0.377714532318298D+02 -.179474431041518D+02 0.194817450315477D+02
-.466755711945D-03 0.000000000000D+00 0.000000000000D+00 0.278703999200D-04 0.000000000000D+00  7 1 -1 24 -11 11 -24 21 2 0.25019043D+00 0.47878727D-01 0.13674593D+06 0.13674593D+06 0.13674593D+06 0.11107364D+01  1  2 13  1  7  1        1 -.172873362914D-02 0.100000000000D+01
-.140261984967D-03 0.000000000000D+00 0.000000000000D+00 0.278703999200D-04 0.000000000000D+00  7 1 -1 24 -11 11 -24 21 2 0.23660983D+00 0.47878727D-01 0.12152716D+06 0.12152716D+06 0.12152716D+06 0.11148391D+01  1  2  8  1  7  1        1 -.602082064943D-03 0.100000000000D+01
0.589909545561D-03 0.000000000000D+00 0.000000000000D+00 0.278703999200D-04 0.104998362449D-06  7 1 -1 24 -11 11 -24 21 2 0.24793828D+00 0.48822827D-01 0.13674593D+06 0.13674593D+06 0.13674593D+06 0.11107364D+01  1  2  1  1  7  1        1 0.215711244273D-02 0.100000000000D+01
  </mgrwgt>
  </event>
  <event>
  8     66 0.27727860E-05 0.23316221E+03 0.75467711E-02 0.97061424E-01
        1 -1    0    0  501    0 0.00000000E+00 0.00000000E+00 0.18230722E+04 0.18230723E+04 0.32000000E+00 0.0000E+00 0.9000E+01
       -1 -1    0    0    0  501 0.00000000E+00 0.00000000E+00 -.10112686E+03 0.10112736E+03 0.32000000E+00 0.0000E+00 0.9000E+01
       25  2    1    2    0    0 0.12206865E+03 -.31300508E+03 0.12989565E+04 0.13756686E+04 0.30381449E+03 0.0000E+00 0.0000E+00
       23  2    1    2    0    0 -.12206865E+03 0.31300508E+03 0.42298889E+03 0.54853101E+03 0.95361082E+02 0.0000E+00 0.0000E+00
       24  1    3    3    0    0 0.39968241E+02 -.30475867E+03 0.74604704E+03 0.81088143E+03 0.80419002E+02 0.0000E+00 0.9000E+01
      -11  1    4    4    0    0 -.26194148E+02 0.12509104E+02 0.66342620E+02 0.72415152E+02 0.51099893E-03 0.0000E+00 0.9000E+01
       11  1    4    4    0    0 -.95874503E+02 0.30049597E+03 0.35664627E+03 0.47611586E+03 0.51099893E-03 0.0000E+00 0.9000E+01
      -24  1    3    3    0    0 0.82100410E+02 -.82464091E+01 0.55290946E+03 0.56478719E+03 0.80419002E+02 0.0000E+00 0.9000E+01
#aMCatNLO 1  0  0  2  1 0.32875587D+02 0.00000000D+00  -5  7  0 0.00000000D+00 0.00000000D+00 0.00000000D+00 0.00000000D+00 0.00000000D+00
  <mgrwgt>
 0.8520148459D-03    6    2    0
 0.429374054304993D+03 0.000000000000000D+00 0.000000000000000D+00 0.429374054304993D+03
 0.429374054304993D+03 0.000000000000000D+00 0.000000000000000D+00 -.429374054304993D+03
 0.320985285987776D+03 0.399682411443259D+02 -.304758666548929D+03 0.457059375730445D+02
 0.292319026656290D+02 -.261941475532948D+02 0.125091044824711D+02 0.344863341856572D+01
 0.351694003635203D+03 -.958745032469544D+02 0.300495971179008D+03 -.155560030616134D+03
 0.156836916321377D+03 0.821004096559233D+02 -.824640911254993D+01 0.106405459624524D+03
 0.000000000000000D+00 0.000000000000000D+00 -.000000000000000D+00 0.000000000000000D+00
 0.447148207076300D+03 0.000000000000000D+00 0.000000000000000D+00 0.447148207076300D+03
 0.445164351406317D+03 0.000000000000000D+00 0.000000000000000D+00 -.445164351406317D+03
 0.311887399172759D+03 0.314067499157458D+02 -.296194390795430D+03 0.457059375730445D+02
 0.303009635209487D+02 -.269995071834696D+02 0.133147260464491D+02 0.344863341856572D+01
 0.362682390217395D+03 -.105538575300123D+03 0.310163186358617D+03 -.155560030616134D+03
 0.154506415887076D+03 0.778885622017969D+02 -.403319180428504D+01 0.106405459624524D+03
 0.329353896844389D+02 0.232427703660499D+02 -.232503298053510D+02 0.198385566998338D+01
0.353454694599D-04 0.000000000000D+00 0.000000000000D+00 0.801811558139D-08 0.000000000000D+00  7 1 -1 24 -11 11 -24 21 0 0.28047269D+00 0.15558019D-01 0.15108087D+06 0.15108087D+06 0.15108087D+06 0.11073059D+01  1  2  2  2  7  2       -1 0.510813279665D-03 0.100000000000D+01
-.193997985530D-05 0.000000000000D+00 -.135735909402D-06 0.801811558139D-08 0.000000000000D+00  7 1 -1 24 -11 11 -24 21 2 0.28047269D+00 0.15558019D-01 0.15108087D+06 0.15108087D+06 0.15108087D+06 0.11073059D+01  1  2  3  2  7  2       -1 -.343764385238D-04 0.100000000000D+01
0.223222880335D-05 0.000000000000D+00 0.000000000000D+00 0.801811558139D-08 0.000000000000D+00  7 1 -1 24 -11 11 -24 21 2 0.28047269D+00 0.15558019D-01 0.15108087D+06 0.15108087D+06 0.15108087D+06 0.11073059D+01  1  2 15  2  7  2       -1 0.395550892035D-04 0.100000000000D+01
0.632717867470D-04 0.000000000000D+00 0.000000000000D+00 0.801811558139D-08 0.000000000000D+00  7 1 -1 24 -11 11 -24 21 2 0.28047269D+00 0.16439896D-01 0.16449285D+06 0.16449285D+06 0.16449285D+06 0.11044047D+01  1  2 12  2  7  2       -1 0.101906292202D-02 0.100000000000D+01
-.462810275177D-04 0.000000000000D+00 0.000000000000D+00 0.801811558139D-08 0.000000000000D+00  7 1 -1 24 -11 11 -24 21 2 0.28047269D+00 0.15558019D-01 0.15108087D+06 0.15108087D+06 0.15108087D+06 0.11073059D+01  1  2  4  2  7  2       -1 -.820099699969D-03 0.100000000000D+01
0.679214102748D-06 0.000000000000D+00 0.000000000000D+00 0.801811558139D-08 0.000000000000D+00  7 1 21 24 -11 11 -24 1 2 0.28047269D+00 0.16439896D-01 0.16449285D+06 0.16449285D+06 0.16449285D+06 0.11044047D+01  1  2 12  4  7  2       -1 0.137059693502D-03 0.100000000000D+01
  </mgrwgt>
  </event>
  <event>
  8     66 0.27727860E-05 0.12295459E+03 0.75467711E-02 0.10660471E+00
        1 -1    0    0  501    0 0.00000000E+00 0.00000000E+00 0.18527870E+04 0.18527870E+04 0.32000000E+00 0.0000E+00 0.9000E+01
       -1 -1    0    0    0  501 0.00000000E+00 0.00000000E+00 -.55990942E+02 0.55991856E+02 0.32000000E+00 0.0000E+00 0.9000E+01
       25  2    1    2    0    0 0.27835389E+02 -.64624380E+02 0.38598256E+03 0.49358499E+03 0.29948704E+03 0.0000E+00 0.0000E+00
       23  2    1    2    0    0 -.27835389E+02 0.64624380E+02 0.14108135E+04 0.14151939E+04 0.86185271E+02 0.0000E+00 0.0000E+00
       24  1    3    3    0    0 0.18875640E+02 0.81722005E+02 0.25814722E+03 0.28309359E+03 0.80419002E+02 0.0000E+00 0.9000E+01
      -11  1    4    4    0    0 -.38239590E+02 0.27405374E+02 0.29639477E+03 0.30010528E+03 0.51099893E-03 0.0000E+00 0.9000E+01
       11  1    4    4    0    0 0.10404201E+02 0.37219006E+02 0.11144187E+04 0.11150886E+04 0.51099893E-03 0.0000E+00 0.9000E+01
      -24  1    3    3    0    0 0.89597495E+01 -.14634639E+03 0.12783534E+03 0.21049140E+03 0.80419002E+02 0.0000E+00 0.9000E+01
#aMCatNLO 1  0  0  2  1 0.23830271D+02 0.00000000D+00  -5  7  0 0.00000000D+00 0.00000000D+00 0.00000000D+00 0.00000000D+00 0.00000000D+00
  <mgrwgt>
 0.1167199188D-02    6    2    0
 0.322087238146803D+03 0.000000000000000D+00 0.000000000000000D+00 0.322087238146803D+03
 0.322087238146803D+03 0.000000000000000D+00 0.000000000000000D+00 -.322087238146803D+03
 0.118795694624770D+03 0.188756395929169D+02 0.817220053876579D+02 -.247067839345579D+02
 0.625198189053390D+02 -.382395899079615D+02 0.274053741974040D+02 0.411753200925939D+02
 0.195714696605623D+03 0.104042008450844D+02 0.372190058457814D+02 0.191861253712306D+03
 0.267144266157874D+03 0.895974946996016D+01 -.146346385430843D+03 -.208329789870343D+03
 0.000000000000000D+00 -.000000000000000D+00 0.000000000000000D+00 0.000000000000000D+00
 0.336372906394382D+03 0.000000000000000D+00 0.000000000000000D+00 0.336372906394382D+03
 0.332401183121648D+03 0.000000000000000D+00 0.000000000000000D+00 -.332401183121648D+03
 0.116916519614810D+03 0.215474766821096D+02 0.782785901809344D+02 -.247067839345579D+02
 0.608944036044123D+02 -.368406692024766D+02 0.256024705511632D+02 0.411753200925939D+02
 0.194996714026849D+03 0.148329795635160D+02 0.315112761163208D+02 0.191861253712306D+03
 0.271807470939662D+03 0.150688569046661D+02 -.154219692349616D+03 -.208329789870343D+03
 0.241589813302979D+02 -.146086439478151D+02 0.188273555011975D+02 0.397172327273382D+01
0.171535839536D-04 0.000000000000D+00 0.000000000000D+00 0.110212010732D-06 0.000000000000D+00  7 1 -1 24 -11 11 -24 21 0 0.28504423D+00 0.86140635D-02 0.34061753D+05 0.34061753D+05 0.34061753D+05 0.11622537D+01  1  2  2  2  7  2       -1 0.614450235128D-03 0.100000000000D+01
-.593681553882D-06 0.000000000000D+00 -.658742790243D-07 0.110212010732D-06 0.000000000000D+00  7 1 -1 24 -11 11 -24 21 2 0.28504423D+00 0.86140635D-02 0.34061753D+05 0.34061753D+05 0.34061753D+05 0.11622537D+01  1  2  3  2  7  2       -1 -.287268026806D-04 0.100000000000D+01
0.102726133109D-05 0.000000000000D+00 0.000000000000D+00 0.110212010732D-06 0.000000000000D+00  7 1 -1 24 -11 11 -24 21 2 0.28504423D+00 0.86140635D-02 0.34061753D+05 0.34061753D+05 0.34061753D+05 0.11622537D+01  1  2 15  2  7  2       -1 0.497066708012D-04 0.100000000000D+01
0.283941144372D-04 0.000000000000D+00 0.000000000000D+00 0.110212010732D-06 0.000000000000D+00  7 1 -1 24 -11 11 -24 21 2 0.28504423D+00 0.90738710D-02 0.38489957D+05 0.38489957D+05 0.38489957D+05 0.11574257D+01  1  2 12  2  7  2       -1 0.125630268507D-02 0.100000000000D+01
-.188841264254D-04 0.000000000000D+00 0.000000000000D+00 0.110212010732D-06 0.000000000000D+00  7 1 -1 24 -11 11 -24 21 2 0.28504423D+00 0.86140635D-02 0.34061753D+05 0.34061753D+05 0.34061753D+05 0.11622537D+01  1  2  4  2  7  2       -1 -.913756828169D-03 0.100000000000D+01
0.294594756810D-06 0.000000000000D+00 0.000000000000D+00 0.110212010732D-06 0.000000000000D+00  7 1 21 24 -11 11 -24 1 2 0.28504423D+00 0.90738710D-02 0.38489957D+05 0.38489957D+05 0.38489957D+05 0.11574257D+01  1  2 12  4  7  2       -1 0.189223227549D-03 0.100000000000D+01
  </mgrwgt>
  </event>
  <event>
  8     66 0.27727860E-05 0.18919012E+03 0.75467711E-02 0.10164927E+00
        1 -1    0    0  501    0 0.00000000E+00 0.00000000E+00 0.16717739E+04 0.16717739E+04 0.32000000E+00 0.0000E+00 0.9000E+01
       -1 -1    0    0    0  501 0.00000000E+00 0.00000000E+00 -.28257059E+02 0.28258870E+02 0.32000000E+00 0.0000E+00 0.9000E+01
       25  2    1    2    0    0 0.45671690E+02 0.53312414E+02 0.13513898E+04 0.13860814E+04 0.30006545E+03 0.0000E+00 0.0000E+00
       23  2    1    2    0    0 -.45671690E+02 -.53312414E+02 0.29212702E+03 0.31395133E+03 0.91099536E+02 0.0000E+00 0.0000E+00
       24  1    3    3    0    0 -.96258314E+02 -.13608843E+02 0.43708983E+03 0.45493472E+03 0.80419002E+02 0.0000E+00 0.9000E+01
      -13  1    4    4    0    0 -.32867856E+02 -.16223996E+02 0.26181910E+03 0.26437241E+03 0.10565837E+00 0.0000E+00 0.9000E+01
       13  1    4    4    0    0 -.12803834E+02 -.37088417E+02 0.30307913E+02 0.49578923E+02 0.10565837E+00 0.0000E+00 0.9000E+01
      -24  1    3    3    0    0 0.14193000E+03 0.66921257E+02 0.91429995E+03 0.93114671E+03 0.80419002E+02 0.0000E+00 0.9000E+01
#aMCatNLO 1  0  0  2  2 0.14926139D+03 0.00000000D+00  -5  7  0 0.00000000D+00 0.00000000D+00 0.00000000D+00 0.00000000D+00 0.00000000D+00
  <mgrwgt>
 0.1188444717D-02    3    2    0
 0.217349898024019D+03 0.000000000000000D+00 0.000000000000000D+00 0.217349898024019D+03
 0.217349898024019D+03 0.000000000000000D+00 0.000000000000000D+00 -.217349898024019D+03
 0.126614833940888D+03 -.962583005669414D+02 -.136088276844857D+02 -.106414097057890D+02
 0.440249188392013D+02 -.328678805753000D+02 -.162239843847942D+02 0.243860254237551D+02
 0.793058841652570D+02 -.128038418475493D+02 -.370884674409527D+02 -.689197394079338D+02
 0.184754159102692D+03 0.141930022989791D+03 0.669212795102326D+02 0.551751236899677D+02
 0.000000000000000D+00 0.000000000000000D+00 0.000000000000000D+00 0.000000000000000D+00
 0.524931964071488D+03 0.000000000000000D+00 0.000000000000000D+00 0.524931964071488D+03
 0.248678233942869D+03 0.000000000000000D+00 0.000000000000000D+00 -.248678233942869D+03
 0.164047085858902D+03 -.136778017389748D+03 -.402835547442233D+02 -.106414097057890D+02
 0.590375355725002D+02 -.472352991580371D+02 -.256822678896731D+02 0.243860254237551D+02
 0.945253411388167D+02 -.370367789627181D+02 -.530413672657382D+02 -.689197394079338D+02
 0.142001692996947D+03 0.963786325414237D+02 0.369341275092634D+02 0.551751236899677D+02
 0.313998542447191D+03 0.124671462969079D+03 0.820730623903712D+02 0.276253730128619D+03
0.909394573291D-05 0.000000000000D+00 0.000000000000D+00 0.703352402078D-06 0.000000000000D+00  7 1 -1 24 -13 13 -24 21 0 0.25719612D+00 0.43473815D-02 0.35792901D+05 0.35792901D+05 0.35792901D+05 0.11602880D+01  1  2  2  2  7  2       -1 0.117230632462D-02 0.100000000000D+01
-.493392461429D-06 0.000000000000D+00 -.349231461053D-07 0.703352402078D-06 0.000000000000D+00  7 1 -1 24 -13 13 -24 21 2 0.25719612D+00 0.43473815D-02 0.35792901D+05 0.35792901D+05 0.35792901D+05 0.11602880D+01  1  2  3  2  7  2       -1 -.856274168993D-04 0.100000000000D+01
0.586383249002D-06 0.000000000000D+00 0.000000000000D+00 0.703352402078D-06 0.000000000000D+00  7 1 -1 24 -13 13 -24 21 2 0.25719612D+00 0.43473815D-02 0.35792901D+05 0.35792901D+05 0.35792901D+05 0.11602880D+01  1  2 15  2  7  2       -1 0.101765808865D-03 0.100000000000D+01
  </mgrwgt>
  </event>
  <event>
  8     66 0.27727860E-05 0.36367634E+03 0.75467711E-02 0.88080494E-01
        1 -1    0    0  501    0 0.00000000E+00 0.00000000E+00 0.61585778E+03 0.61585786E+03 0.32000000E+00 0.0000E+00 0.9000E+01
       -1 -1    0    0    0  501 0.00000000E+00 0.00000000E+00 -.27420425E+03 0.27420443E+03 0.32000000E+00 0.0000E+00 0.9000E+01
       25  2    1    2    0    0 -.26421134E+03 -.13823629E+03 -.32562095E+01 0.42488978E+03 0.30266122E+03 0.0000E+00 0.0000E+00
       23  2    1    2    0    0 0.26421134E+03 0.13823629E+03 0.34490974E+03 0.46517252E+03 0.92227103E+02 0.0000E+00 0.0000E+00
       24  1    3    3    0    0 -.15944292E+03 0.50979888E+02 -.43295218E+02 0.19069002E+03 0.80419002E+02 0.0000E+00 0.9000E+01
      -13  1    4    4    0    0 0.26222085E+03 0.11292761E+03 0.30417899E+03 0.41717776E+03 0.10565837E+00 0.0000E+00 0.9000E+01
       13  1    4    4    0    0 0.19904968E+01 0.25308683E+02 0.40730752E+02 0.47994759E+02 0.10565837E+00 0.0000E+00 0.9000E+01
      -24  1    3    3    0    0 -.10476842E+03 -.18921618E+03 0.40039008E+02 0.23419975E+03 0.80419002E+02 0.0000E+00 0.9000E+01
#aMCatNLO 1  0  0  1  1 0.80146536D+03 0.00000000D+00  -5  7  0 0.00000000D+00 0.00000000D+00 0.00000000D+00 0.00000000D+00 0.00000000D+00
  <mgrwgt>
 0.1095001323D-02    3    2    0
 0.410939094054277D+03 0.000000000000000D+00 0.000000000000000D+00 0.410939094054277D+03
 0.410939094054277D+03 0.000000000000000D+00 0.000000000000000D+00 -.410939094054277D+03
 0.224507678326080D+03 -.159442918028243D+03 0.509798883317838D+02 -.126156603272734D+03
 0.325341015460769D+03 0.262221186695047D+03 0.112927725388866D+03 0.155994084592278D+03
 0.350443738863775D+02 0.199015558171411D+01 0.253085681097908D+02 0.241583071029589D+02
 0.236985120435326D+03 -.104768424248518D+03 -.189216181830441D+03 -.539957884225025D+02
 0.000000000000000D+00 -.000000000000000D+00 0.000000000000000D+00 -.000000000000000D+00
 0.686655199086874D+03 0.000000000000000D+00 0.000000000000000D+00 0.686655199086874D+03
 0.199925211705452D+04 0.000000000000000D+00 0.000000000000000D+00 -.199925211705452D+04
 0.198844914530014D+03 -.814346199883149D+02 -.102591413861602D+03 -.126156603272734D+03
 0.472047595146970D+03 0.409150553467761D+03 -.176325274005968D+03 0.155994084592278D+03
 0.278236307322730D+02 0.135744144813267D+02 0.250317728780092D+01 0.241583071029589D+02
 0.449251840628789D+03 0.216797853243963D+02 -.438148881197824D+03 -.539957884225025D+02
 0.153793933510335D+04 -.362970133285169D+03 0.714562391777593D+03 -.131259691796764D+04
0.496657291761D-04 0.000000000000D+00 0.000000000000D+00 0.985505499409D-07 0.000000000000D+00  7 1 -1 24 -13 13 -24 21 0 0.94747371D-01 0.42185290D-01 0.13226048D+06 0.13226048D+06 0.13226048D+06 0.11118914D+01  1  2  2  1  7  1        1 0.108834628073D-02 0.100000000000D+01
-.270912639150D-05 0.000000000000D+00 -.190729477323D-06 0.985505499409D-07 0.000000000000D+00  7 1 -1 24 -13 13 -24 21 2 0.94747371D-01 0.42185290D-01 0.13226048D+06 0.13226048D+06 0.13226048D+06 0.11118914D+01  1  2  3  1  7  1        1 -.733946365203D-04 0.100000000000D+01
0.295477582078D-05 0.000000000000D+00 0.000000000000D+00 0.985505499409D-07 0.000000000000D+00  7 1 -1 24 -13 13 -24 21 2 0.94747371D-01 0.42185290D-01 0.13226048D+06 0.13226048D+06 0.13226048D+06 0.11118914D+01  1  2 15  1  7  1        1 0.800496787620D-04 0.100000000000D+01
  </mgrwgt>
  </event>
  <event>
  8     66 0.27727860E-05 0.19126799E+03 0.75467711E-02 0.96294612E-01
        1 -1    0    0  501    0 0.00000000E+00 0.00000000E+00 0.50752527E+03 0.50752537E+03 0.32000000E+00 0.0000E+00 0.9000E+01
       -1 -1    0    0    0  501 0.00000000E+00 0.00000000E+00 -.46720731E+03 0.46720742E+03 0.32000000E+00 0.0000E+00 0.9000E+01
       25  2    1    2    0    0 -.35813401E+03 -.47456953E+02 0.26513905E+03 0.53935061E+03 0.30014702E+03 0.0000E+00 0.0000E+00
       23  2    1    2    0    0 0.35813401E+03 0.47456953E+02 -.22482108E+03 0.43538218E+03 0.92200818E+02 0.0000E+00 0.0000E+00
       24  1    3    3    0    0 -.14187897E+03 0.62561749E+02 0.21813521E+03 0.27945268E+03 0.80419002E+02 0.0000E+00 0.9000E+01
      -13  1    4    4    0    0 0.32379933E+02 -.13082130E+02 0.93950049E-01 0.34923089E+02 0.10565837E+00 0.0000E+00 0.9000E+01
       13  1    4    4    0    0 0.32575408E+03 0.60539083E+02 -.22491503E+03 0.40045909E+03 0.10565837E+00 0.0000E+00 0.9000E+01
      -24  1    3    3    0    0 -.21625504E+03 -.11001870E+03 0.47003840E+02 0.25989793E+03 0.80419002E+02 0.0000E+00 0.9000E+01
#aMCatNLO 1  0  0  1  2 0.66951901D+02 0.00000000D+00  -5  7  0 0.00000000D+00 0.00000000D+00 0.00000000D+00 0.00000000D+00 0.00000000D+00
  <mgrwgt>
 0.6314224020D-03    9    2    0
 0.486949298425426D+03 0.000000000000000D+00 0.000000000000000D+00 0.486949298425426D+03
 0.486949298425426D+03 0.000000000000000D+00 0.000000000000000D+00 -.486949298425426D+03
 0.270661569297811D+03 -.141878974426677D+03 0.625617493347505D+02 0.206753121563360D+03
 0.349486206258171D+02 0.323795476668187D+02 -.130822263063326D+02 -.135141829549845D+01
 0.410113749853462D+03 0.325754467209742D+03 0.605391792528003D+02 -.241686413948246D+03
 0.258174657073761D+03 -.216255040449884D+03 -.110018702281218D+03 0.362847106803844D+02
 0.000000000000000D+00 0.000000000000000D+00 0.000000000000000D+00 0.000000000000000D+00
 0.582778710938344D+03 0.000000000000000D+00 0.000000000000000D+00 0.582778710938344D+03
 0.499934675184367D+03 0.000000000000000D+00 0.000000000000000D+00 -.499934675184367D+03
 0.280480217144507D+03 -.160669666678050D+03 0.603352400213196D+02 0.206753121563360D+03
 0.329264222346197D+02 0.300654080510000D+02 -.133564287326334D+02 -.135141829549845D+01
 0.388353170543016D+03 0.298531443038552D+03 0.573135228455714D+02 -.241686413948246D+03
 0.274437421160108D+03 -.234413978671681D+03 -.112170355053345D+03 0.362847106803844D+02
 0.106516155040460D+03 0.664867942601792D+02 0.787802091908724D+01 0.828440357539777D+02
0.430008520765D-04 0.000000000000D+00 0.000000000000D+00 0.421580922736D-05 0.000000000000D+00  7 1 -1 24 -13 13 -24 21 0 0.78080827D-01 0.71878064D-01 0.15861909D+06 0.15861909D+06 0.15861909D+06 0.11056422D+01  1  2  2  1  7  1        1 0.461823256496D-03 0.100000000000D+01
-.227155306818D-05 0.000000000000D+00 -.165134594358D-06 0.421580922736D-05 0.000000000000D+00  7 1 -1 24 -13 13 -24 21 2 0.78080827D-01 0.71878064D-01 0.15861909D+06 0.15861909D+06 0.15861909D+06 0.11056422D+01  1  2  3  1  7  1        1 -.298229655492D-04 0.100000000000D+01
0.264634435947D-05 0.000000000000D+00 0.000000000000D+00 0.421580922736D-05 0.000000000000D+00  7 1 -1 24 -13 13 -24 21 2 0.78080827D-01 0.71878064D-01 0.15861909D+06 0.15861909D+06 0.15861909D+06 0.11056422D+01  1  2 15  1  7  1        1 0.347435583915D-04 0.100000000000D+01
0.131418432347D-03 0.000000000000D+00 0.000000000000D+00 0.421580922736D-05 0.000000000000D+00  7 1 -1 24 -13 13 -24 21 2 0.94348919D-01 0.71878064D-01 0.18722663D+06 0.18722663D+06 0.18722663D+06 0.11000335D+01  1  2 12  1  7  1        1 0.129777433337D-02 0.100000000000D+01
-.133810498429D-03 0.000000000000D+00 0.000000000000D+00 0.421580922736D-05 0.000000000000D+00  7 1 -1 24 -13 13 -24 21 2 0.78080827D-01 0.71878064D-01 0.15861909D+06 0.15861909D+06 0.15861909D+06 0.11056422D+01  1  2  4  1  7  1        1 -.175678303124D-02 0.100000000000D+01
-.194254022565D-03 0.000000000000D+00 -.319642239573D-04 0.421580922736D-05 0.000000000000D+00  7 1 -1 24 -13 13 -24 21 2 0.94949384D-01 0.71878064D-01 0.15861909D+06 0.15861909D+06 0.15861909D+06 0.11056422D+01  1  2  5  1  7  1        1 -.193072844144D-02 0.100000000000D+01
0.197321347979D-03 0.000000000000D+00 0.313623604387D-04 0.421580922736D-05 0.000000000000D+00  7 1 -1 24 -13 13 -24 21 2 0.78080827D-01 0.71878064D-01 0.15861909D+06 0.15861909D+06 0.15861909D+06 0.11056422D+01  1  2  6  1  7  1        1 0.259060985425D-02 0.100000000000D+01
0.360402502519D-05 0.000000000000D+00 0.000000000000D+00 0.421580922736D-05 0.000000000000D+00  7 21 -1 24 -13 13 -24 -1 2 0.94348919D-01 0.71878064D-01 0.18722663D+06 0.18722663D+06 0.18722663D+06 0.11000335D+01  1  2 12  3  7  1        1 0.849710952757D-04 0.100000000000D+01
-.511041130731D-05 0.000000000000D+00 -.899205831494D-06 0.421580922736D-05 0.000000000000D+00  7 21 -1 24 -13 13 -24 -1 2 0.94949384D-01 0.71878064D-01 0.15861909D+06 0.15861909D+06 0.15861909D+06 0.11056422D+01  1  2  5  3  7  1        1 -.121165257572D-03 0.100000000000D+01
  </mgrwgt>
  </event>
  <event>
  8     66 0.27727860E-05 0.43219623E+03 0.75467711E-02 0.96217348E-01
        1 -1    0    0  501    0 0.00000000E+00 0.00000000E+00 0.20369829E+04 0.20369829E+04 0.32000000E+00 0.0000E+00 0.9000E+01
       -1 -1    0    0    0  501 0.00000000E+00 0.00000000E+00 -.10882099E+03 0.10882146E+03 0.32000000E+00 0.0000E+00 0.9000E+01
       25  2    1    2    0    0 0.99187001E+02 0.39488483E+03 0.12609241E+04 0.13589148E+04 0.30157525E+03 0.0000E+00 0.0000E+00
       23  2    1    2    0    0 -.99187001E+02 -.39488483E+03 0.66723775E+03 0.78688956E+03 0.90647009E+02 0.0000E+00 0.0000E+00
       24  1    3    3    0    0 -.22002062E+02 0.15981494E+03 0.23365993E+03 0.29510860E+03 0.80419002E+02 0.0000E+00 0.9000E+01
      -11  1    4    4    0    0 -.65995295E+02 -.30042020E+03 0.42371018E+03 0.52358189E+03 0.51099893E-03 0.0000E+00 0.9000E+01
       11  1    4    4    0    0 -.33191705E+02 -.94464631E+02 0.24352756E+03 0.26330767E+03 0.51099893E-03 0.0000E+00 0.9000E+01
      -24  1    3    3    0    0 0.12118906E+03 0.23506989E+03 0.10272642E+04 0.10638062E+04 0.80419002E+02 0.0000E+00 0.9000E+01
#aMCatNLO 1  0  0  1  1 0.69316170D+01 0.00000000D+00  -5  7  0 0.00000000D+00 0.00000000D+00 0.00000000D+00 0.00000000D+00 0.00000000D+00
  <mgrwgt>
 0.4359206952D-03    6    2    0
 0.470815265436415D+03 0.000000000000000D+00 0.000000000000000D+00 0.470815265436415D+03
 0.470815265436415D+03 0.000000000000000D+00 0.000000000000000D+00 -.470815265436415D+03
 0.194036980480790D+03 -.220020615715860D+02 0.159814942390358D+03 -.718208000171163D+02
 0.325523080643889D+03 -.659952951556694D+02 -.300420200966837D+03 -.106572040893703D+03
 0.101362666654431D+03 -.331917053496702D+02 -.944646306874855D+02 0.157839930421602D+02
 0.320707803093720D+03 0.121189062076926D+03 0.235069889263964D+03 0.162608847868659D+03
 0.000000000000000D+00 0.000000000000000D+00 0.000000000000000D+00 -.000000000000000D+00
 0.472070160477052D+03 0.000000000000000D+00 0.000000000000000D+00 0.472070160477052D+03
 0.480498300519639D+03 0.000000000000000D+00 0.000000000000000D+00 -.480498300519639D+03
 0.193220711603442D+03 -.228872024441680D+02 0.158697750731858D+03 -.718208000171163D+02
 0.327566965998723D+03 -.674880394073035D+02 -.302304286854020D+03 -.106572040893703D+03
 0.102062190658926D+03 -.336566661739165D+02 -.950514868258336D+02 0.157839930421602D+02
 0.318806175093418D+03 0.119727348152964D+03 0.233224968694201D+03 0.162608847868659D+03
 0.109124176421824D+02 0.430455987242442D+01 0.543305425379439D+01 -.842814004258677D+01
0.534733112139D-04 0.000000000000D+00 0.000000000000D+00 0.698483847835D-06 0.000000000000D+00  7 1 -1 24 -11 11 -24 21 0 0.31338202D+00 0.16741728D-01 0.18679359D+06 0.18679359D+06 0.18679359D+06 0.11001113D+01  1  2  2  1  7  1        1 0.493295552534D-03 0.100000000000D+01
-.294428180432D-05 0.000000000000D+00 -.205351594908D-06 0.698483847835D-06 0.000000000000D+00  7 1 -1 24 -11 11 -24 21 2 0.31338202D+00 0.16741728D-01 0.18679359D+06 0.18679359D+06 0.18679359D+06 0.11001113D+01  1  2  3  1  7  1        1 -.328717418110D-04 0.100000000000D+01
0.338882726305D-05 0.000000000000D+00 0.000000000000D+00 0.698483847835D-06 0.000000000000D+00  7 1 -1 24 -11 11 -24 21 2 0.31338202D+00 0.16741728D-01 0.18679359D+06 0.18679359D+06 0.18679359D+06 0.11001113D+01  1  2 15  1  7  1        1 0.378349160293D-04 0.100000000000D+01
-.899550050448D-05 0.000000000000D+00 0.000000000000D+00 0.698483847835D-06 0.000000000000D+00  7 1 -1 24 -11 11 -24 21 2 0.31338202D+00 0.16741728D-01 0.18679359D+06 0.18679359D+06 0.18679359D+06 0.11001113D+01  1  2  4  1  7  1        1 -.100431205196D-03 0.100000000000D+01
0.353981858178D-05 0.000000000000D+00 0.000000000000D+00 0.698483847835D-06 0.937618900000D-07  7 1 -1 24 -11 11 -24 21 2 0.31421729D+00 0.17086047D-01 0.18970684D+06 0.18970684D+06 0.18970684D+06 0.10995921D+01  1  2 11  1  7  1        1 0.378833924029D-04 0.100000000000D+01
0.393177890964D-07 0.000000000000D+00 0.000000000000D+00 0.698483847835D-06 0.470109109527D-10  7 21 -1 24 -11 11 -24 -1 2 0.31421729D+00 0.17086047D-01 0.18970684D+06 0.18970684D+06 0.18970684D+06 0.10995921D+01  1  2 11  3  7  1        1 0.209781246269D-06 0.100000000000D+01
  </mgrwgt>
  </event>
  <event>
  8     66 0.27727860E-05 0.19647492E+03 0.75467711E-02 0.10278994E+00
        1 -1    0    0  501    0 0.00000000E+00 0.00000000E+00 0.11635611E+04 0.11635612E+04 0.32000000E+00 0.0000E+00 0.9000E+01
       -1 -1    0    0    0  501 0.00000000E+00 0.00000000E+00 -.21450633E+03 0.21450657E+03 0.32000000E+00 0.0000E+00 0.9000E+01
       25  2    1    2    0    0 -.49956889E+02 -.72764104E+02 0.11221002E+04 0.11648157E+04 0.29982759E+03 0.0000E+00 0.0000E+00
       23  2    1    2    0    0 0.49956889E+02 0.72764104E+02 -.17304537E+03 0.21325202E+03 0.87985323E+02 0.0000E+00 0.0000E+00
       24  1    3    3    0    0 -.38870809E+02 -.14435723E+03 0.92024763E+03 0.93577394E+03 0.80419002E+02 0.0000E+00 0.9000E+01
      -13  1    4    4    0    0 0.24298577E+02 0.83631256E+02 -.88212363E+02 0.12395983E+03 0.10565837E+00 0.0000E+00 0.9000E+01
       13  1    4    4    0    0 0.25658311E+02 -.10867152E+02 -.84833010E+02 0.89292187E+02 0.10565837E+00 0.0000E+00 0.9000E+01
      -24  1    3    3    0    0 -.11086080E+02 0.71593127E+02 0.20185255E+03 0.22904180E+03 0.80419002E+02 0.0000E+00 0.9000E+01
#aMCatNLO 1  0  0  2  1 0.12019607D+03 0.00000000D+00  -5  7  0 0.00000000D+00 0.00000000D+00 0.00000000D+00 0.00000000D+00 0.00000000D+00
  <mgrwgt>
 0.9673591825D-03    3    2    0
 0.499591261604651D+03 0.000000000000000D+00 0.000000000000000D+00 0.499591261604651D+03
 0.499591261604651D+03 0.000000000000000D+00 0.000000000000000D+00 -.499591261604651D+03
 0.416534964847446D+03 -.388708088050539D+02 -.144357230773981D+03 0.380373778186931D+03
 0.254751741434806D+03 0.242985755040351D+02 0.836313922001163D+02 -.239403047664835D+03
 0.203728330473234D+03 0.256583131592924D+02 -.108672879686838D+02 -.201813740006563D+03
 0.124167486453817D+03 -.110860798582736D+02 0.715931265425490D+02 0.608430094844670D+02
 0.000000000000000D+00 0.000000000000000D+00 0.000000000000000D+00 0.000000000000000D+00
 0.116035965721060D+04 0.000000000000000D+00 0.000000000000000D+00 0.116035965721060D+04
 0.508688985011945D+03 0.000000000000000D+00 0.000000000000000D+00 -.508688985011945D+03
 0.426027523754088D+03 -.890823086279699D+02 -.149707602341965D+03 0.380373778186931D+03
 0.252615849049834D+03 -.593738684227914D+01 0.804095479246240D+02 -.239403047664835D+03
 0.202266424472586D+03 0.146354322608254D+01 -.134454027352432D+02 -.201813740006563D+03
 0.125476216529090D+03 -.259632965842681D+02 0.700078594690257D+02 0.608430094844670D+02
 0.662662628416949D+03 0.119519448828435D+03 0.127355976835587D+02 0.651670672198657D+03
0.728000553694D-04 0.000000000000D+00 0.000000000000D+00 0.926986710625D-06 0.000000000000D+00  7 1 -1 24 -13 13 -24 21 0 0.17900943D+00 0.33000996D-01 0.38602393D+05 0.38602393D+05 0.38602393D+05 0.11573113D+01  1  2  2  2  7  2       -1 0.893968974418D-03 0.100000000000D+01
0.238490974837D-06 0.000000000000D+00 -.279571381313D-06 0.926986710625D-06 0.000000000000D+00  7 1 -1 24 -13 13 -24 21 2 0.17900943D+00 0.33000996D-01 0.38602393D+05 0.38602393D+05 0.38602393D+05 0.11573113D+01  1  2  3  2  7  2       -1 0.392250086006D-05 0.100000000000D+01
0.422368835497D-05 0.000000000000D+00 0.000000000000D+00 0.926986710625D-06 0.000000000000D+00  7 1 -1 24 -13 13 -24 21 2 0.17900943D+00 0.33000996D-01 0.38602393D+05 0.38602393D+05 0.38602393D+05 0.11573113D+01  1  2 15  2  7  2       -1 0.694677071798D-04 0.100000000000D+01
  </mgrwgt>
  </event>
  <event>
  8     66 0.27727860E-05 0.30135810E+03 0.75467711E-02 0.91709120E-01
        1 -1    0    0  501    0 0.00000000E+00 0.00000000E+00 0.28350194E+03 0.28350212E+03 0.32000000E+00 0.0000E+00 0.9000E+01
       -1 -1    0    0    0  501 0.00000000E+00 0.00000000E+00 -.43957310E+03 0.43957322E+03 0.32000000E+00 0.0000E+00 0.9000E+01
       25  2    1    2    0    0 0.21112043E+03 -.12162749E+03 -.23267990E+03 0.45172741E+03 0.30091965E+03 0.0000E+00 0.0000E+00
       23  2    1    2    0    0 -.21112043E+03 0.12162749E+03 0.76608741E+02 0.27134792E+03 0.91628113E+02 0.0000E+00 0.0000E+00
       24  1    3    3    0    0 0.18079738E+03 0.11720329E+01 -.22782281E+03 0.30176069E+03 0.80419002E+02 0.0000E+00 0.9000E+01
      -11  1    4    4    0    0 -.14306135E+03 0.39755609E+02 0.71392103E+02 0.16475403E+03 0.51099893E-03 0.0000E+00 0.9000E+01
       11  1    4    4    0    0 -.68059082E+02 0.81871885E+02 0.52166383E+01 0.10659389E+03 0.51099893E-03 0.0000E+00 0.9000E+01
      -24  1    3    3    0    0 0.30323053E+02 -.12279953E+03 -.48570935E+01 0.14996672E+03 0.80419002E+02 0.0000E+00 0.9000E+01
#aMCatNLO 1  0  0  2  1 0.51935541D+03 0.00000000D+00  -5  7  0 0.00000000D+00 0.00000000D+00 0.00000000D+00 0.00000000D+00 0.00000000D+00
  <mgrwgt>
 0.3656441115D-03    5    2    0
 0.353015486478477D+03 0.000000000000000D+00 0.000000000000000D+00 0.353015486478477D+03
 0.353015486478477D+03 0.000000000000000D+00 0.000000000000000D+00 -.353015486478477D+03
 0.258684319980627D+03 0.180797379199069D+03 0.117203285541093D+01 -.166617212385764D+03
 0.184512903888713D+03 -.143061350688100D+03 0.397556090868867D+02 0.109535168721615D+03
 0.110320343866132D+03 -.680590815969937D+02 0.818718847092087D+02 0.289056080558332D+02
 0.152513405221482D+03 0.303230530860246D+02 -.122799526651506D+03 0.281764356083162D+02
 0.000000000000000D+00 -.000000000000000D+00 -.000000000000000D+00 -.000000000000000D+00
 0.535842342408963D+03 0.000000000000000D+00 0.000000000000000D+00 0.535842342408963D+03
 0.112911322789477D+04 0.000000000000000D+00 0.000000000000000D+00 -.112911322789477D+04
 0.447228878330763D+03 0.399962478224595D+03 0.762572895391578D+02 -.166617212385764D+03
 0.138979536586250D+03 -.426265480518835D+02 0.741642488267543D+02 0.109535168721615D+03
 0.109110399765669D+03 0.676523588923317D-01 0.105211884229421D+03 0.289056080558332D+02
 0.181156958710607D+03 0.133917798910286D+03 -.873083005580843D+02 0.281764356083162D+02
 0.788479796910448D+03 -.491321381441890D+03 -.168325122037249D+03 -.593270885485812D+03
0.134900485556D-04 0.000000000000D+00 0.000000000000D+00 0.390009126736D-06 0.000000000000D+00  7 1 -1 24 -11 11 -24 21 0 0.43615706D-01 0.67626654D-01 0.90816703D+05 0.90816703D+05 0.90816703D+05 0.11251713D+01  1  2  2  2  7  2       -1 0.360559661750D-03 0.100000000000D+01
-.726638204222D-06 0.000000000000D+00 -.518053384648D-07 0.390009126736D-06 0.000000000000D+00  7 1 -1 24 -11 11 -24 21 2 0.43615706D-01 0.67626654D-01 0.90816703D+05 0.90816703D+05 0.90816703D+05 0.11251713D+01  1  2  3  2  7  2       -1 -.245877692667D-04 0.100000000000D+01
0.836286838026D-06 0.000000000000D+00 0.000000000000D+00 0.390009126736D-06 0.000000000000D+00  7 1 -1 24 -11 11 -24 21 2 0.43615706D-01 0.67626654D-01 0.90816703D+05 0.90816703D+05 0.90816703D+05 0.11251713D+01  1  2 15  2  7  2       -1 0.282980274016D-04 0.100000000000D+01
0.845198588280D-06 0.000000000000D+00 -.464867732571D-05 0.390009126736D-06 0.000000000000D+00  7 1 -1 24 -11 11 -24 21 2 0.43615706D-01 0.27200414D+00 0.90816703D+05 0.90816703D+05 0.90816703D+05 0.11251713D+01  1  2  5  2  7  2       -1 0.484513664641D-06 0.100000000000D+01
0.190538221532D-06 0.000000000000D+00 -.772694605333D-06 0.390009126736D-06 0.000000000000D+00  7 1 21 24 -11 11 -24 1 2 0.43615706D-01 0.27200414D+00 0.90816703D+05 0.90816703D+05 0.90816703D+05 0.11251713D+01  1  2  5  4  7  2       -1 0.889677945068D-06 0.100000000000D+01
  </mgrwgt>
  </event>
  <event>
  9     66 -.27727860E-05 0.22732338E+03 0.75467711E-02 0.10331932E+00
        1 -1    0    0  501    0 0.00000000E+00 0.00000000E+00 0.35574118E+03 0.35574132E+03 0.32000000E+00 0.0000E+00 0.9000E+01
       -1 -1    0    0    0  502 0.00000000E+00 0.00000000E+00 -.21173316E+03 0.21173340E+03 0.32000000E+00 0.0000E+00 0.9000E+01
       25  2    1    2    0    0 0.44940106E+02 0.14585884E+03 0.83616034E+02 0.34684591E+03 0.30002671E+03 0.0000E+00 0.0000E+00
       23  2    1    2    0    0 -.51613393E+01 -.14649551E+03 0.49162991E+02 0.17928382E+03 0.90764061E+02 0.0000E+00 0.0000E+00
       24  1    3    3    0    0 -.83411736E+02 0.95349140E+02 0.10861195E+03 0.18523701E+03 0.80419002E+02 0.0000E+00 0.9000E+01
      -11  1    4    4    0    0 -.28381422E+01 -.46388240E+02 -.26753087E+02 0.53625102E+02 0.51099893E-03 0.0000E+00 0.9000E+01
       11  1    4    4    0    0 -.23231972E+01 -.10010727E+03 0.75916078E+02 0.12565872E+03 0.51099893E-03 0.0000E+00 0.9000E+01
      -24  1    3    3    0    0 0.12835184E+03 0.50509703E+02 -.24995920E+02 0.16160890E+03 0.80419002E+02 0.0000E+00 0.9000E+01
       21  1    1    2  501  502 -.39778767E+02 0.63666957E+00 0.11228988E+02 0.41344992E+02 0.75000000E+00 0.0000E+00 0.9000E+01
#aMCatNLO 2  0  0  2  1 0.39783862D+02 0.00000000D+00  -5  7  0 0.00000000D+00 0.00000000D+00 0.00000000D+00 0.00000000D+00 0.00000000D+00
  <mgrwgt>
 -.1251963236D-03    2    2    0
 0.253771290295978D+03 0.000000000000000D+00 0.000000000000000D+00 0.253771290295978D+03
 0.253771290295978D+03 0.000000000000000D+00 0.000000000000000D+00 -.253771290295978D+03
 0.170263605490201D+03 -.964557011350953D+02 0.955579120221298D+02 0.639332665258108D+02
 0.627521201511944D+02 -.773490694443112D+01 -.463098659058239D+02 -.416340739997365D+02
 0.110456555637854D+03 -.109515775184712D+02 -.999691731995931D+02 0.456823603048807D+02
 0.164070299312707D+03 0.115142185597998D+03 0.507211270832872D+02 -.679815528309550D+02
 0.000000000000000D+00 -.000000000000000D+00 0.000000000000000D+00 0.000000000000000D+00
 0.274856560770543D+03 0.000000000000000D+00 0.000000000000000D+00 0.274856560770543D+03
 0.274035205993157D+03 0.000000000000000D+00 0.000000000000000D+00 -.274035205993157D+03
 0.163106268328135D+03 -.834117363140459D+02 0.953491399540381D+02 0.639332665258108D+02
 0.623964740218836D+02 -.283814215551986D+01 -.463882399068247D+02 -.416340739997365D+02
 0.110062442878029D+03 -.232319719703374D+01 -.100107272683048D+03 0.456823603048807D+02
 0.173534241974555D+03 0.128351842816086D+03 0.505097030650506D+02 -.679815528309550D+02
 0.397923395610983D+02 -.397787671494863D+02 0.636669570783769D+00 0.821354777385441D+00
-.494439279859D-05 0.000000000000D+00 0.000000000000D+00 0.148007432439D-05 0.000000000000D+00  7 1 -1 24 -11 11 -24 21 2 0.50530292D-01 0.33729133D-01 0.61531577D+05 0.61531577D+05 0.61531577D+05 0.11394512D+01  1  2 13  2  7  2       -1 -.491130617261D-03 0.100000000000D+01
0.385880264762D-05 0.000000000000D+00 0.000000000000D+00 0.148007432439D-05 0.648728869663D-08  7 1 -1 24 -11 11 -24 21 2 0.54728737D-01 0.32573943D-01 0.61531577D+05 0.61531577D+05 0.61531577D+05 0.11394512D+01  1  2  1  2  7  2       -1 0.365934293618D-03 0.100000000000D+01
  </mgrwgt>
  </event>
  <event>
  8     66 0.27727860E-05 0.10068700E+03 0.75467711E-02 0.10487160E+00
        1 -1    0    0  501    0 0.00000000E+00 0.00000000E+00 0.63660118E+03 0.63660126E+03 0.32000000E+00 0.0000E+00 0.9000E+01
       -1 -1    0    0    0  501 0.00000000E+00 0.00000000E+00 -.61530776E+02 0.61531608E+02 0.32000000E+00 0.0000E+00 0.9000E+01
       25  2    1    2    0    0 0.20287377E+02 -.28684729E+01 0.44974892E+03 0.54133666E+03 0.30058523E+03 0.0000E+00 0.0000E+00
       23  2    1    2    0    0 -.20287377E+02 0.28684729E+01 0.12532149E+03 0.15679621E+03 0.91977011E+02 0.0000E+00 0.0000E+00
       24  1    3    3    0    0 -.62572406E+02 -.77835122E+02 0.91430949E+02 0.15748157E+03 0.80419002E+02 0.0000E+00 0.9000E+01
      -11  1    4    4    0    0 -.37082364E+02 0.12896402E+02 0.10943426E+02 0.40757545E+02 0.51099893E-03 0.0000E+00 0.9000E+01
       11  1    4    4    0    0 0.16794987E+02 -.10027929E+02 0.11437806E+03 0.11603867E+03 0.51099893E-03 0.0000E+00 0.9000E+01
      -24  1    3    3    0    0 0.82859783E+02 0.74966649E+02 0.35831797E+03 0.38385508E+03 0.80419002E+02 0.0000E+00 0.9000E+01
#aMCatNLO 1  0  0  1  2 0.10292381D+03 0.00000000D+00  -5  7  0 0.00000000D+00 0.00000000D+00 0.00000000D+00 0.00000000D+00 0.00000000D+00
  <mgrwgt>
 0.4166733103D-03    7    2    0
 0.197916353104323D+03 0.000000000000000D+00 0.000000000000000D+00 0.197916353104323D+03
 0.197916353104323D+03 0.000000000000000D+00 0.000000000000000D+00 -.197916353104323D+03
 0.144919314360893D+03 -.625722742112658D+02 -.778351404447949D+02 -.675336444480074D+02
 0.559857320713074D+02 -.370825014207941D+02 0.128964139617831D+02 -.399120632248364D+02
 0.384882737221894D+02 0.167948509337023D+02 -.100279024323160D+02 0.331469662116588D+02
 0.156439386054256D+03 0.828599246983577D+02 0.749666289153278D+02 0.742987414611851D+02
 0.000000000000000D+00 -.000000000000000D+00 0.000000000000000D+00 0.000000000000000D+00
 0.381384725699050D+03 0.000000000000000D+00 0.000000000000000D+00 0.381384725699050D+03
 0.219469296872562D+03 0.000000000000000D+00 0.000000000000000D+00 -.219469296872562D+03
 0.159273883256362D+03 -.433220645636849D+02 -.111639417423689D+03 -.675336444480074D+02
 0.501620115450249D+02 -.303651706775765D+02 0.110046403917520D+01 -.399120632248364D+02
 0.441948865599747D+02 0.220272761891772D+02 -.192162882133332D+02 0.331469662116588D+02
 0.155364135198679D+03 0.102591737243769D+03 0.403166345104867D+02 0.742987414611851D+02
 0.191859106011572D+03 -.509317781916850D+02 0.894386070873601D+02 0.161915428826488D+03
0.246848365448D-05 0.000000000000D+00 0.000000000000D+00 0.213957145671D-06 0.000000000000D+00  7 1 -1 24 -11 11 -24 21 0 0.97938713D-01 0.94663434D-02 0.26359702D+05 0.26359702D+05 0.26359702D+05 0.11725846D+01  1  2  2  1  7  1        1 0.571619699664D-03 0.100000000000D+01
-.130597901658D-06 0.000000000000D+00 -.947962719987D-08 0.213957145671D-06 0.000000000000D+00  7 1 -1 24 -11 11 -24 21 2 0.97938713D-01 0.94663434D-02 0.26359702D+05 0.26359702D+05 0.26359702D+05 0.11725846D+01  1  2  3  1  7  1        1 -.415816307057D-04 0.100000000000D+01
0.153741062247D-06 0.000000000000D+00 0.000000000000D+00 0.213957145671D-06 0.000000000000D+00  7 1 -1 24 -11 11 -24 21 2 0.97938713D-01 0.94663434D-02 0.26359702D+05 0.26359702D+05 0.26359702D+05 0.11725846D+01  1  2 15  1  7  1        1 0.489502816928D-04 0.100000000000D+01
0.970281801889D-06 0.000000000000D+00 0.000000000000D+00 0.213957145671D-06 0.000000000000D+00  7 1 -1 24 -11 11 -24 21 2 0.18953353D+00 0.94663434D-02 0.49114213D+05 0.49114213D+05 0.49114213D+05 0.11479788D+01  1  2 12  1  7  1        1 0.100703617900D-03 0.100000000000D+01
-.254914931385D-05 0.000000000000D+00 -.779510107682D-06 0.213957145671D-06 0.000000000000D+00  7 1 -1 24 -11 11 -24 21 2 0.19775946D+00 0.94663434D-02 0.26359702D+05 0.26359702D+05 0.26359702D+05 0.11725846D+01  1  2  5  1  7  1        1 -.255256523136D-03 0.100000000000D+01
0.694685618185D-07 0.000000000000D+00 0.000000000000D+00 0.213957145671D-06 0.000000000000D+00  7 21 -1 24 -11 11 -24 -1 2 0.18953353D+00 0.94663434D-02 0.49114213D+05 0.49114213D+05 0.49114213D+05 0.11479788D+01  1  2 12  3  7  1        1 0.790351147104D-05 0.100000000000D+01
-.146640936060D-06 0.000000000000D+00 -.592494580914D-07 0.213957145671D-06 0.000000000000D+00  7 21 -1 24 -11 11 -24 -1 2 0.19775946D+00 0.94663434D-02 0.26359702D+05 0.26359702D+05 0.26359702D+05 0.11725846D+01  1  2  5  3  7  1        1 -.156656466010D-04 0.100000000000D+01
  </mgrwgt>
  </event>
  <event>
  8     66 0.27727860E-05 0.17458447E+03 0.75467711E-02 0.91725932E-01
        1 -1    0    0  501    0 0.00000000E+00 0.00000000E+00 0.10989819E+04 0.10989820E+04 0.32000000E+00 0.0000E+00 0.9000E+01
       -1 -1    0    0    0  501 0.00000000E+00 0.00000000E+00 -.64067938E+03 0.64067946E+03 0.32000000E+00 0.0000E+00 0.9000E+01
       25  2    1    2    0    0 0.42550118E+03 0.24018117E+03 0.90503367E+03 0.10714259E+04 0.30021529E+03 0.0000E+00 0.0000E+00
       23  2    1    2    0    0 -.42550118E+03 -.24018117E+03 -.44673110E+03 0.66823558E+03 0.90729609E+02 0.0000E+00 0.0000E+00
       24  1    3    3    0    0 0.14438881E+03 0.12953307E+03 0.59570646E+03 0.63163308E+03 0.80419002E+02 0.0000E+00 0.9000E+01
      -13  1    4    4    0    0 -.50556128E+02 0.98390364E+00 -.36083561E+02 0.62120243E+02 0.10565837E+00 0.0000E+00 0.9000E+01
       13  1    4    4    0    0 -.37494505E+03 -.24116507E+03 -.41064754E+03 0.60611534E+03 0.10565837E+00 0.0000E+00 0.9000E+01
      -24  1    3    3    0    0 0.28111237E+03 0.11064810E+03 0.30932721E+03 0.43979280E+03 0.80419002E+02 0.0000E+00 0.9000E+01
#aMCatNLO 1  0  0  1  2 0.25656080D+03 0.00000000D+00  -5  7  0 0.00000000D+00 0.00000000D+00 0.00000000D+00 0.00000000D+00 0.00000000D+00
  <mgrwgt>
 0.6368076346D-03    9    2    0
 0.839103798642745D+03 0.000000000000000D+00 0.000000000000000D+00 0.839103798642745D+03
 0.839103798642745D+03 0.000000000000000D+00 0.000000000000000D+00 -.839103798642745D+03
 0.492080912048373D+03 0.144388810481761D+03 0.129533070185253D+03 0.445027485874785D+03
 0.742481832145981D+02 -.505556879407942D+02 0.984232031602588D+00 -.543686160832657D+02
 0.740455368704353D+03 -.374945493940403D+03 -.241165401290295D+03 -.591210012463741D+03
 0.371423133318167D+03 0.281112371399437D+03 0.110648099073439D+03 0.200551142672222D+03
 0.000000000000000D+00 -.000000000000000D+00 0.000000000000000D+00 0.000000000000000D+00
 0.101403660440076D+04 0.000000000000000D+00 0.000000000000000D+00 0.101403660440076D+04
 0.948474287171771D+03 0.000000000000000D+00 0.000000000000000D+00 -.948474287171771D+03
 0.487843863036762D+03 0.172626426933480D+03 0.606223744867164D+02 0.445027485874785D+03
 0.720410297221787D+02 -.463402024352116D+02 -.930318154643336D+01 -.543686160832657D+02
 0.761439469515191D+03 -.331666732681636D+03 -.346782302504736D+03 -.591210012463741D+03
 0.376381202138743D+03 0.302661180596276D+03 0.580606777601652D+02 0.200551142672222D+03
 0.264805327159653D+03 -.972806724129080D+02 0.237402431804287D+03 0.655623172289866D+02
0.325725392850D-03 0.000000000000D+00 0.000000000000D+00 0.201630243200D-04 0.000000000000D+00  7 1 -1 24 -13 13 -24 21 0 0.16907416D+00 0.98566069D-01 0.25958234D+06 0.25958234D+06 0.25958234D+06 0.10892323D+01  1  2  2  1  7  1        1 0.526632033324D-03 0.100000000000D+01
-.126191154030D-04 0.000000000000D+00 -.125087127401D-05 0.201630243200D-04 0.000000000000D+00  7 1 -1 24 -13 13 -24 21 2 0.16907416D+00 0.98566069D-01 0.25958234D+06 0.25958234D+06 0.25958234D+06 0.10892323D+01  1  2  3  1  7  1        1 -.242061448327D-04 0.100000000000D+01
0.192358086352D-04 0.000000000000D+00 0.000000000000D+00 0.201630243200D-04 0.000000000000D+00  7 1 -1 24 -13 13 -24 21 2 0.16907416D+00 0.98566069D-01 0.25958234D+06 0.25958234D+06 0.25958234D+06 0.10892323D+01  1  2 15  1  7  1        1 0.368983684615D-04 0.100000000000D+01
0.149324002365D-03 0.000000000000D+00 0.000000000000D+00 0.201630243200D-04 0.000000000000D+00  7 1 -1 24 -13 13 -24 21 2 0.21345219D+00 0.98566069D-01 0.42382421D+06 0.42382421D+06 0.42382421D+06 0.10736210D+01  1  2 12  1  7  1        1 0.169186909612D-03 0.100000000000D+01
-.226080864942D-03 0.000000000000D+00 0.000000000000D+00 0.201630243200D-04 0.000000000000D+00  7 1 -1 24 -13 13 -24 21 2 0.16907416D+00 0.98566069D-01 0.25958234D+06 0.25958234D+06 0.25958234D+06 0.10892323D+01  1  2  4  1  7  1        1 -.433671139848D-03 0.100000000000D+01
-.373011159306D-03 0.000000000000D+00 -.169328958030D-03 0.201630243200D-04 0.000000000000D+00  7 1 -1 24 -13 13 -24 21 2 0.22031127D+00 0.98566069D-01 0.25958234D+06 0.25958234D+06 0.25958234D+06 0.10892323D+01  1  2  5  1  7  1        1 -.418177027091D-03 0.100000000000D+01
0.409178019639D-03 0.000000000000D+00 0.163565065167D-03 0.201630243200D-04 0.000000000000D+00  7 1 -1 24 -13 13 -24 21 2 0.16907416D+00 0.98566069D-01 0.25958234D+06 0.25958234D+06 0.25958234D+06 0.10892323D+01  1  2  6  1  7  1        1 0.784890389654D-03 0.100000000000D+01
0.479753961362D-05 0.000000000000D+00 0.000000000000D+00 0.201630243200D-04 0.000000000000D+00  7 21 -1 24 -13 13 -24 -1 2 0.21345219D+00 0.98566069D-01 0.42382421D+06 0.42382421D+06 0.42382421D+06 0.10736210D+01  1  2 12  3  7  1        1 0.462700541497D-05 0.100000000000D+01
-.100511112761D-04 0.000000000000D+00 -.597637499030D-05 0.201630243200D-04 0.000000000000D+00  7 21 -1 24 -13 13 -24 -1 2 0.22031127D+00 0.98566069D-01 0.25958234D+06 0.25958234D+06 0.25958234D+06 0.10892323D+01  1  2  5  3  7  1        1 -.937276007463D-05 0.100000000000D+01
  </mgrwgt>
  </event>
  <event>
  8     66 0.27727860E-05 0.18357585E+03 0.75467711E-02 0.97925427E-01
        1 -1    0    0  501    0 0.00000000E+00 0.00000000E+00 0.71758550E+03 0.71758557E+03 0.32000000E+00 0.0000E+00 0.9000E+01
       -1 -1    0    0    0  501 0.00000000E+00 0.00000000E+00 -.39161669E+03 0.39161682E+03 0.32000000E+00 0.0000E+00 0.9000E+01
       25  2    1    2    0    0 0.81421664E+02 -.31808891E+03 0.54535619E+03 0.70394818E+03 0.30053224E+03 0.0000E+00 0.0000E+00
       23  2    1    2    0    0 -.81421664E+02 0.31808891E+03 -.21938739E+03 0.40525421E+03 0.91050015E+02 0.0000E+00 0.0000E+00
       24  1    3    3    0    0 0.24833621E+02 -.88834913E+02 0.39308333E+03 0.41169172E+03 0.80419002E+02 0.0000E+00 0.9000E+01
      -13  1    4    4    0    0 -.82355070E+02 0.32420772E+03 -.21454476E+03 0.39739460E+03 0.10565837E+00 0.0000E+00 0.9000E+01
       13  1    4    4    0    0 0.93340551E+00 -.61188156E+01 -.48426335E+01 0.78596064E+01 0.10565837E+00 0.0000E+00 0.9000E+01
      -24  1    3    3    0    0 0.56588043E+02 -.22925399E+03 0.15227286E+03 0.29225646E+03 0.80419002E+02 0.0000E+00 0.9000E+01
#aMCatNLO 1  0  0  1  2 0.41715286D+02 0.00000000D+00  -5  7  0 0.00000000D+00 0.00000000D+00 0.00000000D+00 0.00000000D+00 0.00000000D+00
  <mgrwgt>
 0.1073257154D-02    9    2    0
 0.530111846522080D+03 0.000000000000000D+00 0.000000000000000D+00 0.530111846522080D+03
 0.530111846522080D+03 0.000000000000000D+00 0.000000000000000D+00 -.530111846522080D+03
 0.309855871620605D+03 0.248336211186446D+02 -.888349131772829D+02 0.284666637817490D+03
 0.481715900064147D+03 -.823551819427837D+02 0.324208166702146D+03 -.346636548888625D+03
 0.971093913739770D+01 0.933517663925717D+00 -.611926040409566D+01 -.748234828167247D+01
 0.258940982222009D+03 0.565880431602133D+02 -.229253993120767D+03 0.694522593528074D+02
 0.000000000000000D+00 0.000000000000000D+00 -.000000000000000D+00 0.000000000000000D+00
 0.585202307736895D+03 0.000000000000000D+00 0.000000000000000D+00 0.585202307736895D+03
 0.538478107010350D+03 0.000000000000000D+00 0.000000000000000D+00 -.538478107010350D+03
 0.307415158532728D+03 0.145383467481059D+02 -.824039169508924D+02 0.284666637817490D+03
 0.491594936445583D+03 -.985887351474385D+02 0.334348539424877D+03 -.346636548888625D+03
 0.955974563920796D+01 0.612107817372517D+00 -.591849008599483D+01 -.748234828167247D+01
 0.252474194479226D+03 0.480583061335318D+02 -.223925848900768D+03 0.694522593528074D+02
 0.626363796504994D+02 0.353799744484283D+02 -.221002834872217D+02 0.467242007265452D+02
0.770267529812D-04 0.000000000000D+00 0.000000000000D+00 0.821602421898D-05 0.000000000000D+00  7 1 -1 24 -13 13 -24 21 0 0.11039778D+00 0.60248737D-01 0.12692203D+06 0.12692203D+06 0.12692203D+06 0.11133234D+01  1  2  2  1  7  1        1 0.706990398391D-03 0.100000000000D+01
-.345747842645D-05 0.000000000000D+00 -.295803013058D-06 0.821602421898D-05 0.000000000000D+00  7 1 -1 24 -13 13 -24 21 2 0.11039778D+00 0.60248737D-01 0.12692203D+06 0.12692203D+06 0.12692203D+06 0.11133234D+01  1  2  3  1  7  1        1 -.393345385717D-04 0.100000000000D+01
0.453830475980D-05 0.000000000000D+00 0.000000000000D+00 0.821602421898D-05 0.000000000000D+00  7 1 -1 24 -13 13 -24 21 2 0.11039778D+00 0.60248737D-01 0.12692203D+06 0.12692203D+06 0.12692203D+06 0.11133234D+01  1  2 15  1  7  1        1 0.516307266762D-04 0.100000000000D+01
0.369680719574D-03 0.000000000000D+00 0.000000000000D+00 0.821602421898D-05 0.000000000000D+00  7 1 -1 24 -13 13 -24 21 2 0.12268413D+00 0.60248737D-01 0.14251979D+06 0.14251979D+06 0.14251979D+06 0.11093093D+01  1  2 12  1  7  1        1 0.353247853122D-02 0.100000000000D+01
-.376381605855D-03 0.000000000000D+00 0.000000000000D+00 0.821602421898D-05 0.000000000000D+00  7 1 -1 24 -13 13 -24 21 2 0.11039778D+00 0.60248737D-01 0.12692203D+06 0.12692203D+06 0.12692203D+06 0.11133234D+01  1  2  4  1  7  1        1 -.428196360676D-02 0.100000000000D+01
-.628464662294D-03 0.000000000000D+00 -.948747090140D-04 0.821602421898D-05 0.000000000000D+00  7 1 -1 24 -13 13 -24 21 2 0.12295108D+00 0.60248737D-01 0.12692203D+06 0.12692203D+06 0.12692203D+06 0.11133234D+01  1  2  5  1  7  1        1 -.605247448217D-02 0.100000000000D+01
0.635540658139D-03 0.000000000000D+00 0.943271519904D-04 0.821602421898D-05 0.000000000000D+00  7 1 -1 24 -13 13 -24 21 2 0.11039778D+00 0.60248737D-01 0.12692203D+06 0.12692203D+06 0.12692203D+06 0.11133234D+01  1  2  6  1  7  1        1 0.723032668554D-02 0.100000000000D+01
0.628878628356D-05 0.000000000000D+00 0.000000000000D+00 0.821602421898D-05 0.000000000000D+00  7 21 -1 24 -13 13 -24 -1 2 0.12268413D+00 0.60248737D-01 0.14251979D+06 0.14251979D+06 0.14251979D+06 0.11093093D+01  1  2 12  3  7  1        1 0.107921224499D-03 0.100000000000D+01
-.105200444450D-04 0.000000000000D+00 -.164236893012D-05 0.821602421898D-05 0.000000000000D+00  7 21 -1 24 -13 13 -24 -1 2 0.12295108D+00 0.60248737D-01 0.12692203D+06 0.12692203D+06 0.12692203D+06 0.11133234D+01  1  2  5  3  7  1        1 -.182317784668D-03 0.100000000000D+01
  </mgrwgt>
  </event>
  <event>
  8     66 0.27727860E-05 0.14990165E+03 0.75467711E-02 0.10328373E+00
        1 -1    0    0  501    0 0.00000000E+00 0.00000000E+00 0.23799088E+04 0.23799089E+04 0.32000000E+00 0.0000E+00 0.9000E+01
       -1 -1    0    0    0  501 0.00000000E+00 0.00000000E+00 -.27087479E+02 0.27089369E+02 0.32000000E+00 0.0000E+00 0.9000E+01
       25  2    1    2    0    0 0.31298462E+02 -.12843893E+03 0.12396165E+04 0.12822548E+04 0.30008718E+03 0.0000E+00 0.0000E+00
       23  2    1    2    0    0 -.31298462E+02 0.12843893E+03 0.11132049E+04 0.11247434E+04 0.91358765E+02 0.0000E+00 0.0000E+00
       24  1    3    3    0    0 0.12527229E+03 -.13848497E+03 0.80377624E+03 0.82909269E+03 0.80419002E+02 0.0000E+00 0.9000E+01
      -13  1    4    4    0    0 -.53079326E+02 0.11213439E+03 0.72099691E+03 0.73159284E+03 0.10565837E+00 0.0000E+00 0.9000E+01
       13  1    4    4    0    0 0.21780864E+02 0.16304548E+02 0.39220796E+03 0.39315053E+03 0.10565837E+00 0.0000E+00 0.9000E+01
      -24  1    3    3    0    0 -.93973832E+02 0.10046035E+02 0.43584025E+03 0.45316216E+03 0.80419002E+02 0.0000E+00 0.9000E+01
#aMCatNLO 1  0  0  2  1 0.17895645D+02 0.00000000D+00  -5  7  0 0.00000000D+00 0.00000000D+00 0.00000000D+00 0.00000000D+00 0.00000000D+00
  <mgrwgt>
 0.2881879009D-03    9    2    0
 0.253905553659005D+03 0.000000000000000D+00 0.000000000000000D+00 0.253905553659005D+03
 0.253905553659005D+03 0.000000000000000D+00 0.000000000000000D+00 -.253905553659005D+03
 0.205751186758685D+03 0.125272292827661D+03 -.138484969135661D+03 -.315452194703475D+02
 0.127145322602978D+03 -.530794260801434D+02 0.112134515313089D+03 0.278272898845097D+02
 0.463111357314670D+02 0.217809638357672D+02 0.163044204991546D+02 0.374763495995822D+02
 0.128603462224880D+03 -.939738305832847D+02 0.100460333234170D+02 -.337584200137444D+02
 0.000000000000000D+00 -.000000000000000D+00 -.000000000000000D+00 -.000000000000000D+00
 0.259707287311753D+03 0.000000000000000D+00 0.000000000000000D+00 0.259707287311753D+03
 0.268248470991406D+03 0.000000000000000D+00 0.000000000000000D+00 -.268248470991406D+03
 0.208915875848814D+03 0.132339175383108D+03 -.136637729104348D+03 -.315452194703475D+02
 0.126413870189865D+03 -.487581929803807D+02 0.113264059309878D+03 0.278272898845097D+02
 0.472278195105051D+02 0.233750832406158D+02 0.167211135963195D+02 0.374763495995822D+02
 0.125568771917781D+03 -.896421498458593D+02 0.111783082690184D+02 -.337584200137444D+02
 0.198294208361939D+02 -.173139157974834D+02 -.452575207086810D+01 -.854118367965274D+01
0.952612102956D-05 0.000000000000D+00 0.000000000000D+00 0.950039298727D-06 0.000000000000D+00  7 1 -1 24 -13 13 -24 21 0 0.36613997D+00 0.41674514D-02 0.57284211D+05 0.57284211D+05 0.57284211D+05 0.11421360D+01  1  2  2  2  7  2       -1 0.448525086322D-03 0.100000000000D+01
-.526983558092D-06 0.000000000000D+00 -.365828130388D-07 0.950039298727D-06 0.000000000000D+00  7 1 -1 24 -13 13 -24 21 2 0.36613997D+00 0.41674514D-02 0.57284211D+05 0.57284211D+05 0.57284211D+05 0.11421360D+01  1  2  3  2  7  2       -1 -.323670685737D-04 0.100000000000D+01
0.617404270699D-06 0.000000000000D+00 0.000000000000D+00 0.950039298727D-06 0.000000000000D+00  7 1 -1 24 -13 13 -24 21 2 0.36613997D+00 0.41674514D-02 0.57284211D+05 0.57284211D+05 0.57284211D+05 0.11421360D+01  1  2 15  2  7  2       -1 0.379206638624D-04 0.100000000000D+01
0.277504022707D-04 0.000000000000D+00 0.000000000000D+00 0.950039298727D-06 0.000000000000D+00  7 1 -1 24 -13 13 -24 21 2 0.36613997D+00 0.44485396D-02 0.61855445D+05 0.61855445D+05 0.61855445D+05 0.11392549D+01  1  2 12  2  7  2       -1 0.153870924999D-02 0.100000000000D+01
-.267644360922D-04 0.000000000000D+00 0.000000000000D+00 0.950039298727D-06 0.000000000000D+00  7 1 -1 24 -13 13 -24 21 2 0.36613997D+00 0.41674514D-02 0.57284211D+05 0.57284211D+05 0.57284211D+05 0.11421360D+01  1  2  4  2  7  2       -1 -.164385838046D-02 0.100000000000D+01
-.920797065417D-04 0.000000000000D+00 -.156304630252D-04 0.950039298727D-06 0.000000000000D+00  7 1 -1 24 -13 13 -24 21 2 0.36613997D+00 0.45258937D-02 0.57284211D+05 0.57284211D+05 0.57284211D+05 0.11421360D+01  1  2  5  2  7  2       -1 -.501230460258D-02 0.100000000000D+01
0.931053286024D-04 0.000000000000D+00 0.155774077332D-04 0.950039298727D-06 0.000000000000D+00  7 1 -1 24 -13 13 -24 21 2 0.36613997D+00 0.41674514D-02 0.57284211D+05 0.57284211D+05 0.57284211D+05 0.11421360D+01  1  2  6  2  7  2       -1 0.571848307063D-02 0.100000000000D+01
0.344481614015D-06 0.000000000000D+00 0.000000000000D+00 0.950039298727D-06 0.000000000000D+00  7 1 21 24 -13 13 -24 1 2 0.36613997D+00 0.44485396D-02 0.61855445D+05 0.61855445D+05 0.61855445D+05 0.11392549D+01  1  2 12  4  7  2       -1 0.307395984078D-03 0.100000000000D+01
-.122815663564D-05 0.000000000000D+00 -.214574680988D-06 0.950039298727D-06 0.000000000000D+00  7 1 21 24 -13 13 -24 1 2 0.36613997D+00 0.45258937D-02 0.57284211D+05 0.57284211D+05 0.57284211D+05 0.11421360D+01  1  2  5  4  7  2       -1 -.107431610234D-02 0.100000000000D+01
  </mgrwgt>
  </event>
  <event>
  9     66 0.27727860E-05 0.19379295E+03 0.75467711E-02 0.10387527E+00
        1 -1    0    0  501    0 0.00000000E+00 0.00000000E+00 0.99643473E+03 0.99643478E+03 0.32000000E+00 0.0000E+00 0.9000E+01
       21 -1    0    0  502  501 0.00000000E+00 0.00000000E+00 -.12600442E+03 0.12600665E+03 0.75000000E+00 0.0000E+00 0.9000E+01
       25  2    1    2    0    0 -.57446688E+02 0.86125313E+02 0.79058978E+03 0.85177926E+03 0.29962978E+03 0.0000E+00 0.0000E+00
       23  2    1    2    0    0 0.10979352E+02 0.49161813E+01 -.50500024E+02 0.10502242E+03 0.91294801E+02 0.0000E+00 0.0000E+00
       24  1    3    3    0    0 -.12190447E+03 0.12114244E+03 0.35200138E+03 0.39988546E+03 0.80419002E+02 0.0000E+00 0.9000E+01
      -11  1    4    4    0    0 -.23699252E+01 -.34135268E+02 -.53649272E+02 0.63632362E+02 0.51099893E-03 0.0000E+00 0.9000E+01
       11  1    4    4    0    0 0.13349277E+02 0.39051450E+02 0.31492486E+01 0.41390055E+02 0.51099893E-03 0.0000E+00 0.9000E+01
      -24  1    3    3    0    0 0.64457779E+02 -.35017130E+02 0.43858840E+03 0.45189380E+03 0.80419002E+02 0.0000E+00 0.9000E+01
        1  1    1    2  502    0 0.46467336E+02 -.91041494E+02 0.13034055E+03 0.16563976E+03 0.32000000E+00 0.0000E+00 0.9000E+01
#aMCatNLO 2  0  0  2  1 0.10221432D+03 0.00000000D+00  -5  7  0 0.00000000D+00 0.00000000D+00 0.00000000D+00 0.00000000D+00 0.00000000D+00
  <mgrwgt>
 0.1842261378D-03    1    2    0
 0.298868209528099D+03 0.000000000000000D+00 0.000000000000000D+00 0.298868209528099D+03
 0.298868209528099D+03 0.000000000000000D+00 0.000000000000000D+00 -.298868209528099D+03
 0.176340088009288D+03 -.107329829670184D+03 0.925869700601842D+02 0.673540742850565D+02
 0.173297838377328D+03 0.107185390876336D+02 -.597789449617491D+02 -.162307521222343D+03
 0.574439663510490D+02 0.179377807870871D+02 0.300613878332450D+02 -.455451232528148D+02
 0.190654526318533D+03 0.786735097954629D+02 -.628694129316801D+02 0.140498570190101D+03
 0.000000000000000D+00 0.000000000000000D+00 -.000000000000000D+00 0.000000000000000D+00
 0.356092981581788D+03 0.000000000000000D+00 0.000000000000000D+00 0.356092981581788D+03
 0.352594095621384D+03 0.000000000000000D+00 0.000000000000000D+00 -.352594095621384D+03
 0.201345419257446D+03 -.121904467034901D+03 0.121142442998835D+03 0.673540742850565D+02
 0.165875147428954D+03 -.236992519528073D+01 -.341352683277061D+02 -.162307521222343D+03
 0.614619977706394D+02 0.133492771928737D+02 0.390514496052555D+02 -.455451232528148D+02
 0.177730326017839D+03 0.644577786377783D+02 -.350171298032438D+02 0.140498570190101D+03
 0.102274186728294D+03 0.464673363995299D+02 -.910414944731406D+02 0.349888596040379D+01
0.299637907321D-06 0.000000000000D+00 0.000000000000D+00 0.202425130147D-05 0.365403176927D-10  7 1 21 24 -11 11 -24 1 2 0.15329772D+00 0.19385457D-01 0.56714708D+05 0.56714708D+05 0.56714708D+05 0.11425126D+01  1  2  1  4  7  2       -1 0.184226137792D-03 0.100000000000D+01
  </mgrwgt>
  </event>
  <event>
  8     66 0.27727860E-05 0.15018501E+03 0.75467711E-02 0.10213253E+00
        1 -1    0    0  501    0 0.00000000E+00 0.00000000E+00 0.13566098E+04 0.13566098E+04 0.32000000E+00 0.0000E+00 0.9000E+01
       -1 -1    0    0    0  501 0.00000000E+00 0.00000000E+00 -.38089622E+02 0.38090966E+02 0.32000000E+00 0.0000E+00 0.9000E+01
       25  2    1    2    0    0 -.72131924E+02 -.44241156E+02 0.74006633E+03 0.80299342E+03 0.29989992E+03 0.0000E+00 0.0000E+00
       23  2    1    2    0    0 0.72131924E+02 0.44241156E+02 0.57845385E+03 0.59170739E+03 0.91370037E+02 0.0000E+00 0.0000E+00
       24  1    3    3    0    0 -.62218793E+02 -.27601758E+02 0.70553231E+03 0.71335551E+03 0.80419002E+02 0.0000E+00 0.9000E+01
      -13  1    4    4    0    0 -.10412094E+02 -.92544140E+01 0.18386171E+02 0.23067690E+02 0.10565837E+00 0.0000E+00 0.9000E+01
       13  1    4    4    0    0 0.82544019E+02 0.53495570E+02 0.56006768E+03 0.56863970E+03 0.10565837E+00 0.0000E+00 0.9000E+01
      -24  1    3    3    0    0 -.99131307E+01 -.16639398E+02 0.34534028E+02 0.89637909E+02 0.80419002E+02 0.0000E+00 0.9000E+01
#aMCatNLO 1  0  0  2  1 0.19424987D+03 0.00000000D+00  -5  7  0 0.00000000D+00 0.00000000D+00 0.00000000D+00 0.00000000D+00 0.00000000D+00
  <mgrwgt>
 0.1712397596D-03    5    2    0
 0.227318539897841D+03 0.000000000000000D+00 0.000000000000000D+00 0.227318539897841D+03
 0.227318539897841D+03 0.000000000000000D+00 0.000000000000000D+00 -.227318539897841D+03
 0.142220964746445D+03 -.622188013051672D+02 -.276017631217356D+02 0.955329801469557D+02
 0.174423057397085D+02 -.104122078882461D+02 -.925448998067773D+01 -.104963980301315D+02
 0.120143689399409D+03 0.825441495326418D+02 0.534956567837032D+02 0.689868406706287D+02
 0.174830119910121D+03 -.991314033922847D+01 -.166394036812898D+02 -.154023422787453D+03
 0.000000000000000D+00 -.000000000000000D+00 -.000000000000000D+00 -.000000000000000D+00
 0.260548653664823D+03 0.000000000000000D+00 0.000000000000000D+00 0.260548653664823D+03
 0.953787157315123D+03 0.000000000000000D+00 0.000000000000000D+00 -.953787157315123D+03
 0.125894859363008D+03 -.931977225431314D+01 -.129958150583270D+02 0.955329801469557D+02
 0.136270028047649D+02 -.428225915902408D+01 -.756195016705845D+01 -.104963980301315D+02
 0.170730004685560D+03 0.139933287397360D+03 0.693413685499826D+02 0.689868406706287D+02
 0.184144618185347D+03 0.609122768554046D+02 0.291619844742937D+01 -.154023422787453D+03
 0.719939325941265D+03 -.187243532839428D+03 -.516998017720265D+02 -.693238503650300D+03
0.473088040001D-05 0.000000000000D+00 0.000000000000D+00 0.110673880164D-05 0.000000000000D+00  7 1 -1 24 -13 13 -24 21 0 0.20870931D+00 0.58600482D-02 0.22555536D+05 0.22555536D+05 0.22555536D+05 0.11790061D+01  1  2  2  2  7  2       -1 0.631941459019D-03 0.100000000000D+01
-.207927327474D-06 0.000000000000D+00 -.181678264054D-07 0.110673880164D-05 0.000000000000D+00  7 1 -1 24 -13 13 -24 21 2 0.20870931D+00 0.58600482D-02 0.22555536D+05 0.22555536D+05 0.22555536D+05 0.11790061D+01  1  2  3  2  7  2       -1 -.386081092010D-04 0.100000000000D+01
0.299539142859D-06 0.000000000000D+00 0.000000000000D+00 0.110673880164D-05 0.000000000000D+00  7 1 -1 24 -13 13 -24 21 2 0.20870931D+00 0.58600482D-02 0.22555536D+05 0.22555536D+05 0.22555536D+05 0.11790061D+01  1  2 15  2  7  2       -1 0.556186629145D-04 0.100000000000D+01
-.869871747770D-05 0.000000000000D+00 -.192416512460D-05 0.110673880164D-05 0.000000000000D+00  7 1 -1 24 -13 13 -24 21 2 0.20870931D+00 0.27893074D-01 0.22555536D+05 0.22555536D+05 0.22555536D+05 0.11790061D+01  1  2  5  2  7  2       -1 -.147503458125D-03 0.100000000000D+01
-.168547229372D-05 0.000000000000D+00 -.364697203030D-06 0.110673880164D-05 0.000000000000D+00  7 1 21 24 -13 13 -24 1 2 0.20870931D+00 0.27893074D-01 0.22555536D+05 0.22555536D+05 0.22555536D+05 0.11790061D+01  1  2  5  4  7  2       -1 -.330208795040D-03 0.100000000000D+01
  </mgrwgt>
  </event>
  <event>
  7     66 0.27727860E-05 0.18755181E+03 0.75467711E-02 0.10528448E+00
        1 -1    0    0  501    0 0.00000000E+00 0.00000000E+00 0.94176238E+03 0.94176243E+03 0.32000000E+00 0.0000E+00 0.9000E+01
       -1 -1    0    0    0  501 0.00000000E+00 0.00000000E+00 -.49645509E+02 0.49646540E+02 0.32000000E+00 0.0000E+00 0.9000E+01
       23  2    1    2    0    0 -.45668498E+02 0.13884354E+02 0.22192326E+03 0.24468186E+03 0.91328468E+02 0.0000E+00 0.0000E+00
       24  1    1    2    0    0 0.28154466E+02 -.13790257E+03 0.22501073E+03 0.27732082E+03 0.80419002E+02 0.0000E+00 0.9000E+01
      -11  1    3    3    0    0 -.31713500E+02 0.29431577E+02 0.21941514E+03 0.22364026E+03 0.51099893E-03 0.0000E+00 0.9000E+01
       11  1    3    3    0    0 -.13954998E+02 -.15547222E+02 0.25081274E+01 0.21041597E+02 0.51099893E-03 0.0000E+00 0.9000E+01
      -24  1    1    2    0    0 0.17514032E+02 0.12401822E+03 0.44518288E+03 0.46940629E+03 0.80419002E+02 0.0000E+00 0.9000E+01
#aMCatNLO 1  0  0  2  2 0.49457426D+02 0.00000000D+00  -5  7  0 0.00000000D+00 0.00000000D+00 0.00000000D+00 0.00000000D+00 0.00000000D+00
  <mgrwgt>
 0.9943127189D-04    4    2    0
 0.216228607419220D+03 0.000000000000000D+00 0.000000000000000D+00 0.216228607419220D+03
 0.216228607419220D+03 0.000000000000000D+00 0.000000000000000D+00 -.216228607419220D+03
 0.171583349671887D+03 0.281547813722236D+02 -.137902458922215D+03 -.562481114291301D+02
 0.600640485862457D+02 -.317138610977288D+02 0.294316864821460D+02 0.416616943685865D+02
 0.430639142278803D+02 -.139552568635502D+02 -.155471437272097D+02 -.376568431553157D+02
 0.157745902352427D+03 0.175143365890554D+02 0.124017916167278D+03 0.522432602158593D+02
 0.000000000000000D+00 0.000000000000000D+00 0.000000000000000D+00 0.000000000000000D+00
 0.246042388617843D+03 0.000000000000000D+00 0.000000000000000D+00 0.246042388617843D+03
 0.239166772963930D+03 0.000000000000000D+00 0.000000000000000D+00 -.239166772963930D+03
 0.170586559766706D+03 0.869965162366104D+01 -.139258839722843D+03 -.562481114291301D+02
 0.638395984577621D+02 -.387587866246880D+02 0.289405254438944D+02 0.416616943685865D+02
 0.450603892325803D+02 -.189658370184151D+02 -.158964734315038D+02 -.376568431553157D+02
 0.155789548403417D+03 -.312692342966056D+00 0.122775043974281D+03 0.522432602158593D+02
 0.499330657213083D+02 0.493376643624081D+02 0.343974373617140D+01 0.687561565391228D+01
0.174502036612D-05 0.000000000000D+00 0.000000000000D+00 0.276033288519D-09 0.000000000000D+00  7 1 -1 24 -11 11 -24 21 0 0.14488660D+00 0.76378541D-02 0.35175681D+05 0.35175681D+05 0.35175681D+05 0.11609765D+01  1  2  2  2  7  2       -1 0.307211331305D-03 0.100000000000D+01
-.945593921033D-07 0.000000000000D+00 -.670133768033D-08 0.276033288519D-09 0.000000000000D+00  7 1 -1 24 -11 11 -24 21 2 0.14488660D+00 0.76378541D-02 0.35175681D+05 0.35175681D+05 0.35175681D+05 0.11609765D+01  1  2  3  2  7  2       -1 -.224382145409D-04 0.100000000000D+01
0.109413242467D-06 0.000000000000D+00 0.000000000000D+00 0.276033288519D-09 0.000000000000D+00  7 1 -1 24 -11 11 -24 21 2 0.14488660D+00 0.76378541D-02 0.35175681D+05 0.35175681D+05 0.35175681D+05 0.11609765D+01  1  2 15  2  7  2       -1 0.259629186852D-04 0.100000000000D+01
-.890483062013D-06 0.000000000000D+00 0.000000000000D+00 0.276033288519D-09 0.000000000000D+00  7 1 -1 24 -11 11 -24 21 2 0.14488660D+00 0.76378541D-02 0.35175681D+05 0.35175681D+05 0.35175681D+05 0.11609765D+01  1  2  4  2  7  2       -1 -.211304763558D-03 0.100000000000D+01
  </mgrwgt>
  </event>
  <event>
  9     66 0.27727860E-05 0.21972461E+03 0.75467711E-02 0.10264290E+00
        3 -1    0    0  501    0 0.00000000E+00 0.00000000E+00 0.43799902E+03 0.43799931E+03 0.50000000E+00 0.0000E+00 0.9000E+01
       -3 -1    0    0    0  502 0.00000000E+00 0.00000000E+00 -.21310831E+03 0.21310890E+03 0.50000000E+00 0.0000E+00 0.9000E+01
       25  2    1    2    0    0 0.12152327E+03 -.43108599E+02 0.19682411E+03 0.38191657E+03 0.30082268E+03 0.0000E+00 0.0000E+00
       23  2    1    2    0    0 -.75014112E+02 0.98211696E+02 -.51485828E+02 0.16182029E+03 0.90897542E+02 0.0000E+00 0.0000E+00
       24  1    3    3    0    0 -.58812684E+02 0.11457828E+02 0.36610274E+01 0.10035354E+03 0.80419002E+02 0.0000E+00 0.9000E+01
      -11  1    4    4    0    0 0.14694127E+02 0.23212402E+02 -.33807171E+02 0.43562115E+02 0.51099893E-03 0.0000E+00 0.9000E+01
       11  1    4    4    0    0 -.89708240E+02 0.74999293E+02 -.17678657E+02 0.11825818E+03 0.51099893E-03 0.0000E+00 0.9000E+01
      -24  1    3    3    0    0 0.18033595E+03 -.54566427E+02 0.19316308E+03 0.28156304E+03 0.80419002E+02 0.0000E+00 0.9000E+01
       21  1    1    2  501  502 -.46509158E+02 -.55103096E+02 0.79552427E+02 0.10737134E+03 0.75000000E+00 0.0000E+00 0.9000E+01
#aMCatNLO 2  0  0  2  1 0.72107232D+02 0.00000000D+00  -5  7  0 0.00000000D+00 0.00000000D+00 0.00000000D+00 0.00000000D+00 0.00000000D+00
  <mgrwgt>
 0.1482729779D-04    1    2    0
 0.259483676955294D+03 0.000000000000000D+00 0.000000000000000D+00 0.259483676955294D+03
 0.259483676955294D+03 0.000000000000000D+00 0.000000000000000D+00 -.259483676955294D+03
 0.108172118529189D+03 -.682356077423483D+02 0.293741529797458D+00 -.240376127073466D+02
 0.513275391646974D+02 0.997095806041666D+01 0.176164882445725D+02 -.471673151026195D+02
 0.128929650660363D+03 -.101149432276106D+03 0.614440027753633D+02 -.511496010987933D+02
 0.230538045556338D+03 0.159414081958038D+03 -.793542325497333D+02 0.122354528908759D+03
 0.000000000000000D+00 -.000000000000000D+00 -.000000000000000D+00 0.000000000000000D+00
 0.333040327845147D+03 0.000000000000000D+00 0.000000000000000D+00 0.333040327845147D+03
 0.280267881927642D+03 0.000000000000000D+00 0.000000000000000D+00 -.280267881927642D+03
 0.103127282642395D+03 -.588126841833037D+02 0.114578281240565D+02 -.240376127073466D+02
 0.545846922031100D+02 0.146941274334159D+02 0.232124024583626D+02 -.471673151026195D+02
 0.127627363562700D+03 -.897082397305701D+02 0.749992930756181D+02 -.511496010987933D+02
 0.238613490944626D+03 0.180335954152399D+03 -.545664274244681D+02 0.122354528908759D+03
 0.893553804199582D+02 -.465091576719412D+02 -.551030962335690D+02 0.527724459175050D+02
0.137370335080D-05 0.000000000000D+00 0.000000000000D+00 0.319969347122D-06 0.440383149466D-09  7 3 -3 24 -11 11 -24 21 2 0.67384168D-01 0.32785784D-01 0.68029982D+05 0.68029982D+05 0.68029982D+05 0.11357151D+01  1  2  1  2  7  2       -3 0.148272977922D-04 0.100000000000D+01
  </mgrwgt>
  </event>
  <event>
  8     66 0.27727860E-05 0.23256977E+03 0.75467711E-02 0.97667276E-01
        1 -1    0    0  501    0 0.00000000E+00 0.00000000E+00 0.57315179E+03 0.57315188E+03 0.32000000E+00 0.0000E+00 0.9000E+01
       -1 -1    0    0    0  501 0.00000000E+00 0.00000000E+00 -.17143809E+03 0.17143839E+03 0.32000000E+00 0.0000E+00 0.9000E+01
       25  2    1    2    0    0 -.17171685E+03 0.10344636E+02 0.42688768E+03 0.54941066E+03 0.30004215E+03 0.0000E+00 0.0000E+00
       23  2    1    2    0    0 0.17171685E+03 -.10344636E+02 -.25173988E+02 0.19517961E+03 0.88699846E+02 0.0000E+00 0.0000E+00
       24  1    3    3    0    0 -.43039217E+02 0.82489259E+02 0.33725887E+03 0.35898136E+03 0.80419002E+02 0.0000E+00 0.9000E+01
      -13  1    4    4    0    0 0.57670683E+02 0.93009230E+01 -.49916747E+02 0.76838191E+02 0.10565837E+00 0.0000E+00 0.9000E+01
       13  1    4    4    0    0 0.11404617E+03 -.19645559E+02 0.24742759E+02 0.11834142E+03 0.10565837E+00 0.0000E+00 0.9000E+01
      -24  1    3    3    0    0 -.12867763E+03 -.72144623E+02 0.89628812E+02 0.19042930E+03 0.80419002E+02 0.0000E+00 0.9000E+01
#aMCatNLO 1  0  0  2  1 0.23955522D+03 0.00000000D+00  -5  7  0 0.00000000D+00 0.00000000D+00 0.00000000D+00 0.00000000D+00 0.00000000D+00
  <mgrwgt>
 0.4878802873D-03    5    2    0
 0.313464821153211D+03 0.000000000000000D+00 0.000000000000000D+00 0.313464821153211D+03
 0.313464821153211D+03 0.000000000000000D+00 0.000000000000000D+00 -.313464821153211D+03
 0.210250894059122D+03 -.430392172829164D+02 0.824892588951735D+02 0.170532608145447D+03
 0.123243828678860D+03 0.576706040363763D+02 0.930096362159210D+01 -.108520204631274D+03
 0.124697189257070D+03 0.114046245133609D+03 -.196455991702654D+02 -.464423665716919D+02
 0.168737730311372D+03 -.128677631887069D+03 -.721446233465002D+02 -.155700369424812D+02
 0.000000000000000D+00 0.000000000000000D+00 -.000000000000000D+00 -.000000000000000D+00
 0.398175018540009D+03 0.000000000000000D+00 0.000000000000000D+00 0.398175018540009D+03
 0.564729290923856D+03 0.000000000000000D+00 0.000000000000000D+00 -.564729290923856D+03
 0.260571575683393D+03 -.875592890397228D+02 0.157106112426364D+03 0.170532608145447D+03
 0.123695658322603D+03 0.343204786974000D+02 0.484364100303675D+02 -.108520204631274D+03
 0.104715537065996D+03 0.923534167445711D+02 0.167121723855416D+02 -.464423665716919D+02
 0.182156171413827D+03 -.161857487751584D+03 -.165342806958278D+02 -.155700369424812D+02
 0.291765366978047D+03 0.122742881349336D+03 -.205720414146445D+03 -.166554272383847D+03
0.937429236932D-05 0.000000000000D+00 0.000000000000D+00 0.498612721929D-06 0.000000000000D+00  7 1 -1 24 -13 13 -24 21 0 0.88177228D-01 0.26375121D-01 0.54088700D+05 0.54088700D+05 0.54088700D+05 0.11443048D+01  1  2  2  2  7  2       -1 0.509463113203D-03 0.100000000000D+01
-.464374810118D-06 0.000000000000D+00 -.359997510060D-07 0.498612721929D-06 0.000000000000D+00  7 1 -1 24 -13 13 -24 21 2 0.88177228D-01 0.26375121D-01 0.54088700D+05 0.54088700D+05 0.54088700D+05 0.11443048D+01  1  2  3  2  7  2       -1 -.330465668442D-04 0.100000000000D+01
0.587192762855D-06 0.000000000000D+00 0.000000000000D+00 0.498612721929D-06 0.000000000000D+00  7 1 -1 24 -13 13 -24 21 2 0.88177228D-01 0.26375121D-01 0.54088700D+05 0.54088700D+05 0.54088700D+05 0.11443048D+01  1  2 15  2  7  2       -1 0.417867301699D-04 0.100000000000D+01
-.186578441171D-05 0.000000000000D+00 -.288364803268D-05 0.498612721929D-06 0.000000000000D+00  7 1 -1 24 -13 13 -24 21 2 0.88177228D-01 0.58590036D-01 0.54088700D+05 0.54088700D+05 0.54088700D+05 0.11443048D+01  1  2  5  2  7  2       -1 -.336188849540D-04 0.100000000000D+01
0.204527448834D-07 0.000000000000D+00 -.249650014008D-06 0.498612721929D-06 0.000000000000D+00  7 1 21 24 -13 13 -24 1 2 0.88177228D-01 0.58590036D-01 0.54088700D+05 0.54088700D+05 0.54088700D+05 0.11443048D+01  1  2  5  4  7  2       -1 0.329589574776D-05 0.100000000000D+01
  </mgrwgt>
  </event>
  <event>
  8     66 0.27727860E-05 0.97490423E+02 0.75467711E-02 0.99182172E-01
        1 -1    0    0  501    0 0.00000000E+00 0.00000000E+00 0.10049501E+04 0.10049501E+04 0.32000000E+00 0.0000E+00 0.9000E+01
       -1 -1    0    0    0  501 0.00000000E+00 0.00000000E+00 -.12121786E+03 0.12121828E+03 0.32000000E+00 0.0000E+00 0.9000E+01
       25  2    1    2    0    0 0.18853815E+03 0.18731145E+03 0.40890121E+03 0.57276097E+03 0.30037097E+03 0.0000E+00 0.0000E+00
       23  2    1    2    0    0 -.18853815E+03 -.18731145E+03 0.47483099E+03 0.55340742E+03 0.10081220E+03 0.0000E+00 0.0000E+00
       24  1    3    3    0    0 0.19113875E+03 0.18160907E+03 0.40763674E+03 0.49208820E+03 0.80419002E+02 0.0000E+00 0.9000E+01
      -11  1    4    4    0    0 -.86430418E+02 -.11282547E+03 0.15919840E+03 0.21341025E+03 0.51099893E-03 0.0000E+00 0.9000E+01
       11  1    4    4    0    0 -.10210773E+03 -.74485977E+02 0.31563258E+03 0.33999717E+03 0.51099893E-03 0.0000E+00 0.9000E+01
      -24  1    3    3    0    0 -.26005976E+01 0.57023796E+01 0.12644708E+01 0.80672765E+02 0.80419002E+02 0.0000E+00 0.9000E+01
#aMCatNLO 1  0  0  1  2 0.56215717D+02 0.00000000D+00  -5  7  0 0.00000000D+00 0.00000000D+00 0.00000000D+00 0.00000000D+00 0.00000000D+00
  <mgrwgt>
 0.8266040576D-03    9    2    0
 0.349024589546892D+03 0.000000000000000D+00 0.000000000000000D+00 0.349024589546892D+03
 0.349024589546892D+03 0.000000000000000D+00 0.000000000000000D+00 -.349024589546892D+03
 0.277820643866565D+03 0.191138748563963D+03 0.181609066434253D+03 0.346586207218845D+02
 0.142750866190151D+03 -.864304184310504D+02 -.112825468606541D+03 -.133418964763769D+02
 0.148928466846269D+03 -.102107732592819D+03 -.744859774571787D+02 0.787752394105047D+02
 0.128549202190800D+03 -.260059754009418D+01 0.570237962946702D+01 -.100091963656012D+03
 0.000000000000000D+00 -.000000000000000D+00 -.000000000000000D+00 0.000000000000000D+00
 0.382268139799131D+03 0.000000000000000D+00 0.000000000000000D+00 0.382268139799131D+03
 0.374756354587574D+03 0.000000000000000D+00 0.000000000000000D+00 -.374756354587574D+03
 0.299446530856192D+03 0.211032234835459D+03 0.193559253866732D+03 0.346586207218845D+02
 0.132567506744097D+03 -.769425374080416D+02 -.107126017287921D+03 -.133418964763769D+02
 0.139272756173093D+03 -.921758893759973D+02 -.685198342497371D+02 0.787752394105047D+02
 0.129022325997492D+03 0.627570079161471D+01 0.110344479920905D+02 -.100091963656012D+03
 0.567153746158308D+02 -.481895088430347D+02 -.289478503211643D+02 0.751178521155760D+01
0.102261316320D-04 0.000000000000D+00 0.000000000000D+00 0.427577416635D-07 0.000000000000D+00  7 1 -1 24 -11 11 -24 21 0 0.15460774D+00 0.18648938D-01 0.97602525D+05 0.97602525D+05 0.97602525D+05 0.11225879D+01  1  2  2  1  7  1        1 0.404835105351D-03 0.100000000000D+01
-.559636346449D-06 0.000000000000D+00 -.392710380693D-07 0.427577416635D-07 0.000000000000D+00  7 1 -1 24 -11 11 -24 21 2 0.15460774D+00 0.18648938D-01 0.97602525D+05 0.97602525D+05 0.97602525D+05 0.11225879D+01  1  2  3  1  7  1        1 -.279198720307D-04 0.100000000000D+01
0.650346299040D-06 0.000000000000D+00 0.000000000000D+00 0.427577416635D-07 0.000000000000D+00  7 1 -1 24 -11 11 -24 21 2 0.15460774D+00 0.18648938D-01 0.97602525D+05 0.97602525D+05 0.97602525D+05 0.11225879D+01  1  2 15  1  7  1        1 0.324453291143D-04 0.100000000000D+01
0.129849160084D-04 0.000000000000D+00 0.000000000000D+00 0.427577416635D-07 0.000000000000D+00  7 1 -1 24 -11 11 -24 21 2 0.17455786D+00 0.18648938D-01 0.11621709D+06 0.11621709D+06 0.11621709D+06 0.11164049D+01  1  2 12  1  7  1        1 0.513297809886D-03 0.100000000000D+01
-.111860460847D-04 0.000000000000D+00 0.000000000000D+00 0.427577416635D-07 0.000000000000D+00  7 1 -1 24 -11 11 -24 21 2 0.15460774D+00 0.18648938D-01 0.97602525D+05 0.97602525D+05 0.97602525D+05 0.11225879D+01  1  2  4  1  7  1        1 -.558064137891D-03 0.100000000000D+01
-.390243101627D-04 0.000000000000D+00 -.940542729973D-05 0.427577416635D-07 0.000000000000D+00  7 1 -1 24 -11 11 -24 21 2 0.17780205D+00 0.18648938D-01 0.97602525D+05 0.97602525D+05 0.97602525D+05 0.11225879D+01  1  2  5  1  7  1        1 -.151197770384D-02 0.100000000000D+01
0.400383595949D-04 0.000000000000D+00 0.931428616146D-05 0.427577416635D-07 0.000000000000D+00  7 1 -1 24 -11 11 -24 21 2 0.15460774D+00 0.18648938D-01 0.97602525D+05 0.97602525D+05 0.97602525D+05 0.11225879D+01  1  2  6  1  7  1        1 0.199748619492D-02 0.100000000000D+01
0.248724963741D-06 0.000000000000D+00 0.000000000000D+00 0.427577416635D-07 0.000000000000D+00  7 21 -1 24 -11 11 -24 -1 2 0.17455786D+00 0.18648938D-01 0.11621709D+06 0.11621709D+06 0.11621709D+06 0.11164049D+01  1  2 12  3  7  1        1 0.115465814074D-04 0.100000000000D+01
-.782975449568D-06 0.000000000000D+00 -.202561031777D-06 0.427577416635D-07 0.000000000000D+00  7 21 -1 24 -11 11 -24 -1 2 0.17780205D+00 0.18648938D-01 0.97602525D+05 0.97602525D+05 0.97602525D+05 0.11225879D+01  1  2  5  3  7  1        1 -.350452492906D-04 0.100000000000D+01
  </mgrwgt>
  </event>
  <event>
  9     66 0.27727860E-05 0.25520058E+03 0.75467711E-02 0.96508123E-01
        1 -1    0    0  501    0 0.00000000E+00 0.00000000E+00 0.23758839E+04 0.23758839E+04 0.32000000E+00 0.0000E+00 0.9000E+01
       21 -1    0    0  502  501 0.00000000E+00 0.00000000E+00 -.88910798E+02 0.88913961E+02 0.75000000E+00 0.0000E+00 0.9000E+01
       25  2    1    2    0    0 0.99073326E+02 -.12393642E+03 0.69872942E+03 0.77685903E+03 0.30018559E+03 0.0000E+00 0.0000E+00
       23  2    1    2    0    0 0.14724345E+03 0.21382323E+03 0.10972656E+04 0.11313320E+04 0.92300238E+02 0.0000E+00 0.0000E+00
       24  1    3    3    0    0 -.64670430E+02 -.90037694E+02 0.42211820E+03 0.44377927E+03 0.80419002E+02 0.0000E+00 0.9000E+01
      -11  1    4    4    0    0 0.84109838E+02 0.16546012E+03 0.60983433E+03 0.63745543E+03 0.51099893E-03 0.0000E+00 0.9000E+01
       11  1    4    4    0    0 0.63133608E+02 0.48363118E+02 0.48743124E+03 0.49387656E+03 0.51099893E-03 0.0000E+00 0.9000E+01
      -24  1    3    3    0    0 0.16374376E+03 -.33898722E+02 0.27661122E+03 0.33307976E+03 0.80419002E+02 0.0000E+00 0.9000E+01
        1  1    1    2  502    0 -.24631677E+03 -.89886817E+02 0.49097810E+03 0.55660685E+03 0.32000000E+00 0.0000E+00 0.9000E+01
#aMCatNLO 2  0  0  2  2 0.26220525D+03 0.00000000D+00  -5  7  0 0.00000000D+00 0.00000000D+00 0.00000000D+00 0.00000000D+00 0.00000000D+00
  <mgrwgt>
 0.4661702197D-04    1    2    0
 0.294467046310433D+03 0.000000000000000D+00 0.000000000000000D+00 0.294467046310433D+03
 0.294467046310433D+03 0.000000000000000D+00 0.000000000000000D+00 -.294467046310433D+03
 0.191389939536939D+03 -.130356922028195D+03 -.114008249373815D+03 0.131181155520190D+02
 0.145240321731759D+03 0.175924117274119D+02 0.141186333626594D+03 0.291835108141255D+02
 0.799557703424626D+02 0.264207430385836D+02 0.349657248523564D+02 0.668750150197745D+02
 0.172348061009704D+03 0.863437672621992D+02 -.621438091051362D+02 -.109176641385919D+03
 0.000000000000000D+00 -.000000000000000D+00 -.000000000000000D+00 -.000000000000000D+00
 0.413492618262849D+03 0.000000000000000D+00 0.000000000000000D+00 0.413492618262849D+03
 0.510881117152369D+03 0.000000000000000D+00 0.000000000000000D+00 -.510881117152369D+03
 0.137580346846830D+03 -.646704299330851D+02 -.900376944438128D+02 0.131181155520190D+02
 0.187891436857587D+03 0.841098375647159D+02 0.165460115936765D+03 0.291835108141255D+02
 0.103909148699528D+03 0.631336075467488D+02 0.483631176383262D+02 0.668750150197745D+02
 0.215285614685548D+03 0.163743755736084D+03 -.338987222369200D+02 -.109176641385919D+03
 0.279707188325725D+03 -.246316770914464D+03 -.898868168943581D+02 -.973884988895206D+02
0.391693527083D-06 0.000000000000D+00 0.000000000000D+00 0.980375502672D-06 0.766112317023D-11  7 1 21 24 -11 11 -24 1 2 0.36552077D+00 0.13678826D-01 0.18056025D+06 0.18056025D+06 0.18056025D+06 0.11012524D+01  1  2  1  4  7  2       -1 0.466170219664D-04 0.100000000000D+01
  </mgrwgt>
  </event>
  <event>
  8     66 0.27727860E-05 0.61223460E+03 0.75467711E-02 0.87718010E-01
        1 -1    0    0  501    0 0.00000000E+00 0.00000000E+00 0.10661495E+04 0.10661495E+04 0.32000000E+00 0.0000E+00 0.9000E+01
       -1 -1    0    0    0  501 0.00000000E+00 0.00000000E+00 -.37846441E+03 0.37846455E+03 0.32000000E+00 0.0000E+00 0.9000E+01
       25  2    1    2    0    0 -.18086218E+03 0.55736575E+03 0.23658569E+03 0.69953428E+03 0.30001285E+03 0.0000E+00 0.0000E+00
       23  2    1    2    0    0 0.18086218E+03 -.55736575E+03 0.45109937E+03 0.74507980E+03 0.91024980E+02 0.0000E+00 0.0000E+00
       24  1    3    3    0    0 -.20946598E+03 0.37273979E+03 0.78873970E+02 0.44215299E+03 0.80419002E+02 0.0000E+00 0.9000E+01
      -13  1    4    4    0    0 0.55078748E+02 -.16090089E+03 0.81211522E+02 0.18846243E+03 0.10565837E+00 0.0000E+00 0.9000E+01
       13  1    4    4    0    0 0.12578343E+03 -.39646487E+03 0.36988785E+03 0.55661737E+03 0.10565837E+00 0.0000E+00 0.9000E+01
      -24  1    3    3    0    0 0.28603805E+02 0.18462596E+03 0.15771172E+03 0.25738129E+03 0.80419002E+02 0.0000E+00 0.9000E+01
#aMCatNLO 1  0  0  2  2 0.58011982D+03 0.00000000D+00  -5  7  0 0.00000000D+00 0.00000000D+00 0.00000000D+00 0.00000000D+00 0.00000000D+00
  <mgrwgt>
 0.8134119656D-03    3    2    0
 0.635216316939646D+03 0.000000000000000D+00 0.000000000000000D+00 0.635216316939646D+03
 0.635216316939646D+03 0.000000000000000D+00 0.000000000000000D+00 -.635216316939646D+03
 0.460079482626620D+03 -.209465981104606D+03 0.372739794550048D+03 -.149649466080841D+03
 0.170341243701905D+03 0.550786528741869D+02 -.160900569664810D+03 -.966891850293342D+01
 0.432711950196138D+03 0.125783523469968D+03 -.396465183860933D+03 0.119304212214579D+03
 0.207299957354630D+03 0.286038047604509D+02 0.184625958975695D+03 0.400141723691953D+02
 0.000000000000000D+00 0.000000000000000D+00 0.000000000000000D+00 0.000000000000000D+00
 0.991743083357091D+03 0.000000000000000D+00 0.000000000000000D+00 0.991743083357091D+03
 0.985032210882211D+03 0.000000000000000D+00 0.000000000000000D+00 -.985032210882211D+03
 0.411203898716294D+03 -.309031530006701D+03 0.211485179453660D+03 -.149649466080841D+03
 0.236562614586640D+03 0.857988236115905D+01 -.236209162086739D+03 -.966891850293342D+01
 0.599556402490181D+03 0.782148339173192D+01 -.587514433109842D+03 0.119304212214579D+03
 0.149293740996849D+03 -.121457929842801D+02 0.118628625840709D+03 0.400141723691953D+02
 0.580158637449339D+03 0.304775957238090D+03 0.493609789902211D+03 0.671087247488031D+01
0.165665051932D-03 0.000000000000D+00 0.000000000000D+00 0.154873235429D-04 0.000000000000D+00  7 1 -1 24 -13 13 -24 21 0 0.16402301D+00 0.58225308D-01 0.37483121D+06 0.37483121D+06 0.37483121D+06 0.10774682D+01  1  2  2  2  7  2       -1 0.808551171474D-03 0.100000000000D+01
-.918841845610D-05 0.000000000000D+00 -.636197420027D-06 0.154873235429D-04 0.000000000000D+00  7 1 -1 24 -13 13 -24 21 2 0.16402301D+00 0.58225308D-01 0.37483121D+06 0.37483121D+06 0.37483121D+06 0.10774682D+01  1  2  3  2  7  2       -1 -.520626543880D-04 0.100000000000D+01
0.100462888580D-04 0.000000000000D+00 0.000000000000D+00 0.154873235429D-04 0.000000000000D+00  7 1 -1 24 -13 13 -24 21 2 0.16402301D+00 0.58225308D-01 0.37483121D+06 0.37483121D+06 0.37483121D+06 0.10774682D+01  1  2 15  2  7  2       -1 0.569234484904D-04 0.100000000000D+01
  </mgrwgt>
  </event>
  <event>
  8     66 0.27727860E-05 0.33434636E+03 0.75467711E-02 0.87253607E-01
        1 -1    0    0  501    0 0.00000000E+00 0.00000000E+00 0.26872489E+04 0.26872489E+04 0.32000000E+00 0.0000E+00 0.9000E+01
       -1 -1    0    0    0  501 0.00000000E+00 0.00000000E+00 -.44892487E+03 0.44892499E+03 0.32000000E+00 0.0000E+00 0.9000E+01
       25  2    1    2    0    0 0.94581487E+03 0.10788709E+03 0.18530819E+04 0.21050522E+04 0.30187238E+03 0.0000E+00 0.0000E+00
       23  2    1    2    0    0 -.94581487E+03 -.10788709E+03 0.38524208E+03 0.10311216E+04 0.92709208E+02 0.0000E+00 0.0000E+00
       24  1    3    3    0    0 0.42482241E+03 0.14554148E+03 0.68552668E+03 0.82345033E+03 0.80419002E+02 0.0000E+00 0.9000E+01
      -11  1    4    4    0    0 -.86765449E+03 -.82476154E+02 0.37300130E+03 0.94802774E+03 0.51099893E-03 0.0000E+00 0.9000E+01
       11  1    4    4    0    0 -.78160381E+02 -.25410933E+02 0.12240788E+02 0.83093908E+02 0.51099893E-03 0.0000E+00 0.9000E+01
      -24  1    3    3    0    0 0.52099246E+03 -.37654394E+02 0.11675552E+04 0.12816019E+04 0.80419002E+02 0.0000E+00 0.9000E+01
#aMCatNLO 1  0  0  1  2 0.85073688D+02 0.00000000D+00  -5  7  0 0.00000000D+00 0.00000000D+00 0.00000000D+00 0.00000000D+00 0.00000000D+00
  <mgrwgt>
 0.1780908988D-02    9    2    0
 0.109835015543603D+04 0.000000000000000D+00 0.000000000000000D+00 0.109835015543603D+04
 0.109835015543603D+04 0.000000000000000D+00 0.000000000000000D+00 -.109835015543603D+04
 0.477103128855226D+03 0.424822405941945D+03 0.145541480097379D+03 0.139655936464720D+03
 0.973406365620892D+03 -.867654486311152D+03 -.824761538608433D+02 -.433466641230588D+03
 0.106158356710259D+03 -.781603814661058D+02 -.254109327334239D+02 -.671925290944824D+02
 0.640032459685685D+03 0.520992461835312D+03 -.376543935031119D+02 0.361003233860350D+03
 0.000000000000000D+00 0.000000000000000D+00 0.000000000000000D+00 0.000000000000000D+00
 0.122289650839360D+04 0.000000000000000D+00 0.000000000000000D+00 0.122289650839360D+04
 0.111379799997766D+04 0.000000000000000D+00 0.000000000000000D+00 -.111379799997766D+04
 0.466123594436955D+03 0.418049986112475D+03 0.128586227326174D+03 0.139655936464720D+03
 0.989566620561011D+03 -.881748740479366D+03 -.117762159167812D+03 -.433466641230588D+03
 0.108274656267766D+03 -.797000223110095D+02 -.292655371967534D+02 -.671925290944824D+02
 0.634382186916963D+03 0.511842094473483D+03 -.605630133872637D+02 0.361003233860350D+03
 0.138347450188565D+03 0.315566822044171D+02 0.790044824256554D+02 0.109098508415932D+03
0.335034259840D-02 0.000000000000D+00 0.000000000000D+00 0.159851329856D-05 0.000000000000D+00  7 1 -1 24 -11 11 -24 21 0 0.41342291D+00 0.69065375D-01 0.93941094D+06 0.93941094D+06 0.93941094D+06 0.10496757D+01  1  2  2  1  7  1        1 0.850731593676D-03 0.100000000000D+01
-.182590681917D-03 0.000000000000D+00 -.128661977433D-04 0.159851329856D-05 0.000000000000D+00  7 1 -1 24 -11 11 -24 21 2 0.41342291D+00 0.69065375D-01 0.93941094D+06 0.93941094D+06 0.93941094D+06 0.10496757D+01  1  2  3  1  7  1        1 -.510848599542D-04 0.100000000000D+01
0.207114624884D-03 0.000000000000D+00 0.000000000000D+00 0.159851329856D-05 0.000000000000D+00  7 1 -1 24 -11 11 -24 21 2 0.41342291D+00 0.69065375D-01 0.93941094D+06 0.93941094D+06 0.93941094D+06 0.10496757D+01  1  2 15  1  7  1        1 0.579461202269D-04 0.100000000000D+01
0.121082770018D-01 0.000000000000D+00 0.000000000000D+00 0.159851329856D-05 0.000000000000D+00  7 1 -1 24 -11 11 -24 21 2 0.46300210D+00 0.69065375D-01 0.10260820D+07 0.10260820D+07 0.10260820D+07 0.10471204D+01  1  2 12  1  7  1        1 0.193822897766D-02 0.100000000000D+01
-.123260811687D-01 0.000000000000D+00 0.000000000000D+00 0.159851329856D-05 0.000000000000D+00  7 1 -1 24 -11 11 -24 21 2 0.41342291D+00 0.69065375D-01 0.93941094D+06 0.93941094D+06 0.93941094D+06 0.10496757D+01  1  2  4  1  7  1        1 -.344856661731D-02 0.100000000000D+01
-.205772007834D-01 0.000000000000D+00 -.264000720210D-02 0.159851329856D-05 0.000000000000D+00  7 1 -1 24 -11 11 -24 21 2 0.46206575D+00 0.69065375D-01 0.93941094D+06 0.93941094D+06 0.93941094D+06 0.10496757D+01  1  2  5  1  7  1        1 -.336922386125D-02 0.100000000000D+01
0.207585539973D-01 0.000000000000D+00 0.262375795281D-02 0.159851329856D-05 0.000000000000D+00  7 1 -1 24 -11 11 -24 21 2 0.41342291D+00 0.69065375D-01 0.93941094D+06 0.93941094D+06 0.93941094D+06 0.10496757D+01  1  2  6  1  7  1        1 0.580778719195D-02 0.100000000000D+01
0.218793003959D-03 0.000000000000D+00 0.000000000000D+00 0.159851329856D-05 0.000000000000D+00  7 21 -1 24 -11 11 -24 -1 2 0.46300210D+00 0.69065375D-01 0.10260820D+07 0.10260820D+07 0.10260820D+07 0.10471204D+01  1  2 12  3  7  1        1 0.724083897140D-05 0.100000000000D+01
-.355555446122D-03 0.000000000000D+00 -.469787986595D-04 0.159851329856D-05 0.000000000000D+00  7 21 -1 24 -11 11 -24 -1 2 0.46206575D+00 0.69065375D-01 0.93941094D+06 0.93941094D+06 0.93941094D+06 0.10496757D+01  1  2  5  3  7  1        1 -.121503955335D-04 0.100000000000D+01
  </mgrwgt>
  </event>
  <event>
  8     66 0.27727860E-05 0.27117770E+03 0.75467711E-02 0.92127481E-01
        1 -1    0    0  501    0 0.00000000E+00 0.00000000E+00 0.20487764E+04 0.20487764E+04 0.32000000E+00 0.0000E+00 0.9000E+01
       -1 -1    0    0    0  501 0.00000000E+00 0.00000000E+00 -.92561915E+02 0.92562468E+02 0.32000000E+00 0.0000E+00 0.9000E+01
       25  2    1    2    0    0 0.26134534E+02 0.19290932E+03 0.18783074E+04 0.19122203E+04 0.30108238E+03 0.0000E+00 0.0000E+00
       23  2    1    2    0    0 -.26134534E+02 -.19290932E+03 0.77907071E+02 0.22911862E+03 0.92351580E+02 0.0000E+00 0.0000E+00
       24  1    3    3    0    0 -.22096353E+02 -.30432605E+02 0.90011365E+03 0.90448117E+03 0.80419002E+02 0.0000E+00 0.9000E+01
      -13  1    4    4    0    0 -.43908596E+02 -.46846073E+02 0.44821811E+02 0.78304056E+02 0.10565837E+00 0.0000E+00 0.9000E+01
       13  1    4    4    0    0 0.17774063E+02 -.14606324E+03 0.33085260E+02 0.15081457E+03 0.10565837E+00 0.0000E+00 0.9000E+01
      -24  1    3    3    0    0 0.48230887E+02 0.22334192E+03 0.97819379E+03 0.10077391E+04 0.80419002E+02 0.0000E+00 0.9000E+01
#aMCatNLO 1  0  0  2  2 0.51133813D+03 0.00000000D+00  -5  7  0 0.00000000D+00 0.00000000D+00 0.00000000D+00 0.00000000D+00 0.00000000D+00
  <mgrwgt>
 0.6808671960D-03    5    2    0
 0.435475931617969D+03 0.000000000000000D+00 0.000000000000000D+00 0.435475931617969D+03
 0.435475931617969D+03 0.000000000000000D+00 0.000000000000000D+00 -.435475931617969D+03
 0.202060938412407D+03 -.220963530111800D+02 -.304326041572520D+02 0.181513125325816D+03
 0.918468827513072D+02 -.439086770244917D+02 -.468459428810567D+02 -.656759894381198D+02
 0.296484202816885D+03 0.177741433999344D+02 -.146063372405861D+03 -.257395519750809D+03
 0.280559839255340D+03 0.482308866357373D+02 0.223341919444169D+03 0.141558383863113D+03
 0.000000000000000D+00 0.000000000000000D+00 -.000000000000000D+00 -.000000000000000D+00
 0.651909478276946D+03 0.000000000000000D+00 0.000000000000000D+00 0.651909478276946D+03
 0.949869285356442D+03 0.000000000000000D+00 0.000000000000000D+00 -.949869285356442D+03
 0.242566079523747D+03 -.139365680061195D+03 -.113116607348018D+01 0.181513125325816D+03
 0.124849191051190D+03 -.101061755276808D+03 -.325654193559837D+02 -.656759894381198D+02
 0.312893466349494D+03 -.142947779244697D+03 -.105904674615535D+03 -.257395519750809D+03
 0.329653557034017D+03 -.112711457065995D+03 0.263555692624791D+03 0.141558383863113D+03
 0.591816469674940D+03 0.496086671648695D+03 -.123954432579792D+03 -.297959807079496D+03
0.469961739829D-04 0.000000000000D+00 0.000000000000D+00 0.539299108903D-06 0.000000000000D+00  7 1 -1 24 -13 13 -24 21 0 0.31519642D+00 0.14240339D-01 0.73537347D+05 0.73537347D+05 0.73537347D+05 0.11328440D+01  1  2  2  2  7  2       -1 0.569187810164D-03 0.100000000000D+01
-.189867810079D-05 0.000000000000D+00 -.180477682471D-06 0.539299108903D-06 0.000000000000D+00  7 1 -1 24 -13 13 -24 21 2 0.31519642D+00 0.14240339D-01 0.73537347D+05 0.73537347D+05 0.73537347D+05 0.11328440D+01  1  2  3  2  7  2       -1 -.295110514021D-04 0.100000000000D+01
0.292101636750D-05 0.000000000000D+00 0.000000000000D+00 0.539299108903D-06 0.000000000000D+00  7 1 -1 24 -13 13 -24 21 2 0.31519642D+00 0.14240339D-01 0.73537347D+05 0.73537347D+05 0.73537347D+05 0.11328440D+01  1  2 15  2  7  2       -1 0.454011999884D-04 0.100000000000D+01
0.194856266649D-04 0.000000000000D+00 -.161440938199D-04 0.539299108903D-06 0.000000000000D+00  7 1 -1 24 -13 13 -24 21 2 0.31519642D+00 0.51062523D-01 0.73537347D+05 0.73537347D+05 0.73537347D+05 0.11328440D+01  1  2  5  2  7  2       -1 0.366395824086D-04 0.100000000000D+01
0.338352811435D-05 0.000000000000D+00 -.242142697550D-05 0.539299108903D-06 0.000000000000D+00  7 1 21 24 -13 13 -24 1 2 0.31519642D+00 0.51062523D-01 0.73537347D+05 0.73537347D+05 0.73537347D+05 0.11328440D+01  1  2  5  4  7  2       -1 0.591496548904D-04 0.100000000000D+01
  </mgrwgt>
  </event>
  <event>
  7     66 0.27727860E-05 0.48675444E+03 0.75467711E-02 0.88630254E-01
        1 -1    0    0  501    0 0.00000000E+00 0.00000000E+00 0.28618251E+03 0.28618269E+03 0.32000000E+00 0.0000E+00 0.9000E+01
       -1 -1    0    0    0  501 0.00000000E+00 0.00000000E+00 -.90510514E+03 0.90510520E+03 0.32000000E+00 0.0000E+00 0.9000E+01
       25  2    1    2    0    0 0.36473129E+03 0.26776301E+03 -.28902976E+03 0.61455347E+03 0.29901811E+03 0.0000E+00 0.0000E+00
       24  1    3    3    0    0 0.17420196E+03 0.13078092E+02 -.19359428E+03 0.27287968E+03 0.80419002E+02 0.0000E+00 0.9000E+01
      -13  1    1    2    0    0 -.17380118E+03 -.14268547E+03 -.80964019E+02 0.23900037E+03 0.10565837E+00 0.0000E+00 0.9000E+01
       13  1    1    2    0    0 -.19093011E+03 -.12507754E+03 -.24892886E+03 0.33773405E+03 0.10565837E+00 0.0000E+00 0.9000E+01
      -24  1    3    3    0    0 0.19052933E+03 0.25468492E+03 -.95435474E+02 0.34167379E+03 0.80419002E+02 0.0000E+00 0.9000E+01
#aMCatNLO 1  0  0  2  2 0.61275181D+03 0.00000000D+00  -5  7  0 0.00000000D+00 0.00000000D+00 0.00000000D+00 0.00000000D+00 0.00000000D+00
  <mgrwgt>
 0.7866700501D-03    5    2    0
 0.508945379696894D+03 0.000000000000000D+00 0.000000000000000D+00 0.508945379696894D+03
 0.508945379696894D+03 0.000000000000000D+00 0.000000000000000D+00 -.508945379696894D+03
 0.201650712323668D+03 0.174201981011489D+03 0.130781095167771D+02 -.606500345376014D+02
 0.230484197348386D+03 -.173801210272878D+03 -.142685455749099D+03 0.505664439394823D+02
 0.243907066164271D+03 -.190930139596982D+03 -.125077602230793D+03 -.859763463897749D+02
 0.341848783557463D+03 0.190529368858371D+03 0.254684948463114D+03 0.960599369878940D+02
 0.000000000000000D+00 0.000000000000000D+00 -.000000000000000D+00 -.000000000000000D+00
 0.652696959422516D+03 0.000000000000000D+00 0.000000000000000D+00 0.652696959422516D+03
 0.219448895153494D+04 0.000000000000000D+00 0.000000000000000D+00 -.219448895153494D+04
 0.141701520770942D+03 0.862464872104793D+02 0.499521950355302D+02 -.606500345376014D+02
 0.332303111248755D+03 -.317968717751890D+03 -.822452857259097D+02 0.505664439394823D+02
 0.361578028474925D+03 -.346035408632663D+03 -.600519317732951D+02 -.859763463897749D+02
 0.352510929852770D+03 0.126573599359885D+02 0.329255249702456D+03 0.960599369878940D+02
 0.165909232061006D+04 0.565100279238085D+03 -.236910227238781D+03 -.154179199211242D+04
0.152033850964D-03 0.000000000000D+00 0.000000000000D+00 0.179762641097D-08 0.000000000000D+00  7 1 -1 24 -13 13 -24 21 0 0.44028096D-01 0.13924696D+00 0.23692988D+06 0.23692988D+06 0.23692988D+06 0.10922178D+01  1  2  2  2  7  2       -1 0.781105178471D-03 0.100000000000D+01
-.842591482664D-05 0.000000000000D+00 -.583850019134D-06 0.179762641097D-08 0.000000000000D+00  7 1 -1 24 -13 13 -24 21 2 0.44028096D-01 0.13924696D+00 0.23692988D+06 0.23692988D+06 0.23692988D+06 0.10922178D+01  1  2  3  2  7  2       -1 -.516422082464D-04 0.100000000000D+01
0.938306909802D-05 0.000000000000D+00 0.000000000000D+00 0.179762641097D-08 0.000000000000D+00  7 1 -1 24 -13 13 -24 21 2 0.44028096D-01 0.13924696D+00 0.23692988D+06 0.23692988D+06 0.23692988D+06 0.10922178D+01  1  2 15  2  7  2       -1 0.575085813611D-04 0.100000000000D+01
-.113793495297D-03 0.000000000000D+00 -.514102850078D-04 0.179762641097D-08 0.000000000000D+00  7 1 -1 24 -13 13 -24 21 2 0.44028096D-01 0.62164093D+00 0.23692988D+06 0.23692988D+06 0.23692988D+06 0.10922178D+01  1  2  5  2  7  2       -1 -.942497578464D-07 0.100000000000D+01
-.209462018324D-04 0.000000000000D+00 -.929318008124D-05 0.179762641097D-08 0.000000000000D+00  7 1 21 24 -13 13 -24 1 2 0.44028096D-01 0.62164093D+00 0.23692988D+06 0.23692988D+06 0.23692988D+06 0.10922178D+01  1  2  5  4  7  2       -1 -.207251766171D-06 0.100000000000D+01
  </mgrwgt>
  </event>
  <event>
  8     66 0.27727860E-05 0.95857634E+02 0.75467711E-02 0.10447828E+00
        1 -1    0    0  501    0 0.00000000E+00 0.00000000E+00 0.36100376E+04 0.36100376E+04 0.32000000E+00 0.0000E+00 0.9000E+01
       -1 -1    0    0    0  501 0.00000000E+00 0.00000000E+00 -.12577825E+02 0.12581895E+02 0.32000000E+00 0.0000E+00 0.9000E+01
       25  2    1    2    0    0 0.51055019E+02 0.42588704E+02 0.23463112E+04 0.23664511E+04 0.30082246E+03 0.0000E+00 0.0000E+00
       23  2    1    2    0    0 -.51055019E+02 -.42588704E+02 0.12511486E+04 0.12561684E+04 0.90365376E+02 0.0000E+00 0.0000E+00
       24  1    3    3    0    0 -.99215769E+02 0.44829767E+02 0.89783680E+03 0.90798216E+03 0.80419002E+02 0.0000E+00 0.9000E+01
      -13  1    4    4    0    0 -.74934296E+02 -.16324895E+02 0.85548186E+03 0.85891261E+03 0.10565837E+00 0.0000E+00 0.9000E+01
       13  1    4    4    0    0 0.23879276E+02 -.26263809E+02 0.39566673E+03 0.39725581E+03 0.10565837E+00 0.0000E+00 0.9000E+01
      -24  1    3    3    0    0 0.15027079E+03 -.22410638E+01 0.14484744E+04 0.14584689E+04 0.80419002E+02 0.0000E+00 0.9000E+01
#aMCatNLO 1  0  0  1  2 0.36419801D+02 0.00000000D+00  -5  7  0 0.00000000D+00 0.00000000D+00 0.00000000D+00 0.00000000D+00 0.00000000D+00
  <mgrwgt>
 0.6927269542D-03    9    2    0
 0.213105182537088D+03 0.000000000000000D+00 0.000000000000000D+00 0.213105182537088D+03
 0.213105182537088D+03 0.000000000000000D+00 0.000000000000000D+00 -.213105182537088D+03
 0.139232016947950D+03 -.992157363204084D+02 0.448297944500383D+02 -.326322813329090D+02
 0.796602807432112D+02 -.749344285797465D+02 -.163249391459774D+02 0.215427041801684D+02
 0.368631690224970D+02 0.238793369740194D+02 -.262638247036506D+02 0.994394328213537D+01
 0.170454898360517D+03 0.150270827926135D+03 -.224103060041037D+01 0.114563387060525D+01
 0.000000000000000D+00 -.000000000000000D+00 0.000000000000000D+00 0.000000000000000D+00
 0.244724082592172D+03 0.000000000000000D+00 0.000000000000000D+00 0.244724082592172D+03
 0.224633273239112D+03 0.000000000000000D+00 0.000000000000000D+00 -.224633273239112D+03
 0.134200003236778D+03 -.967459709982240D+02 0.334331605595607D+02 -.326322813329090D+02
 0.799577547676905D+02 -.734926841613945D+02 -.229778114460322D+02 0.215427041801684D+02
 0.396230109555923D+02 0.245701957652050D+02 -.294517651295837D+02 0.994394328213537D+01
 0.173982807300451D+03 0.153381949661328D+03 -.165971781607516D+02 0.114563387060525D+01
 0.415937795707724D+02 -.771349026691405D+01 0.355935941768068D+02 0.200908093530602D+02
0.168347295337D-04 0.000000000000D+00 0.000000000000D+00 0.799215440104D-07 0.000000000000D+00  7 1 -1 24 -13 13 -24 21 0 0.55539072D+00 0.19353642D-02 0.43679680D+05 0.43679680D+05 0.43679680D+05 0.11524938D+01  1  2  2  1  7  1        1 0.300112962274D-03 0.100000000000D+01
-.934831828105D-06 0.000000000000D+00 -.646497940955D-07 0.799215440104D-07 0.000000000000D+00  7 1 -1 24 -13 13 -24 21 2 0.55539072D+00 0.19353642D-02 0.43679680D+05 0.43679680D+05 0.43679680D+05 0.11524938D+01  1  2  3  1  7  1        1 -.221354994998D-04 0.100000000000D+01
0.110551655176D-05 0.000000000000D+00 0.000000000000D+00 0.799215440104D-07 0.000000000000D+00  7 1 -1 24 -13 13 -24 21 2 0.55539072D+00 0.19353642D-02 0.43679680D+05 0.43679680D+05 0.43679680D+05 0.11524938D+01  1  2 15  1  7  1        1 0.261770730765D-04 0.100000000000D+01
0.156804129813D-04 0.000000000000D+00 0.000000000000D+00 0.799215440104D-07 0.000000000000D+00  7 1 -1 24 -13 13 -24 21 2 0.65118041D+00 0.19353642D-02 0.51967328D+05 0.51967328D+05 0.51967328D+05 0.11458241D+01  1  2 12  1  7  1        1 0.100897644448D-03 0.100000000000D+01
-.154934164127D-04 0.000000000000D+00 0.000000000000D+00 0.799215440104D-07 0.000000000000D+00  7 1 -1 24 -13 13 -24 21 2 0.55539072D+00 0.19353642D-02 0.43679680D+05 0.43679680D+05 0.43679680D+05 0.11524938D+01  1  2  4  1  7  1        1 -.366862253663D-03 0.100000000000D+01
-.376934646630D-04 0.000000000000D+00 -.771221426759D-05 0.799215440104D-07 0.000000000000D+00  7 1 -1 24 -13 13 -24 21 2 0.64423723D+00 0.19353642D-02 0.43679680D+05 0.43679680D+05 0.43679680D+05 0.11524938D+01  1  2  5  1  7  1        1 -.273787843405D-03 0.100000000000D+01
0.392164287498D-04 0.000000000000D+00 0.790587821010D-05 0.799215440104D-07 0.000000000000D+00  7 1 -1 24 -13 13 -24 21 2 0.55539072D+00 0.19353642D-02 0.43679680D+05 0.43679680D+05 0.43679680D+05 0.11524938D+01  1  2  6  1  7  1        1 0.928589734409D-03 0.100000000000D+01
0.375084730444D-06 0.000000000000D+00 0.000000000000D+00 0.799215440104D-07 0.000000000000D+00  7 21 -1 24 -13 13 -24 -1 2 0.65118041D+00 0.19353642D-02 0.51967328D+05 0.51967328D+05 0.51967328D+05 0.11458241D+01  1  2 12  3  7  1        1 0.174056386530D-06 0.100000000000D+01
-.799860873404D-06 0.000000000000D+00 -.174396373213D-06 0.799215440104D-07 0.000000000000D+00  7 21 -1 24 -13 13 -24 -1 2 0.64423723D+00 0.19353642D-02 0.43679680D+05 0.43679680D+05 0.43679680D+05 0.11524938D+01  1  2  5  3  7  1        1 -.438919833594D-06 0.100000000000D+01
  </mgrwgt>
  </event>
  <event>
  8     66 0.27727860E-05 0.18551607E+03 0.75467711E-02 0.10480793E+00
        1 -1    0    0  501    0 0.00000000E+00 0.00000000E+00 0.26880145E+03 0.26880164E+03 0.32000000E+00 0.0000E+00 0.9000E+01
       -1 -1    0    0    0  501 0.00000000E+00 0.00000000E+00 -.25427839E+03 0.25427859E+03 0.32000000E+00 0.0000E+00 0.9000E+01
       25  2    1    2    0    0 -.94687392E+02 -.49536759E+02 -.10707257E+03 0.33520747E+03 0.29913194E+03 0.0000E+00 0.0000E+00
       23  2    1    2    0    0 0.94687392E+02 0.49536759E+02 0.12159563E+03 0.18787276E+03 0.95347184E+02 0.0000E+00 0.0000E+00
       24  1    3    3    0    0 -.19805100E+02 -.14785604E+03 -.68532600E+02 0.18280477E+03 0.80419002E+02 0.0000E+00 0.9000E+01
      -13  1    4    4    0    0 0.27294883E+02 -.17541948E+02 -.13183576E+01 0.32472755E+02 0.10565837E+00 0.0000E+00 0.9000E+01
       13  1    4    4    0    0 0.67392509E+02 0.67078708E+02 0.12291399E+03 0.15540001E+03 0.10565837E+00 0.0000E+00 0.9000E+01
      -24  1    3    3    0    0 -.74882292E+02 0.98319279E+02 -.38539967E+02 0.15240270E+03 0.80419002E+02 0.0000E+00 0.9000E+01
#aMCatNLO 1  0  0  1  2 0.85902416D+00 0.00000000D+00  -5  7  0 0.00000000D+00 0.00000000D+00 0.00000000D+00 0.00000000D+00 0.00000000D+00
  <mgrwgt>
 0.4851508768D-03   10    2    0
 0.261439290547030D+03 0.000000000000000D+00 0.000000000000000D+00 0.261439290547030D+03
 0.261439290547030D+03 0.000000000000000D+00 0.000000000000000D+00 -.261439290547030D+03
 0.184778797525280D+03 -.198051220129962D+02 -.147856049647822D+03 -.736364976428760D+02
 0.325217090905941D+02 0.272948219956477D+02 -.175420022554729D+02 -.222090325501076D+01
 0.152046133970674D+03 0.673926094490768D+02 0.670787821063696D+02 0.118645269767482D+03
 0.153531940507511D+03 -.748823094317284D+02 0.983192697969249D+02 -.427878688695952D+02
 0.000000000000000D+00 0.000000000000000D+00 0.000000000000000D+00 0.000000000000000D+00
 0.262269585230069D+03 0.000000000000000D+00 0.000000000000000D+00 0.262269585230069D+03
 0.261661924746919D+03 0.000000000000000D+00 0.000000000000000D+00 -.261661924746919D+03
 0.185023637923315D+03 -.198263911629098D+02 -.148159073513415D+03 -.736364976428760D+02
 0.325473618471805D+02 0.272910795545715D+02 -.175953212158583D+02 -.222090325501076D+01
 0.151928655402308D+03 0.673751263696122D+02 0.668296987935274D+02 0.118645269767482D+03
 0.153379631555442D+03 -.748999614199542D+02 0.980677800228001D+02 -.427878688695952D+02
 0.105222324874172D+01 0.601466586803448D-01 0.856915912945636D+00 0.607660483150511D+00
0.390924086150D-05 0.000000000000D+00 0.000000000000D+00 0.470963302126D-07 0.000000000000D+00  7 1 -1 24 -13 13 -24 21 0 0.41354100D-01 0.39119782D-01 0.49384655D+05 0.49384655D+05 0.49384655D+05 0.11477687D+01  1  2  2  1  7  1        1 0.302002314568D-03 0.100000000000D+01
-.210206839160D-06 0.000000000000D+00 -.150125142349D-07 0.470963302126D-07 0.000000000000D+00  7 1 -1 24 -13 13 -24 21 2 0.41354100D-01 0.39119782D-01 0.49384655D+05 0.49384655D+05 0.49384655D+05 0.11477687D+01  1  2  3  1  7  1        1 -.213930872889D-04 0.100000000000D+01
0.247358942861D-06 0.000000000000D+00 0.000000000000D+00 0.470963302126D-07 0.000000000000D+00  7 1 -1 24 -13 13 -24 21 2 0.41354100D-01 0.39119782D-01 0.49384655D+05 0.49384655D+05 0.49384655D+05 0.11477687D+01  1  2 15  1  7  1        1 0.251741164914D-04 0.100000000000D+01
-.357867255302D-03 0.000000000000D+00 0.000000000000D+00 0.470963302126D-07 0.000000000000D+00  7 1 -1 24 -13 13 -24 21 2 0.41354100D-01 0.39119782D-01 0.49384655D+05 0.49384655D+05 0.49384655D+05 0.11477687D+01  1  2  4  1  7  1        1 -.364207247543D-01 0.100000000000D+01
-.169334106457D-02 0.000000000000D+00 -.136028670632D-03 0.470963302126D-07 0.000000000000D+00  7 1 -1 24 -13 13 -24 21 2 0.41514850D-01 0.39119782D-01 0.49384655D+05 0.49384655D+05 0.49384655D+05 0.11477687D+01  1  2  5  1  7  1        1 -.171472152442D+00 0.100000000000D+01
0.169385708153D-02 0.000000000000D+00 0.136027646919D-03 0.470963302126D-07 0.000000000000D+00  7 1 -1 24 -13 13 -24 21 2 0.41354100D-01 0.39119782D-01 0.49384655D+05 0.49384655D+05 0.49384655D+05 0.11477687D+01  1  2  6  1  7  1        1 0.172386552906D+00 0.100000000000D+01
0.357869878770D-03 0.000000000000D+00 0.000000000000D+00 0.470963302126D-07 0.448313945489D-06  7 1 -1 24 -13 13 -24 21 2 0.41485434D-01 0.39153096D-01 0.49563730D+05 0.49563730D+05 0.49563730D+05 0.11476303D+01  1  2 11  1  7  1        1 0.362104236866D-01 0.100000000000D+01
0.573034745323D-12 0.000000000000D+00 0.000000000000D+00 0.470963302126D-07 0.000000000000D+00  7 21 -1 24 -13 13 -24 -1 2 0.41503007D-01 0.39119782D-01 0.49563730D+05 0.49563730D+05 0.49563730D+05 0.11476303D+01  1  2 12  3  7  1        1 0.305980450616D-09 0.100000000000D+01
-.122388643610D-05 0.000000000000D+00 -.983780432742D-07 0.470963302126D-07 0.000000000000D+00  7 21 -1 24 -13 13 -24 -1 2 0.41514850D-01 0.39119782D-01 0.49384655D+05 0.49384655D+05 0.49384655D+05 0.11477687D+01  1  2  5  3  7  1        1 -.653364544256D-03 0.100000000000D+01
0.241042666239D-06 0.000000000000D+00 0.000000000000D+00 0.470963302126D-07 0.265089906131D-09  7 21 -1 24 -13 13 -24 -1 2 0.41485434D-01 0.39153096D-01 0.49563730D+05 0.49563730D+05 0.49563730D+05 0.11476303D+01  1  2 11  3  7  1        1 0.128632375322D-03 0.100000000000D+01
  </mgrwgt>
  </event>
  <event>
  8     66 0.27727860E-05 0.31055529E+03 0.75467711E-02 0.89204681E-01
        1 -1    0    0  501    0 0.00000000E+00 0.00000000E+00 0.20086866E+04 0.20086866E+04 0.32000000E+00 0.0000E+00 0.9000E+01
       -1 -1    0    0    0  501 0.00000000E+00 0.00000000E+00 -.30751974E+03 0.30751991E+03 0.32000000E+00 0.0000E+00 0.9000E+01
       25  2    1    2    0    0 -.15267424E+03 0.17759914E+03 0.19358658E+04 0.19728001E+04 0.29918764E+03 0.0000E+00 0.0000E+00
       23  2    1    2    0    0 0.15267424E+03 -.17759914E+03 -.23469891E+03 0.34340639E+03 0.89406334E+02 0.0000E+00 0.0000E+00
       24  1    3    3    0    0 -.18323787E+03 0.19916719E+03 0.12667358E+04 0.12978176E+04 0.80419002E+02 0.0000E+00 0.9000E+01
      -11  1    4    4    0    0 0.67571759E+00 0.92194552E+01 -.13748041E+02 0.16566942E+02 0.51099893E-03 0.0000E+00 0.9000E+01
       11  1    4    4    0    0 0.15199852E+03 -.18681860E+03 -.22095087E+03 0.32683945E+03 0.51099893E-03 0.0000E+00 0.9000E+01
      -24  1    3    3    0    0 0.30563638E+02 -.21568045E+02 0.66912995E+03 0.67498254E+03 0.80419002E+02 0.0000E+00 0.9000E+01
#aMCatNLO 1  0  0  2  2 0.70779527D+03 0.00000000D+00  -5  7  0 0.00000000D+00 0.00000000D+00 0.00000000D+00 0.00000000D+00 0.00000000D+00
  <mgrwgt>
 0.1079521050D-02    5    2    0
 0.785945931668603D+03 0.000000000000000D+00 0.000000000000000D+00 0.785945931668603D+03
 0.785945931668603D+03 0.000000000000000D+00 0.000000000000000D+00 -.785945931668603D+03
 0.541439678491070D+03 -.183237874655284D+03 0.199167187307442D+03 0.462002188611698D+03
 0.392903429743764D+02 0.675717587091059D+00 0.921945521613338D+01 -.381873814538826D+02
 0.720725131313018D+03 0.151998519012258D+03 -.186818597618514D+03 -.679293733747117D+03
 0.270436710558743D+03 0.305636380559355D+02 -.215680449050612D+02 0.255478926589301D+03
 0.000000000000000D+00 -.000000000000000D+00 -.000000000000000D+00 -.000000000000000D+00
 0.113494943461491D+04 0.000000000000000D+00 0.000000000000000D+00 0.113494943461491D+04
 0.132071341687529D+04 0.000000000000000D+00 0.000000000000000D+00 -.132071341687529D+04
 0.538936983226365D+03 0.399497144491944D+02 0.262571616836615D+03 0.462002188611698D+03
 0.445169143080269D+02 0.179888828609356D+02 0.141378799902749D+02 -.381873814538826D+02
 0.833269480032966D+03 0.473027585149539D+03 -.956187917404697D+02 -.679293733747117D+03
 0.307172842137957D+03 0.149888025631247D+03 0.123303217267359D+02 0.255478926589301D+03
 0.731766631784886D+03 -.680854208090916D+03 -.193421026813156D+03 -.185763982260376D+03
0.489171452454D-03 0.000000000000D+00 0.000000000000D+00 0.281758109543D-05 0.000000000000D+00  7 1 -1 24 -11 11 -24 21 0 0.30902872D+00 0.47310744D-01 0.96444589D+05 0.96444589D+05 0.96444589D+05 0.11230145D+01  1  2  2  2  7  2       -1 0.858426504394D-03 0.100000000000D+01
0.131156671487D-05 0.000000000000D+00 -.187854717923D-05 0.281758109543D-05 0.000000000000D+00  7 1 -1 24 -11 11 -24 21 2 0.30902872D+00 0.47310744D-01 0.96444589D+05 0.96444589D+05 0.96444589D+05 0.11230145D+01  1  2  3  2  7  2       -1 0.290270659193D-05 0.100000000000D+01
0.291305243277D-04 0.000000000000D+00 0.000000000000D+00 0.281758109543D-05 0.000000000000D+00  7 1 -1 24 -11 11 -24 21 2 0.30902872D+00 0.47310744D-01 0.96444589D+05 0.96444589D+05 0.96444589D+05 0.11230145D+01  1  2 15  2  7  2       -1 0.644705023648D-04 0.100000000000D+01
0.226560496430D-03 0.000000000000D+00 -.146508021012D-03 0.281758109543D-05 0.000000000000D+00  7 1 -1 24 -11 11 -24 21 2 0.30902872D+00 0.11883301D+00 0.96444589D+05 0.96444589D+05 0.96444589D+05 0.11230145D+01  1  2  5  2  7  2       -1 0.783543109183D-04 0.100000000000D+01
0.320168667930D-04 0.000000000000D+00 -.148638988996D-04 0.281758109543D-05 0.000000000000D+00  7 1 21 24 -11 11 -24 1 2 0.30902872D+00 0.11883301D+00 0.96444589D+05 0.96444589D+05 0.96444589D+05 0.11230145D+01  1  2  5  4  7  2       -1 0.753670257731D-04 0.100000000000D+01
  </mgrwgt>
  </event>
  <event>
  8     66 0.27727860E-05 0.25455865E+03 0.75467711E-02 0.96103356E-01
        1 -1    0    0  501    0 0.00000000E+00 0.00000000E+00 0.11119023E+04 0.11119023E+04 0.32000000E+00 0.0000E+00 0.9000E+01
       -1 -1    0    0    0  501 0.00000000E+00 0.00000000E+00 -.18217171E+03 0.18217199E+03 0.32000000E+00 0.0000E+00 0.9000E+01
       25  2    1    2    0    0 -.36248720E+03 -.38079037E+02 0.72678826E+03 0.86683654E+03 0.30056186E+03 0.0000E+00 0.0000E+00
       23  2    1    2    0    0 0.36248720E+03 0.38079037E+02 0.20294231E+03 0.42723778E+03 0.92193035E+02 0.0000E+00 0.0000E+00
       24  1    3    3    0    0 -.31553815E+03 0.29329907E+02 0.65288719E+03 0.73017359E+03 0.80419002E+02 0.0000E+00 0.9000E+01
      -11  1    4    4    0    0 0.20366539E+03 0.53150527E+02 0.15247633E+03 0.25991076E+03 0.51099893E-03 0.0000E+00 0.9000E+01
       11  1    4    4    0    0 0.15882181E+03 -.15071490E+02 0.50465971E+02 0.16732702E+03 0.51099893E-03 0.0000E+00 0.9000E+01
      -24  1    3    3    0    0 -.46949046E+02 -.67408944E+02 0.73901066E+02 0.13666295E+03 0.80419002E+02 0.0000E+00 0.9000E+01
#aMCatNLO 1  0  0  1  2 0.64628879D+02 0.00000000D+00  -5  7  0 0.00000000D+00 0.00000000D+00 0.00000000D+00 0.00000000D+00 0.00000000D+00
  <mgrwgt>
 0.6490076769D-03    9    2    0
 0.450063722020820D+03 0.000000000000000D+00 0.000000000000000D+00 0.450063722020820D+03
 0.450063722020820D+03 0.000000000000000D+00 0.000000000000000D+00 -.450063722020820D+03
 0.375379857572258D+03 -.315538152888247D+03 0.293299070410170D+02 0.184440375572803D+03
 0.216171531028519D+03 0.203665389647255D+03 0.531505266125660D+02 -.492499889122080D+02
 0.188433140573793D+03 0.158821808950221D+03 -.150714898625749D+02 -.100277273903935D+03
 0.120142914867071D+03 -.469490457092280D+02 -.674089437910082D+02 -.349131127566605D+02
 0.000000000000000D+00 0.000000000000000D+00 -.000000000000000D+00 0.000000000000000D+00
 0.493203291536933D+03 0.000000000000000D+00 0.000000000000000D+00 0.493203291536933D+03
 0.476096032466931D+03 0.000000000000000D+00 0.000000000000000D+00 -.476096032466931D+03
 0.394153770352121D+03 -.335449459877429D+03 0.484291901122290D+02 0.184440375572803D+03
 0.208816680448482D+03 0.192669027125287D+03 0.636984349279190D+02 -.492499889122080D+02
 0.179939678244730D+03 0.149290342077552D+03 -.592873574884999D+01 -.100277273903935D+03
 0.119534499458000D+03 -.531505818108690D+02 -.614603190449814D+02 -.349131127566605D+02
 0.668546955005311D+02 0.466406724854602D+02 -.447385702463167D+02 0.171072590700017D+02
0.189922594479D-04 0.000000000000D+00 0.000000000000D+00 0.107122843489D-05 0.000000000000D+00  7 1 -1 24 -11 11 -24 21 0 0.17106191D+00 0.28026443D-01 0.16480480D+06 0.16480480D+06 0.16480480D+06 0.11043404D+01  1  2  2  1  7  1        1 0.319470257222D-03 0.100000000000D+01
-.104148090830D-05 0.000000000000D+00 -.729352770567D-07 0.107122843489D-05 0.000000000000D+00  7 1 -1 24 -11 11 -24 21 2 0.17106191D+00 0.28026443D-01 0.16480480D+06 0.16480480D+06 0.16480480D+06 0.11043404D+01  1  2  3  1  7  1        1 -.213653991905D-04 0.100000000000D+01
0.121903070047D-05 0.000000000000D+00 0.000000000000D+00 0.107122843489D-05 0.000000000000D+00  7 1 -1 24 -11 11 -24 21 2 0.17106191D+00 0.28026443D-01 0.16480480D+06 0.16480480D+06 0.16480480D+06 0.11043404D+01  1  2 15  1  7  1        1 0.250077340194D-04 0.100000000000D+01
0.291619367816D-04 0.000000000000D+00 0.000000000000D+00 0.107122843489D-05 0.000000000000D+00  7 1 -1 24 -11 11 -24 21 2 0.19202130D+00 0.28026443D-01 0.19343382D+06 0.19343382D+06 0.19343382D+06 0.10989406D+01  1  2 12  1  7  1        1 0.471919411633D-03 0.100000000000D+01
-.265690695830D-04 0.000000000000D+00 0.000000000000D+00 0.107122843489D-05 0.000000000000D+00  7 1 -1 24 -11 11 -24 21 2 0.17106191D+00 0.28026443D-01 0.16480480D+06 0.16480480D+06 0.16480480D+06 0.11043404D+01  1  2  4  1  7  1        1 -.545049624278D-03 0.100000000000D+01
-.847335457571D-04 0.000000000000D+00 -.186958490490D-04 0.107122843489D-05 0.000000000000D+00  7 1 -1 24 -11 11 -24 21 2 0.19423605D+00 0.28026443D-01 0.16480480D+06 0.16480480D+06 0.16480480D+06 0.11043404D+01  1  2  5  1  7  1        1 -.135981355759D-02 0.100000000000D+01
0.865591764434D-04 0.000000000000D+00 0.185459690610D-04 0.107122843489D-05 0.000000000000D+00  7 1 -1 24 -11 11 -24 21 2 0.17106191D+00 0.28026443D-01 0.16480480D+06 0.16480480D+06 0.16480480D+06 0.11043404D+01  1  2  6  1  7  1        1 0.177571316342D-02 0.100000000000D+01
0.536077657356D-06 0.000000000000D+00 0.000000000000D+00 0.107122843489D-05 0.000000000000D+00  7 21 -1 24 -11 11 -24 -1 2 0.19202130D+00 0.28026443D-01 0.19343382D+06 0.19343382D+06 0.19343382D+06 0.10989406D+01  1  2 12  3  7  1        1 0.880221389347D-05 0.100000000000D+01
-.159036858215D-05 0.000000000000D+00 -.372088552369D-06 0.107122843489D-05 0.000000000000D+00  7 21 -1 24 -11 11 -24 -1 2 0.19423605D+00 0.28026443D-01 0.16480480D+06 0.16480480D+06 0.16480480D+06 0.11043404D+01  1  2  5  3  7  1        1 -.256765222168D-04 0.100000000000D+01
  </mgrwgt>
  </event>
  <event>
  8     66 0.27727860E-05 0.14316401E+03 0.75467711E-02 0.99219506E-01
        1 -1    0    0  501    0 0.00000000E+00 0.00000000E+00 0.13209938E+04 0.13209938E+04 0.32000000E+00 0.0000E+00 0.9000E+01
       -1 -1    0    0    0  501 0.00000000E+00 0.00000000E+00 -.41250748E+02 0.41251989E+02 0.32000000E+00 0.0000E+00 0.9000E+01
       25  2    1    2    0    0 -.47549842E+00 -.34044350E+02 0.11975079E+04 0.12343215E+04 0.29726264E+03 0.0000E+00 0.0000E+00
       23  2    1    2    0    0 0.47549842E+00 0.34044350E+02 0.82235085E+02 0.12792429E+03 0.91884555E+02 0.0000E+00 0.0000E+00
       24  1    3    3    0    0 -.40375837E+02 -.49737087E+02 0.10834887E+04 0.10883561E+04 0.80419002E+02 0.0000E+00 0.9000E+01
      -13  1    4    4    0    0 -.27721903E+02 -.18092419E+02 0.10203781E+02 0.34640552E+02 0.10565837E+00 0.0000E+00 0.9000E+01
       13  1    4    4    0    0 0.28197402E+02 0.52136769E+02 0.72031304E+02 0.93283740E+02 0.10565837E+00 0.0000E+00 0.9000E+01
      -24  1    3    3    0    0 0.39900339E+02 0.15692737E+02 0.11401919E+03 0.14596537E+03 0.80419002E+02 0.0000E+00 0.9000E+01
#aMCatNLO 1  0  0  2  2 0.27578171D+03 0.00000000D+00  -5  7  0 0.00000000D+00 0.00000000D+00 0.00000000D+00 0.00000000D+00 0.00000000D+00
  <mgrwgt>
 0.1348905701D-02    3    2    0
 0.233437042209520D+03 0.000000000000000D+00 0.000000000000000D+00 0.233437042209520D+03
 0.233437042209520D+03 0.000000000000000D+00 0.000000000000000D+00 -.233437042209520D+03
 0.205668746740720D+03 -.403758373329513D+02 -.497370908754164D+02 0.178124762406695D+03
 0.731047774847685D+02 -.277219646429256D+02 -.180924935465389D+02 -.651802335428644D+02
 0.747392580176052D+02 0.281974631553339D+02 0.521368498348893D+02 -.455259118516033D+02
 0.113361302175946D+03 0.399003388205430D+02 0.156927345870661D+02 -.674186170122277D+02
 0.000000000000000D+00 0.000000000000000D+00 0.000000000000000D+00 0.000000000000000D+00
 0.521348227898808D+03 0.000000000000000D+00 0.000000000000000D+00 0.521348227898808D+03
 0.347107833409010D+03 0.000000000000000D+00 0.000000000000000D+00 -.347107833409010D+03
 0.276130892614791D+03 -.104245203721679D+03 -.164880442807674D+03 0.178124762406695D+03
 0.102195076135094D+03 -.509604431808387D+02 -.599866982952711D+02 -.651802335428644D+02
 0.517938053799876D+02 0.114237133923838D+02 0.218972235260261D+02 -.455259118516033D+02
 0.112122757192976D+03 0.100092330033701D+02 -.381947910195529D+02 -.674186170122277D+02
 0.326213529984969D+03 0.133772700506764D+03 0.241164708596472D+03 0.174240394489799D+03
0.104532042670D-04 0.000000000000D+00 0.000000000000D+00 0.241659834940D-07 0.000000000000D+00  7 1 -1 24 -13 13 -24 21 0 0.20322991D+00 0.63463674D-02 0.20495933D+05 0.20495933D+05 0.20495933D+05 0.11830055D+01  1  2  2  2  7  2       -1 0.131077577386D-02 0.100000000000D+01
-.411947428782D-06 0.000000000000D+00 -.401430567773D-07 0.241659834940D-07 0.000000000000D+00  7 1 -1 24 -13 13 -24 21 2 0.20322991D+00 0.63463674D-02 0.20495933D+05 0.20495933D+05 0.20495933D+05 0.11830055D+01  1  2  3  2  7  2       -1 -.722926717252D-04 0.100000000000D+01
0.629224298851D-06 0.000000000000D+00 0.000000000000D+00 0.241659834940D-07 0.000000000000D+00  7 1 -1 24 -13 13 -24 21 2 0.20322991D+00 0.63463674D-02 0.20495933D+05 0.20495933D+05 0.20495933D+05 0.11830055D+01  1  2 15  2  7  2       -1 0.110422598856D-03 0.100000000000D+01
  </mgrwgt>
  </event>
  <event>
  8     66 0.27727860E-05 0.84395018E+02 0.75467711E-02 0.10692502E+00
        1 -1    0    0  501    0 0.00000000E+00 0.00000000E+00 0.75145869E+03 0.75145876E+03 0.32000000E+00 0.0000E+00 0.9000E+01
       -1 -1    0    0    0  501 0.00000000E+00 0.00000000E+00 -.99650350E+02 0.99650864E+02 0.32000000E+00 0.0000E+00 0.9000E+01
       25  2    1    2    0    0 -.19722712E+02 -.31603609E+02 0.68197170E+03 0.74608215E+03 0.30027555E+03 0.0000E+00 0.0000E+00
       23  2    1    2    0    0 0.19722712E+02 0.31603609E+02 -.30163356E+02 0.10502747E+03 0.93451425E+02 0.0000E+00 0.0000E+00
       24  1    3    3    0    0 -.32743725E+02 0.16244790E+02 0.63399585E+03 0.64012030E+03 0.80419002E+02 0.0000E+00 0.9000E+01
      -11  1    4    4    0    0 -.11395524E+02 0.35327565E+02 0.22744480E+02 0.43533966E+02 0.51099893E-03 0.0000E+00 0.9000E+01
       11  1    4    4    0    0 0.31118236E+02 -.37239562E+01 -.52907836E+02 0.61493508E+02 0.51099893E-03 0.0000E+00 0.9000E+01
      -24  1    3    3    0    0 0.13021013E+02 -.47848399E+02 0.47975850E+02 0.10596185E+03 0.80419002E+02 0.0000E+00 0.9000E+01
#aMCatNLO 1  0  0  2  1 0.10770911D+03 0.00000000D+00  -5  7  0 0.00000000D+00 0.00000000D+00 0.00000000D+00 0.00000000D+00 0.00000000D+00
  <mgrwgt>
 0.2809557274D-03    9    2    0
 0.273648258917051D+03 0.000000000000000D+00 0.000000000000000D+00 0.273648258917051D+03
 0.273648258917051D+03 0.000000000000000D+00 0.000000000000000D+00 -.273648258917051D+03
 0.240397590255248D+03 -.327437254481085D+02 0.162447903278653D+02 0.223579383390201D+03
 0.406126021358041D+02 -.113955242006817D+02 0.353275651394507D+02 -.164769117783240D+02
 0.158640667910448D+03 0.311182362648038D+02 -.372395618863571D+01 -.155514144170703D+03
 0.107645657532602D+03 0.130210133839864D+02 -.478483992786802D+02 -.515883274411740D+02
 0.000000000000000D+00 0.000000000000000D+00 0.000000000000000D+00 -.000000000000000D+00
 0.320181653750814D+03 0.000000000000000D+00 0.000000000000000D+00 0.320181653750814D+03
 0.349149303766008D+03 0.000000000000000D+00 0.000000000000000D+00 -.349149303766008D+03
 0.242443623534387D+03 -.372507271731990D+02 -.305996288545926D+02 0.223579383390201D+03
 0.346858133613116D+02 -.120983848489651D+02 0.280222431441776D+02 -.164769117783240D+02
 0.161826650602943D+03 0.281268869016480D+02 -.348151409797915D+02 -.155514144170703D+03
 0.118838435517688D+03 0.109069349479895D+02 -.698214941388653D+02 -.515883274411740D+02
 0.111536434500493D+03 0.103152901725265D+02 0.107214020829072D+03 -.289676500151940D+02
0.430587181385D-05 0.000000000000D+00 0.000000000000D+00 0.339782609685D-06 0.000000000000D+00  7 1 -1 24 -11 11 -24 21 0 0.11560907D+00 0.15330868D-01 0.15784792D+05 0.15784792D+05 0.15784792D+05 0.11941308D+01  1  2  2  2  7  2       -1 0.374889977052D-03 0.100000000000D+01
-.629675369906D-07 0.000000000000D+00 -.165356815273D-07 0.339782609685D-06 0.000000000000D+00  7 1 -1 24 -11 11 -24 21 2 0.11560907D+00 0.15330868D-01 0.15784792D+05 0.15784792D+05 0.15784792D+05 0.11941308D+01  1  2  3  2  7  2       -1 -.781741681535D-05 0.100000000000D+01
0.259175526633D-06 0.000000000000D+00 0.000000000000D+00 0.339782609685D-06 0.000000000000D+00  7 1 -1 24 -11 11 -24 21 2 0.11560907D+00 0.15330868D-01 0.15784792D+05 0.15784792D+05 0.15784792D+05 0.11941308D+01  1  2 15  2  7  2       -1 0.321766296867D-04 0.100000000000D+01
0.873249522875D-07 0.000000000000D+00 0.000000000000D+00 0.339782609685D-06 0.000000000000D+00  7 1 -1 24 -11 11 -24 21 2 0.11560907D+00 0.20569363D-01 0.36826977D+05 0.36826977D+05 0.36826977D+05 0.11591633D+01  1  2 12  2  7  2       -1 0.643258832325D-05 0.100000000000D+01
-.233458544476D-05 0.000000000000D+00 0.000000000000D+00 0.339782609685D-06 0.000000000000D+00  7 1 -1 24 -11 11 -24 21 2 0.11560907D+00 0.15330868D-01 0.15784792D+05 0.15784792D+05 0.15784792D+05 0.11941308D+01  1  2  4  2  7  2       -1 -.289838675371D-03 0.100000000000D+01
-.143234407672D-05 0.000000000000D+00 -.181599894807D-05 0.339782609685D-06 0.000000000000D+00  7 1 -1 24 -11 11 -24 21 2 0.11560907D+00 0.22811042D-01 0.15784792D+05 0.15784792D+05 0.15784792D+05 0.11941308D+01  1  2  5  2  7  2       -1 -.957261752212D-04 0.100000000000D+01
0.211898014549D-05 0.000000000000D+00 0.168148291822D-05 0.339782609685D-06 0.000000000000D+00  7 1 -1 24 -11 11 -24 21 2 0.11560907D+00 0.15330868D-01 0.15784792D+05 0.15784792D+05 0.15784792D+05 0.11941308D+01  1  2  6  2  7  2       -1 0.263071287404D-03 0.100000000000D+01
0.332608007529D-08 0.000000000000D+00 0.000000000000D+00 0.339782609685D-06 0.000000000000D+00  7 1 21 24 -11 11 -24 1 2 0.11560907D+00 0.20569363D-01 0.36826977D+05 0.36826977D+05 0.36826977D+05 0.11591633D+01  1  2 12  4  7  2       -1 0.301997639797D-05 0.100000000000D+01
-.641882468667D-08 0.000000000000D+00 -.860249264019D-07 0.339782609685D-06 0.000000000000D+00  7 1 21 24 -11 11 -24 1 2 0.11560907D+00 0.22811042D-01 0.15784792D+05 0.15784792D+05 0.15784792D+05 0.11941308D+01  1  2  5  4  7  2       -1 -.525246405538D-05 0.100000000000D+01
  </mgrwgt>
  </event>
  <event>
  8     66 0.27727860E-05 0.40480628E+03 0.75467711E-02 0.90788062E-01
        1 -1    0    0  501    0 0.00000000E+00 0.00000000E+00 0.18047139E+04 0.18047139E+04 0.32000000E+00 0.0000E+00 0.9000E+01
       -1 -1    0    0    0  501 0.00000000E+00 0.00000000E+00 -.35481819E+03 0.35481834E+03 0.32000000E+00 0.0000E+00 0.9000E+01
       25  2    1    2    0    0 0.63298524E+03 -.30299717E+01 0.16152837E+03 0.71865873E+03 0.29949869E+03 0.0000E+00 0.0000E+00
       23  2    1    2    0    0 -.63298524E+03 0.30299717E+01 0.12883673E+04 0.14408735E+04 0.12468612E+03 0.0000E+00 0.0000E+00
       24  1    3    3    0    0 0.31317206E+03 -.12658545E+03 0.62125842E+02 0.35274276E+03 0.80419002E+02 0.0000E+00 0.9000E+01
      -11  1    4    4    0    0 -.48930549E+03 -.10583138E+01 0.86542644E+03 0.99417499E+03 0.51099893E-03 0.0000E+00 0.9000E+01
       11  1    4    4    0    0 -.14367975E+03 0.40882855E+01 0.42294085E+03 0.44669850E+03 0.51099893E-03 0.0000E+00 0.9000E+01
      -24  1    3    3    0    0 0.31981318E+03 0.12355547E+03 0.99402529E+02 0.36591598E+03 0.80419002E+02 0.0000E+00 0.9000E+01
#aMCatNLO 1  0  0  2  1 0.87504763D+02 0.00000000D+00  -5  7  0 0.00000000D+00 0.00000000D+00 0.00000000D+00 0.00000000D+00 0.00000000D+00
  <mgrwgt>
 0.9019778318D-03    9    2    0
 0.800215904266815D+03 0.000000000000000D+00 0.000000000000000D+00 0.800215904266815D+03
 0.800215904266815D+03 0.000000000000000D+00 0.000000000000000D+00 -.800215904266815D+03
 0.419688835273321D+03 0.313172064638017D+03 -.126585445576636D+03 -.235734777657504D+03
 0.557458849526943D+03 -.489305488408621D+03 -.105831375142334D+01 0.267094342697683D+03
 0.219590545232609D+03 -.143679752286430D+03 0.408828544811270D+01 0.166010307693707D+03
 0.403693578500757D+03 0.319813176057034D+03 0.123555473879947D+03 -.197369872733887D+03
 0.000000000000000D+00 0.000000000000000D+00 -.000000000000000D+00 -.000000000000000D+00
 0.833781174731143D+03 0.000000000000000D+00 0.000000000000000D+00 0.833781174731143D+03
 0.860548178560833D+03 0.000000000000000D+00 0.000000000000000D+00 -.860548178560833D+03
 0.403858153267686D+03 0.298411689218542D+03 -.109607346226971D+03 -.235734777657504D+03
 0.575800477545554D+03 -.509616816539207D+03 0.223047605013993D+02 0.267094342697683D+03
 0.225241389387994D+03 -.151652444124212D+03 0.132588620939849D+02 0.166010307693707D+03
 0.397922196195510D+03 0.305445872258556D+03 0.140081443196116D+03 -.197369872733887D+03
 0.915071368952323D+02 0.574116991863211D+02 -.660377195645299D+02 -.267670038296905D+02
0.325644506213D-03 0.000000000000D+00 0.000000000000D+00 0.209211000877D-07 0.000000000000D+00  7 1 -1 24 -11 11 -24 21 0 0.27764830D+00 0.54587427D-01 0.44384178D+06 0.44384178D+06 0.44384178D+06 0.10721866D+01  1  2  2  2  7  2       -1 0.550260976323D-03 0.100000000000D+01
-.173525479316D-04 0.000000000000D+00 -.125056064802D-05 0.209211000877D-07 0.000000000000D+00  7 1 -1 24 -11 11 -24 21 2 0.27764830D+00 0.54587427D-01 0.44384178D+06 0.44384178D+06 0.44384178D+06 0.10721866D+01  1  2  3  2  7  2       -1 -.337076848248D-04 0.100000000000D+01
0.205233953843D-04 0.000000000000D+00 0.000000000000D+00 0.209211000877D-07 0.000000000000D+00  7 1 -1 24 -11 11 -24 21 2 0.27764830D+00 0.54587427D-01 0.44384178D+06 0.44384178D+06 0.44384178D+06 0.10721866D+01  1  2 15  2  7  2       -1 0.398671218702D-04 0.100000000000D+01
0.621458867504D-03 0.000000000000D+00 0.000000000000D+00 0.209211000877D-07 0.000000000000D+00  7 1 -1 24 -11 11 -24 21 2 0.27764830D+00 0.59779693D-01 0.50643392D+06 0.50643392D+06 0.50643392D+06 0.10681182D+01  1  2 12  2  7  2       -1 0.100241867093D-02 0.100000000000D+01
-.571638668805D-03 0.000000000000D+00 0.000000000000D+00 0.209211000877D-07 0.000000000000D+00  7 1 -1 24 -11 11 -24 21 2 0.27764830D+00 0.54587427D-01 0.44384178D+06 0.44384178D+06 0.44384178D+06 0.10721866D+01  1  2  4  2  7  2       -1 -.111041998891D-02 0.100000000000D+01
-.177118821445D-02 0.000000000000D+00 -.378105576434D-03 0.209211000877D-07 0.000000000000D+00  7 1 -1 24 -11 11 -24 21 2 0.27764830D+00 0.61098315D-01 0.44384178D+06 0.44384178D+06 0.44384178D+06 0.10721866D+01  1  2  5  2  7  2       -1 -.278267008820D-02 0.100000000000D+01
0.180471188672D-02 0.000000000000D+00 0.375717818236D-03 0.209211000877D-07 0.000000000000D+00  7 1 -1 24 -11 11 -24 21 2 0.27764830D+00 0.54587427D-01 0.44384178D+06 0.44384178D+06 0.44384178D+06 0.10721866D+01  1  2  6  2  7  2       -1 0.350569032957D-02 0.100000000000D+01
0.928703658026D-05 0.000000000000D+00 0.000000000000D+00 0.209211000877D-07 0.000000000000D+00  7 1 21 24 -11 11 -24 1 2 0.27764830D+00 0.59779693D-01 0.50643392D+06 0.50643392D+06 0.50643392D+06 0.10681182D+01  1  2 12  4  7  2       -1 0.124497472207D-03 0.100000000000D+01
-.303087142584D-04 0.000000000000D+00 -.680255937465D-05 0.209211000877D-07 0.000000000000D+00  7 1 21 24 -11 11 -24 1 2 0.27764830D+00 0.61098315D-01 0.44384178D+06 0.44384178D+06 0.44384178D+06 0.10721866D+01  1  2  5  4  7  2       -1 -.393958977191D-03 0.100000000000D+01
  </mgrwgt>
  </event>
  <event>
  8     66 0.27727860E-05 0.54175690E+03 0.75467711E-02 0.90682672E-01
        1 -1    0    0  501    0 0.00000000E+00 0.00000000E+00 0.29897146E+03 0.29897163E+03 0.32000000E+00 0.0000E+00 0.9000E+01
       -1 -1    0    0    0  501 0.00000000E+00 0.00000000E+00 -.16697511E+04 0.16697511E+04 0.32000000E+00 0.0000E+00 0.9000E+01
       25  2    1    2    0    0 -.62557856E+03 -.23045690E+03 -.82278816E+03 0.11008111E+04 0.30057579E+03 0.0000E+00 0.0000E+00
       23  2    1    2    0    0 0.62557856E+03 0.23045690E+03 -.54799145E+03 0.86791163E+03 0.92287804E+02 0.0000E+00 0.0000E+00
       24  1    3    3    0    0 -.35946649E+03 0.19584212E+01 -.39260991E+03 0.53835839E+03 0.80419002E+02 0.0000E+00 0.9000E+01
      -13  1    4    4    0    0 0.61686577E+03 0.23087618E+03 -.55094560E+03 0.85870149E+03 0.10565837E+00 0.0000E+00 0.9000E+01
       13  1    4    4    0    0 0.87127901E+01 -.41927408E+00 0.29541421E+01 0.92101369E+01 0.10565837E+00 0.0000E+00 0.9000E+01
      -24  1    3    3    0    0 -.26611207E+03 -.23241532E+03 -.43017825E+03 0.56245272E+03 0.80419002E+02 0.0000E+00 0.9000E+01
#aMCatNLO 1  0  0  2  1 0.39122687D+02 0.00000000D+00  -5  7  0 0.00000000D+00 0.00000000D+00 0.00000000D+00 0.00000000D+00 0.00000000D+00
  <mgrwgt>
 0.1251718652D-02    9    2    0
 0.706546609969013D+03 0.000000000000000D+00 0.000000000000000D+00 0.706546609969013D+03
 0.706546609969013D+03 0.000000000000000D+00 0.000000000000000D+00 -.706546609969013D+03
 0.369187770672804D+03 -.359466494787797D+03 0.195842118490000D+01 -.247466719261705D+02
 0.661896426649088D+03 0.616866570383826D+03 0.230876479085762D+03 0.654107434500617D+02
 0.156964072846946D+02 0.871199293115166D+01 -.419577244927339D+00 0.130499937068996D+02
 0.366312615331440D+03 -.266112068527181D+03 -.232415323025734D+03 -.537140652307908D+02
 0.000000000000000D+00 -.000000000000000D+00 -.000000000000000D+00 -.000000000000000D+00
 0.723520006111040D+03 0.000000000000000D+00 0.000000000000000D+00 0.723520006111040D+03
 0.729726636411791D+03 0.000000000000000D+00 0.000000000000000D+00 -.729726636411791D+03
 0.366395813715461D+03 -.356412797227740D+03 0.116703279611238D+02 -.247466719261705D+02
 0.673370436316991D+03 0.622409789737823D+03 0.248506001508141D+03 0.654107434500617D+02
 0.157636880496177D+02 0.884259619419405D+01 -.420974687197179D-02 0.130499937068996D+02
 0.358104750537024D+03 -.263104726343961D+03 -.222850843782709D+03 -.537140652307908D+02
 0.396119539037373D+02 -.117348623603150D+02 -.373212759396846D+02 -.620663030075022D+01
0.650544815331D-03 0.000000000000D+00 0.000000000000D+00 0.449214070977D-05 0.000000000000D+00  7 1 -1 24 -13 13 -24 21 0 0.45995624D-01 0.25688480D+00 0.48866324D+06 0.48866324D+06 0.48866324D+06 0.10692151D+01  1  2  2  2  7  2       -1 0.328790737889D-03 0.100000000000D+01
-.361363713576D-04 0.000000000000D+00 -.249826338325D-05 0.449214070977D-05 0.000000000000D+00  7 1 -1 24 -13 13 -24 21 2 0.45995624D-01 0.25688480D+00 0.48866324D+06 0.48866324D+06 0.48866324D+06 0.10692151D+01  1  2  3  2  7  2       -1 -.208793523226D-04 0.100000000000D+01
0.411542795941D-04 0.000000000000D+00 0.000000000000D+00 0.449214070977D-05 0.000000000000D+00  7 1 -1 24 -13 13 -24 21 2 0.45995624D-01 0.25688480D+00 0.48866324D+06 0.48866324D+06 0.48866324D+06 0.10692151D+01  1  2 15  2  7  2       -1 0.237786659520D-04 0.100000000000D+01
0.123484353641D-02 0.000000000000D+00 0.000000000000D+00 0.449214070977D-05 0.000000000000D+00  7 1 -1 24 -13 13 -24 21 2 0.45995624D-01 0.26831067D+00 0.51679116D+06 0.51679116D+06 0.51679116D+06 0.10674980D+01  1  2 12  2  7  2       -1 0.567205967186D-03 0.100000000000D+01
-.105026615912D-02 0.000000000000D+00 0.000000000000D+00 0.449214070977D-05 0.000000000000D+00  7 1 -1 24 -13 13 -24 21 2 0.45995624D-01 0.25688480D+00 0.48866324D+06 0.48866324D+06 0.48866324D+06 0.10692151D+01  1  2  4  2  7  2       -1 -.606836722804D-03 0.100000000000D+01
-.946014607749D-02 0.000000000000D+00 -.142168367463D-02 0.449214070977D-05 0.000000000000D+00  7 1 -1 24 -13 13 -24 21 2 0.45995624D-01 0.26878310D+00 0.48866324D+06 0.48866324D+06 0.48866324D+06 0.10692151D+01  1  2  5  2  7  2       -1 -.433501992532D-02 0.100000000000D+01
0.951621582340D-02 0.000000000000D+00 0.142022768734D-02 0.449214070977D-05 0.000000000000D+00  7 1 -1 24 -13 13 -24 21 2 0.45995624D-01 0.25688480D+00 0.48866324D+06 0.48866324D+06 0.48866324D+06 0.10692151D+01  1  2  6  2  7  2       -1 0.549840549811D-02 0.100000000000D+01
0.160467124817D-04 0.000000000000D+00 0.000000000000D+00 0.449214070977D-05 0.000000000000D+00  7 1 21 24 -13 13 -24 1 2 0.45995624D-01 0.26831067D+00 0.51679116D+06 0.51679116D+06 0.51679116D+06 0.10674980D+01  1  2 12  4  7  2       -1 0.562443720130D-04 0.100000000000D+01
-.740963376938D-04 0.000000000000D+00 -.112904024610D-04 0.449214070977D-05 0.000000000000D+00  7 1 21 24 -13 13 -24 1 2 0.45995624D-01 0.26878310D+00 0.48866324D+06 0.48866324D+06 0.48866324D+06 0.10692151D+01  1  2  5  4  7  2       -1 -.259970588327D-03 0.100000000000D+01
  </mgrwgt>
  </event>
  <event>
  9     66 -.27727860E-05 0.26515538E+03 0.75467711E-02 0.10094601E+00
        1 -1    0    0  502    0 0.00000000E+00 0.00000000E+00 0.29276561E+03 0.29276578E+03 0.32000000E+00 0.0000E+00 0.9000E+01
       -1 -1    0    0    0  501 0.00000000E+00 0.00000000E+00 -.51617815E+03 0.51617825E+03 0.32000000E+00 0.0000E+00 0.9000E+01
       25  2    1    2    0    0 0.22136347E+03 0.53041730E+02 0.94468607E+02 0.38885642E+03 0.30078195E+03 0.0000E+00 0.0000E+00
       23  2    1    2    0    0 -.16162772E+03 -.41695143E+02 -.30069078E+03 0.35689603E+03 0.95382509E+02 0.0000E+00 0.0000E+00
       24  1    3    3    0    0 0.43468818E+02 0.10420643E+03 -.42449790E+02 0.14497489E+03 0.80419002E+02 0.0000E+00 0.9000E+01
      -13  1    4    4    0    0 -.47513724E+02 -.60100210E+02 -.12374926E+03 0.14554545E+03 0.10565837E+00 0.0000E+00 0.9000E+01
       13  1    4    4    0    0 -.11411400E+03 0.18405067E+02 -.17694153E+03 0.21135058E+03 0.10565837E+00 0.0000E+00 0.9000E+01
      -24  1    3    3    0    0 0.17789466E+03 -.51164702E+02 0.13691840E+03 0.24388153E+03 0.80419002E+02 0.0000E+00 0.9000E+01
       21  1    1    2  502  501 -.59735752E+02 -.11346587E+02 -.17190369E+02 0.63191585E+02 0.75000000E+00 0.0000E+00 0.9000E+01
#aMCatNLO 2  0  0  1  2 0.60803825D+02 0.00000000D+00  -5  7  0 0.00000000D+00 0.00000000D+00 0.00000000D+00 0.00000000D+00 0.00000000D+00
  <mgrwgt>
 -.1085874872D-03    2    2    0
 0.357044122941215D+03 0.000000000000000D+00 0.000000000000000D+00 0.357044122941215D+03
 0.357044122941215D+03 0.000000000000000D+00 0.000000000000000D+00 -.357044122941215D+03
 0.133852171665275D+03 0.320918764863647D+02 0.102045423539983D+03 -.245578974448968D+01
 0.121191164039848D+03 -.574100415311747D+02 -.619800867898066D+02 -.868898970781421D+02
 0.178876834496474D+03 -.128638790937593D+03 0.156462437707320D+02 -.123305224712743D+03
 0.280168075680834D+03 0.153956955982403D+03 -.557115805209082D+02 0.212650911535375D+03
 0.000000000000000D+00 -.000000000000000D+00 -.000000000000000D+00 0.000000000000000D+00
 0.388886129095178D+03 0.000000000000000D+00 0.000000000000000D+00 0.388886129095178D+03
 0.388590673181300D+03 0.000000000000000D+00 0.000000000000000D+00 -.388590673181300D+03
 0.138642581771192D+03 0.434688182604129D+02 0.104206431958806D+03 -.245578974448968D+01
 0.115842336606290D+03 -.475136442562134D+02 -.601003023756867D+02 -.868898970781421D+02
 0.169011690758533D+03 -.114114080110055D+03 0.184051593917008D+02 -.123305224712743D+03
 0.293175650684682D+03 0.177894657934881D+03 -.511647017134086D+02 0.212650911535375D+03
 0.608045424557800D+02 -.597357518290252D+02 -.113465872614111D+02 0.295455913877744D+00
-.147250819040D-04 0.000000000000D+00 0.000000000000D+00 0.527509446575D-07 0.000000000000D+00  7 1 -1 24 -13 13 -24 21 2 0.46711604D-01 0.72964785D-01 0.88044932D+05 0.88044932D+05 0.88044932D+05 0.11262881D+01  1  2 13  1  7  1        1 -.394222074650D-03 0.100000000000D+01
0.120312762414D-04 0.000000000000D+00 0.000000000000D+00 0.527509446575D-07 0.971914941770D-10  7 1 -1 24 -13 13 -24 21 2 0.45040616D-01 0.79411572D-01 0.88044932D+05 0.88044932D+05 0.88044932D+05 0.11262881D+01  1  2  1  1  7  1        1 0.285634587481D-03 0.100000000000D+01
  </mgrwgt>
  </event>
  <event>
  8     66 0.27727860E-05 0.11492032E+03 0.75467711E-02 0.10328489E+00
        1 -1    0    0  501    0 0.00000000E+00 0.00000000E+00 0.10355825E+04 0.10355826E+04 0.32000000E+00 0.0000E+00 0.9000E+01
       -1 -1    0    0    0  501 0.00000000E+00 0.00000000E+00 -.57945090E+02 0.57945973E+02 0.32000000E+00 0.0000E+00 0.9000E+01
       25  2    1    2    0    0 0.92295039E+02 -.89836936E+02 0.58497099E+03 0.67032734E+03 0.30092960E+03 0.0000E+00 0.0000E+00
       23  2    1    2    0    0 -.92295039E+02 0.89836936E+02 0.39266643E+03 0.42320120E+03 0.91232008E+02 0.0000E+00 0.0000E+00
       24  1    3    3    0    0 0.15217340E+03 -.12175942E+03 0.30102668E+03 0.36751378E+03 0.80419002E+02 0.0000E+00 0.9000E+01
      -11  1    4    4    0    0 0.11135483E+02 0.37161107E+02 0.66385632E+02 0.76889525E+02 0.51099893E-03 0.0000E+00 0.9000E+01
       11  1    4    4    0    0 -.10343052E+03 0.52675829E+02 0.32628080E+03 0.34631167E+03 0.51099893E-03 0.0000E+00 0.9000E+01
      -24  1    3    3    0    0 -.59878359E+02 0.31922483E+02 0.28394431E+03 0.30281355E+03 0.80419002E+02 0.0000E+00 0.9000E+01
#aMCatNLO 1  0  0  1  2 0.25810482D+02 0.00000000D+00  -5  7  0 0.00000000D+00 0.00000000D+00 0.00000000D+00 0.00000000D+00 0.00000000D+00
  <mgrwgt>
 0.7666718075D-03    9    2    0
 0.244964143060786D+03 0.000000000000000D+00 0.000000000000000D+00 0.244964143060786D+03
 0.244964143060786D+03 0.000000000000000D+00 0.000000000000000D+00 -.244964143060786D+03
 0.219607355878797D+03 0.152173398095487D+03 -.121759419112898D+03 -.614660521838530D+02
 0.391482007234986D+02 0.111354831181635D+02 0.371611068276621D+02 -.525687882260138D+01
 0.121890039313206D+03 -.103430522024960D+03 0.526758291946951D+02 0.372097543134941D+02
 0.109282690206071D+03 -.598783591886907D+02 0.319224830905407D+02 0.295131766929603D+02
 0.000000000000000D+00 -.000000000000000D+00 -.000000000000000D+00 0.000000000000000D+00
 0.277693155838929D+03 0.000000000000000D+00 0.000000000000000D+00 0.277693155838929D+03
 0.250445827553187D+03 0.000000000000000D+00 0.000000000000000D+00 -.250445827553187D+03
 0.215263364644959D+03 0.154503322428388D+03 -.110552014868203D+03 -.614660521838530D+02
 0.412386398658641D+02 0.115661749240148D+02 0.392328209622761D+02 -.525687882260138D+01
 0.123666978533143D+03 -.102114891323711D+03 0.590042772465927D+02 0.372097543134941D+02
 0.110438708035163D+03 -.587011490247026D+02 0.375851005423052D+02 0.295131766929603D+02
 0.375312923129879D+02 -.525345700398910D+01 -.252701838829714D+02 0.272473282857420D+02
0.365569928158D-05 0.000000000000D+00 0.000000000000D+00 0.200309628788D-06 0.000000000000D+00  7 1 -1 24 -11 11 -24 21 0 0.15932046D+00 0.89147009D-02 0.55440788D+05 0.55440788D+05 0.55440788D+05 0.11433704D+01  1  2  2  1  7  1        1 0.433928727577D-03 0.100000000000D+01
-.202707634711D-06 0.000000000000D+00 -.140388478090D-07 0.200309628788D-06 0.000000000000D+00  7 1 -1 24 -11 11 -24 21 2 0.15932046D+00 0.89147009D-02 0.55440788D+05 0.55440788D+05 0.55440788D+05 0.11433704D+01  1  2  3  1  7  1        1 -.314551604171D-04 0.100000000000D+01
0.231379414635D-06 0.000000000000D+00 0.000000000000D+00 0.200309628788D-06 0.000000000000D+00  7 1 -1 24 -11 11 -24 21 2 0.15932046D+00 0.89147009D-02 0.55440788D+05 0.55440788D+05 0.55440788D+05 0.11433704D+01  1  2 15  1  7  1        1 0.359043043194D-04 0.100000000000D+01
0.122080163295D-04 0.000000000000D+00 0.000000000000D+00 0.200309628788D-06 0.000000000000D+00  7 1 -1 24 -11 11 -24 21 2 0.18223276D+00 0.89147009D-02 0.61844837D+05 0.61844837D+05 0.61844837D+05 0.11392613D+01  1  2 12  1  7  1        1 0.147162919178D-02 0.100000000000D+01
-.123990924245D-04 0.000000000000D+00 0.000000000000D+00 0.200309628788D-06 0.000000000000D+00  7 1 -1 24 -11 11 -24 21 2 0.15932046D+00 0.89147009D-02 0.55440788D+05 0.55440788D+05 0.55440788D+05 0.11433704D+01  1  2  4  1  7  1        1 -.192402936276D-02 0.100000000000D+01
-.223818902967D-04 0.000000000000D+00 -.342084579807D-05 0.200309628788D-06 0.000000000000D+00  7 1 -1 24 -11 11 -24 21 2 0.18259027D+00 0.89147009D-02 0.55440788D+05 0.55440788D+05 0.55440788D+05 0.11433704D+01  1  2  5  1  7  1        1 -.270931853054D-02 0.100000000000D+01
0.226688110244D-04 0.000000000000D+00 0.338930178535D-05 0.200309628788D-06 0.000000000000D+00  7 1 -1 24 -11 11 -24 21 2 0.15932046D+00 0.89147009D-02 0.55440788D+05 0.55440788D+05 0.55440788D+05 0.11433704D+01  1  2  6  1  7  1        1 0.351763310864D-02 0.100000000000D+01
0.254516216669D-06 0.000000000000D+00 0.000000000000D+00 0.200309628788D-06 0.000000000000D+00  7 21 -1 24 -11 11 -24 -1 2 0.18223276D+00 0.89147009D-02 0.61844837D+05 0.61844837D+05 0.61844837D+05 0.11392613D+01  1  2 12  3  7  1        1 0.350278935305D-04 0.100000000000D+01
-.452249943103D-06 0.000000000000D+00 -.721751830049D-07 0.200309628788D-06 0.000000000000D+00  7 21 -1 24 -11 11 -24 -1 2 0.18259027D+00 0.89147009D-02 0.55440788D+05 0.55440788D+05 0.55440788D+05 0.11433704D+01  1  2  5  3  7  1        1 -.626483646453D-04 0.100000000000D+01
  </mgrwgt>
  </event>
  <event>
  8     66 0.27727860E-05 0.48932070E+03 0.75467711E-02 0.86030621E-01
        1 -1    0    0  501    0 0.00000000E+00 0.00000000E+00 0.27423941E+04 0.27423941E+04 0.32000000E+00 0.0000E+00 0.9000E+01
       -1 -1    0    0    0  501 0.00000000E+00 0.00000000E+00 -.39133845E+03 0.39133858E+03 0.32000000E+00 0.0000E+00 0.9000E+01
       25  2    1    2    0    0 -.99699462E+03 0.12076208E+03 0.10056888E+04 0.14522124E+04 0.29820954E+03 0.0000E+00 0.0000E+00
       23  2    1    2    0    0 0.99699462E+03 -.12076208E+03 0.13453668E+04 0.16815204E+04 0.94430343E+02 0.0000E+00 0.0000E+00
       24  1    3    3    0    0 -.54581823E+03 0.16858865E+03 0.65727691E+03 0.87453978E+03 0.80419002E+02 0.0000E+00 0.9000E+01
      -13  1    4    4    0    0 0.91764038E+03 -.13670086E+03 0.12389321E+04 0.15478061E+04 0.10565837E+00 0.0000E+00 0.9000E+01
       13  1    4    4    0    0 0.79354239E+02 0.15938782E+02 0.10643476E+03 0.13371428E+03 0.10565837E+00 0.0000E+00 0.9000E+01
      -24  1    3    3    0    0 -.45117639E+03 -.47826575E+02 0.34841193E+03 0.57767258E+03 0.80419002E+02 0.0000E+00 0.9000E+01
#aMCatNLO 1  0  0  1  2 0.24504125D+03 0.00000000D+00  -5  7  0 0.00000000D+00 0.00000000D+00 0.00000000D+00 0.00000000D+00 0.00000000D+00
  <mgrwgt>
 0.7973726564D-03    9    2    0
 0.103595584153243D+04 0.000000000000000D+00 0.000000000000000D+00 0.103595584153243D+04
 0.103595584153243D+04 0.000000000000000D+00 0.000000000000000D+00 -.103595584153243D+04
 0.576896849060636D+03 -.545818230567608D+03 0.168588652797744D+03 0.175608359912985D+01
 0.935182008873337D+03 0.917641431279866D+03 -.136701050804148D+03 0.117526235488299D+03
 0.814651330048985D+02 0.793531891967236D+02 0.159389732300636D+02 0.925139947176054D+01
 0.478367692125993D+03 -.451176389908982D+03 -.478265752236590D+02 -.128533718559189D+03
 0.000000000000000D+00 -.000000000000000D+00 -.000000000000000D+00 0.000000000000000D+00
 0.117659268902638D+04 0.000000000000000D+00 0.000000000000000D+00 0.117659268902638D+04
 0.115569012288228D+04 0.000000000000000D+00 0.000000000000000D+00 -.115569012288228D+04
 0.556361418098700D+03 -.504266475413308D+03 0.220868851445962D+03 0.175608359912985D+01
 0.996569450208617D+03 0.988470531735437D+03 -.475842510891636D+02 0.117526235488299D+03
 0.893479992581799D+02 0.856161794211193D+02 0.238190344175480D+02 0.925139947176054D+01
 0.444072789742642D+03 -.417354425262655D+03 -.527195812465172D+01 -.128533718559189D+03
 0.245931154600520D+03 -.152465810480593D+03 -.191831676649694D+03 0.209025661440950D+02
0.128362201025D-02 0.000000000000D+00 0.000000000000D+00 0.280152120514D-06 0.000000000000D+00  7 1 -1 24 -13 13 -24 21 0 0.42190680D+00 0.60205927D-01 0.10469140D+07 0.10469140D+07 0.10469140D+07 0.10465411D+01  1  2  2  1  7  1        1 0.385550754789D-03 0.100000000000D+01
-.712989996128D-04 0.000000000000D+00 -.492944650479D-05 0.280152120514D-06 0.000000000000D+00  7 1 -1 24 -13 13 -24 21 2 0.42190680D+00 0.60205927D-01 0.10469140D+07 0.10469140D+07 0.10469140D+07 0.10465411D+01  1  2  3  1  7  1        1 -.234552696264D-04 0.100000000000D+01
0.774632978403D-04 0.000000000000D+00 0.000000000000D+00 0.280152120514D-06 0.000000000000D+00  7 1 -1 24 -13 13 -24 21 2 0.42190680D+00 0.60205927D-01 0.10469140D+07 0.10469140D+07 0.10469140D+07 0.10465411D+01  1  2 15  1  7  1        1 0.254831420758D-04 0.100000000000D+01
0.886759595951D-03 0.000000000000D+00 0.000000000000D+00 0.280152120514D-06 0.000000000000D+00  7 1 -1 24 -13 13 -24 21 2 0.50060255D+00 0.60205927D-01 0.13281954D+07 0.13281954D+07 0.13281954D+07 0.10397561D+01  1  2 12  1  7  1        1 0.115931072605D-03 0.100000000000D+01
-.769985350908D-03 0.000000000000D+00 0.000000000000D+00 0.280152120514D-06 0.000000000000D+00  7 1 -1 24 -13 13 -24 21 2 0.42190680D+00 0.60205927D-01 0.10469140D+07 0.10469140D+07 0.10469140D+07 0.10465411D+01  1  2  4  1  7  1        1 -.253302488281D-03 0.100000000000D+01
-.275679222721D-02 0.000000000000D+00 -.696603998428D-03 0.280152120514D-06 0.000000000000D+00  7 1 -1 24 -13 13 -24 21 2 0.49738504D+00 0.60205927D-01 0.10469140D+07 0.10469140D+07 0.10469140D+07 0.10465411D+01  1  2  5  1  7  1        1 -.386855628223D-03 0.100000000000D+01
0.284218876879D-02 0.000000000000D+00 0.687275002888D-03 0.280152120514D-06 0.000000000000D+00  7 1 -1 24 -13 13 -24 21 2 0.42190680D+00 0.60205927D-01 0.10469140D+07 0.10469140D+07 0.10469140D+07 0.10465411D+01  1  2  6  1  7  1        1 0.934996343047D-03 0.100000000000D+01
0.224657356380D-04 0.000000000000D+00 0.000000000000D+00 0.280152120514D-06 0.000000000000D+00  7 21 -1 24 -13 13 -24 -1 2 0.50060255D+00 0.60205927D-01 0.13281954D+07 0.13281954D+07 0.13281954D+07 0.10397561D+01  1  2 12  3  7  1        1 0.474422625524D-06 0.100000000000D+01
-.620403697747D-04 0.000000000000D+00 -.171185220089D-04 0.280152120514D-06 0.000000000000D+00  7 21 -1 24 -13 13 -24 -1 2 0.49738504D+00 0.60205927D-01 0.10469140D+07 0.10469140D+07 0.10469140D+07 0.10465411D+01  1  2  5  3  7  1        1 -.144969260023D-05 0.100000000000D+01
  </mgrwgt>
  </event>
  <event>
  8     66 0.27727860E-05 0.28597214E+03 0.75467711E-02 0.85879373E-01
        1 -1    0    0  501    0 0.00000000E+00 0.00000000E+00 0.80444074E+03 0.80444081E+03 0.32000000E+00 0.0000E+00 0.9000E+01
       -1 -1    0    0    0  501 0.00000000E+00 0.00000000E+00 -.11520379E+03 0.11520423E+03 0.32000000E+00 0.0000E+00 0.9000E+01
       25  2    1    2    0    0 -.27084291E+02 -.21771831E+03 0.41467392E+03 0.55669752E+03 0.29970460E+03 0.0000E+00 0.0000E+00
       23  2    1    2    0    0 0.27084291E+02 0.21771831E+03 0.27456304E+03 0.36294752E+03 0.90615777E+02 0.0000E+00 0.0000E+00
       24  1    3    3    0    0 -.53160655E+02 -.23217549E+03 0.18674373E+03 0.31316441E+03 0.80419002E+02 0.0000E+00 0.9000E+01
      -11  1    4    4    0    0 -.27866762E+02 0.39907363E+02 0.36864414E+02 0.61058489E+02 0.51099893E-03 0.0000E+00 0.9000E+01
       11  1    4    4    0    0 0.54951054E+02 0.17781095E+03 0.23769862E+03 0.30188903E+03 0.51099893E-03 0.0000E+00 0.9000E+01
      -24  1    3    3    0    0 0.26076364E+02 0.14457180E+02 0.22793019E+03 0.24353310E+03 0.80419002E+02 0.0000E+00 0.9000E+01
#aMCatNLO 1  0  0  1  1 0.11022373D+04 0.00000000D+00  -5  7  0 0.00000000D+00 0.00000000D+00 0.00000000D+00 0.00000000D+00 0.00000000D+00
  <mgrwgt>
 0.6054089309D-03    5    2    0
 0.304425450599400D+03 0.000000000000000D+00 0.000000000000000D+00 0.304425450599400D+03
 0.304425450599400D+03 0.000000000000000D+00 0.000000000000000D+00 -.304425450599400D+03
 0.261623036007617D+03 -.531606552370099D+02 -.232175491453346D+03 -.724422730085219D+02
 0.504948256997993D+02 -.278667624195613D+02 0.399073629501805D+02 -.134377586325771D+02
 0.186909594381778D+03 0.549510535345524D+02 0.177810948382938D+03 0.172871288120212D+02
 0.109823445109606D+03 0.260763641220188D+02 0.144571801202274D+02 0.685929028290778D+02
 0.000000000000000D+00 0.000000000000000D+00 -.000000000000000D+00 0.000000000000000D+00
 0.243252799005985D+04 0.000000000000000D+00 0.000000000000000D+00 0.243252799005985D+04
 0.798074928851313D+03 0.000000000000000D+00 0.000000000000000D+00 -.798074928851313D+03
 0.633171766448868D+03 -.581100983898959D+03 -.226964828699580D+03 -.724422730085219D+02
 0.155592015587878D+03 -.149460623295402D+03 0.411074694159211D+02 -.134377586325771D+02
 0.290264500955991D+03 -.226587739527269D+03 0.180589678521751D+03 0.172871288120212D+02
 0.180188345372120D+03 -.145034285562615D+03 0.161460071347203D+02 0.685929028290778D+02
 0.197138629054631D+04 0.110218363228425D+04 -.108783263728129D+02 0.163445306120854D+04
0.966568119464D-05 0.000000000000D+00 0.000000000000D+00 0.833489249325D-06 0.000000000000D+00  7 1 -1 24 -11 11 -24 21 0 0.12376015D+00 0.17723699D-01 0.81780065D+05 0.81780065D+05 0.81780065D+05 0.11289616D+01  1  2  2  1  7  1        1 0.600121120576D-03 0.100000000000D+01
-.534429329812D-06 0.000000000000D+00 -.371187608197D-07 0.833489249325D-06 0.000000000000D+00  7 1 -1 24 -11 11 -24 21 2 0.12376015D+00 0.17723699D-01 0.81780065D+05 0.81780065D+05 0.81780065D+05 0.11289616D+01  1  2  3  1  7  1        1 -.422916928764D-04 0.100000000000D+01
0.601249817583D-06 0.000000000000D+00 0.000000000000D+00 0.833489249325D-06 0.000000000000D+00  7 1 -1 24 -11 11 -24 21 2 0.12376015D+00 0.17723699D-01 0.81780065D+05 0.81780065D+05 0.81780065D+05 0.11289616D+01  1  2 15  1  7  1        1 0.475794856472D-04 0.100000000000D+01
0.628049165204D-05 0.000000000000D+00 -.554068188239D-05 0.833489249325D-06 0.000000000000D+00  7 1 -1 24 -11 11 -24 21 2 0.99311323D+00 0.17723699D-01 0.81780065D+05 0.81780065D+05 0.81780065D+05 0.11289616D+01  1  2  5  1  7  1        1 0.175489259284D-10 0.100000000000D+01
0.921383969480D-06 0.000000000000D+00 -.140025638412D-05 0.833489249325D-06 0.000000000000D+00  7 21 -1 24 -11 11 -24 -1 2 0.99311323D+00 0.17723699D-01 0.81780065D+05 0.81780065D+05 0.81780065D+05 0.11289616D+01  1  2  5  3  7  1        1 0.110463374027D-13 0.100000000000D+01
  </mgrwgt>
  </event>
  <event>
  8     66 0.27727860E-05 0.34733013E+03 0.75467711E-02 0.89115319E-01
        1 -1    0    0  501    0 0.00000000E+00 0.00000000E+00 0.30261975E+03 0.30261992E+03 0.32000000E+00 0.0000E+00 0.9000E+01
       -1 -1    0    0    0  501 0.00000000E+00 0.00000000E+00 -.39912035E+03 0.39912047E+03 0.32000000E+00 0.0000E+00 0.9000E+01
       25  2    1    2    0    0 0.47383221E+02 0.26953908E+03 -.65535928E+02 0.41144740E+03 0.30016248E+03 0.0000E+00 0.0000E+00
       23  2    1    2    0    0 -.47383221E+02 -.26953908E+03 -.30964662E+02 0.29029300E+03 0.91731842E+02 0.0000E+00 0.0000E+00
       24  1    3    3    0    0 -.14168239E+02 -.32187598E+02 -.18840340E+02 0.89771682E+02 0.80419002E+02 0.0000E+00 0.9000E+01
      -13  1    4    4    0    0 -.18110850E+02 -.63034713E+00 -.11725221E+01 0.18160017E+02 0.10565837E+00 0.0000E+00 0.9000E+01
       13  1    4    4    0    0 -.29272370E+02 -.26890873E+03 -.29792140E+02 0.27213299E+03 0.10565837E+00 0.0000E+00 0.9000E+01
      -24  1    3    3    0    0 0.61551459E+02 0.30172668E+03 -.46695589E+02 0.32167571E+03 0.80419002E+02 0.0000E+00 0.9000E+01
#aMCatNLO 1  0  0  2  1 0.69427005D+03 0.00000000D+00  -5  7  0 0.00000000D+00 0.00000000D+00 0.00000000D+00 0.00000000D+00 0.00000000D+00
  <mgrwgt>
 0.7542098083D-03    5    2    0
 0.347536768447026D+03 0.000000000000000D+00 0.000000000000000D+00 0.347536768447026D+03
 0.347536768447026D+03 0.000000000000000D+00 0.000000000000000D+00 -.347536768447026D+03
 0.880170345143195D+02 -.141682385326947D+02 -.321875976224972D+02 -.655758999154866D+01
 0.181710778593858D+02 -.181108352700178D+02 -.629991334207844D+00 0.133747049050251D+01
 0.270607314517730D+03 -.292723853530803D+02 -.268909090273257D+03 0.770371953327974D+01
 0.318278110002618D+03 0.615514591557928D+02 0.301726679229962D+03 -.248360003223359D+01
 0.000000000000000D+00 -.000000000000000D+00 -.000000000000000D+00 -.000000000000000D+00
 0.628896562469631D+03 0.000000000000000D+00 0.000000000000000D+00 0.628896562469631D+03
 0.136638550371467D+04 0.000000000000000D+00 0.000000000000000D+00 -.136638550371467D+04
 0.893581353226959D+02 0.199375963858647D+02 0.328199734587919D+02 -.655758999154866D+01
 0.167213780396484D+02 -.114016868481217D+02 0.121580094279138D+02 0.133747049050251D+01
 0.131040409694323D+03 0.479567498746884D+02 -.121706170014774D+03 0.770371953327974D+01
 0.745294511802051D+03 0.266056025925203D+03 0.691523474776999D+03 -.248360003223359D+01
 0.101286763132558D+04 -.322548685337634D+03 -.614795287648931D+03 -.737488941245039D+03
0.253190946556D-04 0.000000000000D+00 0.000000000000D+00 0.221070561932D-05 0.000000000000D+00  7 1 -1 24 -13 13 -24 21 0 0.46556908D-01 0.61403153D-01 0.12063822D+06 0.12063822D+06 0.12063822D+06 0.11150960D+01  1  2  2  2  7  2       -1 0.742602865042D-03 0.100000000000D+01
-.140661576478D-05 0.000000000000D+00 -.972319901483D-07 0.221070561932D-05 0.000000000000D+00  7 1 -1 24 -13 13 -24 21 2 0.46556908D-01 0.61403153D-01 0.12063822D+06 0.12063822D+06 0.12063822D+06 0.11150960D+01  1  2  3  2  7  2       -1 -.512989437446D-04 0.100000000000D+01
0.165334492313D-05 0.000000000000D+00 0.000000000000D+00 0.221070561932D-05 0.000000000000D+00  7 1 -1 24 -13 13 -24 21 2 0.46556908D-01 0.61403153D-01 0.12063822D+06 0.12063822D+06 0.12063822D+06 0.11150960D+01  1  2 15  2  7  2       -1 0.602970977048D-04 0.100000000000D+01
0.696666044802D-05 0.000000000000D+00 -.106168426534D-04 0.221070561932D-05 0.000000000000D+00  7 1 -1 24 -13 13 -24 21 2 0.46556908D-01 0.33267135D+00 0.12063822D+06 0.12063822D+06 0.12063822D+06 0.11150960D+01  1  2  5  2  7  2       -1 0.101203599931D-05 0.100000000000D+01
0.973960679606D-06 0.000000000000D+00 -.219446419150D-05 0.221070561932D-05 0.000000000000D+00  7 1 21 24 -13 13 -24 1 2 0.46556908D-01 0.33267135D+00 0.12063822D+06 0.12063822D+06 0.12063822D+06 0.11150960D+01  1  2  5  4  7  2       -1 0.159675326272D-05 0.100000000000D+01
  </mgrwgt>
  </event>
  <event>
  8     66 0.27727860E-05 0.54067569E+03 0.75467711E-02 0.83281888E-01
        1 -1    0    0  501    0 0.00000000E+00 0.00000000E+00 0.11922657E+04 0.11922657E+04 0.32000000E+00 0.0000E+00 0.9000E+01
       -1 -1    0    0    0  501 0.00000000E+00 0.00000000E+00 -.49848712E+03 0.49848723E+03 0.32000000E+00 0.0000E+00 0.9000E+01
       25  2    1    2    0    0 0.27356005E+03 0.42328255E+03 0.95119496E+03 0.11174854E+04 0.29999754E+03 0.0000E+00 0.0000E+00
       23  2    1    2    0    0 -.27356005E+03 -.42328255E+03 -.25741639E+03 0.57326757E+03 0.91483817E+02 0.0000E+00 0.0000E+00
       24  1    3    3    0    0 0.29509874E+03 0.30387659E+03 0.61445956E+03 0.75063441E+03 0.80419002E+02 0.0000E+00 0.9000E+01
      -13  1    4    4    0    0 -.25435935E+03 -.37984922E+03 -.20061416E+03 0.49922957E+03 0.10565837E+00 0.0000E+00 0.9000E+01
       13  1    4    4    0    0 -.19200699E+02 -.43433330E+02 -.56802229E+02 0.74038000E+02 0.10565837E+00 0.0000E+00 0.9000E+01
      -24  1    3    3    0    0 -.21538687E+02 0.11940597E+03 0.33673540E+03 0.36685098E+03 0.80419002E+02 0.0000E+00 0.9000E+01
#aMCatNLO 1  0  0  2  1 0.13832551D+04 0.00000000D+00  -5  7  0 0.00000000D+00 0.00000000D+00 0.00000000D+00 0.00000000D+00 0.00000000D+00
  <mgrwgt>
 0.1218446073D-02    5    2    0
 0.770927504124175D+03 0.000000000000000D+00 0.000000000000000D+00 0.770927504124175D+03
 0.770927504124175D+03 0.000000000000000D+00 0.000000000000000D+00 -.770927504124175D+03
 0.546639252893315D+03 0.295098735066334D+03 0.303876586524699D+03 0.336040196366057D+03
 0.637710267931036D+03 -.254359662319839D+03 -.379849671239023D+03 -.444623183458552D+03
 0.106746122899557D+03 -.192003852595461D+02 -.434328811839936D+02 -.956015940872820D+02
 0.250759364524442D+03 -.215386874869489D+02 0.119405965898317D+03 0.204184581179777D+03
 0.000000000000000D+00 0.000000000000000D+00 -.000000000000000D+00 -.000000000000000D+00
 0.136599434097620D+04 0.000000000000000D+00 0.000000000000000D+00 0.136599434097620D+04
 0.248395829253947D+04 0.000000000000000D+00 0.000000000000000D+00 -.248395829253947D+04
 0.475784913121863D+03 -.962160816812824D+02 0.312607612914610D+03 0.336040196366057D+03
 0.107726821416468D+04 -.910737428763817D+03 -.365204553407288D+03 -.444623183458552D+03
 0.159759860852678D+03 -.121200850096564D+03 -.411570441541642D+02 -.956015940872820D+02
 0.358590256011219D+03 -.254756507469113D+03 0.124609527975996D+03 0.204184581179777D+03
 0.177854938936523D+04 0.138291086801078D+04 -.308555433291538D+02 -.111796395156327D+04
0.507274821872D-03 0.000000000000D+00 0.000000000000D+00 0.288732493954D-04 0.000000000000D+00  7 1 -1 24 -13 13 -24 21 0 0.18342550D+00 0.76690338D-01 0.29233020D+06 0.29233020D+06 0.29233020D+06 0.10853850D+01  1  2  2  2  7  2       -1 0.118591795970D-02 0.100000000000D+01
-.238691514147D-04 0.000000000000D+00 -.194806888452D-05 0.288732493954D-04 0.000000000000D+00  7 1 -1 24 -13 13 -24 21 2 0.18342550D+00 0.76690338D-01 0.29233020D+06 0.29233020D+06 0.29233020D+06 0.10853850D+01  1  2  3  2  7  2       -1 -.657379177093D-04 0.100000000000D+01
0.321716330045D-04 0.000000000000D+00 0.000000000000D+00 0.288732493954D-04 0.000000000000D+00  7 1 -1 24 -13 13 -24 21 2 0.18342550D+00 0.76690338D-01 0.29233020D+06 0.29233020D+06 0.29233020D+06 0.10853850D+01  1  2 15  2  7  2       -1 0.886037432285D-04 0.100000000000D+01
0.224340839808D-03 0.000000000000D+00 -.182348506953D-03 0.288732493954D-04 0.000000000000D+00  7 1 -1 24 -13 13 -24 21 2 0.18342550D+00 0.33735441D+00 0.29233020D+06 0.29233020D+06 0.29233020D+06 0.10853850D+01  1  2  5  2  7  2       -1 0.323362332812D-05 0.100000000000D+01
0.392435961013D-04 0.000000000000D+00 -.325903297369D-04 0.288732493954D-04 0.000000000000D+00  7 1 21 24 -13 13 -24 1 2 0.18342550D+00 0.33735441D+00 0.29233020D+06 0.29233020D+06 0.29233020D+06 0.10853850D+01  1  2  5  4  7  2       -1 0.642866453498D-05 0.100000000000D+01
  </mgrwgt>
  </event>
  <event>
  8     66 0.27727860E-05 0.16979418E+03 0.75467711E-02 0.99330617E-01
        1 -1    0    0  501    0 0.00000000E+00 0.00000000E+00 0.46556330E+03 0.46556341E+03 0.32000000E+00 0.0000E+00 0.9000E+01
       -1 -1    0    0    0  501 0.00000000E+00 0.00000000E+00 -.42772625E+03 0.42772637E+03 0.32000000E+00 0.0000E+00 0.9000E+01
       25  2    1    2    0    0 -.20235794E+03 0.18955250E+03 -.25328799E+03 0.48101804E+03 0.30057389E+03 0.0000E+00 0.0000E+00
       23  2    1    2    0    0 0.20235794E+03 -.18955250E+03 0.29112503E+03 0.41227174E+03 0.91297951E+02 0.0000E+00 0.0000E+00
       24  1    3    3    0    0 -.87186300E+02 0.15253503E+02 -.22575633E+03 0.25547457E+03 0.80419002E+02 0.0000E+00 0.9000E+01
      -11  1    4    4    0    0 0.18942026E+03 -.16097847E+03 0.21041771E+03 0.32568345E+03 0.51099893E-03 0.0000E+00 0.9000E+01
       11  1    4    4    0    0 0.12937686E+02 -.28574034E+02 0.80707324E+02 0.86588286E+02 0.51099893E-03 0.0000E+00 0.9000E+01
      -24  1    3    3    0    0 -.11517164E+03 0.17429900E+03 -.27531658E+02 0.22554347E+03 0.80419002E+02 0.0000E+00 0.9000E+01
#aMCatNLO 1  0  0  2  1 0.52635174D+02 0.00000000D+00  -5  7  0 0.00000000D+00 0.00000000D+00 0.00000000D+00 0.00000000D+00 0.00000000D+00
  <mgrwgt>
 0.1020528046D-01    8    2    0
 0.446244044155692D+03 0.000000000000000D+00 0.000000000000000D+00 0.446244044155692D+03
 0.446244044155692D+03 0.000000000000000D+00 0.000000000000000D+00 -.446244044155692D+03
 0.265274997093092D+03 -.871862995214282D+02 0.152535026493791D+02 -.236789965921393D+03
 0.317055342453975D+03 0.189420257222882D+03 -.160978465894381D+03 0.196799364456585D+03
 0.832444773508385D+02 0.129376861571643D+02 -.285740341106536D+02 0.771089090893925D+02
 0.226913271413479D+03 -.115171643858618D+03 0.174298997355656D+03 -.371183076245849D+02
 0.000000000000000D+00 -.000000000000000D+00 -.000000000000000D+00 -.000000000000000D+00
 0.448587367114878D+03 0.000000000000000D+00 0.000000000000000D+00 0.448587367114878D+03
 0.888753458308016D+03 0.000000000000000D+00 0.000000000000000D+00 -.888753458308016D+03
 0.265210404238659D+03 -.829565520001865D+02 0.302995887966825D+02 -.236789965921393D+03
 0.311489944498648D+03 0.194431870855984D+03 -.143151120389247D+03 0.196799364456585D+03
 0.819733212857907D+02 0.142550260358752D+02 -.238879838911492D+02 0.771089090893925D+02
 0.235365171021063D+03 -.111485734517659D+03 0.187410538693928D+03 -.371183076245849D+02
 0.443301984378733D+03 -.142446103740138D+02 -.506710232102142D+02 -.440166091193137D+03
0.305623053187D-04 0.000000000000D+00 0.000000000000D+00 0.270238967231D-05 0.000000000000D+00  7 1 -1 24 -11 11 -24 21 0 0.71625140D-01 0.65804056D-01 0.97155552D+05 0.97155552D+05 0.97155552D+05 0.11227519D+01  1  2  2  2  7  2       -1 0.444491610866D-03 0.100000000000D+01
-.143209257180D-05 0.000000000000D+00 -.117367299664D-06 0.270238967231D-05 0.000000000000D+00  7 1 -1 24 -11 11 -24 21 2 0.71625140D-01 0.65804056D-01 0.97155552D+05 0.97155552D+05 0.97155552D+05 0.11227519D+01  1  2  3  2  7  2       -1 -.262552504810D-04 0.100000000000D+01
0.191600388457D-05 0.000000000000D+00 0.000000000000D+00 0.270238967231D-05 0.000000000000D+00  7 1 -1 24 -11 11 -24 21 2 0.71625140D-01 0.65804056D-01 0.97155552D+05 0.97155552D+05 0.97155552D+05 0.11227519D+01  1  2 15  2  7  2       -1 0.351270322204D-04 0.100000000000D+01
0.661305876557D-03 0.000000000000D+00 0.000000000000D+00 0.270238967231D-05 0.000000000000D+00  7 1 -1 24 -11 11 -24 21 2 0.71625140D-01 0.13105991D+00 0.11348932D+06 0.11348932D+06 0.11348932D+06 0.11172401D+01  1  2 12  2  7  2       -1 0.267570239497D-02 0.100000000000D+01
-.656882780326D-03 0.000000000000D+00 -.929235469709D-05 0.270238967231D-05 0.000000000000D+00  7 1 -1 24 -11 11 -24 21 2 0.71625140D-01 0.13126749D+00 0.97155552D+05 0.97155552D+05 0.97155552D+05 0.11227519D+01  1  2  5  2  7  2       -1 -.269255834268D-02 0.100000000000D+01
0.532944158456D-03 0.000000000000D+00 0.744543570791D-05 0.270238967231D-05 0.000000000000D+00  7 1 -1 24 -11 11 -24 21 2 0.71625140D-01 0.65804056D-01 0.97155552D+05 0.97155552D+05 0.97155552D+05 0.11227519D+01  1  2  6  2  7  2       -1 0.977072477591D-02 0.100000000000D+01
0.493086733087D-04 0.000000000000D+00 0.000000000000D+00 0.270238967231D-05 0.000000000000D+00  7 1 21 24 -11 11 -24 1 2 0.71625140D-01 0.13105991D+00 0.11348932D+06 0.11348932D+06 0.11348932D+06 0.11172401D+01  1  2 12  4  7  2       -1 0.131650168922D-02 0.100000000000D+01
-.485313087349D-04 0.000000000000D+00 -.694401163594D-06 0.270238967231D-05 0.000000000000D+00  7 1 21 24 -11 11 -24 1 2 0.71625140D-01 0.13126749D+00 0.97155552D+05 0.97155552D+05 0.97155552D+05 0.11227519D+01  1  2  5  4  7  2       -1 -.131845344959D-02 0.100000000000D+01
  </mgrwgt>
  </event>
  <event>
  8     66 0.27727860E-05 0.29427975E+03 0.75467711E-02 0.96515797E-01
        1 -1    0    0  501    0 0.00000000E+00 0.00000000E+00 0.37083921E+03 0.37083935E+03 0.32000000E+00 0.0000E+00 0.9000E+01
       -1 -1    0    0    0  501 0.00000000E+00 0.00000000E+00 -.60510561E+03 0.60510569E+03 0.32000000E+00 0.0000E+00 0.9000E+01
       25  2    1    2    0    0 0.78387613E+02 -.25128556E+03 -.46569111E+03 0.61351836E+03 0.30041224E+03 0.0000E+00 0.0000E+00
       23  2    1    2    0    0 -.78387613E+02 0.25128556E+03 0.23142471E+03 0.36242669E+03 0.92231546E+02 0.0000E+00 0.0000E+00
       24  1    3    3    0    0 0.53981162E+02 -.58606966E+02 -.12433777E+02 0.11388835E+03 0.80419002E+02 0.0000E+00 0.9000E+01
      -13  1    4    4    0    0 -.57607665E+02 0.13145562E+03 0.18042468E+03 0.23054783E+03 0.10565837E+00 0.0000E+00 0.9000E+01
       13  1    4    4    0    0 -.20779947E+02 0.11982994E+03 0.51000028E+02 0.13187886E+03 0.10565837E+00 0.0000E+00 0.9000E+01
      -24  1    3    3    0    0 0.24406451E+02 -.19267859E+03 -.45325733E+03 0.49963000E+03 0.80419002E+02 0.0000E+00 0.9000E+01
#aMCatNLO 1  0  0  2  1 0.21426864D+03 0.00000000D+00  -5  7  0 0.00000000D+00 0.00000000D+00 0.00000000D+00 0.00000000D+00 0.00000000D+00
  <mgrwgt>
 0.7346922159D-03    4    2    0
 0.473705600442731D+03 0.000000000000000D+00 0.000000000000000D+00 0.473705600442731D+03
 0.473705600442731D+03 0.000000000000000D+00 0.000000000000000D+00 -.473705600442731D+03
 0.114243908239100D+03 0.539811622883936D+02 -.586069661068578D+02 0.153529234062173D+02
 0.282105188463787D+03 -.576077137911675D+02 0.131455637874043D+03 0.242866432306057D+03
 0.148461352159709D+03 -.207798991437223D+02 0.119829921954961D+03 0.851455147434889D+02
 0.402600752022865D+03 0.244064506464962D+02 -.192678593722146D+03 -.343364870455763D+03
 0.000000000000000D+00 0.000000000000000D+00 0.000000000000000D+00 0.000000000000000D+00
 0.787918991499576D+03 0.000000000000000D+00 0.000000000000000D+00 0.787918991499576D+03
 0.523643842887888D+03 0.000000000000000D+00 0.000000000000000D+00 -.523643842887888D+03
 0.114134724108072D+03 0.326122017076627D+02 -.725275901675825D+02 0.153529234062173D+02
 0.283918693546986D+03 -.110569507537500D+03 0.969541366176291D+02 0.242866432306057D+03
 0.141355901545327D+03 -.478975563710590D+02 0.102164359315955D+03 0.851455147434889D+02
 0.431929465008890D+03 -.536789776087673D+02 -.243546668809635D+03 -.343364870455763D+03
 0.340224050178188D+03 0.179533839809664D+03 0.116955763043633D+03 0.264275148611688D+03
0.806372813280D-04 0.000000000000D+00 0.000000000000D+00 0.249495606105D-05 0.000000000000D+00  7 1 -1 24 -13 13 -24 21 0 0.57052204D-01 0.93093188D-01 0.86600568D+05 0.86600568D+05 0.86600568D+05 0.11268855D+01  1  2  2  2  7  2       -1 0.795918148054D-03 0.100000000000D+01
-.324543874948D-05 0.000000000000D+00 -.309668392583D-06 0.249495606105D-05 0.000000000000D+00  7 1 -1 24 -13 13 -24 21 2 0.57052204D-01 0.93093188D-01 0.86600568D+05 0.86600568D+05 0.86600568D+05 0.11268855D+01  1  2  3  2  7  2       -1 -.406785584689D-04 0.100000000000D+01
0.478659292682D-05 0.000000000000D+00 0.000000000000D+00 0.249495606105D-05 0.000000000000D+00  7 1 -1 24 -13 13 -24 21 2 0.57052204D-01 0.93093188D-01 0.86600568D+05 0.86600568D+05 0.86600568D+05 0.11268855D+01  1  2 15  2  7  2       -1 0.599954937592D-04 0.100000000000D+01
-.642591460775D-05 0.000000000000D+00 0.000000000000D+00 0.249495606105D-05 0.000000000000D+00  7 1 -1 24 -13 13 -24 21 2 0.57052204D-01 0.93093188D-01 0.86600568D+05 0.86600568D+05 0.86600568D+05 0.11268855D+01  1  2  4  2  7  2       -1 -.805428674718D-04 0.100000000000D+01
  </mgrwgt>
  </event>
  <event>
  8     66 0.27727860E-05 0.27544334E+03 0.75467711E-02 0.86996584E-01
        1 -1    0    0  501    0 0.00000000E+00 0.00000000E+00 0.30385098E+03 0.30385115E+03 0.32000000E+00 0.0000E+00 0.9000E+01
       -1 -1    0    0    0  501 0.00000000E+00 0.00000000E+00 -.47544331E+03 0.47544341E+03 0.32000000E+00 0.0000E+00 0.9000E+01
       25  2    1    2    0    0 0.70492469E+02 -.21068352E+03 -.32133175E+03 0.49258057E+03 0.30004131E+03 0.0000E+00 0.0000E+00
       23  2    1    2    0    0 -.70492469E+02 0.21068352E+03 0.14973942E+03 0.28671399E+03 0.10210918E+03 0.0000E+00 0.0000E+00
       24  1    3    3    0    0 0.12490126E+03 -.16003540E+03 -.31448237E+03 0.38285510E+03 0.80419002E+02 0.0000E+00 0.9000E+01
      -11  1    4    4    0    0 -.33553197E+02 0.13037887E+03 0.30079983E+02 0.13794663E+03 0.51099893E-03 0.0000E+00 0.9000E+01
       11  1    4    4    0    0 -.36939272E+02 0.80304650E+02 0.11965944E+03 0.14876736E+03 0.51099893E-03 0.0000E+00 0.9000E+01
      -24  1    3    3    0    0 -.54408787E+02 -.50648118E+02 -.68493841E+01 0.10972547E+03 0.80419002E+02 0.0000E+00 0.9000E+01
#aMCatNLO 1  0  0  1  1 0.10035437D+04 0.00000000D+00  -5  7  0 0.00000000D+00 0.00000000D+00 0.00000000D+00 0.00000000D+00 0.00000000D+00
  <mgrwgt>
 0.7655695919D-03    3    2    0
 0.380084228886530D+03 0.000000000000000D+00 0.000000000000000D+00 0.380084228886530D+03
 0.380084228886530D+03 0.000000000000000D+00 0.000000000000000D+00 -.380084228886530D+03
 0.321499970499282D+03 0.124901256263630D+03 -.160035404300112D+03 -.235973220156305D+03
 0.148207350271529D+03 -.335531974392611D+02 0.130378872320820D+03 0.619754085784120D+02
 0.179521046743864D+03 -.369392718353677D+02 0.803046499991095D+02 0.156251270743011D+03
 0.110940090258385D+03 -.544087869890013D+02 -.506481180198176D+02 0.177465408348813D+02
 0.000000000000000D+00 0.000000000000000D+00 -.000000000000000D+00 -.000000000000000D+00
 0.760589620471359D+03 0.000000000000000D+00 0.000000000000000D+00 0.760589620471359D+03
 0.254974444945941D+04 0.000000000000000D+00 0.000000000000000D+00 -.254974444945941D+04
 0.264467214172455D+03 -.516740492094678D+02 0.715690116260543D+02 -.235973220156305D+03
 0.409186907238588D+03 -.201518339282377D+03 0.350689795574226D+03 0.619754085784120D+02
 0.411186983002511D+03 -.214943183191445D+03 0.313782892110820D+03 0.156251270743011D+03
 0.174109285572394D+03 -.140305543546166D+03 0.620180788703541D+02 0.177465408348813D+02
 0.205138367994482D+04 0.608441115229456D+03 -.798059778181455D+03 -.178915482898805D+04
0.358222821274D-04 0.000000000000D+00 0.000000000000D+00 0.675244826322D-07 0.000000000000D+00  7 1 -1 24 -11 11 -24 21 0 0.46746325D-01 0.73145145D-01 0.75869032D+05 0.75869032D+05 0.75869032D+05 0.11316991D+01  1  2  2  1  7  1        1 0.753920658130D-03 0.100000000000D+01
-.173922513645D-05 0.000000000000D+00 -.137566995593D-06 0.675244826322D-07 0.000000000000D+00  7 1 -1 24 -11 11 -24 21 2 0.46746325D-01 0.73145145D-01 0.75869032D+05 0.75869032D+05 0.75869032D+05 0.11316991D+01  1  2  3  1  7  1        1 -.468802698490D-04 0.100000000000D+01
0.217139240916D-05 0.000000000000D+00 0.000000000000D+00 0.675244826322D-07 0.000000000000D+00  7 1 -1 24 -11 11 -24 21 2 0.46746325D-01 0.73145145D-01 0.75869032D+05 0.75869032D+05 0.75869032D+05 0.11316991D+01  1  2 15  1  7  1        1 0.585292035838D-04 0.100000000000D+01
  </mgrwgt>
  </event>
  <event>
  8     66 0.27727860E-05 0.16508655E+03 0.75467711E-02 0.10106939E+00
        1 -1    0    0  501    0 0.00000000E+00 0.00000000E+00 0.40340155E+03 0.40340168E+03 0.32000000E+00 0.0000E+00 0.9000E+01
       -1 -1    0    0    0  501 0.00000000E+00 0.00000000E+00 -.15390278E+03 0.15390312E+03 0.32000000E+00 0.0000E+00 0.9000E+01
       25  2    1    2    0    0 0.20603196E+02 0.83235042E+02 0.28868088E+03 0.42553447E+03 0.30064990E+03 0.0000E+00 0.0000E+00
       23  2    1    2    0    0 -.20603196E+02 -.83235042E+02 -.39182118E+02 0.13177032E+03 0.92063110E+02 0.0000E+00 0.0000E+00
       24  1    3    3    0    0 0.87729754E+02 -.59854296E+02 0.99800991E+02 0.16645270E+03 0.80419002E+02 0.0000E+00 0.9000E+01
      -13  1    4    4    0    0 -.51576871E+01 0.11592817E+02 0.16429400E+02 0.20758890E+02 0.10565837E+00 0.0000E+00 0.9000E+01
       13  1    4    4    0    0 -.15445509E+02 -.94827859E+02 -.55611518E+02 0.11101144E+03 0.10565837E+00 0.0000E+00 0.9000E+01
      -24  1    3    3    0    0 -.67126558E+02 0.14308934E+03 0.18887989E+03 0.25908177E+03 0.80419002E+02 0.0000E+00 0.9000E+01
#aMCatNLO 1  0  0  2  1 0.14153818D+03 0.00000000D+00  -5  7  0 0.00000000D+00 0.00000000D+00 0.00000000D+00 0.00000000D+00 0.00000000D+00
  <mgrwgt>
 0.5001286874D-03    9    2    0
 0.249168113559452D+03 0.000000000000000D+00 0.000000000000000D+00 0.249168113559452D+03
 0.249168113559452D+03 0.000000000000000D+00 0.000000000000000D+00 -.249168113559452D+03
 0.136182471174139D+03 0.877297503754429D+02 -.598542890469773D+02 0.282737419254705D+02
 0.149895239192917D+02 -.515767357266538D+01 0.115929558482567D+02 0.798045144996303D+01
 0.151990361161563D+03 -.154455234355974D+02 -.948280032240563D+02 -.117771624325901D+03
 0.195173870863910D+03 -.671265533671801D+02 0.143089336422777D+03 0.815174309504671D+02
 0.000000000000000D+00 -.000000000000000D+00 0.000000000000000D+00 -.000000000000000D+00
 0.297373724523652D+03 0.000000000000000D+00 0.000000000000000D+00 0.297373724523652D+03
 0.389614952322211D+03 0.000000000000000D+00 0.000000000000000D+00 -.389614952322211D+03
 0.167391752531057D+03 0.105312030600319D+03 -.982993112357224D+02 0.282737419254705D+02
 0.119787724721495D+02 -.359573547873054D+01 0.817765681361778D+01 0.798045144996303D+01
 0.180670614942442D+03 0.382139069944952D+01 -.136956608385434D+03 -.117771624325901D+03
 0.158005239316180D+03 -.466712788416685D+02 0.983622889094790D+02 0.815174309504671D+02
 0.168942297584035D+03 -.588664069793698D+02 0.128715973898060D+03 -.922412277985593D+02
0.517153998595D-05 0.000000000000D+00 0.000000000000D+00 0.371505117337D-06 0.000000000000D+00  7 1 -1 24 -13 13 -24 21 0 0.62061812D-01 0.23677386D-01 0.43956556D+05 0.43956556D+05 0.43956556D+05 0.11522492D+01  1  2  2  2  7  2       -1 0.540105468556D-03 0.100000000000D+01
-.276895193978D-06 0.000000000000D+00 -.198600752438D-07 0.371505117337D-06 0.000000000000D+00  7 1 -1 24 -13 13 -24 21 2 0.62061812D-01 0.23677386D-01 0.43956556D+05 0.43956556D+05 0.43956556D+05 0.11522492D+01  1  2  3  2  7  2       -1 -.383943131309D-04 0.100000000000D+01
0.315242729725D-06 0.000000000000D+00 0.000000000000D+00 0.371505117337D-06 0.000000000000D+00  7 1 -1 24 -13 13 -24 21 2 0.62061812D-01 0.23677386D-01 0.43956556D+05 0.43956556D+05 0.43956556D+05 0.11522492D+01  1  2 15  2  7  2       -1 0.437115859739D-04 0.100000000000D+01
0.745956810719D-06 0.000000000000D+00 0.000000000000D+00 0.371505117337D-06 0.000000000000D+00  7 1 -1 24 -13 13 -24 21 2 0.62061812D-01 0.38266594D-01 0.86383526D+05 0.86383526D+05 0.86383526D+05 0.11269762D+01  1  2 12  2  7  2       -1 0.444812811248D-04 0.100000000000D+01
-.291074316481D-05 0.000000000000D+00 0.000000000000D+00 0.371505117337D-06 0.000000000000D+00  7 1 -1 24 -13 13 -24 21 2 0.62061812D-01 0.23677386D-01 0.43956556D+05 0.43956556D+05 0.43956556D+05 0.11522492D+01  1  2  4  2  7  2       -1 -.403603915647D-03 0.100000000000D+01
-.271306323858D-05 0.000000000000D+00 -.171966981648D-05 0.371505117337D-06 0.000000000000D+00  7 1 -1 24 -13 13 -24 21 2 0.62061812D-01 0.43351736D-01 0.43956556D+05 0.43956556D+05 0.43956556D+05 0.11522492D+01  1  2  5  2  7  2       -1 -.137331937903D-03 0.100000000000D+01
0.338729308021D-05 0.000000000000D+00 0.144686157422D-05 0.371505117337D-06 0.000000000000D+00  7 1 -1 24 -13 13 -24 21 2 0.62061812D-01 0.23677386D-01 0.43956556D+05 0.43956556D+05 0.43956556D+05 0.11522492D+01  1  2  6  2  7  2       -1 0.469682370862D-03 0.100000000000D+01
0.407363620949D-07 0.000000000000D+00 0.000000000000D+00 0.371505117337D-06 0.000000000000D+00  7 1 21 24 -13 13 -24 1 2 0.62061812D-01 0.38266594D-01 0.86383526D+05 0.86383526D+05 0.86383526D+05 0.11269762D+01  1  2 12  4  7  2       -1 0.247066615559D-04 0.100000000000D+01
-.856190476165D-07 0.000000000000D+00 -.113671646099D-06 0.371505117337D-06 0.000000000000D+00  7 1 21 24 -13 13 -24 1 2 0.62061812D-01 0.43351736D-01 0.43956556D+05 0.43956556D+05 0.43956556D+05 0.11522492D+01  1  2  5  4  7  2       -1 -.432285139852D-04 0.100000000000D+01
  </mgrwgt>
  </event>
  <event>
  8     66 0.27727860E-05 0.11439769E+03 0.75467711E-02 0.10564882E+00
        1 -1    0    0  501    0 0.00000000E+00 0.00000000E+00 0.34794626E+04 0.34794626E+04 0.32000000E+00 0.0000E+00 0.9000E+01
       -1 -1    0    0    0  501 0.00000000E+00 0.00000000E+00 -.24139588E+02 0.24141709E+02 0.32000000E+00 0.0000E+00 0.9000E+01
       25  2    1    2    0    0 -.37657644E+02 -.68642864E+02 0.10543629E+04 0.10995694E+04 0.30206264E+03 0.0000E+00 0.0000E+00
       23  2    1    2    0    0 0.37657644E+02 0.68642864E+02 0.24009601E+04 0.24040349E+04 0.92975457E+02 0.0000E+00 0.0000E+00
       24  1    3    3    0    0 0.68123037E+02 -.38524574E+01 0.78719325E+03 0.79422668E+03 0.80419002E+02 0.0000E+00 0.9000E+01
      -11  1    4    4    0    0 0.51318470E+02 0.72541608E+02 0.13227834E+04 0.13257646E+04 0.51099893E-03 0.0000E+00 0.9000E+01
       11  1    4    4    0    0 -.13660826E+02 -.38987438E+01 0.10781767E+04 0.10782702E+04 0.51099893E-03 0.0000E+00 0.9000E+01
      -24  1    3    3    0    0 -.10578068E+03 -.64790407E+02 0.26716965E+03 0.30534274E+03 0.80419002E+02 0.0000E+00 0.9000E+01
#aMCatNLO 1  0  0  2  1 0.71880503D+02 0.00000000D+00  -5  7  0 0.00000000D+00 0.00000000D+00 0.00000000D+00 0.00000000D+00 0.00000000D+00
  <mgrwgt>
 0.3013871673D-03    9    2    0
 0.289821556395402D+03 0.000000000000000D+00 0.000000000000000D+00 0.289821556395402D+03
 0.289821556395402D+03 0.000000000000000D+00 0.000000000000000D+00 -.289821556395402D+03
 0.108082154436359D+03 0.681230369392513D+02 -.385245743617940D+01 0.236420507382547D+02
 0.128200763212771D+03 0.513184696780790D+02 0.725416078478283D+02 0.924097694461407D+02
 0.903722973166355D+02 -.136608255293293D+02 -.389874378824032D+01 0.892487185623258D+02
 0.252987897825039D+03 -.105780681088001D+03 -.647904066234086D+02 -.205300538746721D+03
 0.000000000000000D+00 -.000000000000000D+00 -.000000000000000D+00 -.000000000000000D+00
 0.303940457166911D+03 0.000000000000000D+00 0.000000000000000D+00 0.303940457166911D+03
 0.400597345565414D+03 0.000000000000000D+00 0.000000000000000D+00 -.400597345565414D+03
 0.115003391586649D+03 0.785701890667360D+02 0.513253825788267D+01 0.236420507382547D+02
 0.139873414387988D+03 0.638724507170687D+02 0.833385661195383D+02 0.924097694461407D+02
 0.894648859590591D+02 -.523900508711306D+01 0.334438041308163D+01 0.892487185623258D+02
 0.239741302916272D+03 -.827060489140835D+02 -.449452403814741D+02 -.205300538746721D+03
 0.120454807882357D+03 -.544975857826082D+02 -.468702444090286D+02 -.966568883985031D+02
0.387526172926D-04 0.000000000000D+00 0.000000000000D+00 0.383454704490D-07 0.000000000000D+00  7 1 -1 24 -11 11 -24 21 0 0.53530210D+00 0.37139471D-02 0.31748575D+05 0.31748575D+05 0.31748575D+05 0.11650601D+01  1  2  2  2  7  2       -1 0.352021334774D-03 0.100000000000D+01
-.153346616371D-05 0.000000000000D+00 -.148820254202D-06 0.383454704490D-07 0.000000000000D+00  7 1 -1 24 -11 11 -24 21 2 0.53530210D+00 0.37139471D-02 0.31748575D+05 0.31748575D+05 0.31748575D+05 0.11650601D+01  1  2  3  2  7  2       -1 -.189077034785D-04 0.100000000000D+01
0.239342507496D-05 0.000000000000D+00 0.000000000000D+00 0.383454704490D-07 0.000000000000D+00  7 1 -1 24 -11 11 -24 21 2 0.53530210D+00 0.37139471D-02 0.31748575D+05 0.31748575D+05 0.31748575D+05 0.11650601D+01  1  2 15  2  7  2       -1 0.295110336870D-04 0.100000000000D+01
0.531996880574D-04 0.000000000000D+00 0.000000000000D+00 0.383454704490D-07 0.000000000000D+00  7 1 -1 24 -11 11 -24 21 2 0.53530210D+00 0.51977591D-02 0.43984081D+05 0.43984081D+05 0.43984081D+05 0.11522249D+01  1  2 12  2  7  2       -1 0.387326834166D-03 0.100000000000D+01
-.658253402878D-04 0.000000000000D+00 0.000000000000D+00 0.383454704490D-07 0.000000000000D+00  7 1 -1 24 -11 11 -24 21 2 0.53530210D+00 0.37139471D-02 0.31748575D+05 0.31748575D+05 0.31748575D+05 0.11650601D+01  1  2  4  2  7  2       -1 -.811629265114D-03 0.100000000000D+01
-.670708042418D-04 0.000000000000D+00 -.165423107453D-04 0.383454704490D-07 0.000000000000D+00  7 1 -1 24 -11 11 -24 21 2 0.53530210D+00 0.55249234D-02 0.31748575D+05 0.31748575D+05 0.31748575D+05 0.11650601D+01  1  2  5  2  7  2       -1 -.463839145273D-03 0.100000000000D+01
0.693249746673D-04 0.000000000000D+00 0.153181462140D-04 0.383454704490D-07 0.000000000000D+00  7 1 -1 24 -11 11 -24 21 2 0.53530210D+00 0.37139471D-02 0.31748575D+05 0.31748575D+05 0.31748575D+05 0.11650601D+01  1  2  6  2  7  2       -1 0.854779906906D-03 0.100000000000D+01
0.223214493912D-05 0.000000000000D+00 0.000000000000D+00 0.383454704490D-07 0.000000000000D+00  7 1 21 24 -11 11 -24 1 2 0.53530210D+00 0.51977591D-02 0.43984081D+05 0.43984081D+05 0.43984081D+05 0.11522249D+01  1  2 12  4  7  2       -1 0.256846755602D-03 0.100000000000D+01
-.261678731250D-05 0.000000000000D+00 -.783326527411D-06 0.383454704490D-07 0.000000000000D+00  7 1 21 24 -11 11 -24 1 2 0.53530210D+00 0.55249234D-02 0.31748575D+05 0.31748575D+05 0.31748575D+05 0.11650601D+01  1  2  5  4  7  2       -1 -.284722584015D-03 0.100000000000D+01
  </mgrwgt>
  </event>
  <event>
  9     66 0.27727860E-05 0.26213814E+03 0.75467711E-02 0.10018413E+00
        1 -1    0    0  501    0 0.00000000E+00 0.00000000E+00 0.10791977E+04 0.10791977E+04 0.32000000E+00 0.0000E+00 0.9000E+01
       21 -1    0    0  502  501 0.00000000E+00 0.00000000E+00 -.15852990E+03 0.15853168E+03 0.75000000E+00 0.0000E+00 0.9000E+01
       25  2    1    2    0    0 0.14191259E+03 -.55070583E+02 0.65194017E+03 0.73457230E+03 0.30232189E+03 0.0000E+00 0.0000E+00
       23  2    1    2    0    0 -.19754688E+03 0.13976740E+03 0.49388744E+02 0.26154096E+03 0.86050738E+02 0.0000E+00 0.0000E+00
       24  1    3    3    0    0 0.87292283E+02 -.12020818E+03 0.56240828E+03 0.58723100E+03 0.80419002E+02 0.0000E+00 0.9000E+01
      -13  1    4    4    0    0 0.24584338E+00 -.16527598E-01 0.17209073E+02 0.17211161E+02 0.10565837E+00 0.0000E+00 0.9000E+01
       13  1    4    4    0    0 -.19779272E+03 0.13978392E+03 0.32179671E+02 0.24432980E+03 0.10565837E+00 0.0000E+00 0.9000E+01
      -24  1    3    3    0    0 0.54620308E+02 0.65137599E+02 0.89531884E+02 0.14734130E+03 0.80419002E+02 0.0000E+00 0.9000E+01
        1  1    1    2  502    0 0.55634291E+02 -.84696813E+02 0.21933888E+03 0.24161616E+03 0.32000000E+00 0.0000E+00 0.9000E+01
#aMCatNLO 2  0  0  2  2 0.10133471D+03 0.00000000D+00  -5  7  0 0.00000000D+00 0.00000000D+00 0.00000000D+00 0.00000000D+00 0.00000000D+00
  <mgrwgt>
 0.2457509596D-03    1    2    0
 0.350039516418121D+03 0.000000000000000D+00 0.000000000000000D+00 0.350039516418121D+03
 0.350039516418121D+03 0.000000000000000D+00 0.000000000000000D+00 -.350039516418121D+03
 0.293614113976454D+03 0.109544410355910D+03 -.154084488312244D+03 0.209761828255613D+03
 0.727036708335841D+01 0.817104027077395D+00 -.885962626502993D+00 0.716977327118199D+01
 0.282780353161000D+03 -.174276156705983D+03 0.103982407944718D+03 -.196926910745255D+03
 0.116414198615430D+03 0.639146423229949D+02 0.509880429940286D+02 -.200046907815399D+02
 0.000000000000000D+00 0.000000000000000D+00 -.000000000000000D+00 0.000000000000000D+00
 0.449734144055615D+03 0.000000000000000D+00 0.000000000000000D+00 0.449734144055615D+03
 0.380415976837937D+03 0.000000000000000D+00 0.000000000000000D+00 -.380415976837937D+03
 0.269327292301432D+03 0.872922830917277D+02 -.120208182514948D+03 0.209761828255613D+03
 0.717401663848486D+01 0.246141825244825D+00 -.167383083807946D-01 0.716977327118199D+01
 0.312156839774509D+03 -.197793023619236D+03 0.139784134471332D+03 -.196926910745255D+03
 0.118716841405395D+03 0.546203076587576D+02 0.651375991029813D+02 -.200046907815399D+02
 0.122775130773731D+03 0.556342910435055D+02 -.846968127509844D+02 0.693181672176782D+02
0.748739216542D-06 0.000000000000D+00 0.000000000000D+00 0.101563758658D-07 0.131362394434D-12  7 1 21 24 -13 13 -24 1 2 0.16603047D+00 0.24389343D-01 0.99140557D+05 0.99140557D+05 0.99140557D+05 0.11220298D+01  1  2  1  4  7  2       -1 0.245750959646D-03 0.100000000000D+01
  </mgrwgt>
  </event>
  <event>
  8     66 0.27727860E-05 0.12413467E+03 0.75467711E-02 0.99307140E-01
        1 -1    0    0  501    0 0.00000000E+00 0.00000000E+00 0.82880192E+03 0.82880198E+03 0.32000000E+00 0.0000E+00 0.9000E+01
       -1 -1    0    0    0  501 0.00000000E+00 0.00000000E+00 -.12487646E+03 0.12487687E+03 0.32000000E+00 0.0000E+00 0.9000E+01
       25  2    1    2    0    0 0.21012707E+03 -.37030508E+01 0.59724676E+03 0.70063372E+03 0.30002804E+03 0.0000E+00 0.0000E+00
       23  2    1    2    0    0 -.21012707E+03 0.37030508E+01 0.10667870E+03 0.25304513E+03 0.92110779E+02 0.0000E+00 0.0000E+00
       24  1    3    3    0    0 -.99892169E+01 0.59691428E+01 0.29669987E+02 0.86503984E+02 0.80419002E+02 0.0000E+00 0.9000E+01
      -11  1    4    4    0    0 -.17962998E+03 0.48886159E+01 0.12364525E+03 0.21812606E+03 0.51099893E-03 0.0000E+00 0.9000E+01
       11  1    4    4    0    0 -.30497086E+02 -.11855651E+01 -.16966550E+02 0.34919072E+02 0.51099893E-03 0.0000E+00 0.9000E+01
      -24  1    3    3    0    0 0.22011629E+03 -.96721936E+01 0.56757677E+03 0.61412974E+03 0.80419002E+02 0.0000E+00 0.9000E+01
#aMCatNLO 1  0  0  2  1 0.13297442D+03 0.00000000D+00  -5  7  0 0.00000000D+00 0.00000000D+00 0.00000000D+00 0.00000000D+00 0.00000000D+00
  <mgrwgt>
 0.5965443956D-03    9    2    0
 0.321711168762239D+03 0.000000000000000D+00 0.000000000000000D+00 0.321711168762239D+03
 0.321711168762239D+03 0.000000000000000D+00 0.000000000000000D+00 -.321711168762239D+03
 0.957560177913511D+02 -.998921689619817D+01 0.596914280699510D+01 -.506614633507307D+02
 0.188033834342011D+03 -.179629982772965D+03 0.488861588978020D+01 -.553705118364024D+02
 0.703189252467565D+02 -.304970856217701D+02 -.118556512457611D+01 -.633504021437334D+02
 0.289313560144360D+03 0.220116285290934D+03 -.967219357219919D+01 0.169382377330866D+03
 0.000000000000000D+00 -.000000000000000D+00 -.000000000000000D+00 -.000000000000000D+00
 0.351270276730292D+03 0.000000000000000D+00 0.000000000000000D+00 0.351270276730292D+03
 0.522729299050082D+03 0.000000000000000D+00 0.000000000000000D+00 -.522729299050082D+03
 0.977444887474492D+02 0.406826412666540D+00 0.228039415356691D+02 -.506614633507307D+02
 0.173361452413609D+03 -.160213594051638D+03 0.363304814582423D+02 -.553705118364024D+02
 0.682848537950776D+02 -.230504338508494D+02 0.108731460640429D+02 -.633504021437334D+02
 0.317628612364192D+03 0.252724970530267D+03 0.431325742131335D+02 0.169382377330866D+03
 0.216980168460045D+03 -.698677690404460D+02 -.113140143271088D+03 -.171459022319790D+03
0.131961501132D-04 0.000000000000D+00 0.000000000000D+00 0.168800273563D-05 0.000000000000D+00  7 1 -1 24 -11 11 -24 21 0 0.12750802D+00 0.19211800D-01 0.69174114D+05 0.69174114D+05 0.69174114D+05 0.11350981D+01  1  2  2  2  7  2       -1 0.688822382967D-03 0.100000000000D+01
-.696941205995D-06 0.000000000000D+00 -.506766910610D-07 0.168800273563D-05 0.000000000000D+00  7 1 -1 24 -11 11 -24 21 2 0.12750802D+00 0.19211800D-01 0.69174114D+05 0.69174114D+05 0.69174114D+05 0.11350981D+01  1  2  3  2  7  2       -1 -.468730170455D-04 0.100000000000D+01
0.823278693893D-06 0.000000000000D+00 0.000000000000D+00 0.168800273563D-05 0.000000000000D+00  7 1 -1 24 -11 11 -24 21 2 0.12750802D+00 0.19211800D-01 0.69174114D+05 0.69174114D+05 0.69174114D+05 0.11350981D+01  1  2 15  2  7  2       -1 0.553698876177D-04 0.100000000000D+01
0.923811838867D-05 0.000000000000D+00 0.000000000000D+00 0.168800273563D-05 0.000000000000D+00  7 1 -1 24 -11 11 -24 21 2 0.12750802D+00 0.31637092D-01 0.11391587D+06 0.11391587D+06 0.11391587D+06 0.11171080D+01  1  2 12  2  7  2       -1 0.264375705530D-03 0.100000000000D+01
-.144548549391D-04 0.000000000000D+00 0.000000000000D+00 0.168800273563D-05 0.000000000000D+00  7 1 -1 24 -11 11 -24 21 2 0.12750802D+00 0.19211800D-01 0.69174114D+05 0.69174114D+05 0.69174114D+05 0.11350981D+01  1  2  4  2  7  2       -1 -.972166168569D-03 0.100000000000D+01
-.148615835304D-04 0.000000000000D+00 -.455449380342D-05 0.168800273563D-05 0.000000000000D+00  7 1 -1 24 -11 11 -24 21 2 0.12750802D+00 0.33657529D-01 0.69174114D+05 0.69174114D+05 0.69174114D+05 0.11350981D+01  1  2  5  2  7  2       -1 -.400014071865D-03 0.100000000000D+01
0.155405168589D-04 0.000000000000D+00 0.392168639781D-05 0.168800273563D-05 0.000000000000D+00  7 1 -1 24 -11 11 -24 21 2 0.12750802D+00 0.19211800D-01 0.69174114D+05 0.69174114D+05 0.69174114D+05 0.11350981D+01  1  2  6  2  7  2       -1 0.104518272899D-02 0.100000000000D+01
0.519883079925D-06 0.000000000000D+00 0.000000000000D+00 0.168800273563D-05 0.000000000000D+00  7 1 21 24 -11 11 -24 1 2 0.12750802D+00 0.31637092D-01 0.11391587D+06 0.11391587D+06 0.11391587D+06 0.11171080D+01  1  2 12  4  7  2       -1 0.159011093381D-03 0.100000000000D+01
-.688433332404D-06 0.000000000000D+00 -.281992695694D-06 0.168800273563D-05 0.000000000000D+00  7 1 21 24 -11 11 -24 1 2 0.12750802D+00 0.33657529D-01 0.69174114D+05 0.69174114D+05 0.69174114D+05 0.11350981D+01  1  2  5  4  7  2       -1 -.197164145369D-03 0.100000000000D+01
  </mgrwgt>
  </event>
  <event>
  8     66 0.27727860E-05 0.24679873E+03 0.75467711E-02 0.95963366E-01
        1 -1    0    0  501    0 0.00000000E+00 0.00000000E+00 0.44739644E+03 0.44739656E+03 0.32000000E+00 0.0000E+00 0.9000E+01
       -1 -1    0    0    0  501 0.00000000E+00 0.00000000E+00 -.83728839E+03 0.83728845E+03 0.32000000E+00 0.0000E+00 0.9000E+01
       25  2    1    2    0    0 -.15606301E+03 -.37704789E+03 -.62683900E+03 0.80598904E+03 0.30028392E+03 0.0000E+00 0.0000E+00
       23  2    1    2    0    0 0.15606301E+03 0.37704789E+03 0.23694705E+03 0.47869597E+03 0.80530416E+02 0.0000E+00 0.0000E+00
       24  1    3    3    0    0 -.55271417E+02 -.21164619E+03 -.13037811E+03 0.26704814E+03 0.80419002E+02 0.0000E+00 0.9000E+01
      -11  1    4    4    0    0 0.57127489E+01 0.30298375E+02 -.30643042E+01 0.30984141E+02 0.51099893E-03 0.0000E+00 0.9000E+01
       11  1    4    4    0    0 0.15035026E+03 0.34674952E+03 0.24001136E+03 0.44771183E+03 0.51099893E-03 0.0000E+00 0.9000E+01
      -24  1    3    3    0    0 -.10079159E+03 -.16540170E+03 -.49646089E+03 0.53894091E+03 0.80419002E+02 0.0000E+00 0.9000E+01
#aMCatNLO 1  0  0  2  1 0.37624552D+02 0.00000000D+00  -5  7  0 0.00000000D+00 0.00000000D+00 0.00000000D+00 0.00000000D+00 0.00000000D+00
  <mgrwgt>
 0.2061496051D-02    9    2    0
 0.612045718442576D+03 0.000000000000000D+00 0.000000000000000D+00 0.612045718442576D+03
 0.612045718442576D+03 0.000000000000000D+00 0.000000000000000D+00 -.612045718442576D+03
 0.238739814949443D+03 -.552714174187453D+02 -.211646191790056D+03 -.517729968710858D+02
 0.315418542969183D+02 0.571274892177053D+01 0.302983749206520D+02 0.665293539818592D+01
 0.546321253415135D+03 0.150350260782810D+03 0.346749516729348D+03 0.394495226414197D+03
 0.407488514223655D+03 -.100791592285836D+03 -.165401699859945D+03 -.349375164941297D+03
 0.000000000000000D+00 0.000000000000000D+00 -.000000000000000D+00 -.000000000000000D+00
 0.627998190988180D+03 0.000000000000000D+00 0.000000000000000D+00 0.627998190988180D+03
 0.634928908649173D+03 0.000000000000000D+00 0.000000000000000D+00 -.634928908649173D+03
 0.234049817470601D+03 -.588789622472369D+02 -.205340998593379D+03 -.517729968710858D+02
 0.322778674327715D+02 0.522578285632777D+01 0.311494842675387D+02 0.665293539818592D+01
 0.553535061988550D+03 0.141957985041888D+03 0.361417364925824D+03 0.394495226414197D+03
 0.404806781101784D+03 -.106989680168727D+03 -.154568808403417D+03 -.349375164941297D+03
 0.382575716436462D+02 0.186848745177482D+02 -.326570421965664D+02 -.693071766099315D+01
0.233970746427D-03 0.000000000000D+00 0.000000000000D+00 0.196712574942D-06 0.000000000000D+00  7 1 -1 24 -11 11 -24 21 0 0.68830236D-01 0.12881361D+00 0.18128709D+06 0.18128709D+06 0.18128709D+06 0.11011171D+01  1  2  2  2  7  2       -1 0.819521922319D-03 0.100000000000D+01
-.109171609521D-04 0.000000000000D+00 -.898509272190D-06 0.196712574942D-06 0.000000000000D+00  7 1 -1 24 -11 11 -24 21 2 0.68830236D-01 0.12881361D+00 0.18128709D+06 0.18128709D+06 0.18128709D+06 0.11011171D+01  1  2  3  2  7  2       -1 -.463634522554D-04 0.100000000000D+01
0.146021340587D-04 0.000000000000D+00 0.000000000000D+00 0.196712574942D-06 0.000000000000D+00  7 1 -1 24 -11 11 -24 21 2 0.68830236D-01 0.12881361D+00 0.18128709D+06 0.18128709D+06 0.18128709D+06 0.11011171D+01  1  2 15  2  7  2       -1 0.620129489919D-04 0.100000000000D+01
0.518746813917D-03 0.000000000000D+00 0.000000000000D+00 0.196712574942D-06 0.000000000000D+00  7 1 -1 24 -11 11 -24 21 2 0.68830236D-01 0.13525520D+00 0.19812387D+06 0.19812387D+06 0.19812387D+06 0.10981399D+01  1  2 12  2  7  2       -1 0.192230520327D-02 0.100000000000D+01
-.448053615465D-03 0.000000000000D+00 0.000000000000D+00 0.196712574942D-06 0.000000000000D+00  7 1 -1 24 -11 11 -24 21 2 0.68830236D-01 0.12881361D+00 0.18128709D+06 0.18128709D+06 0.18128709D+06 0.11011171D+01  1  2  4  2  7  2       -1 -.190281269093D-02 0.100000000000D+01
-.274177117082D-02 0.000000000000D+00 -.491761719532D-03 0.196712574942D-06 0.000000000000D+00  7 1 -1 24 -11 11 -24 21 2 0.68830236D-01 0.13616483D+00 0.18128709D+06 0.18128709D+06 0.18128709D+06 0.11011171D+01  1  2  5  2  7  2       -1 -.100770837699D-01 0.100000000000D+01
0.276555980577D-02 0.000000000000D+00 0.491005326491D-03 0.196712574942D-06 0.000000000000D+00  7 1 -1 24 -11 11 -24 21 2 0.68830236D-01 0.12881361D+00 0.18128709D+06 0.18128709D+06 0.18128709D+06 0.11011171D+01  1  2  6  2  7  2       -1 0.117448941696D-01 0.100000000000D+01
0.629618776370D-05 0.000000000000D+00 0.000000000000D+00 0.196712574942D-06 0.000000000000D+00  7 1 21 24 -11 11 -24 1 2 0.68830236D-01 0.13525520D+00 0.19812387D+06 0.19812387D+06 0.19812387D+06 0.10981399D+01  1  2 12  4  7  2       -1 0.150402629546D-03 0.100000000000D+01
-.257712682418D-04 0.000000000000D+00 -.471726741493D-05 0.196712574942D-06 0.000000000000D+00  7 1 21 24 -11 11 -24 1 2 0.68830236D-01 0.13616483D+00 0.18128709D+06 0.18128709D+06 0.18128709D+06 0.11011171D+01  1  2  5  4  7  2       -1 -.611380909475D-03 0.100000000000D+01
  </mgrwgt>
  </event>
  <event>
  8     66 0.27727860E-05 0.42793523E+03 0.75467711E-02 0.90026982E-01
        1 -1    0    0  501    0 0.00000000E+00 0.00000000E+00 0.53724845E+03 0.53724854E+03 0.32000000E+00 0.0000E+00 0.9000E+01
       -1 -1    0    0    0  501 0.00000000E+00 0.00000000E+00 -.36813657E+03 0.36813671E+03 0.32000000E+00 0.0000E+00 0.9000E+01
       25  2    1    2    0    0 0.31397958E+03 -.21134566E+03 0.54768187E+01 0.48327178E+03 0.30045207E+03 0.0000E+00 0.0000E+00
       23  2    1    2    0    0 -.31397958E+03 0.21134566E+03 0.16363506E+03 0.42211348E+03 0.90294997E+02 0.0000E+00 0.0000E+00
       24  1    3    3    0    0 0.74090773E+02 -.18185180E+03 -.59524943E+02 0.22038592E+03 0.80419002E+02 0.0000E+00 0.9000E+01
      -11  1    4    4    0    0 -.66787535E+01 -.87177510E+01 0.66498212E+01 0.12838421E+02 0.51099893E-03 0.0000E+00 0.9000E+01
       11  1    4    4    0    0 -.30730083E+03 0.22006341E+03 0.15698523E+03 0.40927506E+03 0.51099893E-03 0.0000E+00 0.9000E+01
      -24  1    3    3    0    0 0.23988881E+03 -.29493868E+02 0.65001762E+02 0.26288586E+03 0.80419002E+02 0.0000E+00 0.9000E+01
#aMCatNLO 1  0  0  2  1 0.52925221D+03 0.00000000D+00  -5  7  0 0.00000000D+00 0.00000000D+00 0.00000000D+00 0.00000000D+00 0.00000000D+00
  <mgrwgt>
 0.1317673924D-02    5    2    0
 0.444725654759009D+03 0.000000000000000D+00 0.000000000000000D+00 0.444725654759009D+03
 0.444725654759009D+03 0.000000000000000D+00 0.000000000000000D+00 -.444725654759009D+03
 0.235651500259505D+03 0.740907731181243D+02 -.181851795805981D+03 -.102493391597132D+03
 0.118040787195199D+02 -.667875351723977D+01 -.871775095808384D+01 0.432797228565601D+01
 0.386759262613819D+03 -.307300830814627D+03 0.220063414582070D+03 0.819818282347063D+02
 0.255236467925175D+03 0.239888811213742D+03 -.294938678180045D+02 0.161835910767697D+02
 0.000000000000000D+00 -.000000000000000D+00 -.000000000000000D+00 -.000000000000000D+00
 0.539003540036381D+03 0.000000000000000D+00 0.000000000000000D+00 0.539003540036381D+03
 0.377427302219231D+04 0.000000000000000D+00 0.000000000000000D+00 -.377427302219231D+04
 0.262579819699825D+03 0.195205503825604D+03 -.117774622539540D+03 -.102493391597132D+03
 0.779713809731848D+01 -.191390634443642D+01 -.619685250009819D+01 0.432797228565601D+01
 0.349657809334046D+03 -.128285679048101D+03 0.314773486842120D+03 0.819818282347063D+02
 0.414968389203838D+03 0.402808478320682D+03 0.567006989101004D+02 0.161835910767697D+02
 0.327827340589366D+04 -.467814396753748D+03 -.247502710712582D+03 -.323526948215593D+04
0.842493640079D-04 0.000000000000D+00 0.000000000000D+00 0.247311094353D-05 0.000000000000D+00  7 1 -1 24 -11 11 -24 21 0 0.82653625D-01 0.56636414D-01 0.18312856D+06 0.18312856D+06 0.18312856D+06 0.11007771D+01  1  2  2  2  7  2       -1 0.131050965948D-02 0.100000000000D+01
-.467209123858D-05 0.000000000000D+00 -.323539741157D-06 0.247311094353D-05 0.000000000000D+00  7 1 -1 24 -11 11 -24 21 2 0.82653625D-01 0.56636414D-01 0.18312856D+06 0.18312856D+06 0.18312856D+06 0.11007771D+01  1  2  3  2  7  2       -1 -.880610098072D-04 0.100000000000D+01
0.539966571223D-05 0.000000000000D+00 0.000000000000D+00 0.247311094353D-05 0.000000000000D+00  7 1 -1 24 -11 11 -24 21 2 0.82653625D-01 0.56636414D-01 0.18312856D+06 0.18312856D+06 0.18312856D+06 0.11007771D+01  1  2 15  2  7  2       -1 0.101774556822D-03 0.100000000000D+01
-.404961991881D-03 0.000000000000D+00 -.515960064440D-04 0.247311094353D-05 0.000000000000D+00  7 1 -1 24 -11 11 -24 21 2 0.82653625D-01 0.49414261D+00 0.18312856D+06 0.18312856D+06 0.18312856D+06 0.11007771D+01  1  2  5  2  7  2       -1 -.781304870520D-06 0.100000000000D+01
-.112772830482D-03 0.000000000000D+00 -.134769812328D-04 0.247311094353D-05 0.000000000000D+00  7 1 21 24 -11 11 -24 1 2 0.82653625D-01 0.49414261D+00 0.18312856D+06 0.18312856D+06 0.18312856D+06 0.11007771D+01  1  2  5  4  7  2       -1 -.576797715577D-05 0.100000000000D+01
  </mgrwgt>
  </event>
  <event>
  8     66 0.27727860E-05 0.30770994E+03 0.75467711E-02 0.95264513E-01
        1 -1    0    0  501    0 0.00000000E+00 0.00000000E+00 0.47386062E+03 0.47386073E+03 0.32000000E+00 0.0000E+00 0.9000E+01
       -1 -1    0    0    0  501 0.00000000E+00 0.00000000E+00 -.55229321E+03 0.55229330E+03 0.32000000E+00 0.0000E+00 0.9000E+01
       25  2    1    2    0    0 -.24345213E+03 0.51663545E+02 -.43326712E+03 0.58260271E+03 0.29961218E+03 0.0000E+00 0.0000E+00
       23  2    1    2    0    0 0.24345213E+03 -.51663545E+02 0.35483453E+03 0.44355132E+03 0.94298281E+02 0.0000E+00 0.0000E+00
       24  1    3    3    0    0 -.20626670E+02 -.60753845E+02 -.40956198E+02 0.11072992E+03 0.80419002E+02 0.0000E+00 0.9000E+01
      -13  1    4    4    0    0 0.29927056E+02 -.15703931E+02 0.80918849E+01 0.34752437E+02 0.10565837E+00 0.0000E+00 0.9000E+01
       13  1    4    4    0    0 0.21352507E+03 -.35959614E+02 0.34674265E+03 0.40879888E+03 0.10565837E+00 0.0000E+00 0.9000E+01
      -24  1    3    3    0    0 -.22282546E+03 0.11241739E+03 -.39231093E+03 0.47187279E+03 0.80419002E+02 0.0000E+00 0.9000E+01
#aMCatNLO 1  0  0  1  1 0.31558182D+03 0.00000000D+00  -5  7  0 0.00000000D+00 0.00000000D+00 0.00000000D+00 0.00000000D+00 0.00000000D+00
  <mgrwgt>
 0.1081450494D-02    3    2    0
 0.511576100027420D+03 0.000000000000000D+00 0.000000000000000D+00 0.511576100027420D+03
 0.511576100027420D+03 0.000000000000000D+00 0.000000000000000D+00 -.511576100027420D+03
 0.107915179839733D+03 -.206266703205670D+02 -.607538451704885D+02 -.325880477162762D+02
 0.354741995471818D+02 0.299268249602244D+02 -.157039052334725D+02 0.107792087711242D+02
 0.436579288187547D+03 0.213525302381085D+03 -.359596394017615D+02 0.379098040685397D+03
 0.443183532480378D+03 -.222825457020742D+03 0.112417389805723D+03 -.357289201740245D+03
 0.000000000000000D+00 0.000000000000000D+00 -.000000000000000D+00 -.000000000000000D+00
 0.579251767916436D+03 0.000000000000000D+00 0.000000000000000D+00 0.579251767916436D+03
 0.110258906766757D+04 0.000000000000000D+00 0.000000000000000D+00 -.110258906766757D+04
 0.118104999637264D+03 -.546245922355501D+02 -.586152544487293D+02 -.325880477162762D+02
 0.276067692432908D+02 0.204381949793857D+02 -.151070365163206D+02 0.107792087711242D+02
 0.390448382747405D+03 0.891239226324312D+02 -.281343482804454D+02 0.379098040685397D+03
 0.534555642400656D+03 -.369896838867019D+03 0.121668705031379D+03 -.357289201740245D+03
 0.611125041555391D+03 0.314959313490752D+03 -.198120657858834D+02 -.523337299751134D+03
0.123176140366D-03 0.000000000000D+00 0.000000000000D+00 0.149215141562D-05 0.000000000000D+00  7 1 -1 24 -13 13 -24 21 0 0.72901649D-01 0.84968202D-01 0.94685407D+05 0.94685407D+05 0.94685407D+05 0.11236735D+01  1  2  2  1  7  1        1 0.105592838581D-02 0.100000000000D+01
-.469310113185D-05 0.000000000000D+00 -.473028812027D-06 0.149215141562D-05 0.000000000000D+00  7 1 -1 24 -13 13 -24 21 2 0.72901649D-01 0.84968202D-01 0.94685407D+05 0.94685407D+05 0.94685407D+05 0.11236735D+01  1  2  3  1  7  1        1 -.507981700293D-04 0.100000000000D+01
0.705101743931D-05 0.000000000000D+00 0.000000000000D+00 0.149215141562D-05 0.000000000000D+00  7 1 -1 24 -13 13 -24 21 2 0.72901649D-01 0.84968202D-01 0.94685407D+05 0.94685407D+05 0.94685407D+05 0.11236735D+01  1  2 15  1  7  1        1 0.763202779355D-04 0.100000000000D+01
  </mgrwgt>
  </event>
  <event>
  8     66 0.27727860E-05 0.31027241E+03 0.75467711E-02 0.86768644E-01
        1 -1    0    0  501    0 0.00000000E+00 0.00000000E+00 0.11908051E+04 0.11908052E+04 0.32000000E+00 0.0000E+00 0.9000E+01
       -1 -1    0    0    0  501 0.00000000E+00 0.00000000E+00 -.19757102E+03 0.19757128E+03 0.32000000E+00 0.0000E+00 0.9000E+01
       25  2    1    2    0    0 -.33749780E+02 -.24454502E+03 0.30360483E+02 0.38962744E+03 0.29991077E+03 0.0000E+00 0.0000E+00
       23  2    1    2    0    0 0.33749780E+02 0.24454502E+03 0.96287360E+03 0.99874899E+03 0.97121889E+02 0.0000E+00 0.0000E+00
       24  1    3    3    0    0 -.78881868E+02 -.23946682E+03 0.90188457E+02 0.27958520E+03 0.80419002E+02 0.0000E+00 0.9000E+01
      -13  1    4    4    0    0 0.55057008E+02 0.77028937E+02 0.40239796E+03 0.41338706E+03 0.10565837E+00 0.0000E+00 0.9000E+01
       13  1    4    4    0    0 -.21307228E+02 0.16751608E+03 0.56047564E+03 0.58536193E+03 0.10565837E+00 0.0000E+00 0.9000E+01
      -24  1    3    3    0    0 0.45132088E+02 -.50781969E+01 -.59827973E+02 0.11004225E+03 0.80419002E+02 0.0000E+00 0.9000E+01
#aMCatNLO 1  0  0  1  2 0.10062736D+04 0.00000000D+00  -5  7  0 0.00000000D+00 0.00000000D+00 0.00000000D+00 0.00000000D+00 0.00000000D+00
  <mgrwgt>
 0.5978151803D-03    5    2    0
 0.485045147237886D+03 0.000000000000000D+00 0.000000000000000D+00 0.485045147237886D+03
 0.485045147237886D+03 0.000000000000000D+00 0.000000000000000D+00 -.485045147237886D+03
 0.307797380895521D+03 -.788818676700943D+02 -.239466825065432D+03 -.157179204660578D+03
 0.179634190530350D+03 0.550570960585737D+02 0.770288310067550D+02 0.152655552715334D+03
 0.263912855735601D+03 -.213073160922636D+02 0.167516191130130D+03 0.202815974254293D+03
 0.218745867314299D+03 0.451320877037842D+02 -.507819707145347D+01 -.198292322309049D+03
 0.000000000000000D+00 -.000000000000000D+00 0.000000000000000D+00 0.000000000000000D+00
 0.155255765814559D+04 0.000000000000000D+00 0.000000000000000D+00 0.155255765814559D+04
 0.995399421822506D+03 0.000000000000000D+00 0.000000000000000D+00 -.995399421822506D+03
 0.604123174930747D+03 0.137110072629920D+03 -.561242478915951D+03 -.157179204660578D+03
 0.224310065917919D+03 0.150732868652881D+03 -.655048868783875D+02 0.152655552715334D+03
 0.223660427633291D+03 0.941763176962908D+02 -.452644027422090D+01 0.202815974254293D+03
 0.345640857050586D+03 0.178809284578338D+03 -.204224828975715D+03 -.198292322309049D+03
 0.115022255443555D+04 -.560828543557431D+03 0.835498635044275D+03 0.557158236323083D+03
0.446240739030D-04 0.000000000000D+00 0.000000000000D+00 0.260339819569D-06 0.000000000000D+00  7 1 -1 24 -13 13 -24 21 0 0.18320081D+00 0.30395565D-01 0.96268970D+05 0.96268970D+05 0.96268970D+05 0.11230797D+01  1  2  2  1  7  1        1 0.584983176313D-03 0.100000000000D+01
-.187740463922D-05 0.000000000000D+00 -.171368193576D-06 0.260339819569D-06 0.000000000000D+00  7 1 -1 24 -13 13 -24 21 2 0.18320081D+00 0.30395565D-01 0.96268970D+05 0.96268970D+05 0.96268970D+05 0.11230797D+01  1  2  3  1  7  1        1 -.310422509630D-04 0.100000000000D+01
0.259548374590D-05 0.000000000000D+00 0.000000000000D+00 0.260339819569D-06 0.000000000000D+00  7 1 -1 24 -13 13 -24 21 2 0.18320081D+00 0.30395565D-01 0.96268970D+05 0.96268970D+05 0.96268970D+05 0.11230797D+01  1  2 15  1  7  1        1 0.429154462108D-04 0.100000000000D+01
0.194164451893D-04 0.000000000000D+00 -.140708773523D-04 0.260339819569D-06 0.000000000000D+00  7 1 -1 24 -13 13 -24 21 2 0.69101113D+00 0.30395565D-01 0.96268970D+05 0.96268970D+05 0.96268970D+05 0.11230797D+01  1  2  5  1  7  1        1 0.949505756453D-06 0.100000000000D+01
0.334730009818D-05 0.000000000000D+00 -.221125057716D-05 0.260339819569D-06 0.000000000000D+00  7 21 -1 24 -13 13 -24 -1 2 0.69101113D+00 0.30395565D-01 0.96268970D+05 0.96268970D+05 0.96268970D+05 0.11230797D+01  1  2  5  3  7  1        1 0.930294350732D-08 0.100000000000D+01
  </mgrwgt>
  </event>
  <event>
  8     66 0.27727860E-05 0.33462360E+03 0.75467711E-02 0.97401348E-01
        3 -1    0    0  501    0 0.00000000E+00 0.00000000E+00 0.29707989E+03 0.29708031E+03 0.50000000E+00 0.0000E+00 0.9000E+01
       -3 -1    0    0    0  501 0.00000000E+00 0.00000000E+00 -.79597880E+03 0.79597895E+03 0.50000000E+00 0.0000E+00 0.9000E+01
       25  2    1    2    0    0 -.81085311E+02 0.28090036E+03 -.63285717E+03 0.75906075E+03 0.30030849E+03 0.0000E+00 0.0000E+00
       23  2    1    2    0    0 0.81085311E+02 -.28090036E+03 0.13395826E+03 0.33399851E+03 0.90168450E+02 0.0000E+00 0.0000E+00
       24  1    3    3    0    0 0.49447957E+02 0.86492789E+02 -.39690832E+03 0.41704860E+03 0.80419002E+02 0.0000E+00 0.9000E+01
      -13  1    4    4    0    0 0.29901776E+02 -.62235155E+02 -.61210307E+01 0.69316729E+02 0.10565837E+00 0.0000E+00 0.9000E+01
       13  1    4    4    0    0 0.51183534E+02 -.21866520E+03 0.14007929E+03 0.26468178E+03 0.10565837E+00 0.0000E+00 0.9000E+01
      -24  1    3    3    0    0 -.13053327E+03 0.19440757E+03 -.23594885E+03 0.34201215E+03 0.80419002E+02 0.0000E+00 0.9000E+01
#aMCatNLO 1  0  0  2  2 0.10374593D+03 0.00000000D+00  -5  7  0 0.00000000D+00 0.00000000D+00 0.00000000D+00 0.00000000D+00 0.00000000D+00
  <mgrwgt>
 0.1350780126D-03    3    2    0
 0.486281408061870D+03 0.000000000000000D+00 0.000000000000000D+00 0.486281408061870D+03
 0.486281408061870D+03 0.000000000000000D+00 0.000000000000000D+00 -.486281408061870D+03
 0.265115735847388D+03 0.494479567422012D+02 0.864927886402254D+02 -.232148733631675D+03
 0.747644493572537D+02 0.299017469988623D+02 -.622349398629864D+02 0.286778777868909D+02
 0.369332105716441D+03 0.511835635117880D+02 -.218665419126545D+03 0.293209620608512D+03
 0.263350525202656D+03 -.130533267252851D+03 0.194407570349306D+03 -.897387647637280D+02
 0.000000000000000D+00 -.000000000000000D+00 0.000000000000000D+00 0.000000000000000D+00
 0.166310097105606D+04 0.000000000000000D+00 0.000000000000000D+00 0.166310097105606D+04
 0.491332175899926D+03 0.000000000000000D+00 0.000000000000000D+00 -.491332175899926D+03
 0.263106228507605D+03 0.678560570231042D+02 0.652701503262587D+02 -.232148733631675D+03
 0.822937104151489D+02 0.353750944742079D+02 -.685451441786608D+02 0.286778777868909D+02
 0.392625723342208D+03 0.777371661137889D+02 -.249278980295575D+03 0.293209620608512D+03
 0.240054932313277D+03 -.112990001790154D+03 0.174181997254890D+03 -.897387647637280D+02
 0.117635255237775D+04 -.679783158209470D+02 0.783719768930870D+02 0.117176879515613D+04
0.139720994218D-03 0.000000000000D+00 0.000000000000D+00 0.520135973369D-05 0.000000000000D+00  7 3 -3 24 -13 13 -24 21 0 0.45704643D-01 0.12245832D+00 0.11197296D+06 0.11197296D+06 0.11197296D+06 0.11177139D+01  1  2  2  2  7  2       -3 0.132714633693D-03 0.100000000000D+01
-.644370052428D-05 0.000000000000D+00 -.536565407178D-06 0.520135973369D-05 0.000000000000D+00  7 3 -3 24 -13 13 -24 21 2 0.45704643D-01 0.12245832D+00 0.11197296D+06 0.11197296D+06 0.11197296D+06 0.11177139D+01  1  2  3  2  7  2       -3 -.764634320954D-05 0.100000000000D+01
0.843535925572D-05 0.000000000000D+00 0.000000000000D+00 0.520135973369D-05 0.000000000000D+00  7 3 -3 24 -13 13 -24 21 2 0.45704643D-01 0.12245832D+00 0.11197296D+06 0.11197296D+06 0.11197296D+06 0.11177139D+01  1  2 15  2  7  2       -3 0.100097221654D-04 0.100000000000D+01
  </mgrwgt>
  </event>
  <event>
  8     66 0.27727860E-05 0.56393112E+03 0.75467711E-02 0.86800806E-01
        1 -1    0    0  501    0 0.00000000E+00 0.00000000E+00 0.38457315E+03 0.38457328E+03 0.32000000E+00 0.0000E+00 0.9000E+01
       -1 -1    0    0    0  501 0.00000000E+00 0.00000000E+00 -.90804479E+03 0.90804485E+03 0.32000000E+00 0.0000E+00 0.9000E+01
       25  2    1    2    0    0 0.31649921E+03 0.44771144E+03 -.26108664E+03 0.67762940E+03 0.30066273E+03 0.0000E+00 0.0000E+00
       23  2    1    2    0    0 -.31649921E+03 -.44771144E+03 -.26238500E+03 0.61498873E+03 0.93530528E+02 0.0000E+00 0.0000E+00
       24  1    3    3    0    0 0.12740956E+03 0.17664687E+03 -.24436576E+03 0.33707440E+03 0.80419002E+02 0.0000E+00 0.9000E+01
      -13  1    4    4    0    0 -.32064156E+03 -.42461766E+03 -.25708605E+03 0.59093521E+03 0.10565837E+00 0.0000E+00 0.9000E+01
       13  1    4    4    0    0 0.41423500E+01 -.23093785E+02 -.52989488E+01 0.24053523E+02 0.10565837E+00 0.0000E+00 0.9000E+01
      -24  1    3    3    0    0 0.18908965E+03 0.27106457E+03 -.16720879E+02 0.34055499E+03 0.80419002E+02 0.0000E+00 0.9000E+01
#aMCatNLO 1  0  0  1  2 0.76342385D+03 0.00000000D+00  -5  7  0 0.00000000D+00 0.00000000D+00 0.00000000D+00 0.00000000D+00 0.00000000D+00
  <mgrwgt>
 0.8921887318D-03    3    2    0
 0.590939730945207D+03 0.000000000000000D+00 0.000000000000000D+00 0.590939730945207D+03
 0.590939730945207D+03 0.000000000000000D+00 0.000000000000000D+00 -.590939730945207D+03
 0.260424137066686D+03 0.127409560589211D+03 0.176646870105307D+03 -.117966954546689D+03
 0.532437603374707D+03 -.320641978137444D+03 -.424618170836014D+03 -.194404819741450D+02
 0.239596376603190D+02 0.414276437309680D+01 -.230932722489277D+02 0.485824217178181D+01
 0.365058083788701D+03 0.189089653175136D+03 0.271064572979634D+03 0.132549194349053D+03
 0.000000000000000D+00 -.000000000000000D+00 0.000000000000000D+00 -.000000000000000D+00
 0.103770343242546D+04 0.000000000000000D+00 0.000000000000000D+00 0.103770343242546D+04
 0.113947642495011D+04 0.000000000000000D+00 0.000000000000000D+00 -.113947642495011D+04
 0.300845540901732D+03 0.255039574637381D+03 0.712701657767675D+02 -.117966954546689D+03
 0.648769099679000D+03 -.520412786479894D+02 -.646386198549749D+03 -.194404819741450D+02
 0.400842052536378D+02 0.187060249440109D+02 -.351173123204229D+02 0.485824217178181D+01
 0.417303297566410D+03 0.366994852783510D+03 0.124178562212873D+03 0.132549194349053D+03
 0.770177713974794D+03 -.588699173716913D+03 0.486054782880532D+03 -.101772992524650D+03
0.261298247756D-03 0.000000000000D+00 0.000000000000D+00 0.934487388589D-06 0.000000000000D+00  7 1 -1 24 -13 13 -24 21 0 0.59165114D-01 0.13969921D+00 0.31801831D+06 0.31801831D+06 0.31801831D+06 0.10826827D+01  1  2  2  1  7  1        1 0.885372369342D-03 0.100000000000D+01
-.144779413863D-04 0.000000000000D+00 -.100345407279D-05 0.934487388589D-06 0.000000000000D+00  7 1 -1 24 -13 13 -24 21 2 0.59165114D-01 0.13969921D+00 0.31801831D+06 0.31801831D+06 0.31801831D+06 0.10826827D+01  1  2  3  1  7  1        1 -.575040861771D-04 0.100000000000D+01
0.161941132753D-04 0.000000000000D+00 0.000000000000D+00 0.934487388589D-06 0.000000000000D+00  7 1 -1 24 -13 13 -24 21 2 0.59165114D-01 0.13969921D+00 0.31801831D+06 0.31801831D+06 0.31801831D+06 0.10826827D+01  1  2 15  1  7  1        1 0.643204486394D-04 0.100000000000D+01
  </mgrwgt>
  </event>
  <event>
  8     66 0.27727860E-05 0.62241979E+03 0.75467711E-02 0.83715183E-01
        1 -1    0    0  501    0 0.00000000E+00 0.00000000E+00 0.11574801E+04 0.11574801E+04 0.32000000E+00 0.0000E+00 0.9000E+01
       -1 -1    0    0    0  501 0.00000000E+00 0.00000000E+00 -.35095991E+03 0.35096005E+03 0.32000000E+00 0.0000E+00 0.9000E+01
       25  2    1    2    0    0 -.43421887E+03 -.39681711E+03 0.28872819E+03 0.71971343E+03 0.29768038E+03 0.0000E+00 0.0000E+00
       23  2    1    2    0    0 0.43421887E+03 0.39681711E+03 0.51779199E+03 0.78872675E+03 0.89283181E+02 0.0000E+00 0.0000E+00
       24  1    3    3    0    0 -.12904875E+03 -.43316736E+01 0.99197307E+02 0.18160304E+03 0.80419002E+02 0.0000E+00 0.9000E+01
      -13  1    4    4    0    0 0.33924568E+03 0.32733387E+03 0.36688147E+03 0.59735845E+03 0.10565837E+00 0.0000E+00 0.9000E+01
       13  1    4    4    0    0 0.94973193E+02 0.69483240E+02 0.15091053E+03 0.19136830E+03 0.10565837E+00 0.0000E+00 0.9000E+01
      -24  1    3    3    0    0 -.30517012E+03 -.39248544E+03 0.18953088E+03 0.53811039E+03 0.80419002E+02 0.0000E+00 0.9000E+01
#aMCatNLO 1  0  0  1  2 0.12346288D+04 0.00000000D+00  -5  7  0 0.00000000D+00 0.00000000D+00 0.00000000D+00 0.00000000D+00 0.00000000D+00
  <mgrwgt>
 0.1573875512D-02    3    2    0
 0.637361157884472D+03 0.000000000000000D+00 0.000000000000000D+00 0.637361157884472D+03
 0.637361157884472D+03 0.000000000000000D+00 0.000000000000000D+00 -.637361157884472D+03
 0.152137207529182D+03 -.129048747495837D+03 -.433167367749634D+01 0.248421684127144D+01
 0.474756570551536D+03 0.339246021606007D+03 0.327334233550286D+03 0.561981997255963D+02
 0.130973335895223D+03 0.949728507122300D+02 0.694828792600708D+02 0.575004507186324D+02
 0.516855201793002D+03 -.305170124822401D+03 -.392485439132861D+03 -.116182867285500D+03
 0.000000000000000D+00 -.000000000000000D+00 -.000000000000000D+00 -.000000000000000D+00
 0.136374088695724D+04 0.000000000000000D+00 0.000000000000000D+00 0.136374088695724D+04
 0.168714893001337D+04 0.000000000000000D+00 0.000000000000000D+00 -.168714893001337D+04
 0.110677165771120D+03 -.451571517892643D+02 0.611300202660218D+02 0.248421684127144D+01
 0.111501371175449D+04 0.846708243381633D+03 0.723313549118023D+03 0.561981997255963D+02
 0.296254959137536D+03 0.231346150814592D+03 0.175896723914942D+03 0.575004507186324D+02
 0.252659859528936D+03 -.595372638647770D+02 -.200814950199498D+03 -.116182867285500D+03
 0.127628412077853D+04 -.973359978542184D+03 -.759525343099489D+03 -.323408043056128D+03
0.324906546889D-03 0.000000000000D+00 0.000000000000D+00 0.179498993052D-06 0.000000000000D+00  7 1 -1 24 -13 13 -24 21 0 0.17807387D+00 0.53993846D-01 0.38740640D+06 0.38740640D+06 0.38740640D+06 0.10764306D+01  1  2  2  1  7  1        1 0.156247380952D-02 0.100000000000D+01
-.180380139488D-04 0.000000000000D+00 -.124772668991D-05 0.179498993052D-06 0.000000000000D+00  7 1 -1 24 -13 13 -24 21 2 0.17807387D+00 0.53993846D-01 0.38740640D+06 0.38740640D+06 0.38740640D+06 0.10764306D+01  1  2  3  1  7  1        1 -.100511342959D-03 0.100000000000D+01
0.200841916163D-04 0.000000000000D+00 0.000000000000D+00 0.179498993052D-06 0.000000000000D+00  7 1 -1 24 -13 13 -24 21 2 0.17807387D+00 0.53993846D-01 0.38740640D+06 0.38740640D+06 0.38740640D+06 0.10764306D+01  1  2 15  1  7  1        1 0.111913045268D-03 0.100000000000D+01
  </mgrwgt>
  </event>
  <event>
  8     66 0.27727860E-05 0.23434895E+03 0.75467711E-02 0.97399811E-01
        1 -1    0    0  501    0 0.00000000E+00 0.00000000E+00 0.35489814E+03 0.35489829E+03 0.32000000E+00 0.0000E+00 0.9000E+01
       -1 -1    0    0    0  501 0.00000000E+00 0.00000000E+00 -.38729414E+03 0.38729428E+03 0.32000000E+00 0.0000E+00 0.9000E+01
       25  2    1    2    0    0 0.92433103E+02 -.12161170E+03 0.24189732E+03 0.41493840E+03 0.30054331E+03 0.0000E+00 0.0000E+00
       23  2    1    2    0    0 -.92433103E+02 0.12161170E+03 -.27429332E+03 0.32725416E+03 0.92331873E+02 0.0000E+00 0.0000E+00
       24  1    3    3    0    0 0.12017625E+03 -.89915969E+00 0.16598064E+02 0.14555360E+03 0.80419002E+02 0.0000E+00 0.9000E+01
      -13  1    4    4    0    0 -.17412189E+02 -.13393594E+02 -.53193789E+02 0.57551394E+02 0.10565837E+00 0.0000E+00 0.9000E+01
       13  1    4    4    0    0 -.75020914E+02 0.13500530E+03 -.22109953E+03 0.26970277E+03 0.10565837E+00 0.0000E+00 0.9000E+01
      -24  1    3    3    0    0 -.27743145E+02 -.12071254E+03 0.22529926E+03 0.26938480E+03 0.80419002E+02 0.0000E+00 0.9000E+01
#aMCatNLO 1  0  0  2  2 0.23828398D+03 0.00000000D+00  -5  7  0 0.00000000D+00 0.00000000D+00 0.00000000D+00 0.00000000D+00 0.00000000D+00
  <mgrwgt>
 0.8390494107D-03    3    2    0
 0.370742599777747D+03 0.000000000000000D+00 0.000000000000000D+00 0.370742599777747D+03
 0.370742599777747D+03 0.000000000000000D+00 0.000000000000000D+00 -.370742599777747D+03
 0.146417637078154D+03 0.120176247371843D+03 -.899159735484901D+00 0.229732360056497D+02
 0.552819552740234D+02 -.174121137555184D+02 -.133937873590582D+02 -.507298662886504D+02
 0.260300336247433D+03 -.750209891694477D+02 0.135005490367110D+03 -.209527167224922D+03
 0.279485270955883D+03 -.277431444468766D+02 -.120712543272566D+03 0.237283797507923D+03
 0.000000000000000D+00 0.000000000000000D+00 0.000000000000000D+00 0.000000000000000D+00
 0.132310798306903D+04 0.000000000000000D+00 0.000000000000000D+00 0.132310798306903D+04
 0.404618975525290D+03 0.000000000000000D+00 0.000000000000000D+00 -.404618975525290D+03
 0.118515150172384D+03 0.821222005111014D+02 -.175156922973458D+02 0.229732360056497D+02
 0.649168133008884D+02 -.346770571376584D+02 -.209326305979354D+02 -.507298662886504D+02
 0.278143836330408D+03 -.152361283618521D+03 0.101234377251076D+03 -.209527167224922D+03
 0.317256374530255D+03 -.113457090148926D+03 -.158140062479020D+03 0.237283797507923D+03
 0.948894784260386D+03 0.218373230394004D+03 0.953540081232257D+02 0.918489007543742D+03
0.322131637200D-04 0.000000000000D+00 0.000000000000D+00 0.103780901156D-05 0.000000000000D+00  7 1 -1 24 -13 13 -24 21 0 0.54599736D-01 0.59583736D-01 0.54919431D+05 0.54919431D+05 0.54919431D+05 0.11437277D+01  1  2  2  2  7  2       -1 0.821008596203D-03 0.100000000000D+01
-.133180127427D-05 0.000000000000D+00 -.123707030606D-06 0.103780901156D-05 0.000000000000D+00  7 1 -1 24 -13 13 -24 21 2 0.54599736D-01 0.59583736D-01 0.54919431D+05 0.54919431D+05 0.54919431D+05 0.11437277D+01  1  2  3  2  7  2       -1 -.444016395946D-04 0.100000000000D+01
0.187292497855D-05 0.000000000000D+00 0.000000000000D+00 0.103780901156D-05 0.000000000000D+00  7 1 -1 24 -13 13 -24 21 2 0.54599736D-01 0.59583736D-01 0.54919431D+05 0.54919431D+05 0.54919431D+05 0.11437277D+01  1  2 15  2  7  2       -1 0.624424540598D-04 0.100000000000D+01
  </mgrwgt>
  </event>
  <event>
  8     66 0.27727860E-05 0.20247282E+03 0.75467711E-02 0.98241638E-01
        1 -1    0    0  501    0 0.00000000E+00 0.00000000E+00 0.13752578E+04 0.13752578E+04 0.32000000E+00 0.0000E+00 0.9000E+01
       -1 -1    0    0    0  501 0.00000000E+00 0.00000000E+00 -.43627764E+02 0.43628938E+02 0.32000000E+00 0.0000E+00 0.9000E+01
       25  2    1    2    0    0 0.50523479E+02 -.70936137E+02 0.11120153E+04 0.11555538E+04 0.30189722E+03 0.0000E+00 0.0000E+00
       23  2    1    2    0    0 -.50523479E+02 0.70936137E+02 0.21961471E+03 0.26333298E+03 0.11631457E+03 0.0000E+00 0.0000E+00
       24  1    3    3    0    0 -.53527991E+02 0.69815102E+02 0.49620834E+03 0.51032277E+03 0.80419002E+02 0.0000E+00 0.9000E+01
      -11  1    4    4    0    0 -.39708979E+02 0.27340539E+02 0.21244591E+03 0.21784759E+03 0.51099893E-03 0.0000E+00 0.9000E+01
       11  1    4    4    0    0 -.10814500E+02 0.43595598E+02 0.71688091E+01 0.45485398E+02 0.51099893E-03 0.0000E+00 0.9000E+01
      -24  1    3    3    0    0 0.10405147E+03 -.14075124E+03 0.61580699E+03 0.64523104E+03 0.80419002E+02 0.0000E+00 0.9000E+01
#aMCatNLO 1  0  0  1  2 0.26314625D+03 0.00000000D+00  -5  7  0 0.00000000D+00 0.00000000D+00 0.00000000D+00 0.00000000D+00 0.00000000D+00
  <mgrwgt>
 0.4702025389D-03    5    2    0
 0.244949550402190D+03 0.000000000000000D+00 0.000000000000000D+00 0.244949550402190D+03
 0.244949550402190D+03 0.000000000000000D+00 0.000000000000000D+00 -.244949550402190D+03
 0.129259873061555D+03 -.535279895258816D+02 0.698151004118809D+02 0.500150469490417D+02
 0.534838895330179D+02 -.397089783326418D+02 0.273405398506145D+02 0.231563891838691D+02
 0.112252561072294D+03 -.108145033366783D+02 0.435956007628307D+02 -.102874231851314D+03
 0.194902777137513D+03 0.104051471195202D+03 -.140751241025326D+03 0.297027957184029D+02
 0.000000000000000D+00 0.000000000000000D+00 0.000000000000000D+00 0.000000000000000D+00
 0.412239563913916D+03 0.000000000000000D+00 0.000000000000000D+00 0.412239563913916D+03
 0.407057582972894D+03 0.000000000000000D+00 0.000000000000000D+00 -.407057582972894D+03
 0.133844209918554D+03 -.930865271393176D+02 0.167466449827281D+02 0.500150469490417D+02
 0.616843252204589D+02 -.570248865602694D+02 0.411095252428613D+01 0.231563891838691D+02
 0.112118290751265D+03 -.445493761698451D+02 -.166030866560564D+01 -.102874231851314D+03
 0.248453054599861D+03 0.373915085398708D+02 -.230176722109892D+03 0.297027957184029D+02
 0.263197266396671D+03 0.157269281329561D+03 0.210979433268484D+03 0.518198094102218D+01
0.440650716326D-05 0.000000000000D+00 0.000000000000D+00 0.292073855093D-09 0.000000000000D+00  7 1 -1 24 -11 11 -24 21 0 0.21157822D+00 0.67120568D-02 0.40995243D+05 0.40995243D+05 0.40995243D+05 0.11549589D+01  1  2  2  1  7  1        1 0.466976162384D-03 0.100000000000D+01
-.234010274018D-06 0.000000000000D+00 -.169221477669D-07 0.292073855093D-09 0.000000000000D+00  7 1 -1 24 -11 11 -24 21 2 0.21157822D+00 0.67120568D-02 0.40995243D+05 0.40995243D+05 0.40995243D+05 0.11549589D+01  1  2  3  1  7  1        1 -.330802042483D-04 0.100000000000D+01
0.279621870366D-06 0.000000000000D+00 0.000000000000D+00 0.292073855093D-09 0.000000000000D+00  7 1 -1 24 -11 11 -24 21 2 0.21157822D+00 0.67120568D-02 0.40995243D+05 0.40995243D+05 0.40995243D+05 0.11549589D+01  1  2 15  1  7  1        1 0.395279592865D-04 0.100000000000D+01
-.260924509406D-06 0.000000000000D+00 -.119607025619D-05 0.292073855093D-09 0.000000000000D+00  7 1 -1 24 -11 11 -24 21 2 0.45099691D+00 0.67120568D-02 0.40995243D+05 0.40995243D+05 0.40995243D+05 0.11549589D+01  1  2  5  1  7  1        1 -.340520524179D-05 0.100000000000D+01
0.532135650709D-07 0.000000000000D+00 -.979497673686D-07 0.292073855093D-09 0.000000000000D+00  7 21 -1 24 -11 11 -24 -1 2 0.45099691D+00 0.67120568D-02 0.40995243D+05 0.40995243D+05 0.40995243D+05 0.11549589D+01  1  2  5  3  7  1        1 0.183826744730D-06 0.100000000000D+01
  </mgrwgt>
  </event>
  <event>
  8     66 0.27727860E-05 0.16415593E+03 0.75467711E-02 0.98191236E-01
        1 -1    0    0  501    0 0.00000000E+00 0.00000000E+00 0.35416144E+03 0.35416159E+03 0.32000000E+00 0.0000E+00 0.9000E+01
       -1 -1    0    0    0  501 0.00000000E+00 0.00000000E+00 -.16264696E+03 0.16264727E+03 0.32000000E+00 0.0000E+00 0.9000E+01
       25  2    1    2    0    0 -.14454860E+02 -.12217592E+03 0.10297779E+03 0.34006307E+03 0.29983757E+03 0.0000E+00 0.0000E+00
       23  2    1    2    0    0 0.14454860E+02 0.12217592E+03 0.88536696E+02 0.17674579E+03 0.90908912E+02 0.0000E+00 0.0000E+00
       24  1    3    3    0    0 -.12014990E+03 -.35851310E+01 0.30383017E+02 0.14778090E+03 0.80419002E+02 0.0000E+00 0.9000E+01
      -11  1    4    4    0    0 0.48679036E+02 0.80934712E+02 0.77163155E+02 0.12195995E+03 0.51099893E-03 0.0000E+00 0.9000E+01
       11  1    4    4    0    0 -.34224177E+02 0.41241204E+02 0.11373542E+02 0.54785843E+02 0.51099893E-03 0.0000E+00 0.9000E+01
      -24  1    3    3    0    0 0.10569504E+03 -.11859079E+03 0.72594775E+02 0.19228217E+03 0.80419002E+02 0.0000E+00 0.9000E+01
#aMCatNLO 1  0  0  2  1 0.22166765D+03 0.00000000D+00  -5  7  0 0.00000000D+00 0.00000000D+00 0.00000000D+00 0.00000000D+00 0.00000000D+00
  <mgrwgt>
 0.2604937800D-03    7    2    0
 0.240007082586311D+03 0.000000000000000D+00 0.000000000000000D+00 0.240007082586311D+03
 0.240007082586311D+03 0.000000000000000D+00 0.000000000000000D+00 -.240007082586311D+03
 0.146986685097682D+03 -.120149897122539D+03 -.358513104787367D+01 -.262491656714582D+02
 0.100522281597626D+03 0.486790362910373D+02 0.809347121709732D+02 0.344187868637161D+02
 0.544475832910332D+02 -.342241765098631D+02 0.412412041591967D+02 -.961291568438950D+01
 0.178057615186281D+03 0.105695037341364D+03 -.118590785282296D+03 0.144329449213161D+01
 0.000000000000000D+00 0.000000000000000D+00 0.000000000000000D+00 -.000000000000000D+00
 0.296866649829175D+03 0.000000000000000D+00 0.000000000000000D+00 0.296866649829175D+03
 0.642287815449086D+03 0.000000000000000D+00 0.000000000000000D+00 -.642287815449086D+03
 0.204879833785881D+03 -.178528977490075D+03 -.542855029972127D+02 -.262491656714582D+02
 0.692434121163286D+02 0.205127728215168D+02 0.564732094316823D+02 0.344187868637161D+02
 0.594175704149062D+02 -.531158374168237D+02 0.248343983531856D+02 -.961291568438950D+01
 0.195184203621963D+03 0.437695259120082D+02 -.172371119656445D+03 0.144329449213161D+01
 0.410429445339181D+03 0.167362516173374D+03 0.145349014868790D+03 -.345421165619910D+03
0.272000196623D-05 0.000000000000D+00 0.000000000000D+00 0.388206937667D-06 0.000000000000D+00  7 1 -1 24 -11 11 -24 21 0 0.54486411D-01 0.25022644D-01 0.55392934D+05 0.55392934D+05 0.55392934D+05 0.11434030D+01  1  2  2  2  7  2       -1 0.308607729332D-03 0.100000000000D+01
-.151040892394D-06 0.000000000000D+00 -.104455237433D-07 0.388206937667D-06 0.000000000000D+00  7 1 -1 24 -11 11 -24 21 2 0.54486411D-01 0.25022644D-01 0.55392934D+05 0.55392934D+05 0.55392934D+05 0.11434030D+01  1  2  3  2  7  2       -1 -.224042690656D-04 0.100000000000D+01
0.171991032386D-06 0.000000000000D+00 0.000000000000D+00 0.388206937667D-06 0.000000000000D+00  7 1 -1 24 -11 11 -24 21 2 0.54486411D-01 0.25022644D-01 0.55392934D+05 0.55392934D+05 0.55392934D+05 0.11434030D+01  1  2 15  2  7  2       -1 0.255118551366D-04 0.100000000000D+01
0.113607725638D-07 0.000000000000D+00 0.000000000000D+00 0.388206937667D-06 0.000000000000D+00  7 1 -1 24 -11 11 -24 21 2 0.54486411D-01 0.65033203D-01 0.13644008D+06 0.13644008D+06 0.13644008D+06 0.11108139D+01  1  2 12  2  7  2       -1 0.298865107009D-06 0.100000000000D+01
-.144294828408D-05 0.000000000000D+00 -.876188985933D-06 0.388206937667D-06 0.000000000000D+00  7 1 -1 24 -11 11 -24 21 2 0.54486411D-01 0.78858877D-01 0.55392934D+05 0.55392934D+05 0.55392934D+05 0.11434030D+01  1  2  5  2  7  2       -1 -.282009418473D-04 0.100000000000D+01
0.120216738777D-08 0.000000000000D+00 0.000000000000D+00 0.388206937667D-06 0.000000000000D+00  7 1 21 24 -11 11 -24 1 2 0.54486411D-01 0.65033203D-01 0.13644008D+06 0.13644008D+06 0.13644008D+06 0.11108139D+01  1  2 12  4  7  2       -1 0.264507324966D-06 0.100000000000D+01
-.150824739028D-06 0.000000000000D+00 -.115500275823D-06 0.388206937667D-06 0.000000000000D+00  7 1 21 24 -11 11 -24 1 2 0.54486411D-01 0.78858877D-01 0.55392934D+05 0.55392934D+05 0.55392934D+05 0.11434030D+01  1  2  5  4  7  2       -1 -.235839659585D-04 0.100000000000D+01
  </mgrwgt>
  </event>
  <event>
  9     66 0.27727860E-05 0.38271693E+03 0.75467711E-02 0.93797729E-01
        1 -1    0    0  501    0 0.00000000E+00 0.00000000E+00 0.16625706E+04 0.16625707E+04 0.32000000E+00 0.0000E+00 0.9000E+01
       21 -1    0    0  502  501 0.00000000E+00 0.00000000E+00 -.22221584E+03 0.22221711E+03 0.75000000E+00 0.0000E+00 0.9000E+01
       25  2    1    2    0    0 0.18711491E+03 0.31704871E+03 0.42468884E+03 0.63722007E+03 0.30026145E+03 0.0000E+00 0.0000E+00
       23  2    1    2    0    0 0.65182585E+02 -.39337693E+03 0.82991131E+03 0.92510078E+03 0.89802521E+02 0.0000E+00 0.0000E+00
       24  1    3    3    0    0 0.72189762E+02 0.20419925E+03 0.39087013E+03 0.45404335E+03 0.80419002E+02 0.0000E+00 0.9000E+01
      -13  1    4    4    0    0 0.69745274E+02 -.28829158E+03 0.68096622E+03 0.74275934E+03 0.10565837E+00 0.0000E+00 0.9000E+01
       13  1    4    4    0    0 -.45626885E+01 -.10508535E+03 0.14894509E+03 0.18234144E+03 0.10565837E+00 0.0000E+00 0.9000E+01
      -24  1    3    3    0    0 0.11492515E+03 0.11284946E+03 0.33818715E+02 0.18317672E+03 0.80419002E+02 0.0000E+00 0.9000E+01
        1  1    1    2  502    0 -.25229749E+03 0.76328219E+02 0.18575463E+03 0.32246691E+03 0.32000000E+00 0.0000E+00 0.9000E+01
#aMCatNLO 2  0  0  2  1 0.26359063D+03 0.00000000D+00  -5  7  0 0.00000000D+00 0.00000000D+00 0.00000000D+00 0.00000000D+00 0.00000000D+00
  <mgrwgt>
 0.5424892224D-04    2    2    0
 0.446470852916980D+03 0.000000000000000D+00 0.000000000000000D+00 0.446470852916980D+03
 0.446470852916980D+03 0.000000000000000D+00 0.000000000000000D+00 -.446470852916980D+03
 0.242287428933103D+03 0.614289167650708D+01 0.224180582451904D+03 0.440603404210477D+02
 0.298437166997358D+03 -.170105270911380D+02 -.262045346878734D+03 0.141801342704131D+03
 0.102066269825343D+03 -.332419819314024D+02 -.964087014690840D+02 0.422567797839849D+01
 0.250150840078156D+03 0.441096173460332D+02 0.134273465895914D+03 -.190087361103577D+03
 0.000000000000000D+00 -.000000000000000D+00 0.000000000000000D+00 -.000000000000000D+00
 0.549504471415809D+03 0.000000000000000D+00 0.000000000000000D+00 0.549504471415809D+03
 0.672334186142659D+03 0.000000000000000D+00 0.000000000000000D+00 -.672334186142659D+03
 0.235196141818727D+03 0.721897616514199D+02 0.204199250455864D+03 0.440603404210477D+02
 0.328761648519524D+03 0.697453764714434D+02 -.288291836869234D+03 0.141801342704131D+03
 0.105268950568155D+03 -.456279131341448D+01 -.105085091876887D+03 0.422567797839849D+01
 0.261807582744952D+03 0.114925145787186D+03 0.112849459204981D+03 -.190087361103577D+03
 0.290804333907110D+03 -.252297492596634D+03 0.763282190852750D+02 -.122829714726850D+03
-.194279032184D-06 0.000000000000D+00 0.000000000000D+00 0.176525369628D-05 0.000000000000D+00  7 1 21 24 -13 13 -24 1 2 0.20782067D+00 0.35738508D-01 0.28968254D+06 0.28968254D+06 0.28968254D+06 0.10856781D+01  1  2 13  4  7  2       -1 -.171052234505D-04 0.100000000000D+01
0.120159071749D-05 0.000000000000D+00 0.000000000000D+00 0.176525369628D-05 0.891019432211D-11  7 1 21 24 -13 13 -24 1 2 0.25578016D+00 0.34187147D-01 0.28968254D+06 0.28968254D+06 0.28968254D+06 0.10856781D+01  1  2  1  4  7  2       -1 0.713541456922D-04 0.100000000000D+01
  </mgrwgt>
  </event>
  <event>
  8     66 0.27727860E-05 0.21629553E+03 0.75467711E-02 0.96638022E-01
        1 -1    0    0  501    0 0.00000000E+00 0.00000000E+00 0.50739805E+03 0.50739815E+03 0.32000000E+00 0.0000E+00 0.9000E+01
       -1 -1    0    0    0  501 0.00000000E+00 0.00000000E+00 -.25676686E+03 0.25676706E+03 0.32000000E+00 0.0000E+00 0.9000E+01
       25  2    1    2    0    0 0.23627892E+02 -.98670790E+02 0.43314155E+03 0.53718314E+03 0.30109787E+03 0.0000E+00 0.0000E+00
       23  2    1    2    0    0 -.23627892E+02 0.98670790E+02 -.18251035E+03 0.22698207E+03 0.88975439E+02 0.0000E+00 0.0000E+00
       24  1    3    3    0    0 0.55413365E+02 0.73955087E+02 0.19925091E+03 0.23389770E+03 0.80419002E+02 0.0000E+00 0.9000E+01
      -13  1    4    4    0    0 -.21933347E+02 0.10663699E+03 -.18793816E+03 0.21719411E+03 0.10565837E+00 0.0000E+00 0.9000E+01
       13  1    4    4    0    0 -.16945449E+01 -.79662015E+01 0.54278062E+01 0.97879565E+01 0.10565837E+00 0.0000E+00 0.9000E+01
      -24  1    3    3    0    0 -.31785473E+02 -.17262588E+03 0.23389064E+03 0.30328544E+03 0.80419002E+02 0.0000E+00 0.9000E+01
#aMCatNLO 1  0  0  1  2 0.29260493D+03 0.00000000D+00  -5  7  0 0.00000000D+00 0.00000000D+00 0.00000000D+00 0.00000000D+00 0.00000000D+00
  <mgrwgt>
 0.7307764827D-03    5    2    0
 0.360947529628146D+03 0.000000000000000D+00 0.000000000000000D+00 0.360947529628146D+03
 0.360947529628146D+03 0.000000000000000D+00 0.000000000000000D+00 -.360947529628146D+03
 0.178416507775984D+03 0.554133642633665D+02 0.739550856421978D+02 0.129712137679084D+03
 0.295161520996748D+03 -.219333754579751D+02 0.106637153409993D+03 -.274349718481261D+03
 0.847622704039908D+01 -.169451637221851D+01 -.796636304852199D+01 0.234778595357814D+01
 0.239840803443161D+03 -.317854724331729D+02 -.172625876003669D+03 0.142289794848598D+03
 0.000000000000000D+00 0.000000000000000D+00 -.000000000000000D+00 0.000000000000000D+00
 0.992882679830615D+03 0.000000000000000D+00 0.000000000000000D+00 0.992882679830615D+03
 0.424943140696037D+03 0.000000000000000D+00 0.000000000000000D+00 -.424943140696037D+03
 0.198233052862769D+03 0.405722786110139D+01 0.126441399603644D+03 0.129712137679084D+03
 0.355597916204854D+03 -.110664370830198D+03 0.197320822538434D+03 -.274349718481261D+03
 0.731844088435485D+01 -.384811803578218D+01 -.576536778329581D+01 0.234778595357814D+01
 0.217792256168144D+03 -.941837022139990D+02 -.108854468955797D+03 0.142289794848598D+03
 0.638884154406528D+03 0.204638963218877D+03 -.209142385402985D+03 0.567939539134578D+03
0.248355406375D-04 0.000000000000D+00 0.000000000000D+00 0.346787007604D-06 0.000000000000D+00  7 1 -1 24 -13 13 -24 21 0 0.78061262D-01 0.39502617D-01 0.46783757D+05 0.46783757D+05 0.46783757D+05 0.11498439D+01  1  2  2  1  7  1        1 0.815855080908D-03 0.100000000000D+01
-.939836026777D-06 0.000000000000D+00 -.953750153959D-07 0.346787007604D-06 0.000000000000D+00  7 1 -1 24 -13 13 -24 21 2 0.78061262D-01 0.39502617D-01 0.46783757D+05 0.46783757D+05 0.46783757D+05 0.11498439D+01  1  2  3  1  7  1        1 -.408196490862D-04 0.100000000000D+01
0.150404012947D-05 0.000000000000D+00 0.000000000000D+00 0.346787007604D-06 0.000000000000D+00  7 1 -1 24 -13 13 -24 21 2 0.78061262D-01 0.39502617D-01 0.46783757D+05 0.46783757D+05 0.46783757D+05 0.11498439D+01  1  2 15  1  7  1        1 0.653245763594D-04 0.100000000000D+01
-.142444133450D-04 0.000000000000D+00 -.800375850030D-05 0.346787007604D-06 0.000000000000D+00  7 1 -1 24 -13 13 -24 21 2 0.23004386D+00 0.39502617D-01 0.46783757D+05 0.46783757D+05 0.46783757D+05 0.11498439D+01  1  2  5  1  7  1        1 -.101533515855D-03 0.100000000000D+01
-.133236476230D-05 0.000000000000D+00 -.980896547699D-06 0.346787007604D-06 0.000000000000D+00  7 21 -1 24 -13 13 -24 -1 2 0.23004386D+00 0.39502617D-01 0.46783757D+05 0.46783757D+05 0.46783757D+05 0.11498439D+01  1  2  5  3  7  1        1 -.805000963360D-05 0.100000000000D+01
  </mgrwgt>
  </event>
  <event>
  8     66 0.27727860E-05 0.21613057E+03 0.75467711E-02 0.84514956E-01
        1 -1    0    0  501    0 0.00000000E+00 0.00000000E+00 0.58867122E+03 0.58867130E+03 0.32000000E+00 0.0000E+00 0.9000E+01
       -1 -1    0    0    0  501 0.00000000E+00 0.00000000E+00 -.18901658E+03 0.18901685E+03 0.32000000E+00 0.0000E+00 0.9000E+01
       25  2    1    2    0    0 0.95245828E+02 0.40435779E+02 -.39771977E+02 0.31697607E+03 0.29695993E+03 0.0000E+00 0.0000E+00
       23  2    1    2    0    0 -.95245828E+02 -.40435779E+02 0.43942661E+03 0.46071208E+03 0.91940486E+02 0.0000E+00 0.0000E+00
       24  1    3    3    0    0 0.11105392E+03 -.75287666E+02 0.29457194E+02 0.15917333E+03 0.80419002E+02 0.0000E+00 0.9000E+01
      -11  1    4    4    0    0 0.44975076E+01 -.33766741E+02 0.16902711E+03 0.17242559E+03 0.51099893E-03 0.0000E+00 0.9000E+01
       11  1    4    4    0    0 -.99743335E+02 -.66690378E+01 0.27039950E+03 0.28828649E+03 0.51099893E-03 0.0000E+00 0.9000E+01
      -24  1    3    3    0    0 -.15808097E+02 0.11572344E+03 -.69229171E+02 0.15780274E+03 0.80419002E+02 0.0000E+00 0.9000E+01
#aMCatNLO 1  0  0  2  2 0.13393839D+04 0.00000000D+00  -5  7  0 0.00000000D+00 0.00000000D+00 0.00000000D+00 0.00000000D+00 0.00000000D+00
  <mgrwgt>
 0.1581899305D-02    3    2    0
 0.333569721503939D+03 0.000000000000000D+00 0.000000000000000D+00 0.333569721503939D+03
 0.333569721503939D+03 0.000000000000000D+00 0.000000000000000D+00 -.333569721503939D+03
 0.167902693239850D+03 0.111053924849157D+03 -.752876660064332D+02 -.610155026671586D+02
 0.997405745491397D+02 0.449750758862996D+01 -.337667411389639D+02 0.937430628352675D+02
 0.174072413260842D+03 -.997433354827141D+02 -.666903782011543D+01 0.142506126253540D+03
 0.225423761958047D+03 -.158080969550727D+02 0.115723444965513D+03 -.175233686421649D+03
 0.000000000000000D+00 -.000000000000000D+00 -.000000000000000D+00 0.000000000000000D+00
 0.338694373144247D+04 0.000000000000000D+00 0.000000000000000D+00 0.338694373144247D+04
 0.918128846213600D+03 0.000000000000000D+00 0.000000000000000D+00 -.918128846213600D+03
 0.550917655410472D+03 0.539807707934656D+03 0.439066507172749D+02 -.610155026671586D+02
 0.214251463260727D+03 0.191783905813835D+03 0.182992117430100D+02 0.937430628352675D+02
 0.193910166569023D+03 0.119746726961757D+03 0.543495911758549D+02 0.142506126253540D+03
 0.537257624925195D+03 0.439107419180600D+03 0.242190770157583D+03 -.175233686421649D+03
 0.280873566749066D+04 -.129044575989085D+04 -.358746223793723D+03 0.246881488522887D+04
0.346755792992D-04 0.000000000000D+00 0.000000000000D+00 0.640321935799D-07 0.000000000000D+00  7 1 -1 24 -11 11 -24 21 0 0.90564830D-01 0.29079501D-01 0.46712424D+05 0.46712424D+05 0.46712424D+05 0.11499026D+01  1  2  2  2  7  2       -1 0.154863261970D-02 0.100000000000D+01
-.148530741924D-05 0.000000000000D+00 -.133163354799D-06 0.640321935799D-07 0.000000000000D+00  7 1 -1 24 -11 11 -24 21 2 0.90564830D-01 0.29079501D-01 0.46712424D+05 0.46712424D+05 0.46712424D+05 0.11499026D+01  1  2  3  2  7  2       -1 -.877128330678D-04 0.100000000000D+01
0.204863723876D-05 0.000000000000D+00 0.000000000000D+00 0.640321935799D-07 0.000000000000D+00  7 1 -1 24 -11 11 -24 21 2 0.90564830D-01 0.29079501D-01 0.46712424D+05 0.46712424D+05 0.46712424D+05 0.11499026D+01  1  2 15  2  7  2       -1 0.120979518322D-03 0.100000000000D+01
  </mgrwgt>
  </event>
  <event>
  9     66 0.27727860E-05 0.55018221E+03 0.75467711E-02 0.92548207E-01
        1 -1    0    0  502    0 0.00000000E+00 0.00000000E+00 0.11598764E+04 0.11598764E+04 0.32000000E+00 0.0000E+00 0.9000E+01
       -1 -1    0    0    0  501 0.00000000E+00 0.00000000E+00 -.39616747E+03 0.39616760E+03 0.32000000E+00 0.0000E+00 0.9000E+01
       25  2    1    2    0    0 0.45765800E+03 0.30334658E+03 0.67512013E+03 0.92090613E+03 0.30134849E+03 0.0000E+00 0.0000E+00
       23  2    1    2    0    0 -.36679779E+03 -.35011464E+03 0.11882237E+03 0.52856651E+03 0.90238137E+02 0.0000E+00 0.0000E+00
       24  1    3    3    0    0 0.36253923E+03 0.16437597E+03 0.31016071E+03 0.51100004E+03 0.80419002E+02 0.0000E+00 0.9000E+01
      -13  1    4    4    0    0 -.48749664E+02 -.19791169E+02 0.32848796E+02 0.62026403E+02 0.10565837E+00 0.0000E+00 0.9000E+01
       13  1    4    4    0    0 -.31804812E+03 -.33032347E+03 0.85973578E+02 0.46654011E+03 0.10565837E+00 0.0000E+00 0.9000E+01
      -24  1    3    3    0    0 0.95118768E+02 0.13897061E+03 0.36495942E+03 0.40990609E+03 0.80419002E+02 0.0000E+00 0.9000E+01
       21  1    1    2  502  501 -.90860215E+02 0.46768060E+02 -.30233582E+02 0.10657139E+03 0.75000000E+00 0.0000E+00 0.9000E+01
#aMCatNLO 2  0  0  1  2 0.10219017D+03 0.00000000D+00  -5  7  0 0.00000000D+00 0.00000000D+00 0.00000000D+00 0.00000000D+00 0.00000000D+00
  <mgrwgt>
 0.1180182358D-03    1    2    0
 0.604190244456494D+03 0.000000000000000D+00 0.000000000000000D+00 0.604190244456494D+03
 0.604190244456494D+03 0.000000000000000D+00 0.000000000000000D+00 -.604190244456494D+03
 0.388270053737437D+03 0.332666885675108D+03 0.179752030832096D+03 0.361713873367216D+02
 0.557180205237591D+02 -.528154961908219D+02 -.176977656664827D+02 -.134546037384697D+01
 0.514266114022166D+03 -.356163300625906D+03 -.310705239082948D+03 -.202681014713092D+03
 0.250126300629626D+03 0.763119111416200D+02 0.148650973917335D+03 0.167855087750217D+03
 0.000000000000000D+00 -.000000000000000D+00 0.000000000000000D+00 -.000000000000000D+00
 0.626978433122928D+03 0.000000000000000D+00 0.000000000000000D+00 0.626978433122928D+03
 0.732886552128614D+03 0.000000000000000D+00 0.000000000000000D+00 -.732886552128614D+03
 0.407712818650067D+03 0.362539234204011D+03 0.164375974333594D+03 0.361713873367216D+02
 0.526305754558198D+02 -.487492943490521D+02 -.197907430295739D+02 -.134546037384697D+01
 0.501346502558474D+03 -.318048493002159D+03 -.330323898623065D+03 -.202681014713092D+03
 0.251003896542382D+03 0.951187679567404D+02 0.138970607050005D+03 0.167855087750217D+03
 0.147171192044799D+03 -.908602148095406D+02 0.467680602690404D+02 -.105908119005686D+03
0.265246116215D-04 0.000000000000D+00 0.000000000000D+00 0.866134892014D-06 0.523483027630D-09  7 1 -1 24 -13 13 -24 21 2 0.17844227D+00 0.60948764D-01 0.36365782D+06 0.36365782D+06 0.36365782D+06 0.10784225D+01  1  2  1  1  7  1        1 0.118018235807D-03 0.100000000000D+01
  </mgrwgt>
  </event>
  <event>
  8     66 0.27727860E-05 0.33754134E+03 0.75467711E-02 0.94765906E-01
        1 -1    0    0  501    0 0.00000000E+00 0.00000000E+00 0.37609443E+03 0.37609456E+03 0.32000000E+00 0.0000E+00 0.9000E+01
       -1 -1    0    0    0  501 0.00000000E+00 0.00000000E+00 -.11808086E+04 0.11808086E+04 0.32000000E+00 0.0000E+00 0.9000E+01
       25  2    1    2    0    0 0.23987589E+03 -.31049066E+03 0.15340165E+03 0.51749859E+03 0.30054588E+03 0.0000E+00 0.0000E+00
       23  2    1    2    0    0 -.23987589E+03 0.31049066E+03 -.95811578E+03 0.10394046E+04 0.91821126E+02 0.0000E+00 0.0000E+00
       24  1    3    3    0    0 0.27035502E+03 -.18018846E+03 0.75927309E+02 0.34320823E+03 0.80419002E+02 0.0000E+00 0.9000E+01
      -13  1    4    4    0    0 -.20615362E+03 0.28968616E+03 -.78429687E+03 0.86112657E+03 0.10565837E+00 0.0000E+00 0.9000E+01
       13  1    4    4    0    0 -.33722270E+02 0.20804498E+02 -.17381891E+03 0.17827800E+03 0.10565837E+00 0.0000E+00 0.9000E+01
      -24  1    3    3    0    0 -.30479122E+02 -.13030220E+03 0.77474344E+02 0.17429036E+03 0.80419002E+02 0.0000E+00 0.9000E+01
#aMCatNLO 1  0  0  2  1 0.92479736D+02 0.00000000D+00  -5  7  0 0.00000000D+00 0.00000000D+00 0.00000000D+00 0.00000000D+00 0.00000000D+00
  <mgrwgt>
 0.1034734610D-02    9    2    0
 0.666405022382057D+03 0.000000000000000D+00 0.000000000000000D+00 0.666405022382057D+03
 0.666405022382057D+03 0.000000000000000D+00 0.000000000000000D+00 -.666405022382057D+03
 0.446756649947887D+03 0.270355015257064D+03 -.180188459644293D+03 0.295913117408908D+03
 0.532376441807616D+03 -.206153851294023D+03 0.289686515929928D+03 -.396241072930052D+03
 0.103305256651834D+03 -.337220419212167D+02 0.208041424990982D+02 -.954043374037166D+02
 0.250371696356778D+03 -.304791220418247D+02 -.130302198784733D+03 0.195732292924861D+03
 0.000000000000000D+00 0.000000000000000D+00 -.000000000000000D+00 -.000000000000000D+00
 0.691677520152296D+03 0.000000000000000D+00 0.000000000000000D+00 0.691677520152296D+03
 0.758337159231131D+03 0.000000000000000D+00 0.000000000000000D+00 -.758337159231131D+03
 0.425289621380613D+03 0.244957919738499D+03 -.163814195362989D+03 0.295913117408908D+03
 0.556570655015910D+03 -.237867871916528D+03 0.310133490061912D+03 -.396241072930052D+03
 0.106302427135990D+03 -.398265647448446D+02 0.247399102703485D+02 -.954043374037166D+02
 0.247851935994076D+03 -.449891699560762D+02 -.120947138513819D+03 0.195732292924861D+03
 0.114000039856838D+03 0.777256868789489D+02 -.501120664554523D+02 -.666596390788355D+02
0.369494750730D-03 0.000000000000D+00 0.000000000000D+00 0.854569119668D-05 0.000000000000D+00  7 1 -1 24 -13 13 -24 21 0 0.57860695D-01 0.18166287D+00 0.19625098D+06 0.19625098D+06 0.19625098D+06 0.10984571D+01  1  2  2  2  7  2       -1 0.596849883759D-03 0.100000000000D+01
-.163662288453D-04 0.000000000000D+00 -.141895713300D-05 0.854569119668D-05 0.000000000000D+00  7 1 -1 24 -13 13 -24 21 2 0.57860695D-01 0.18166287D+00 0.19625098D+06 0.19625098D+06 0.19625098D+06 0.10984571D+01  1  2  3  2  7  2       -1 -.318986038363D-04 0.100000000000D+01
0.216416425726D-04 0.000000000000D+00 0.000000000000D+00 0.854569119668D-05 0.000000000000D+00  7 1 -1 24 -13 13 -24 21 2 0.57860695D-01 0.18166287D+00 0.19625098D+06 0.19625098D+06 0.19625098D+06 0.10984571D+01  1  2 15  2  7  2       -1 0.421806507361D-04 0.100000000000D+01
0.699293413577D-03 0.000000000000D+00 0.000000000000D+00 0.854569119668D-05 0.000000000000D+00  7 1 -1 24 -13 13 -24 21 2 0.57860695D-01 0.20983604D+00 0.24390135D+06 0.24390135D+06 0.24390135D+06 0.10912669D+01  1  2 12  2  7  2       -1 0.786876330425D-03 0.100000000000D+01
-.712871812221D-03 0.000000000000D+00 0.000000000000D+00 0.854569119668D-05 0.000000000000D+00  7 1 -1 24 -13 13 -24 21 2 0.57860695D-01 0.18166287D+00 0.19625098D+06 0.19625098D+06 0.19625098D+06 0.10984571D+01  1  2  4  2  7  2       -1 -.138942304541D-02 0.100000000000D+01
-.130766533488D-02 0.000000000000D+00 -.288387784153D-03 0.854569119668D-05 0.000000000000D+00  7 1 -1 24 -13 13 -24 21 2 0.57860695D-01 0.21071107D+00 0.19625098D+06 0.19625098D+06 0.19625098D+06 0.10984571D+01  1  2  5  2  7  2       -1 -.148609675366D-02 0.100000000000D+01
0.133883091821D-02 0.000000000000D+00 0.285243866255D-03 0.854569119668D-05 0.000000000000D+00  7 1 -1 24 -13 13 -24 21 2 0.57860695D-01 0.18166287D+00 0.19625098D+06 0.19625098D+06 0.19625098D+06 0.10984571D+01  1  2  6  2  7  2       -1 0.260944885150D-02 0.100000000000D+01
0.154463575407D-04 0.000000000000D+00 0.000000000000D+00 0.854569119668D-05 0.000000000000D+00  7 1 21 24 -13 13 -24 1 2 0.57860695D-01 0.20983604D+00 0.24390135D+06 0.24390135D+06 0.24390135D+06 0.10912669D+01  1  2 12  4  7  2       -1 0.113844837434D-03 0.100000000000D+01
-.275987554355D-04 0.000000000000D+00 -.651917969244D-05 0.854569119668D-05 0.000000000000D+00  7 1 21 24 -13 13 -24 1 2 0.57860695D-01 0.21071107D+00 0.19625098D+06 0.19625098D+06 0.19625098D+06 0.10984571D+01  1  2  5  4  7  2       -1 -.207047540792D-03 0.100000000000D+01
  </mgrwgt>
  </event>
  <event>
  7     66 0.27727860E-05 0.28316256E+03 0.75467711E-02 0.10020542E+00
        1 -1    0    0  501    0 0.00000000E+00 0.00000000E+00 0.20021618E+04 0.20021618E+04 0.32000000E+00 0.0000E+00 0.9000E+01
       -1 -1    0    0    0  501 0.00000000E+00 0.00000000E+00 -.71251612E+02 0.71252330E+02 0.32000000E+00 0.0000E+00 0.9000E+01
       25  2    1    2    0    0 -.18538986E+03 0.76678129E+01 0.16990621E+04 0.17359746E+04 0.30392044E+03 0.0000E+00 0.0000E+00
       24  1    3    3    0    0 -.18856870E+03 -.87384161E+02 0.12614888E+04 0.12810212E+04 0.80419002E+02 0.0000E+00 0.9000E+01
      -13  1    1    2    0    0 0.20131347E+03 -.13302466E+00 0.24378332E+03 0.31616048E+03 0.10565837E+00 0.0000E+00 0.9000E+01
       13  1    1    2    0    0 -.15923612E+02 -.75347882E+01 -.11935280E+02 0.21279016E+02 0.10565837E+00 0.0000E+00 0.9000E+01
      -24  1    3    3    0    0 0.31788425E+01 0.95051974E+02 0.43757329E+03 0.45495339E+03 0.80419002E+02 0.0000E+00 0.9000E+01
#aMCatNLO 1  0  0  2  1 0.66949588D+02 0.00000000D+00  -5  7  0 0.00000000D+00 0.00000000D+00 0.00000000D+00 0.00000000D+00 0.00000000D+00
  <mgrwgt>
 0.1661626504D-02    3    2    0
 0.377700970903416D+03 0.000000000000000D+00 0.000000000000000D+00 0.377700970903416D+03
 0.377700970903416D+03 0.000000000000000D+00 0.000000000000000D+00 -.377700970903416D+03
 0.291588113075063D+03 -.188568960993054D+03 -.873841362785495D+02 0.188048322005695D+03
 0.244648483010143D+03 0.201313046609219D+03 -.133101050484874D+00 -.139017695953390D+03
 0.889140363966558D+02 -.159227966058475D+02 -.753472804239947D+01 -.871515822571324D+02
 0.130251309324970D+03 0.317871098968237D+01 0.950519653714338D+02 0.381209562048273D+02
 0.000000000000000D+00 -.000000000000000D+00 -.000000000000000D+00 0.000000000000000D+00
 0.988471962007338D+03 0.000000000000000D+00 0.000000000000000D+00 0.988471962007338D+03
 0.381020593235784D+03 0.000000000000000D+00 0.000000000000000D+00 -.381020593235784D+03
 0.275440280406403D+03 -.163575193036283D+03 -.853294610903673D+02 0.188048322005695D+03
 0.263388420915015D+03 0.223706557474203D+03 0.170781350190078D+01 -.139017695953390D+03
 0.878013880118051D+02 -.813344361608100D+01 -.689438480372705D+01 -.871515822571324D+02
 0.131732845600982D+03 0.147265827573841D+02 0.960012870438781D+02 0.381209562048273D+02
 0.611129620308918D+03 -.667245035792230D+02 -.548525465168446D+01 0.607451368771554D+03
0.844442380413D-04 0.000000000000D+00 0.000000000000D+00 0.453550994194D-10 0.000000000000D+00  7 1 -1 24 -13 13 -24 21 0 0.30802494D+00 0.10961844D-01 0.80181033D+05 0.80181033D+05 0.80181033D+05 0.11296801D+01  1  2  2  2  7  2       -1 0.164044456283D-02 0.100000000000D+01
-.421796618451D-05 0.000000000000D+00 -.324288108757D-06 0.453550994194D-10 0.000000000000D+00  7 1 -1 24 -13 13 -24 21 2 0.30802494D+00 0.10961844D-01 0.80181033D+05 0.80181033D+05 0.80181033D+05 0.11296801D+01  1  2  3  2  7  2       -1 -.104569637514D-03 0.100000000000D+01
0.507237013146D-05 0.000000000000D+00 0.000000000000D+00 0.453550994194D-10 0.000000000000D+00  7 1 -1 24 -13 13 -24 21 2 0.30802494D+00 0.10961844D-01 0.80181033D+05 0.80181033D+05 0.80181033D+05 0.11296801D+01  1  2 15  2  7  2       -1 0.125751578553D-03 0.100000000000D+01
  </mgrwgt>
  </event>
  <event>
  8     66 0.27727860E-05 0.24540346E+03 0.75467711E-02 0.89095551E-01
        1 -1    0    0  501    0 0.00000000E+00 0.00000000E+00 0.15737484E+03 0.15737516E+03 0.32000000E+00 0.0000E+00 0.9000E+01
       -1 -1    0    0    0  501 0.00000000E+00 0.00000000E+00 -.13854280E+04 0.13854281E+04 0.32000000E+00 0.0000E+00 0.9000E+01
       25  2    1    2    0    0 0.13849453E+03 0.24380005E+02 -.30956838E+02 0.33248163E+03 0.29968415E+03 0.0000E+00 0.0000E+00
       23  2    1    2    0    0 -.13849453E+03 -.24380005E+02 -.11970963E+04 0.12103216E+04 0.10983429E+03 0.0000E+00 0.0000E+00
       24  1    3    3    0    0 0.20110747E+03 -.20518007E+02 -.38146646E+02 0.22087912E+03 0.80419002E+02 0.0000E+00 0.9000E+01
      -11  1    4    4    0    0 -.13925728E+03 -.41055518E+02 -.81291677E+03 0.82577952E+03 0.51099893E-03 0.0000E+00 0.9000E+01
       11  1    4    4    0    0 0.76275608E+00 0.16675514E+02 -.38417958E+03 0.38454207E+03 0.51099893E-03 0.0000E+00 0.9000E+01
      -24  1    3    3    0    0 -.62612941E+02 0.44898011E+02 0.71898081E+01 0.11160251E+03 0.80419002E+02 0.0000E+00 0.9000E+01
#aMCatNLO 1  0  0  2  1 0.78576665D+03 0.00000000D+00  -5  7  0 0.00000000D+00 0.00000000D+00 0.00000000D+00 0.00000000D+00 0.00000000D+00
  <mgrwgt>
 0.8577605145D-03    3    2    0
 0.466938743927754D+03 0.000000000000000D+00 0.000000000000000D+00 0.466938743927754D+03
 0.466938743927754D+03 0.000000000000000D+00 0.000000000000000D+00 -.466938743927754D+03
 0.314738185674968D+03 0.201107468597662D+03 -.205180069533399D+02 0.227437259551954D+03
 0.295231747110537D+03 -.139257284004106D+03 -.410555182485351D+02 -.257067379834712D+03
 0.130081076810638D+03 0.762755969457231D+00 0.166755137156162D+02 -.129005550228921D+03
 0.193826478259364D+03 -.626129405630127D+02 0.448980114862588D+02 0.158635670511678D+03
 0.000000000000000D+00 0.000000000000000D+00 0.000000000000000D+00 0.000000000000000D+00
 0.114228484220508D+04 0.000000000000000D+00 0.000000000000000D+00 0.114228484220508D+04
 0.900356094753884D+03 0.000000000000000D+00 0.000000000000000D+00 -.900356094753884D+03
 0.247200505909632D+03 -.110397250438794D+01 -.539624719579640D+02 0.227437259551954D+03
 0.507072744389286D+03 -.427963418424825D+03 -.888056463156267D+02 -.257067379834712D+03
 0.167078790083141D+03 -.106169060298328D+03 -.101031735090597D+01 -.129005550228921D+03
 0.299121795867304D+03 -.239998449681164D+03 0.155595951251615D+02 0.158635670511678D+03
 0.822167100709599D+03 0.775234900908705D+03 0.128218840499335D+03 0.241928747451194D+03
0.274101613518D-03 0.000000000000D+00 0.000000000000D+00 0.320800353529D-07 0.000000000000D+00  7 1 -1 24 -11 11 -24 21 0 0.24211541D-01 0.21314280D+00 0.60222859D+05 0.60222859D+05 0.60222859D+05 0.11402561D+01  1  2  2  2  7  2       -1 0.822121903648D-03 0.100000000000D+01
-.756590209305D-05 0.000000000000D+00 -.105262236852D-05 0.320800353529D-07 0.000000000000D+00  7 1 -1 24 -11 11 -24 21 2 0.24211541D-01 0.21314280D+00 0.60222859D+05 0.60222859D+05 0.60222859D+05 0.11402561D+01  1  2  3  2  7  2       -1 -.295046287384D-04 0.100000000000D+01
0.167047474937D-04 0.000000000000D+00 0.000000000000D+00 0.320800353529D-07 0.000000000000D+00  7 1 -1 24 -11 11 -24 21 2 0.24211541D-01 0.21314280D+00 0.60222859D+05 0.60222859D+05 0.60222859D+05 0.11402561D+01  1  2 15  2  7  2       -1 0.651432396178D-04 0.100000000000D+01
  </mgrwgt>
  </event>
  <event>
  7     66 0.27727860E-05 0.40909015E+03 0.75467711E-02 0.96645333E-01
        1 -1    0    0  501    0 0.00000000E+00 0.00000000E+00 0.67210167E+03 0.67210174E+03 0.32000000E+00 0.0000E+00 0.9000E+01
       -1 -1    0    0    0  501 0.00000000E+00 0.00000000E+00 -.47243298E+03 0.47243309E+03 0.32000000E+00 0.0000E+00 0.9000E+01
       25  2    1    2    0    0 0.85367505E+02 0.35425240E+03 0.48667876E+03 0.67794888E+03 0.29996016E+03 0.0000E+00 0.0000E+00
       24  1    3    3    0    0 -.21337654E+02 0.10385373E+02 0.26053093E+02 0.87801658E+02 0.80419002E+02 0.0000E+00 0.9000E+01
      -13  1    1    2    0    0 0.26928193E+00 -.31417302E+02 -.41542719E+02 0.52085776E+02 0.10565837E+00 0.0000E+00 0.9000E+01
       13  1    1    2    0    0 -.85636787E+02 -.32283510E+03 -.24546735E+03 0.41450017E+03 0.10565837E+00 0.0000E+00 0.9000E+01
      -24  1    3    3    0    0 0.10670516E+03 0.34386703E+03 0.46062567E+03 0.59014722E+03 0.80419002E+02 0.0000E+00 0.9000E+01
#aMCatNLO 1  0  0  1  1 0.21927626D+02 0.00000000D+00  -5  7  0 0.00000000D+00 0.00000000D+00 0.00000000D+00 0.00000000D+00 0.00000000D+00
  <mgrwgt>
 0.3721903339D-04    4    2    0
 0.563491878363593D+03 0.000000000000000D+00 0.000000000000000D+00 0.563491878363593D+03
 0.563491878363593D+03 0.000000000000000D+00 0.000000000000000D+00 -.563491878363593D+03
 0.845531868792398D+02 -.213376543078211D+02 0.103853734802866D+02 0.109029346223843D+02
 0.602553176587524D+02 0.269648218446076D+00 -.314160339049554D+02 -.514165674630088D+02
 0.464446822677798D+03 -.856371533632120D+02 -.322836367548515D+03 -.322728692321317D+03
 0.517728429511396D+03 0.106705159452587D+03 0.343867027973184D+03 0.363242325161942D+03
 0.000000000000000D+00 -.000000000000000D+00 -.000000000000000D+00 -.000000000000000D+00
 0.567623603662269D+03 0.000000000000000D+00 0.000000000000000D+00 0.567623603662269D+03
 0.593462622791547D+03 0.000000000000000D+00 0.000000000000000D+00 -.593462622791547D+03
 0.846133121262331D+02 -.207621841605038D+02 0.119270432256336D+02 0.109029346223843D+02
 0.596958933898494D+02 0.677697929818213D+00 -.303228792077870D+02 -.514165674630088D+02
 0.458067247822257D+03 -.824989474467101D+02 -.314429194494110D+03 -.322728692321317D+03
 0.524820605174970D+03 0.110251699991662D+03 0.353368118994549D+03 0.363242325161942D+03
 0.338891679405059D+02 -.766826631426672D+01 -.205430885182861D+02 -.258390191292772D+02
0.912222644057D-05 0.000000000000D+00 0.000000000000D+00 0.494197791239D-08 0.000000000000D+00  7 1 -1 24 -13 13 -24 21 0 0.10340027D+00 0.72682011D-01 0.16735475D+06 0.16735475D+06 0.16735475D+06 0.11038192D+01  1  2  2  1  7  1        1 0.638711422725D-04 0.100000000000D+01
-.443607452261D-06 0.000000000000D+00 -.350317514692D-07 0.494197791239D-08 0.000000000000D+00  7 1 -1 24 -13 13 -24 21 2 0.10340027D+00 0.72682011D-01 0.16735475D+06 0.16735475D+06 0.16735475D+06 0.11038192D+01  1  2  3  1  7  1        1 -.378441337973D-05 0.100000000000D+01
0.558880450177D-06 0.000000000000D+00 0.000000000000D+00 0.494197791239D-08 0.000000000000D+00  7 1 -1 24 -13 13 -24 21 2 0.10340027D+00 0.72682011D-01 0.16735475D+06 0.16735475D+06 0.16735475D+06 0.11038192D+01  1  2 15  1  7  1        1 0.476780685837D-05 0.100000000000D+01
-.323942274926D-05 0.000000000000D+00 0.000000000000D+00 0.494197791239D-08 0.000000000000D+00  7 1 -1 24 -13 13 -24 21 2 0.10340027D+00 0.72682011D-01 0.16735475D+06 0.16735475D+06 0.16735475D+06 0.11038192D+01  1  2  4  1  7  1        1 -.276355023623D-04 0.100000000000D+01
  </mgrwgt>
  </event>
  <event>
  8     66 0.27727860E-05 0.29837858E+03 0.75467711E-02 0.94052027E-01
        3 -1    0    0  501    0 0.00000000E+00 0.00000000E+00 0.29109641E+03 0.29109684E+03 0.50000000E+00 0.0000E+00 0.9000E+01
       -3 -1    0    0    0  501 0.00000000E+00 0.00000000E+00 -.82042444E+03 0.82042459E+03 0.50000000E+00 0.0000E+00 0.9000E+01
       25  2    1    2    0    0 0.39925719E+03 0.94172480E+02 -.46372540E+03 0.68796872E+03 0.29997492E+03 0.0000E+00 0.0000E+00
       23  2    1    2    0    0 -.39925719E+03 -.94172480E+02 -.65602626E+02 0.42355271E+03 0.82573812E+02 0.0000E+00 0.0000E+00
       24  1    3    3    0    0 0.16829958E+03 0.15341128E+03 -.31046565E+03 0.39333943E+03 0.80419002E+02 0.0000E+00 0.9000E+01
      -13  1    4    4    0    0 -.15102494E+03 -.49339574E+02 0.12815332E+02 0.15939627E+03 0.10565837E+00 0.0000E+00 0.9000E+01
       13  1    4    4    0    0 -.24823225E+03 -.44832906E+02 -.78417958E+02 0.26415645E+03 0.10565837E+00 0.0000E+00 0.9000E+01
      -24  1    3    3    0    0 0.23095761E+03 -.59238798E+02 -.15325975E+03 0.29462929E+03 0.80419002E+02 0.0000E+00 0.9000E+01
#aMCatNLO 1  0  0  2  1 0.13782115D+03 0.00000000D+00  -5  7  0 0.00000000D+00 0.00000000D+00 0.00000000D+00 0.00000000D+00 0.00000000D+00
  <mgrwgt>
 0.2187631238D-03    9    2    0
 0.488695136520595D+03 0.000000000000000D+00 0.000000000000000D+00 0.488695136520595D+03
 0.488695136520595D+03 0.000000000000000D+00 0.000000000000000D+00 -.488695136520595D+03
 0.279179201228974D+03 0.168299579337850D+03 0.153411278038932D+03 -.140050140341386D+03
 0.188211173527939D+03 -.151024780822216D+03 -.493395810733486D+02 0.100898796612607D+03
 0.257938767862233D+03 -.248232413132471D+03 -.448328988246824D+02 0.538803138418209D+02
 0.252061130422044D+03 0.230957614616836D+03 -.592387981409010D+02 -.147289701130418D+02
 0.000000000000000D+00 0.000000000000000D+00 0.000000000000000D+00 -.000000000000000D+00
 0.524724767010577D+03 0.000000000000000D+00 0.000000000000000D+00 0.524724767010577D+03
 0.645754874529352D+03 0.000000000000000D+00 0.000000000000000D+00 -.645754874529352D+03
 0.256141895279818D+03 0.130935533653045D+03 0.149610490208799D+03 -.140050140341386D+03
 0.211963783899549D+03 -.178955971071860D+03 -.521808292849990D+02 0.100898796612607D+03
 0.295953684198052D+03 -.286892692015967D+03 -.487655435583253D+02 0.538803138418209D+02
 0.223000115559337D+03 0.197799552635550D+03 -.626117401266913D+02 -.147289701130418D+02
 0.183420162603173D+03 0.137113576799232D+03 0.139476227612165D+02 -.121030107518775D+03
0.175216396085D-03 0.000000000000D+00 0.000000000000D+00 0.121514728140D-06 0.000000000000D+00  7 3 -3 24 -13 13 -24 21 0 0.44784109D-01 0.12621919D+00 0.20442553D+06 0.20442553D+06 0.20442553D+06 0.10970961D+01  1  2  2  2  7  2       -3 0.157056686353D-03 0.100000000000D+01
-.966268117853D-05 0.000000000000D+00 -.672877096502D-06 0.121514728140D-06 0.000000000000D+00  7 3 -3 24 -13 13 -24 21 2 0.44784109D-01 0.12621919D+00 0.20442553D+06 0.20442553D+06 0.20442553D+06 0.10970961D+01  1  2  3  2  7  2       -3 -.104248229299D-04 0.100000000000D+01
0.106903593731D-04 0.000000000000D+00 0.000000000000D+00 0.121514728140D-06 0.000000000000D+00  7 3 -3 24 -13 13 -24 21 2 0.44784109D-01 0.12621919D+00 0.20442553D+06 0.20442553D+06 0.20442553D+06 0.10970961D+01  1  2 15  2  7  2       -3 0.115335590053D-04 0.100000000000D+01
0.187316284770D-03 0.000000000000D+00 0.000000000000D+00 0.121514728140D-06 0.000000000000D+00  7 3 -3 24 -13 13 -24 21 2 0.44784109D-01 0.17031231D+00 0.27678857D+06 0.27678857D+06 0.27678857D+06 0.10871489D+01  1  2 12  2  7  2       -3 0.736099101107D-04 0.100000000000D+01
-.201730581853D-03 0.000000000000D+00 0.000000000000D+00 0.121514728140D-06 0.000000000000D+00  7 3 -3 24 -13 13 -24 21 2 0.44784109D-01 0.12621919D+00 0.20442553D+06 0.20442553D+06 0.20442553D+06 0.10970961D+01  1  2  4  2  7  2       -3 -.217642035012D-03 0.100000000000D+01
-.297279703289D-03 0.000000000000D+00 -.768367686115D-04 0.121514728140D-06 0.000000000000D+00  7 3 -3 24 -13 13 -24 21 2 0.44784109D-01 0.17345771D+00 0.20442553D+06 0.20442553D+06 0.20442553D+06 0.10970961D+01  1  2  5  2  7  2       -3 -.112157362790D-03 0.100000000000D+01
0.309652616341D-03 0.000000000000D+00 0.731109152632D-04 0.121514728140D-06 0.000000000000D+00  7 3 -3 24 -13 13 -24 21 2 0.44784109D-01 0.12621919D+00 0.20442553D+06 0.20442553D+06 0.20442553D+06 0.10970961D+01  1  2  6  2  7  2       -3 0.334076395102D-03 0.100000000000D+01
0.723402331616D-05 0.000000000000D+00 0.000000000000D+00 0.121514728140D-06 0.000000000000D+00  7 3 21 24 -13 13 -24 3 2 0.44784109D-01 0.17031231D+00 0.27678857D+06 0.27678857D+06 0.27678857D+06 0.10871489D+01  1  2 12  4  7  2       -3 0.467653434510D-04 0.100000000000D+01
-.100992350158D-04 0.000000000000D+00 -.309705586858D-05 0.121514728140D-06 0.000000000000D+00  7 3 21 24 -13 13 -24 3 2 0.44784109D-01 0.17345771D+00 0.20442553D+06 0.20442553D+06 0.20442553D+06 0.10970961D+01  1  2  5  4  7  2       -3 -.640545494669D-04 0.100000000000D+01
  </mgrwgt>
  </event>
  <event>
  8     66 0.27727860E-05 0.21332216E+03 0.75467711E-02 0.10537215E+00
        1 -1    0    0  501    0 0.00000000E+00 0.00000000E+00 0.44101570E+03 0.44101581E+03 0.32000000E+00 0.0000E+00 0.9000E+01
       -1 -1    0    0    0  501 0.00000000E+00 0.00000000E+00 -.12178015E+03 0.12178057E+03 0.32000000E+00 0.0000E+00 0.9000E+01
       25  2    1    2    0    0 0.10836049E+03 -.13535585E+01 0.24865121E+03 0.40400079E+03 0.29940840E+03 0.0000E+00 0.0000E+00
       23  2    1    2    0    0 -.10836049E+03 0.13535585E+01 0.70584343E+02 0.15879559E+03 0.92141543E+02 0.0000E+00 0.0000E+00
       24  1    3    3    0    0 -.71803624E+02 -.43895349E+02 0.97554713E+02 0.15187725E+03 0.80419002E+02 0.0000E+00 0.9000E+01
      -11  1    4    4    0    0 -.44377930E+02 0.20014582E+01 0.82509311E+02 0.93708019E+02 0.51099893E-03 0.0000E+00 0.9000E+01
       11  1    4    4    0    0 -.63982559E+02 -.64789971E+00 -.11924968E+02 0.65087575E+02 0.51099893E-03 0.0000E+00 0.9000E+01
      -24  1    3    3    0    0 0.18016411E+03 0.42541791E+02 0.15109649E+03 0.25212354E+03 0.80419002E+02 0.0000E+00 0.9000E+01
#aMCatNLO 1  0  0  2  1 0.11314522D+01 0.00000000D+00  -5  7  0 0.00000000D+00 0.00000000D+00 0.00000000D+00 0.00000000D+00 0.00000000D+00
  <mgrwgt>
 0.4105208102D-03    6    2    0
 0.231747941872581D+03 0.000000000000000D+00 0.000000000000000D+00 0.231747941872581D+03
 0.231747941872581D+03 0.000000000000000D+00 0.000000000000000D+00 -.231747941872581D+03
 0.117224421061342D+03 -.718036240331441D+02 -.438953489891837D+02 0.138487129951077D+02
 0.569554770470730D+02 -.443779295230208D+02 0.200145816150597D+01 0.356443530189173D+02
 0.872454908649168D+02 -.639825586733673D+02 -.647899706455035D+00 -.593092580280664D+02
 0.202070494771831D+03 0.180164112229532D+03 0.425417905341327D+02 0.981619201404142D+01
 0.000000000000000D+00 -.000000000000000D+00 0.000000000000000D+00 0.000000000000000D+00
 0.233189945340724D+03 0.000000000000000D+00 0.000000000000000D+00 0.233189945340724D+03
 0.231970684092643D+03 0.000000000000000D+00 0.000000000000000D+00 -.231970684092643D+03
 0.117206209793805D+03 -.716329340200054D+02 -.441249993985666D+02 0.138487129951077D+02
 0.568871018062354D+02 -.442950402213568D+02 0.188993692068729D+01 0.356443530189173D+02
 0.871538480705216D+02 -.638555777180814D+02 -.818742908286377D+00 -.593092580280664D+02
 0.202250105081649D+03 0.180458499905108D+03 0.421457143433227D+02 0.981619201404142D+01
 0.166336468115653D+01 -.674947945664546D+00 0.908091042842958D+00 0.121926124808039D+01
0.258605870230D-05 0.000000000000D+00 0.000000000000D+00 0.259792282877D-06 0.000000000000D+00  7 1 -1 24 -11 11 -24 21 0 0.67848610D-01 0.18735449D-01 0.45506344D+05 0.45506344D+05 0.45506344D+05 0.11509102D+01  1  2  2  2  7  2       -1 0.348494203048D-03 0.100000000000D+01
-.142470983736D-06 0.000000000000D+00 -.993114634173D-08 0.259792282877D-06 0.000000000000D+00  7 1 -1 24 -11 11 -24 21 2 0.67848610D-01 0.18735449D-01 0.45506344D+05 0.45506344D+05 0.45506344D+05 0.11509102D+01  1  2  3  2  7  2       -1 -.254311794640D-04 0.100000000000D+01
0.162111309535D-06 0.000000000000D+00 0.000000000000D+00 0.259792282877D-06 0.000000000000D+00  7 1 -1 24 -11 11 -24 21 2 0.67848610D-01 0.18735449D-01 0.45506344D+05 0.45506344D+05 0.45506344D+05 0.11509102D+01  1  2 15  2  7  2       -1 0.289369926270D-04 0.100000000000D+01
-.113557597602D-04 0.000000000000D+00 0.000000000000D+00 0.259792282877D-06 0.000000000000D+00  7 1 -1 24 -11 11 -24 21 2 0.67848610D-01 0.18735449D-01 0.45506344D+05 0.45506344D+05 0.45506344D+05 0.11509102D+01  1  2  4  2  7  2       -1 -.202701179454D-02 0.100000000000D+01
0.113559423132D-04 0.000000000000D+00 0.000000000000D+00 0.259792282877D-06 0.143316185052D-05  7 1 -1 24 -11 11 -24 21 2 0.68270784D-01 0.18753456D-01 0.45737071D+05 0.45737071D+05 0.45737071D+05 0.11507152D+01  1  2 11  2  7  2       -1 0.200659585578D-02 0.100000000000D+01
0.356653187168D-07 0.000000000000D+00 0.000000000000D+00 0.259792282877D-06 0.258572864434D-09  7 1 21 24 -11 11 -24 1 2 0.68270784D-01 0.18753456D-01 0.45737071D+05 0.45737071D+05 0.45737071D+05 0.11507152D+01  1  2 11  4  7  2       -1 0.789367327506D-04 0.100000000000D+01
  </mgrwgt>
  </event>
  <event>
  8     66 0.27727860E-05 0.15227529E+03 0.75467711E-02 0.10357948E+00
        1 -1    0    0  501    0 0.00000000E+00 0.00000000E+00 0.92731615E+03 0.92731620E+03 0.32000000E+00 0.0000E+00 0.9000E+01
       -1 -1    0    0    0  501 0.00000000E+00 0.00000000E+00 -.10983501E+03 0.10983547E+03 0.32000000E+00 0.0000E+00 0.9000E+01
       25  2    1    2    0    0 0.89132519E+02 0.19098236E+02 0.84686906E+03 0.90293052E+03 0.29964474E+03 0.0000E+00 0.0000E+00
       23  2    1    2    0    0 -.89132519E+02 -.19098236E+02 -.29387918E+02 0.13422115E+03 0.94033610E+02 0.0000E+00 0.0000E+00
       24  1    3    3    0    0 0.84111132E+02 0.98270206E+01 0.80156592E+03 0.81002864E+03 0.80419002E+02 0.0000E+00 0.9000E+01
      -11  1    4    4    0    0 -.63551101E+02 -.38721586E+02 -.55416175E+02 0.92784999E+02 0.51099893E-03 0.0000E+00 0.9000E+01
       11  1    4    4    0    0 -.25581418E+02 0.19623350E+02 0.26028256E+02 0.41436155E+02 0.51099893E-03 0.0000E+00 0.9000E+01
      -24  1    3    3    0    0 0.50213868E+01 0.92712158E+01 0.45303143E+02 0.92901886E+02 0.80419002E+02 0.0000E+00 0.9000E+01
#aMCatNLO 1  0  0  1  2 0.15435472D+03 0.00000000D+00  -5  7  0 0.00000000D+00 0.00000000D+00 0.00000000D+00 0.00000000D+00 0.00000000D+00
  <mgrwgt>
 0.4934145130D-03    7    2    0
 0.319142671507883D+03 0.000000000000000D+00 0.000000000000000D+00 0.319142671507883D+03
 0.319142671507883D+03 0.000000000000000D+00 0.000000000000000D+00 -.319142671507883D+03
 0.289615820657799D+03 0.841111318848164D+02 0.982702064018102D+01 0.265026139803817D+03
 0.221740632023540D+03 -.635511010945005D+02 -.387215859989423D+02 -.208879879877412D+03
 0.339941510072818D+02 -.255814176169075D+02 0.196233495162465D+02 -.107757843880844D+02
 0.929347393271460D+02 0.502138682659156D+01 0.927121584251478D+01 -.453704755383200D+02
 0.000000000000000D+00 -.000000000000000D+00 0.000000000000000D+00 0.000000000000000D+00
 0.419633928702329D+03 0.000000000000000D+00 0.000000000000000D+00 0.419633928702329D+03
 0.393586821402613D+03 0.000000000000000D+00 0.000000000000000D+00 -.393586821402613D+03
 0.318002159766950D+03 0.156233770044381D+03 0.321122725472150D+01 0.265026139803817D+03
 0.213683481664697D+03 -.118674169225257D+02 -.434625187297257D+02 -.208879879877412D+03
 0.283801266748430D+02 -.181777567565304D+02 0.189442133698412D+02 -.107757843880844D+02
 0.966179893932351D+02 0.275207915612928D+02 0.720735050398829D+01 -.453704755383200D+02
 0.156536992605217D+03 -.153709387926618D+03 0.140997276011747D+02 0.260471072997162D+02
0.107248983978D-04 0.000000000000D+00 0.000000000000D+00 0.534174614947D-06 0.000000000000D+00  7 1 -1 24 -11 11 -24 21 0 0.14266406D+00 0.16897733D-01 0.23187764D+05 0.23187764D+05 0.23187764D+05 0.11778592D+01  1  2  2  1  7  1        1 0.578035922293D-03 0.100000000000D+01
-.199180054156D-06 0.000000000000D+00 -.411864337782D-07 0.534174614947D-06 0.000000000000D+00  7 1 -1 24 -11 11 -24 21 2 0.14266406D+00 0.16897733D-01 0.23187764D+05 0.23187764D+05 0.23187764D+05 0.11778592D+01  1  2  3  1  7  1        1 -.148934129076D-04 0.100000000000D+01
0.618126138932D-06 0.000000000000D+00 0.000000000000D+00 0.534174614947D-06 0.000000000000D+00  7 1 -1 24 -11 11 -24 21 2 0.14266406D+00 0.16897733D-01 0.23187764D+05 0.23187764D+05 0.23187764D+05 0.11778592D+01  1  2 15  1  7  1        1 0.462195266243D-04 0.100000000000D+01
-.468424539370D-05 0.000000000000D+00 0.000000000000D+00 0.534174614947D-06 0.000000000000D+00  7 1 -1 24 -11 11 -24 21 2 0.14266406D+00 0.16897733D-01 0.23187764D+05 0.23187764D+05 0.23187764D+05 0.11778592D+01  1  2  4  1  7  1        1 -.350257966866D-03 0.100000000000D+01
-.276269684729D-05 0.000000000000D+00 -.415801588084D-05 0.534174614947D-06 0.000000000000D+00  7 1 -1 24 -11 11 -24 21 2 0.21535002D+00 0.16897733D-01 0.23187764D+05 0.23187764D+05 0.23187764D+05 0.11778592D+01  1  2  5  1  7  1        1 -.969101431311D-04 0.100000000000D+01
0.442370081222D-05 0.000000000000D+00 0.382880455140D-05 0.534174614947D-06 0.000000000000D+00  7 1 -1 24 -11 11 -24 21 2 0.14266406D+00 0.16897733D-01 0.23187764D+05 0.23187764D+05 0.23187764D+05 0.11778592D+01  1  2  6  1  7  1        1 0.330776106349D-03 0.100000000000D+01
0.132198504638D-07 0.000000000000D+00 -.202192780265D-06 0.534174614947D-06 0.000000000000D+00  7 21 -1 24 -11 11 -24 -1 2 0.21535002D+00 0.16897733D-01 0.23187764D+05 0.23187764D+05 0.23187764D+05 0.11778592D+01  1  2  5  3  7  1        1 0.444480643630D-06 0.100000000000D+01
  </mgrwgt>
  </event>
  <event>
  9     66 0.27727860E-05 0.24524920E+03 0.75467711E-02 0.10249286E+00
        1 -1    0    0  501    0 0.00000000E+00 0.00000000E+00 0.34915272E+03 0.34915287E+03 0.32000000E+00 0.0000E+00 0.9000E+01
       21 -1    0    0  502  501 0.00000000E+00 0.00000000E+00 -.36229533E+03 0.36229611E+03 0.75000000E+00 0.0000E+00 0.9000E+01
       25  2    1    2    0    0 -.98586498E+02 -.11109345E+03 0.11100056E+03 0.35263019E+03 0.29994312E+03 0.0000E+00 0.0000E+00
       23  2    1    2    0    0 0.62563075E+02 0.12550814E+03 -.20767217E+03 0.26671739E+03 0.91345510E+02 0.0000E+00 0.0000E+00
       24  1    3    3    0    0 0.47428710E+02 -.12670801E+03 0.96406505E+02 0.18456932E+03 0.80419002E+02 0.0000E+00 0.9000E+01
      -11  1    4    4    0    0 0.47360875E+02 0.11276381E+02 -.88072179E+02 0.10063259E+03 0.51099893E-03 0.0000E+00 0.9000E+01
       11  1    4    4    0    0 0.15202201E+02 0.11423176E+03 -.11959999E+03 0.16608480E+03 0.51099893E-03 0.0000E+00 0.9000E+01
      -24  1    3    3    0    0 -.14601521E+03 0.15614559E+02 0.14594050E+02 0.16806087E+03 0.80419002E+02 0.0000E+00 0.9000E+01
        1  1    1    2  502    0 0.36023422E+02 -.14414693E+02 0.83529003E+02 0.92101396E+02 0.32000000E+00 0.0000E+00 0.9000E+01
#aMCatNLO 2  0  0  2  2 0.38800391D+02 0.00000000D+00  -5  7  0 0.00000000D+00 0.00000000D+00 0.00000000D+00 0.00000000D+00 0.00000000D+00
  <mgrwgt>
 0.6480954749D-04    1    2    0
 0.305262407716657D+03 0.000000000000000D+00 0.000000000000000D+00 0.305262407716657D+03
 0.305262407716657D+03 0.000000000000000D+00 0.000000000000000D+00 -.305262407716657D+03
 0.208291832679916D+03 0.595237185432850D+02 -.131547800571918D+03 0.126768981625074D+03
 0.906695755459185D+02 0.526256106501665D+02 0.916970899948472D+01 -.732627700147823D+02
 0.147747167807919D+03 0.239552714008947D+02 0.110729240457930D+03 -.948388415944684D+02
 0.163816239399559D+03 -.136104600594346D+03 0.116488511145031D+02 0.413326299841766D+02
 0.000000000000000D+00 0.000000000000000D+00 -.000000000000000D+00 0.000000000000000D+00
 0.408659629401252D+03 0.000000000000000D+00 0.000000000000000D+00 0.408659629401252D+03
 0.309540078758154D+03 0.000000000000000D+00 0.000000000000000D+00 -.309540078758154D+03
 0.202094019895907D+03 0.474287101790601D+02 -.126708009501409D+03 0.126768981625074D+03
 0.879638717136126D+02 0.473608749747690D+02 0.112763814335236D+02 -.732627700147823D+02
 0.149246133475621D+03 0.152022005028683D+02 0.114231762580785D+03 -.948388415944684D+02
 0.172452479239011D+03 -.146015207743771D+03 0.156145588296782D+02 0.413326299841766D+02
 0.106443203835255D+03 0.360234220870734D+02 -.144146933425778D+02 0.991195506430978D+02
0.190002705643D-06 0.000000000000D+00 0.000000000000D+00 0.151959599973D-05 0.206376560193D-10  7 1 21 24 -11 11 -24 1 2 0.53715833D-01 0.55737771D-01 0.69574643D+05 0.69574643D+05 0.69574643D+05 0.11348847D+01  1  2  1  4  7  2       -1 0.648095474858D-04 0.100000000000D+01
  </mgrwgt>
  </event>
  <event>
  9     66 -.27727860E-05 0.29036895E+03 0.75467711E-02 0.99771296E-01
        1 -1    0    0  501    0 0.00000000E+00 0.00000000E+00 0.24832457E+03 0.24832478E+03 0.32000000E+00 0.0000E+00 0.9000E+01
       -1 -1    0    0    0  502 0.00000000E+00 0.00000000E+00 -.78267466E+03 0.78267473E+03 0.32000000E+00 0.0000E+00 0.9000E+01
       25  2    1    2    0    0 0.17806414E+03 0.98997171E+02 0.46055789E+02 0.36675156E+03 0.30146027E+03 0.0000E+00 0.0000E+00
       23  2    1    2    0    0 -.21713196E+03 -.41405640E+02 -.51812060E+03 0.57085042E+03 0.92523119E+02 0.0000E+00 0.0000E+00
       24  1    3    3    0    0 0.11171073E+03 0.17051018E+03 -.26905674E+02 0.22078076E+03 0.80419002E+02 0.0000E+00 0.9000E+01
      -13  1    4    4    0    0 -.15882858E+03 -.66170846E+02 -.42205306E+03 0.45577834E+03 0.10565837E+00 0.0000E+00 0.9000E+01
       13  1    4    4    0    0 -.58303378E+02 0.24765206E+02 -.96067536E+02 0.11507207E+03 0.10565837E+00 0.0000E+00 0.9000E+01
      -24  1    3    3    0    0 0.66353405E+02 -.71513013E+02 0.72961462E+02 0.14597081E+03 0.80419002E+02 0.0000E+00 0.9000E+01
       21  1    1    2  501  502 0.39067822E+02 -.57591531E+02 -.62285280E+02 0.93397525E+02 0.75000000E+00 0.0000E+00 0.9000E+01
#aMCatNLO 2  0  0  2  1 0.69592235D+02 0.00000000D+00  -5  7  0 0.00000000D+00 0.00000000D+00 0.00000000D+00 0.00000000D+00 0.00000000D+00
  <mgrwgt>
 -.3994907513D-04    2    2    0
 0.403549626932449D+03 0.000000000000000D+00 0.000000000000000D+00 0.403549626932449D+03
 0.403549626932449D+03 0.000000000000000D+00 0.000000000000000D+00 -.403549626932449D+03
 0.233983123133888D+03 0.123157562813194D+03 0.153635928575594D+03 0.975146252094877D+02
 0.279653695172795D+03 -.145270659249081D+03 -.861574678710935D+02 -.222889020625013D+03
 0.728998692615087D+02 -.546770981490445D+02 0.194198651491941D+02 -.441324677978915D+02
 0.220562566296706D+03 0.767901945849312D+02 -.868983258536948D+02 0.169506863213417D+03
 0.000000000000000D+00 0.000000000000000D+00 -.000000000000000D+00 -.000000000000000D+00
 0.432114705937089D+03 0.000000000000000D+00 0.000000000000000D+00 0.432114705937089D+03
 0.449778153122265D+03 0.000000000000000D+00 0.000000000000000D+00 -.449778153122265D+03
 0.239852723482550D+03 0.111710733869697D+03 0.170510183907510D+03 0.975146252094877D+02
 0.281575340977008D+03 -.158828714893890D+03 -.661709638459075D+02 -.222889020625013D+03
 0.772027493658805D+02 -.583032463429139D+02 0.247653237733029D+02 -.441324677978915D+02
 0.211463183651034D+03 0.663534053589755D+02 -.715130128457453D+02 0.169506863213417D+03
 0.717988615828826D+02 0.390678220081314D+02 -.575915309891603D+02 -.176634471851758D+02
-.447913479797D-04 0.000000000000D+00 0.000000000000D+00 0.334257365966D-06 0.000000000000D+00  7 1 -1 24 -13 13 -24 21 2 0.35678168D-01 0.12387658D+00 0.10580778D+06 0.10580778D+06 0.10580778D+06 0.11197156D+01  1  2 13  2  7  2       -1 -.529562249276D-03 0.100000000000D+01
0.422181192579D-04 0.000000000000D+00 0.000000000000D+00 0.334257365966D-06 0.465100698176D-09  7 1 -1 24 -13 13 -24 21 2 0.38203631D-01 0.12041097D+00 0.10580778D+06 0.10580778D+06 0.10580778D+06 0.11197156D+01  1  2  1  2  7  2       -1 0.489613174148D-03 0.100000000000D+01
  </mgrwgt>
  </event>
  <event>
  8     66 0.27727860E-05 0.18174930E+03 0.75467711E-02 0.93481767E-01
        1 -1    0    0  501    0 0.00000000E+00 0.00000000E+00 0.13013402E+04 0.13013402E+04 0.32000000E+00 0.0000E+00 0.9000E+01
       -1 -1    0    0    0  501 0.00000000E+00 0.00000000E+00 -.65843857E+02 0.65844635E+02 0.32000000E+00 0.0000E+00 0.9000E+01
       25  2    1    2    0    0 0.47240491E+02 0.24548771E+02 0.12282273E+04 0.12647720E+04 0.29710541E+03 0.0000E+00 0.0000E+00
       23  2    1    2    0    0 -.47240491E+02 -.24548771E+02 0.72689957E+01 0.10241282E+03 0.87185096E+02 0.0000E+00 0.0000E+00
       24  1    3    3    0    0 -.72188333E+02 0.79185822E+02 0.38619071E+03 0.40876892E+03 0.80419002E+02 0.0000E+00 0.9000E+01
      -13  1    4    4    0    0 0.16441849E+01 -.26550070E+02 -.30598288E+02 0.40544740E+02 0.10565837E+00 0.0000E+00 0.9000E+01
       13  1    4    4    0    0 -.48884676E+02 0.20012980E+01 0.37867284E+02 0.61868078E+02 0.10565837E+00 0.0000E+00 0.9000E+01
      -24  1    3    3    0    0 0.11942882E+03 -.54637051E+02 0.84203659E+03 0.85600309E+03 0.80419002E+02 0.0000E+00 0.9000E+01
#aMCatNLO 1  0  0  2  1 0.48698931D+03 0.00000000D+00  -5  7  0 0.00000000D+00 0.00000000D+00 0.00000000D+00 0.00000000D+00 0.00000000D+00
  <mgrwgt>
 0.1547124459D-02    3    2    0
 0.292721392056740D+03 0.000000000000000D+00 0.000000000000000D+00 0.292721392056740D+03
 0.292721392056740D+03 0.000000000000000D+00 0.000000000000000D+00 -.292721392056740D+03
 0.139596004837907D+03 -.721883326284592D+02 0.791858223257314D+02 0.392208973285284D+02
 0.159257760936865D+03 0.164425643568876D+01 -.265501109568115D+02 -.157020452322551D+03
 0.645667307259539D+02 -.488847478082809D+02 0.200133928157125D+01 -.421323959612867D+02
 0.222022287612754D+03 0.119428824001051D+03 -.546370506504911D+02 0.159931950955309D+03
 0.000000000000000D+00 -.000000000000000D+00 0.000000000000000D+00 0.000000000000000D+00
 0.132682187061992D+04 0.000000000000000D+00 0.000000000000000D+00 0.132682187061992D+04
 0.443426144091559D+03 0.000000000000000D+00 0.000000000000000D+00 -.443426144091559D+03
 0.107647940501643D+03 0.146629514585855D+02 0.580308728793824D+02 0.392208973285284D+02
 0.213709549947014D+03 0.132659355018875D+03 -.584623367387347D+02 -.157020452322551D+03
 0.440822858243961D+02 -.107187713301382D+02 -.729500344326925D+01 -.421323959612867D+02
 0.396073089440096D+03 0.336551945505936D+03 -.107523184774494D+03 0.159931950955309D+03
 0.100873514899833D+04 -.473155480653257D+03 0.115249652077115D+03 0.883395726528356D+03
0.236611349736D-04 0.000000000000D+00 0.000000000000D+00 0.727240648589D-08 0.000000000000D+00  7 1 -1 24 -13 13 -24 21 0 0.20020624D+00 0.10129887D-01 0.33032808D+05 0.33032808D+05 0.33032808D+05 0.11634752D+01  1  2  2  2  7  2       -1 0.151463655477D-02 0.100000000000D+01
-.951479672161D-06 0.000000000000D+00 -.908649884184D-07 0.727240648589D-08 0.000000000000D+00  7 1 -1 24 -13 13 -24 21 2 0.20020624D+00 0.10129887D-01 0.33032808D+05 0.33032808D+05 0.33032808D+05 0.11634752D+01  1  2  3  2  7  2       -1 -.824492326859D-04 0.100000000000D+01
0.132639620044D-05 0.000000000000D+00 0.000000000000D+00 0.727240648589D-08 0.000000000000D+00  7 1 -1 24 -13 13 -24 21 2 0.20020624D+00 0.10129887D-01 0.33032808D+05 0.33032808D+05 0.33032808D+05 0.11634752D+01  1  2 15  2  7  2       -1 0.114937136508D-03 0.100000000000D+01
  </mgrwgt>
  </event>
  <event>
  8     66 0.27727860E-05 0.32032841E+03 0.75467711E-02 0.94226275E-01
        1 -1    0    0  501    0 0.00000000E+00 0.00000000E+00 0.20520312E+03 0.20520337E+03 0.32000000E+00 0.0000E+00 0.9000E+01
       -1 -1    0    0    0  501 0.00000000E+00 0.00000000E+00 -.11515809E+04 0.11515809E+04 0.32000000E+00 0.0000E+00 0.9000E+01
       25  2    1    2    0    0 -.76670176E+02 -.35164662E+03 -.84658238E+03 0.96999025E+03 0.30764542E+03 0.0000E+00 0.0000E+00
       23  2    1    2    0    0 0.76670176E+02 0.35164662E+03 -.99795391E+02 0.38679406E+03 0.10058259E+03 0.0000E+00 0.0000E+00
       24  1    3    3    0    0 -.12390057E+03 -.22400530E+03 -.30702497E+03 0.40775148E+03 0.80419002E+02 0.0000E+00 0.9000E+01
      -11  1    4    4    0    0 0.99975154E+02 0.30673595E+03 -.79426995E+02 0.33225084E+03 0.51099893E-03 0.0000E+00 0.9000E+01
       11  1    4    4    0    0 -.23304978E+02 0.44910674E+02 -.20368397E+02 0.54543214E+02 0.51099893E-03 0.0000E+00 0.9000E+01
      -24  1    3    3    0    0 0.47230392E+02 -.12764132E+03 -.53955741E+03 0.56223877E+03 0.80419002E+02 0.0000E+00 0.9000E+01
#aMCatNLO 1  0  0  2  1 0.21243020D+03 0.00000000D+00  -5  7  0 0.00000000D+00 0.00000000D+00 0.00000000D+00 0.00000000D+00 0.00000000D+00
  <mgrwgt>
 0.3879214208D-03    9    2    0
 0.486115412466488D+03 0.000000000000000D+00 0.000000000000000D+00 0.486115412466488D+03
 0.486115412466488D+03 0.000000000000000D+00 0.000000000000000D+00 -.486115412466488D+03
 0.270171655520710D+03 -.123900567413449D+03 -.224005302745762D+03 -.315560014709676D+02
 0.386353504789542D+03 0.999751536639455D+02 0.306735950356218D+03 0.212572472517259D+03
 0.562903149773117D+02 -.233049778125896D+02 0.449106740700455D+02 0.246679736495279D+02
 0.259415349645413D+03 0.472303915620926D+02 -.127641321680501D+03 -.205684444695819D+03
 0.000000000000000D+00 -.000000000000000D+00 -.000000000000000D+00 -.000000000000000D+00
 0.561966299461800D+03 0.000000000000000D+00 0.000000000000000D+00 0.561966299461800D+03
 0.672813048394604D+03 0.000000000000000D+00 0.000000000000000D+00 -.672813048394604D+03
 0.221018319584291D+03 -.103994295356696D+03 -.174846466769912D+03 -.315560014709676D+02
 0.465788575909157D+03 0.134509596443991D+03 0.392019272281166D+03 0.212572472517259D+03
 0.648025683831896D+02 -.183974919059492D+02 0.570297837682618D+02 0.246679736495279D+02
 0.243558546245999D+03 0.676142261607509D+02 -.773031378790616D+02 -.205684444695819D+03
 0.239611337733766D+03 -.797320353420977D+02 -.196899451400453D+03 -.110846748932804D+03
0.776591151469D-04 0.000000000000D+00 0.000000000000D+00 0.532120718068D-09 0.000000000000D+00  7 1 -1 24 -11 11 -24 21 0 0.31569734D-01 0.17716631D+00 0.15984810D+06 0.15984810D+06 0.15984810D+06 0.11053792D+01  1  2  2  2  7  2       -1 0.306400798190D-03 0.100000000000D+01
-.411399362610D-05 0.000000000000D+00 -.298231450279D-06 0.532120718068D-09 0.000000000000D+00  7 1 -1 24 -11 11 -24 21 2 0.31569734D-01 0.17716631D+00 0.15984810D+06 0.15984810D+06 0.15984810D+06 0.11053792D+01  1  2  3  2  7  2       -1 -.198327808511D-04 0.100000000000D+01
0.488399781142D-05 0.000000000000D+00 0.000000000000D+00 0.532120718068D-09 0.000000000000D+00  7 1 -1 24 -11 11 -24 21 2 0.31569734D-01 0.17716631D+00 0.15984810D+06 0.15984810D+06 0.15984810D+06 0.11053792D+01  1  2 15  2  7  2       -1 0.235448245852D-04 0.100000000000D+01
0.260071616901D-04 0.000000000000D+00 0.000000000000D+00 0.532120718068D-09 0.000000000000D+00  7 1 -1 24 -11 11 -24 21 2 0.31569734D-01 0.25482243D+00 0.26832510D+06 0.26832510D+06 0.26832510D+06 0.10881555D+01  1  2 12  2  7  2       -1 0.276580669006D-04 0.100000000000D+01
-.459854543303D-04 0.000000000000D+00 0.000000000000D+00 0.532120718068D-09 0.000000000000D+00  7 1 -1 24 -11 11 -24 21 2 0.31569734D-01 0.17716631D+00 0.15984810D+06 0.15984810D+06 0.15984810D+06 0.11053792D+01  1  2  4  2  7  2       -1 -.221687129578D-03 0.100000000000D+01
-.625895147020D-04 0.000000000000D+00 -.272503039256D-04 0.532120718068D-09 0.000000000000D+00  7 1 -1 24 -11 11 -24 21 2 0.31569734D-01 0.26430219D+00 0.15984810D+06 0.15984810D+06 0.15984810D+06 0.11053792D+01  1  2  5  2  7  2       -1 -.590479095715D-04 0.100000000000D+01
0.698688099586D-04 0.000000000000D+00 0.252066940214D-04 0.532120718068D-09 0.000000000000D+00  7 1 -1 24 -11 11 -24 21 2 0.31569734D-01 0.17716631D+00 0.15984810D+06 0.15984810D+06 0.15984810D+06 0.11053792D+01  1  2  6  2  7  2       -1 0.336824244803D-03 0.100000000000D+01
0.115456926194D-05 0.000000000000D+00 0.000000000000D+00 0.532120718068D-09 0.000000000000D+00  7 1 21 24 -11 11 -24 1 2 0.31569734D-01 0.25482243D+00 0.26832510D+06 0.26832510D+06 0.26832510D+06 0.10881555D+01  1  2 12  4  7  2       -1 0.906507446735D-05 0.100000000000D+01
-.204914579353D-05 0.000000000000D+00 -.129711837361D-05 0.532120718068D-09 0.000000000000D+00  7 1 21 24 -11 11 -24 1 2 0.31569734D-01 0.26430219D+00 0.15984810D+06 0.15984810D+06 0.15984810D+06 0.11053792D+01  1  2  5  4  7  2       -1 -.150037681599D-04 0.100000000000D+01
  </mgrwgt>
  </event>
  <event>
  8     66 0.27727860E-05 0.36701435E+03 0.75467711E-02 0.91973423E-01
        1 -1    0    0  501    0 0.00000000E+00 0.00000000E+00 0.50533458E+03 0.50533469E+03 0.32000000E+00 0.0000E+00 0.9000E+01
       -1 -1    0    0    0  501 0.00000000E+00 0.00000000E+00 -.34185277E+03 0.34185292E+03 0.32000000E+00 0.0000E+00 0.9000E+01
       25  2    1    2    0    0 -.27561425E+03 0.14520333E+03 0.26073275E+03 0.50498679E+03 0.29997146E+03 0.0000E+00 0.0000E+00
       23  2    1    2    0    0 0.27561425E+03 -.14520333E+03 -.97250931E+02 0.34220081E+03 0.10293898E+03 0.0000E+00 0.0000E+00
       24  1    3    3    0    0 -.15419293E+03 -.32616118E+02 0.30287335E+02 0.17950992E+03 0.80419002E+02 0.0000E+00 0.9000E+01
      -11  1    4    4    0    0 0.17329278E+03 -.34866783E+02 -.64755682E+02 0.18825349E+03 0.51099893E-03 0.0000E+00 0.9000E+01
       11  1    4    4    0    0 0.10232147E+03 -.11033655E+03 -.32495250E+02 0.15394732E+03 0.51099893E-03 0.0000E+00 0.9000E+01
      -24  1    3    3    0    0 -.12142131E+03 0.17781945E+03 0.23044541E+03 0.32547687E+03 0.80419002E+02 0.0000E+00 0.9000E+01
#aMCatNLO 1  0  0  2  2 0.42657516D+03 0.00000000D+00  -5  7  0 0.00000000D+00 0.00000000D+00 0.00000000D+00 0.00000000D+00 0.00000000D+00
  <mgrwgt>
 0.2649502847D-03    5    2    0
 0.415632209067065D+03 0.000000000000000D+00 0.000000000000000D+00 0.415632209067065D+03
 0.415632209067065D+03 0.000000000000000D+00 0.000000000000000D+00 -.415632209067065D+03
 0.176991996640762D+03 -.154192934216088D+03 -.326161184795650D+02 -.443607638267910D+01
 0.204594827924851D+03 0.173292775646650D+03 -.348667835062320D+02 -.103019245436030D+03
 0.163286966631071D+03 0.102321469876248D+03 -.110336546516575D+03 -.633939806033388D+02
 0.286390626937446D+03 -.121421311306810D+03 0.177819448502372D+03 0.170849302422048D+03
 0.000000000000000D+00 -.000000000000000D+00 -.000000000000000D+00 -.000000000000000D+00
 0.491017783544450D+03 0.000000000000000D+00 0.000000000000000D+00 0.491017783544450D+03
 0.237422419441694D+04 0.000000000000000D+00 0.000000000000000D+00 -.237422419441694D+04
 0.119082246170998D+03 -.827465783498875D+02 -.290979448840061D+02 -.443607638267910D+01
 0.317901122249451D+03 0.299377473998934D+03 -.286580993659558D+02 -.103019245436030D+03
 0.233191172284931D+03 0.197996520624149D+03 -.105625299410769D+03 -.633939806033388D+02
 0.264152434181779D+03 0.114314998355624D+02 0.184361409202679D+03 0.170849302422048D+03
 0.193091500307423D+04 -.426058916108758D+03 -.209800655419485D+02 -.188320641087248D+04
0.140745589588D-04 0.000000000000D+00 0.000000000000D+00 0.234867498272D-07 0.000000000000D+00  7 1 -1 24 -11 11 -24 21 0 0.77743801D-01 0.52592753D-01 0.13469953D+06 0.13469953D+06 0.13469953D+06 0.11112582D+01  1  2  2  2  7  2       -1 0.275317339327D-03 0.100000000000D+01
-.767207552671D-06 0.000000000000D+00 -.540500123183D-07 0.234867498272D-07 0.000000000000D+00  7 1 -1 24 -11 11 -24 21 2 0.77743801D-01 0.52592753D-01 0.13469953D+06 0.13469953D+06 0.13469953D+06 0.11112582D+01  1  2  3  2  7  2       -1 -.185328223784D-04 0.100000000000D+01
0.874913769999D-06 0.000000000000D+00 0.000000000000D+00 0.234867498272D-07 0.000000000000D+00  7 1 -1 24 -11 11 -24 21 2 0.77743801D-01 0.52592753D-01 0.13469953D+06 0.13469953D+06 0.13469953D+06 0.11112582D+01  1  2 15  2  7  2       -1 0.211345957680D-04 0.100000000000D+01
-.366213124092D-04 0.000000000000D+00 -.638899215126D-05 0.234867498272D-07 0.000000000000D+00  7 1 -1 24 -11 11 -24 21 2 0.77743801D-01 0.31375872D+00 0.13469953D+06 0.13469953D+06 0.13469953D+06 0.11112582D+01  1  2  5  2  7  2       -1 -.394665710549D-05 0.100000000000D+01
-.841716455776D-05 0.000000000000D+00 -.139847882038D-05 0.234867498272D-07 0.000000000000D+00  7 1 21 24 -11 11 -24 1 2 0.77743801D-01 0.31375872D+00 0.13469953D+06 0.13469953D+06 0.13469953D+06 0.11112582D+01  1  2  5  4  7  2       -1 -.902217089191D-05 0.100000000000D+01
  </mgrwgt>
  </event>
  <event>
  9     66 0.27727860E-05 0.12802393E+04 0.75467711E-02 0.85011544E-01
        1 -1    0    0  501    0 0.00000000E+00 0.00000000E+00 0.28224690E+04 0.28224690E+04 0.32000000E+00 0.0000E+00 0.9000E+01
       21 -1    0    0  502  501 0.00000000E+00 0.00000000E+00 -.72383744E+03 0.72383782E+03 0.75000000E+00 0.0000E+00 0.9000E+01
       25  2    1    2    0    0 0.24080901E+03 0.12422568E+04 0.17838069E+04 0.22076289E+04 0.30077771E+03 0.0000E+00 0.0000E+00
       23  2    1    2    0    0 -.23350799E+03 -.12536346E+04 0.29083724E+03 0.13111415E+04 0.91543306E+02 0.0000E+00 0.0000E+00
       24  1    3    3    0    0 0.21803739E+03 0.10536515E+04 0.13578272E+04 0.17343252E+04 0.80419002E+02 0.0000E+00 0.9000E+01
      -13  1    4    4    0    0 -.67430618E+02 -.34421744E+03 0.12214660E+03 0.37141935E+03 0.10565837E+00 0.0000E+00 0.9000E+01
       13  1    4    4    0    0 -.16607738E+03 -.90941711E+03 0.16869064E+03 0.93972215E+03 0.10565837E+00 0.0000E+00 0.9000E+01
      -24  1    3    3    0    0 0.22771614E+02 0.18860535E+03 0.42597966E+03 0.47330372E+03 0.80419002E+02 0.0000E+00 0.9000E+01
        1  1    1    2  502    0 -.73010124E+01 0.11377706E+02 0.23987472E+02 0.27536488E+02 0.32000000E+00 0.0000E+00 0.9000E+01
#aMCatNLO 2  0  0  2  1 0.13518764D+02 0.00000000D+00  -5  7  0 0.00000000D+00 0.00000000D+00 0.00000000D+00 0.00000000D+00 0.00000000D+00
  <mgrwgt>
 0.2125847778D-04    1    2    0
 0.142103958429703D+04 0.000000000000000D+00 0.000000000000000D+00 0.142103958429703D+04
 0.142103958429703D+04 0.000000000000000D+00 0.000000000000000D+00 -.142103958429703D+04
 0.115974249142500D+04 0.215062864910200D+03 0.105828692187806D+04 0.415105029577790D+03
 0.369483749314013D+03 -.683811896748871D+02 -.342735133863651D+03 -.119895295659393D+03
 0.103711446171779D+04 -.168745847370120D+03 -.905259595811941D+03 -.477112470901700D+03
 0.275738466137257D+03 0.220641721348073D+02 0.189707807797533D+03 0.181902736983303D+03
 0.000000000000000D+00 -.000000000000000D+00 0.000000000000000D+00 0.000000000000000D+00
 0.143414421883338D+04 0.000000000000000D+00 0.000000000000000D+00 0.143414421883338D+04
 0.142454643739068D+04 0.000000000000000D+00 0.000000000000000D+00 -.142454643739068D+04
 0.115607144217648D+04 0.218037393363217D+03 0.105365149502871D+04 0.415105029577790D+03
 0.370684337653907D+03 -.674304867696337D+02 -.344216684247979D+03 -.119895295659393D+03
 0.104031673238643D+04 -.166077507696372D+03 -.909417866126795D+03 -.477112470901700D+03
 0.275038808179372D+03 0.227716135444814D+02 0.188605349725089D+03 0.181902736983303D+03
 0.165793358278627D+02 -.730101244169296D+01 0.113777056209715D+02 0.959778144269861D+01
0.453540199568D-04 0.000000000000D+00 0.000000000000D+00 0.218060501724D-04 0.314665895209D-09  7 1 21 24 -13 13 -24 1 2 0.43422556D+00 0.11135952D+00 0.16563782D+07 0.16563782D+07 0.16563782D+07 0.10335795D+01  1  2  1  4  7  2       -1 0.212584777783D-04 0.100000000000D+01
  </mgrwgt>
  </event>
  <event>
  8     66 0.27727860E-05 0.32432531E+03 0.75467711E-02 0.89377792E-01
        1 -1    0    0  501    0 0.00000000E+00 0.00000000E+00 0.10576908E+04 0.10576909E+04 0.32000000E+00 0.0000E+00 0.9000E+01
       -1 -1    0    0    0  501 0.00000000E+00 0.00000000E+00 -.28564560E+03 0.28564578E+03 0.32000000E+00 0.0000E+00 0.9000E+01
       25  2    1    2    0    0 -.27182921E+03 -.10777194E+03 -.91264454E+02 0.42599131E+03 0.29602954E+03 0.0000E+00 0.0000E+00
       23  2    1    2    0    0 0.27182921E+03 0.10777194E+03 0.86330968E+03 0.91734535E+03 0.10350352E+03 0.0000E+00 0.0000E+00
       24  1    3    3    0    0 -.49397708E+02 -.67715855E+02 -.13926127E+03 0.18134632E+03 0.80419002E+02 0.0000E+00 0.9000E+01
      -11  1    4    4    0    0 0.17625500E+03 0.64474156E+02 0.68702478E+03 0.71219786E+03 0.51099893E-03 0.0000E+00 0.9000E+01
       11  1    4    4    0    0 0.95574212E+02 0.43297779E+02 0.17628490E+03 0.20514749E+03 0.51099893E-03 0.0000E+00 0.9000E+01
      -24  1    3    3    0    0 -.22243150E+03 -.40056080E+02 0.47996818E+02 0.24464499E+03 0.80419002E+02 0.0000E+00 0.9000E+01
#aMCatNLO 1  0  0  2  1 0.66730070D+03 0.00000000D+00  -5  7  0 0.00000000D+00 0.00000000D+00 0.00000000D+00 0.00000000D+00 0.00000000D+00
  <mgrwgt>
 0.1569263846D-02    5    2    0
 0.549658884994727D+03 0.000000000000000D+00 0.000000000000000D+00 0.549658884994727D+03
 0.549658884994727D+03 0.000000000000000D+00 0.000000000000000D+00 -.549658884994727D+03
 0.319402789168222D+03 -.493977083035896D+02 -.677158548235022D+02 -.297532107837028D+03
 0.387792595235628D+03 0.176254995784290D+03 0.644741560296770D+02 0.339352849678508D+03
 0.126880722909900D+03 0.955742120324505D+02 0.432977790438053D+02 0.713413636706558D+02
 0.265241662675705D+03 -.222431499513151D+03 -.400560802499802D+02 -.113162105512136D+03
 0.000000000000000D+00 -.000000000000000D+00 0.000000000000000D+00 -.000000000000000D+00
 0.832455534728252D+03 0.000000000000000D+00 0.000000000000000D+00 0.832455534728252D+03
 0.123058705184530D+04 0.000000000000000D+00 0.000000000000000D+00 -.123058705184530D+04
 0.378942258971260D+03 0.955813360808763D+02 -.198667744435076D+03 -.297532107837028D+03
 0.506808281323772D+03 0.361977484308592D+03 -.103279128032022D+03 0.339352849678508D+03
 0.173862468750917D+03 0.158009623650649D+03 -.130968203604903D+02 0.713413636706558D+02
 0.226384576035794D+03 -.120368053266037D+03 -.132244583789054D+03 -.113162105512136D+03
 0.777045001491814D+03 -.495200390774080D+03 0.447288276616642D+03 -.398131517117053D+03
0.164088197418D-03 0.000000000000D+00 0.000000000000D+00 0.199445250761D-08 0.000000000000D+00  7 1 -1 24 -11 11 -24 21 0 0.16272168D+00 0.43945495D-01 0.10518691D+06 0.10518691D+06 0.10518691D+06 0.11199243D+01  1  2  2  2  7  2       -1 0.142182096888D-02 0.100000000000D+01
-.603129669694D-05 0.000000000000D+00 -.630141883500D-06 0.199445250761D-08 0.000000000000D+00  7 1 -1 24 -11 11 -24 21 2 0.16272168D+00 0.43945495D-01 0.10518691D+06 0.10518691D+06 0.10518691D+06 0.11199243D+01  1  2  3  2  7  2       -1 -.655474170466D-04 0.100000000000D+01
0.916760997837D-05 0.000000000000D+00 0.000000000000D+00 0.199445250761D-08 0.000000000000D+00  7 1 -1 24 -11 11 -24 21 2 0.16272168D+00 0.43945495D-01 0.10518691D+06 0.10518691D+06 0.10518691D+06 0.11199243D+01  1  2 15  2  7  2       -1 0.996324977474D-04 0.100000000000D+01
0.522886349347D-04 0.000000000000D+00 -.518428027179D-04 0.199445250761D-08 0.000000000000D+00  7 1 -1 24 -11 11 -24 21 2 0.16272168D+00 0.13857969D+00 0.10518691D+06 0.10518691D+06 0.10518691D+06 0.11199243D+01  1  2  5  2  7  2       -1 0.526460029569D-04 0.100000000000D+01
0.922416749136D-05 0.000000000000D+00 -.683843476518D-05 0.199445250761D-08 0.000000000000D+00  7 1 21 24 -11 11 -24 1 2 0.16272168D+00 0.13857969D+00 0.10518691D+06 0.10518691D+06 0.10518691D+06 0.11199243D+01  1  2  5  4  7  2       -1 0.607117936942D-04 0.100000000000D+01
  </mgrwgt>
  </event>
  <event>
  8     66 0.27727860E-05 0.32890863E+03 0.75467711E-02 0.93105960E-01
        1 -1    0    0  501    0 0.00000000E+00 0.00000000E+00 0.13978735E+04 0.13978735E+04 0.32000000E+00 0.0000E+00 0.9000E+01
       -1 -1    0    0    0  501 0.00000000E+00 0.00000000E+00 -.20559123E+03 0.20559148E+03 0.32000000E+00 0.0000E+00 0.9000E+01
       25  2    1    2    0    0 -.26367794E+03 -.17210552E+02 0.21807958E+02 0.39988671E+03 0.29935186E+03 0.0000E+00 0.0000E+00
       23  2    1    2    0    0 0.26367794E+03 0.17210552E+02 0.11704743E+04 0.12035783E+04 0.93639460E+02 0.0000E+00 0.0000E+00
       24  1    3    3    0    0 -.21970222E+03 0.83765570E+02 -.37247040E+02 0.25127733E+03 0.80419002E+02 0.0000E+00 0.9000E+01
      -11  1    4    4    0    0 0.10858197E+03 0.40939384E+02 0.63804778E+03 0.64851449E+03 0.51099893E-03 0.0000E+00 0.9000E+01
       11  1    4    4    0    0 0.15509597E+03 -.23728832E+02 0.53242652E+03 0.55506380E+03 0.51099893E-03 0.0000E+00 0.9000E+01
      -24  1    3    3    0    0 -.43975716E+02 -.10097612E+03 0.59054998E+02 0.14860939E+03 0.80419002E+02 0.0000E+00 0.9000E+01
#aMCatNLO 1  0  0  1  1 0.37112739D+03 0.00000000D+00  -5  7  0 0.00000000D+00 0.00000000D+00 0.00000000D+00 0.00000000D+00 0.00000000D+00
  <mgrwgt>
 0.6334216166D-03    3    2    0
 0.536088384116809D+03 0.000000000000000D+00 0.000000000000000D+00 0.536088384116809D+03
 0.536088384116809D+03 0.000000000000000D+00 0.000000000000000D+00 -.536088384116809D+03
 0.417210478582388D+03 -.219702220388749D+03 0.837655704080772D+02 -.335129275138770D+03
 0.260346287952325D+03 0.108581966867026D+03 0.409393841645403D+02 0.233053884211509D+03
 0.238041601360075D+03 0.155095969575683D+03 -.237288322497900D+02 0.179013928842169D+03
 0.156578400338831D+03 -.439757160539599D+02 -.100976122322827D+03 -.769385379149072D+02
 0.000000000000000D+00 -.000000000000000D+00 -.000000000000000D+00 -.000000000000000D+00
 0.675617881518342D+03 0.000000000000000D+00 0.000000000000000D+00 0.675617881518342D+03
 0.885180459574025D+03 0.000000000000000D+00 0.000000000000000D+00 -.885180459574025D+03
 0.443500912257437D+03 -.171478542165308D+03 0.220248318360508D+03 -.335129275138770D+03
 0.301384666244964D+03 0.140054459355972D+03 0.130012893652989D+03 0.233053884211509D+03
 0.262039617804258D+03 0.183114369303188D+03 0.555688971834799D+02 0.179013928842169D+03
 0.127666607300862D+03 -.280501224915679D+02 -.559034764309545D+02 -.769385379149072D+02
 0.426206537484847D+03 -.123640164002285D+03 -.349926632766022D+03 -.209562578055682D+03
0.702291138144D-04 0.000000000000D+00 0.000000000000D+00 0.648602747061D-06 0.000000000000D+00  7 1 -1 24 -11 11 -24 21 0 0.21505748D+00 0.31629442D-01 0.10818089D+06 0.10818089D+06 0.10818089D+06 0.11189303D+01  1  2  2  1  7  1        1 0.619085065727D-03 0.100000000000D+01
-.276950595005D-05 0.000000000000D+00 -.269698288798D-06 0.648602747061D-06 0.000000000000D+00  7 1 -1 24 -11 11 -24 21 2 0.21505748D+00 0.31629442D-01 0.10818089D+06 0.10818089D+06 0.10818089D+06 0.11189303D+01  1  2  3  1  7  1        1 -.305662056320D-04 0.100000000000D+01
0.406849488953D-05 0.000000000000D+00 0.000000000000D+00 0.648602747061D-06 0.000000000000D+00  7 1 -1 24 -11 11 -24 21 2 0.21505748D+00 0.31629442D-01 0.10818089D+06 0.10818089D+06 0.10818089D+06 0.11189303D+01  1  2 15  1  7  1        1 0.449027565381D-04 0.100000000000D+01
  </mgrwgt>
  </event>
  <event>
  8     66 0.27727860E-05 0.43321371E+03 0.75467711E-02 0.89157974E-01
        1 -1    0    0  501    0 0.00000000E+00 0.00000000E+00 0.21048571E+04 0.21048571E+04 0.32000000E+00 0.0000E+00 0.9000E+01
       -1 -1    0    0    0  501 0.00000000E+00 0.00000000E+00 -.38707027E+03 0.38707041E+03 0.32000000E+00 0.0000E+00 0.9000E+01
       25  2    1    2    0    0 -.67640299E+03 0.29854116E+03 0.15265173E+04 0.17225205E+04 0.30028946E+03 0.0000E+00 0.0000E+00
       23  2    1    2    0    0 0.67640299E+03 -.29854116E+03 0.19126952E+03 0.76940709E+03 0.93570365E+02 0.0000E+00 0.0000E+00
       24  1    3    3    0    0 -.39599049E+03 0.36233699E+02 0.77167358E+03 0.87181917E+03 0.80419002E+02 0.0000E+00 0.9000E+01
      -13  1    4    4    0    0 0.49171431E+03 -.17033411E+03 0.13748318E+03 0.53823630E+03 0.10565837E+00 0.0000E+00 0.9000E+01
       13  1    4    4    0    0 0.18468868E+03 -.12820705E+03 0.53786344E+02 0.23117080E+03 0.10565837E+00 0.0000E+00 0.9000E+01
      -24  1    3    3    0    0 -.28041250E+03 0.26230746E+03 0.75484374E+03 0.85070128E+03 0.80419002E+02 0.0000E+00 0.9000E+01
#aMCatNLO 1  0  0  2  1 0.12206491D+03 0.00000000D+00  -5  7  0 0.00000000D+00 0.00000000D+00 0.00000000D+00 0.00000000D+00 0.00000000D+00
  <mgrwgt>
 0.4979891385D-03    9    2    0
 0.902622741639328D+03 0.000000000000000D+00 0.000000000000000D+00 0.902622741639328D+03
 0.902622741639328D+03 0.000000000000000D+00 0.000000000000000D+00 -.902622741639328D+03
 0.469154753650817D+03 -.395990489865151D+03 0.362336994748322D+02 0.235621768683442D+03
 0.612149348012906D+03 0.491714703315372D+03 -.170334164714971D+03 -.322381369106459D+03
 0.267922902375557D+03 0.184688287255251D+03 -.128206994250399D+03 -.145725374569230D+03
 0.456018479239375D+03 -.280412500705472D+03 0.262307459490537D+03 0.232484974992247D+03
 0.000000000000000D+00 0.000000000000000D+00 -.000000000000000D+00 -.000000000000000D+00
 0.931633547287427D+03 0.000000000000000D+00 0.000000000000000D+00 0.931633547287427D+03
 0.104290253903795D+04 0.000000000000000D+00 0.000000000000000D+00 -.104290253903795D+04
 0.477627299872872D+03 -.401954126937692D+03 0.676452776601882D+02 0.235621768683442D+03
 0.596030263889401D+03 0.484104562526356D+03 -.130250147279301D+03 -.322381369106459D+03
 0.257688565245839D+03 0.181377540053829D+03 -.110768677111980D+03 -.145725374569230D+03
 0.478021466767621D+03 -.286295877168419D+03 0.293296290217788D+03 0.232484974992247D+03
 0.165168490549645D+03 0.227679015259256D+02 -.119922743486695D+03 -.111268991750525D+03
0.404254573417D-03 0.000000000000D+00 0.000000000000D+00 0.266612556072D-05 0.000000000000D+00  7 1 -1 24 -13 13 -24 21 0 0.32382418D+00 0.59549285D-01 0.59537308D+06 0.59537308D+06 0.59537308D+06 0.10631928D+01  1  2  2  2  7  2       -1 0.358595662610D-03 0.100000000000D+01
-.217869445436D-04 0.000000000000D+00 -.155244400459D-05 0.266612556072D-05 0.000000000000D+00  7 1 -1 24 -13 13 -24 21 2 0.32382418D+00 0.59549285D-01 0.59537308D+06 0.59537308D+06 0.59537308D+06 0.10631928D+01  1  2  3  2  7  2       -1 -.218459269817D-04 0.100000000000D+01
0.251897077967D-04 0.000000000000D+00 0.000000000000D+00 0.266612556072D-05 0.000000000000D+00  7 1 -1 24 -13 13 -24 21 2 0.32382418D+00 0.59549285D-01 0.59537308D+06 0.59537308D+06 0.59537308D+06 0.10631928D+01  1  2 15  2  7  2       -1 0.252579023238D-04 0.100000000000D+01
0.964170481752D-03 0.000000000000D+00 0.000000000000D+00 0.266612556072D-05 0.000000000000D+00  7 1 -1 24 -13 13 -24 21 2 0.32382418D+00 0.69659522D-01 0.69643554D+06 0.69643554D+06 0.69643554D+06 0.10584858D+01  1  2 12  2  7  2       -1 0.699733121029D-03 0.100000000000D+01
-.979074953815D-03 0.000000000000D+00 0.000000000000D+00 0.266612556072D-05 0.000000000000D+00  7 1 -1 24 -13 13 -24 21 2 0.32382418D+00 0.59549285D-01 0.59537308D+06 0.59537308D+06 0.59537308D+06 0.10631928D+01  1  2  4  2  7  2       -1 -.981725542461D-03 0.100000000000D+01
-.171208732282D-02 0.000000000000D+00 -.321897853864D-03 0.266612556072D-05 0.000000000000D+00  7 1 -1 24 -13 13 -24 21 2 0.32382418D+00 0.70539691D-01 0.59537308D+06 0.59537308D+06 0.59537308D+06 0.10631928D+01  1  2  5  2  7  2       -1 -.123558030541D-02 0.100000000000D+01
0.174606580544D-02 0.000000000000D+00 0.317335322895D-03 0.266612556072D-05 0.000000000000D+00  7 1 -1 24 -13 13 -24 21 2 0.32382418D+00 0.59549285D-01 0.59537308D+06 0.59537308D+06 0.59537308D+06 0.10631928D+01  1  2  6  2  7  2       -1 0.175079282065D-02 0.100000000000D+01
0.227958293806D-04 0.000000000000D+00 0.000000000000D+00 0.266612556072D-05 0.000000000000D+00  7 1 21 24 -13 13 -24 1 2 0.32382418D+00 0.69659522D-01 0.69643554D+06 0.69643554D+06 0.69643554D+06 0.10584858D+01  1  2 12  4  7  2       -1 0.128671072157D-03 0.100000000000D+01
-.402684474301D-04 0.000000000000D+00 -.809262848203D-05 0.266612556072D-05 0.000000000000D+00  7 1 21 24 -13 13 -24 1 2 0.32382418D+00 0.70539691D-01 0.59537308D+06 0.59537308D+06 0.59537308D+06 0.10631928D+01  1  2  5  4  7  2       -1 -.225909665393D-03 0.100000000000D+01
  </mgrwgt>
  </event>
  <event>
  8     66 0.27727860E-05 0.28099512E+03 0.75467711E-02 0.96939543E-01
        1 -1    0    0  501    0 0.00000000E+00 0.00000000E+00 0.13418693E+04 0.13418694E+04 0.32000000E+00 0.0000E+00 0.9000E+01
       -1 -1    0    0    0  501 0.00000000E+00 0.00000000E+00 -.11977539E+03 0.11977582E+03 0.32000000E+00 0.0000E+00 0.9000E+01
       25  2    1    2    0    0 -.24189262E+03 0.22170616E+03 0.83241194E+03 0.94363655E+03 0.29979102E+03 0.0000E+00 0.0000E+00
       23  2    1    2    0    0 0.24189262E+03 -.22170616E+03 0.38968200E+03 0.51800862E+03 0.93889383E+02 0.0000E+00 0.0000E+00
       24  1    3    3    0    0 -.95404490E+02 0.62920017E+02 0.60088276E+03 0.61691835E+03 0.80419002E+02 0.0000E+00 0.9000E+01
      -13  1    4    4    0    0 0.11384711E+03 -.15499073E+03 0.17987722E+03 0.26332322E+03 0.10565837E+00 0.0000E+00 0.9000E+01
       13  1    4    4    0    0 0.12804550E+03 -.66715421E+02 0.20980477E+03 0.25468540E+03 0.10565837E+00 0.0000E+00 0.9000E+01
      -24  1    3    3    0    0 -.14648813E+03 0.15878614E+03 0.23152918E+03 0.32671820E+03 0.80419002E+02 0.0000E+00 0.9000E+01
#aMCatNLO 1  0  0  1  2 0.11118612D+03 0.00000000D+00  -5  7  0 0.00000000D+00 0.00000000D+00 0.00000000D+00 0.00000000D+00 0.00000000D+00
  <mgrwgt>
 0.3537796336D-03    9    2    0
 0.400903055488920D+03 0.000000000000000D+00 0.000000000000000D+00 0.400903055488920D+03
 0.400903055488920D+03 0.000000000000000D+00 0.000000000000000D+00 -.400903055488920D+03
 0.208754404272929D+03 -.954044905399491D+02 0.629200171487483D+02 0.155081397903775D+03
 0.205858141457476D+03 0.113847093534579D+03 -.154990846268611D+03 -.734455667211767D+02
 0.144496881994025D+03 0.128045522389198D+03 -.667153102721264D+02 -.572367690968811D+01
 0.242696683253408D+03 -.146488125383828D+03 0.158786139391990D+03 -.759121542729104D+02
 0.000000000000000D+00 -.000000000000000D+00 0.000000000000000D+00 0.000000000000000D+00
 0.735961417029954D+03 0.000000000000000D+00 0.000000000000000D+00 0.735961417029954D+03
 0.414070095271467D+03 0.000000000000000D+00 0.000000000000000D+00 -.414070095271467D+03
 0.197092926368461D+03 -.674358619303523D+02 0.614863417356617D+02 0.155081397903775D+03
 0.224694658586271D+03 0.143518278859895D+03 -.156511794952647D+03 -.734455667211767D+02
 0.164085892103210D+03 0.149311245611783D+03 -.678053939137414D+02 -.572367690968811D+01
 0.223604991987820D+03 -.114353336289013D+03 0.157138906069504D+03 -.759121542729104D+02
 0.340553043255658D+03 -.111040326252313D+03 0.569194106122285D+01 0.321891321758487D+03
0.149852004895D-04 0.000000000000D+00 0.000000000000D+00 0.395419055201D-06 0.000000000000D+00  7 1 -1 24 -13 13 -24 21 0 0.20644147D+00 0.18427019D-01 0.12494677D+06 0.12494677D+06 0.12494677D+06 0.11138700D+01  1  2  2  1  7  1        1 0.347124326844D-03 0.100000000000D+01
-.816467235463D-06 0.000000000000D+00 -.575471155735D-07 0.395419055201D-06 0.000000000000D+00  7 1 -1 24 -13 13 -24 21 2 0.20644147D+00 0.18427019D-01 0.12494677D+06 0.12494677D+06 0.12494677D+06 0.11138700D+01  1  2  3  1  7  1        1 -.234655252162D-04 0.100000000000D+01
0.889917149940D-06 0.000000000000D+00 0.000000000000D+00 0.395419055201D-06 0.000000000000D+00  7 1 -1 24 -13 13 -24 21 2 0.20644147D+00 0.18427019D-01 0.12494677D+06 0.12494677D+06 0.12494677D+06 0.11138700D+01  1  2 15  1  7  1        1 0.255764988664D-04 0.100000000000D+01
0.418883517617D-04 0.000000000000D+00 0.000000000000D+00 0.395419055201D-06 0.000000000000D+00  7 1 -1 24 -13 13 -24 21 2 0.37974444D+00 0.18427019D-01 0.16788908D+06 0.16788908D+06 0.16788908D+06 0.11037111D+01  1  2 12  1  7  1        1 0.208030765554D-03 0.100000000000D+01
-.396053453397D-04 0.000000000000D+00 0.000000000000D+00 0.395419055201D-06 0.000000000000D+00  7 1 -1 24 -13 13 -24 21 2 0.20644147D+00 0.18427019D-01 0.12494677D+06 0.12494677D+06 0.12494677D+06 0.11138700D+01  1  2  4  1  7  1        1 -.113827008531D-02 0.100000000000D+01
-.448569361841D-04 0.000000000000D+00 -.434768802673D-05 0.395419055201D-06 0.000000000000D+00  7 1 -1 24 -13 13 -24 21 2 0.38195403D+00 0.18427019D-01 0.12494677D+06 0.12494677D+06 0.12494677D+06 0.11138700D+01  1  2  5  1  7  1        1 -.225101748308D-03 0.100000000000D+01
0.403589784923D-04 0.000000000000D+00 0.363721533579D-05 0.395419055201D-06 0.000000000000D+00  7 1 -1 24 -13 13 -24 21 2 0.20644147D+00 0.18427019D-01 0.12494677D+06 0.12494677D+06 0.12494677D+06 0.11138700D+01  1  2  6  1  7  1        1 0.115992973922D-02 0.100000000000D+01
0.278775246506D-05 0.000000000000D+00 0.000000000000D+00 0.395419055201D-06 0.000000000000D+00  7 21 -1 24 -13 13 -24 -1 2 0.37974444D+00 0.18427019D-01 0.16788908D+06 0.16788908D+06 0.16788908D+06 0.11037111D+01  1  2 12  3  7  1        1 0.496489843376D-05 0.100000000000D+01
-.277033961558D-05 0.000000000000D+00 -.291803125237D-06 0.395419055201D-06 0.000000000000D+00  7 21 -1 24 -13 13 -24 -1 2 0.38195403D+00 0.18427019D-01 0.12494677D+06 0.12494677D+06 0.12494677D+06 0.11138700D+01  1  2  5  3  7  1        1 -.500923647163D-05 0.100000000000D+01
  </mgrwgt>
  </event>
  <event>
  8     66 0.27727860E-05 0.17896255E+03 0.75467711E-02 0.97345822E-01
        1 -1    0    0  501    0 0.00000000E+00 0.00000000E+00 0.47932641E+03 0.47932651E+03 0.32000000E+00 0.0000E+00 0.9000E+01
       -1 -1    0    0    0  501 0.00000000E+00 0.00000000E+00 -.33846222E+03 0.33846237E+03 0.32000000E+00 0.0000E+00 0.9000E+01
       25  2    1    2    0    0 -.81085220E+02 -.32233928E+03 -.69595603E+01 0.44265893E+03 0.29226883E+03 0.0000E+00 0.0000E+00
       23  2    1    2    0    0 0.81085220E+02 0.32233928E+03 0.14782375E+03 0.37512995E+03 0.91614402E+02 0.0000E+00 0.0000E+00
       24  1    3    3    0    0 -.13038682E+03 -.62463600E+02 -.14660952E+02 0.16608608E+03 0.80419002E+02 0.0000E+00 0.9000E+01
      -13  1    4    4    0    0 0.29721690E+01 0.39568431E+02 -.11477705E+02 0.41306699E+02 0.10565837E+00 0.0000E+00 0.9000E+01
       13  1    4    4    0    0 0.78113051E+02 0.28277084E+03 0.15930146E+03 0.33382325E+03 0.10565837E+00 0.0000E+00 0.9000E+01
      -24  1    3    3    0    0 0.49301604E+02 -.25987568E+03 0.77013916E+01 0.27657285E+03 0.80419002E+02 0.0000E+00 0.9000E+01
#aMCatNLO 1  0  0  1  2 0.17006759D+02 0.00000000D+00  -5  7  0 0.00000000D+00 0.00000000D+00 0.00000000D+00 0.00000000D+00 0.00000000D+00
  <mgrwgt>
 0.2099933443D-02    9    2    0
 0.402782799280628D+03 0.000000000000000D+00 0.000000000000000D+00 0.402782799280628D+03
 0.402782799280628D+03 0.000000000000000D+00 0.000000000000000D+00 -.402782799280628D+03
 0.171169858699384D+03 -.130386824364572D+03 -.624635999767104D+02 -.439258384424073D+02
 0.439401468520082D+02 0.297206910165991D+01 0.395681073218114D+02 -.188750680422777D+02
 0.311032845698779D+03 0.781131511529237D+02 0.282771168269057D+03 0.103345213320182D+03
 0.279422747311085D+03 0.493016041099880D+02 -.259875675614158D+03 -.405443068354967D+02
 0.000000000000000D+00 0.000000000000000D+00 -.000000000000000D+00 0.000000000000000D+00
 0.419987704367136D+03 0.000000000000000D+00 0.000000000000000D+00 0.419987704367136D+03
 0.407097311469324D+03 0.000000000000000D+00 0.000000000000000D+00 -.407097311469324D+03
 0.173927514441207D+03 -.134028098454539D+03 -.623743045421568D+02 -.439258384424073D+02
 0.439076907081117D+02 0.204514794935940D+01 0.395908383288838D+02 -.188750680422777D+02
 0.309599908209907D+03 0.715645821341954D+02 0.282931759672446D+03 0.103345213320182D+03
 0.278309984942154D+03 0.434167208708066D+02 -.259731359862815D+03 -.405443068354967D+02
 0.213399175350806D+02 0.170016475001779D+02 -.416933596358161D+00 0.128903928978121D+02
0.465349056885D-04 0.000000000000D+00 0.000000000000D+00 0.232632707577D-07 0.000000000000D+00  7 1 -1 24 -13 13 -24 21 0 0.73742544D-01 0.52071130D-01 0.15013486D+06 0.15013486D+06 0.15013486D+06 0.11075211D+01  1  2  2  1  7  1        1 0.995016859448D-03 0.100000000000D+01
-.258055196124D-05 0.000000000000D+00 -.178706290766D-06 0.232632707577D-07 0.000000000000D+00  7 1 -1 24 -13 13 -24 21 2 0.73742544D-01 0.52071130D-01 0.15013486D+06 0.15013486D+06 0.15013486D+06 0.11075211D+01  1  2  3  1  7  1        1 -.676812277157D-04 0.100000000000D+01
0.289718756533D-05 0.000000000000D+00 0.000000000000D+00 0.232632707577D-07 0.000000000000D+00  7 1 -1 24 -13 13 -24 21 2 0.73742544D-01 0.52071130D-01 0.15013486D+06 0.15013486D+06 0.15013486D+06 0.11075211D+01  1  2 15  1  7  1        1 0.759857636233D-04 0.100000000000D+01
0.178775774326D-03 0.000000000000D+00 0.000000000000D+00 0.232632707577D-07 0.000000000000D+00  7 1 -1 24 -13 13 -24 21 2 0.77276501D-01 0.52071130D-01 0.15686464D+06 0.15686464D+06 0.15686464D+06 0.11060216D+01  1  2 12  1  7  1        1 0.437850616557D-02 0.100000000000D+01
-.179434503634D-03 0.000000000000D+00 0.000000000000D+00 0.232632707577D-07 0.000000000000D+00  7 1 -1 24 -13 13 -24 21 2 0.73742544D-01 0.52071130D-01 0.15013486D+06 0.15013486D+06 0.15013486D+06 0.11075211D+01  1  2  4  1  7  1        1 -.470610461751D-02 0.100000000000D+01
-.966773974641D-03 0.000000000000D+00 -.125525925443D-03 0.232632707577D-07 0.000000000000D+00  7 1 -1 24 -13 13 -24 21 2 0.77486767D-01 0.52071130D-01 0.15013486D+06 0.15013486D+06 0.15013486D+06 0.11075211D+01  1  2  5  1  7  1        1 -.236750165312D-01 0.100000000000D+01
0.971952409902D-03 0.000000000000D+00 0.125372128133D-03 0.232632707577D-07 0.000000000000D+00  7 1 -1 24 -13 13 -24 21 2 0.73742544D-01 0.52071130D-01 0.15013486D+06 0.15013486D+06 0.15013486D+06 0.11075211D+01  1  2  6  1  7  1        1 0.254918069357D-01 0.100000000000D+01
0.280263310092D-05 0.000000000000D+00 0.000000000000D+00 0.232632707577D-07 0.000000000000D+00  7 21 -1 24 -13 13 -24 -1 2 0.77276501D-01 0.52071130D-01 0.15686464D+06 0.15686464D+06 0.15686464D+06 0.11060216D+01  1  2 12  3  7  1        1 0.202809714834D-03 0.100000000000D+01
-.823867446193D-05 0.000000000000D+00 -.108379010729D-05 0.232632707577D-07 0.000000000000D+00  7 21 -1 24 -13 13 -24 -1 2 0.77486767D-01 0.52071130D-01 0.15013486D+06 0.15013486D+06 0.15013486D+06 0.11075211D+01  1  2  5  3  7  1        1 -.595389619907D-03 0.100000000000D+01
  </mgrwgt>
  </event>
  <event>
  8     66 0.27727860E-05 0.19767116E+03 0.75467711E-02 0.82960017E-01
        1 -1    0    0  501    0 0.00000000E+00 0.00000000E+00 0.46384371E+03 0.46384383E+03 0.32000000E+00 0.0000E+00 0.9000E+01
       -1 -1    0    0    0  501 0.00000000E+00 0.00000000E+00 -.64461562E+03 0.64461570E+03 0.32000000E+00 0.0000E+00 0.9000E+01
       25  2    1    2    0    0 -.24365428E+02 0.12551843E+02 -.60376871E+03 0.67456094E+03 0.29957401E+03 0.0000E+00 0.0000E+00
       23  2    1    2    0    0 0.24365428E+02 -.12551843E+02 0.42299680E+03 0.43389859E+03 0.92684775E+02 0.0000E+00 0.0000E+00
       24  1    3    3    0    0 0.87816228E+02 0.81636676E+02 -.33170279E+03 0.36175986E+03 0.80419002E+02 0.0000E+00 0.9000E+01
      -13  1    4    4    0    0 -.10059121E+02 -.46912357E+02 0.20421007E+03 0.20977063E+03 0.10565837E+00 0.0000E+00 0.9000E+01
       13  1    4    4    0    0 0.34424549E+02 0.34360514E+02 0.21878673E+03 0.22412795E+03 0.10565837E+00 0.0000E+00 0.9000E+01
      -24  1    3    3    0    0 -.11218166E+03 -.69084833E+02 -.27206592E+03 0.31280108E+03 0.80419002E+02 0.0000E+00 0.9000E+01
#aMCatNLO 1  0  0  1  2 0.15989368D+04 0.00000000D+00  -5  7  0 0.00000000D+00 0.00000000D+00 0.00000000D+00 0.00000000D+00 0.00000000D+00
  <mgrwgt>
 0.1023234779D-02    3    2    0
 0.546809848690813D+03 0.000000000000000D+00 0.000000000000000D+00 0.546809848690813D+03
 0.546809848690813D+03 0.000000000000000D+00 0.000000000000000D+00 -.546809848690813D+03
 0.311839311605056D+03 0.878162277361438D+02 0.816366761143417D+02 -.276406048354844D+03
 0.246372369945952D+03 -.100591785051253D+02 -.469124626097311D+02 0.241655495390603D+03
 0.263334033092073D+03 0.344246064000683D+02 0.343606193570033D+02 0.258803221185789D+03
 0.272073982738545D+03 -.112181655631087D+03 -.690848328616139D+02 -.224052668221547D+03
 0.000000000000000D+00 -.000000000000000D+00 -.000000000000000D+00 -.000000000000000D+00
 0.143527343648735D+04 0.000000000000000D+00 0.000000000000000D+00 0.143527343648735D+04
 0.233811509622393D+04 0.000000000000000D+00 0.000000000000000D+00 -.233811509622393D+04
 0.682108365096599D+03 0.131937118656417D+03 0.604149732213701D+03 -.276406048354844D+03
 0.366824235864178D+03 0.171603433990961D+02 0.275441761864982D+03 0.241655495390603D+03
 0.520745981288416D+03 0.692295660555370D+02 0.446547351258136D+03 0.258803221185789D+03
 0.367485040315512D+03 -.837919178665358D+02 0.267127975443187D+03 -.224052668221547D+03
 0.183622491014658D+04 -.134535110244515D+03 -.159326682078000D+04 -.902841659736581D+03
0.141748437101D-03 0.000000000000D+00 0.000000000000D+00 0.253151019092D-05 0.000000000000D+00  7 1 -1 24 -13 13 -24 21 0 0.71360586D-01 0.99171649D-01 0.39073887D+05 0.39073887D+05 0.39073887D+05 0.11568352D+01  1  2  2  1  7  1        1 0.930813537484D-03 0.100000000000D+01
0.203780901669D-05 0.000000000000D+00 -.544351321689D-06 0.253151019092D-05 0.000000000000D+00  7 1 -1 24 -13 13 -24 21 2 0.71360586D-01 0.99171649D-01 0.39073887D+05 0.39073887D+05 0.39073887D+05 0.11568352D+01  1  2  3  1  7  1        1 0.179081571795D-04 0.100000000000D+01
0.847900951497D-05 0.000000000000D+00 0.000000000000D+00 0.253151019092D-05 0.000000000000D+00  7 1 -1 24 -13 13 -24 21 2 0.71360586D-01 0.99171649D-01 0.39073887D+05 0.39073887D+05 0.39073887D+05 0.11568352D+01  1  2 15  1  7  1        1 0.745130843357D-04 0.100000000000D+01
  </mgrwgt>
  </event>
  <event>
  9     66 0.27727860E-05 0.19568439E+03 0.75467711E-02 0.10358758E+00
        1 -1    0    0  502    0 0.00000000E+00 0.00000000E+00 0.34213383E+04 0.34213383E+04 0.32000000E+00 0.0000E+00 0.9000E+01
       -1 -1    0    0    0  501 0.00000000E+00 0.00000000E+00 -.31219288E+02 0.31220927E+02 0.32000000E+00 0.0000E+00 0.9000E+01
       25  2    1    2    0    0 0.13923133E+03 -.59807606E+02 0.26874307E+04 0.27084359E+04 0.30063100E+03 0.0000E+00 0.0000E+00
       23  2    1    2    0    0 -.36238427E+02 0.23535690E+02 0.30088695E+03 0.32774839E+03 0.12255162E+03 0.0000E+00 0.0000E+00
       24  1    3    3    0    0 0.20416421E+03 -.28487463E+02 0.15202160E+04 0.15362352E+04 0.80419002E+02 0.0000E+00 0.9000E+01
      -13  1    4    4    0    0 -.19433048E+02 0.24319142E+02 0.30793735E+03 0.30950685E+03 0.10565837E+00 0.0000E+00 0.9000E+01
       13  1    4    4    0    0 -.16805379E+02 -.78345202E+00 -.70504044E+01 0.18241544E+02 0.10565837E+00 0.0000E+00 0.9000E+01
      -24  1    3    3    0    0 -.64932878E+02 -.31320143E+02 0.11672147E+04 0.11722007E+04 0.80419002E+02 0.0000E+00 0.9000E+01
       21  1    1    2  502  501 -.10299291E+03 0.36271916E+02 0.40180131E+03 0.41637489E+03 0.75000000E+00 0.0000E+00 0.9000E+01
#aMCatNLO 2  0  0  1  2 0.10919336D+03 0.00000000D+00  -5  7  0 0.00000000D+00 0.00000000D+00 0.00000000D+00 0.00000000D+00 0.00000000D+00
  <mgrwgt>
 0.9724594468D-04    1    2    0
 0.262892353114520D+03 0.000000000000000D+00 0.000000000000000D+00 0.262892353114520D+03
 0.262892353114520D+03 0.000000000000000D+00 0.000000000000000D+00 -.262892353114520D+03
 0.188944625774378D+03 0.163945387630078D+03 -.143232884943905D+02 0.463638753360745D+02
 0.425810028700093D+02 -.270794181790672D+02 0.270118442046683D+02 0.187138234778913D+02
 0.148646529577469D+03 -.450078559780158D+02 0.914911926919121D+01 -.141373184417292D+03
 0.145612548007184D+03 -.918581134729953D+02 -.218376749794691D+02 0.762954856033265D+02
 0.000000000000000D+00 -.000000000000000D+00 0.000000000000000D+00 -.000000000000000D+00
 0.304965320528105D+03 0.000000000000000D+00 0.000000000000000D+00 0.304965320528105D+03
 0.350249013961268D+03 0.000000000000000D+00 0.000000000000000D+00 -.350249013961268D+03
 0.226078597014225D+03 0.204164547567171D+03 -.284876228222535D+02 0.463638753360745D+02
 0.363216875083975D+02 -.194330992514816D+02 0.243189730000686D+02 0.187138234778913D+02
 0.142370742674801D+03 -.168058914264266D+02 -.783013953781488D+00 -.141373184417292D+03
 0.132232462723306D+03 -.649326492803933D+02 -.313202518744973D+02 0.762954856033265D+02
 0.118210844568644D+03 -.102992907608869D+03 0.362719156504636D+02 -.452836934331628D+02
0.110565039758D-04 0.000000000000D+00 0.000000000000D+00 0.160603977913D-08 0.970723108948D-12  7 1 -1 24 -13 13 -24 21 2 0.52635790D+00 0.48030767D-02 0.59151725D+05 0.59151725D+05 0.59151725D+05 0.11409294D+01  1  2  1  1  7  1        1 0.972459446768D-04 0.100000000000D+01
  </mgrwgt>
  </event>
  <event>
  8     66 0.27727860E-05 0.22626310E+03 0.75467711E-02 0.88383147E-01
        3 -1    0    0  501    0 0.00000000E+00 0.00000000E+00 0.19342663E+03 0.19342728E+03 0.50000000E+00 0.0000E+00 0.9000E+01
       -3 -1    0    0    0  501 0.00000000E+00 0.00000000E+00 -.41077535E+03 0.41077566E+03 0.50000000E+00 0.0000E+00 0.9000E+01
       25  2    1    2    0    0 -.85639837E+02 0.16697101E+03 -.11681719E+03 0.37241390E+03 0.29972047E+03 0.0000E+00 0.0000E+00
       23  2    1    2    0    0 0.85639837E+02 -.16697101E+03 -.10053154E+03 0.23178903E+03 0.91684594E+02 0.0000E+00 0.0000E+00
       24  1    3    3    0    0 -.48589449E+01 0.28864692E+02 0.72253837E+02 0.11200273E+03 0.80419002E+02 0.0000E+00 0.9000E+01
      -13  1    4    4    0    0 0.16604243E+01 -.70793501E+01 -.40979534E+02 0.41619798E+02 0.10565837E+00 0.0000E+00 0.9000E+01
       13  1    4    4    0    0 0.83979412E+02 -.15989166E+03 -.59552001E+02 0.19016923E+03 0.10565837E+00 0.0000E+00 0.9000E+01
      -24  1    3    3    0    0 -.80780892E+02 0.13810632E+03 -.18907103E+03 0.26041117E+03 0.80419002E+02 0.0000E+00 0.9000E+01
#aMCatNLO 1  0  0  1  1 0.83912085D+03 0.00000000D+00  -5  7  0 0.00000000D+00 0.00000000D+00 0.00000000D+00 0.00000000D+00 0.00000000D+00
  <mgrwgt>
 0.1911641124D-03    5    2    0
 0.281877950867143D+03 0.000000000000000D+00 0.000000000000000D+00 0.281877950867143D+03
 0.281877950867143D+03 0.000000000000000D+00 0.000000000000000D+00 -.281877950867143D+03
 0.147894966104981D+03 -.485894520858841D+01 0.288646921872455D+02 0.120618925717394D+03
 0.288065109036916D+02 0.166031518852429D+01 -.707914754412265D+01 -.278737169026271D+02
 0.180853753154777D+03 0.839795220231585D+02 -.159891864345475D+03 0.949271441995910D+01
 0.206200671570837D+03 -.807808920030944D+02 0.138106319702352D+03 -.102237923234726D+03
 0.000000000000000D+00 0.000000000000000D+00 -.000000000000000D+00 0.000000000000000D+00
 0.152238298583537D+04 0.000000000000000D+00 0.000000000000000D+00 0.152238298583537D+04
 0.678557293694404D+03 0.000000000000000D+00 0.000000000000000D+00 -.678557293694404D+03
 0.287287380227558D+03 -.221497877940672D+03 0.111609084353398D+03 0.120618925717394D+03
 0.455868331792193D+02 -.353735737095729D+02 0.706580132437801D+01 -.278737169026271D+02
 0.122614449921743D+03 -.670905482282294D+02 -.102191242486762D+03 0.949271441995910D+01
 0.555424052810777D+03 -.459926711733382D+03 0.282919581105916D+03 -.102237923234726D+03
 0.119002756339048D+04 0.783888711611857D+03 -.299403224296930D+03 0.843825692140967D+03
0.167970382110D-04 0.000000000000D+00 0.000000000000D+00 0.127577830465D-05 0.000000000000D+00  7 3 -3 24 -13 13 -24 21 0 0.29758016D-01 0.63196281D-01 0.51194992D+05 0.51194992D+05 0.51194992D+05 0.11463942D+01  1  2  2  1  7  1        3 0.184842334768D-03 0.100000000000D+01
-.878366213739D-06 0.000000000000D+00 -.645050494918D-07 0.127577830465D-05 0.000000000000D+00  7 3 -3 24 -13 13 -24 21 2 0.29758016D-01 0.63196281D-01 0.51194992D+05 0.51194992D+05 0.51194992D+05 0.11463942D+01  1  2  3  1  7  1        3 -.127031769077D-04 0.100000000000D+01
0.104929394498D-05 0.000000000000D+00 0.000000000000D+00 0.127577830465D-05 0.000000000000D+00  7 3 -3 24 -13 13 -24 21 2 0.29758016D-01 0.63196281D-01 0.51194992D+05 0.51194992D+05 0.51194992D+05 0.11463942D+01  1  2 15  1  7  1        3 0.151751813797D-04 0.100000000000D+01
0.275284383518D-04 0.000000000000D+00 -.126000587146D-04 0.127577830465D-05 0.000000000000D+00  7 3 -3 24 -13 13 -24 21 2 0.29085150D+00 0.63196281D-01 0.51194992D+05 0.51194992D+05 0.51194992D+05 0.11463942D+01  1  2  5  1  7  1        3 0.769846864846D-06 0.100000000000D+01
0.552473930960D-05 0.000000000000D+00 -.342657843126D-05 0.127577830465D-05 0.000000000000D+00  7 21 -3 24 -13 13 -24 -3 2 0.29085150D+00 0.63196281D-01 0.51194992D+05 0.51194992D+05 0.51194992D+05 0.11463942D+01  1  2  5  3  7  1        3 0.307992627874D-05 0.100000000000D+01
  </mgrwgt>
  </event>
  <event>
  8     66 0.27727860E-05 0.45843022E+03 0.75467711E-02 0.88946371E-01
        1 -1    0    0  501    0 0.00000000E+00 0.00000000E+00 0.10119143E+04 0.10119144E+04 0.32000000E+00 0.0000E+00 0.9000E+01
       -1 -1    0    0    0  501 0.00000000E+00 0.00000000E+00 -.28460630E+03 0.28460648E+03 0.32000000E+00 0.0000E+00 0.9000E+01
       25  2    1    2    0    0 0.35881059E+03 0.25922367E+03 0.64800530E+03 0.84049272E+03 0.30095712E+03 0.0000E+00 0.0000E+00
       23  2    1    2    0    0 -.35881059E+03 -.25922367E+03 0.79302704E+02 0.45602812E+03 0.75701902E+02 0.0000E+00 0.0000E+00
       24  1    3    3    0    0 0.24365607E+03 0.16851028E+03 0.21073294E+03 0.37234337E+03 0.80419002E+02 0.0000E+00 0.9000E+01
      -11  1    4    4    0    0 -.44489595E+02 -.34380020E+02 0.36888348E+02 0.67246264E+02 0.51099893E-03 0.0000E+00 0.9000E+01
       11  1    4    4    0    0 -.31432100E+03 -.22484365E+03 0.42414356E+02 0.38878186E+03 0.51099893E-03 0.0000E+00 0.9000E+01
      -24  1    3    3    0    0 0.11515452E+03 0.90713384E+02 0.43727236E+03 0.46814935E+03 0.80419002E+02 0.0000E+00 0.9000E+01
#aMCatNLO 1  0  0  1  2 0.61532157D+03 0.00000000D+00  -5  7  0 0.00000000D+00 0.00000000D+00 0.00000000D+00 0.00000000D+00 0.00000000D+00
  <mgrwgt>
 0.1780444726D-02    5    2    0
 0.536653836826608D+03 0.000000000000000D+00 0.000000000000000D+00 0.536653836826608D+03
 0.536653836826608D+03 0.000000000000000D+00 0.000000000000000D+00 -.536653836826608D+03
 0.306979248814250D+03 0.243656070587351D+03 0.168510281904689D+03 0.224664339067154D+01
 0.562345676187566D+02 -.444895953354883D+02 -.343800203291624D+02 -.100831756871599D+01
 0.440894530085839D+03 -.314320999651098D+03 -.224843645491312D+03 -.212216000622300D+03
 0.269199327134370D+03 0.115154524399235D+03 0.907133839157855D+02 0.210977674800345D+03
 0.000000000000000D+00 -.000000000000000D+00 -.000000000000000D+00 0.000000000000000D+00
 0.137337129444862D+04 0.000000000000000D+00 0.000000000000000D+00 0.137337129444862D+04
 0.743996371999154D+03 0.000000000000000D+00 0.000000000000000D+00 -.743996371999154D+03
 0.507711535414333D+03 0.353064681439244D+03 0.355870862184711D+03 0.224664339067154D+01
 0.349382827033549D+02 -.322455696336449D+02 -.134123127365091D+02 -.100831756871599D+01
 0.306028613941439D+03 -.214013220082274D+03 -.530681002185867D+02 -.212216000622300D+03
 0.388499807519495D+03 0.203479997172451D+03 0.241969411237977D+03 0.210977674800345D+03
 0.880189426869157D+03 -.310285888895775D+03 -.531359860467592D+03 0.629374922449469D+03
0.193333361902D-03 0.000000000000D+00 0.000000000000D+00 0.115918735097D-07 0.000000000000D+00  7 1 -1 24 -11 11 -24 21 0 0.15567914D+00 0.43785603D-01 0.21015827D+06 0.21015827D+06 0.21015827D+06 0.10961767D+01  1  2  2  1  7  1        1 0.178154279603D-02 0.100000000000D+01
-.104166072988D-04 0.000000000000D+00 -.742451015545D-06 0.115918735097D-07 0.000000000000D+00  7 1 -1 24 -11 11 -24 21 2 0.15567914D+00 0.43785603D-01 0.21015827D+06 0.21015827D+06 0.21015827D+06 0.10961767D+01  1  2  3  1  7  1        1 -.115339180542D-03 0.100000000000D+01
0.119754983333D-04 0.000000000000D+00 0.000000000000D+00 0.115918735097D-07 0.000000000000D+00  7 1 -1 24 -11 11 -24 21 2 0.15567914D+00 0.43785603D-01 0.21015827D+06 0.21015827D+06 0.21015827D+06 0.10961767D+01  1  2 15  1  7  1        1 0.132600195507D-03 0.100000000000D+01
-.317834057722D-04 0.000000000000D+00 -.565760183922D-04 0.115918735097D-07 0.000000000000D+00  7 1 -1 24 -11 11 -24 21 2 0.44403082D+00 0.43785603D-01 0.21015827D+06 0.21015827D+06 0.21015827D+06 0.10961767D+01  1  2  5  1  7  1        1 -.182618741729D-04 0.100000000000D+01
-.676600198766D-06 0.000000000000D+00 -.668237589585D-05 0.115918735097D-07 0.000000000000D+00  7 21 -1 24 -11 11 -24 -1 2 0.44403082D+00 0.43785603D-01 0.21015827D+06 0.21015827D+06 0.21015827D+06 0.10961767D+01  1  2  5  3  7  1        1 -.972111740035D-07 0.100000000000D+01
  </mgrwgt>
  </event>
  <event>
  8     66 0.27727860E-05 0.76352803E+03 0.75467711E-02 0.86481563E-01
        1 -1    0    0  501    0 0.00000000E+00 0.00000000E+00 0.10758763E+04 0.10758763E+04 0.32000000E+00 0.0000E+00 0.9000E+01
       -1 -1    0    0    0  501 0.00000000E+00 0.00000000E+00 -.11027968E+04 0.11027968E+04 0.32000000E+00 0.0000E+00 0.9000E+01
       25  2    1    2    0    0 -.10561749E+04 -.10629775E+03 0.88666392E+02 0.11069039E+04 0.30094845E+03 0.0000E+00 0.0000E+00
       23  2    1    2    0    0 0.10561749E+04 0.10629775E+03 -.11558688E+03 0.10717692E+04 0.92327439E+02 0.0000E+00 0.0000E+00
       24  1    3    3    0    0 -.44061753E+03 -.12927458E+03 0.13104252E+03 0.48424692E+03 0.80419002E+02 0.0000E+00 0.9000E+01
      -13  1    4    4    0    0 0.58574400E+03 0.81557970E+02 -.10450931E+03 0.60055802E+03 0.10565837E+00 0.0000E+00 0.9000E+01
       13  1    4    4    0    0 0.47043088E+03 0.24739784E+02 -.11077567E+02 0.47121120E+03 0.10565837E+00 0.0000E+00 0.9000E+01
      -24  1    3    3    0    0 -.61555735E+03 0.22976829E+02 -.42376124E+02 0.62265700E+03 0.80419002E+02 0.0000E+00 0.9000E+01
#aMCatNLO 1  0  0  1  2 0.46477527D+02 0.00000000D+00  -5  7  0 0.00000000D+00 0.00000000D+00 0.00000000D+00 0.00000000D+00 0.00000000D+00
  <mgrwgt>
 0.6516905833D-03    9    2    0
 0.108925341131839D+04 0.000000000000000D+00 0.000000000000000D+00 0.108925341131839D+04
 0.108925341131839D+04 0.000000000000000D+00 0.000000000000000D+00 -.108925341131839D+04
 0.485903228113175D+03 -.440617530430935D+03 -.129274583109378D+03 0.137036510373239D+03
 0.599312588940514D+03 0.585744147391391D+03 0.815580447736673D+02 -.970961296448535D+02
 0.471110122527017D+03 0.470430733691927D+03 0.247397097411888D+02 -.525538841745939D+01
 0.622180883056063D+03 -.615557350652383D+03 0.229768285945218D+02 -.346849923109261D+02
 0.000000000000000D+00 -.000000000000000D+00 0.000000000000000D+00 0.000000000000000D+00
 0.121891651520866D+04 0.000000000000000D+00 0.000000000000000D+00 0.121891651520866D+04
 0.109367420310133D+04 0.000000000000000D+00 0.000000000000000D+00 -.109367420310133D+04
 0.487252731645083D+03 -.438978392931193D+03 -.139524097938301D+03 0.137036510373239D+03
 0.599704216076492D+03 0.587763714130121D+03 0.689297086884593D+02 -.970961296448535D+02
 0.472281060533455D+03 0.472019736820947D+03 0.148036847666759D+02 -.525538841745939D+01
 0.619764547223432D+03 -.613465476984046D+03 0.989635780592824D+01 -.346849923109261D+02
 0.133588162831524D+03 -.733958103582867D+01 0.458943466772379D+02 0.125242312107330D+03
0.114285092210D-02 0.000000000000D+00 0.000000000000D+00 0.468890567857D-05 0.000000000000D+00  7 1 -1 24 -13 13 -24 21 0 0.16551944D+00 0.16966105D+00 0.11554832D+07 0.11554832D+07 0.11554832D+07 0.10437114D+01  1  2  2  1  7  1        1 0.416770523633D-03 0.100000000000D+01
-.634781994061D-04 0.000000000000D+00 -.438884846041D-05 0.468890567857D-05 0.000000000000D+00  7 1 -1 24 -13 13 -24 21 2 0.16551944D+00 0.16966105D+00 0.11554832D+07 0.11554832D+07 0.11554832D+07 0.10437114D+01  1  2  3  1  7  1        1 -.252169665115D-04 0.100000000000D+01
0.691140043790D-04 0.000000000000D+00 0.000000000000D+00 0.468890567857D-05 0.000000000000D+00  7 1 -1 24 -13 13 -24 21 2 0.16551944D+00 0.16966105D+00 0.11554832D+07 0.11554832D+07 0.11554832D+07 0.10437114D+01  1  2 15  1  7  1        1 0.274558123924D-04 0.100000000000D+01
0.183128540282D-01 0.000000000000D+00 0.000000000000D+00 0.468890567857D-05 0.000000000000D+00  7 1 -1 24 -13 13 -24 21 2 0.18553460D+00 0.16966105D+00 0.12065922D+07 0.12065922D+07 0.12065922D+07 0.10424775D+01  1  2 12  1  7  1        1 0.579903379232D-02 0.100000000000D+01
-.184316630869D-01 0.000000000000D+00 0.000000000000D+00 0.468890567857D-05 0.000000000000D+00  7 1 -1 24 -13 13 -24 21 2 0.16551944D+00 0.16966105D+00 0.11554832D+07 0.11554832D+07 0.11554832D+07 0.10437114D+01  1  2  4  1  7  1        1 -.732205127371D-02 0.100000000000D+01
-.225509912750D-01 0.000000000000D+00 -.125094876672D-02 0.468890567857D-05 0.000000000000D+00  7 1 -1 24 -13 13 -24 21 2 0.18552832D+00 0.16966105D+00 0.11554832D+07 0.11554832D+07 0.11554832D+07 0.10437114D+01  1  2  5  1  7  1        1 -.718093465456D-02 0.100000000000D+01
0.225548232220D-01 0.000000000000D+00 0.124284710069D-02 0.468890567857D-05 0.000000000000D+00  7 1 -1 24 -13 13 -24 21 2 0.16551944D+00 0.16966105D+00 0.11554832D+07 0.11554832D+07 0.11554832D+07 0.10437114D+01  1  2  6  1  7  1        1 0.895999299262D-02 0.100000000000D+01
0.333116866085D-03 0.000000000000D+00 0.000000000000D+00 0.468890567857D-05 0.000000000000D+00  7 21 -1 24 -13 13 -24 -1 2 0.18553460D+00 0.16966105D+00 0.12065922D+07 0.12065922D+07 0.12065922D+07 0.10424775D+01  1  2 12  3  7  1        1 0.104235484326D-03 0.100000000000D+01
-.404833337008D-03 0.000000000000D+00 -.227494553866D-04 0.468890567857D-05 0.000000000000D+00  7 21 -1 24 -13 13 -24 -1 2 0.18552832D+00 0.16966105D+00 0.11554832D+07 0.11554832D+07 0.11554832D+07 0.10437114D+01  1  2  5  3  7  1        1 -.127595127183D-03 0.100000000000D+01
  </mgrwgt>
  </event>
  <event>
  8     66 0.27727860E-05 0.59169525E+02 0.75467711E-02 0.10693906E+00
        1 -1    0    0  501    0 0.00000000E+00 0.00000000E+00 0.18858605E+04 0.18858605E+04 0.32000000E+00 0.0000E+00 0.9000E+01
       -1 -1    0    0    0  501 0.00000000E+00 0.00000000E+00 -.25638223E+02 0.25640220E+02 0.32000000E+00 0.0000E+00 0.9000E+01
       25  2    1    2    0    0 0.51590109E+02 -.61065903E+02 0.11449517E+04 0.11861327E+04 0.29934195E+03 0.0000E+00 0.0000E+00
       23  2    1    2    0    0 -.51590109E+02 0.61065903E+02 0.71527054E+03 0.72536809E+03 0.90312482E+02 0.0000E+00 0.0000E+00
       24  1    3    3    0    0 0.43728127E+02 0.58940607E+02 0.17976804E+03 0.21016638E+03 0.80419002E+02 0.0000E+00 0.9000E+01
      -13  1    4    4    0    0 0.17060043E+02 -.85548438E+01 0.19957362E+03 0.20048409E+03 0.10565837E+00 0.0000E+00 0.9000E+01
       13  1    4    4    0    0 -.68650153E+02 0.69620747E+02 0.51569692E+03 0.52488401E+03 0.10565837E+00 0.0000E+00 0.9000E+01
      -24  1    3    3    0    0 0.78619823E+01 -.12000651E+03 0.96518370E+03 0.97596627E+03 0.80419002E+02 0.0000E+00 0.9000E+01
#aMCatNLO 1  0  0  2  1 0.12252297D+02 0.00000000D+00  -5  7  0 0.00000000D+00 0.00000000D+00 0.00000000D+00 0.00000000D+00 0.00000000D+00
  <mgrwgt>
 0.6678757601D-03    9    2    0
 0.219890986753476D+03 0.000000000000000D+00 0.000000000000000D+00 0.219890986753476D+03
 0.219890986753476D+03 0.000000000000000D+00 0.000000000000000D+00 -.219890986753476D+03
 0.153086506706619D+03 0.437281382673387D+02 0.589405933421089D+02 -.107620253490771D+03
 0.272274581727249D+02 0.170601386042068D+02 -.855493172158456D+01 0.194190445849367D+02
 0.100061656521893D+03 -.686502708608336D+02 0.696208616219622D+02 0.212699563623198D+02
 0.159406352105715D+03 0.786199398928810D+01 -.120006523242487D+03 0.669312525435147D+02
 0.000000000000000D+00 -.000000000000000D+00 -.000000000000000D+00 -.000000000000000D+00
 0.220280972340402D+03 0.000000000000000D+00 0.000000000000000D+00 0.220280972340402D+03
 0.343159752658565D+03 0.000000000000000D+00 0.000000000000000D+00 -.343159752658565D+03
 0.155187122163685D+03 0.460822118746701D+02 0.625310940124681D+02 -.107620253490771D+03
 0.272993070686175D+02 0.174765219952163D+02 -.791985181588842D+01 0.194190445849367D+02
 0.100673888551795D+03 -.671173916118270D+02 0.719588530738851D+02 0.212699563623198D+02
 0.156792296714491D+03 0.102765855214580D+02 -.116323718895206D+03 0.669312525435147D+02
 0.123488110500378D+03 -.671792777951744D+01 -.102463763752592D+02 -.122878780318163D+03
0.690886836372D-05 0.000000000000D+00 0.000000000000D+00 0.161313009516D-06 0.000000000000D+00  7 1 -1 24 -13 13 -24 21 0 0.29013254D+00 0.39444977D-02 0.34300343D+05 0.34300343D+05 0.34300343D+05 0.11619763D+01  1  2  2  2  7  2       -1 0.747108344503D-03 0.100000000000D+01
-.370071733708D-06 0.000000000000D+00 -.265318736635D-07 0.161313009516D-06 0.000000000000D+00  7 1 -1 24 -13 13 -24 21 2 0.29013254D+00 0.39444977D-02 0.34300343D+05 0.34300343D+05 0.34300343D+05 0.11619763D+01  1  2  3  2  7  2       -1 -.540327585410D-04 0.100000000000D+01
0.442594154714D-06 0.000000000000D+00 0.000000000000D+00 0.161313009516D-06 0.000000000000D+00  7 1 -1 24 -13 13 -24 21 2 0.29013254D+00 0.39444977D-02 0.34300343D+05 0.34300343D+05 0.34300343D+05 0.11619763D+01  1  2 15  2  7  2       -1 0.646214798782D-04 0.100000000000D+01
0.357124172404D-03 0.000000000000D+00 0.000000000000D+00 0.161313009516D-06 0.000000000000D+00  7 1 -1 24 -13 13 -24 21 2 0.29013254D+00 0.61576189D-02 0.36756012D+05 0.36756012D+05 0.36756012D+05 0.11592393D+01  1  2 12  2  7  2       -1 0.270032658423D-01 0.100000000000D+01
-.325187570934D-03 0.000000000000D+00 0.000000000000D+00 0.161313009516D-06 0.000000000000D+00  7 1 -1 24 -13 13 -24 21 2 0.29013254D+00 0.39444977D-02 0.34300343D+05 0.34300343D+05 0.34300343D+05 0.11619763D+01  1  2  4  2  7  2       -1 -.474793935888D-01 0.100000000000D+01
-.358067941115D-03 0.000000000000D+00 -.273874148964D-05 0.161313009516D-06 0.000000000000D+00  7 1 -1 24 -13 13 -24 21 2 0.29013254D+00 0.61615085D-02 0.34300343D+05 0.34300343D+05 0.34300343D+05 0.11619763D+01  1  2  5  2  7  2       -1 -.272081111977D-01 0.100000000000D+01
0.326523627776D-03 0.000000000000D+00 0.248723788673D-05 0.161313009516D-06 0.000000000000D+00  7 1 -1 24 -13 13 -24 21 2 0.29013254D+00 0.39444977D-02 0.34300343D+05 0.34300343D+05 0.34300343D+05 0.11619763D+01  1  2  6  2  7  2       -1 0.476744661388D-01 0.100000000000D+01
0.184132597940D-04 0.000000000000D+00 0.000000000000D+00 0.161313009516D-06 0.000000000000D+00  7 1 21 24 -13 13 -24 1 2 0.29013254D+00 0.61576189D-02 0.36756012D+05 0.36756012D+05 0.36756012D+05 0.11592393D+01  1  2 12  4  7  2       -1 0.215148616822D-01 0.100000000000D+01
-.183739252753D-04 0.000000000000D+00 -.141360321811D-06 0.161313009516D-06 0.000000000000D+00  7 1 21 24 -13 13 -24 1 2 0.29013254D+00 0.61615085D-02 0.34300343D+05 0.34300343D+05 0.34300343D+05 0.11619763D+01  1  2  5  4  7  2       -1 -.215949101825D-01 0.100000000000D+01
  </mgrwgt>
  </event>
  <event>
  8     66 0.27727860E-05 0.26374973E+03 0.75467711E-02 0.10113620E+00
        3 -1    0    0  501    0 0.00000000E+00 0.00000000E+00 0.53155978E+03 0.53156002E+03 0.50000000E+00 0.0000E+00 0.9000E+01
       -3 -1    0    0    0  501 0.00000000E+00 0.00000000E+00 -.20301228E+03 0.20301289E+03 0.50000000E+00 0.0000E+00 0.9000E+01
       25  2    1    2    0    0 0.14098150E+03 0.12387832E+03 0.38051867E+03 0.51953545E+03 0.29983497E+03 0.0000E+00 0.0000E+00
       23  2    1    2    0    0 -.14098150E+03 -.12387832E+03 -.51971161E+02 0.21503747E+03 0.91205763E+02 0.0000E+00 0.0000E+00
       24  1    3    3    0    0 -.39252090E+02 0.33663793E+01 0.22142615E+03 0.23884894E+03 0.80419002E+02 0.0000E+00 0.9000E+01
      -11  1    4    4    0    0 -.15322120E+03 -.11529411E+03 -.55603309E+02 0.19965269E+03 0.51099893E-03 0.0000E+00 0.9000E+01
       11  1    4    4    0    0 0.12239704E+02 -.85842073E+01 0.36321473E+01 0.15384780E+02 0.51099893E-03 0.0000E+00 0.9000E+01
      -24  1    3    3    0    0 0.18023359E+03 0.12051194E+03 0.15909252E+03 0.28068651E+03 0.80419002E+02 0.0000E+00 0.9000E+01
#aMCatNLO 1  0  0  2  1 0.60037902D+02 0.00000000D+00  -5  7  0 0.00000000D+00 0.00000000D+00 0.00000000D+00 0.00000000D+00 0.00000000D+00
  <mgrwgt>
 0.3382689975D-04    4    2    0
 0.328501865931472D+03 0.000000000000000D+00 0.000000000000000D+00 0.328501865931472D+03
 0.328501865931472D+03 0.000000000000000D+00 0.000000000000000D+00 -.328501865931472D+03
 0.156320194684545D+03 -.392520895935780D+02 0.336637933605051D+01 0.128127781002197D+03
 0.251030209478124D+03 -.153221199505731D+03 -.115294108357961D+03 -.162008329016130D+03
 0.153848588627678D+02 0.122397035936831D+02 -.858420729352475D+01 -.363248170096741D+01
 0.234268468837509D+03 0.180233585505626D+03 0.120511936315435D+03 0.375130297149003D+02
 0.000000000000000D+00 -.000000000000000D+00 0.000000000000000D+00 0.000000000000000D+00
 0.368593964260883D+03 0.000000000000000D+00 0.000000000000000D+00 0.368593964260883D+03
 0.353141756290378D+03 0.000000000000000D+00 0.000000000000000D+00 -.353141756290378D+03
 0.153403353440762D+03 -.254667233886154D+02 0.301044517663756D+00 0.128127781002197D+03
 0.240695296237898D+03 -.131335178214662D+03 -.120160717057505D+03 -.162008329016130D+03
 0.167110455649875D+02 0.136682478516001D+02 -.890186054903443D+01 -.363248170096741D+01
 0.248931506524045D+03 0.201740147247237D+03 0.115729704813553D+03 0.375130297149003D+02
 0.619945187835693D+02 -.586064934955600D+02 0.130318282753218D+02 0.154522079705048D+02
0.168354446994D-04 0.000000000000D+00 0.000000000000D+00 0.393936179834D-05 0.000000000000D+00  7 3 -3 24 -11 11 -24 21 0 0.81778494D-01 0.31232724D-01 0.69563921D+05 0.69563921D+05 0.69563921D+05 0.11348904D+01  1  2  2  2  7  2       -3 0.101355365219D-03 0.100000000000D+01
-.880491420747D-06 0.000000000000D+00 -.646525405202D-07 0.393936179834D-05 0.000000000000D+00  7 3 -3 24 -11 11 -24 21 2 0.81778494D-01 0.31232724D-01 0.69563921D+05 0.69563921D+05 0.69563921D+05 0.11348904D+01  1  2  3  2  7  2       -3 -.682739657811D-05 0.100000000000D+01
0.104916676534D-05 0.000000000000D+00 0.000000000000D+00 0.393936179834D-05 0.000000000000D+00  7 3 -3 24 -11 11 -24 21 2 0.81778494D-01 0.31232724D-01 0.69563921D+05 0.69563921D+05 0.69563921D+05 0.11348904D+01  1  2 15  2  7  2       -3 0.813531786317D-05 0.100000000000D+01
-.887744651653D-05 0.000000000000D+00 0.000000000000D+00 0.393936179834D-05 0.000000000000D+00  7 3 -3 24 -11 11 -24 21 2 0.81778494D-01 0.31232724D-01 0.69563921D+05 0.69563921D+05 0.69563921D+05 0.11348904D+01  1  2  4  2  7  2       -3 -.688363867508D-04 0.100000000000D+01
  </mgrwgt>
  </event>
  <event>
  8     66 0.27727860E-05 0.30124836E+03 0.75467711E-02 0.95340435E-01
        1 -1    0    0  501    0 0.00000000E+00 0.00000000E+00 0.26395705E+03 0.26395724E+03 0.32000000E+00 0.0000E+00 0.9000E+01
       -1 -1    0    0    0  501 0.00000000E+00 0.00000000E+00 -.39010715E+03 0.39010729E+03 0.32000000E+00 0.0000E+00 0.9000E+01
       25  2    1    2    0    0 0.11041752E+03 -.20933914E+03 -.39820434E+02 0.38482573E+03 0.30081601E+03 0.0000E+00 0.0000E+00
       23  2    1    2    0    0 -.11041752E+03 0.20933914E+03 -.86329674E+02 0.26923879E+03 0.94983208E+02 0.0000E+00 0.0000E+00
       24  1    3    3    0    0 -.21878080E+02 -.19163721E+03 -.80222234E+02 0.22384435E+03 0.80419002E+02 0.0000E+00 0.9000E+01
      -11  1    4    4    0    0 -.54255380E+02 0.79740474E+02 0.11922749E+02 0.97182002E+02 0.51099893E-03 0.0000E+00 0.9000E+01
       11  1    4    4    0    0 -.56162135E+02 0.12959867E+03 -.98252423E+02 0.17205679E+03 0.51099893E-03 0.0000E+00 0.9000E+01
      -24  1    3    3    0    0 0.13229559E+03 -.17701931E+02 0.40401800E+02 0.16098138E+03 0.80419002E+02 0.0000E+00 0.9000E+01
#aMCatNLO 1  0  0  2  1 0.28108826D+03 0.00000000D+00  -5  7  0 0.00000000D+00 0.00000000D+00 0.00000000D+00 0.00000000D+00 0.00000000D+00
  <mgrwgt>
 0.6972586363D-03    3    2    0
 0.320891942248504D+03 0.000000000000000D+00 0.000000000000000D+00 0.320891942248504D+03
 0.320891942248504D+03 0.000000000000000D+00 0.000000000000000D+00 -.320891942248504D+03
 0.212359037878557D+03 -.218780797146662D+02 -.191637214342982D+03 -.377580815349032D+02
 0.101385151191842D+03 -.542553804891380D+02 0.797404744574631D+02 0.312531486968937D+02
 0.156036466593948D+03 -.561621346502672D+02 0.129598670474144D+03 -.663127299240777D+02
 0.172003228832661D+03 0.132295594854072D+03 -.177019305886249D+02 0.728176627620872D+02
 0.000000000000000D+00 0.000000000000000D+00 0.000000000000000D+00 0.000000000000000D+00
 0.693716799060975D+03 0.000000000000000D+00 0.000000000000000D+00 0.693716799060975D+03
 0.407841676558367D+03 0.000000000000000D+00 0.000000000000000D+00 -.407841676558367D+03
 0.310058602467859D+03 -.744049487046616D+02 -.287588859132289D+03 -.377580815349032D+02
 0.914587883753746D+02 -.736450173751453D+02 0.443211245732320D+02 0.312531486968937D+02
 0.132368514722739D+03 -.851600273317592D+02 0.766277709761570D+02 -.663127299240777D+02
 0.166754631503620D+03 0.982349346179129D+02 -.799210659589749D+02 0.728176627620872D+02
 0.400917938549749D+03 0.134975058793653D+03 0.246561029541875D+03 0.285875122502608D+03
0.187842729318D-04 0.000000000000D+00 0.000000000000D+00 0.715277076278D-07 0.000000000000D+00  7 1 -1 24 -11 11 -24 21 0 0.40608801D-01 0.60016510D-01 0.90750577D+05 0.90750577D+05 0.90750577D+05 0.11251975D+01  1  2  2  2  7  2       -1 0.690409468594D-03 0.100000000000D+01
-.103850761685D-05 0.000000000000D+00 -.721365540706D-07 0.715277076278D-07 0.000000000000D+00  7 1 -1 24 -11 11 -24 21 2 0.40608801D-01 0.60016510D-01 0.90750577D+05 0.90750577D+05 0.90750577D+05 0.11251975D+01  1  2  3  2  7  2       -1 -.483258544629D-04 0.100000000000D+01
0.118569410625D-05 0.000000000000D+00 0.000000000000D+00 0.715277076278D-07 0.000000000000D+00  7 1 -1 24 -11 11 -24 21 2 0.40608801D-01 0.60016510D-01 0.90750577D+05 0.90750577D+05 0.90750577D+05 0.11251975D+01  1  2 15  2  7  2       -1 0.551750222014D-04 0.100000000000D+01
  </mgrwgt>
  </event>
  <event>
  8     66 0.27727860E-05 0.67002774E+02 0.75467711E-02 0.10413005E+00
        1 -1    0    0  501    0 0.00000000E+00 0.00000000E+00 0.23980437E+03 0.23980458E+03 0.32000000E+00 0.0000E+00 0.9000E+01
       -1 -1    0    0    0  501 0.00000000E+00 0.00000000E+00 -.26739887E+03 0.26739906E+03 0.32000000E+00 0.0000E+00 0.9000E+01
       25  2    1    2    0    0 -.23124517E+02 0.10205632E+01 -.16200010E+03 0.34357359E+03 0.30209765E+03 0.0000E+00 0.0000E+00
       23  2    1    2    0    0 0.23124517E+02 -.10205632E+01 0.13440559E+03 0.16363006E+03 0.90410991E+02 0.0000E+00 0.0000E+00
       24  1    3    3    0    0 -.40902534E+02 -.12210305E+03 -.57735387E+02 0.16242771E+03 0.80419002E+02 0.0000E+00 0.9000E+01
      -13  1    4    4    0    0 0.57604447E+02 0.41354977E+01 0.93329562E+02 0.10975333E+03 0.10565837E+00 0.0000E+00 0.9000E+01
       13  1    4    4    0    0 -.34479929E+02 -.51560609E+01 0.41076032E+02 0.53876731E+02 0.10565837E+00 0.0000E+00 0.9000E+01
      -24  1    3    3    0    0 0.17778017E+02 0.12312361E+03 -.10426471E+03 0.18114587E+03 0.80419002E+02 0.0000E+00 0.9000E+01
#aMCatNLO 1  0  0  2  1 0.66239792D+02 0.00000000D+00  -5  7  0 0.00000000D+00 0.00000000D+00 0.00000000D+00 0.00000000D+00 0.00000000D+00
  <mgrwgt>
 0.3070429919D-03    7    2    0
 0.253226223440737D+03 0.000000000000000D+00 0.000000000000000D+00 0.253226223440737D+03
 0.253226223440737D+03 0.000000000000000D+00 0.000000000000000D+00 -.253226223440737D+03
 0.159522872335375D+03 -.409025344937451D+02 -.122103046063376D+03 -.489710083395358D+02
 0.115001343377100D+03 0.576045685118017D+02 0.413550988310587D+01 0.994480780262417D+02
 0.561946252393252D+02 -.344800506507913D+02 -.515607314652113D+01 0.440724054552823D+02
 0.175733605929674D+03 0.177780166327347D+02 0.123123609326791D+03 -.945494751419882D+02
 0.000000000000000D+00 -.000000000000000D+00 -.000000000000000D+00 -.000000000000000D+00
 0.259069101222455D+03 0.000000000000000D+00 0.000000000000000D+00 0.259069101222455D+03
 0.552963114205175D+03 0.000000000000000D+00 0.000000000000000D+00 -.552963114205175D+03
 0.144042972026825D+03 -.350195515063218D+02 -.103230970112924D+03 -.489710083395358D+02
 0.118739402845483D+03 0.621343694068403D+02 0.186667003887303D+02 0.994480780262417D+02
 0.546873078161707D+02 -.323312037436281D+02 0.173723287264842D+01 0.440724054552823D+02
 0.193296203946088D+03 0.249296647304067D+02 0.146065447907441D+03 -.945494751419882D+02
 0.301266328793063D+03 -.197132788872971D+02 -.632384110558956D+02 -.293894012982719D+03
0.453219700965D-05 0.000000000000D+00 0.000000000000D+00 0.484477082891D-07 0.000000000000D+00  7 1 -1 24 -13 13 -24 21 0 0.36893011D-01 0.41138319D-01 0.38527248D+05 0.38527248D+05 0.38527248D+05 0.11573877D+01  1  2  2  2  7  2       -1 0.372102173158D-03 0.100000000000D+01
-.231925338013D-06 0.000000000000D+00 -.174048298719D-07 0.484477082891D-07 0.000000000000D+00  7 1 -1 24 -13 13 -24 21 2 0.36893011D-01 0.41138319D-01 0.38527248D+05 0.38527248D+05 0.38527248D+05 0.11573877D+01  1  2  3  2  7  2       -1 -.255069993935D-04 0.100000000000D+01
0.279292637174D-06 0.000000000000D+00 0.000000000000D+00 0.484477082891D-07 0.000000000000D+00  7 1 -1 24 -13 13 -24 21 2 0.36893011D-01 0.41138319D-01 0.38527248D+05 0.38527248D+05 0.38527248D+05 0.11573877D+01  1  2 15  2  7  2       -1 0.307164244668D-04 0.100000000000D+01
0.236244515907D-04 0.000000000000D+00 0.000000000000D+00 0.484477082891D-07 0.000000000000D+00  7 1 -1 24 -13 13 -24 21 2 0.36893011D-01 0.89723078D-01 0.54651227D+05 0.54651227D+05 0.54651227D+05 0.11439129D+01  1  2 12  2  7  2       -1 0.589851446976D-03 0.100000000000D+01
-.252733428443D-04 0.000000000000D+00 -.137491417002D-05 0.484477082891D-07 0.000000000000D+00  7 1 -1 24 -13 13 -24 21 2 0.36893011D-01 0.90621925D-01 0.38527248D+05 0.38527248D+05 0.38527248D+05 0.11573877D+01  1  2  5  2  7  2       -1 -.637417647619D-03 0.100000000000D+01
0.199560160456D-05 0.000000000000D+00 0.000000000000D+00 0.484477082891D-07 0.000000000000D+00  7 1 21 24 -13 13 -24 1 2 0.36893011D-01 0.89723078D-01 0.54651227D+05 0.54651227D+05 0.54651227D+05 0.11439129D+01  1  2 12  4  7  2       -1 0.379966527080D-03 0.100000000000D+01
-.207701263996D-05 0.000000000000D+00 -.117705796535D-06 0.484477082891D-07 0.000000000000D+00  7 1 21 24 -13 13 -24 1 2 0.36893011D-01 0.90621925D-01 0.38527248D+05 0.38527248D+05 0.38527248D+05 0.11573877D+01  1  2  5  4  7  2       -1 -.402668932809D-03 0.100000000000D+01
  </mgrwgt>
  </event>
  <event>
  8     66 0.27727860E-05 0.55739478E+03 0.75467711E-02 0.80293138E-01
        1 -1    0    0  501    0 0.00000000E+00 0.00000000E+00 0.92687257E+03 0.92687263E+03 0.32000000E+00 0.0000E+00 0.9000E+01
       -1 -1    0    0    0  501 0.00000000E+00 0.00000000E+00 -.50068299E+03 0.50068310E+03 0.32000000E+00 0.0000E+00 0.9000E+01
       25  2    1    2    0    0 0.45953740E+03 0.23930148E+03 0.62494040E+03 0.86544052E+03 0.29999495E+03 0.0000E+00 0.0000E+00
       23  2    1    2    0    0 -.45953740E+03 -.23930148E+03 -.19875082E+03 0.56211521E+03 0.89620302E+02 0.0000E+00 0.0000E+00
       24  1    3    3    0    0 0.46364781E+02 -.22450868E+02 0.15708203E+03 0.18383611E+03 0.80419002E+02 0.0000E+00 0.9000E+01
      -11  1    4    4    0    0 -.20330747E+03 -.14850879E+03 -.69967327E+02 0.26131249E+03 0.51099893E-03 0.0000E+00 0.9000E+01
       11  1    4    4    0    0 -.25622993E+03 -.90792687E+02 -.12878349E+03 0.30080272E+03 0.51099893E-03 0.0000E+00 0.9000E+01
      -24  1    3    3    0    0 0.41317262E+03 0.26175235E+03 0.46785837E+03 0.68160441E+03 0.80419002E+02 0.0000E+00 0.9000E+01
#aMCatNLO 1  0  0  1  1 0.20892540D+04 0.00000000D+00  -5  7  0 0.00000000D+00 0.00000000D+00 0.00000000D+00 0.00000000D+00 0.00000000D+00
  <mgrwgt>
 0.6586097372D-03    3    2    0
 0.681226429798273D+03 0.000000000000000D+00 0.000000000000000D+00 0.681226429798273D+03
 0.681226429798273D+03 0.000000000000000D+00 0.000000000000000D+00 -.681226429798273D+03
 0.143483543602893D+03 0.463647807008610D+02 -.224508678420201D+02 0.107082103893106D+03
 0.295685448207472D+03 -.203307471409135D+03 -.148508793391088D+03 -.155051909489695D+03
 0.355460978773812D+03 -.256229927510629D+03 -.907926865012759D+02 -.229031482020737D+03
 0.567822889012369D+03 0.413172618218903D+03 0.261752347734384D+03 0.277001287617326D+03
 0.000000000000000D+00 0.000000000000000D+00 -.000000000000000D+00 -.000000000000000D+00
 0.183917486180956D+04 0.000000000000000D+00 0.000000000000000D+00 0.183917486180956D+04
 0.309028060257946D+04 0.000000000000000D+00 0.000000000000000D+00 -.309028060257946D+04
 0.195249407826150D+03 -.529381097916765D+02 0.131856341749657D+03 0.107082103893106D+03
 0.518523523602877D+03 -.442000825641789D+03 0.222397886737083D+03 -.155051909489695D+03
 0.746297513821905D+03 -.579221247008444D+03 0.411104982205426D+03 -.229031482020737D+03
 0.103417497121294D+04 -.564687833987882D+02 0.991530240733339D+03 0.277001287617326D+03
 0.243521004792515D+04 0.113062896584070D+04 -.175688945142550D+04 -.125110574076990D+04
0.178359901782D-03 0.000000000000D+00 0.000000000000D+00 0.312658533179D-05 0.000000000000D+00  7 1 -1 24 -11 11 -24 21 0 0.14259579D+00 0.77028165D-01 0.31068895D+06 0.31068895D+06 0.31068895D+06 0.10834288D+01  1  2  2  1  7  1        1 0.651339160546D-03 0.100000000000D+01
-.942397586891D-05 0.000000000000D+00 -.684948986082D-06 0.312658533179D-05 0.000000000000D+00  7 1 -1 24 -11 11 -24 21 2 0.14259579D+00 0.77028165D-01 0.31068895D+06 0.31068895D+06 0.31068895D+06 0.10834288D+01  1  2  3  1  7  1        1 -.403966031776D-04 0.100000000000D+01
0.111201021098D-04 0.000000000000D+00 0.000000000000D+00 0.312658533179D-05 0.000000000000D+00  7 1 -1 24 -11 11 -24 21 2 0.14259579D+00 0.77028165D-01 0.31068895D+06 0.31068895D+06 0.31068895D+06 0.10834288D+01  1  2 15  1  7  1        1 0.476671798054D-04 0.100000000000D+01
  </mgrwgt>
  </event>
  <event>
  8     66 0.27727860E-05 0.16568467E+03 0.75467711E-02 0.10451939E+00
        1 -1    0    0  501    0 0.00000000E+00 0.00000000E+00 0.81255241E+03 0.81255247E+03 0.32000000E+00 0.0000E+00 0.9000E+01
       -1 -1    0    0    0  501 0.00000000E+00 0.00000000E+00 -.99253452E+02 0.99253968E+02 0.32000000E+00 0.0000E+00 0.9000E+01
       25  2    1    2    0    0 -.17481691E+03 -.27089823E+02 0.56889284E+03 0.66614008E+03 0.29800794E+03 0.0000E+00 0.0000E+00
       23  2    1    2    0    0 0.17481691E+03 0.27089823E+02 0.14440612E+03 0.24566636E+03 0.90576075E+02 0.0000E+00 0.0000E+00
       24  1    3    3    0    0 -.78340439E+02 0.19013488E+02 0.50535906E+03 0.51802870E+03 0.80419002E+02 0.0000E+00 0.9000E+01
      -11  1    4    4    0    0 0.73344559E+02 0.28951666E+02 0.11602486E+03 0.14028326E+03 0.51099893E-03 0.0000E+00 0.9000E+01
       11  1    4    4    0    0 0.10147235E+03 -.18618427E+01 0.28381259E+02 0.10538311E+03 0.51099893E-03 0.0000E+00 0.9000E+01
      -24  1    3    3    0    0 -.96476467E+02 -.46103311E+02 0.63533778E+02 0.14811138E+03 0.80419002E+02 0.0000E+00 0.9000E+01
#aMCatNLO 1  0  0  2  1 0.26903554D+02 0.00000000D+00  -5  7  0 0.00000000D+00 0.00000000D+00 0.00000000D+00 0.00000000D+00 0.00000000D+00
  <mgrwgt>
 0.1041854408D-02    9    2    0
 0.283987492446122D+03 0.000000000000000D+00 0.000000000000000D+00 0.283987492446122D+03
 0.283987492446122D+03 0.000000000000000D+00 0.000000000000000D+00 -.283987492446122D+03
 0.196962571373970D+03 -.783404391352362D+02 0.190134881307893D+02 0.160711858408378D+03
 0.794942812385739D+02 0.733445589996207D+02 0.289516658393687D+02 0.100855074197672D+02
 0.133535237051487D+03 0.101472346648239D+03 -.186184271367795D+01 -.867845374580400D+02
 0.157982895228213D+03 -.964764665126233D+02 -.461033112564800D+02 -.840128283701048D+02
 0.000000000000000D+00 -.000000000000000D+00 0.000000000000000D+00 -.000000000000000D+00
 0.285532409791607D+03 0.000000000000000D+00 0.000000000000000D+00 0.285532409791607D+03
 0.431838899488306D+03 0.000000000000000D+00 0.000000000000000D+00 -.431838899488306D+03
 0.194671015476270D+03 -.740597314345400D+02 0.107908785073843D+02 0.160711858408378D+03
 0.799712784108060D+02 0.750875797008762D+02 0.256035795428886D+02 0.100855074197672D+02
 0.135982691523051D+03 0.104418282622739D+03 -.752055225133724D+01 -.867845374580400D+02
 0.157986819495236D+03 -.930227944160044D+02 -.527373071756887D+02 -.840128283701048D+02
 0.148759504374549D+03 -.124233364730711D+02 0.238634013767531D+02 -.146306489696699D+03
0.125690234298D-04 0.000000000000D+00 0.000000000000D+00 0.823218952580D-07 0.000000000000D+00  7 1 -1 24 -11 11 -24 21 0 0.12500811D+00 0.15269806D-01 0.45796428D+05 0.45796428D+05 0.45796428D+05 0.11506652D+01  1  2  2  2  7  2       -1 0.974739754207D-03 0.100000000000D+01
-.630307331960D-06 0.000000000000D+00 -.482683594702D-07 0.823218952580D-07 0.000000000000D+00  7 1 -1 24 -11 11 -24 21 2 0.12500811D+00 0.15269806D-01 0.45796428D+05 0.45796428D+05 0.45796428D+05 0.11506652D+01  1  2  3  2  7  2       -1 -.647198445713D-04 0.100000000000D+01
0.775410661505D-06 0.000000000000D+00 0.000000000000D+00 0.823218952580D-07 0.000000000000D+00  7 1 -1 24 -11 11 -24 21 2 0.12500811D+00 0.15269806D-01 0.45796428D+05 0.45796428D+05 0.45796428D+05 0.11506652D+01  1  2 15  2  7  2       -1 0.796190286022D-04 0.100000000000D+01
0.205844405750D-03 0.000000000000D+00 0.000000000000D+00 0.823218952580D-07 0.000000000000D+00  7 1 -1 24 -11 11 -24 21 2 0.12500811D+00 0.23243700D-01 0.51660512D+05 0.51660512D+05 0.51660512D+05 0.11460494D+01  1  2 12  2  7  2       -1 0.107692450105D-01 0.100000000000D+01
-.190420795920D-03 0.000000000000D+00 0.000000000000D+00 0.823218952580D-07 0.000000000000D+00  7 1 -1 24 -11 11 -24 21 2 0.12500811D+00 0.15269806D-01 0.45796428D+05 0.45796428D+05 0.45796428D+05 0.11506652D+01  1  2  4  2  7  2       -1 -.195523734061D-01 0.100000000000D+01
-.207212712945D-03 0.000000000000D+00 -.509917972414D-05 0.823218952580D-07 0.000000000000D+00  7 1 -1 24 -11 11 -24 21 2 0.12500811D+00 0.23283255D-01 0.45796428D+05 0.45796428D+05 0.45796428D+05 0.11506652D+01  1  2  5  2  7  2       -1 -.109158238099D-01 0.100000000000D+01
0.192409831960D-03 0.000000000000D+00 0.467682015034D-05 0.823218952580D-07 0.000000000000D+00  7 1 -1 24 -11 11 -24 21 2 0.12500811D+00 0.15269806D-01 0.45796428D+05 0.45796428D+05 0.45796428D+05 0.11506652D+01  1  2  6  2  7  2       -1 0.197566072724D-01 0.100000000000D+01
0.101601822113D-04 0.000000000000D+00 0.000000000000D+00 0.823218952580D-07 0.000000000000D+00  7 1 21 24 -11 11 -24 1 2 0.12500811D+00 0.23243700D-01 0.51660512D+05 0.51660512D+05 0.51660512D+05 0.11460494D+01  1  2 12  4  7  2       -1 0.630489843515D-02 0.100000000000D+01
-.100716129483D-04 0.000000000000D+00 -.252444348549D-06 0.823218952580D-07 0.000000000000D+00  7 1 21 24 -11 11 -24 1 2 0.12500811D+00 0.23283255D-01 0.45796428D+05 0.45796428D+05 0.45796428D+05 0.11506652D+01  1  2  5  4  7  2       -1 -.631033803253D-02 0.100000000000D+01
  </mgrwgt>
  </event>
  <event>
  8     66 0.27727860E-05 0.10678920E+03 0.75467711E-02 0.10426875E+00
        1 -1    0    0  501    0 0.00000000E+00 0.00000000E+00 0.36384183E+03 0.36384197E+03 0.32000000E+00 0.0000E+00 0.9000E+01
       -1 -1    0    0    0  501 0.00000000E+00 0.00000000E+00 -.18234235E+03 0.18234263E+03 0.32000000E+00 0.0000E+00 0.9000E+01
       25  2    1    2    0    0 -.13178158E+03 -.22197399E+02 0.19970784E+03 0.38382167E+03 0.29929375E+03 0.0000E+00 0.0000E+00
       23  2    1    2    0    0 0.13178158E+03 0.22197399E+02 -.18208361E+02 0.16236292E+03 0.90393949E+02 0.0000E+00 0.0000E+00
       24  1    3    3    0    0 0.39703162E+02 -.29563416E+02 -.16960527E+02 0.95943796E+02 0.80419002E+02 0.0000E+00 0.9000E+01
      -11  1    4    4    0    0 0.70586925E+02 -.14981163E+02 0.27714716E+02 0.77298478E+02 0.51099893E-03 0.0000E+00 0.9000E+01
       11  1    4    4    0    0 0.61194650E+02 0.37178562E+02 -.45923077E+02 0.85064444E+02 0.51099893E-03 0.0000E+00 0.9000E+01
      -24  1    3    3    0    0 -.17148474E+03 0.73660164E+01 0.21666837E+03 0.28787788E+03 0.80419002E+02 0.0000E+00 0.9000E+01
#aMCatNLO 1  0  0  2  1 0.32940320D+02 0.00000000D+00  -5  7  0 0.00000000D+00 0.00000000D+00 0.00000000D+00 0.00000000D+00 0.00000000D+00
  <mgrwgt>
 0.2966862483D-03    7    2    0
 0.257573072391343D+03 0.000000000000000D+00 0.000000000000000D+00 0.257573072391343D+03
 0.257573072391343D+03 0.000000000000000D+00 0.000000000000000D+00 -.257573072391343D+03
 0.107700214813087D+03 0.397031617728691D+02 -.295634157137817D+02 -.517859412677424D+02
 0.721912253973839D+02 0.705869251580816D+02 -.149811630323021D+02 0.215029656160721D+01
 0.106369628032740D+03 0.611946505017294D+02 0.371785623375871D+02 -.786604539797784D+02
 0.228885076539476D+03 -.171484737432680D+03 0.736601640849665D+01 0.128296098685914D+03
 0.000000000000000D+00 -.000000000000000D+00 -.000000000000000D+00 -.000000000000000D+00
 0.258890571127242D+03 0.000000000000000D+00 0.000000000000000D+00 0.258890571127242D+03
 0.600842807158196D+03 0.000000000000000D+00 0.000000000000000D+00 -.600842807158196D+03
 0.106274447900650D+03 0.403396731191467D+02 -.227589407018832D+02 -.517859412677424D+02
 0.718052552428587D+02 0.710152721062162D+02 -.104020206147314D+02 0.215029656160721D+01
 0.109318310673111D+03 0.618362583374439D+02 0.440375201724936D+02 -.786604539797784D+02
 0.228800218631965D+03 -.170123259023478D+03 0.219205814902227D+02 0.128296098685914D+03
 0.343535145836853D+03 -.306794453932860D+01 -.327971403461017D+02 -.341952236030955D+03
0.335040320934D-05 0.000000000000D+00 0.000000000000D+00 0.250768397704D-06 0.000000000000D+00  7 1 -1 24 -11 11 -24 21 0 0.55975698D-01 0.28052701D-01 0.45741103D+05 0.45741103D+05 0.45741103D+05 0.11507118D+01  1  2  2  2  7  2       -1 0.304388236327D-03 0.100000000000D+01
-.178310179253D-06 0.000000000000D+00 -.128664305053D-07 0.250768397704D-06 0.000000000000D+00  7 1 -1 24 -11 11 -24 21 2 0.55975698D-01 0.28052701D-01 0.45741103D+05 0.45741103D+05 0.45741103D+05 0.11507118D+01  1  2  3  2  7  2       -1 -.214506305362D-04 0.100000000000D+01
0.210323737136D-06 0.000000000000D+00 0.000000000000D+00 0.250768397704D-06 0.000000000000D+00  7 1 -1 24 -11 11 -24 21 2 0.55975698D-01 0.28052701D-01 0.45741103D+05 0.45741103D+05 0.45741103D+05 0.11507118D+01  1  2 15  2  7  2       -1 0.253018464633D-04 0.100000000000D+01
0.955679486639D-04 0.000000000000D+00 0.000000000000D+00 0.250768397704D-06 0.000000000000D+00  7 1 -1 24 -11 11 -24 21 2 0.55975698D-01 0.65405775D-01 0.53563786D+05 0.53563786D+05 0.53563786D+05 0.11446745D+01  1  2 12  2  7  2       -1 0.259689921335D-02 0.100000000000D+01
-.948907539276D-04 0.000000000000D+00 -.102336424202D-05 0.250768397704D-06 0.000000000000D+00  7 1 -1 24 -11 11 -24 21 2 0.55975698D-01 0.65542869D-01 0.45741103D+05 0.45741103D+05 0.45741103D+05 0.11507118D+01  1  2  5  2  7  2       -1 -.260369393971D-02 0.100000000000D+01
0.881822761728D-05 0.000000000000D+00 0.000000000000D+00 0.250768397704D-06 0.000000000000D+00  7 1 21 24 -11 11 -24 1 2 0.55975698D-01 0.65405775D-01 0.53563786D+05 0.53563786D+05 0.53563786D+05 0.11446745D+01  1  2 12  4  7  2       -1 0.205909978153D-02 0.100000000000D+01
-.871495417639D-05 0.000000000000D+00 -.946850864218D-07 0.250768397704D-06 0.000000000000D+00  7 1 21 24 -11 11 -24 1 2 0.55975698D-01 0.65542869D-01 0.45741103D+05 0.45741103D+05 0.45741103D+05 0.11507118D+01  1  2  5  4  7  2       -1 -.206385825914D-02 0.100000000000D+01
  </mgrwgt>
  </event>
  <event>
  8     66 0.27727860E-05 0.18167944E+03 0.75467711E-02 0.96054014E-01
        1 -1    0    0  501    0 0.00000000E+00 0.00000000E+00 0.68151774E+03 0.68151781E+03 0.32000000E+00 0.0000E+00 0.9000E+01
       -1 -1    0    0    0  501 0.00000000E+00 0.00000000E+00 -.18261536E+03 0.18261564E+03 0.32000000E+00 0.0000E+00 0.9000E+01
       25  2    1    2    0    0 0.36126805E+02 0.17679674E+02 -.49668163E+02 0.30653199E+03 0.29979530E+03 0.0000E+00 0.0000E+00
       23  2    1    2    0    0 -.36126805E+02 -.17679674E+02 0.54857054E+03 0.55760146E+03 0.91498789E+02 0.0000E+00 0.0000E+00
       24  1    3    3    0    0 0.11576783E+03 0.43545806E+02 -.10182091E+03 0.17925719E+03 0.80419002E+02 0.0000E+00 0.9000E+01
      -11  1    4    4    0    0 0.17014669E+02 -.38937368E+02 0.21560422E+03 0.21975168E+03 0.51099893E-03 0.0000E+00 0.9000E+01
       11  1    4    4    0    0 -.53141474E+02 0.21257694E+02 0.33296632E+03 0.33784978E+03 0.51099893E-03 0.0000E+00 0.9000E+01
      -24  1    3    3    0    0 -.79641029E+02 -.25866132E+02 0.52152743E+02 0.12727480E+03 0.80419002E+02 0.0000E+00 0.9000E+01
#aMCatNLO 1  0  0  1  1 0.37821081D+03 0.00000000D+00  -5  7  0 0.00000000D+00 0.00000000D+00 0.00000000D+00 0.00000000D+00 0.00000000D+00
  <mgrwgt>
 0.8118805166D-03    3    2    0
 0.352782878254643D+03 0.000000000000000D+00 0.000000000000000D+00 0.352782878254643D+03
 0.352782878254643D+03 0.000000000000000D+00 0.000000000000000D+00 -.352782878254643D+03
 0.291540267352861D+03 0.115767833717034D+03 0.435458059196801D+02 -.251455926549918D+03
 0.116685528962452D+03 0.170146689228154D+02 -.389373680308169D+02 0.108673341172189D+03
 0.178338600074565D+03 -.531414741400792D+02 0.212576937584688D+02 0.168904560207372D+03
 0.119001360119410D+03 -.796410284997704D+02 -.258661316473319D+02 -.261219748296432D+02
 0.000000000000000D+00 0.000000000000000D+00 -.000000000000000D+00 -.000000000000000D+00
 0.427312318698769D+03 0.000000000000000D+00 0.000000000000000D+00 0.427312318698769D+03
 0.172270711624361D+04 0.000000000000000D+00 0.000000000000000D+00 -.172270711624361D+04
 0.314987137452859D+03 0.297226056998249D+02 0.169222234117478D+03 -.251455926549918D+03
 0.110017774897056D+03 -.151466766623760D+02 0.803703290137040D+01 0.108673341172189D+03
 0.227839664741382D+03 -.110764099490235D+03 0.105420475405571D+03 0.168904560207372D+03
 0.147696773823163D+03 -.117476255012253D+03 0.293954585386162D+02 -.261219748296432D+02
 0.134947808402792D+04 0.213664425465040D+03 -.312075200963036D+03 -.129539479754485D+04
0.202164466279D-04 0.000000000000D+00 0.000000000000D+00 0.311434864150D-05 0.000000000000D+00  7 1 -1 24 -11 11 -24 21 0 0.10484891D+00 0.28094698D-01 0.33007419D+05 0.33007419D+05 0.33007419D+05 0.11635058D+01  1  2  2  1  7  1        1 0.777068594090D-03 0.100000000000D+01
-.521770684572D-06 0.000000000000D+00 -.776364781636D-07 0.311434864150D-05 0.000000000000D+00  7 1 -1 24 -11 11 -24 21 2 0.10484891D+00 0.28094698D-01 0.33007419D+05 0.33007419D+05 0.33007419D+05 0.11635058D+01  1  2  3  1  7  1        1 -.271500945362D-04 0.100000000000D+01
0.119078642560D-05 0.000000000000D+00 0.000000000000D+00 0.311434864150D-05 0.000000000000D+00  7 1 -1 24 -11 11 -24 21 2 0.10484891D+00 0.28094698D-01 0.33007419D+05 0.33007419D+05 0.33007419D+05 0.11635058D+01  1  2 15  1  7  1        1 0.619620170000D-04 0.100000000000D+01
  </mgrwgt>
  </event>
  <event>
  8     66 0.27727860E-05 0.19497535E+03 0.75467711E-02 0.10544609E+00
        1 -1    0    0  501    0 0.00000000E+00 0.00000000E+00 0.89063497E+03 0.89063503E+03 0.32000000E+00 0.0000E+00 0.9000E+01
       -1 -1    0    0    0  501 0.00000000E+00 0.00000000E+00 -.52808667E+02 0.52809637E+02 0.32000000E+00 0.0000E+00 0.9000E+01
       25  2    1    2    0    0 0.52107934E+02 -.60550789E+02 0.58693062E+03 0.66490284E+03 0.30203740E+03 0.0000E+00 0.0000E+00
       23  2    1    2    0    0 -.52107934E+02 0.60550789E+02 0.25089569E+03 0.27854183E+03 0.90858531E+02 0.0000E+00 0.0000E+00
       24  1    3    3    0    0 0.14240064E+03 -.44538326E+02 0.21679310E+03 0.27518734E+03 0.80419002E+02 0.0000E+00 0.9000E+01
      -11  1    4    4    0    0 -.62835667E+02 0.61232471E+02 0.12803491E+03 0.15521171E+03 0.51099893E-03 0.0000E+00 0.9000E+01
       11  1    4    4    0    0 0.10727733E+02 -.68168273E+00 0.12286078E+03 0.12333013E+03 0.51099893E-03 0.0000E+00 0.9000E+01
      -24  1    3    3    0    0 -.90292706E+02 -.16012463E+02 0.37013752E+03 0.38971550E+03 0.80419002E+02 0.0000E+00 0.9000E+01
#aMCatNLO 1  0  0  2  1 0.33263075D+02 0.00000000D+00  -5  7  0 0.00000000D+00 0.00000000D+00 0.00000000D+00 0.00000000D+00 0.00000000D+00
  <mgrwgt>
 0.8115254419D-03    4    2    0
 0.216872613107691D+03 0.000000000000000D+00 0.000000000000000D+00 0.216872613107691D+03
 0.216872613107691D+03 0.000000000000000D+00 0.000000000000000D+00 -.216872613107691D+03
 0.179803848088066D+03 0.142400640561419D+03 -.445383263063708D+02 -.600050238765933D+02
 0.902895105133372D+02 -.628356670047182D+02 0.612324715321836D+02 -.213180461316349D+02
 0.309378778515432D+02 0.107277326386412D+02 -.681682602587525D+00 0.290104006732098D+02
 0.132713989762436D+03 -.902927061953418D+02 -.160124626232253D+02 0.523126693350184D+02
 0.000000000000000D+00 -.000000000000000D+00 0.000000000000000D+00 0.000000000000000D+00
 0.371452554089345D+03 0.000000000000000D+00 0.000000000000000D+00 0.371452554089345D+03
 0.219306217726758D+03 0.000000000000000D+00 0.000000000000000D+00 -.219306217726758D+03
 0.188058796324459D+03 0.148377676733111D+03 -.572918587365410D+02 -.600050238765933D+02
 0.842577088009458D+02 -.599996219227939D+02 0.551810453927456D+02 -.213180461316349D+02
 0.314251749041261D+02 0.117410081852602D+02 -.284376464012089D+01 0.290104006732098D+02
 0.131277116639089D+03 -.860033758816130D+02 -.251648437848003D+02 0.523126693350184D+02
 0.155739975147483D+03 -.141156871139646D+02 0.301194217687166D+02 0.152146336362587D+03
0.469709404930D-05 0.000000000000D+00 0.000000000000D+00 0.453231252413D-07 0.000000000000D+00  7 1 -1 24 -11 11 -24 21 0 0.13702084D+00 0.81244893D-02 0.38015387D+05 0.38015387D+05 0.38015387D+05 0.11579130D+01  1  2  2  2  7  2       -1 0.826045572651D-03 0.100000000000D+01
-.257355292739D-06 0.000000000000D+00 -.180380779226D-07 0.453231252413D-07 0.000000000000D+00  7 1 -1 24 -11 11 -24 21 2 0.13702084D+00 0.81244893D-02 0.38015387D+05 0.38015387D+05 0.38015387D+05 0.11579130D+01  1  2  3  2  7  2       -1 -.606819752646D-04 0.100000000000D+01
0.287698525265D-06 0.000000000000D+00 0.000000000000D+00 0.453231252413D-07 0.000000000000D+00  7 1 -1 24 -11 11 -24 21 2 0.13702084D+00 0.81244893D-02 0.38015387D+05 0.38015387D+05 0.38015387D+05 0.11579130D+01  1  2 15  2  7  2       -1 0.678366261986D-04 0.100000000000D+01
-.919238335518D-07 0.000000000000D+00 0.000000000000D+00 0.453231252413D-07 0.000000000000D+00  7 1 -1 24 -11 11 -24 21 2 0.13702084D+00 0.81244893D-02 0.38015387D+05 0.38015387D+05 0.38015387D+05 0.11579130D+01  1  2  4  2  7  2       -1 -.216747817169D-04 0.100000000000D+01
  </mgrwgt>
  </event>
  <event>
  8     66 0.27727860E-05 0.12305193E+03 0.75467711E-02 0.10144448E+00
        1 -1    0    0  501    0 0.00000000E+00 0.00000000E+00 0.25197169E+03 0.25197189E+03 0.32000000E+00 0.0000E+00 0.9000E+01
       -1 -1    0    0    0  501 0.00000000E+00 0.00000000E+00 -.40706193E+03 0.40706205E+03 0.32000000E+00 0.0000E+00 0.9000E+01
       25  2    1    2    0    0 0.95394160E+02 0.11027801E+03 0.10266662E+03 0.34906285E+03 0.30007192E+03 0.0000E+00 0.0000E+00
       23  2    1    2    0    0 -.95394160E+02 -.11027801E+03 -.25775686E+03 0.30997109E+03 0.91554313E+02 0.0000E+00 0.0000E+00
       24  1    3    3    0    0 0.17968888E+02 -.78202844E+02 0.47709029E+02 0.12321499E+03 0.80419002E+02 0.0000E+00 0.9000E+01
      -13  1    4    4    0    0 0.35002359E+00 -.65593085E+02 -.11461274E+03 0.13205554E+03 0.10565837E+00 0.0000E+00 0.9000E+01
       13  1    4    4    0    0 -.95744184E+02 -.44684927E+02 -.14314412E+03 0.17791555E+03 0.10565837E+00 0.0000E+00 0.9000E+01
      -24  1    3    3    0    0 0.77425272E+02 0.18848086E+03 0.54957591E+02 0.22584787E+03 0.80419002E+02 0.0000E+00 0.9000E+01
#aMCatNLO 1  0  0  2  1 0.69982754D+02 0.00000000D+00  -5  7  0 0.00000000D+00 0.00000000D+00 0.00000000D+00 0.00000000D+00 0.00000000D+00
  <mgrwgt>
 0.4927205047D-03    9    2    0
 0.320262688275325D+03 0.000000000000000D+00 0.000000000000000D+00 0.320262688275325D+03
 0.320262688275325D+03 0.000000000000000D+00 0.000000000000000D+00 -.320262688275325D+03
 0.138327172306719D+03 0.179688879922967D+02 -.782028442280350D+02 0.789216374828099D+02
 0.108120203857628D+03 0.350150531159890D+00 -.655931123414390D+02 -.859499824908879D+02
 0.148397185118338D+03 -.957443108742922D+02 -.446848999141049D+02 -.104201781203200D+03
 0.245680815267965D+03 0.774252723508357D+02 0.188480856483579D+03 0.111230126211278D+03
 0.000000000000000D+00 -.000000000000000D+00 -.000000000000000D+00 -.000000000000000D+00
 0.355390467227920D+03 0.000000000000000D+00 0.000000000000000D+00 0.355390467227920D+03
 0.359023668201347D+03 0.000000000000000D+00 0.000000000000000D+00 -.359023668201347D+03
 0.131392402411657D+03 0.217264244441783D+02 -.640006646452954D+02 0.789216374828099D+02
 0.101845200237329D+03 0.327523544701976D+01 -.545373097426374D+02 -.859499824908879D+02
 0.141884876939726D+03 -.917003128417081D+02 -.293999952893620D+02 -.104201781203200D+03
 0.269214655624885D+03 0.845984206208816D+02 0.215592859576402D+03 0.111230126211278D+03
 0.700770002156692D+02 -.178997676703716D+02 -.676548898991072D+02 -.363320097342697D+01
0.828069165950D-05 0.000000000000D+00 0.000000000000D+00 0.159926430012D-05 0.000000000000D+00  7 1 -1 24 -13 13 -24 21 0 0.38764900D-01 0.62624937D-01 0.63482661D+05 0.63482661D+05 0.63482661D+05 0.11382855D+01  1  2  2  2  7  2       -1 0.299946363497D-03 0.100000000000D+01
-.427852533052D-06 0.000000000000D+00 -.318000363287D-07 0.159926430012D-05 0.000000000000D+00  7 1 -1 24 -13 13 -24 21 2 0.38764900D-01 0.62624937D-01 0.63482661D+05 0.63482661D+05 0.63482661D+05 0.11382855D+01  1  2  3  2  7  2       -1 -.200804511080D-04 0.100000000000D+01
0.513979221040D-06 0.000000000000D+00 0.000000000000D+00 0.159926430012D-05 0.000000000000D+00  7 1 -1 24 -13 13 -24 21 2 0.38764900D-01 0.62624937D-01 0.63482661D+05 0.63482661D+05 0.63482661D+05 0.11382855D+01  1  2 15  2  7  2       -1 0.241226446528D-04 0.100000000000D+01
0.672858863320D-05 0.000000000000D+00 0.000000000000D+00 0.159926430012D-05 0.000000000000D+00  7 1 -1 24 -13 13 -24 21 2 0.38764900D-01 0.73257885D-01 0.81546661D+05 0.81546661D+05 0.81546661D+05 0.11290655D+01  1  2 12  2  7  2       -1 0.229376366916D-03 0.100000000000D+01
-.586303677095D-05 0.000000000000D+00 0.000000000000D+00 0.159926430012D-05 0.000000000000D+00  7 1 -1 24 -13 13 -24 21 2 0.38764900D-01 0.62624937D-01 0.63482661D+05 0.63482661D+05 0.63482661D+05 0.11382855D+01  1  2  4  2  7  2       -1 -.275170564922D-03 0.100000000000D+01
-.169123718900D-04 0.000000000000D+00 -.558130181251D-05 0.159926430012D-05 0.000000000000D+00  7 1 -1 24 -13 13 -24 21 2 0.38764900D-01 0.76806996D-01 0.63482661D+05 0.63482661D+05 0.63482661D+05 0.11382855D+01  1  2  5  2  7  2       -1 -.536241573058D-03 0.100000000000D+01
0.177939700038D-04 0.000000000000D+00 0.546700092103D-05 0.159926430012D-05 0.000000000000D+00  7 1 -1 24 -13 13 -24 21 2 0.38764900D-01 0.62624937D-01 0.63482661D+05 0.63482661D+05 0.63482661D+05 0.11382855D+01  1  2  6  2  7  2       -1 0.835126397706D-03 0.100000000000D+01
0.159089527211D-06 0.000000000000D+00 0.000000000000D+00 0.159926430012D-05 0.000000000000D+00  7 1 21 24 -13 13 -24 1 2 0.38764900D-01 0.73257885D-01 0.81546661D+05 0.81546661D+05 0.81546661D+05 0.11290655D+01  1  2 12  4  7  2       -1 0.440676787211D-04 0.100000000000D+01
-.425040130455D-06 0.000000000000D+00 -.162239124676D-06 0.159926430012D-05 0.000000000000D+00  7 1 21 24 -13 13 -24 1 2 0.38764900D-01 0.76806996D-01 0.63482661D+05 0.63482661D+05 0.63482661D+05 0.11382855D+01  1  2  5  4  7  2       -1 -.108426357704D-03 0.100000000000D+01
  </mgrwgt>
  </event>
  <event>
  8     66 0.27727860E-05 0.10020135E+03 0.75467711E-02 0.10880461E+00
        1 -1    0    0  501    0 0.00000000E+00 0.00000000E+00 0.91064828E+03 0.91064833E+03 0.32000000E+00 0.0000E+00 0.9000E+01
       -1 -1    0    0    0  501 0.00000000E+00 0.00000000E+00 -.11480977E+03 0.11481022E+03 0.32000000E+00 0.0000E+00 0.9000E+01
       25  2    1    2    0    0 0.18934825E+02 0.25590902E+02 0.93534982E+02 0.31664157E+03 0.30083163E+03 0.0000E+00 0.0000E+00
       23  2    1    2    0    0 -.18934825E+02 -.25590902E+02 0.70230352E+03 0.70881698E+03 0.90431479E+02 0.0000E+00 0.0000E+00
       24  1    3    3    0    0 -.18366675E+02 -.10419821E+03 0.87956623E+02 0.15936808E+03 0.80419002E+02 0.0000E+00 0.9000E+01
      -11  1    4    4    0    0 -.13627487E+02 -.45762134E+01 0.66854395E+03 0.66869849E+03 0.51099893E-03 0.0000E+00 0.9000E+01
       11  1    4    4    0    0 -.53073373E+01 -.21014688E+02 0.33759570E+02 0.40118493E+02 0.51099893E-03 0.0000E+00 0.9000E+01
      -24  1    3    3    0    0 0.37301500E+02 0.12978911E+03 0.55783592E+01 0.15727349E+03 0.80419002E+02 0.0000E+00 0.9000E+01
#aMCatNLO 1  0  0  1  2 0.13629064D+02 0.00000000D+00  -5  7  0 0.00000000D+00 0.00000000D+00 0.00000000D+00 0.00000000D+00 0.00000000D+00
  <mgrwgt>
 0.8587026798D-03    9    2    0
 0.323344363742531D+03 0.000000000000000D+00 0.000000000000000D+00 0.323344363742531D+03
 0.323344363742531D+03 0.000000000000000D+00 0.000000000000000D+00 -.323344363742531D+03
 0.144468413271646D+03 -.183666748594175D+02 -.104198210997178D+03 -.566507242535571D+02
 0.237625235091003D+03 -.136274873870980D+02 -.457621343098679D+01 0.237190012880397D+03
 0.220704115548202D+02 -.530733734004624D+01 -.210146882246198D+02 0.416150398054813D+01
 0.242524667567593D+03 0.373014995865618D+02 0.129789112652784D+03 -.184700792607388D+03
 0.000000000000000D+00 -.000000000000000D+00 -.000000000000000D+00 0.000000000000000D+00
 0.330373713597512D+03 0.000000000000000D+00 0.000000000000000D+00 0.330373713597512D+03
 0.330090618827240D+03 0.000000000000000D+00 0.000000000000000D+00 -.330090618827240D+03
 0.142416667025215D+03 -.168167899379686D+02 -.101603061518491D+03 -.566507242535571D+02
 0.237447939422370D+03 -.110609239778010D+02 -.278722951869480D+00 0.237190012880397D+03
 0.216377226639122D+02 -.507120593125990D+01 -.206193064166333D+02 0.416150398054813D+01
 0.245329999730589D+03 0.399371144882553D+02 0.134202223938334D+03 -.184700792607388D+03
 0.136320035826648D+02 -.698819464122588D+01 -.117011330513405D+02 0.283094770272584D+00
0.581091706376D-05 0.000000000000D+00 0.000000000000D+00 0.789884061510D-06 0.000000000000D+00  7 1 -1 24 -11 11 -24 21 0 0.14009977D+00 0.17663080D-01 0.26588915D+05 0.26588915D+05 0.26588915D+05 0.11722311D+01  1  2  2  1  7  1        1 0.300669487435D-03 0.100000000000D+01
-.138870731919D-06 0.000000000000D+00 -.223154515744D-07 0.789884061510D-06 0.000000000000D+00  7 1 -1 24 -11 11 -24 21 2 0.14009977D+00 0.17663080D-01 0.26588915D+05 0.26588915D+05 0.26588915D+05 0.11722311D+01  1  2  3  1  7  1        1 -.987374369109D-05 0.100000000000D+01
0.361062936435D-06 0.000000000000D+00 0.000000000000D+00 0.789884061510D-06 0.000000000000D+00  7 1 -1 24 -11 11 -24 21 2 0.14009977D+00 0.17663080D-01 0.26588915D+05 0.26588915D+05 0.26588915D+05 0.11722311D+01  1  2 15  1  7  1        1 0.256716648745D-04 0.100000000000D+01
0.855314462545D-05 0.000000000000D+00 0.000000000000D+00 0.789884061510D-06 0.000000000000D+00  7 1 -1 24 -11 11 -24 21 2 0.14457615D+00 0.17663080D-01 0.28571363D+05 0.28571363D+05 0.28571363D+05 0.11693071D+01  1  2 12  1  7  1        1 0.574346901356D-03 0.100000000000D+01
-.660839203356D-05 0.000000000000D+00 0.000000000000D+00 0.789884061510D-06 0.000000000000D+00  7 1 -1 24 -11 11 -24 21 2 0.14009977D+00 0.17663080D-01 0.26588915D+05 0.26588915D+05 0.26588915D+05 0.11722311D+01  1  2  4  1  7  1        1 -.469858322540D-03 0.100000000000D+01
-.107759159200D-03 0.000000000000D+00 -.193942493141D-04 0.789884061510D-06 0.000000000000D+00  7 1 -1 24 -11 11 -24 21 2 0.14536730D+00 0.17663080D-01 0.26588915D+05 0.26588915D+05 0.26588915D+05 0.11722311D+01  1  2  5  1  7  1        1 -.721264104902D-02 0.100000000000D+01
0.108414327814D-03 0.000000000000D+00 0.193810467968D-04 0.789884061510D-06 0.000000000000D+00  7 1 -1 24 -11 11 -24 21 2 0.14009977D+00 0.17663080D-01 0.26588915D+05 0.26588915D+05 0.26588915D+05 0.11722311D+01  1  2  6  1  7  1        1 0.770828575959D-02 0.100000000000D+01
0.145558112020D-06 0.000000000000D+00 0.000000000000D+00 0.789884061510D-06 0.000000000000D+00  7 21 -1 24 -11 11 -24 -1 2 0.14457615D+00 0.17663080D-01 0.28571363D+05 0.28571363D+05 0.28571363D+05 0.11693071D+01  1  2 12  3  7  1        1 0.154263566890D-04 0.100000000000D+01
-.696672415868D-06 0.000000000000D+00 -.127087494814D-06 0.789884061510D-06 0.000000000000D+00  7 21 -1 24 -11 11 -24 -1 2 0.14536730D+00 0.17663080D-01 0.26588915D+05 0.26588915D+05 0.26588915D+05 0.11722311D+01  1  2  5  3  7  1        1 -.733243748544D-04 0.100000000000D+01
  </mgrwgt>
  </event>
  <event>
  8     66 0.27727860E-05 0.21487621E+03 0.75467711E-02 0.92383327E-01
        1 -1    0    0  501    0 0.00000000E+00 0.00000000E+00 0.14284356E+04 0.14284357E+04 0.32000000E+00 0.0000E+00 0.9000E+01
       -1 -1    0    0    0  501 0.00000000E+00 0.00000000E+00 -.16257538E+03 0.16257569E+03 0.32000000E+00 0.0000E+00 0.9000E+01
       25  2    1    2    0    0 0.37648475E+03 0.59332566E+02 0.10192063E+04 0.11277449E+04 0.29625320E+03 0.0000E+00 0.0000E+00
       23  2    1    2    0    0 -.37648475E+03 -.59332566E+02 0.24665396E+03 0.46326647E+03 0.92284998E+02 0.0000E+00 0.0000E+00
       24  1    3    3    0    0 0.16820268E+03 0.14402222E+03 0.61070286E+03 0.65456836E+03 0.80419002E+02 0.0000E+00 0.9000E+01
      -11  1    4    4    0    0 -.78154354E+01 -.19806516E+02 0.11447917E+02 0.24175068E+02 0.51099893E-03 0.0000E+00 0.9000E+01
       11  1    4    4    0    0 -.36866932E+03 -.39526050E+02 0.23520604E+03 0.43909140E+03 0.51099893E-03 0.0000E+00 0.9000E+01
      -24  1    3    3    0    0 0.20828208E+03 -.84689656E+02 0.40850344E+03 0.47317654E+03 0.80419002E+02 0.0000E+00 0.9000E+01
#aMCatNLO 1  0  0  1  2 0.30277590D+03 0.00000000D+00  -5  7  0 0.00000000D+00 0.00000000D+00 0.00000000D+00 0.00000000D+00 0.00000000D+00
  <mgrwgt>
 0.1671492276D-02    7    2    0
 0.481901177786824D+03 0.000000000000000D+00 0.000000000000000D+00 0.481901177786824D+03
 0.481901177786824D+03 0.000000000000000D+00 0.000000000000000D+00 -.481901177786824D+03
 0.278440100162252D+03 0.168202676393647D+03 0.144022222226540D+03 0.148415405477119D+03
 0.248716389175925D+02 -.781543537138041D+01 -.198065155264835D+02 -.128537673505493D+02
 0.415916629968687D+03 -.368669317790197D+03 -.395260502871526D+02 -.188433724564681D+03
 0.244573986525116D+03 0.208282076767931D+03 -.846896564129039D+02 0.528720864381113D+02
 0.000000000000000D+00 0.000000000000000D+00 -.000000000000000D+00 0.000000000000000D+00
 0.103977283624449D+04 0.000000000000000D+00 0.000000000000000D+00 0.103977283624449D+04
 0.547986681975067D+03 0.000000000000000D+00 0.000000000000000D+00 -.547986681975067D+03
 0.323607203564436D+03 0.146779740984565D+03 0.233843925082500D+03 0.148415405477119D+03
 0.205872408997499D+02 -.943302030211244D+01 -.130243341765413D+02 -.128537673505493D+02
 0.450747870829607D+03 -.399508252716105D+03 0.897748880023292D+02 -.188433724564681D+03
 0.215299352276986D+03 0.191918185139261D+03 -.160794224104066D+02 0.528720864381113D+02
 0.577517850648783D+03 0.702433468943920D+02 -.294515056497881D+03 0.491786154269428D+03
0.142619363103D-03 0.000000000000D+00 0.000000000000D+00 0.704408090603D-07 0.000000000000D+00  7 1 -1 24 -11 11 -24 21 0 0.21975936D+00 0.25011624D-01 0.18768545D+06 0.18768545D+06 0.18768545D+06 0.10999514D+01  1  2  2  1  7  1        1 0.173838097999D-02 0.100000000000D+01
-.781407725291D-05 0.000000000000D+00 -.547695906855D-06 0.704408090603D-07 0.000000000000D+00  7 1 -1 24 -11 11 -24 21 2 0.21975936D+00 0.25011624D-01 0.18768545D+06 0.18768545D+06 0.18768545D+06 0.10999514D+01  1  2  3  1  7  1        1 -.115236792704D-03 0.100000000000D+01
0.859626597721D-05 0.000000000000D+00 0.000000000000D+00 0.704408090603D-07 0.000000000000D+00  7 1 -1 24 -11 11 -24 21 2 0.21975936D+00 0.25011624D-01 0.18768545D+06 0.18768545D+06 0.18768545D+06 0.10999514D+01  1  2 15  1  7  1        1 0.126771989626D-03 0.100000000000D+01
0.289081804395D-04 0.000000000000D+00 0.000000000000D+00 0.704408090603D-07 0.000000000000D+00  7 1 -1 24 -11 11 -24 21 2 0.47255448D+00 0.25011624D-01 0.37491199D+06 0.37491199D+06 0.37491199D+06 0.10774614D+01  1  2 12  1  7  1        1 0.292746004976D-04 0.100000000000D+01
-.115094378316D-03 0.000000000000D+00 -.379987675689D-04 0.704408090603D-07 0.000000000000D+00  7 1 -1 24 -11 11 -24 21 2 0.48793611D+00 0.25011624D-01 0.18768545D+06 0.18768545D+06 0.18768545D+06 0.10999514D+01  1  2  5  1  7  1        1 -.106847521571D-03 0.100000000000D+01
0.239567067418D-05 0.000000000000D+00 0.000000000000D+00 0.704408090603D-07 0.000000000000D+00  7 21 -1 24 -11 11 -24 -1 2 0.47255448D+00 0.25011624D-01 0.37491199D+06 0.37491199D+06 0.37491199D+06 0.10774614D+01  1  2 12  3  7  1        1 0.495687809852D-06 0.100000000000D+01
-.755985411880D-05 0.000000000000D+00 -.328756111322D-05 0.704408090603D-07 0.000000000000D+00  7 21 -1 24 -11 11 -24 -1 2 0.48793611D+00 0.25011624D-01 0.18768545D+06 0.18768545D+06 0.18768545D+06 0.10999514D+01  1  2  5  3  7  1        1 -.134666814009D-05 0.100000000000D+01
  </mgrwgt>
  </event>
  <event>
  8     66 0.27727860E-05 0.11410355E+03 0.75467711E-02 0.10417885E+00
        1 -1    0    0  501    0 0.00000000E+00 0.00000000E+00 0.51993356E+03 0.51993366E+03 0.32000000E+00 0.0000E+00 0.9000E+01
       -1 -1    0    0    0  501 0.00000000E+00 0.00000000E+00 -.10706520E+03 0.10706567E+03 0.32000000E+00 0.0000E+00 0.9000E+01
       25  2    1    2    0    0 -.41035492E+02 -.60198330E+02 0.15526269E+03 0.34440373E+03 0.29866315E+03 0.0000E+00 0.0000E+00
       23  2    1    2    0    0 0.41035492E+02 0.60198330E+02 0.25760567E+03 0.28259560E+03 0.90508795E+02 0.0000E+00 0.0000E+00
       24  1    3    3    0    0 -.12471716E+02 -.15753203E+03 0.78541362E+02 0.19392743E+03 0.80419002E+02 0.0000E+00 0.9000E+01
      -11  1    4    4    0    0 0.18331547E+02 0.75037037E+02 0.12269181E+03 0.14498236E+03 0.51099893E-03 0.0000E+00 0.9000E+01
       11  1    4    4    0    0 0.22703946E+02 -.14838708E+02 0.13491386E+03 0.13761325E+03 0.51099893E-03 0.0000E+00 0.9000E+01
      -24  1    3    3    0    0 -.28563777E+02 0.97333705E+02 0.76721330E+02 0.15047630E+03 0.80419002E+02 0.0000E+00 0.9000E+01
#aMCatNLO 1  0  0  1  2 0.49625836D+02 0.00000000D+00  -5  7  0 0.00000000D+00 0.00000000D+00 0.00000000D+00 0.00000000D+00 0.00000000D+00
  <mgrwgt>
 0.6704542184D-03    9    2    0
 0.235938486828398D+03 0.000000000000000D+00 0.000000000000000D+00 0.235938486828398D+03
 0.235938486828398D+03 0.000000000000000D+00 0.000000000000000D+00 -.235938486828398D+03
 0.188958413096030D+03 -.124717156829894D+02 -.157532034734873D+03 -.653160031356243D+02
 0.852939955651624D+02 0.183315465415020D+02 0.750370374700976D+02 0.361726842877034D+02
 0.648087351306439D+02 0.227039456797526D+02 -.148387074877907D+02 0.588601372738510D+02
 0.132815829864959D+03 -.285637765382652D+02 0.973337047525659D+02 -.297168184259301D+02
 0.000000000000000D+00 -.000000000000000D+00 0.000000000000000D+00 0.000000000000000D+00
 0.272004303256643D+03 0.000000000000000D+00 0.000000000000000D+00 0.272004303256643D+03
 0.254949614665547D+03 0.000000000000000D+00 0.000000000000000D+00 -.254949614665547D+03
 0.206390080378084D+03 -.106633055544097D+02 -.178184631697410D+03 -.653160031356243D+02
 0.780712129358748D+02 0.190788145913046D+02 0.665030077101139D+02 0.361726842877034D+02
 0.669290150564933D+02 0.233065428457649D+02 -.217205514919453D+02 0.588601372738510D+02
 0.123088987134038D+03 -.273932121611339D+02 0.839655014243844D+02 -.297168184259301D+02
 0.524746224176996D+02 -.432883972152584D+01 0.494366740548573D+02 0.170546885910966D+02
0.313329434598D-05 0.000000000000D+00 0.000000000000D+00 0.881559235759D-07 0.000000000000D+00  7 1 -1 24 -11 11 -24 21 0 0.79989823D-01 0.16471613D-01 0.42256184D+05 0.42256184D+05 0.42256184D+05 0.11537795D+01  1  2  2  1  7  1        1 0.413480877295D-03 0.100000000000D+01
-.170051937598D-06 0.000000000000D+00 -.120326753039D-07 0.881559235759D-07 0.000000000000D+00  7 1 -1 24 -11 11 -24 21 2 0.79989823D-01 0.16471613D-01 0.42256184D+05 0.42256184D+05 0.42256184D+05 0.11537795D+01  1  2  3  1  7  1        1 -.298731780778D-04 0.100000000000D+01
0.190160596420D-06 0.000000000000D+00 0.000000000000D+00 0.881559235759D-07 0.000000000000D+00  7 1 -1 24 -11 11 -24 21 2 0.79989823D-01 0.16471613D-01 0.42256184D+05 0.42256184D+05 0.42256184D+05 0.11537795D+01  1  2 15  1  7  1        1 0.334056844072D-04 0.100000000000D+01
0.356618528252D-05 0.000000000000D+00 0.000000000000D+00 0.881559235759D-07 0.000000000000D+00  7 1 -1 24 -11 11 -24 21 2 0.95050780D-01 0.16471613D-01 0.54265784D+05 0.54265784D+05 0.54265784D+05 0.11441810D+01  1  2 12  1  7  1        1 0.484029040157D-03 0.100000000000D+01
-.345249148853D-05 0.000000000000D+00 0.000000000000D+00 0.881559235759D-07 0.000000000000D+00  7 1 -1 24 -11 11 -24 21 2 0.79989823D-01 0.16471613D-01 0.42256184D+05 0.42256184D+05 0.42256184D+05 0.11537795D+01  1  2  4  1  7  1        1 -.606502310446D-03 0.100000000000D+01
-.814724485150D-05 0.000000000000D+00 -.225199130418D-05 0.881559235759D-07 0.000000000000D+00  7 1 -1 24 -11 11 -24 21 2 0.97981568D-01 0.16471613D-01 0.42256184D+05 0.42256184D+05 0.42256184D+05 0.11537795D+01  1  2  5  1  7  1        1 -.107645500480D-02 0.100000000000D+01
0.847468407234D-05 0.000000000000D+00 0.220642676430D-05 0.881559235759D-07 0.000000000000D+00  7 1 -1 24 -11 11 -24 21 2 0.79989823D-01 0.16471613D-01 0.42256184D+05 0.42256184D+05 0.42256184D+05 0.11537795D+01  1  2  6  1  7  1        1 0.148875543567D-02 0.100000000000D+01
0.909662624375D-07 0.000000000000D+00 0.000000000000D+00 0.881559235759D-07 0.000000000000D+00  7 21 -1 24 -11 11 -24 -1 2 0.95050780D-01 0.16471613D-01 0.54265784D+05 0.54265784D+05 0.54265784D+05 0.11441810D+01  1  2 12  3  7  1        1 0.306321683629D-04 0.100000000000D+01
-.209135319703D-06 0.000000000000D+00 -.651544237746D-07 0.881559235759D-07 0.000000000000D+00  7 21 -1 24 -11 11 -24 -1 2 0.97981568D-01 0.16471613D-01 0.42256184D+05 0.42256184D+05 0.42256184D+05 0.11537795D+01  1  2  5  3  7  1        1 -.670184941449D-04 0.100000000000D+01
  </mgrwgt>
  </event>
  <event>
  8     66 0.27727860E-05 0.21745675E+03 0.75467711E-02 0.10395970E+00
        3 -1    0    0  501    0 0.00000000E+00 0.00000000E+00 0.18834325E+03 0.18834391E+03 0.50000000E+00 0.0000E+00 0.9000E+01
       -3 -1    0    0    0  501 0.00000000E+00 0.00000000E+00 -.32384476E+03 0.32384514E+03 0.50000000E+00 0.0000E+00 0.9000E+01
       25  2    1    2    0    0 -.97716270E+01 0.13174382E+03 -.53549717E+02 0.33243281E+03 0.30031996E+03 0.0000E+00 0.0000E+00
       23  2    1    2    0    0 0.97716270E+01 -.13174382E+03 -.81951793E+02 0.17975625E+03 0.90245735E+02 0.0000E+00 0.0000E+00
       24  1    3    3    0    0 -.88232841E+02 0.14473914E+03 0.32373907E+02 0.19039364E+03 0.80419002E+02 0.0000E+00 0.9000E+01
      -11  1    4    4    0    0 -.50227429E+01 -.85268904E+02 -.12080900E+01 0.85425251E+02 0.51099893E-03 0.0000E+00 0.9000E+01
       11  1    4    4    0    0 0.14794370E+02 -.46474919E+02 -.80743703E+02 0.94330998E+02 0.51099893E-03 0.0000E+00 0.9000E+01
      -24  1    3    3    0    0 0.78461214E+02 -.12995313E+02 -.85923624E+02 0.14203917E+03 0.80419002E+02 0.0000E+00 0.9000E+01
#aMCatNLO 1  0  0  1  2 0.38234190D+02 0.00000000D+00  -5  7  0 0.00000000D+00 0.00000000D+00 0.00000000D+00 0.00000000D+00 0.00000000D+00
  <mgrwgt>
 0.1640015015D-03    4    2    0
 0.246970124444564D+03 0.000000000000000D+00 0.000000000000000D+00 0.246970124444564D+03
 0.246970124444564D+03 0.000000000000000D+00 0.000000000000000D+00 -.246970124444564D+03
 0.206308863315669D+03 -.882328405828080D+02 0.144739136455215D+03 0.858002293069208D+02
 0.882499061080356D+02 -.502274293947613D+01 -.852689044719607D+02 0.221817923440078D+02
 0.756658543918120D+02 0.147943699677645D+02 -.464749194068275D+02 -.578492005496074D+02
 0.123715625073612D+03 0.784612135545196D+02 -.129953125764271D+02 -.501328211013212D+02
 0.000000000000000D+00 0.000000000000000D+00 -.000000000000000D+00 -.000000000000000D+00
 0.249939643731488D+03 0.000000000000000D+00 0.000000000000000D+00 0.249939643731488D+03
 0.411540141984458D+03 0.000000000000000D+00 0.000000000000000D+00 -.411540141984458D+03
 0.219716061090528D+03 -.997252052157134D+02 0.156528386059301D+03 0.858002293069208D+02
 0.840589920019640D+02 -.967091391053928D+01 -.805006562018503D+02 0.221817923440078D+02
 0.725168101116583D+02 0.107970235328746D+02 -.423743085769215D+02 -.578492005496074D+02
 0.119125963236665D+03 0.719103665946017D+02 -.627523603904389D+01 -.501328211013212D+02
 0.166061959275131D+03 0.266887289987764D+02 -.273781852414855D+02 -.161600498252970D+03
0.876926767905D-05 0.000000000000D+00 0.000000000000D+00 0.469656307752D-06 0.000000000000D+00  7 3 -3 24 -11 11 -24 21 0 0.28975965D-01 0.49822351D-01 0.47287437D+05 0.47287437D+05 0.47287437D+05 0.11494323D+01  1  2  2  1  7  1        3 0.167484285980D-03 0.100000000000D+01
-.477587383348D-06 0.000000000000D+00 -.336762968888D-07 0.469656307752D-06 0.000000000000D+00  7 3 -3 24 -11 11 -24 21 2 0.28975965D-01 0.49822351D-01 0.47287437D+05 0.47287437D+05 0.47287437D+05 0.11494323D+01  1  2  3  1  7  1        3 -.120512013680D-04 0.100000000000D+01
0.566335601803D-06 0.000000000000D+00 0.000000000000D+00 0.469656307752D-06 0.000000000000D+00  7 3 -3 24 -11 11 -24 21 2 0.28975965D-01 0.49822351D-01 0.47287437D+05 0.47287437D+05 0.47287437D+05 0.11494323D+01  1  2 15  1  7  1        3 0.142906295626D-04 0.100000000000D+01
-.226770469704D-06 0.000000000000D+00 0.000000000000D+00 0.469656307752D-06 0.000000000000D+00  7 3 -3 24 -11 11 -24 21 2 0.28975965D-01 0.49822351D-01 0.47287437D+05 0.47287437D+05 0.47287437D+05 0.11494323D+01  1  2  4  1  7  1        3 -.572221270915D-05 0.100000000000D+01
  </mgrwgt>
  </event>
  <event>
  8     66 0.27727860E-05 0.20666092E+03 0.75467711E-02 0.89896536E-01
        1 -1    0    0  501    0 0.00000000E+00 0.00000000E+00 0.45070606E+03 0.45070617E+03 0.32000000E+00 0.0000E+00 0.9000E+01
       -1 -1    0    0    0  501 0.00000000E+00 0.00000000E+00 -.73172725E+03 0.73172732E+03 0.32000000E+00 0.0000E+00 0.9000E+01
       25  2    1    2    0    0 -.12430806E+03 -.75441785E+02 -.67537413E+03 0.75334073E+03 0.30041319E+03 0.0000E+00 0.0000E+00
       23  2    1    2    0    0 0.12430806E+03 0.75441785E+02 0.39435294E+03 0.42909276E+03 0.86385142E+02 0.0000E+00 0.0000E+00
       24  1    3    3    0    0 -.15484276E+02 -.87097592E+02 -.56733547E+03 0.57979523E+03 0.80419002E+02 0.0000E+00 0.9000E+01
      -11  1    4    4    0    0 0.50247355E+02 0.66509182E+02 0.13010566E+03 0.15451780E+03 0.51099893E-03 0.0000E+00 0.9000E+01
       11  1    4    4    0    0 0.74060705E+02 0.89326027E+01 0.26424728E+03 0.27457495E+03 0.51099893E-03 0.0000E+00 0.9000E+01
      -24  1    3    3    0    0 -.10882378E+03 0.11655807E+02 -.10803866E+03 0.17354550E+03 0.80419002E+02 0.0000E+00 0.9000E+01
#aMCatNLO 1  0  0  1  2 0.69972213D+03 0.00000000D+00  -5  7  0 0.00000000D+00 0.00000000D+00 0.00000000D+00 0.00000000D+00 0.00000000D+00
  <mgrwgt>
 0.9547877271D-03    5    2    0
 0.574276945593636D+03 0.000000000000000D+00 0.000000000000000D+00 0.574276945593636D+03
 0.574276945593636D+03 0.000000000000000D+00 0.000000000000000D+00 -.574276945593636D+03
 0.458085604124912D+03 -.154842761410110D+02 -.870975922637197D+02 -.442209736851606D+03
 0.190909169364433D+03 0.502473545002833D+02 0.665091823101391D+02 0.171749943177799D+03
 0.347328679183150D+03 0.740607054577714D+02 0.893260265851368D+01 0.339223277355717D+03
 0.152230438514777D+03 -.108823783817044D+03 0.116558072950669D+02 -.687634836819098D+02
 0.000000000000000D+00 -.000000000000000D+00 -.000000000000000D+00 0.000000000000000D+00
 0.122014928813812D+04 0.000000000000000D+00 0.000000000000000D+00 0.122014928813812D+04
 0.895943486265579D+03 0.000000000000000D+00 0.000000000000000D+00 -.895943486265579D+03
 0.512361499615461D+03 0.245752509887204D+03 -.101657686185443D+02 -.442209736851606D+03
 0.264358359168360D+03 0.172801819837463D+03 0.102600341819468D+03 0.171749943177799D+03
 0.451527078820736D+03 0.289106440476937D+03 0.722615878817307D+02 0.339223277355717D+03
 0.116664622447694D+03 -.364393321205504D+02 0.329723605922962D+02 -.687634836819098D+02
 0.771181214351448D+03 -.671221438081053D+03 -.197668521674950D+03 0.324205801872541D+03
0.145737736289D-03 0.000000000000D+00 0.000000000000D+00 0.478867999049D-06 0.000000000000D+00  7 1 -1 24 -11 11 -24 21 0 0.69339408D-01 0.11257344D+00 0.42708735D+05 0.42708735D+05 0.42708735D+05 0.11533656D+01  1  2  2  1  7  1        1 0.746165079208D-03 0.100000000000D+01
0.218623404769D-05 0.000000000000D+00 -.559671280978D-06 0.478867999049D-06 0.000000000000D+00  7 1 -1 24 -11 11 -24 21 2 0.69339408D-01 0.11257344D+00 0.42708735D+05 0.42708735D+05 0.42708735D+05 0.11533656D+01  1  2  3  1  7  1        1 0.148899610460D-04 0.100000000000D+01
0.877578660670D-05 0.000000000000D+00 0.000000000000D+00 0.478867999049D-06 0.000000000000D+00  7 1 -1 24 -11 11 -24 21 2 0.69339408D-01 0.11257344D+00 0.42708735D+05 0.42708735D+05 0.42708735D+05 0.11533656D+01  1  2 15  1  7  1        1 0.597699596069D-04 0.100000000000D+01
0.917238443143D-04 0.000000000000D+00 -.472177197499D-04 0.478867999049D-06 0.000000000000D+00  7 1 -1 24 -11 11 -24 21 2 0.20128082D+00 0.11257344D+00 0.42708735D+05 0.42708735D+05 0.42708735D+05 0.11533656D+01  1  2  5  1  7  1        1 0.116425017679D-03 0.100000000000D+01
0.135529981157D-04 0.000000000000D+00 -.568960526442D-05 0.478867999049D-06 0.000000000000D+00  7 21 -1 24 -11 11 -24 -1 2 0.20128082D+00 0.11257344D+00 0.42708735D+05 0.42708735D+05 0.42708735D+05 0.11533656D+01  1  2  5  3  7  1        1 0.175377095318D-04 0.100000000000D+01
  </mgrwgt>
  </event>
  <event>
  8     66 0.27727860E-05 0.40461183E+03 0.75467711E-02 0.87075328E-01
        1 -1    0    0  501    0 0.00000000E+00 0.00000000E+00 0.77286821E+03 0.77286828E+03 0.32000000E+00 0.0000E+00 0.9000E+01
       -1 -1    0    0    0  501 0.00000000E+00 0.00000000E+00 -.40380660E+03 0.40380672E+03 0.32000000E+00 0.0000E+00 0.9000E+01
       25  2    1    2    0    0 -.37169261E+03 -.81040018E+02 0.56109721E+03 0.74098740E+03 0.29918116E+03 0.0000E+00 0.0000E+00
       23  2    1    2    0    0 0.37169261E+03 0.81040018E+02 -.19203560E+03 0.43568760E+03 0.90681462E+02 0.0000E+00 0.0000E+00
       24  1    3    3    0    0 -.77319108E+02 -.28402044E+02 0.18997248E+02 0.11667490E+03 0.80419002E+02 0.0000E+00 0.9000E+01
      -11  1    4    4    0    0 0.29412068E+03 0.86776794E+02 -.18367827E+03 0.35745614E+03 0.51099893E-03 0.0000E+00 0.9000E+01
       11  1    4    4    0    0 0.77571937E+02 -.57367756E+01 -.83573266E+01 0.78231457E+02 0.51099893E-03 0.0000E+00 0.9000E+01
      -24  1    3    3    0    0 -.29437351E+03 -.52637974E+02 0.54209996E+03 0.62431250E+03 0.80419002E+02 0.0000E+00 0.9000E+01
#aMCatNLO 1  0  0  1  1 0.95203356D+03 0.00000000D+00  -5  7  0 0.00000000D+00 0.00000000D+00 0.00000000D+00 0.00000000D+00 0.00000000D+00
  <mgrwgt>
 0.6804764503D-03    5    2    0
 0.558649616764567D+03 0.000000000000000D+00 0.000000000000000D+00 0.558649616764567D+03
 0.558649616764567D+03 0.000000000000000D+00 0.000000000000000D+00 -.558649616764567D+03
 0.116600170329954D+03 -.773191079948859D+02 -.284020435408496D+02 -.185327609433311D+02
 0.437123991590070D+03 0.294120676404185D+03 0.867767935039515D+02 -.311512760323478D+03
 0.851494076718438D+02 0.775719365950144D+02 -.573677559914366D+01 -.346425415564445D+02
 0.478425663937265D+03 -.294373505004314D+03 -.526379743639582D+02 0.364688062823253D+03
 0.000000000000000D+00 -.000000000000000D+00 -.000000000000000D+00 0.000000000000000D+00
 0.234068494980996D+04 0.000000000000000D+00 0.000000000000000D+00 0.234068494980996D+04
 0.874975443187655D+03 0.000000000000000D+00 0.000000000000000D+00 -.874975443187655D+03
 0.850403607296927D+02 -.351447989127210D+01 -.202195994415542D+02 -.185327609433311D+02
 0.831527057705311D+03 0.758473345951597D+03 0.138257843657014D+03 -.311512760323478D+03
 0.177025286439081D+03 0.173533327369728D+03 0.490210621464177D+01 -.346425415564445D+02
 0.374305615964295D+03 0.177438786125562D+02 -.180346830869125D+02 0.364688062823253D+03
 0.174776207215924D+04 -.946236072042609D+03 -.104905667343189D+03 0.146570950662230D+04
0.873785234967D-04 0.000000000000D+00 0.000000000000D+00 0.357334338709D-05 0.000000000000D+00  7 1 -1 24 -11 11 -24 21 0 0.11890282D+00 0.62124106D-01 0.16371073D+06 0.16371073D+06 0.16371073D+06 0.11045667D+01  1  2  2  1  7  1        1 0.669532530931D-03 0.100000000000D+01
-.424013797346D-05 0.000000000000D+00 -.335556537521D-06 0.357334338709D-05 0.000000000000D+00  7 1 -1 24 -11 11 -24 21 2 0.11890282D+00 0.62124106D-01 0.16371073D+06 0.16371073D+06 0.16371073D+06 0.11045667D+01  1  2  3  1  7  1        1 -.396397453745D-04 0.100000000000D+01
0.529795479372D-05 0.000000000000D+00 0.000000000000D+00 0.357334338709D-05 0.000000000000D+00  7 1 -1 24 -11 11 -24 21 2 0.11890282D+00 0.62124106D-01 0.16371073D+06 0.16371073D+06 0.16371073D+06 0.11045667D+01  1  2 15  1  7  1        1 0.495289493745D-04 0.100000000000D+01
0.122041205286D-04 0.000000000000D+00 -.336682972601D-04 0.357334338709D-05 0.000000000000D+00  7 1 -1 24 -11 11 -24 21 2 0.55639493D+00 0.62124106D-01 0.16371073D+06 0.16371073D+06 0.16371073D+06 0.11045667D+01  1  2  5  1  7  1        1 0.103698562509D-05 0.100000000000D+01
0.174851244436D-05 0.000000000000D+00 -.630332320444D-05 0.357334338709D-05 0.000000000000D+00  7 21 -1 24 -11 11 -24 -1 2 0.55639493D+00 0.62124106D-01 0.16371073D+06 0.16371073D+06 0.16371073D+06 0.11045667D+01  1  2  5  3  7  1        1 0.177297790913D-07 0.100000000000D+01
  </mgrwgt>
  </event>
  <event>
  8     66 0.27727860E-05 0.36878348E+03 0.75467711E-02 0.92751225E-01
        1 -1    0    0  501    0 0.00000000E+00 0.00000000E+00 0.14701397E+04 0.14701398E+04 0.32000000E+00 0.0000E+00 0.9000E+01
       -1 -1    0    0    0  501 0.00000000E+00 0.00000000E+00 -.19384881E+03 0.19384908E+03 0.32000000E+00 0.0000E+00 0.9000E+01
       25  2    1    2    0    0 0.11040293E+03 0.47386257E+03 0.64422176E+03 0.86113315E+03 0.29965662E+03 0.0000E+00 0.0000E+00
       23  2    1    2    0    0 -.11040293E+03 -.47386257E+03 0.63206915E+03 0.80285569E+03 0.91275941E+02 0.0000E+00 0.0000E+00
       24  1    3    3    0    0 -.43961165E+02 0.16266536E+03 0.35852837E+03 0.40423064E+03 0.80419002E+02 0.0000E+00 0.9000E+01
      -13  1    4    4    0    0 -.43502677E+02 -.70084115E+02 0.74185817E+02 0.11094058E+03 0.10565837E+00 0.0000E+00 0.9000E+01
       13  1    4    4    0    0 -.66900252E+02 -.40377845E+03 0.55788334E+03 0.69191510E+03 0.10565837E+00 0.0000E+00 0.9000E+01
      -24  1    3    3    0    0 0.15436409E+03 0.31119721E+03 0.28569339E+03 0.45690251E+03 0.80419002E+02 0.0000E+00 0.9000E+01
#aMCatNLO 1  0  0  2  1 0.14196454D+03 0.00000000D+00  -5  7  0 0.00000000D+00 0.00000000D+00 0.00000000D+00 0.00000000D+00 0.00000000D+00
  <mgrwgt>
 0.7354653074D-03    9    2    0
 0.533839946025524D+03 0.000000000000000D+00 0.000000000000000D+00 0.533839946025524D+03
 0.533839946025524D+03 0.000000000000000D+00 0.000000000000000D+00 -.533839946025524D+03
 0.201416900339013D+03 -.439611650048742D+02 0.162665360637888D+03 0.755575820666973D+02
 0.842206902655599D+02 -.435026456953540D+02 -.700836681072592D+02 -.169977631158751D+02
 0.411469809562391D+03 -.669002829137025D+02 -.403778898140756D+03 0.423598600518695D+02
 0.370572491884083D+03 0.154364093613931D+03 0.311197205610127D+03 -.100919679002692D+03
 0.000000000000000D+00 0.000000000000000D+00 0.000000000000000D+00 -.000000000000000D+00
 0.593745311892898D+03 0.000000000000000D+00 0.000000000000000D+00 0.593745311892898D+03
 0.629803737336263D+03 0.000000000000000D+00 0.000000000000000D+00 -.629803737336263D+03
 0.187285022413316D+03 -.566900373792892D+02 0.140305934016188D+03 0.755575820666973D+02
 0.959220154916343D+02 -.494018022895090D+02 -.804460753274029D+02 -.169977631158751D+02
 0.466149924563843D+03 -.956398103898215D+02 -.454262502410073D+03 0.423598600518695D+02
 0.327719767464825D+03 0.131497026257133D+03 0.271029113765206D+03 -.100919679002692D+03
 0.146472319295542D+03 0.702346238014862D+02 0.123373529956082D+03 -.360584254433646D+02
0.606446595052D-04 0.000000000000D+00 0.000000000000D+00 0.489805536807D-05 0.000000000000D+00  7 1 -1 24 -13 13 -24 21 0 0.22617537D+00 0.29822917D-01 0.26782945D+06 0.26782945D+06 0.26782945D+06 0.10882155D+01  1  2  2  2  7  2       -1 0.510400682934D-03 0.100000000000D+01
-.336520013033D-05 0.000000000000D+00 -.232891460606D-06 0.489805536807D-05 0.000000000000D+00  7 1 -1 24 -13 13 -24 21 2 0.22617537D+00 0.29822917D-01 0.26782945D+06 0.26782945D+06 0.26782945D+06 0.10882155D+01  1  2  3  2  7  2       -1 -.335397158255D-04 0.100000000000D+01
0.378015933509D-05 0.000000000000D+00 0.000000000000D+00 0.489805536807D-05 0.000000000000D+00  7 1 -1 24 -13 13 -24 21 2 0.22617537D+00 0.29822917D-01 0.26782945D+06 0.26782945D+06 0.26782945D+06 0.10882155D+01  1  2 15  2  7  2       -1 0.376754620717D-04 0.100000000000D+01
0.461719946344D-04 0.000000000000D+00 0.000000000000D+00 0.489805536807D-05 0.000000000000D+00  7 1 -1 24 -13 13 -24 21 2 0.22617537D+00 0.36610111D-01 0.35031659D+06 0.35031659D+06 0.35031659D+06 0.10796047D+01  1  2 12  2  7  2       -1 0.315670970454D-03 0.100000000000D+01
-.444319755584D-04 0.000000000000D+00 0.000000000000D+00 0.489805536807D-05 0.000000000000D+00  7 1 -1 24 -13 13 -24 21 2 0.22617537D+00 0.29822917D-01 0.26782945D+06 0.26782945D+06 0.26782945D+06 0.10882155D+01  1  2  4  2  7  2       -1 -.442837209106D-03 0.100000000000D+01
-.102307508241D-03 0.000000000000D+00 -.332323511163D-04 0.489805536807D-05 0.000000000000D+00  7 1 -1 24 -13 13 -24 21 2 0.22617537D+00 0.39182717D-01 0.26782945D+06 0.26782945D+06 0.26782945D+06 0.10882155D+01  1  2  5  2  7  2       -1 -.638501496618D-03 0.100000000000D+01
0.108511703709D-03 0.000000000000D+00 0.320316424902D-04 0.489805536807D-05 0.000000000000D+00  7 1 -1 24 -13 13 -24 21 2 0.22617537D+00 0.29822917D-01 0.26782945D+06 0.26782945D+06 0.26782945D+06 0.10882155D+01  1  2  6  2  7  2       -1 0.108149636432D-02 0.100000000000D+01
0.134673562693D-05 0.000000000000D+00 0.000000000000D+00 0.489805536807D-05 0.000000000000D+00  7 1 21 24 -13 13 -24 1 2 0.22617537D+00 0.36610111D-01 0.35031659D+06 0.35031659D+06 0.35031659D+06 0.10796047D+01  1  2 12  4  7  2       -1 0.914168764237D-04 0.100000000000D+01
-.305071015255D-05 0.000000000000D+00 -.119952089044D-05 0.489805536807D-05 0.000000000000D+00  7 1 21 24 -13 13 -24 1 2 0.22617537D+00 0.39182717D-01 0.26782945D+06 0.26782945D+06 0.26782945D+06 0.10882155D+01  1  2  5  4  7  2       -1 -.186316627206D-03 0.100000000000D+01
  </mgrwgt>
  </event>
  <event>
  9     66 0.27727860E-05 0.19385827E+03 0.75467711E-02 0.10418378E+00
       21 -1    0    0  501  502 0.00000000E+00 0.00000000E+00 0.21438062E+03 0.21438193E+03 0.75000000E+00 0.0000E+00 0.9000E+01
       -1 -1    0    0    0  501 0.00000000E+00 0.00000000E+00 -.37832315E+03 0.37832328E+03 0.32000000E+00 0.0000E+00 0.9000E+01
       25  2    1    2    0    0 0.67191945E+02 -.14601588E+03 -.86016207E+02 0.35119410E+03 0.30017181E+03 0.0000E+00 0.0000E+00
       23  2    1    2    0    0 -.81976733E+02 0.78195214E+02 -.11309629E+02 0.14530239E+03 0.90278454E+02 0.0000E+00 0.0000E+00
       24  1    3    3    0    0 -.32404677E+02 -.87552749E+02 0.69491056E+02 0.14146296E+03 0.80419002E+02 0.0000E+00 0.9000E+01
      -13  1    4    4    0    0 0.37771225E+01 0.37080233E+02 -.30648576E+02 0.48255121E+02 0.10565837E+00 0.0000E+00 0.9000E+01
       13  1    4    4    0    0 -.85753856E+02 0.41114981E+02 0.19338947E+02 0.97047264E+02 0.10565837E+00 0.0000E+00 0.9000E+01
      -24  1    3    3    0    0 0.99596622E+02 -.58463130E+02 -.15550726E+03 0.20973114E+03 0.80419002E+02 0.0000E+00 0.9000E+01
       -1  1    1    2    0  502 0.14784789E+02 0.67820666E+02 -.66616696E+02 0.96208728E+02 0.32000000E+00 0.0000E+00 0.9000E+01
#aMCatNLO 2  0  0  1  1 0.69413491D+02 0.00000000D+00  -5  7  0 0.00000000D+00 0.00000000D+00 0.00000000D+00 0.00000000D+00 0.00000000D+00
  <mgrwgt>
 0.6885686785D-04    1    2    0
 0.240945122510507D+03 0.000000000000000D+00 0.000000000000000D+00 0.240945122510507D+03
 0.240945122510507D+03 0.000000000000000D+00 0.000000000000000D+00 -.240945122510507D+03
 0.146469360641815D+03 -.277556292471502D+02 -.662266860250347D+02 0.991448876931516D+02
 0.488621874052167D+02 0.518047926426959D+01 0.435171394683248D+02 -.216086687491238D+02
 0.107050178785328D+03 -.825508103410046D+02 0.558085421029669D+02 0.391217473837197D+02
 0.179508518188655D+03 0.105125960323885D+03 -.330989955462570D+02 -.116657966327748D+03
 0.000000000000000D+00 0.000000000000000D+00 0.000000000000000D+00 -.000000000000000D+00
 0.261478182753902D+03 0.000000000000000D+00 0.000000000000000D+00 0.261478182753902D+03
 0.310180366638828D+03 0.000000000000000D+00 0.000000000000000D+00 -.310180366638828D+03
 0.158153317177866D+03 -.324046747356721D+02 -.875527502685076D+02 0.991448876931516D+02
 0.430830066927102D+02 0.377724365203040D+01 0.370802283025327D+02 -.216086687491238D+02
 0.102833352837089D+03 -.857539798909153D+02 0.411149883890305D+02 0.391217473837197D+02
 0.182794206651001D+03 0.995966219947406D+02 -.584631320603791D+02 -.116657966327748D+03
 0.847946660340638D+02 0.147847889798164D+02 0.678206656373235D+02 -.487021838849254D+02
0.165888052340D-06 0.000000000000D+00 0.000000000000D+00 0.533179901089D-06 0.139018335920D-10  7 21 -1 24 -13 13 -24 -1 2 0.32981708D-01 0.58203608D-01 0.54227007D+05 0.54227007D+05 0.54227007D+05 0.11442080D+01  1  2  1  3  7  1        1 0.688568678458D-04 0.100000000000D+01
  </mgrwgt>
  </event>
  <event>
  8     66 0.27727860E-05 0.15453248E+03 0.75467711E-02 0.93823509E-01
        1 -1    0    0  501    0 0.00000000E+00 0.00000000E+00 0.11942610E+04 0.11942610E+04 0.32000000E+00 0.0000E+00 0.9000E+01
       -1 -1    0    0    0  501 0.00000000E+00 0.00000000E+00 -.19787792E+03 0.19787818E+03 0.32000000E+00 0.0000E+00 0.9000E+01
       25  2    1    2    0    0 -.13455701E+03 -.34258411E+03 0.87397487E+03 0.99472045E+03 0.30027862E+03 0.0000E+00 0.0000E+00
       23  2    1    2    0    0 0.13455701E+03 0.34258411E+03 0.12240817E+03 0.39741872E+03 0.86535655E+02 0.0000E+00 0.0000E+00
       24  1    3    3    0    0 0.66924940E+02 -.13131043E+03 0.37800611E+03 0.41361481E+03 0.80419002E+02 0.0000E+00 0.9000E+01
      -11  1    4    4    0    0 0.17076939E+01 0.68855428E+02 0.48700007E+02 0.84354471E+02 0.51099893E-03 0.0000E+00 0.9000E+01
       11  1    4    4    0    0 0.13284931E+03 0.27372868E+03 0.73708164E+02 0.31306425E+03 0.51099893E-03 0.0000E+00 0.9000E+01
      -24  1    3    3    0    0 -.20148195E+03 -.21127368E+03 0.49596876E+03 0.58110565E+03 0.80419002E+02 0.0000E+00 0.9000E+01
#aMCatNLO 1  0  0  2  1 0.20137103D+03 0.00000000D+00  -5  7  0 0.00000000D+00 0.00000000D+00 0.00000000D+00 0.00000000D+00 0.00000000D+00
  <mgrwgt>
 0.1755622675D-02    8    2    0
 0.486125579955334D+03 0.000000000000000D+00 0.000000000000000D+00 0.486125579955334D+03
 0.486125579955334D+03 0.000000000000000D+00 0.000000000000000D+00 -.486125579955334D+03
 0.204854990015489D+03 0.669249397522838D+02 -.131310426532548D+03 0.117375360714542D+03
 0.708760306886791D+02 0.170769393055202D+01 0.688554277766393D+02 -.167160274383043D+02
 0.372730273542576D+03 0.132849314153884D+03 0.273728680578649D+03 -.215294045371994D+03
 0.323789865663925D+03 -.201481947836719D+03 -.211273681822740D+03 0.114634712095756D+03
 0.000000000000000D+00 -.000000000000000D+00 -.000000000000000D+00 -.000000000000000D+00
 0.520789609541431D+03 0.000000000000000D+00 0.000000000000000D+00 0.520789609541431D+03
 0.912828424753005D+03 0.000000000000000D+00 0.000000000000000D+00 -.912828424753005D+03
 0.219630637427232D+03 0.110095578697959D+03 -.125985670576516D+03 0.117375360714542D+03
 0.744771014172929D+02 0.164902617728913D+02 0.706787402891783D+02 -.167160274383043D+02
 0.414889793594009D+03 0.212951111120638D+03 0.283608601999881D+03 -.215294045371994D+03
 0.283888468388903D+03 -.139680416151070D+03 -.203650952996577D+03 0.114634712095756D+03
 0.440732033466999D+03 -.199856535440419D+03 -.246507187159672D+02 -.392038815211574D+03
0.525898740734D-04 0.000000000000D+00 0.000000000000D+00 0.296139162349D-06 0.000000000000D+00  7 1 -1 24 -11 11 -24 21 0 0.18373248D+00 0.30442780D-01 0.17802189D+06 0.17802189D+06 0.17802189D+06 0.11017295D+01  1  2  2  2  7  2       -1 0.671064434149D-03 0.100000000000D+01
-.285039751143D-05 0.000000000000D+00 -.201958963674D-06 0.296139162349D-06 0.000000000000D+00  7 1 -1 24 -11 11 -24 21 2 0.18373248D+00 0.30442780D-01 0.17802189D+06 0.17802189D+06 0.17802189D+06 0.11017295D+01  1  2  3  2  7  2       -1 -.441486549467D-04 0.100000000000D+01
0.334686733960D-05 0.000000000000D+00 0.000000000000D+00 0.296139162349D-06 0.000000000000D+00  7 1 -1 24 -11 11 -24 21 2 0.18373248D+00 0.30442780D-01 0.17802189D+06 0.17802189D+06 0.17802189D+06 0.11017295D+01  1  2 15  2  7  2       -1 0.518382754461D-04 0.100000000000D+01
0.587745225532D-04 0.000000000000D+00 0.000000000000D+00 0.296139162349D-06 0.000000000000D+00  7 1 -1 24 -11 11 -24 21 2 0.18373248D+00 0.57372917D-01 0.28834522D+06 0.28834522D+06 0.28834522D+06 0.10858273D+01  1  2 12  2  7  2       -1 0.283602778348D-03 0.100000000000D+01
-.826844550741D-04 0.000000000000D+00 -.166932100747D-04 0.296139162349D-06 0.000000000000D+00  7 1 -1 24 -11 11 -24 21 2 0.18373248D+00 0.59891676D-01 0.17802189D+06 0.17802189D+06 0.17802189D+06 0.11017295D+01  1  2  5  2  7  2       -1 -.387185904758D-03 0.100000000000D+01
0.785150234481D-04 0.000000000000D+00 0.134859222623D-04 0.296139162349D-06 0.000000000000D+00  7 1 -1 24 -11 11 -24 21 2 0.18373248D+00 0.30442780D-01 0.17802189D+06 0.17802189D+06 0.17802189D+06 0.11017295D+01  1  2  6  2  7  2       -1 0.121608746304D-02 0.100000000000D+01
0.405145977961D-05 0.000000000000D+00 0.000000000000D+00 0.296139162349D-06 0.000000000000D+00  7 1 21 24 -11 11 -24 1 2 0.18373248D+00 0.57372917D-01 0.28834522D+06 0.28834522D+06 0.28834522D+06 0.10858273D+01  1  2 12  4  7  2       -1 0.167548799329D-03 0.100000000000D+01
-.507190301129D-05 0.000000000000D+00 -.122336550211D-05 0.296139162349D-06 0.000000000000D+00  7 1 21 24 -11 11 -24 1 2 0.18373248D+00 0.59891676D-01 0.17802189D+06 0.17802189D+06 0.17802189D+06 0.11017295D+01  1  2  5  4  7  2       -1 -.203184516066D-03 0.100000000000D+01
  </mgrwgt>
  </event>
  <event>
  8     66 0.27727860E-05 0.24559878E+03 0.75467711E-02 0.94840803E-01
        1 -1    0    0  501    0 0.00000000E+00 0.00000000E+00 0.22105156E+03 0.22105180E+03 0.32000000E+00 0.0000E+00 0.9000E+01
       -1 -1    0    0    0  501 0.00000000E+00 0.00000000E+00 -.49103815E+03 0.49103826E+03 0.32000000E+00 0.0000E+00 0.9000E+01
       25  2    1    2    0    0 0.14831651E+03 -.10633625E+03 -.34401476E+03 0.49483637E+03 0.30530589E+03 0.0000E+00 0.0000E+00
       23  2    1    2    0    0 -.14831651E+03 0.10633625E+03 0.74028175E+02 0.21725369E+03 0.91726812E+02 0.0000E+00 0.0000E+00
       24  1    3    3    0    0 -.33179890E+02 -.56082838E+02 -.11254988E+02 0.10411571E+03 0.80419002E+02 0.0000E+00 0.9000E+01
      -13  1    4    4    0    0 -.21495235E+02 0.21037280E+02 0.55724374E+02 0.63323213E+02 0.10565837E+00 0.0000E+00 0.9000E+01
       13  1    4    4    0    0 -.12682128E+03 0.85298973E+02 0.18303801E+02 0.15393048E+03 0.10565837E+00 0.0000E+00 0.9000E+01
      -24  1    3    3    0    0 0.18149640E+03 -.50253415E+02 -.33275977E+03 0.39072066E+03 0.80419002E+02 0.0000E+00 0.9000E+01
#aMCatNLO 1  0  0  2  1 0.38007997D+03 0.00000000D+00  -5  7  0 0.00000000D+00 0.00000000D+00 0.00000000D+00 0.00000000D+00 0.00000000D+00
  <mgrwgt>
 0.8151169499D-03    3    2    0
 0.329461487183302D+03 0.000000000000000D+00 0.000000000000000D+00 0.329461487183302D+03
 0.329461487183302D+03 0.000000000000000D+00 0.000000000000000D+00 -.329461487183302D+03
 0.107904948214606D+03 -.331798558949277D+02 -.560828358436448D+02 0.304971241488924D+02
 0.912649894764029D+02 -.214951030109894D+02 0.210372005075422D+02 0.861666701543024D+02
 0.173850712290045D+03 -.126821429758680D+03 0.852990687288324D+02 0.828520608778931D+02
 0.285902324385549D+03 0.181496388664598D+03 -.502534333927298D+02 -.199515855181088D+03
 0.000000000000000D+00 0.000000000000000D+00 0.000000000000000D+00 0.000000000000000D+00
 0.906865217670865D+03 0.000000000000000D+00 0.000000000000000D+00 0.906865217670865D+03
 0.448933885490352D+03 0.000000000000000D+00 0.000000000000000D+00 -.448933885490352D+03
 0.155412405207733D+03 -.973149337923508D+02 -.853553092532598D+02 0.304971241488924D+02
 0.111600525894324D+03 -.709061861086316D+02 -.151496070491219D+01 0.861666701543024D+02
 0.246819052151158D+03 -.229282159220191D+03 0.385340365963569D+02 0.828520608778931D+02
 0.246852097625322D+03 0.517356801059760D+02 -.109478696936811D+03 -.199515855181088D+03
 0.595115022282679D+03 0.345767599015197D+03 0.157814930298626D+03 0.457931332180513D+03
0.267590373630D-04 0.000000000000D+00 0.000000000000D+00 0.245098583908D-07 0.000000000000D+00  7 1 -1 24 -13 13 -24 21 0 0.34007959D-01 0.75544357D-01 0.60318759D+05 0.60318759D+05 0.60318759D+05 0.11401965D+01  1  2  2  2  7  2       -1 0.801951210581D-03 0.100000000000D+01
-.133063439713D-05 0.000000000000D+00 -.102761749290D-06 0.245098583908D-07 0.000000000000D+00  7 1 -1 24 -13 13 -24 21 2 0.34007959D-01 0.75544357D-01 0.60318759D+05 0.60318759D+05 0.60318759D+05 0.11401965D+01  1  2  3  2  7  2       -1 -.518436522025D-04 0.100000000000D+01
0.166855012645D-05 0.000000000000D+00 0.000000000000D+00 0.245098583908D-07 0.000000000000D+00  7 1 -1 24 -13 13 -24 21 2 0.34007959D-01 0.75544357D-01 0.60318759D+05 0.60318759D+05 0.60318759D+05 0.11401965D+01  1  2 15  2  7  2       -1 0.650093914785D-04 0.100000000000D+01
  </mgrwgt>
  </event>
  <event>
  8     66 0.27727860E-05 0.22855583E+03 0.75467711E-02 0.95710215E-01
        1 -1    0    0  501    0 0.00000000E+00 0.00000000E+00 0.85234157E+03 0.85234163E+03 0.32000000E+00 0.0000E+00 0.9000E+01
       -1 -1    0    0    0  501 0.00000000E+00 0.00000000E+00 -.85308179E+02 0.85308779E+02 0.32000000E+00 0.0000E+00 0.9000E+01
       25  2    1    2    0    0 -.81720626E+02 0.11156550E+03 0.32664628E+03 0.46621933E+03 0.30255174E+03 0.0000E+00 0.0000E+00
       23  2    1    2    0    0 0.81720626E+02 -.11156550E+03 0.44038711E+03 0.47143108E+03 0.95819257E+02 0.0000E+00 0.0000E+00
       24  1    3    3    0    0 -.61940073E+02 0.16409101E+03 0.95837193E+02 0.21544005E+03 0.80419002E+02 0.0000E+00 0.9000E+01
      -11  1    4    4    0    0 0.21063490E+02 0.14922171E+02 0.44759296E+02 0.51669492E+02 0.51099893E-03 0.0000E+00 0.9000E+01
       11  1    4    4    0    0 0.60657136E+02 -.12648767E+03 0.39562782E+03 0.41976159E+03 0.51099893E-03 0.0000E+00 0.9000E+01
      -24  1    3    3    0    0 -.19780553E+02 -.52525508E+02 0.23080908E+03 0.25077928E+03 0.80419002E+02 0.0000E+00 0.9000E+01
#aMCatNLO 1  0  0  2  1 0.35753893D+03 0.00000000D+00  -5  7  0 0.00000000D+00 0.00000000D+00 0.00000000D+00 0.00000000D+00 0.00000000D+00
  <mgrwgt>
 0.9019370539D-03    5    2    0
 0.269651657594280D+03 0.000000000000000D+00 0.000000000000000D+00 0.269651657594280D+03
 0.269651657594280D+03 0.000000000000000D+00 0.000000000000000D+00 -.269651657594280D+03
 0.238265033199788D+03 -.619400726538496D+02 0.164091006620149D+03 -.139787621187813D+03
 0.261745941593535D+02 0.210634897659717D+02 0.149221711834196D+02 0.433215713685352D+01
 0.167122792300287D+03 0.606571359867960D+02 -.126487670233976D+03 0.908383665578876D+02
 0.107740895529132D+03 -.197805530989181D+02 -.525255075695931D+02 0.446170974930717D+02
 0.000000000000000D+00 -.000000000000000D+00 0.000000000000000D+00 -.000000000000000D+00
 0.444368916096702D+03 0.000000000000000D+00 0.000000000000000D+00 0.444368916096702D+03
 0.587996575501434D+03 0.000000000000000D+00 0.000000000000000D+00 -.587996575501434D+03
 0.169599713808544D+03 -.198786420921616D+02 0.485912288463018D+02 -.139787621187813D+03
 0.268870251850039D+02 0.265355185056799D+02 -.103901276989886D+00 0.433215713685352D+01
 0.293069132051363D+03 0.108114855275223D+03 -.256805540032242D+03 0.908383665578876D+02
 0.157500660940570D+03 0.757272857437272D+01 -.127637026898853D+03 0.446170974930717D+02
 0.385308959612656D+03 -.122344460263113D+03 0.335955239361783D+03 -.143627659404732D+03
0.873178286872D-05 0.000000000000D+00 0.000000000000D+00 0.529858034673D-08 0.000000000000D+00  7 1 -1 24 -11 11 -24 21 0 0.13112952D+00 0.13124386D-01 0.52237768D+05 0.52237768D+05 0.52237768D+05 0.11456266D+01  1  2  2  2  7  2       -1 0.793831913892D-03 0.100000000000D+01
-.468973195376D-06 0.000000000000D+00 -.335323453471D-07 0.529858034673D-08 0.000000000000D+00  7 1 -1 24 -11 11 -24 21 2 0.13112952D+00 0.13124386D-01 0.52237768D+05 0.52237768D+05 0.52237768D+05 0.11456266D+01  1  2  3  2  7  2       -1 -.559576980213D-04 0.100000000000D+01
0.541303107499D-06 0.000000000000D+00 0.000000000000D+00 0.529858034673D-08 0.000000000000D+00  7 1 -1 24 -11 11 -24 21 2 0.13112952D+00 0.13124386D-01 0.52237768D+05 0.52237768D+05 0.52237768D+05 0.11456266D+01  1  2 15  2  7  2       -1 0.645880748113D-04 0.100000000000D+01
0.237317563426D-05 0.000000000000D+00 -.299636591798D-05 0.529858034673D-08 0.000000000000D+00  7 1 -1 24 -11 11 -24 21 2 0.13112952D+00 0.46840937D-01 0.52237768D+05 0.52237768D+05 0.52237768D+05 0.11456266D+01  1  2  5  2  7  2       -1 0.355097557196D-04 0.100000000000D+01
0.441920977244D-06 0.000000000000D+00 -.447432655450D-06 0.529858034673D-08 0.000000000000D+00  7 1 21 24 -11 11 -24 1 2 0.13112952D+00 0.46840937D-01 0.52237768D+05 0.52237768D+05 0.52237768D+05 0.11456266D+01  1  2  5  4  7  2       -1 0.639650075213D-04 0.100000000000D+01
  </mgrwgt>
  </event>
  <event>
  8     66 0.27727860E-05 0.90127149E+02 0.75467711E-02 0.10567679E+00
        1 -1    0    0  501    0 0.00000000E+00 0.00000000E+00 0.14775188E+04 0.14775188E+04 0.32000000E+00 0.0000E+00 0.9000E+01
       -1 -1    0    0    0  501 0.00000000E+00 0.00000000E+00 -.47738774E+02 0.47739846E+02 0.32000000E+00 0.0000E+00 0.9000E+01
       25  2    1    2    0    0 0.47796340E+02 0.64070590E+01 0.46880594E+03 0.55856274E+03 0.29981290E+03 0.0000E+00 0.0000E+00
       23  2    1    2    0    0 -.47796340E+02 -.64070590E+01 0.96097404E+03 0.96669590E+03 0.93296970E+02 0.0000E+00 0.0000E+00
       24  1    3    3    0    0 -.36081934E+02 0.10119314E+03 0.12465938E+03 0.18316423E+03 0.80419002E+02 0.0000E+00 0.9000E+01
      -13  1    4    4    0    0 -.69351779E+02 -.18805244E+02 0.51004865E+03 0.51508538E+03 0.10565837E+00 0.0000E+00 0.9000E+01
       13  1    4    4    0    0 0.21555438E+02 0.12398185E+02 0.45092538E+03 0.45161052E+03 0.10565837E+00 0.0000E+00 0.9000E+01
      -24  1    3    3    0    0 0.83878274E+02 -.94786081E+02 0.34414656E+03 0.37539851E+03 0.80419002E+02 0.0000E+00 0.9000E+01
#aMCatNLO 1  0  0  1  2 0.37176845D+02 0.00000000D+00  -5  7  0 0.00000000D+00 0.00000000D+00 0.00000000D+00 0.00000000D+00 0.00000000D+00
  <mgrwgt>
 0.6295813388D-03    9    2    0
 0.265585726130179D+03 0.000000000000000D+00 0.000000000000000D+00 0.265585726130179D+03
 0.265585726130179D+03 0.000000000000000D+00 0.000000000000000D+00 -.265585726130179D+03
 0.190404315068785D+03 -.360819311645294D+02 0.101193139990563D+03 -.135072683784439D+03
 0.106144787194121D+03 -.693518781179397D+02 -.188052770294776D+02 0.781242241935520D+02
 0.830216789811221D+02 0.215555334983431D+02 0.123982174313994D+02 0.792101152692637D+02
 0.151600671016331D+03 0.838782757841260D+02 -.947860803924851D+02 -.222616556783770D+02
 0.000000000000000D+00 0.000000000000000D+00 0.000000000000000D+00 0.000000000000000D+00
 0.286494042377073D+03 0.000000000000000D+00 0.000000000000000D+00 0.286494042377073D+03
 0.283291369569276D+03 0.000000000000000D+00 0.000000000000000D+00 -.283291369569276D+03
 0.192405407527412D+03 -.493368895222222D+02 0.993673302396715D+02 -.135072683784439D+03
 0.111392609253190D+03 -.768842080483150D+02 -.198428209479639D+02 0.781242241935520D+02
 0.816118001790540D+02 0.158550254345704D+02 0.116129985776688D+02 0.792101152692637D+02
 0.147061054993161D+03 0.735369795536007D+02 -.962105465420597D+02 -.222616556783770D+02
 0.373145399935312D+02 0.368290925823662D+02 0.507303867268328D+01 0.320267280779661D+01
0.346932512642D-05 0.000000000000D+00 0.000000000000D+00 0.321905984782D-06 0.000000000000D+00  7 1 -1 24 -13 13 -24 21 0 0.22731066D+00 0.73445119D-02 0.36267120D+05 0.36267120D+05 0.36267120D+05 0.11597678D+01  1  2  2  1  7  1        1 0.275509217065D-03 0.100000000000D+01
-.166815831888D-06 0.000000000000D+00 -.133231219797D-07 0.321905984782D-06 0.000000000000D+00  7 1 -1 24 -13 13 -24 21 2 0.22731066D+00 0.73445119D-02 0.36267120D+05 0.36267120D+05 0.36267120D+05 0.11597678D+01  1  2  3  1  7  1        1 -.178184729909D-04 0.100000000000D+01
0.209091503271D-06 0.000000000000D+00 0.000000000000D+00 0.321905984782D-06 0.000000000000D+00  7 1 -1 24 -13 13 -24 21 2 0.22731066D+00 0.73445119D-02 0.36267120D+05 0.36267120D+05 0.36267120D+05 0.11597678D+01  1  2 15  1  7  1        1 0.223341589433D-04 0.100000000000D+01
0.470746149810D-05 0.000000000000D+00 0.000000000000D+00 0.321905984782D-06 0.000000000000D+00  7 1 -1 24 -13 13 -24 21 2 0.25224261D+00 0.73445119D-02 0.43811189D+05 0.43811189D+05 0.43811189D+05 0.11523774D+01  1  2 12  1  7  1        1 0.388723465114D-03 0.100000000000D+01
-.394844649306D-05 0.000000000000D+00 0.000000000000D+00 0.321905984782D-06 0.000000000000D+00  7 1 -1 24 -13 13 -24 21 2 0.22731066D+00 0.73445119D-02 0.36267120D+05 0.36267120D+05 0.36267120D+05 0.11597678D+01  1  2  4  1  7  1        1 -.421754256753D-03 0.100000000000D+01
-.143402852016D-04 0.000000000000D+00 -.352525327001D-05 0.321905984782D-06 0.000000000000D+00  7 1 -1 24 -13 13 -24 21 2 0.25470976D+00 0.73445119D-02 0.36267120D+05 0.36267120D+05 0.36267120D+05 0.11597678D+01  1  2  5  1  7  1        1 -.117421748460D-02 0.100000000000D+01
0.146690910084D-04 0.000000000000D+00 0.350254620802D-05 0.321905984782D-06 0.000000000000D+00  7 1 -1 24 -13 13 -24 21 2 0.22731066D+00 0.73445119D-02 0.36267120D+05 0.36267120D+05 0.36267120D+05 0.11597678D+01  1  2  6  1  7  1        1 0.156688246538D-02 0.100000000000D+01
0.791357767069D-07 0.000000000000D+00 0.000000000000D+00 0.321905984782D-06 0.000000000000D+00  7 21 -1 24 -13 13 -24 -1 2 0.25224261D+00 0.73445119D-02 0.43811189D+05 0.43811189D+05 0.43811189D+05 0.11523774D+01  1  2 12  3  7  1        1 0.488699089486D-05 0.100000000000D+01
-.245398428742D-06 0.000000000000D+00 -.639608814452D-07 0.321905984782D-06 0.000000000000D+00  7 21 -1 24 -13 13 -24 -1 2 0.25470976D+00 0.73445119D-02 0.36267120D+05 0.36267120D+05 0.36267120D+05 0.11597678D+01  1  2  5  3  7  1        1 -.149647442364D-04 0.100000000000D+01
  </mgrwgt>
  </event>
  <event>
  8     66 0.27727860E-05 0.27243681E+03 0.75467711E-02 0.90770033E-01
        1 -1    0    0  501    0 0.00000000E+00 0.00000000E+00 0.83137360E+03 0.83137366E+03 0.32000000E+00 0.0000E+00 0.9000E+01
       -1 -1    0    0    0  501 0.00000000E+00 0.00000000E+00 -.63627345E+03 0.63627353E+03 0.32000000E+00 0.0000E+00 0.9000E+01
       25  2    1    2    0    0 0.16184131E+03 0.66611402E+03 0.20690271E+03 0.77633734E+03 0.29998407E+03 0.0000E+00 0.0000E+00
       23  2    1    2    0    0 -.16184131E+03 -.66611402E+03 -.11802558E+02 0.69130984E+03 0.88710233E+02 0.0000E+00 0.0000E+00
       24  1    3    3    0    0 0.30163658E+02 0.34899639E+03 0.22358872E+03 0.42328177E+03 0.80419002E+02 0.0000E+00 0.9000E+01
      -13  1    4    4    0    0 -.78040872E+02 -.43917450E+03 0.24287041E+02 0.44671522E+03 0.10565837E+00 0.0000E+00 0.9000E+01
       13  1    4    4    0    0 -.83800438E+02 -.22693952E+03 -.36089598E+02 0.24459462E+03 0.10565837E+00 0.0000E+00 0.9000E+01
      -24  1    3    3    0    0 0.13167765E+03 0.31711763E+03 -.16686016E+02 0.35305557E+03 0.80419002E+02 0.0000E+00 0.9000E+01
#aMCatNLO 1  0  0  2  1 0.24960187D+02 0.00000000D+00  -5  7  0 0.00000000D+00 0.00000000D+00 0.00000000D+00 0.00000000D+00 0.00000000D+00
  <mgrwgt>
 0.9533333342D-03    9    2    0
 0.727310832878766D+03 0.000000000000000D+00 0.000000000000000D+00 0.727310832878766D+03
 0.727310832878766D+03 0.000000000000000D+00 0.000000000000000D+00 -.727310832878766D+03
 0.397083396117411D+03 0.301636580160098D+02 0.348996391390885D+03 0.168818482545601D+03
 0.447458162709934D+03 -.780408634716607D+02 -.439174800745574D+03 -.354108090056171D+02
 0.251625077844290D+03 -.838004465693805D+02 -.226939217820829D+03 -.692189018244851D+02
 0.358455029085898D+03 0.131677652025031D+03 0.317117627175519D+03 -.641887717154992D+02
 0.000000000000000D+00 -.000000000000000D+00 -.000000000000000D+00 -.000000000000000D+00
 0.738415186820118D+03 0.000000000000000D+00 0.000000000000000D+00 0.738415186820118D+03
 0.741580731890125D+03 0.000000000000000D+00 0.000000000000000D+00 -.741580731890125D+03
 0.403152401621420D+03 0.308212349190325D+02 0.355830035842696D+03 0.168818482545601D+03
 0.439894513780689D+03 -.773117001093814D+02 -.431597218348443D+03 -.354108090056171D+02
 0.247648188931432D+03 -.833901792838428D+02 -.222675654507266D+03 -.692189018244851D+02
 0.364140694459530D+03 0.132271429833234D+03 0.323288261219961D+03 -.641887717154992D+02
 0.251601199171709D+02 -.239078535904206D+01 -.248454242069474D+02 -.316554507000669D+01
0.147901731206D-03 0.000000000000D+00 0.000000000000D+00 0.217166168956D-05 0.000000000000D+00  7 1 -1 24 -13 13 -24 21 0 0.12790364D+00 0.97888234D-01 0.49003011D+06 0.49003011D+06 0.49003011D+06 0.10691292D+01  1  2  2  2  7  2       -1 0.381382780033D-03 0.100000000000D+01
-.820215172509D-05 0.000000000000D+00 -.567981591252D-06 0.217166168956D-05 0.000000000000D+00  7 1 -1 24 -13 13 -24 21 2 0.12790364D+00 0.97888234D-01 0.49003011D+06 0.49003011D+06 0.49003011D+06 0.10691292D+01  1  2  3  2  7  2       -1 -.241755278548D-04 0.100000000000D+01
0.923003062482D-05 0.000000000000D+00 0.000000000000D+00 0.217166168956D-05 0.000000000000D+00  7 1 -1 24 -13 13 -24 21 2 0.12790364D+00 0.97888234D-01 0.49003011D+06 0.49003011D+06 0.49003011D+06 0.10691292D+01  1  2 15  2  7  2       -1 0.272051615174D-04 0.100000000000D+01
0.169512283047D-03 0.000000000000D+00 0.000000000000D+00 0.217166168956D-05 0.000000000000D+00  7 1 -1 24 -13 13 -24 21 2 0.12790364D+00 0.10054308D+00 0.50818919D+06 0.50818919D+06 0.50818919D+06 0.10680121D+01  1  2 12  2  7  2       -1 0.468677006797D-03 0.100000000000D+01
-.140823386440D-03 0.000000000000D+00 0.000000000000D+00 0.217166168956D-05 0.000000000000D+00  7 1 -1 24 -13 13 -24 21 2 0.12790364D+00 0.97888234D-01 0.49003011D+06 0.49003011D+06 0.49003011D+06 0.10691292D+01  1  2  4  2  7  2       -1 -.415071534348D-03 0.100000000000D+01
-.407030679978D-02 0.000000000000D+00 -.558879101210D-03 0.217166168956D-05 0.000000000000D+00  7 1 -1 24 -13 13 -24 21 2 0.12790364D+00 0.10102639D+00 0.49003011D+06 0.49003011D+06 0.49003011D+06 0.10691292D+01  1  2  5  2  7  2       -1 -.111747831072D-01 0.100000000000D+01
0.408618602361D-02 0.000000000000D+00 0.558600966535D-03 0.217166168956D-05 0.000000000000D+00  7 1 -1 24 -13 13 -24 21 2 0.12790364D+00 0.97888234D-01 0.49003011D+06 0.49003011D+06 0.49003011D+06 0.10691292D+01  1  2  6  2  7  2       -1 0.120438766978D-01 0.100000000000D+01
0.389986778977D-05 0.000000000000D+00 0.000000000000D+00 0.217166168956D-05 0.000000000000D+00  7 1 21 24 -13 13 -24 1 2 0.12790364D+00 0.10054308D+00 0.50818919D+06 0.50818919D+06 0.50818919D+06 0.10680121D+01  1  2 12  4  7  2       -1 0.737559404140D-04 0.100000000000D+01
-.227817532471D-04 0.000000000000D+00 -.315561703062D-05 0.217166168956D-05 0.000000000000D+00  7 1 21 24 -13 13 -24 1 2 0.12790364D+00 0.10102639D+00 0.49003011D+06 0.49003011D+06 0.49003011D+06 0.10691292D+01  1  2  5  4  7  2       -1 -.427534082908D-03 0.100000000000D+01
  </mgrwgt>
  </event>
  <event>
  8     66 0.27727860E-05 0.14799276E+03 0.75467711E-02 0.10043368E+00
        1 -1    0    0  501    0 0.00000000E+00 0.00000000E+00 0.31306273E+03 0.31306289E+03 0.32000000E+00 0.0000E+00 0.9000E+01
       -1 -1    0    0    0  501 0.00000000E+00 0.00000000E+00 -.25871850E+03 0.25871870E+03 0.32000000E+00 0.0000E+00 0.9000E+01
       25  2    1    2    0    0 0.72803658E+01 -.43458814E+02 0.22114418E+03 0.37527770E+03 0.29997821E+03 0.0000E+00 0.0000E+00
       23  2    1    2    0    0 -.72803658E+01 0.43458814E+02 -.16679995E+03 0.19650389E+03 0.94073829E+02 0.0000E+00 0.0000E+00
       24  1    3    3    0    0 -.54491740E+02 -.26132535E+02 0.24912261E+03 0.26866624E+03 0.80419002E+02 0.0000E+00 0.9000E+01
      -13  1    4    4    0    0 -.35206529E+02 0.52455895E+02 -.65340445E+02 0.90887323E+02 0.10565837E+00 0.0000E+00 0.9000E+01
       13  1    4    4    0    0 0.27926163E+02 -.89970811E+01 -.10145950E+03 0.10561657E+03 0.10565837E+00 0.0000E+00 0.9000E+01
      -24  1    3    3    0    0 0.61772106E+02 -.17326279E+02 -.27978433E+02 0.10661145E+03 0.80419002E+02 0.0000E+00 0.9000E+01
#aMCatNLO 1  0  0  1  2 0.23763629D+03 0.00000000D+00  -5  7  0 0.00000000D+00 0.00000000D+00 0.00000000D+00 0.00000000D+00 0.00000000D+00
  <mgrwgt>
 0.5229640815D-03    5    2    0
 0.284596595589697D+03 0.000000000000000D+00 0.000000000000000D+00 0.284596595589697D+03
 0.284596595589697D+03 0.000000000000000D+00 0.000000000000000D+00 -.284596595589697D+03
 0.246102802149546D+03 -.544917395345684D+02 -.261325369884659D+02 0.224604350146054D+03
 0.975390416175891D+02 -.352065938665754D+02 0.524559587086177D+02 -.743150912261540D+02
 0.115783817075874D+03 0.279262275573040D+02 -.899714208765975D+01 -.112004774654171D+03
 0.109767530336385D+03 0.617721058438399D+02 -.173262796324921D+02 -.382844842657293D+02
 0.000000000000000D+00 0.000000000000000D+00 -.000000000000000D+00 0.000000000000000D+00
 0.442326677213729D+03 0.000000000000000D+00 0.000000000000000D+00 0.442326677213729D+03
 0.413821033478724D+03 0.000000000000000D+00 0.000000000000000D+00 -.413821033478724D+03
 0.260211483028079D+03 -.734013899447721D+02 0.735385735172091D+02 0.224604350146054D+03
 0.129954607461325D+03 -.437029478122569D+02 0.972394959314102D+02 -.743150912261540D+02
 0.119605810133761D+03 0.191349773575179D+02 0.373407674525982D+02 -.112004774654171D+03
 0.107035927333264D+03 0.536750054611829D+02 0.253528270409907D+02 -.382844842657293D+02
 0.239339882736023D+03 0.442943549383282D+02 -.233471663942208D+03 0.285056437350054D+02
0.709500026885D-05 0.000000000000D+00 0.000000000000D+00 0.266154272443D-06 0.000000000000D+00  7 1 -1 24 -13 13 -24 21 0 0.48163525D-01 0.39802874D-01 0.21901856D+05 0.21901856D+05 0.21901856D+05 0.11802300D+01  1  2  2  1  7  1        1 0.437999687168D-03 0.100000000000D+01
-.189240917270D-06 0.000000000000D+00 -.272466691889D-07 0.266154272443D-06 0.000000000000D+00  7 1 -1 24 -13 13 -24 21 2 0.48163525D-01 0.39802874D-01 0.21901856D+05 0.21901856D+05 0.21901856D+05 0.11802300D+01  1  2  3  1  7  1        1 -.162730781361D-04 0.100000000000D+01
0.416605908871D-06 0.000000000000D+00 0.000000000000D+00 0.266154272443D-06 0.000000000000D+00  7 1 -1 24 -13 13 -24 21 2 0.48163525D-01 0.39802874D-01 0.21901856D+05 0.21901856D+05 0.21901856D+05 0.11802300D+01  1  2 15  1  7  1        1 0.358244961230D-04 0.100000000000D+01
0.147956991685D-05 0.000000000000D+00 -.232346800606D-05 0.266154272443D-06 0.000000000000D+00  7 1 -1 24 -13 13 -24 21 2 0.10294075D+00 0.39802874D-01 0.21901856D+05 0.21901856D+05 0.21901856D+05 0.11802300D+01  1  2  5  1  7  1        1 0.459133434631D-04 0.100000000000D+01
0.266647728778D-06 0.000000000000D+00 -.190971551229D-06 0.266154272443D-06 0.000000000000D+00  7 21 -1 24 -13 13 -24 -1 2 0.10294075D+00 0.39802874D-01 0.21901856D+05 0.21901856D+05 0.21901856D+05 0.11802300D+01  1  2  5  3  7  1        1 0.194996329165D-04 0.100000000000D+01
  </mgrwgt>
  </event>
  <event>
  8     66 0.27727860E-05 0.32932484E+03 0.75467711E-02 0.87049488E-01
        1 -1    0    0  501    0 0.00000000E+00 0.00000000E+00 0.51883309E+03 0.51883319E+03 0.32000000E+00 0.0000E+00 0.9000E+01
       -1 -1    0    0    0  501 0.00000000E+00 0.00000000E+00 -.35364276E+03 0.35364291E+03 0.32000000E+00 0.0000E+00 0.9000E+01
       25  2    1    2    0    0 0.25559947E+03 -.15704377E+03 0.31068775E+03 0.52649818E+03 0.30113057E+03 0.0000E+00 0.0000E+00
       23  2    1    2    0    0 -.25559947E+03 0.15704377E+03 -.14549742E+03 0.34597792E+03 0.92397979E+02 0.0000E+00 0.0000E+00
       24  1    3    3    0    0 0.45656940E+02 -.31996661E+02 -.27443685E+02 0.10163028E+03 0.80419002E+02 0.0000E+00 0.9000E+01
      -13  1    4    4    0    0 -.72677933E+02 0.70220457E+02 -.91723804E+02 0.13647806E+03 0.10565837E+00 0.0000E+00 0.9000E+01
       13  1    4    4    0    0 -.18292154E+03 0.86823313E+02 -.53773617E+02 0.20949986E+03 0.10565837E+00 0.0000E+00 0.9000E+01
      -24  1    3    3    0    0 0.20994253E+03 -.12504711E+03 0.33813143E+03 0.42486790E+03 0.80419002E+02 0.0000E+00 0.9000E+01
#aMCatNLO 1  0  0  2  2 0.96922564D+03 0.00000000D+00  -5  7  0 0.00000000D+00 0.00000000D+00 0.00000000D+00 0.00000000D+00 0.00000000D+00
  <mgrwgt>
 0.5346171913D-03    5    2    0
 0.428347610047921D+03 0.000000000000000D+00 0.000000000000000D+00 0.428347610047921D+03
 0.428347610047921D+03 0.000000000000000D+00 0.000000000000000D+00 -.428347610047921D+03
 0.108794144470489D+03 0.456569405946834D+02 -.319966607408337D+02 -.475458451777306D+02
 0.156678425917648D+03 -.726777888240697D+02 0.702204348572097D+02 -.119729523043150D+03
 0.223727845624944D+03 -.182921684413882D+03 0.868233344327185D+02 -.951604690885422D+02
 0.367494804082761D+03 0.209942532643268D+03 -.125047108549094D+03 0.262435837309423D+03
 0.000000000000000D+00 -.000000000000000D+00 0.000000000000000D+00 -.000000000000000D+00
 0.836779339652792D+03 0.000000000000000D+00 0.000000000000000D+00 0.836779339652792D+03
 0.188287471557535D+04 0.000000000000000D+00 0.000000000000000D+00 -.188287471557535D+04
 0.227350019518522D+03 0.169721556375803D+03 -.118973952310631D+03 -.475458451777306D+02
 0.123645467162388D+03 0.307845937338473D+02 -.231336341869934D+01 -.119729523043150D+03
 0.111976758755813D+03 -.590193019830720D+02 -.402211026471093D-01 -.951604690885422D+02
 0.830598407639804D+03 0.652136656195525D+03 -.435053688366422D+03 0.262435837309423D+03
 0.142608340215162D+04 -.793623504322103D+03 0.556381225198400D+03 -.104609537592256D+04
0.294931603539D-04 0.000000000000D+00 0.000000000000D+00 0.469436159631D-06 0.000000000000D+00  7 1 -1 24 -13 13 -24 21 0 0.79820495D-01 0.54406598D-01 0.10845485D+06 0.10845485D+06 0.10845485D+06 0.11188409D+01  1  2  2  2  7  2       -1 0.525321690028D-03 0.100000000000D+01
-.150082607950D-05 0.000000000000D+00 -.113261501486D-06 0.469436159631D-06 0.000000000000D+00  7 1 -1 24 -13 13 -24 21 2 0.79820495D-01 0.54406598D-01 0.10845485D+06 0.10845485D+06 0.10845485D+06 0.11188409D+01  1  2  3  2  7  2       -1 -.334634754517D-04 0.100000000000D+01
0.175962728642D-05 0.000000000000D+00 0.000000000000D+00 0.469436159631D-06 0.000000000000D+00  7 1 -1 24 -13 13 -24 21 2 0.79820495D-01 0.54406598D-01 0.10845485D+06 0.10845485D+06 0.10845485D+06 0.11188409D+01  1  2 15  2  7  2       -1 0.392338894609D-04 0.100000000000D+01
0.206167483269D-04 0.000000000000D+00 -.140077193063D-04 0.469436159631D-06 0.000000000000D+00  7 1 -1 24 -13 13 -24 21 2 0.79820495D-01 0.34551440D+00 0.10845485D+06 0.10845485D+06 0.10845485D+06 0.11188409D+01  1  2  5  2  7  2       -1 0.111056071048D-05 0.100000000000D+01
0.361787986930D-05 0.000000000000D+00 -.317274731988D-05 0.469436159631D-06 0.000000000000D+00  7 1 21 24 -13 13 -24 1 2 0.79820495D-01 0.34551440D+00 0.10845485D+06 0.10845485D+06 0.10845485D+06 0.11188409D+01  1  2  5  4  7  2       -1 0.241452656435D-05 0.100000000000D+01
  </mgrwgt>
  </event>
  <event>
  8     66 0.27727860E-05 0.17432835E+03 0.75467711E-02 0.10148935E+00
        1 -1    0    0  501    0 0.00000000E+00 0.00000000E+00 0.46479496E+03 0.46479507E+03 0.32000000E+00 0.0000E+00 0.9000E+01
       -1 -1    0    0    0  501 0.00000000E+00 0.00000000E+00 -.21101024E+03 0.21101048E+03 0.32000000E+00 0.0000E+00 0.9000E+01
       25  2    1    2    0    0 -.21540119E+03 -.14419828E+02 0.64156937E+02 0.37433931E+03 0.29901204E+03 0.0000E+00 0.0000E+00
       23  2    1    2    0    0 0.21540119E+03 0.14419828E+02 0.18962778E+03 0.30146624E+03 0.91200815E+02 0.0000E+00 0.0000E+00
       24  1    3    3    0    0 0.20973581E+02 0.35248874E+02 -.40689454E+02 0.99021320E+02 0.80419002E+02 0.0000E+00 0.9000E+01
      -11  1    4    4    0    0 0.62398185E+02 -.11423689E+02 0.11018788E+03 0.12714324E+03 0.51099893E-03 0.0000E+00 0.9000E+01
       11  1    4    4    0    0 0.15300301E+03 0.25843517E+02 0.79439899E+02 0.17432299E+03 0.51099893E-03 0.0000E+00 0.9000E+01
      -24  1    3    3    0    0 -.23637478E+03 -.49668702E+02 0.10484639E+03 0.27531799E+03 0.80419002E+02 0.0000E+00 0.9000E+01
#aMCatNLO 1  0  0  1  2 0.56666889D+01 0.00000000D+00  -5  7  0 0.00000000D+00 0.00000000D+00 0.00000000D+00 0.00000000D+00 0.00000000D+00
  <mgrwgt>
 0.6111972447D-03   11    2    0
 0.313171859298190D+03 0.000000000000000D+00 0.000000000000000D+00 0.313171859298190D+03
 0.313171859298190D+03 0.000000000000000D+00 0.000000000000000D+00 -.313171859298190D+03
 0.123327682891827D+03 0.209735813764373D+02 0.352488740792384D+02 -.840245629175682D+02
 0.925372206274689D+02 0.623981846730594D+02 -.114236887795832D+02 0.673728660933381D+02
 0.155901321520430D+03 0.153003010084870D+03 0.258435170810021D+02 0.150802381171325D+02
 0.254577493556656D+03 -.236374776134367D+03 -.496687023806574D+02 0.157145870709763D+01
 0.000000000000000D+00 0.000000000000000D+00 -.000000000000000D+00 0.000000000000000D+00
 0.317594930188324D+03 0.000000000000000D+00 0.000000000000000D+00 0.317594930188324D+03
 0.315004943162393D+03 0.000000000000000D+00 0.000000000000000D+00 -.315004943162393D+03
 0.123621584514015D+03 0.208155510738606D+02 0.363547227109262D+02 -.840245629175682D+02
 0.923588316008949D+02 0.622798640990167D+02 -.105957169110732D+02 0.673728660933381D+02
 0.155943336683633D+03 0.152803451259649D+03 0.272399698512278D+02 0.150802381171325D+02
 0.254445599251844D+03 -.236700515401464D+03 -.473892767456153D+02 0.157145870709763D+01
 0.623052130033034D+01 0.801648968938612D+00 -.560969890546552D+01 0.258998702593057D+01
0.510238233884D-05 0.000000000000D+00 0.000000000000D+00 0.465876269232D-06 0.000000000000D+00  7 1 -1 24 -11 11 -24 21 0 0.71506944D-01 0.32463141D-01 0.79369893D+05 0.79369893D+05 0.79369893D+05 0.11300506D+01  1  2  2  1  7  1        1 0.261853794373D-03 0.100000000000D+01
-.279606676649D-06 0.000000000000D+00 -.195944916693D-07 0.465876269232D-06 0.000000000000D+00  7 1 -1 24 -11 11 -24 21 2 0.71506944D-01 0.32463141D-01 0.79369893D+05 0.79369893D+05 0.79369893D+05 0.11300506D+01  1  2  3  1  7  1        1 -.183243774349D-04 0.100000000000D+01
0.336762702387D-06 0.000000000000D+00 0.000000000000D+00 0.465876269232D-06 0.000000000000D+00  7 1 -1 24 -11 11 -24 21 2 0.71506944D-01 0.32463141D-01 0.79369893D+05 0.79369893D+05 0.79369893D+05 0.11300506D+01  1  2 15  1  7  1        1 0.220701699205D-04 0.100000000000D+01
0.270908349693D-05 0.000000000000D+00 0.000000000000D+00 0.465876269232D-06 0.000000000000D+00  7 1 -1 24 -11 11 -24 21 2 0.72724040D-01 0.32463141D-01 0.80988863D+05 0.80988863D+05 0.80988863D+05 0.11293152D+01  1  2 12  1  7  1        1 0.173250365324D-03 0.100000000000D+01
-.252447327741D-04 0.000000000000D+00 0.000000000000D+00 0.465876269232D-06 0.000000000000D+00  7 1 -1 24 -11 11 -24 21 2 0.71506944D-01 0.32463141D-01 0.79369893D+05 0.79369893D+05 0.79369893D+05 0.11300506D+01  1  2  4  1  7  1        1 -.165444551304D-02 0.100000000000D+01
-.315675557620D-03 0.000000000000D+00 -.360359575905D-04 0.465876269232D-06 0.000000000000D+00  7 1 -1 24 -11 11 -24 21 2 0.72853316D-01 0.32463141D-01 0.79369893D+05 0.79369893D+05 0.79369893D+05 0.11300506D+01  1  2  5  1  7  1        1 -.201691726539D-01 0.100000000000D+01
0.316298992220D-03 0.000000000000D+00 0.360296890980D-04 0.465876269232D-06 0.000000000000D+00  7 1 -1 24 -11 11 -24 21 2 0.71506944D-01 0.32463141D-01 0.79369893D+05 0.79369893D+05 0.79369893D+05 0.11300506D+01  1  2  6  1  7  1        1 0.207290547751D-01 0.100000000000D+01
0.226584318428D-04 0.000000000000D+00 0.000000000000D+00 0.465876269232D-06 0.986925177536D-07  7 1 -1 24 -11 11 -24 21 2 0.72516869D-01 0.32653157D-01 0.80988863D+05 0.80988863D+05 0.80988863D+05 0.11293152D+01  1  2 11  1  7  1        1 0.144050425109D-02 0.100000000000D+01
0.147877651252D-06 0.000000000000D+00 0.000000000000D+00 0.465876269232D-06 0.000000000000D+00  7 21 -1 24 -11 11 -24 -1 2 0.72724040D-01 0.32463141D-01 0.80988863D+05 0.80988863D+05 0.80988863D+05 0.11293152D+01  1  2 12  3  7  1        1 0.303549784293D-04 0.100000000000D+01
-.106923613666D-05 0.000000000000D+00 -.122583032253D-06 0.465876269232D-06 0.000000000000D+00  7 21 -1 24 -11 11 -24 -1 2 0.72853316D-01 0.32463141D-01 0.79369893D+05 0.79369893D+05 0.79369893D+05 0.11300506D+01  1  2  5  3  7  1        1 -.219058185892D-03 0.100000000000D+01
0.738409108093D-07 0.000000000000D+00 0.000000000000D+00 0.465876269232D-06 0.253561140308D-09  7 21 -1 24 -11 11 -24 -1 2 0.72516869D-01 0.32653157D-01 0.80988863D+05 0.80988863D+05 0.80988863D+05 0.11293152D+01  1  2 11  3  7  1        1 0.151096407454D-04 0.100000000000D+01
  </mgrwgt>
  </event>
  <event>
  8     66 0.27727860E-05 0.20079680E+03 0.75467711E-02 0.10488350E+00
        1 -1    0    0  501    0 0.00000000E+00 0.00000000E+00 0.16310531E+03 0.16310562E+03 0.32000000E+00 0.0000E+00 0.9000E+01
       -1 -1    0    0    0  501 0.00000000E+00 0.00000000E+00 -.31108415E+03 0.31108431E+03 0.32000000E+00 0.0000E+00 0.9000E+01
       25  2    1    2    0    0 0.75891607E+02 0.62678333E+02 -.73368852E+02 0.32345624E+03 0.29925381E+03 0.0000E+00 0.0000E+00
       23  2    1    2    0    0 -.75891607E+02 -.62678333E+02 -.74609990E+02 0.15073370E+03 0.86405364E+02 0.0000E+00 0.0000E+00
       24  1    3    3    0    0 0.14434639E+03 0.95601571E+02 -.33526609E+00 0.19090015E+03 0.80419002E+02 0.0000E+00 0.9000E+01
      -13  1    4    4    0    0 -.21527920E+02 -.79979421E+01 -.69796087E+02 0.73477366E+02 0.10565837E+00 0.0000E+00 0.9000E+01
       13  1    4    4    0    0 -.54363688E+02 -.54680390E+02 -.48139030E+01 0.77256330E+02 0.10565837E+00 0.0000E+00 0.9000E+01
      -24  1    3    3    0    0 -.68454780E+02 -.32923238E+02 -.73033586E+02 0.13255609E+03 0.80419002E+02 0.0000E+00 0.9000E+01
#aMCatNLO 1  0  0  2  2 0.39779551D+02 0.00000000D+00  -5  7  0 0.00000000D+00 0.00000000D+00 0.00000000D+00 0.00000000D+00 0.00000000D+00
  <mgrwgt>
 0.1109232047D-02    4    2    0
 0.225254500348446D+03 0.000000000000000D+00 0.000000000000000D+00 0.225254500348446D+03
 0.225254500348446D+03 0.000000000000000D+00 0.000000000000000D+00 -.225254500348446D+03
 0.200824696716946D+03 0.144346412964334D+03 0.956015921476413D+02 0.623521571419058D+02
 0.544136948580668D+02 -.215278970616081D+02 -.799790480449839D+01 -.493298424379178D+02
 0.797361083085629D+02 -.543637511121865D+02 -.546804615123445D+02 0.203095214617216D+02
 0.115534500813316D+03 -.684547647905394D+02 -.329232258307983D+02 -.333318361657096D+02
 0.000000000000000D+00 -.000000000000000D+00 0.000000000000000D+00 0.000000000000000D+00
 0.336581544870817D+03 0.000000000000000D+00 0.000000000000000D+00 0.336581544870817D+03
 0.229712639825899D+03 0.000000000000000D+00 0.000000000000000D+00 -.229712639825899D+03
 0.201587449779153D+03 0.154119582711283D+03 0.808062292075509D+02 0.623521571419058D+02
 0.541669572654234D+02 -.188908565207667D+02 -.119900560614295D+02 -.493298424379178D+02
 0.814292627761957D+02 -.504496134733104D+02 -.606059788689546D+02 0.203095214617216D+02
 0.115078170673898D+03 -.628539975078757D+02 -.414020906040072D+02 -.333318361657096D+02
 0.114032344202046D+03 -.219251152093299D+02 0.331918963268404D+02 0.106868905044918D+03
0.112420647646D-04 0.000000000000D+00 0.000000000000D+00 0.193178365804D-07 0.000000000000D+00  7 1 -1 24 -13 13 -24 21 0 0.25093161D-01 0.47859137D-01 0.40319354D+05 0.40319354D+05 0.40319354D+05 0.11556076D+01  1  2  2  2  7  2       -1 0.116276237299D-02 0.100000000000D+01
-.614527371391D-06 0.000000000000D+00 -.431724887996D-07 0.193178365804D-07 0.000000000000D+00  7 1 -1 24 -13 13 -24 21 2 0.25093161D-01 0.47859137D-01 0.40319354D+05 0.40319354D+05 0.40319354D+05 0.11556076D+01  1  2  3  2  7  2       -1 -.848803035681D-04 0.100000000000D+01
0.724970485935D-06 0.000000000000D+00 0.000000000000D+00 0.193178365804D-07 0.000000000000D+00  7 1 -1 24 -13 13 -24 21 2 0.25093161D-01 0.47859137D-01 0.40319354D+05 0.40319354D+05 0.40319354D+05 0.11556076D+01  1  2 15  2  7  2       -1 0.100135026996D-03 0.100000000000D+01
-.497998876657D-06 0.000000000000D+00 0.000000000000D+00 0.193178365804D-07 0.000000000000D+00  7 1 -1 24 -13 13 -24 21 2 0.25093161D-01 0.47859137D-01 0.40319354D+05 0.40319354D+05 0.40319354D+05 0.11556076D+01  1  2  4  2  7  2       -1 -.687850497717D-04 0.100000000000D+01
  </mgrwgt>
  </event>
  <event>
  8     66 0.27727860E-05 0.89391810E+02 0.75467711E-02 0.10198604E+00
        1 -1    0    0  501    0 0.00000000E+00 0.00000000E+00 0.11430934E+04 0.11430935E+04 0.32000000E+00 0.0000E+00 0.9000E+01
       -1 -1    0    0    0  501 0.00000000E+00 0.00000000E+00 -.10076906E+03 0.10076956E+03 0.32000000E+00 0.0000E+00 0.9000E+01
       25  2    1    2    0    0 -.52493385E+02 0.15633653E+03 0.99437827E+03 0.10516939E+04 0.30012544E+03 0.0000E+00 0.0000E+00
       23  2    1    2    0    0 0.52493385E+02 -.15633653E+03 0.47946098E+02 0.19216912E+03 0.86217615E+02 0.0000E+00 0.0000E+00
       24  1    3    3    0    0 -.68165627E+01 0.15555823E+03 0.27298680E+03 0.32439765E+03 0.80419002E+02 0.0000E+00 0.9000E+01
      -11  1    4    4    0    0 0.34266298E+02 -.15829233E+03 0.57034936E+02 0.17170796E+03 0.51099893E-03 0.0000E+00 0.9000E+01
       11  1    4    4    0    0 0.18227087E+02 0.19558051E+01 -.90888372E+01 0.20461154E+02 0.51099893E-03 0.0000E+00 0.9000E+01
      -24  1    3    3    0    0 -.45676822E+02 0.77829440E+00 0.72139148E+03 0.72729627E+03 0.80419002E+02 0.0000E+00 0.9000E+01
#aMCatNLO 1  0  0  2  1 0.90055132D+02 0.00000000D+00  -5  7  0 0.00000000D+00 0.00000000D+00 0.00000000D+00 0.00000000D+00 0.00000000D+00
  <mgrwgt>
 0.1537365222D-02    9    2    0
 0.339394738249202D+03 0.000000000000000D+00 0.000000000000000D+00 0.339394738249202D+03
 0.339394738249202D+03 0.000000000000000D+00 0.000000000000000D+00 -.339394738249202D+03
 0.175261196198120D+03 -.681656274705042D+01 0.155558231836017D+03 0.210758601080896D+01
 0.227069352499236D+03 0.342662980615685D+02 -.158292331305578D+03 -.159153540681391D+03
 0.514509887563907D+02 0.182270867173703D+02 0.195580507160148D+01 -.480744462300877D+02
 0.225007939044658D+03 -.456768220318883D+02 0.778294397959456D+00 0.205120400900669D+03
 0.000000000000000D+00 0.000000000000000D+00 -.000000000000000D+00 -.000000000000000D+00
 0.386004099297233D+03 0.000000000000000D+00 0.000000000000000D+00 0.386004099297233D+03
 0.388832678574687D+03 0.000000000000000D+00 0.000000000000000D+00 -.388832678574687D+03
 0.178651043856591D+03 -.301661418442647D+02 0.156635058285551D+03 0.210758601080896D+01
 0.223550240527914D+03 0.453639149344474D+01 -.156921259493044D+03 -.159153540681391D+03
 0.494981478752304D+02 0.115669049440268D+02 0.226295664218778D+01 -.480744462300877D+02
 0.233037802207593D+03 -.758966733256956D+02 0.217196128328796D+01 0.205120400900669D+03
 0.900995434045916D+02 0.899595187324887D+02 -.414871671798236D+01 -.282857927745411D+01
0.269860065682D-04 0.000000000000D+00 0.000000000000D+00 0.197904721824D-06 0.000000000000D+00  7 1 -1 24 -11 11 -24 21 0 0.17586057D+00 0.15502974D-01 0.50182247D+05 0.50182247D+05 0.50182247D+05 0.11471564D+01  1  2  2  2  7  2       -1 0.114667824168D-02 0.100000000000D+01
-.118459504434D-05 0.000000000000D+00 -.103633370801D-06 0.197904721824D-06 0.000000000000D+00  7 1 -1 24 -11 11 -24 21 2 0.17586057D+00 0.15502974D-01 0.50182247D+05 0.50182247D+05 0.50182247D+05 0.11471564D+01  1  2  3  2  7  2       -1 -.662396681837D-04 0.100000000000D+01
0.161256876041D-05 0.000000000000D+00 0.000000000000D+00 0.197904721824D-06 0.000000000000D+00  7 1 -1 24 -11 11 -24 21 2 0.17586057D+00 0.15502974D-01 0.50182247D+05 0.50182247D+05 0.50182247D+05 0.11471564D+01  1  2 15  2  7  2       -1 0.901709154731D-04 0.100000000000D+01
0.148704114119D-04 0.000000000000D+00 0.000000000000D+00 0.197904721824D-06 0.000000000000D+00  7 1 -1 24 -11 11 -24 21 2 0.17586057D+00 0.18682947D-01 0.75094140D+05 0.75094140D+05 0.75094140D+05 0.11320752D+01  1  2 12  2  7  2       -1 0.599435867469D-03 0.100000000000D+01
-.152703424361D-04 0.000000000000D+00 0.000000000000D+00 0.197904721824D-06 0.000000000000D+00  7 1 -1 24 -11 11 -24 21 2 0.17586057D+00 0.15502974D-01 0.50182247D+05 0.50182247D+05 0.50182247D+05 0.11471564D+01  1  2  4  2  7  2       -1 -.853880337294D-03 0.100000000000D+01
-.317220838012D-04 0.000000000000D+00 -.151823089221D-04 0.197904721824D-06 0.000000000000D+00  7 1 -1 24 -11 11 -24 21 2 0.17586057D+00 0.20288072D-01 0.50182247D+05 0.50182247D+05 0.50182247D+05 0.11471564D+01  1  2  5  2  7  2       -1 -.116083572206D-02 0.100000000000D+01
0.350630838248D-04 0.000000000000D+00 0.146490888684D-04 0.197904721824D-06 0.000000000000D+00  7 1 -1 24 -11 11 -24 21 2 0.17586057D+00 0.15502974D-01 0.50182247D+05 0.50182247D+05 0.50182247D+05 0.11471564D+01  1  2  6  2  7  2       -1 0.196064220355D-02 0.100000000000D+01
0.403324619818D-06 0.000000000000D+00 0.000000000000D+00 0.197904721824D-06 0.000000000000D+00  7 1 21 24 -11 11 -24 1 2 0.17586057D+00 0.18682947D-01 0.75094140D+05 0.75094140D+05 0.75094140D+05 0.11320752D+01  1  2 12  4  7  2       -1 0.201396500548D-03 0.100000000000D+01
-.846322617361D-06 0.000000000000D+00 -.542196832524D-06 0.197904721824D-06 0.000000000000D+00  7 1 21 24 -11 11 -24 1 2 0.17586057D+00 0.20288072D-01 0.50182247D+05 0.50182247D+05 0.50182247D+05 0.11471564D+01  1  2  5  4  7  2       -1 -.380002778714D-03 0.100000000000D+01
  </mgrwgt>
  </event>
  <event>
  7     66 0.27727860E-05 0.60111586E+02 0.75467711E-02 0.10920914E+00
        1 -1    0    0  501    0 0.00000000E+00 0.00000000E+00 0.77310552E+03 0.77310559E+03 0.32000000E+00 0.0000E+00 0.9000E+01
       -1 -1    0    0    0  501 0.00000000E+00 0.00000000E+00 -.80870985E+02 0.80871618E+02 0.32000000E+00 0.0000E+00 0.9000E+01
       25  2    1    2    0    0 -.11033860E+03 -.21993317E+02 0.46178614E+03 0.56192841E+03 0.29976455E+03 0.0000E+00 0.0000E+00
       24  1    3    3    0    0 -.87211266E+02 -.37392747E+01 0.30944218E+02 0.12265622E+03 0.80419002E+02 0.0000E+00 0.9000E+01
      -11  1    1    2    0    0 0.54340569E+02 0.25998904E+00 0.45737255E+00 0.54343116E+02 0.51099893E-03 0.0000E+00 0.9000E+01
       11  1    1    2    0    0 0.55998035E+02 0.21733328E+02 0.22999103E+03 0.23770568E+03 0.51099893E-03 0.0000E+00 0.9000E+01
      -24  1    3    3    0    0 -.23127338E+02 -.18254042E+02 0.43084192E+03 0.43927219E+03 0.80419002E+02 0.0000E+00 0.9000E+01
#aMCatNLO 1  0  0  2  1 0.10259129D+02 0.00000000D+00  -5  7  0 0.00000000D+00 0.00000000D+00 0.00000000D+00 0.00000000D+00 0.00000000D+00
  <mgrwgt>
 0.4227923520D-03    9    2    0
 0.250044202989839D+03 0.000000000000000D+00 0.000000000000000D+00 0.250044202989839D+03
 0.250044202989839D+03 0.000000000000000D+00 0.000000000000000D+00 -.250044202989839D+03
 0.166620488511618D+03 -.872113392068299D+02 -.373928919626743D+01 -.116941743049852D+03
 0.921660279721540D+02 0.543406439678340D+02 0.260017665278587D+00 -.744419472887345D+02
 0.875594901003973D+02 0.559981003821558D+02 0.217333269575399D+02 0.637066680936010D+02
 0.153742399395510D+03 -.231274051431600D+02 -.182540554265511D+02 0.127677022244985D+03
 0.000000000000000D+00 0.000000000000000D+00 0.000000000000000D+00 -.000000000000000D+00
 0.253466551011147D+03 0.000000000000000D+00 0.000000000000000D+00 0.253466551011147D+03
 0.257905263696161D+03 0.000000000000000D+00 0.000000000000000D+00 -.257905263696161D+03
 0.167655880468067D+03 -.890029220978205D+02 -.666234880984761D+01 -.116941743049852D+03
 0.915983241072127D+02 0.533557431500937D+02 -.134689866451907D+01 -.744419472887345D+02
 0.865974649453096D+02 0.550646912334348D+02 0.202104219335562D+02 0.637066680936010D+02
 0.154341956515338D+03 -.247786096920082D+02 -.209480805563789D+02 0.127677022244985D+03
 0.111781886713812D+02 0.536109740630024D+01 0.874690609718938D+01 -.443871268501443D+01
0.372229671192D-05 0.000000000000D+00 0.000000000000D+00 0.184728598274D-08 0.000000000000D+00  7 1 -1 24 -11 11 -24 21 0 0.11893936D+00 0.12441744D-01 0.25399443D+05 0.25399443D+05 0.25399443D+05 0.11741038D+01  1  2  2  2  7  2       -1 0.427767970896D-03 0.100000000000D+01
-.155789596737D-06 0.000000000000D+00 -.142945994770D-07 0.184728598274D-08 0.000000000000D+00  7 1 -1 24 -11 11 -24 21 2 0.11893936D+00 0.12441744D-01 0.25399443D+05 0.25399443D+05 0.25399443D+05 0.11741038D+01  1  2  3  2  7  2       -1 -.246802011944D-04 0.100000000000D+01
0.236815824717D-06 0.000000000000D+00 0.000000000000D+00 0.184728598274D-08 0.000000000000D+00  7 1 -1 24 -11 11 -24 21 2 0.11893936D+00 0.12441744D-01 0.25399443D+05 0.25399443D+05 0.25399443D+05 0.11741038D+01  1  2 15  2  7  2       -1 0.375163831376D-04 0.100000000000D+01
0.791659560847D-05 0.000000000000D+00 0.000000000000D+00 0.184728598274D-08 0.000000000000D+00  7 1 -1 24 -11 11 -24 21 2 0.11893936D+00 0.12916093D-01 0.27083994D+05 0.27083994D+05 0.27083994D+05 0.11714788D+01  1  2 12  2  7  2       -1 0.117923776141D-02 0.100000000000D+01
-.753278209603D-05 0.000000000000D+00 0.000000000000D+00 0.184728598274D-08 0.000000000000D+00  7 1 -1 24 -11 11 -24 21 2 0.11893936D+00 0.12441744D-01 0.25399443D+05 0.25399443D+05 0.25399443D+05 0.11741038D+01  1  2  4  2  7  2       -1 -.119334398174D-02 0.100000000000D+01
-.693864479787D-04 0.000000000000D+00 -.110511795609D-04 0.184728598274D-08 0.000000000000D+00  7 1 -1 24 -11 11 -24 21 2 0.11893936D+00 0.13004868D-01 0.25399443D+05 0.25399443D+05 0.25399443D+05 0.11741038D+01  1  2  5  2  7  2       -1 -.102729635992D-01 0.100000000000D+01
0.698180473073D-04 0.000000000000D+00 0.110403608849D-04 0.184728598274D-08 0.000000000000D+00  7 1 -1 24 -11 11 -24 21 2 0.11893936D+00 0.12441744D-01 0.25399443D+05 0.25399443D+05 0.25399443D+05 0.11741038D+01  1  2  6  2  7  2       -1 0.110605810056D-01 0.100000000000D+01
0.140695186954D-06 0.000000000000D+00 0.000000000000D+00 0.184728598274D-08 0.000000000000D+00  7 1 21 24 -11 11 -24 1 2 0.11893936D+00 0.12916093D-01 0.27083994D+05 0.27083994D+05 0.27083994D+05 0.11714788D+01  1  2 12  4  7  2       -1 0.287072088218D-03 0.100000000000D+01
-.531847876906D-06 0.000000000000D+00 -.859303723137D-07 0.184728598274D-08 0.000000000000D+00  7 1 21 24 -11 11 -24 1 2 0.11893936D+00 0.13004868D-01 0.25399443D+05 0.25399443D+05 0.25399443D+05 0.11741038D+01  1  2  5  4  7  2       -1 -.107839507510D-02 0.100000000000D+01
  </mgrwgt>
  </event>
  <event>
  8     66 0.27727860E-05 0.28628227E+03 0.75467711E-02 0.99905691E-01
        1 -1    0    0  501    0 0.00000000E+00 0.00000000E+00 0.59845526E+03 0.59845535E+03 0.32000000E+00 0.0000E+00 0.9000E+01
       -1 -1    0    0    0  501 0.00000000E+00 0.00000000E+00 -.35280451E+03 0.35280465E+03 0.32000000E+00 0.0000E+00 0.9000E+01
       25  2    1    2    0    0 0.48020392E+02 -.25296987E+03 0.46072427E+03 0.60715486E+03 0.30011740E+03 0.0000E+00 0.0000E+00
       23  2    1    2    0    0 -.48020392E+02 0.25296987E+03 -.21507352E+03 0.34410514E+03 0.76498486E+02 0.0000E+00 0.0000E+00
       24  1    3    3    0    0 0.29779220E+02 -.28231194E+03 0.41269111E+03 0.50731450E+03 0.80419002E+02 0.0000E+00 0.9000E+01
      -11  1    4    4    0    0 -.47041778E+02 0.13520500E+03 -.76726037E+02 0.16241985E+03 0.51099893E-03 0.0000E+00 0.9000E+01
       11  1    4    4    0    0 -.97861391E+00 0.11776487E+03 -.13834748E+03 0.18168530E+03 0.51099893E-03 0.0000E+00 0.9000E+01
      -24  1    3    3    0    0 0.18241172E+02 0.29342066E+02 0.48033164E+02 0.99840363E+02 0.80419002E+02 0.0000E+00 0.9000E+01
#aMCatNLO 1  0  0  1  1 0.19492249D+00 0.00000000D+00  -5  7  0 0.00000000D+00 0.00000000D+00 0.00000000D+00 0.00000000D+00 0.00000000D+00
  <mgrwgt>
 0.8612647949D-03    9    2    0
 0.459497361728966D+03 0.000000000000000D+00 0.000000000000000D+00 0.459497361728966D+03
 0.459497361728966D+03 0.000000000000000D+00 0.000000000000000D+00 -.459497361728966D+03
 0.414812074878688D+03 0.297792195804975D+02 -.282311937091743D+03 0.291573335144823D+03
 0.188631457405343D+03 -.470417781490174D+02 0.135205004875406D+03 -.122835273794150D+03
 0.225044947034248D+03 -.978613913077528D+00 0.117764866196862D+03 -.191769931923886D+03
 0.905062441396526D+02 0.182411724815974D+02 0.293420660194752D+02 0.230318705732129D+02
 0.000000000000000D+00 0.000000000000000D+00 0.000000000000000D+00 0.000000000000000D+00
 0.460173632409012D+03 0.000000000000000D+00 0.000000000000000D+00 0.460173632409012D+03
 0.459511417978504D+03 0.000000000000000D+00 0.000000000000000D+00 -.459511417978504D+03
 0.414870620786038D+03 0.297676962236193D+02 -.282399168786109D+03 0.291573335144823D+03
 0.188604337827120D+03 -.470470175287446D+02 0.135165342824160D+03 -.122835273794150D+03
 0.225020216008599D+03 -.984864810582437D+00 0.117717546966327D+03 -.191769931923886D+03
 0.904995695080974D+02 0.182386585149947D+02 0.293230353178624D+02 0.230318705732129D+02
 0.690306257660674D+00 0.255276007130039D-01 0.193243677759584D+00 0.662214430508179D+00
0.220668146588D-04 0.000000000000D+00 0.000000000000D+00 0.306772086992D-07 0.000000000000D+00  7 1 -1 24 -11 11 -24 21 0 0.92070058D-01 0.54277635D-01 0.10352296D+06 0.10352296D+06 0.10352296D+06 0.11204902D+01  1  2  2  1  7  1        1 0.323008545045D-03 0.100000000000D+01
-.103664588151D-05 0.000000000000D+00 -.847423786155D-07 0.306772086992D-07 0.000000000000D+00  7 1 -1 24 -11 11 -24 21 2 0.92070058D-01 0.54277635D-01 0.10352296D+06 0.10352296D+06 0.10352296D+06 0.11204902D+01  1  2  3  1  7  1        1 -.190511374986D-04 0.100000000000D+01
0.136516987766D-05 0.000000000000D+00 0.000000000000D+00 0.306772086992D-07 0.000000000000D+00  7 1 -1 24 -11 11 -24 21 2 0.92070058D-01 0.54277635D-01 0.10352296D+06 0.10352296D+06 0.10352296D+06 0.11204902D+01  1  2 15  1  7  1        1 0.250886435881D-04 0.100000000000D+01
-.473810872661D-01 0.000000000000D+00 0.000000000000D+00 0.306772086992D-07 0.000000000000D+00  7 1 -1 24 -11 11 -24 21 2 0.92070058D-01 0.54277635D-01 0.10352296D+06 0.10352296D+06 0.10352296D+06 0.11204902D+01  1  2  4  1  7  1        1 -.870754058294D+00 0.100000000000D+01
-.685974835556D-01 0.000000000000D+00 -.189721517379D-02 0.306772086992D-07 0.000000000000D+00  7 1 -1 24 -11 11 -24 21 2 0.92206914D-01 0.54277635D-01 0.10352296D+06 0.10352296D+06 0.10352296D+06 0.11204902D+01  1  2  5  1  7  1        1 -.125797588100D+01 0.100000000000D+01
0.686002279661D-01 0.000000000000D+00 0.189721308097D-02 0.306772086992D-07 0.000000000000D+00  7 1 -1 24 -11 11 -24 21 2 0.92070058D-01 0.54277635D-01 0.10352296D+06 0.10352296D+06 0.10352296D+06 0.11204902D+01  1  2  6  1  7  1        1 0.126071245613D+01 0.100000000000D+01
0.473811299923D-01 0.000000000000D+00 0.000000000000D+00 0.306772086992D-07 0.540618806413D-05  7 1 -1 24 -11 11 -24 21 2 0.92205564D-01 0.54279295D-01 0.10358324D+06 0.10358324D+06 0.10358324D+06 0.11204695D+01  1  2 11  1  7  1        1 0.868824073928D+00 0.100000000000D+01
-.190602961365D-04 0.000000000000D+00 -.527197989614D-06 0.306772086992D-07 0.000000000000D+00  7 21 -1 24 -11 11 -24 -1 2 0.92206914D-01 0.54277635D-01 0.10352296D+06 0.10352296D+06 0.10352296D+06 0.11204902D+01  1  2  5  3  7  1        1 -.873929443345D-03 0.100000000000D+01
0.130774831687D-04 0.000000000000D+00 0.000000000000D+00 0.306772086992D-07 0.148767840493D-08  7 21 -1 24 -11 11 -24 -1 2 0.92205564D-01 0.54279295D-01 0.10358324D+06 0.10358324D+06 0.10358324D+06 0.11204695D+01  1  2 11  3  7  1        1 0.599557424825D-03 0.100000000000D+01
  </mgrwgt>
  </event>
  <event>
  9     66 -.27727860E-05 0.29639937E+03 0.75467711E-02 0.10061656E+00
        1 -1    0    0  501    0 0.00000000E+00 0.00000000E+00 0.69815745E+03 0.69815752E+03 0.32000000E+00 0.0000E+00 0.9000E+01
       -1 -1    0    0    0  502 0.00000000E+00 0.00000000E+00 -.75720462E+03 0.75720469E+03 0.32000000E+00 0.0000E+00 0.9000E+01
       25  2    1    2    0    0 0.10924157E+03 0.24275462E+03 -.66305035E+03 0.77533705E+03 0.30107848E+03 0.0000E+00 0.0000E+00
       23  2    1    2    0    0 -.11715864E+03 -.22717515E+03 0.60406460E+03 0.66253328E+03 0.93389518E+02 0.0000E+00 0.0000E+00
       24  1    3    3    0    0 0.12363528E+03 0.13539368E+03 -.58757725E+03 0.62075065E+03 0.80419002E+02 0.0000E+00 0.9000E+01
      -11  1    4    4    0    0 -.23635642E+02 -.31994866E+02 0.32510086E+02 0.51373346E+02 0.51099893E-03 0.0000E+00 0.9000E+01
       11  1    4    4    0    0 -.93523000E+02 -.19518029E+03 0.57155452E+03 0.61115993E+03 0.51099893E-03 0.0000E+00 0.9000E+01
      -24  1    3    3    0    0 -.14393718E+02 0.10736093E+03 -.75473095E+02 0.15458640E+03 0.80419002E+02 0.0000E+00 0.9000E+01
       21  1    1    2  501  502 0.79170749E+01 -.15579468E+02 -.61428420E-01 0.17491889E+02 0.75000000E+00 0.0000E+00 0.9000E+01
#aMCatNLO 2  0  0  2  1 0.17475695D+02 0.00000000D+00  -5  7  0 0.00000000D+00 0.00000000D+00 0.00000000D+00 0.00000000D+00 0.00000000D+00
  <mgrwgt>
 -.2885282480D-03    3    2    0
 0.718276819315261D+03 0.000000000000000D+00 0.000000000000000D+00 0.718276819315261D+03
 0.718276819315261D+03 0.000000000000000D+00 0.000000000000000D+00 -.718276819315261D+03
 0.596406364442836D+03 0.126924100096665D+03 0.128921850777503D+03 -.562585784392306D+03
 0.529720415744923D+02 -.233443233342082D+02 -.325681314485989D+02 0.346467396818874D+02
 0.636789778528798D+03 -.900182220901392D+02 -.202077097107109D+03 0.597128787243799D+03
 0.150385454084394D+03 -.135615546723171D+02 0.105723377778205D+03 -.691897425333810D+02
 0.000000000000000D+00 0.000000000000000D+00 -.000000000000000D+00 0.000000000000000D+00
 0.727402322996703D+03 0.000000000000000D+00 0.000000000000000D+00 0.727402322996703D+03
 0.726745636255958D+03 0.000000000000000D+00 0.000000000000000D+00 -.726745636255958D+03
 0.597149155745908D+03 0.123635284895251D+03 0.135393684425250D+03 -.562585784392306D+03
 0.527514129163335D+02 -.236356419183830D+02 -.319948656067036D+02 0.346467396818874D+02
 0.635141467660759D+03 -.935229998293095D+02 -.195180285607793D+03 0.597128787243799D+03
 0.151617894407548D+03 -.143937180586011D+02 0.107360934975539D+03 -.691897425333810D+02
 0.174880285221124D+02 0.791707491104286D+01 -.155794681862919D+02 0.656686740745675D+00
-.139024099284D-03 0.000000000000D+00 0.000000000000D+00 0.176047370239D-05 0.000000000000D+00  7 1 -1 24 -11 11 -24 21 2 0.10606020D+00 0.11721422D+00 0.92660845D+05 0.92660845D+05 0.92660845D+05 0.11244488D+01  1  2 13  2  7  2       -1 -.434405125432D-03 0.100000000000D+01
-.101542100010D-02 0.000000000000D+00 0.000000000000D+00 0.176047370239D-05 0.000000000000D+00  7 1 -1 24 -11 11 -24 21 2 0.10606020D+00 0.11513426D+00 0.87852584D+05 0.87852584D+05 0.87852584D+05 0.11263671D+01  1  2  8  2  7  2       -1 -.333102059818D-02 0.100000000000D+01
0.111734650262D-02 0.000000000000D+00 0.000000000000D+00 0.176047370239D-05 0.388750774374D-07  7 1 -1 24 -11 11 -24 21 2 0.10740766D+00 0.11649174D+00 0.92660845D+05 0.92660845D+05 0.92660845D+05 0.11244488D+01  1  2  1  2  7  2       -1 0.347689747564D-02 0.100000000000D+01
  </mgrwgt>
  </event>
  <event>
  8     66 0.27727860E-05 0.16644612E+03 0.75467711E-02 0.10245275E+00
        1 -1    0    0  501    0 0.00000000E+00 0.00000000E+00 0.19343029E+04 0.19343029E+04 0.32000000E+00 0.0000E+00 0.9000E+01
       -1 -1    0    0    0  501 0.00000000E+00 0.00000000E+00 -.26527171E+02 0.26529101E+02 0.32000000E+00 0.0000E+00 0.9000E+01
       25  2    1    2    0    0 -.60248394E+02 0.66859181E+02 0.13834046E+04 0.14210007E+04 0.31198518E+03 0.0000E+00 0.0000E+00
       23  2    1    2    0    0 0.60248394E+02 -.66859181E+02 0.52437116E+03 0.53983134E+03 0.91393306E+02 0.0000E+00 0.0000E+00
       24  1    3    3    0    0 -.47903910E+02 -.38434949E+02 0.15308072E+03 0.18350192E+03 0.80419002E+02 0.0000E+00 0.9000E+01
      -11  1    4    4    0    0 0.33945157E+02 -.63654206E+02 0.49518033E+03 0.50040753E+03 0.51099893E-03 0.0000E+00 0.9000E+01
       11  1    4    4    0    0 0.26303237E+02 -.32049756E+01 0.29190828E+02 0.39423807E+02 0.51099893E-03 0.0000E+00 0.9000E+01
      -24  1    3    3    0    0 -.12344484E+02 0.10529413E+03 0.12303238E+04 0.12374988E+04 0.80419002E+02 0.0000E+00 0.9000E+01
#aMCatNLO 1  0  0  1  1 0.16122840D+03 0.00000000D+00  -5  7  0 0.00000000D+00 0.00000000D+00 0.00000000D+00 0.00000000D+00 0.00000000D+00
  <mgrwgt>
 0.4783230613D-03    3    2    0
 0.226524837910505D+03 0.000000000000000D+00 0.000000000000000D+00 0.226524837910505D+03
 0.226524837910505D+03 0.000000000000000D+00 0.000000000000000D+00 -.226524837910505D+03
 0.149592294901631D+03 -.479039179442440D+02 -.384349251659058D+02 -.110175359825363D+03
 0.806138873002356D+02 0.339451725761518D+02 -.636542229801645D+02 0.359786600809683D+02
 0.477076009310309D+02 0.263032459475954D+02 -.320498583192400D+01 -.396721880545045D+02
 0.175135892688112D+03 -.123445005795031D+02 0.105294133977994D+03 0.113868887798899D+03
 0.000000000000000D+00 0.000000000000000D+00 -.000000000000000D+00 -.000000000000000D+00
 0.296137557263969D+03 0.000000000000000D+00 0.000000000000000D+00 0.296137557263969D+03
 0.357122325517049D+03 0.000000000000000D+00 0.000000000000000D+00 -.357122325517049D+03
 0.149135045208722D+03 -.591078373294845D+02 0.119037560719302D+02 -.110175359825363D+03
 0.608301996039159D+02 0.286402408393792D+02 -.398194149541746D+02 0.359786600809683D+02
 0.474915885922812D+02 0.227327523845843D+02 0.128370733038218D+02 -.396721880545045D+02
 0.223426317247942D+03 -.272927770528826D+02 0.172456034967730D+03 0.113868887798899D+03
 0.172376732128157D+03 0.350276211584035D+02 -.157377449389307D+03 -.609847682530796D+02
0.487381884384D-05 0.000000000000D+00 0.000000000000D+00 0.142014032180D-08 0.000000000000D+00  7 1 -1 24 -11 11 -24 21 0 0.29758521D+00 0.40812538D-02 0.27704311D+05 0.27704311D+05 0.27704311D+05 0.11705574D+01  1  2  2  1  7  1        1 0.467993759875D-03 0.100000000000D+01
-.239500040624D-06 0.000000000000D+00 -.187167476663D-07 0.142014032180D-08 0.000000000000D+00  7 1 -1 24 -11 11 -24 21 2 0.29758521D+00 0.40812538D-02 0.27704311D+05 0.27704311D+05 0.27704311D+05 0.11705574D+01  1  2  3  1  7  1        1 -.315109643515D-04 0.100000000000D+01
0.318008209833D-06 0.000000000000D+00 0.000000000000D+00 0.142014032180D-08 0.000000000000D+00  7 1 -1 24 -11 11 -24 21 2 0.29758521D+00 0.40812538D-02 0.27704311D+05 0.27704311D+05 0.27704311D+05 0.11705574D+01  1  2 15  1  7  1        1 0.418402658198D-04 0.100000000000D+01
  </mgrwgt>
  </event>
  <event>
  8     66 0.27727860E-05 0.24808033E+03 0.75467711E-02 0.92767915E-01
        1 -1    0    0  501    0 0.00000000E+00 0.00000000E+00 0.60712422E+03 0.60712431E+03 0.32000000E+00 0.0000E+00 0.9000E+01
       -1 -1    0    0    0  501 0.00000000E+00 0.00000000E+00 -.19071167E+04 0.19071168E+04 0.32000000E+00 0.0000E+00 0.9000E+01
       25  2    1    2    0    0 0.40558585E+03 -.35717891E+03 0.39458026E+03 0.73313228E+03 0.29952078E+03 0.0000E+00 0.0000E+00
       23  2    1    2    0    0 -.40558585E+03 0.35717891E+03 -.16945728E+04 0.17811088E+04 0.93246929E+02 0.0000E+00 0.0000E+00
       24  1    3    3    0    0 0.26766879E+03 -.27306415E+03 0.39080938E+03 0.55263894E+03 0.80419002E+02 0.0000E+00 0.9000E+01
      -11  1    4    4    0    0 -.95443689E+02 0.69334216E+02 -.50263606E+03 0.51629424E+03 0.51099893E-03 0.0000E+00 0.9000E+01
       11  1    4    4    0    0 -.31014216E+03 0.28784470E+03 -.11919367E+04 0.12648146E+04 0.51099893E-03 0.0000E+00 0.9000E+01
      -24  1    3    3    0    0 0.13791706E+03 -.84114759E+02 0.37708801E+01 0.18049333E+03 0.80419002E+02 0.0000E+00 0.9000E+01
#aMCatNLO 1  0  0  1  2 0.68011838D+02 0.00000000D+00  -5  7  0 0.00000000D+00 0.00000000D+00 0.00000000D+00 0.00000000D+00 0.00000000D+00
  <mgrwgt>
 0.6667672637D-03    9    2    0
 0.107603759664427D+04 0.000000000000000D+00 0.000000000000000D+00 0.107603759664427D+04
 0.107603759664427D+04 0.000000000000000D+00 0.000000000000000D+00 -.107603759664427D+04
 0.881714918308564D+03 0.267668791112598D+03 -.273064153147738D+03 0.790407089886937D+03
 0.299555083659060D+03 -.954436890334175D+02 0.693342163290506D+02 -.275347992212972D+03
 0.757659354179630D+03 -.310142161827870D+03 0.287844695592182D+03 -.628494206538194D+03
 0.213145837141279D+03 0.137917059748690D+03 -.841147587734945D+02 0.113435108864229D+03
 0.000000000000000D+00 0.000000000000000D+00 -.000000000000000D+00 0.000000000000000D+00
 0.111239480134547D+04 0.000000000000000D+00 0.000000000000000D+00 0.111239480134547D+04
 0.110885852014510D+04 0.000000000000000D+00 0.000000000000000D+00 -.110885852014510D+04
 0.871588882569687D+03 0.241117626925391D+03 -.265177085184666D+03 0.790407089886937D+03
 0.303220003485924D+03 -.104571816342973D+03 0.720457418937460D+02 -.275347992212972D+03
 0.770023566504356D+03 -.333276635176273D+03 0.294716829797003D+03 -.628494206538194D+03
 0.208317158511228D+03 0.131534632932073D+03 -.822188481566544D+02 0.113435108864229D+03
 0.681037104193707D+02 0.651961916617820D+02 -.193666383494284D+02 0.353628120037545D+01
0.306375116321D-02 0.000000000000D+00 0.000000000000D+00 0.609212737033D-05 0.000000000000D+00  7 1 -1 24 -11 11 -24 21 0 0.93403735D-01 0.29340258D+00 0.30930152D+06 0.30930152D+06 0.30930152D+06 0.10835721D+01  1  2  2  1  7  1        1 0.291946992096D-03 0.100000000000D+01
-.800602914502D-04 0.000000000000D+00 -.117656111709D-04 0.609212737033D-05 0.000000000000D+00  7 1 -1 24 -11 11 -24 21 2 0.93403735D-01 0.29340258D+00 0.30930152D+06 0.30930152D+06 0.30930152D+06 0.10835721D+01  1  2  3  1  7  1        1 -.895742829167D-05 0.100000000000D+01
0.178542431244D-03 0.000000000000D+00 0.000000000000D+00 0.609212737033D-05 0.000000000000D+00  7 1 -1 24 -11 11 -24 21 2 0.93403735D-01 0.29340258D+00 0.30930152D+06 0.30930152D+06 0.30930152D+06 0.10835721D+01  1  2 15  1  7  1        1 0.199759580676D-04 0.100000000000D+01
0.626842718455D-02 0.000000000000D+00 0.000000000000D+00 0.609212737033D-05 0.000000000000D+00  7 1 -1 24 -11 11 -24 21 2 0.97938882D-01 0.29340258D+00 0.34924440D+06 0.34924440D+06 0.34924440D+06 0.10797018D+01  1  2 12  1  7  1        1 0.642745286765D-03 0.100000000000D+01
-.498805011436D-02 0.000000000000D+00 0.000000000000D+00 0.609212737033D-05 0.000000000000D+00  7 1 -1 24 -11 11 -24 21 2 0.93403735D-01 0.29340258D+00 0.30930152D+06 0.30930152D+06 0.30930152D+06 0.10835721D+01  1  2  4  1  7  1        1 -.558080671521D-03 0.100000000000D+01
-.297501756512D-01 0.000000000000D+00 -.648058969027D-02 0.609212737033D-05 0.000000000000D+00  7 1 -1 24 -11 11 -24 21 2 0.99403294D-01 0.29340258D+00 0.30930152D+06 0.30930152D+06 0.30930152D+06 0.10835721D+01  1  2  5  1  7  1        1 -.303640917359D-02 0.100000000000D+01
0.301077944178D-01 0.000000000000D+00 0.646805201384D-02 0.609212737033D-05 0.000000000000D+00  7 1 -1 24 -11 11 -24 21 2 0.93403735D-01 0.29340258D+00 0.30930152D+06 0.30930152D+06 0.30930152D+06 0.10835721D+01  1  2  6  1  7  1        1 0.336856642204D-02 0.100000000000D+01
0.726548903661D-04 0.000000000000D+00 0.000000000000D+00 0.609212737033D-05 0.000000000000D+00  7 21 -1 24 -11 11 -24 -1 2 0.97938882D-01 0.29340258D+00 0.34924440D+06 0.34924440D+06 0.34924440D+06 0.10797018D+01  1  2 12  3  7  1        1 0.167063717813D-04 0.100000000000D+01
-.308342157580D-03 0.000000000000D+00 -.690629123910D-04 0.609212737033D-05 0.000000000000D+00  7 21 -1 24 -11 11 -24 -1 2 0.99403294D-01 0.29340258D+00 0.30930152D+06 0.30930152D+06 0.30930152D+06 0.10835721D+01  1  2  5  3  7  1        1 -.697264936731D-04 0.100000000000D+01
  </mgrwgt>
  </event>
  <event>
  8     66 0.27727860E-05 0.80751908E+02 0.75467711E-02 0.10350552E+00
        1 -1    0    0  501    0 0.00000000E+00 0.00000000E+00 0.17150614E+03 0.17150644E+03 0.32000000E+00 0.0000E+00 0.9000E+01
       -1 -1    0    0    0  501 0.00000000E+00 0.00000000E+00 -.40656622E+03 0.40656635E+03 0.32000000E+00 0.0000E+00 0.9000E+01
       25  2    1    2    0    0 0.12208686E+03 -.95487364E+02 -.20429738E+03 0.39503830E+03 0.30049093E+03 0.0000E+00 0.0000E+00
       23  2    1    2    0    0 -.12208686E+03 0.95487364E+02 -.30762703E+02 0.18303449E+03 0.92370137E+02 0.0000E+00 0.0000E+00
       24  1    3    3    0    0 0.14551141E+03 -.51499461E+02 -.23778525E+03 0.29467746E+03 0.80419002E+02 0.0000E+00 0.9000E+01
      -13  1    4    4    0    0 -.73958527E+02 0.40822050E+02 0.28481505E+02 0.89148812E+02 0.10565837E+00 0.0000E+00 0.9000E+01
       13  1    4    4    0    0 -.48128337E+02 0.54665314E+02 -.59244208E+02 0.93885679E+02 0.10565837E+00 0.0000E+00 0.9000E+01
      -24  1    3    3    0    0 -.23424544E+02 -.43987903E+02 0.33487868E+02 0.10036084E+03 0.80419002E+02 0.0000E+00 0.9000E+01
#aMCatNLO 1  0  0  2  1 0.60515450D+02 0.00000000D+00  -5  7  0 0.00000000D+00 0.00000000D+00 0.00000000D+00 0.00000000D+00 0.00000000D+00
  <mgrwgt>
 0.6070808166D-03    9    2    0
 0.264061974826167D+03 0.000000000000000D+00 0.000000000000000D+00 0.264061974826167D+03
 0.264061974826167D+03 0.000000000000000D+00 0.000000000000000D+00 -.264061974826167D+03
 0.216712761607671D+03 0.145511407674918D+03 -.514994631005119D+02 -.129117933015037D+03
 0.110257055102873D+03 -.739585621236414D+02 0.408220340275819D+02 0.708541517937549D+02
 0.763964307599653D+02 -.481283042831716D+02 0.546653328766294D+02 -.230604063532263D+02
 0.124757702181825D+03 -.234245412681054D+02 -.439879038036994D+02 0.813241875745081D+02
 0.000000000000000D+00 -.000000000000000D+00 -.000000000000000D+00 -.000000000000000D+00
 0.275381868146735D+03 0.000000000000000D+00 0.000000000000000D+00 0.275381868146735D+03
 0.361237158617181D+03 0.000000000000000D+00 0.000000000000000D+00 -.361237158617181D+03
 0.214740792063195D+03 0.149127595254100D+03 -.271276893452401D+02 -.129117933015037D+03
 0.114361682005138D+03 -.720759412012490D+02 0.535102063590293D+02 0.708541517937549D+02
 0.822829602024477D+02 -.467983478190558D+02 0.636287501048728D+02 -.230604063532263D+02
 0.120194311289862D+03 -.213714988929174D+02 -.301511535847305D+02 0.813241875745081D+02
 0.105039281203273D+03 -.888180734087734D+01 -.598601135339315D+02 -.858552904704460D+02
0.841106714511D-05 0.000000000000D+00 0.000000000000D+00 0.379483064083D-06 0.000000000000D+00  7 1 -1 24 -13 13 -24 21 0 0.26385593D-01 0.62548682D-01 0.45362046D+05 0.45362046D+05 0.45362046D+05 0.11510328D+01  1  2  2  2  7  2       -1 0.502577837454D-03 0.100000000000D+01
-.441026692550D-06 0.000000000000D+00 -.323007125221D-07 0.379483064083D-06 0.000000000000D+00  7 1 -1 24 -13 13 -24 21 2 0.26385593D-01 0.62548682D-01 0.45362046D+05 0.45362046D+05 0.45362046D+05 0.11510328D+01  1  2  3  2  7  2       -1 -.349134264785D-04 0.100000000000D+01
0.535587195695D-06 0.000000000000D+00 0.000000000000D+00 0.379483064083D-06 0.000000000000D+00  7 1 -1 24 -13 13 -24 21 2 0.26385593D-01 0.62548682D-01 0.45362046D+05 0.45362046D+05 0.45362046D+05 0.11510328D+01  1  2 15  2  7  2       -1 0.423992118745D-04 0.100000000000D+01
0.157487354378D-04 0.000000000000D+00 0.000000000000D+00 0.379483064083D-06 0.000000000000D+00  7 1 -1 24 -13 13 -24 21 2 0.26385593D-01 0.86537097D-01 0.59868441D+05 0.59868441D+05 0.59868441D+05 0.11404774D+01  1  2 12  2  7  2       -1 0.647893478448D-03 0.100000000000D+01
-.165357408024D-04 0.000000000000D+00 0.000000000000D+00 0.379483064083D-06 0.000000000000D+00  7 1 -1 24 -13 13 -24 21 2 0.26385593D-01 0.62548682D-01 0.45362046D+05 0.45362046D+05 0.45362046D+05 0.11510328D+01  1  2  4  2  7  2       -1 -.130903498705D-02 0.100000000000D+01
-.198791084000D-04 0.000000000000D+00 -.377309397569D-05 0.379483064083D-06 0.000000000000D+00  7 1 -1 24 -13 13 -24 21 2 0.26385593D-01 0.87793210D-01 0.45362046D+05 0.45362046D+05 0.45362046D+05 0.11510328D+01  1  2  5  2  7  2       -1 -.811794691707D-03 0.100000000000D+01
0.201935097459D-04 0.000000000000D+00 0.356616249903D-05 0.379483064083D-06 0.000000000000D+00  7 1 -1 24 -13 13 -24 21 2 0.26385593D-01 0.62548682D-01 0.45362046D+05 0.45362046D+05 0.45362046D+05 0.11510328D+01  1  2  6  2  7  2       -1 0.159859851970D-02 0.100000000000D+01
0.644413602295D-06 0.000000000000D+00 0.000000000000D+00 0.379483064083D-06 0.000000000000D+00  7 1 21 24 -13 13 -24 1 2 0.26385593D-01 0.86537097D-01 0.59868441D+05 0.59868441D+05 0.59868441D+05 0.11404774D+01  1  2 12  4  7  2       -1 0.204300893405D-03 0.100000000000D+01
-.737439690507D-06 0.000000000000D+00 -.159296093879D-06 0.379483064083D-06 0.000000000000D+00  7 1 21 24 -13 13 -24 1 2 0.26385593D-01 0.87793210D-01 0.45362046D+05 0.45362046D+05 0.45362046D+05 0.11510328D+01  1  2  5  4  7  2       -1 -.232946019064D-03 0.100000000000D+01
  </mgrwgt>
  </event>
  <event>
  8     66 0.27727860E-05 0.25698542E+03 0.75467711E-02 0.93639242E-01
        1 -1    0    0  501    0 0.00000000E+00 0.00000000E+00 0.15524401E+04 0.15524401E+04 0.32000000E+00 0.0000E+00 0.9000E+01
       -1 -1    0    0    0  501 0.00000000E+00 0.00000000E+00 -.67843873E+02 0.67844627E+02 0.32000000E+00 0.0000E+00 0.9000E+01
       25  2    1    2    0    0 -.13029304E+03 -.17804915E+03 0.62296448E+03 0.72575491E+03 0.29992944E+03 0.0000E+00 0.0000E+00
       23  2    1    2    0    0 0.13029304E+03 0.17804915E+03 0.86163176E+03 0.89452987E+03 0.95376172E+02 0.0000E+00 0.0000E+00
       24  1    3    3    0    0 -.98648409E+02 -.46068161E+02 0.73359211E+02 0.15395640E+03 0.80419002E+02 0.0000E+00 0.9000E+01
      -11  1    4    4    0    0 0.86834944E+02 0.11050159E+03 0.70085388E+03 0.71480562E+03 0.51099893E-03 0.0000E+00 0.9000E+01
       11  1    4    4    0    0 0.43458097E+02 0.67547558E+02 0.16077789E+03 0.17972425E+03 0.51099893E-03 0.0000E+00 0.9000E+01
      -24  1    3    3    0    0 -.31644631E+02 -.13198099E+03 0.54960527E+03 0.57179850E+03 0.80419002E+02 0.0000E+00 0.9000E+01
#aMCatNLO 1  0  0  1  1 0.43308320D+03 0.00000000D+00  -5  7  0 0.00000000D+00 0.00000000D+00 0.00000000D+00 0.00000000D+00 0.00000000D+00
  <mgrwgt>
 0.6775231104D-03    5    2    0
 0.324536881657178D+03 0.000000000000000D+00 0.000000000000000D+00 0.324536881657178D+03
 0.324536881657178D+03 0.000000000000000D+00 0.000000000000000D+00 -.324536881657178D+03
 0.216530715071962D+03 -.986484091348949D+02 -.460681608306195D+02 -.169010504253562D+03
 0.181340901221057D+03 0.868349436047587D+02 0.110501588634526D+03 0.114601980498024D+03
 0.809064083864815D+02 0.434580967954126D+02 0.675475583610172D+02 -.972461312267270D+01
 0.170295738634855D+03 -.316446312652763D+02 -.131980986164923D+03 0.641331368782103D+02
 0.000000000000000D+00 0.000000000000000D+00 0.000000000000000D+00 0.000000000000000D+00
 0.774624175305703D+03 0.000000000000000D+00 0.000000000000000D+00 0.774624175305703D+03
 0.512105125874030D+03 0.000000000000000D+00 0.000000000000000D+00 -.512105125874030D+03
 0.298233741605147D+03 -.116145432403770D+03 -.201051825809002D+03 -.169010504253562D+03
 0.138236941733604D+03 0.759723813554349D+02 0.142840959453074D+02 0.114601980498024D+03
 0.492244356212740D+02 0.390349040592634D+02 0.283681727809775D+02 -.972461312267270D+01
 0.294598293019464D+03 -.474465414086544D+02 -.271949820294349D+03 0.641331368782103D+02
 0.506435889200244D+03 0.485846883977258D+02 0.430349377377066D+03 0.262519049431673D+03
0.161786363728D-04 0.000000000000D+00 0.000000000000D+00 0.220162363250D-06 0.000000000000D+00  7 1 -1 24 -11 11 -24 21 0 0.23883700D+00 0.10437579D-01 0.66041507D+05 0.66041507D+05 0.66041507D+05 0.11368150D+01  1  2  2  1  7  1        1 0.668545522919D-03 0.100000000000D+01
-.839291129447D-06 0.000000000000D+00 -.621302236042D-07 0.220162363250D-06 0.000000000000D+00  7 1 -1 24 -11 11 -24 21 2 0.23883700D+00 0.10437579D-01 0.66041507D+05 0.66041507D+05 0.66041507D+05 0.11368150D+01  1  2  3  1  7  1        1 -.448209783740D-04 0.100000000000D+01
0.100782922771D-05 0.000000000000D+00 0.000000000000D+00 0.220162363250D-06 0.000000000000D+00  7 1 -1 24 -11 11 -24 21 2 0.23883700D+00 0.10437579D-01 0.66041507D+05 0.66041507D+05 0.66041507D+05 0.11368150D+01  1  2 15  1  7  1        1 0.538214815275D-04 0.100000000000D+01
-.530894765090D-07 0.000000000000D+00 -.420837708960D-05 0.220162363250D-06 0.000000000000D+00  7 1 -1 24 -11 11 -24 21 2 0.63366665D+00 0.10437579D-01 0.66041507D+05 0.66041507D+05 0.66041507D+05 0.11368150D+01  1  2  5  1  7  1        1 -.358215730257D-07 0.100000000000D+01
0.243436924055D-06 0.000000000000D+00 -.456590754346D-06 0.220162363250D-06 0.000000000000D+00  7 21 -1 24 -11 11 -24 -1 2 0.63366665D+00 0.10437579D-01 0.66041507D+05 0.66041507D+05 0.66041507D+05 0.11368150D+01  1  2  5  3  7  1        1 0.129059181653D-07 0.100000000000D+01
  </mgrwgt>
  </event>
  <event>
  9     66 0.27727860E-05 0.64527171E+03 0.75467711E-02 0.91625431E-01
        1 -1    0    0  501    0 0.00000000E+00 0.00000000E+00 0.12020921E+04 0.12020921E+04 0.32000000E+00 0.0000E+00 0.9000E+01
       21 -1    0    0  502  501 0.00000000E+00 0.00000000E+00 -.38506162E+03 0.38506235E+03 0.75000000E+00 0.0000E+00 0.9000E+01
       25  2    1    2    0    0 0.53012542E+03 0.35510125E+03 0.33418577E+03 0.78009561E+03 0.29956498E+03 0.0000E+00 0.0000E+00
       23  2    1    2    0    0 -.51014132E+03 -.34346420E+03 0.45081389E+03 0.76755115E+03 0.87691439E+02 0.0000E+00 0.0000E+00
       24  1    3    3    0    0 0.31616803E+03 0.28180493E+03 0.95418538E+02 0.44152934E+03 0.80419002E+02 0.0000E+00 0.9000E+01
      -11  1    4    4    0    0 -.16892069E+02 -.33692014E+02 0.17278900E+02 0.41461478E+02 0.51099893E-03 0.0000E+00 0.9000E+01
       11  1    4    4    0    0 -.49324925E+03 -.30977219E+03 0.43353499E+03 0.72608967E+03 0.51099893E-03 0.0000E+00 0.9000E+01
      -24  1    3    3    0    0 0.21395739E+03 0.73296314E+02 0.23876723E+03 0.33856628E+03 0.80419002E+02 0.0000E+00 0.9000E+01
        1  1    1    2  502    0 -.19984097E+02 -.11637047E+02 0.32030792E+02 0.39507709E+02 0.32000000E+00 0.0000E+00 0.9000E+01
#aMCatNLO 2  0  0  2  2 0.23125419D+02 0.00000000D+00  -5  7  0 0.00000000D+00 0.00000000D+00 0.00000000D+00 0.00000000D+00 0.00000000D+00
  <mgrwgt>
 0.8980396761D-04    1    2    0
 0.666792932262469D+03 0.000000000000000D+00 0.000000000000000D+00 0.666792932262469D+03
 0.666792932262469D+03 0.000000000000000D+00 0.000000000000000D+00 -.666792932262469D+03
 0.449037616325698D+03 0.309386191821258D+03 0.277855766170328D+03 -.149143965474082D+03
 0.384927895332017D+02 -.174647073791475D+02 -.340254695980270D+02 -.435273027442164D+01
 0.597537447685979D+03 -.502126526933807D+03 -.314941559499606D+03 0.757084304184319D+02
 0.248518010980059D+03 0.210205042491697D+03 0.711112629273051D+02 0.777882653300717D+02
 0.000000000000000D+00 -.000000000000000D+00 -.000000000000000D+00 0.000000000000000D+00
 0.687344751985174D+03 0.000000000000000D+00 0.000000000000000D+00 0.687344751985174D+03
 0.673430388565400D+03 0.000000000000000D+00 0.000000000000000D+00 -.673430388565400D+03
 0.456165955524821D+03 0.316168025889045D+03 0.281804932521759D+03 -.149143965474082D+03
 0.379399530455384D+02 -.168920691421427D+02 -.336920135396042D+02 -.435273027442164D+01
 0.587354575948538D+03 -.493249251873894D+03 -.309772185609212D+03 0.757084304184319D+02
 0.252325871330860D+03 0.213957391918197D+03 0.732963137477505D+02 0.777882653300717D+02
 0.269887847008164D+02 -.199840967912049D+02 -.116370471206933D+02 0.139143634197739D+02
0.249207974392D-05 0.000000000000D+00 0.000000000000D+00 0.867952946030D-06 0.187957036400D-10  7 1 21 24 -11 11 -24 1 2 0.18493704D+00 0.59240226D-01 0.43191279D+06 0.43191279D+06 0.43191279D+06 0.10730327D+01  1  2  1  4  7  2       -1 0.898039676092D-04 0.100000000000D+01
  </mgrwgt>
  </event>
  <event>
  8     66 0.27727860E-05 0.19140694E+03 0.75467711E-02 0.94810490E-01
        1 -1    0    0  501    0 0.00000000E+00 0.00000000E+00 0.53158482E+03 0.53158491E+03 0.32000000E+00 0.0000E+00 0.9000E+01
       -1 -1    0    0    0  501 0.00000000E+00 0.00000000E+00 -.85659356E+02 0.85659953E+02 0.32000000E+00 0.0000E+00 0.9000E+01
       25  2    1    2    0    0 0.72469120E+02 -.75743699E+01 0.30348962E+03 0.43284633E+03 0.29990140E+03 0.0000E+00 0.0000E+00
       23  2    1    2    0    0 -.72469120E+02 0.75743699E+01 0.14243584E+03 0.18439853E+03 0.91682647E+02 0.0000E+00 0.0000E+00
       24  1    3    3    0    0 -.32858611E+01 0.11456305E+03 0.17405452E+03 0.22337789E+03 0.80419002E+02 0.0000E+00 0.9000E+01
      -13  1    4    4    0    0 -.30064799E+02 0.17188215E+02 -.86924444E+00 0.34642367E+02 0.10565837E+00 0.0000E+00 0.9000E+01
       13  1    4    4    0    0 -.42404321E+02 -.96138450E+01 0.14330508E+03 0.14975617E+03 0.10565837E+00 0.0000E+00 0.9000E+01
      -24  1    3    3    0    0 0.75754981E+02 -.12213742E+03 0.12943511E+03 0.20946844E+03 0.80419002E+02 0.0000E+00 0.9000E+01
#aMCatNLO 1  0  0  1  2 0.42479760D+03 0.00000000D+00  -5  7  0 0.00000000D+00 0.00000000D+00 0.00000000D+00 0.00000000D+00 0.00000000D+00
  <mgrwgt>
 0.7582171317D-03    3    2    0
 0.213390315970589D+03 0.000000000000000D+00 0.000000000000000D+00 0.213390315970589D+03
 0.213390315970589D+03 0.000000000000000D+00 0.000000000000000D+00 -.213390315970589D+03
 0.141204879138972D+03 -.328584415863181D+01 0.114563035705200D+03 0.183334671149634D+02
 0.510108296897869D+02 -.300647947908318D+02 0.171882509874480D+02 -.374536632095995D+02
 0.668560209624869D+02 -.424043539833620D+02 -.961387806258192D+01 0.507855456876071D+02
 0.167708902149933D+03 0.757549929328256D+02 -.122137408630066D+03 -.316653495929710D+02
 0.000000000000000D+00 -.000000000000000D+00 0.000000000000000D+00 -.000000000000000D+00
 0.467962071068688D+03 0.000000000000000D+00 0.000000000000000D+00 0.467962071068688D+03
 0.571407995735184D+03 0.000000000000000D+00 0.000000000000000D+00 -.571407995735184D+03
 0.980302114011280D+02 0.447932865770508D+02 0.282869555475677D+02 0.183334671149634D+02
 0.424611169509863D+02 -.112797163455474D+02 -.165208221366618D+02 -.374536632095995D+02
 0.821421948674528D+02 -.124601485488739D+02 -.633475589505591D+02 0.507855456876071D+02
 0.379524853385909D+03 0.185732685653351D+03 -.319487986469560D+03 -.316653495929710D+02
 0.437211690198395D+03 -.206786107335981D+03 0.371069412009213D+03 -.103445924666496D+03
0.415184397293D-05 0.000000000000D+00 0.000000000000D+00 0.815871310749D-06 0.000000000000D+00  7 1 -1 24 -13 13 -24 21 0 0.81782333D-01 0.13178416D-01 0.36636615D+05 0.36636615D+05 0.36636615D+05 0.11593677D+01  1  2  2  1  7  1        1 0.750526221463D-03 0.100000000000D+01
-.227343034107D-06 0.000000000000D+00 -.159441740617D-07 0.815871310749D-06 0.000000000000D+00  7 1 -1 24 -13 13 -24 21 2 0.81782333D-01 0.13178416D-01 0.36636615D+05 0.36636615D+05 0.36636615D+05 0.11593677D+01  1  2  3  1  7  1        1 -.552393886684D-04 0.100000000000D+01
0.258995717129D-06 0.000000000000D+00 0.000000000000D+00 0.815871310749D-06 0.000000000000D+00  7 1 -1 24 -13 13 -24 21 2 0.81782333D-01 0.13178416D-01 0.36636615D+05 0.36636615D+05 0.36636615D+05 0.11593677D+01  1  2 15  1  7  1        1 0.629302988681D-04 0.100000000000D+01
  </mgrwgt>
  </event>
  <event>
  8     66 0.27727860E-05 0.15132847E+03 0.75467711E-02 0.10188694E+00
        1 -1    0    0  501    0 0.00000000E+00 0.00000000E+00 0.36070526E+03 0.36070540E+03 0.32000000E+00 0.0000E+00 0.9000E+01
       -1 -1    0    0    0  501 0.00000000E+00 0.00000000E+00 -.19481537E+03 0.19481564E+03 0.32000000E+00 0.0000E+00 0.9000E+01
       25  2    1    2    0    0 0.31877933E+02 0.87865376E+02 0.24861939E+03 0.40079798E+03 0.30015145E+03 0.0000E+00 0.0000E+00
       23  2    1    2    0    0 -.31877933E+02 -.87865376E+02 -.82729504E+02 0.15472305E+03 0.91424973E+02 0.0000E+00 0.0000E+00
       24  1    3    3    0    0 -.61736232E+02 0.11657556E+03 0.22337845E+03 0.27159965E+03 0.80419002E+02 0.0000E+00 0.9000E+01
      -13  1    4    4    0    0 -.53849094E+02 -.32863637E+02 -.15181778E+02 0.64886371E+02 0.10565837E+00 0.0000E+00 0.9000E+01
       13  1    4    4    0    0 0.21971161E+02 -.55001738E+02 -.67547726E+02 0.89836683E+02 0.10565837E+00 0.0000E+00 0.9000E+01
      -24  1    3    3    0    0 0.93614165E+02 -.28710188E+02 0.25240940E+02 0.12919833E+03 0.80419002E+02 0.0000E+00 0.9000E+01
#aMCatNLO 1  0  0  1  2 0.13115740D+03 0.00000000D+00  -5  7  0 0.00000000D+00 0.00000000D+00 0.00000000D+00 0.00000000D+00 0.00000000D+00
  <mgrwgt>
 0.4150120843D-03    9    2    0
 0.265086855913365D+03 0.000000000000000D+00 0.000000000000000D+00 0.265086855913365D+03
 0.265086855913365D+03 0.000000000000000D+00 0.000000000000000D+00 -.265086855913365D+03
 0.214690191253931D+03 -.617362318943689D+02 0.116575564847568D+03 0.149075275006401D+03
 0.727388316627253D+02 -.538491917835567D+02 -.328636084306166D+02 -.362102943489159D+02
 0.115267278897034D+03 0.219712585679883D+02 -.550017688693963D+02 -.988868788186927D+02
 0.127477410013040D+03 0.936141651099373D+02 -.287101875475555D+02 -.139781018387927D+02
 0.000000000000000D+00 -.000000000000000D+00 0.000000000000000D+00 0.000000000000000D+00
 0.348905885636069D+03 0.000000000000000D+00 0.000000000000000D+00 0.348905885636069D+03
 0.329792869707075D+03 0.000000000000000D+00 0.000000000000000D+00 -.329792869707075D+03
 0.190626587811342D+03 -.555049749503623D+02 0.675798798737473D+02 0.149075275006401D+03
 0.813159123670028D+02 -.514807857784902D+02 -.514861232068619D+02 -.362102943489159D+02
 0.132925737470110D+03 0.257869270440339D+02 -.850039485735547D+02 -.988868788186927D+02
 0.141287808758131D+03 0.977461064019745D+02 -.611991854646925D+02 -.139781018387927D+02
 0.132542708936559D+03 -.165472727171560D+02 0.130109377371362D+03 0.191130159289940D+02
0.469922610141D-05 0.000000000000D+00 0.000000000000D+00 0.976253092320D-06 0.000000000000D+00  7 1 -1 24 -13 13 -24 21 0 0.55493147D-01 0.29971627D-01 0.40706279D+05 0.40706279D+05 0.40706279D+05 0.11552348D+01  1  2  2  1  7  1        1 0.387307503773D-03 0.100000000000D+01
-.237413019636D-06 0.000000000000D+00 -.180462655641D-07 0.976253092320D-06 0.000000000000D+00  7 1 -1 24 -13 13 -24 21 2 0.55493147D-01 0.29971627D-01 0.40706279D+05 0.40706279D+05 0.40706279D+05 0.11552348D+01  1  2  3  1  7  1        1 -.261140726531D-04 0.100000000000D+01
0.282736150368D-06 0.000000000000D+00 0.000000000000D+00 0.976253092320D-06 0.000000000000D+00  7 1 -1 24 -13 13 -24 21 2 0.55493147D-01 0.29971627D-01 0.40706279D+05 0.40706279D+05 0.40706279D+05 0.11552348D+01  1  2 15  1  7  1        1 0.310993574981D-04 0.100000000000D+01
0.655572859904D-06 0.000000000000D+00 0.000000000000D+00 0.976253092320D-06 0.000000000000D+00  7 1 -1 24 -13 13 -24 21 2 0.78004382D-01 0.29971627D-01 0.76230304D+05 0.76230304D+05 0.76230304D+05 0.11315251D+01  1  2 12  1  7  1        1 0.437107146566D-04 0.100000000000D+01
-.201094450418D-05 0.000000000000D+00 0.000000000000D+00 0.976253092320D-06 0.000000000000D+00  7 1 -1 24 -13 13 -24 21 2 0.55493147D-01 0.29971627D-01 0.40706279D+05 0.40706279D+05 0.40706279D+05 0.11552348D+01  1  2  4  1  7  1        1 -.221192380115D-03 0.100000000000D+01
-.248630743790D-05 0.000000000000D+00 -.187245499630D-05 0.976253092320D-06 0.000000000000D+00  7 1 -1 24 -13 13 -24 21 2 0.87963154D-01 0.29971627D-01 0.40706279D+05 0.40706279D+05 0.40706279D+05 0.11552348D+01  1  2  5  1  7  1        1 -.147099802997D-03 0.100000000000D+01
0.318717998192D-05 0.000000000000D+00 0.168995238706D-05 0.976253092320D-06 0.000000000000D+00  7 1 -1 24 -13 13 -24 21 2 0.55493147D-01 0.29971627D-01 0.40706279D+05 0.40706279D+05 0.40706279D+05 0.11552348D+01  1  2  6  1  7  1        1 0.350571547145D-03 0.100000000000D+01
0.277638212300D-07 0.000000000000D+00 0.000000000000D+00 0.976253092320D-06 0.000000000000D+00  7 21 -1 24 -13 13 -24 -1 2 0.78004382D-01 0.29971627D-01 0.76230304D+05 0.76230304D+05 0.76230304D+05 0.11315251D+01  1  2 12  3  7  1        1 0.555934296208D-05 0.100000000000D+01
-.548282921540D-07 0.000000000000D+00 -.990525505516D-07 0.976253092320D-06 0.000000000000D+00  7 21 -1 24 -13 13 -24 -1 2 0.87963154D-01 0.29971627D-01 0.40706279D+05 0.40706279D+05 0.40706279D+05 0.11552348D+01  1  2  5  3  7  1        1 -.883012594848D-05 0.100000000000D+01
  </mgrwgt>
  </event>
  <event>
  8     66 0.27727860E-05 0.22999076E+03 0.75467711E-02 0.97784219E-01
        1 -1    0    0  501    0 0.00000000E+00 0.00000000E+00 0.37449098E+04 0.37449098E+04 0.32000000E+00 0.0000E+00 0.9000E+01
       -1 -1    0    0    0  501 0.00000000E+00 0.00000000E+00 -.57360675E+02 0.57361568E+02 0.32000000E+00 0.0000E+00 0.9000E+01
       25  2    1    2    0    0 -.32342556E+03 0.75614217E+02 0.10380741E+04 0.11304673E+04 0.30006124E+03 0.0000E+00 0.0000E+00
       23  2    1    2    0    0 0.32342556E+03 -.75614217E+02 0.26494750E+04 0.26718041E+04 0.92183804E+02 0.0000E+00 0.0000E+00
       24  1    3    3    0    0 -.29649618E+03 0.59179800E+02 0.97371799E+03 0.10227444E+04 0.80419002E+02 0.0000E+00 0.9000E+01
      -11  1    4    4    0    0 0.74332006E+02 -.11148491E+02 0.35007702E+03 0.35805511E+03 0.51099893E-03 0.0000E+00 0.9000E+01
       11  1    4    4    0    0 0.24909355E+03 -.64465726E+02 0.22993980E+04 0.23137490E+04 0.51099893E-03 0.0000E+00 0.9000E+01
      -24  1    3    3    0    0 -.26929385E+02 0.16434416E+02 0.64356143E+02 0.10772284E+03 0.80419002E+02 0.0000E+00 0.9000E+01
#aMCatNLO 1  0  0  1  2 0.31714165D+02 0.00000000D+00  -5  7  0 0.00000000D+00 0.00000000D+00 0.00000000D+00 0.00000000D+00 0.00000000D+00
  <mgrwgt>
 0.1078522767D-02    9    2    0
 0.463478455854164D+03 0.000000000000000D+00 0.000000000000000D+00 0.463478455854164D+03
 0.463478455854164D+03 0.000000000000000D+00 0.000000000000000D+00 -.463478455854164D+03
 0.321610374323056D+03 -.296496175390116D+03 0.591798001157780D+02 -.745237288059026D+02
 0.760514942467574D+02 0.743320063045437D+02 -.111484908728470D+02 0.115885187648759D+02
 0.343444930546349D+03 0.249093554112496D+03 -.644657256441101D+02 0.227488443299368D+03
 0.185850112592165D+03 -.269293850269236D+02 0.164344164011791D+02 -.164553233258342D+03
 0.000000000000000D+00 0.000000000000000D+00 -.000000000000000D+00 0.000000000000000D+00
 0.506864277152634D+03 0.000000000000000D+00 0.000000000000000D+00 0.506864277152634D+03
 0.469581694994012D+03 0.000000000000000D+00 0.000000000000000D+00 -.469581694994012D+03
 0.325283323148458D+03 -.298112151679639D+03 0.701240560003062D+02 -.745237288059026D+02
 0.753471780006630D+02 0.739538040348766D+02 -.858710278678274D+01 0.115885187648759D+02
 0.340219095247587D+03 0.247385723506013D+03 -.528993831884936D+02 0.227488443299368D+03
 0.186649678228189D+03 -.278599101381911D+02 0.227364302306625D+02 -.164553233258342D+03
 0.489466975217492D+02 0.463253427694029D+01 -.313740002556924D+02 0.372825821586219D+02
0.307509505482D-03 0.000000000000D+00 0.000000000000D+00 0.600212584772D-05 0.000000000000D+00  7 1 -1 24 -11 11 -24 21 0 0.57614004D+00 0.88247890D-02 0.13384854D+06 0.13384854D+06 0.13384854D+06 0.11114777D+01  1  2  2  1  7  1        1 0.430021089186D-03 0.100000000000D+01
-.159217919532D-04 0.000000000000D+00 -.118091747016D-05 0.600212584772D-05 0.000000000000D+00  7 1 -1 24 -11 11 -24 21 2 0.57614004D+00 0.88247890D-02 0.13384854D+06 0.13384854D+06 0.13384854D+06 0.11114777D+01  1  2  3  1  7  1        1 -.275058229828D-04 0.100000000000D+01
0.189482369942D-04 0.000000000000D+00 0.000000000000D+00 0.600212584772D-05 0.000000000000D+00  7 1 -1 24 -11 11 -24 21 2 0.57614004D+00 0.88247890D-02 0.13384854D+06 0.13384854D+06 0.13384854D+06 0.11114777D+01  1  2 15  1  7  1        1 0.327341830700D-04 0.100000000000D+01
0.871995345407D-03 0.000000000000D+00 0.000000000000D+00 0.600212584772D-05 0.000000000000D+00  7 1 -1 24 -11 11 -24 21 2 0.63364311D+00 0.88247890D-02 0.14587334D+06 0.14587334D+06 0.14587334D+06 0.11085092D+01  1  2 12  1  7  1        1 0.682605167829D-03 0.100000000000D+01
-.899320170417D-03 0.000000000000D+00 0.000000000000D+00 0.600212584772D-05 0.000000000000D+00  7 1 -1 24 -11 11 -24 21 2 0.57614004D+00 0.88247890D-02 0.13384854D+06 0.13384854D+06 0.13384854D+06 0.11114777D+01  1  2  4  1  7  1        1 -.155362797636D-02 0.100000000000D+01
-.157712171553D-02 0.000000000000D+00 -.209516675535D-03 0.600212584772D-05 0.000000000000D+00  7 1 -1 24 -11 11 -24 21 2 0.63159733D+00 0.88247890D-02 0.13384854D+06 0.13384854D+06 0.13384854D+06 0.11114777D+01  1  2  5  1  7  1        1 -.128595763497D-02 0.100000000000D+01
0.162130904844D-02 0.000000000000D+00 0.215775138482D-03 0.600212584772D-05 0.000000000000D+00  7 1 -1 24 -11 11 -24 21 2 0.57614004D+00 0.88247890D-02 0.13384854D+06 0.13384854D+06 0.13384854D+06 0.11114777D+01  1  2  6  1  7  1        1 0.280090581624D-02 0.100000000000D+01
0.135730470488D-04 0.000000000000D+00 0.000000000000D+00 0.600212584772D-05 0.000000000000D+00  7 21 -1 24 -11 11 -24 -1 2 0.63364311D+00 0.88247890D-02 0.14587334D+06 0.14587334D+06 0.14587334D+06 0.11085092D+01  1  2 12  3  7  1        1 0.807107094186D-06 0.100000000000D+01
-.232139300269D-04 0.000000000000D+00 -.316227718623D-05 0.600212584772D-05 0.000000000000D+00  7 21 -1 24 -11 11 -24 -1 2 0.63159733D+00 0.88247890D-02 0.13384854D+06 0.13384854D+06 0.13384854D+06 0.11114777D+01  1  2  5  3  7  1        1 -.145916242072D-05 0.100000000000D+01
  </mgrwgt>
  </event>
  <event>
  8     66 0.27727860E-05 0.23419808E+03 0.75467711E-02 0.10071923E+00
        1 -1    0    0  501    0 0.00000000E+00 0.00000000E+00 0.27363131E+03 0.27363150E+03 0.32000000E+00 0.0000E+00 0.9000E+01
       -1 -1    0    0    0  501 0.00000000E+00 0.00000000E+00 -.64456179E+03 0.64456187E+03 0.32000000E+00 0.0000E+00 0.9000E+01
       25  2    1    2    0    0 -.66283659E+02 -.18580413E+03 -.53514266E+03 0.64591916E+03 0.30317851E+03 0.0000E+00 0.0000E+00
       23  2    1    2    0    0 0.66283659E+02 0.18580413E+03 0.16421218E+03 0.27227421E+03 0.90834497E+02 0.0000E+00 0.0000E+00
       24  1    3    3    0    0 -.49456425E+02 -.14042269E+03 -.52490198E+03 0.55150138E+03 0.80419002E+02 0.0000E+00 0.9000E+01
      -13  1    4    4    0    0 0.27706242E+02 0.17757261E+02 -.17563674E+01 0.32955305E+02 0.10565837E+00 0.0000E+00 0.9000E+01
       13  1    4    4    0    0 0.38577417E+02 0.16804687E+03 0.16596854E+03 0.23931890E+03 0.10565837E+00 0.0000E+00 0.9000E+01
      -24  1    3    3    0    0 -.16827233E+02 -.45381442E+02 -.10240680E+02 0.94417787E+02 0.80419002E+02 0.0000E+00 0.9000E+01
#aMCatNLO 1  0  0  2  1 0.12309090D+03 0.00000000D+00  -5  7  0 0.00000000D+00 0.00000000D+00 0.00000000D+00 0.00000000D+00 0.00000000D+00
  <mgrwgt>
 0.6560487917D-03    4    2    0
 0.419967154420423D+03 0.000000000000000D+00 0.000000000000000D+00 0.419967154420423D+03
 0.419967154420423D+03 0.000000000000000D+00 0.000000000000000D+00 -.419967154420423D+03
 0.371079930398261D+03 -.494564258039459D+02 -.140422687694057D+03 -.330255400436516D+03
 0.352497946990422D+02 0.277062270439836D+02 0.177570574991553D+02 0.126332861237109D+02
 0.334912097922737D+03 0.385774323407556D+02 0.168047073071514D+03 0.287120316733422D+03
 0.986924858208063D+02 -.168272335807932D+02 -.453814428766126D+02 0.305017975793837D+02
 0.000000000000000D+00 -.000000000000000D+00 0.000000000000000D+00 0.000000000000000D+00
 0.556612504880379D+03 0.000000000000000D+00 0.000000000000000D+00 0.556612504880379D+03
 0.453114002717717D+03 0.000000000000000D+00 0.000000000000000D+00 -.453114002717717D+03
 0.387191761312780D+03 -.163793694939485D+02 -.184697944795331D+03 -.330255400436516D+03
 0.359716613526839D+02 0.308130239059199D+02 0.135984579994144D+02 0.126332861237109D+02
 0.322143698176640D+03 0.672392850829406D+02 0.129681781817481D+03 0.287120316733422D+03
 0.103598652386661D+03 -.800296196067885D+01 -.571931618836014D+02 0.305017975793837D+02
 0.160820734369332D+03 -.736699775342331D+02 0.986108668620362D+02 0.103498502162662D+03
0.608673876185D-04 0.000000000000D+00 0.000000000000D+00 0.246889318799D-06 0.000000000000D+00  7 1 -1 24 -13 13 -24 21 0 0.42097145D-01 0.99163373D-01 0.54848742D+05 0.54848742D+05 0.54848742D+05 0.11437764D+01  1  2  2  2  7  2       -1 0.791115441909D-03 0.100000000000D+01
-.197924684490D-05 0.000000000000D+00 -.233746795206D-06 0.246889318799D-06 0.000000000000D+00  7 1 -1 24 -13 13 -24 21 2 0.42097145D-01 0.99163373D-01 0.54848742D+05 0.54848742D+05 0.54848742D+05 0.11437764D+01  1  2  3  2  7  2       -1 -.336540570664D-04 0.100000000000D+01
0.355215300060D-05 0.000000000000D+00 0.000000000000D+00 0.246889318799D-06 0.000000000000D+00  7 1 -1 24 -13 13 -24 21 2 0.42097145D-01 0.99163373D-01 0.54848742D+05 0.54848742D+05 0.54848742D+05 0.11437764D+01  1  2 15  2  7  2       -1 0.603989139093D-04 0.100000000000D+01
-.951638354475D-05 0.000000000000D+00 0.000000000000D+00 0.246889318799D-06 0.000000000000D+00  7 1 -1 24 -13 13 -24 21 2 0.42097145D-01 0.99163373D-01 0.54848742D+05 0.54848742D+05 0.54848742D+05 0.11437764D+01  1  2  4  2  7  2       -1 -.161811507092D-03 0.100000000000D+01
  </mgrwgt>
  </event>
  <event>
  8     66 0.27727860E-05 0.24808436E+03 0.75467711E-02 0.91794705E-01
        1 -1    0    0  501    0 0.00000000E+00 0.00000000E+00 0.20167108E+04 0.20167108E+04 0.32000000E+00 0.0000E+00 0.9000E+01
       -1 -1    0    0    0  501 0.00000000E+00 0.00000000E+00 -.39488375E+02 0.39489672E+02 0.32000000E+00 0.0000E+00 0.9000E+01
       25  2    1    2    0    0 -.87347992E+02 -.13769347E+03 0.15910637E+04 0.16272807E+04 0.29994922E+03 0.0000E+00 0.0000E+00
       23  2    1    2    0    0 0.87347992E+02 0.13769347E+03 0.38615869E+03 0.42891979E+03 0.90909224E+02 0.0000E+00 0.0000E+00
       24  1    3    3    0    0 -.34704455E+02 0.64720363E+02 0.36467051E+03 0.38058498E+03 0.80419002E+02 0.0000E+00 0.9000E+01
      -11  1    4    4    0    0 0.60094729E+02 0.89056498E+02 0.33990178E+03 0.35647673E+03 0.51099893E-03 0.0000E+00 0.9000E+01
       11  1    4    4    0    0 0.27253263E+02 0.48636975E+02 0.46256913E+02 0.72443065E+02 0.51099893E-03 0.0000E+00 0.9000E+01
      -24  1    3    3    0    0 -.52643537E+02 -.20241384E+03 0.12263932E+04 0.12466957E+04 0.80419002E+02 0.0000E+00 0.9000E+01
#aMCatNLO 1  0  0  2  2 0.56417024D+03 0.00000000D+00  -5  7  0 0.00000000D+00 0.00000000D+00 0.00000000D+00 0.00000000D+00 0.00000000D+00
  <mgrwgt>
 0.8738878556D-03    5    2    0
 0.282202041275156D+03 0.000000000000000D+00 0.000000000000000D+00 0.282202041275156D+03
 0.282202041275156D+03 0.000000000000000D+00 0.000000000000000D+00 -.282202041275156D+03
 0.109007539041364D+03 -.347044549054213D+02 0.647203632766542D+02 -.472260527035117D+01
 0.107947836943705D+03 0.600947288956274D+02 0.890564976026354D+02 -.105023470966029D+02
 0.101872509241068D+03 0.272532628009552D+02 0.486369745051696D+02 -.852626091364613D+02
 0.245576197324176D+03 -.526435367911614D+02 -.202413835384459D+03 0.100487561503415D+03
 0.000000000000000D+00 0.000000000000000D+00 0.000000000000000D+00 -.000000000000000D+00
 0.581268099765963D+03 0.000000000000000D+00 0.000000000000000D+00 0.581268099765963D+03
 0.835604112424704D+03 0.000000000000000D+00 0.000000000000000D+00 -.835604112424704D+03
 0.139335864902491D+03 -.113682268259703D+03 -.114288080921766D+01 -.472260527035117D+01
 0.494829766666666D+02 0.100288072078359D+02 0.473042145188396D+02 -.105023470966029D+02
 0.919808535369724D+02 -.343957057661552D+02 -.277494603210230D+01 -.852626091364613D+02
 0.517222881413309D+03 -.295227806438069D+03 -.404716055268355D+03 0.100487561503415D+03
 0.618849635671228D+03 0.433276973256092D+03 0.361329667590836D+03 -.254336012658741D+03
0.157791616103D-04 0.000000000000D+00 0.000000000000D+00 0.157382060469D-05 0.000000000000D+00  7 1 -1 24 -11 11 -24 21 0 0.31026330D+00 0.60752364D-02 0.61545847D+05 0.61545847D+05 0.61545847D+05 0.11394425D+01  1  2  2  2  7  2       -1 0.738183767746D-03 0.100000000000D+01
-.858923413033D-06 0.000000000000D+00 -.605961353321D-07 0.157382060469D-05 0.000000000000D+00  7 1 -1 24 -11 11 -24 21 2 0.31026330D+00 0.60752364D-02 0.61545847D+05 0.61545847D+05 0.61545847D+05 0.11394425D+01  1  2  3  2  7  2       -1 -.521698777806D-04 0.100000000000D+01
0.991605834767D-06 0.000000000000D+00 0.000000000000D+00 0.157382060469D-05 0.000000000000D+00  7 1 -1 24 -11 11 -24 21 2 0.31026330D+00 0.60752364D-02 0.61545847D+05 0.61545847D+05 0.61545847D+05 0.11394425D+01  1  2 15  2  7  2       -1 0.602288334692D-04 0.100000000000D+01
0.235455030596D-04 0.000000000000D+00 -.101775882686D-04 0.157382060469D-05 0.000000000000D+00  7 1 -1 24 -11 11 -24 21 2 0.31026330D+00 0.52981817D-01 0.61545847D+05 0.61545847D+05 0.61545847D+05 0.11394425D+01  1  2  5  2  7  2       -1 0.444783314256D-04 0.100000000000D+01
0.476993625812D-05 0.000000000000D+00 -.265796137578D-05 0.157382060469D-05 0.000000000000D+00  7 1 21 24 -11 11 -24 1 2 0.31026330D+00 0.52981817D-01 0.61545847D+05 0.61545847D+05 0.61545847D+05 0.11394425D+01  1  2  5  4  7  2       -1 0.831668007630D-04 0.100000000000D+01
  </mgrwgt>
  </event>
  <event>
  8     66 0.27727860E-05 0.29383363E+03 0.75467711E-02 0.93365859E-01
        1 -1    0    0  501    0 0.00000000E+00 0.00000000E+00 0.59753572E+03 0.59753581E+03 0.32000000E+00 0.0000E+00 0.9000E+01
       -1 -1    0    0    0  501 0.00000000E+00 0.00000000E+00 -.45413185E+03 0.45413196E+03 0.32000000E+00 0.0000E+00 0.9000E+01
       25  2    1    2    0    0 -.20248683E+03 -.15711901E+03 -.32277608E+03 0.50946647E+03 0.29947352E+03 0.0000E+00 0.0000E+00
       23  2    1    2    0    0 0.20248683E+03 0.15711901E+03 0.46617995E+03 0.54220131E+03 0.10474356E+03 0.0000E+00 0.0000E+00
       24  1    3    3    0    0 -.13086665E+03 -.37286532E+02 -.10903001E+02 0.15843755E+03 0.80419002E+02 0.0000E+00 0.9000E+01
      -13  1    4    4    0    0 -.75274689E+01 0.75677982E+01 0.61155295E+02 0.62079914E+02 0.10565837E+00 0.0000E+00 0.9000E+01
       13  1    4    4    0    0 0.21001430E+03 0.14955121E+03 0.40502465E+03 0.48012139E+03 0.10565837E+00 0.0000E+00 0.9000E+01
      -24  1    3    3    0    0 -.71620188E+02 -.11983248E+03 -.31187308E+03 0.35102892E+03 0.80419002E+02 0.0000E+00 0.9000E+01
#aMCatNLO 1  0  0  2  1 0.43930418D+03 0.00000000D+00  -5  7  0 0.00000000D+00 0.00000000D+00 0.00000000D+00 0.00000000D+00 0.00000000D+00
  <mgrwgt>
 0.1147450002D-02    5    2    0
 0.520922363284176D+03 0.000000000000000D+00 0.000000000000000D+00 0.520922363284176D+03
 0.520922363284176D+03 0.000000000000000D+00 0.000000000000000D+00 -.520922363284176D+03
 0.161432110852350D+03 -.130866645771080D+03 -.372865321418732D+02 -.328138081504550D+02
 0.542471792907187D+02 -.752767989388325D+01 0.756765723817014D+01 0.531866624290355D+02
 0.428899314291649D+03 0.210014514478954D+03 0.149551351424718D+03 0.342757813616344D+03
 0.397266122133635D+03 -.716201888139913D+02 -.119832476521015D+03 -.363130667894924D+03
 0.000000000000000D+00 0.000000000000000D+00 0.000000000000000D+00 -.000000000000000D+00
 0.744744485162956D+03 0.000000000000000D+00 0.000000000000000D+00 0.744744485162956D+03
 0.834264048063304D+03 0.000000000000000D+00 0.000000000000000D+00 -.834264048063304D+03
 0.224628180750097D+03 -.184686546732468D+03 -.938335605390133D+02 -.328138081504550D+02
 0.587493942039165D+02 -.232803085033026D+02 -.898317844518603D+01 0.531866624290355D+02
 0.358739196673355D+03 0.100211388968278D+03 0.341843524998873D+02 0.342757813616344D+03
 0.488559394777524D+03 -.195111370440936D+03 -.249581123945414D+03 -.363130667894924D+03
 0.448332366821367D+03 0.302866836708429D+03 0.318213510429726D+03 -.895195629003478D+02
0.113616480528D-03 0.000000000000D+00 0.000000000000D+00 0.672589110044D-07 0.000000000000D+00  7 1 -1 24 -13 13 -24 21 0 0.91928588D-01 0.69866454D-01 0.86338199D+05 0.86338199D+05 0.86338199D+05 0.11269952D+01  1  2  2  2  7  2       -1 0.104354734215D-02 0.100000000000D+01
-.379589271496D-05 0.000000000000D+00 -.436317201134D-06 0.672589110044D-07 0.000000000000D+00  7 1 -1 24 -13 13 -24 21 2 0.91928588D-01 0.69866454D-01 0.86338199D+05 0.86338199D+05 0.86338199D+05 0.11269952D+01  1  2  3  2  7  2       -1 -.442821711468D-04 0.100000000000D+01
0.675390773501D-05 0.000000000000D+00 0.000000000000D+00 0.672589110044D-07 0.000000000000D+00  7 1 -1 24 -13 13 -24 21 2 0.91928588D-01 0.69866454D-01 0.86338199D+05 0.86338199D+05 0.86338199D+05 0.11269952D+01  1  2 15  2  7  2       -1 0.787898185459D-04 0.100000000000D+01
0.123457134866D-04 0.000000000000D+00 -.337286526467D-04 0.672589110044D-07 0.000000000000D+00  7 1 -1 24 -13 13 -24 21 2 0.91928588D-01 0.14781136D+00 0.86338199D+05 0.86338199D+05 0.86338199D+05 0.11269952D+01  1  2  5  2  7  2       -1 0.263589960112D-04 0.100000000000D+01
0.309703662987D-05 0.000000000000D+00 -.273400921330D-05 0.672589110044D-07 0.000000000000D+00  7 1 21 24 -13 13 -24 1 2 0.91928588D-01 0.14781136D+00 0.86338199D+05 0.86338199D+05 0.86338199D+05 0.11269952D+01  1  2  5  4  7  2       -1 0.430360159727D-04 0.100000000000D+01
  </mgrwgt>
  </event>
  <event>
  8     66 0.27727860E-05 0.35614534E+03 0.75467711E-02 0.86537029E-01
        1 -1    0    0  501    0 0.00000000E+00 0.00000000E+00 0.35479802E+03 0.35479816E+03 0.32000000E+00 0.0000E+00 0.9000E+01
       -1 -1    0    0    0  501 0.00000000E+00 0.00000000E+00 -.61275718E+03 0.61275726E+03 0.32000000E+00 0.0000E+00 0.9000E+01
       25  2    1    2    0    0 -.15117085E+03 -.26520799E+03 -.42891637E+03 0.60595388E+03 0.30003825E+03 0.0000E+00 0.0000E+00
       23  2    1    2    0    0 0.15117085E+03 0.26520799E+03 0.17095721E+03 0.36160155E+03 0.91331306E+02 0.0000E+00 0.0000E+00
       24  1    3    3    0    0 0.42473573E+02 -.55549445E+02 -.33499106E+02 0.11171012E+03 0.80419002E+02 0.0000E+00 0.9000E+01
      -11  1    4    4    0    0 0.12160653E+03 0.16660520E+03 0.15368110E+03 0.25722231E+03 0.51099893E-03 0.0000E+00 0.9000E+01
       11  1    4    4    0    0 0.29564322E+02 0.98602793E+02 0.17276110E+02 0.10437923E+03 0.51099893E-03 0.0000E+00 0.9000E+01
      -24  1    3    3    0    0 -.19364442E+03 -.20965854E+03 -.39541726E+03 0.49424376E+03 0.80419002E+02 0.0000E+00 0.9000E+01
#aMCatNLO 1  0  0  2  1 0.10074719D+04 0.00000000D+00  -5  7  0 0.00000000D+00 0.00000000D+00 0.00000000D+00 0.00000000D+00 0.00000000D+00
  <mgrwgt>
 0.5789450653D-03    3    2    0
 0.466267244852963D+03 0.000000000000000D+00 0.000000000000000D+00 0.466267244852963D+03
 0.466267244852963D+03 0.000000000000000D+00 0.000000000000000D+00 -.466267244852963D+03
 0.106638772439139D+03 0.424735725842767D+02 -.555494453170450D+02 -.385572170322838D+01
 0.309393696570739D+03 0.121606525920798D+03 0.166605196433351D+03 0.230605769339333D+03
 0.113078093324825D+03 0.295643217687261D+02 0.986027930784830D+02 0.467984536652119D+02
 0.403423927371223D+03 -.193644420273801D+03 -.209658544194789D+03 -.273548501301316D+03
 0.000000000000000D+00 0.000000000000000D+00 0.000000000000000D+00 0.000000000000000D+00
 0.144813763665395D+04 0.000000000000000D+00 0.000000000000000D+00 0.144813763665395D+04
 0.101953043696698D+04 0.000000000000000D+00 0.000000000000000D+00 -.101953043696698D+04
 0.140938137512437D+03 -.554746235254672D+02 -.101508828216856D+03 -.385572170322838D+01
 0.260073929358916D+03 -.103690440236578D+03 0.608910542127930D+02 0.230605769339333D+03
 0.923001176231092D+02 -.516889149993198D+02 0.604770412138185D+02 0.467984536652119D+02
 0.879502546316131D+03 -.701205217699090D+03 -.447816896878136D+03 -.273548501301316D+03
 0.109485334281034D+04 0.912059196460456D+03 0.427957629668380D+03 0.428607199686962D+03
0.566032496002D-04 0.000000000000D+00 0.000000000000D+00 0.596690858551D-05 0.000000000000D+00  7 1 -1 24 -11 11 -24 21 0 0.54584328D-01 0.94270352D-01 0.12683950D+06 0.12683950D+06 0.12683950D+06 0.11133460D+01  1  2  2  2  7  2       -1 0.570038689367D-03 0.100000000000D+01
-.286709480328D-05 0.000000000000D+00 -.217371382443D-06 0.596690858551D-05 0.000000000000D+00  7 1 -1 24 -11 11 -24 21 2 0.54584328D-01 0.94270352D-01 0.12683950D+06 0.12683950D+06 0.12683950D+06 0.11133460D+01  1  2  3  2  7  2       -1 -.357903009171D-04 0.100000000000D+01
0.358056810278D-05 0.000000000000D+00 0.000000000000D+00 0.596690858551D-05 0.000000000000D+00  7 1 -1 24 -11 11 -24 21 2 0.54584328D-01 0.94270352D-01 0.12683950D+06 0.12683950D+06 0.12683950D+06 0.11133460D+01  1  2 15  2  7  2       -1 0.446966768263D-04 0.100000000000D+01
  </mgrwgt>
  </event>
  <event>
  8     66 0.27727860E-05 0.19543864E+03 0.75467711E-02 0.97010769E-01
        1 -1    0    0  501    0 0.00000000E+00 0.00000000E+00 0.87183353E+03 0.87183359E+03 0.32000000E+00 0.0000E+00 0.9000E+01
       -1 -1    0    0    0  501 0.00000000E+00 0.00000000E+00 -.99109341E+02 0.99109857E+02 0.32000000E+00 0.0000E+00 0.9000E+01
       25  2    1    2    0    0 0.28094052E+02 -.92602412E+02 0.17822523E+03 0.36178755E+03 0.29960226E+03 0.0000E+00 0.0000E+00
       23  2    1    2    0    0 -.28094052E+02 0.92602412E+02 0.59449897E+03 0.60915590E+03 0.90980272E+02 0.0000E+00 0.0000E+00
       24  1    3    3    0    0 0.10089615E+03 -.72299269E+02 -.48966188E+01 0.14798112E+03 0.80419002E+02 0.0000E+00 0.9000E+01
      -13  1    4    4    0    0 -.45668117E+02 0.81940111E+01 0.19206602E+03 0.19759071E+03 0.10565837E+00 0.0000E+00 0.9000E+01
       13  1    4    4    0    0 0.17574064E+02 0.84408401E+02 0.40243294E+03 0.41156520E+03 0.10565837E+00 0.0000E+00 0.9000E+01
      -24  1    3    3    0    0 -.72802101E+02 -.20303143E+02 0.18312185E+03 0.21380643E+03 0.80419002E+02 0.0000E+00 0.9000E+01
#aMCatNLO 1  0  0  2  1 0.30674573D+03 0.00000000D+00  -5  7  0 0.00000000D+00 0.00000000D+00 0.00000000D+00 0.00000000D+00 0.00000000D+00
  <mgrwgt>
 0.7683971985D-03    3    2    0
 0.293950890194543D+03 0.000000000000000D+00 0.000000000000000D+00 0.293950890194543D+03
 0.293950890194543D+03 0.000000000000000D+00 0.000000000000000D+00 -.293950890194543D+03
 0.250832769511322D+03 0.100896153280140D+03 -.722992693801030D+02 -.202589842308847D+03
 0.738818613246102D+02 -.456682007679817D+02 0.819390906428258D+01 0.574961279187609D+02
 0.150768247017910D+03 0.175741484172556D+02 0.844085034400577D+02 0.123682731871800D+03
 0.112418902535244D+03 -.728021009294142D+02 -.203031431242373D+02 0.214109825182861D+02
 0.000000000000000D+00 -.000000000000000D+00 -.000000000000000D+00 0.000000000000000D+00
 0.756214195339650D+03 0.000000000000000D+00 0.000000000000000D+00 0.756214195339650D+03
 0.386951013372504D+03 0.000000000000000D+00 0.000000000000000D+00 -.386951013372504D+03
 0.305145257616222D+03 0.213502134803385D+03 0.453944038110708D+01 -.202589842308847D+03
 0.660613718266954D+02 -.173245534336528D+02 0.275347048340617D+02 0.574961279187609D+02
 0.202454694922738D+03 0.891147743647449D+02 0.133225531798180D+03 0.123682731871800D+03
 0.894536342963743D+02 -.319154938274091D+02 0.759656605402754D+01 0.214109825182861D+02
 0.480050250050125D+03 -.253376861907068D+03 -.172896243067376D+03 0.369263181967145D+03
0.108271690547D-04 0.000000000000D+00 0.000000000000D+00 0.129023706207D-05 0.000000000000D+00  7 1 -1 24 -13 13 -24 21 0 0.13412828D+00 0.15247635D-01 0.38196261D+05 0.38196261D+05 0.38196261D+05 0.11577265D+01  1  2  2  2  7  2       -1 0.753614671438D-03 0.100000000000D+01
-.479667082041D-06 0.000000000000D+00 -.415791800291D-07 0.129023706207D-05 0.000000000000D+00  7 1 -1 24 -13 13 -24 21 2 0.13412828D+00 0.15247635D-01 0.38196261D+05 0.38196261D+05 0.38196261D+05 0.11577265D+01  1  2  3  2  7  2       -1 -.447493041214D-04 0.100000000000D+01
0.638120755787D-06 0.000000000000D+00 0.000000000000D+00 0.129023706207D-05 0.000000000000D+00  7 1 -1 24 -13 13 -24 21 2 0.13412828D+00 0.15247635D-01 0.38196261D+05 0.38196261D+05 0.38196261D+05 0.11577265D+01  1  2 15  2  7  2       -1 0.595318312137D-04 0.100000000000D+01
  </mgrwgt>
  </event>
  <event>
  9     66 0.27727860E-05 0.26334790E+03 0.75467711E-02 0.98889178E-01
        3 -1    0    0  501    0 0.00000000E+00 0.00000000E+00 0.15722765E+04 0.15722765E+04 0.50000000E+00 0.0000E+00 0.9000E+01
       21 -1    0    0  502  501 0.00000000E+00 0.00000000E+00 -.84401589E+02 0.84404922E+02 0.75000000E+00 0.0000E+00 0.9000E+01
       25  2    1    2    0    0 0.18160145E+03 0.48150190E+02 0.61617964E+03 0.71014604E+03 0.29888547E+03 0.0000E+00 0.0000E+00
       23  2    1    2    0    0 -.94310027E+02 -.17002738E+03 0.57055240E+03 0.61014116E+03 0.94543665E+02 0.0000E+00 0.0000E+00
       24  1    3    3    0    0 0.10669445E+03 -.10116023E+03 0.28660687E+03 0.33200574E+03 0.80419002E+02 0.0000E+00 0.9000E+01
      -11  1    4    4    0    0 -.46270685E+02 -.10067077E+03 0.18647723E+03 0.21690859E+03 0.51099893E-03 0.0000E+00 0.9000E+01
       11  1    4    4    0    0 -.48039342E+02 -.69356614E+02 0.38407517E+03 0.39323257E+03 0.51099893E-03 0.0000E+00 0.9000E+01
      -24  1    3    3    0    0 0.74906998E+02 0.14931042E+03 0.32957276E+03 0.37814030E+03 0.80419002E+02 0.0000E+00 0.9000E+01
        3  1    1    2  502    0 -.87291421E+02 0.12187719E+03 0.30114284E+03 0.33639426E+03 0.50000000E+00 0.0000E+00 0.9000E+01
#aMCatNLO 2  0  0  2  1 0.14991278D+03 0.00000000D+00  -5  7  0 0.00000000D+00 0.00000000D+00 0.00000000D+00 0.00000000D+00 0.00000000D+00
  <mgrwgt>
 0.5632692343D-05    1    2    0
 0.279442088914234D+03 0.000000000000000D+00 0.000000000000000D+00 0.279442088914234D+03
 0.279442088914234D+03 0.000000000000000D+00 0.000000000000000D+00 -.279442088914234D+03
 0.137013613367525D+03 0.831549381225633D+02 -.682941199938413D+02 -.269570720545569D+02
 0.101725366488560D+03 -.627080615567473D+02 -.777207323190867D+02 -.193710343247806D+02
 0.105793035916977D+03 -.645637423905035D+02 -.462850735487962D+02 0.698668847426733D+02
 0.214352162055406D+03 0.441168658246876D+02 0.192299925861724D+03 -.235387783633358D+02
 0.000000000000000D+00 -.000000000000000D+00 0.000000000000000D+00 -.000000000000000D+00
 0.362894509160665D+03 0.000000000000000D+00 0.000000000000000D+00 0.362894509160665D+03
 0.365685210380382D+03 0.000000000000000D+00 0.000000000000000D+00 -.365685210380382D+03
 0.169738027118035D+03 0.106694449927039D+03 -.101160231892599D+03 -.269570720545569D+02
 0.112475850201714D+03 -.462706855061015D+02 -.100670768202999D+03 -.193710343247806D+02
 0.109542228634434D+03 -.480393417587606D+02 -.693566140605034D+02 0.698668847426733D+02
 0.186884859012117D+03 0.749069981247497D+02 0.149310422002983D+03 -.235387783633358D+02
 0.149938754574747D+03 -.872914207869263D+02 0.121877192153119D+03 -.279070121971683D+01
0.235956490279D-06 0.000000000000D+00 0.000000000000D+00 0.480694320184D-07 0.650760461516D-12  7 3 21 24 -11 11 -24 3 2 0.24188867D+00 0.12985107D-01 0.12182097D+06 0.12182097D+06 0.12182097D+06 0.11147547D+01  1  2  1  4  7  2       -3 0.563269234264D-05 0.100000000000D+01
  </mgrwgt>
  </event>
  <event>
  8     66 0.27727860E-05 0.14963783E+03 0.75467711E-02 0.10421469E+00
        1 -1    0    0  501    0 0.00000000E+00 0.00000000E+00 0.17802016E+03 0.17802045E+03 0.32000000E+00 0.0000E+00 0.9000E+01
       -1 -1    0    0    0  501 0.00000000E+00 0.00000000E+00 -.23801839E+03 0.23801861E+03 0.32000000E+00 0.0000E+00 0.9000E+01
       25  2    1    2    0    0 0.54402299E+02 -.19914581E+02 -.34998189E+02 0.30310791E+03 0.29545444E+03 0.0000E+00 0.0000E+00
       23  2    1    2    0    0 -.54402299E+02 0.19914581E+02 -.25000046E+02 0.11293115E+03 0.93660246E+02 0.0000E+00 0.0000E+00
       24  1    3    3    0    0 0.34682942E+02 -.61062951E+02 0.95451901E+02 0.14321268E+03 0.80419002E+02 0.0000E+00 0.9000E+01
      -13  1    4    4    0    0 -.52302417E+01 0.44684221E+02 -.34964031E+02 0.56978326E+02 0.10565837E+00 0.0000E+00 0.9000E+01
       13  1    4    4    0    0 -.49172058E+02 -.24769640E+02 0.99639853E+01 0.55952824E+02 0.10565837E+00 0.0000E+00 0.9000E+01
      -24  1    3    3    0    0 0.19719357E+02 0.41148370E+02 -.13045009E+03 0.15989523E+03 0.80419002E+02 0.0000E+00 0.9000E+01
#aMCatNLO 1  0  0  2  1 0.14050478D+03 0.00000000D+00  -5  7  0 0.00000000D+00 0.00000000D+00 0.00000000D+00 0.00000000D+00 0.00000000D+00
  <mgrwgt>
 0.5725069387D-02    3    2    0
 0.205845031685317D+03 0.000000000000000D+00 0.000000000000000D+00 0.205845031685317D+03
 0.205845031685317D+03 0.000000000000000D+00 0.000000000000000D+00 -.205845031685317D+03
 0.158636288557708D+03 0.346832559194343D+02 -.610629591078901D+02 0.117331337999739D+03
 0.524848205266473D+02 -.523049082064540D+01 0.446844020853945D+02 -.270296607777514D+02
 0.579962099031271D+02 -.491724311551508D+02 -.247695932148285D+02 0.182236008898204D+02
 0.142572744383152D+03 0.197196660563619D+02 0.411481502373241D+02 -.108525278111807D+03
 0.000000000000000D+00 0.000000000000000D+00 0.000000000000000D+00 0.000000000000000D+00
 0.426090222047165D+03 0.000000000000000D+00 0.000000000000000D+00 0.426090222047165D+03
 0.241164130184128D+03 0.000000000000000D+00 0.000000000000000D+00 -.241164130184128D+03
 0.169006913144857D+03 -.109612034482850D+02 -.906053523724674D+02 0.117331337999739D+03
 0.486696535540679D+02 -.193224703216627D+02 0.355636718574046D+02 -.270296607777514D+02
 0.799626091673518D+02 -.683916784301103D+02 -.372088370816877D+02 0.182236008898204D+02
 0.137366918478954D+03 -.192791427103832D+02 0.159070111944541D+02 -.108525278111807D+03
 0.232248257886063D+03 0.117954494910441D+03 0.763435064022965D+02 0.184926091863037D+03
0.385337558594D-04 0.000000000000D+00 0.000000000000D+00 0.135762744047D-08 0.000000000000D+00  7 1 -1 24 -13 13 -24 21 0 0.27387756D-01 0.36618253D-01 0.22391479D+05 0.22391479D+05 0.22391479D+05 0.11793095D+01  1  2  2  2  7  2       -1 0.561980300697D-02 0.100000000000D+01
-.187605137713D-05 0.000000000000D+00 -.147979768671D-06 0.135762744047D-08 0.000000000000D+00  7 1 -1 24 -13 13 -24 21 2 0.27387756D-01 0.36618253D-01 0.22391479D+05 0.22391479D+05 0.22391479D+05 0.11793095D+01  1  2  3  2  7  2       -1 -.380522269733D-03 0.100000000000D+01
0.239503581794D-05 0.000000000000D+00 0.000000000000D+00 0.135762744047D-08 0.000000000000D+00  7 1 -1 24 -13 13 -24 21 2 0.27387756D-01 0.36618253D-01 0.22391479D+05 0.22391479D+05 0.22391479D+05 0.11793095D+01  1  2 15  2  7  2       -1 0.485788649842D-03 0.100000000000D+01
  </mgrwgt>
  </event>
  <event>
  8     66 0.27727860E-05 0.37614708E+03 0.75467711E-02 0.92687029E-01
        1 -1    0    0  501    0 0.00000000E+00 0.00000000E+00 0.65006861E+03 0.65006869E+03 0.32000000E+00 0.0000E+00 0.9000E+01
       -1 -1    0    0    0  501 0.00000000E+00 0.00000000E+00 -.72657704E+03 0.72657711E+03 0.32000000E+00 0.0000E+00 0.9000E+01
       25  2    1    2    0    0 -.18936840E+03 0.28790745E+03 -.59326698E+03 0.74874304E+03 0.29983220E+03 0.0000E+00 0.0000E+00
       23  2    1    2    0    0 0.18936840E+03 -.28790745E+03 0.51675855E+03 0.62790275E+03 0.92040056E+02 0.0000E+00 0.0000E+00
       24  1    3    3    0    0 -.59678254E+02 0.41925866E+02 -.25618552E+02 0.11154729E+03 0.80419002E+02 0.0000E+00 0.9000E+01
      -13  1    4    4    0    0 0.23608749E+01 -.57322893E+02 0.11313973E+03 0.12685463E+03 0.10565837E+00 0.0000E+00 0.9000E+01
       13  1    4    4    0    0 0.18700753E+03 -.23058456E+03 0.40361882E+03 0.50104812E+03 0.10565837E+00 0.0000E+00 0.9000E+01
      -24  1    3    3    0    0 -.12969015E+03 0.24598159E+03 -.56764843E+03 0.63719575E+03 0.80419002E+02 0.0000E+00 0.9000E+01
#aMCatNLO 1  0  0  2  1 0.37170952D+03 0.00000000D+00  -5  7  0 0.00000000D+00 0.00000000D+00 0.00000000D+00 0.00000000D+00 0.00000000D+00
  <mgrwgt>
 0.9478083458D-03    4    2    0
 0.687259068903290D+03 0.000000000000000D+00 0.000000000000000D+00 0.687259068903290D+03
 0.687259068903290D+03 0.000000000000000D+00 0.000000000000000D+00 -.687259068903290D+03
 0.110293980117731D+03 -.596782544707106D+02 0.419258657265683D+02 -.194492627687205D+02
 0.133348062990884D+03 0.236063158422629D+01 -.573226643085404D+02 0.120375435527830D+03
 0.524290452851938D+03 0.187007772829168D+03 -.230584786575819D+03 0.432133345222222D+03
 0.606585641846026D+03 -.129690149942684D+03 0.245981585157791D+03 -.533059517981332D+03
 0.000000000000000D+00 -.000000000000000D+00 -.000000000000000D+00 0.000000000000000D+00
 0.103281653122331D+04 0.000000000000000D+00 0.000000000000000D+00 0.103281653122331D+04
 0.819596789115916D+03 0.000000000000000D+00 0.000000000000000D+00 -.819596789115916D+03
 0.120526500500890D+03 -.509441294714175D+02 0.713150981123444D+02 -.194492627687205D+02
 0.123460490384175D+03 0.120781315220739D+02 -.246244989049902D+02 0.120375435527830D+03
 0.497757050689741D+03 0.225681510216874D+03 -.100452523137210D+03 0.432133345222222D+03
 0.682147836167434D+03 -.809251562229916D+02 0.410069657269758D+03 -.533059517981332D+03
 0.428521442596986D+03 -.105890356044539D+03 -.356307733339902D+03 0.213219742107395D+03
0.376051132892D-03 0.000000000000D+00 0.000000000000D+00 0.136741863700D-04 0.000000000000D+00  7 1 -1 24 -13 13 -24 21 0 0.10001057D+00 0.11178109D+00 0.14148663D+06 0.14148663D+06 0.14148663D+06 0.11095600D+01  1  2  2  2  7  2       -1 0.111115292182D-02 0.100000000000D+01
-.116638256631D-04 0.000000000000D+00 -.144413536684D-05 0.136741863700D-04 0.000000000000D+00  7 1 -1 24 -13 13 -24 21 2 0.10001057D+00 0.11178109D+00 0.14148663D+06 0.14148663D+06 0.14148663D+06 0.11095600D+01  1  2  3  2  7  2       -1 -.424296580276D-04 0.100000000000D+01
0.225790821309D-04 0.000000000000D+00 0.000000000000D+00 0.136741863700D-04 0.000000000000D+00  7 1 -1 24 -13 13 -24 21 2 0.10001057D+00 0.11178109D+00 0.14148663D+06 0.14148663D+06 0.14148663D+06 0.11095600D+01  1  2 15  2  7  2       -1 0.821362356623D-04 0.100000000000D+01
-.558183442236D-04 0.000000000000D+00 0.000000000000D+00 0.136741863700D-04 0.000000000000D+00  7 1 -1 24 -13 13 -24 21 2 0.10001057D+00 0.11178109D+00 0.14148663D+06 0.14148663D+06 0.14148663D+06 0.11095600D+01  1  2  4  2  7  2       -1 -.203051153667D-03 0.100000000000D+01
  </mgrwgt>
  </event>
  <event>
  9     66 0.27727860E-05 0.26677698E+03 0.75467711E-02 0.98596120E-01
        1 -1    0    0  501    0 0.00000000E+00 0.00000000E+00 0.25510604E+04 0.25510604E+04 0.32000000E+00 0.0000E+00 0.9000E+01
       21 -1    0    0  502  501 0.00000000E+00 0.00000000E+00 -.17521330E+03 0.17521490E+03 0.75000000E+00 0.0000E+00 0.9000E+01
       25  2    1    2    0    0 -.52502056E+02 0.80768090E+02 0.20652419E+03 0.37435213E+03 0.29699718E+03 0.0000E+00 0.0000E+00
       23  2    1    2    0    0 0.74226710E+02 -.22648542E+03 0.21885121E+04 0.22033505E+04 0.91450819E+02 0.0000E+00 0.0000E+00
       24  1    3    3    0    0 0.25972835E+02 0.15569908E+03 0.11917554E+03 0.21351070E+03 0.80419002E+02 0.0000E+00 0.9000E+01
      -13  1    4    4    0    0 0.95167909E+02 -.20002426E+03 0.19096961E+04 0.19224999E+04 0.10565837E+00 0.0000E+00 0.9000E+01
       13  1    4    4    0    0 -.20941199E+02 -.26461161E+02 0.27881594E+03 0.28085061E+03 0.10565837E+00 0.0000E+00 0.9000E+01
      -24  1    3    3    0    0 -.78474891E+02 -.74930995E+02 0.87348644E+02 0.16084143E+03 0.80419002E+02 0.0000E+00 0.9000E+01
        1  1    1    2  502    0 -.21724654E+02 0.14571733E+03 -.19189178E+02 0.14857264E+03 0.32000000E+00 0.0000E+00 0.9000E+01
#aMCatNLO 2  0  0  2  1 0.14732787D+03 0.00000000D+00  -5  7  0 0.00000000D+00 0.00000000D+00 0.00000000D+00 0.00000000D+00 0.00000000D+00
  <mgrwgt>
 0.5185034357D-03    2    2    0
 0.470809630649600D+03 0.000000000000000D+00 0.000000000000000D+00 0.470809630649600D+03
 0.470809630649600D+03 0.000000000000000D+00 0.000000000000000D+00 -.470809630649600D+03
 0.304859054406982D+03 0.192899570524911D+02 0.200524245332200D+03 -.214218934014745D+03
 0.372366643311556D+03 0.863047091879307D+02 -.140573860848952D+03 0.333837391358610D+03
 0.560457708778421D+02 -.222597908300830D+02 -.176175612781840D+02 0.483244418498750D+02
 0.208347792702820D+03 -.833348754103388D+02 -.423328232050643D+02 -.167942899193740D+03
 0.000000000000000D+00 -.000000000000000D+00 0.000000000000000D+00 -.000000000000000D+00
 0.488936361842836D+03 0.000000000000000D+00 0.000000000000000D+00 0.488936361842836D+03
 0.914192214204814D+03 0.000000000000000D+00 0.000000000000000D+00 -.914192214204814D+03
 0.277981583348481D+03 0.259728345328073D+02 0.155699084462548D+03 -.214218934014745D+03
 0.400642187790694D+03 0.951680638938635D+02 -.200024494458267D+03 0.333837391358610D+03
 0.589404171558940D+02 -.209413539250701D+02 -.264609295035869D+02 0.483244418498750D+02
 0.215511010891886D+03 -.784748909310732D+02 -.749309946886428D+02 -.167942899193740D+03
 0.450053376860695D+03 -.217246535705275D+02 0.145717334187949D+03 -.425255852361979D+03
-.171355005748D-04 0.000000000000D+00 0.000000000000D+00 0.224327078059D-06 0.000000000000D+00  7 1 21 24 -13 13 -24 1 2 0.37792052D+00 0.26982338D-01 0.12773280D+06 0.12773280D+06 0.12773280D+06 0.11131017D+01  1  2 13  4  7  2       -1 -.536235403664D-03 0.100000000000D+01
0.390618659802D-04 0.000000000000D+00 0.000000000000D+00 0.224327078059D-06 0.655552970567D-11  7 1 21 24 -13 13 -24 1 2 0.39247091D+00 0.26956014D-01 0.12773280D+06 0.12773280D+06 0.12773280D+06 0.11131017D+01  1  2  1  4  7  2       -1 0.105473883935D-02 0.100000000000D+01
  </mgrwgt>
  </event>
  <event>
  8     66 0.27727860E-05 0.46451848E+03 0.75467711E-02 0.91723358E-01
        1 -1    0    0  501    0 0.00000000E+00 0.00000000E+00 0.98001185E+03 0.98001190E+03 0.32000000E+00 0.0000E+00 0.9000E+01
       -1 -1    0    0    0  501 0.00000000E+00 0.00000000E+00 -.24196360E+03 0.24196381E+03 0.32000000E+00 0.0000E+00 0.9000E+01
       25  2    1    2    0    0 0.96182141E+02 0.41313353E+03 0.27538909E+03 0.58784951E+03 0.29966245E+03 0.0000E+00 0.0000E+00
       23  2    1    2    0    0 -.96182141E+02 -.41313353E+03 0.46265916E+03 0.63412620E+03 0.90178812E+02 0.0000E+00 0.0000E+00
       24  1    3    3    0    0 0.49103537E+02 0.39955014E+03 0.27421313E+03 0.49367148E+03 0.80419002E+02 0.0000E+00 0.9000E+01
      -13  1    4    4    0    0 -.69733014E+02 -.32186473E+03 0.29866128E+03 0.44458764E+03 0.10565837E+00 0.0000E+00 0.9000E+01
       13  1    4    4    0    0 -.26449127E+02 -.91268805E+02 0.16399787E+03 0.18953856E+03 0.10565837E+00 0.0000E+00 0.9000E+01
      -24  1    3    3    0    0 0.47078604E+02 0.13583395E+02 0.11759542E+01 0.94178036E+02 0.80419002E+02 0.0000E+00 0.9000E+01
#aMCatNLO 1  0  0  2  2 0.31841910D+03 0.00000000D+00  -5  7  0 0.00000000D+00 0.00000000D+00 0.00000000D+00 0.00000000D+00 0.00000000D+00
  <mgrwgt>
 0.9806424259D-03    3    2    0
 0.486957241926726D+03 0.000000000000000D+00 0.000000000000000D+00 0.486957241926726D+03
 0.486957241926726D+03 0.000000000000000D+00 0.000000000000000D+00 -.486957241926726D+03
 0.411609066106628D+03 0.491035367291249D+02 0.399550136130084D+03 -.300555942533645D+02
 0.331496405629772D+03 -.697330734196794D+02 -.321865042886252D+03 0.378161286323070D+02
 0.113534484303209D+03 -.264490676381371D+02 -.912684885331800D+02 0.621336378134876D+02
 0.117274527813843D+03 0.470786043286917D+02 0.135833952893480D+02 -.698941721924300D+02
 0.000000000000000D+00 0.000000000000000D+00 0.000000000000000D+00 0.000000000000000D+00
 0.151151269507525D+04 0.000000000000000D+00 0.000000000000000D+00 0.151151269507525D+04
 0.537691415347084D+03 0.000000000000000D+00 0.000000000000000D+00 -.537691415347084D+03
 0.307406851065305D+03 0.190375260626446D+01 0.295169092398929D+03 -.300555942533645D+02
 0.454043603899860D+03 -.121299830127240D+03 -.435903528167346D+03 0.378161286323070D+02
 0.150200968995780D+03 -.437619756892121D+02 -.129555515602811D+03 0.621336378134876D+02
 0.112994925766130D+03 0.319625710956405D+02 -.198453026435417D+02 -.698941721924300D+02
 0.102455776069526D+04 0.131195482114547D+03 0.290135254014770D+03 0.973821279728164D+03
0.753412041260D-04 0.000000000000D+00 0.000000000000D+00 0.321077376772D-05 0.000000000000D+00  7 1 -1 24 -13 13 -24 21 0 0.15077107D+00 0.37225190D-01 0.21577742D+06 0.21577742D+06 0.21577742D+06 0.10953017D+01  1  2  2  2  7  2       -1 0.974865362054D-03 0.100000000000D+01
-.417429675516D-05 0.000000000000D+00 -.289330061639D-06 0.321077376772D-05 0.000000000000D+00  7 1 -1 24 -13 13 -24 21 2 0.15077107D+00 0.37225190D-01 0.21577742D+06 0.21577742D+06 0.21577742D+06 0.10953017D+01  1  2  3  2  7  2       -1 -.647981961000D-04 0.100000000000D+01
0.454645493708D-05 0.000000000000D+00 0.000000000000D+00 0.321077376772D-05 0.000000000000D+00  7 1 -1 24 -13 13 -24 21 2 0.15077107D+00 0.37225190D-01 0.21577742D+06 0.21577742D+06 0.21577742D+06 0.10953017D+01  1  2 15  2  7  2       -1 0.705752599426D-04 0.100000000000D+01
  </mgrwgt>
  </event>
  <event>
  8     66 0.27727860E-05 0.38558206E+03 0.75467711E-02 0.92293745E-01
        1 -1    0    0  501    0 0.00000000E+00 0.00000000E+00 0.80134156E+03 0.80134162E+03 0.32000000E+00 0.0000E+00 0.9000E+01
       -1 -1    0    0    0  501 0.00000000E+00 0.00000000E+00 -.30882723E+03 0.30882740E+03 0.32000000E+00 0.0000E+00 0.9000E+01
       25  2    1    2    0    0 0.28210301E+03 -.17140979E+03 0.60186377E+03 0.75107225E+03 0.30480502E+03 0.0000E+00 0.0000E+00
       23  2    1    2    0    0 -.28210301E+03 0.17140979E+03 -.10934944E+03 0.35909677E+03 0.89608969E+02 0.0000E+00 0.0000E+00
       24  1    3    3    0    0 0.27524635E+03 -.43850557E+02 0.32424531E+03 0.43506972E+03 0.80419002E+02 0.0000E+00 0.9000E+01
      -13  1    4    4    0    0 -.23296704E+03 0.13950640E+03 -.12429071E+03 0.29863668E+03 0.10565837E+00 0.0000E+00 0.9000E+01
       13  1    4    4    0    0 -.49135972E+02 0.31903399E+02 0.14941265E+02 0.60460096E+02 0.10565837E+00 0.0000E+00 0.9000E+01
      -24  1    3    3    0    0 0.68566553E+01 -.12755924E+03 0.27761845E+03 0.31600252E+03 0.80419002E+02 0.0000E+00 0.9000E+01
#aMCatNLO 1  0  0  2  2 0.41672375D+03 0.00000000D+00  -5  7  0 0.00000000D+00 0.00000000D+00 0.00000000D+00 0.00000000D+00 0.00000000D+00
  <mgrwgt>
 0.6965116668D-03    5    2    0
 0.497469821046310D+03 0.000000000000000D+00 0.000000000000000D+00 0.497469821046310D+03
 0.497469821046310D+03 0.000000000000000D+00 0.000000000000000D+00 -.497469821046310D+03
 0.324949829476733D+03 0.275246352551517D+03 -.438505570523025D+02 0.146430016649170D+03
 0.394750180348168D+03 -.232967291300674D+03 0.139506545777735D+03 -.286516787909719D+03
 0.600656285720358D+02 -.491357165391331D+02 0.319032489280889D+02 -.132568398863422D+02
 0.215174003695682D+03 0.685665528828994D+01 -.127559237653521D+03 0.153343611146891D+03
 0.000000000000000D+00 -.000000000000000D+00 0.000000000000000D+00 -.000000000000000D+00
 0.710676559924808D+03 0.000000000000000D+00 0.000000000000000D+00 0.710676559924808D+03
 0.792735744077462D+03 0.000000000000000D+00 0.000000000000000D+00 -.792735744077462D+03
 0.460723409394404D+03 0.410854386222831D+03 -.124722762778963D+03 0.146430016649170D+03
 0.314243280694935D+03 -.110594268546307D+03 0.665272686386561D+02 -.286516787909719D+03
 0.406016344280811D+02 -.317604402599853D+02 0.215412011956467D+02 -.132568398863422D+02
 0.263117718191762D+03 0.894103133708983D+02 -.176791545203434D+03 0.153343611146891D+03
 0.424726261293088D+03 -.357909990787437D+03 0.213445838148094D+03 -.820591841526538D+02
0.571780631592D-04 0.000000000000D+00 0.000000000000D+00 0.595712941105D-07 0.000000000000D+00  7 1 -1 24 -13 13 -24 21 0 0.12328333D+00 0.47511900D-01 0.14867353D+06 0.14867353D+06 0.14867353D+06 0.11078564D+01  1  2  2  2  7  2       -1 0.679566664267D-03 0.100000000000D+01
-.292584887074D-05 0.000000000000D+00 -.219578817861D-06 0.595712941105D-07 0.000000000000D+00  7 1 -1 24 -13 13 -24 21 2 0.12328333D+00 0.47511900D-01 0.14867353D+06 0.14867353D+06 0.14867353D+06 0.11078564D+01  1  2  3  2  7  2       -1 -.426797134083D-04 0.100000000000D+01
0.347096742641D-05 0.000000000000D+00 0.000000000000D+00 0.595712941105D-07 0.000000000000D+00  7 1 -1 24 -13 13 -24 21 2 0.12328333D+00 0.47511900D-01 0.14867353D+06 0.14867353D+06 0.14867353D+06 0.11078564D+01  1  2 15  2  7  2       -1 0.506314240939D-04 0.100000000000D+01
-.299047342541D-05 0.000000000000D+00 -.172708391486D-04 0.595712941105D-07 0.000000000000D+00  7 1 -1 24 -13 13 -24 21 2 0.12328333D+00 0.10335901D+00 0.14867353D+06 0.14867353D+06 0.14867353D+06 0.11078564D+01  1  2  5  2  7  2       -1 -.941366254195D-05 0.100000000000D+01
0.832938483790D-06 0.000000000000D+00 -.145388165288D-05 0.595712941105D-07 0.000000000000D+00  7 1 21 24 -13 13 -24 1 2 0.12328333D+00 0.10335901D+00 0.14867353D+06 0.14867353D+06 0.14867353D+06 0.11078564D+01  1  2  5  4  7  2       -1 0.184069543830D-04 0.100000000000D+01
  </mgrwgt>
  </event>
  <event>
  7     66 0.27727860E-05 0.66494678E+03 0.75467711E-02 0.90690350E-01
        1 -1    0    0  501    0 0.00000000E+00 0.00000000E+00 0.20291400E+04 0.20291400E+04 0.32000000E+00 0.0000E+00 0.9000E+01
       -1 -1    0    0    0  501 0.00000000E+00 0.00000000E+00 -.23737540E+03 0.23737561E+03 0.32000000E+00 0.0000E+00 0.9000E+01
       23  2    1    2    0    0 -.26328905E+03 -.55878539E+03 0.55170898E+03 0.83319854E+03 0.90965789E+02 0.0000E+00 0.0000E+00
       24  1    1    2    0    0 0.54393572E+02 0.45531660E+03 0.71458087E+03 0.85285691E+03 0.80419002E+02 0.0000E+00 0.9000E+01
      -11  1    3    3    0    0 -.61379286E+02 -.13701215E+03 0.84955647E+02 0.17250278E+03 0.51099893E-03 0.0000E+00 0.9000E+01
       11  1    3    3    0    0 -.20190976E+03 -.42177323E+03 0.46675333E+03 0.66069576E+03 0.51099893E-03 0.0000E+00 0.9000E+01
      -24  1    1    2    0    0 0.20889548E+03 0.10346879E+03 0.52547477E+03 0.58046021E+03 0.80419002E+02 0.0000E+00 0.9000E+01
#aMCatNLO 1  0  0  2  1 0.10392310D+03 0.00000000D+00  -5  7  0 0.00000000D+00 0.00000000D+00 0.00000000D+00 0.00000000D+00 0.00000000D+00
  <mgrwgt>
 0.1808026130D-02    3    2    0
 0.694023192539647D+03 0.000000000000000D+00 0.000000000000000D+00 0.694023192539647D+03
 0.694023192539647D+03 0.000000000000000D+00 0.000000000000000D+00 -.694023192539647D+03
 0.470195242389741D+03 0.543935716664737D+02 0.455316597169136D+03 0.659127128500990D+02
 0.172011346396007D+03 -.613792857378199D+02 -.137012153568202D+03 -.839532986003859D+02
 0.476327865704061D+03 -.201909762097638D+03 -.421773231894553D+03 -.907084586633729D+02
 0.269511930589485D+03 0.208895476168985D+03 0.103468788293619D+03 0.108749044413660D+03
 0.000000000000000D+00 0.000000000000000D+00 -.000000000000000D+00 0.000000000000000D+00
 0.146230212069267D+04 0.000000000000000D+00 0.000000000000000D+00 0.146230212069267D+04
 0.699488916668126D+03 0.000000000000000D+00 0.000000000000000D+00 -.699488916668126D+03
 0.494927800270142D+03 0.311145697531391D+02 0.482880636762015D+03 0.659127128500990D+02
 0.167620767792072D+03 -.695712947216945D+02 -.127312216224780D+03 -.839532986003859D+02
 0.463289378109125D+03 -.224573557955466D+03 -.394937641233244D+03 -.907084586633729D+02
 0.266093366361567D+03 0.195976546476711D+03 0.118765745219055D+03 0.108749044413660D+03
 0.769859724827890D+03 0.670537364473102D+02 -.793965245230467D+02 0.762813204024544D+03
0.729523808091D-03 0.000000000000D+00 0.000000000000D+00 0.186625915776D-08 0.000000000000D+00  7 1 -1 24 -11 11 -24 21 0 0.31217541D+00 0.36519311D-01 0.44215421D+06 0.44215421D+06 0.44215421D+06 0.10723047D+01  1  2  2  2  7  2       -1 0.179672318807D-02 0.100000000000D+01
-.404388388374D-04 0.000000000000D+00 -.280156351110D-05 0.186625915776D-08 0.000000000000D+00  7 1 -1 24 -11 11 -24 21 2 0.31217541D+00 0.36519311D-01 0.44215421D+06 0.44215421D+06 0.44215421D+06 0.10723047D+01  1  2  3  2  7  2       -1 -.114518810978D-03 0.100000000000D+01
0.444301292438D-04 0.000000000000D+00 0.000000000000D+00 0.186625915776D-08 0.000000000000D+00  7 1 -1 24 -11 11 -24 21 2 0.31217541D+00 0.36519311D-01 0.44215421D+06 0.44215421D+06 0.44215421D+06 0.10723047D+01  1  2 15  2  7  2       -1 0.125821752525D-03 0.100000000000D+01
  </mgrwgt>
  </event>
  <event>
  8     66 0.27727860E-05 0.18862995E+03 0.75467711E-02 0.10252145E+00
        1 -1    0    0  501    0 0.00000000E+00 0.00000000E+00 0.33569276E+03 0.33569291E+03 0.32000000E+00 0.0000E+00 0.9000E+01
       -1 -1    0    0    0  501 0.00000000E+00 0.00000000E+00 -.25713251E+03 0.25713271E+03 0.32000000E+00 0.0000E+00 0.9000E+01
       25  2    1    2    0    0 -.20240148E+03 -.31867440E+02 0.12752137E+02 0.36137256E+03 0.29739809E+03 0.0000E+00 0.0000E+00
       23  2    1    2    0    0 0.20240148E+03 0.31867440E+02 0.65808106E+02 0.23145306E+03 0.85193429E+02 0.0000E+00 0.0000E+00
       24  1    3    3    0    0 -.18607524E+03 -.44420078E+02 -.92601544E+02 0.22724304E+03 0.80419002E+02 0.0000E+00 0.9000E+01
      -13  1    4    4    0    0 0.28855132E+01 0.12919565E+02 -.10608999E+02 0.16964769E+02 0.10565837E+00 0.0000E+00 0.9000E+01
       13  1    4    4    0    0 0.19951596E+03 0.18947875E+02 0.76417106E+02 0.21448829E+03 0.10565837E+00 0.0000E+00 0.9000E+01
      -24  1    3    3    0    0 -.16326238E+02 0.12552638E+02 0.10535368E+03 0.13412952E+03 0.80419002E+02 0.0000E+00 0.9000E+01
#aMCatNLO 1  0  0  1  2 0.22088570D+02 0.00000000D+00  -5  7  0 0.00000000D+00 0.00000000D+00 0.00000000D+00 0.00000000D+00 0.00000000D+00
  <mgrwgt>
 0.3808655277D-02    6    2    0
 0.293798616943141D+03 0.000000000000000D+00 0.000000000000000D+00 0.293798616943141D+03
 0.293798616943141D+03 0.000000000000000D+00 0.000000000000000D+00 -.293798616943141D+03
 0.241645620069678D+03 -.186075240129521D+03 -.444200777528691D+02 -.123807315808311D+03
 0.185338266848990D+02 0.288521120804674D+01 0.129195553413684D+02 -.129716374314177D+02
 0.206180309202952D+03 0.199516268139145D+03 0.189478851258959D+02 0.484206185432355D+02
 0.121237477928752D+03 -.163262392176714D+02 0.125526372856047D+02 0.883583346964932D+02
 0.000000000000000D+00 -.000000000000000D+00 -.000000000000000D+00 -.000000000000000D+00
 0.303886037659694D+03 0.000000000000000D+00 0.000000000000000D+00 0.303886037659694D+03
 0.306352013890041D+03 0.000000000000000D+00 0.000000000000000D+00 -.306352013890041D+03
 0.237474134690526D+03 -.182454488295825D+03 -.361781280015072D+02 -.123807315808311D+03
 0.190351886918225D+02 0.316912369540284D+01 0.135658278731659D+02 -.129716374314177D+02
 0.209994649426081D+03 0.202661340388042D+03 0.261070411880632D+02 0.484206185432355D+02
 0.121508284022107D+03 -.144917872795638D+02 0.167284166236042D+02 0.883583346964932D+02
 0.222257947191992D+02 -.888418850805608D+01 -.202231576833261D+02 -.246597623034760D+01
0.389196714943D-04 0.000000000000D+00 0.000000000000D+00 0.315271694406D-08 0.000000000000D+00  7 1 -1 24 -13 13 -24 21 0 0.51645067D-01 0.39558876D-01 0.63550716D+05 0.63550716D+05 0.63550716D+05 0.11382455D+01  1  2  2  1  7  1        1 0.220667473317D-02 0.100000000000D+01
-.210058478460D-05 0.000000000000D+00 -.149461786323D-06 0.315271694406D-08 0.000000000000D+00  7 1 -1 24 -13 13 -24 21 2 0.51645067D-01 0.39558876D-01 0.63550716D+05 0.63550716D+05 0.63550716D+05 0.11382455D+01  1  2  3  1  7  1        1 -.154305448022D-03 0.100000000000D+01
0.246571383279D-05 0.000000000000D+00 0.000000000000D+00 0.315271694406D-08 0.000000000000D+00  7 1 -1 24 -13 13 -24 21 2 0.51645067D-01 0.39558876D-01 0.63550716D+05 0.63550716D+05 0.63550716D+05 0.11382455D+01  1  2 15  1  7  1        1 0.181127217741D-03 0.100000000000D+01
0.799790447121D-04 0.000000000000D+00 0.000000000000D+00 0.315271694406D-08 0.000000000000D+00  7 1 -1 24 -13 13 -24 21 2 0.54480275D-01 0.39558876D-01 0.69277253D+05 0.69277253D+05 0.69277253D+05 0.11350430D+01  1  2 12  1  7  1        1 0.544230522017D-02 0.100000000000D+01
-.559258074381D-04 0.000000000000D+00 0.000000000000D+00 0.315271694406D-08 0.000000000000D+00  7 1 -1 24 -13 13 -24 21 2 0.51645067D-01 0.39558876D-01 0.63550716D+05 0.63550716D+05 0.63550716D+05 0.11382455D+01  1  2  4  1  7  1        1 -.410821635765D-02 0.100000000000D+01
0.844284396350D-06 0.000000000000D+00 0.000000000000D+00 0.315271694406D-08 0.000000000000D+00  7 21 -1 24 -13 13 -24 -1 2 0.54480275D-01 0.39558876D-01 0.69277253D+05 0.69277253D+05 0.69277253D+05 0.11350430D+01  1  2 12  3  7  1        1 0.241069911432D-03 0.100000000000D+01
  </mgrwgt>
  </event>
  <event>
  8     66 0.27727860E-05 0.53954813E+03 0.75467711E-02 0.90112573E-01
        1 -1    0    0  501    0 0.00000000E+00 0.00000000E+00 0.23364574E+04 0.23364574E+04 0.32000000E+00 0.0000E+00 0.9000E+01
       -1 -1    0    0    0  501 0.00000000E+00 0.00000000E+00 -.13702780E+03 0.13702817E+03 0.32000000E+00 0.0000E+00 0.9000E+01
       25  2    1    2    0    0 -.49389999E+03 -.16451770E+03 0.12871686E+04 0.14193448E+04 0.29450531E+03 0.0000E+00 0.0000E+00
       23  2    1    2    0    0 0.49389999E+03 0.16451770E+03 0.91226097E+03 0.10541408E+04 0.89383493E+02 0.0000E+00 0.0000E+00
       24  1    3    3    0    0 -.39862215E+03 -.14756680E+03 0.73356837E+03 0.85162513E+03 0.80419002E+02 0.0000E+00 0.9000E+01
      -11  1    4    4    0    0 0.11763005E+03 0.43534552E+02 0.30267977E+03 0.32763872E+03 0.51099893E-03 0.0000E+00 0.9000E+01
       11  1    4    4    0    0 0.37626995E+03 0.12098315E+03 0.60958120E+03 0.72650206E+03 0.51099893E-03 0.0000E+00 0.9000E+01
      -24  1    3    3    0    0 -.95277840E+02 -.16950901E+02 0.55360024E+03 0.56771969E+03 0.80419002E+02 0.0000E+00 0.9000E+01
#aMCatNLO 1  0  0  1  2 0.37357899D+03 0.00000000D+00  -5  7  0 0.00000000D+00 0.00000000D+00 0.00000000D+00 0.00000000D+00 0.00000000D+00
  <mgrwgt>
 0.1348510670D-02    4    2    0
 0.565826923525334D+03 0.000000000000000D+00 0.000000000000000D+00 0.565826923525334D+03
 0.565826923525334D+03 0.000000000000000D+00 0.000000000000000D+00 -.565826923525334D+03
 0.435690197279875D+03 -.398622151574590D+03 -.147566801073272D+03 -.517991461942412D+02
 0.127854289541230D+03 0.117630045338156D+03 0.435345520189558D+02 0.247918246271800D+02
 0.403181089262990D+03 0.376269946211999D+03 0.120983149968120D+03 -.796178104490532D+02
 0.164928270966573D+03 -.952778399755654D+02 -.169509009138039D+02 0.106625132016114D+03
 0.000000000000000D+00 0.000000000000000D+00 -.000000000000000D+00 -.000000000000000D+00
 0.727372967788048D+03 0.000000000000000D+00 0.000000000000000D+00 0.727372967788048D+03
 0.861162675901284D+03 0.000000000000000D+00 0.000000000000000D+00 -.861162675901284D+03
 0.554687263123430D+03 -.541024373333106D+03 -.762903652505223D+02 -.517991461942412D+02
 0.106348554980532D+03 0.839550004835587D+02 0.603898871658834D+02 0.247918246271800D+02
 0.331381907372480D+03 0.270650213408420D+03 0.173848884883102D+03 -.796178104490532D+02
 0.199304427520300D+03 -.147649332235202D+03 0.926254759064249D+01 0.106625132016114D+03
 0.396813490692590D+03 0.334068491676329D+03 -.167210954389106D+03 -.133789708113237D+03
0.428345799668D-03 0.000000000000D+00 0.000000000000D+00 0.276426158962D-07 0.000000000000D+00  7 1 -1 24 -11 11 -24 21 0 0.35945501D+00 0.21081231D-01 0.29111219D+06 0.29111219D+06 0.29111219D+06 0.10855195D+01  1  2  2  1  7  1        1 0.168256360635D-02 0.100000000000D+01
-.237315525996D-04 0.000000000000D+00 -.164496065676D-05 0.276426158962D-07 0.000000000000D+00  7 1 -1 24 -11 11 -24 21 2 0.35945501D+00 0.21081231D-01 0.29111219D+06 0.29111219D+06 0.29111219D+06 0.10855195D+01  1  2  3  1  7  1        1 -.109844516475D-03 0.100000000000D+01
0.267428011248D-04 0.000000000000D+00 0.000000000000D+00 0.276426158962D-07 0.000000000000D+00  7 1 -1 24 -11 11 -24 21 2 0.35945501D+00 0.21081231D-01 0.29111219D+06 0.29111219D+06 0.29111219D+06 0.10855195D+01  1  2 15  1  7  1        1 0.123782464144D-03 0.100000000000D+01
-.751823052866D-04 0.000000000000D+00 0.000000000000D+00 0.276426158962D-07 0.000000000000D+00  7 1 -1 24 -11 11 -24 21 2 0.35945501D+00 0.21081231D-01 0.29111219D+06 0.29111219D+06 0.29111219D+06 0.10855195D+01  1  2  4  1  7  1        1 -.347990884163D-03 0.100000000000D+01
  </mgrwgt>
  </event>
  <event>
  8     66 0.27727860E-05 0.47426875E+03 0.75467711E-02 0.95154076E-01
        1 -1    0    0  501    0 0.00000000E+00 0.00000000E+00 0.29737297E+03 0.29737315E+03 0.32000000E+00 0.0000E+00 0.9000E+01
       -1 -1    0    0    0  501 0.00000000E+00 0.00000000E+00 -.12922008E+04 0.12922009E+04 0.32000000E+00 0.0000E+00 0.9000E+01
       25  2    1    2    0    0 -.42450196E+03 0.14198788E+03 -.51387562E+02 0.54125564E+03 0.29992418E+03 0.0000E+00 0.0000E+00
       23  2    1    2    0    0 0.42450196E+03 -.14198788E+03 -.94344030E+03 0.10483184E+04 0.92354501E+02 0.0000E+00 0.0000E+00
       24  1    3    3    0    0 -.37593058E+03 0.11099279E+03 0.45583364E+02 0.40272604E+03 0.80419002E+02 0.0000E+00 0.9000E+01
      -13  1    4    4    0    0 0.19368282E+03 -.43446630E+02 -.32403668E+03 0.38000056E+03 0.10565837E+00 0.0000E+00 0.9000E+01
       13  1    4    4    0    0 0.23081914E+03 -.98541250E+02 -.61940361E+03 0.66831782E+03 0.10565837E+00 0.0000E+00 0.9000E+01
      -24  1    3    3    0    0 -.48571376E+02 0.30995087E+02 -.96970926E+02 0.13852960E+03 0.80419002E+02 0.0000E+00 0.9000E+01
#aMCatNLO 1  0  0  2  2 0.62404309D+01 0.00000000D+00  -5  7  0 0.00000000D+00 0.00000000D+00 0.00000000D+00 0.00000000D+00 0.00000000D+00
  <mgrwgt>
 0.3019175101D-03    6    2    0
 0.619891741756247D+03 0.000000000000000D+00 0.000000000000000D+00 0.619891741756247D+03
 0.619891741756247D+03 0.000000000000000D+00 0.000000000000000D+00 -.619891741756247D+03
 0.552927552997418D+03 -.375930583586603D+03 0.110992792350175D+03 0.381599868029182D+03
 0.227199416424145D+03 0.193682769912278D+03 -.434465578387905D+02 -.110539386982830D+03
 0.359853864930497D+03 0.230819189398672D+03 -.985413218173773D+02 -.257889344109524D+03
 0.998026491604352D+02 -.485713757243465D+02 0.309950873059926D+02 -.131711369368270D+02
 0.000000000000000D+00 -.000000000000000D+00 0.000000000000000D+00 0.000000000000000D+00
 0.628715437151754D+03 0.000000000000000D+00 0.000000000000000D+00 0.628715437151754D+03
 0.621003940936096D+03 0.000000000000000D+00 0.000000000000000D+00 -.621003940936096D+03
 0.550962707038270D+03 -.373294405655521D+03 0.110115920824241D+03 0.381599868029182D+03
 0.228196383901437D+03 0.194770291382653D+03 -.438082999655149D+02 -.110539386982830D+03
 0.361117412680982D+03 0.232540926277591D+03 -.991140229338214D+02 -.257889344109524D+03
 0.995226853484937D+02 -.480953709374928D+02 0.308367538950043D+02 -.131711369368270D+02
 0.992018911866690D+01 -.592144106723022D+01 0.196964818009134D+01 0.771149621565747D+01
0.198217665666D-03 0.000000000000D+00 0.000000000000D+00 0.592322394065D-05 0.000000000000D+00  7 1 -1 24 -13 13 -24 21 0 0.45749704D-01 0.19880014D+00 0.22493085D+06 0.22493085D+06 0.22493085D+06 0.10939284D+01  1  2  2  2  7  2       -1 0.316100490033D-03 0.100000000000D+01
-.100520786909D-04 0.000000000000D+00 -.761208028066D-06 0.592322394065D-05 0.000000000000D+00  7 1 -1 24 -13 13 -24 21 2 0.45749704D-01 0.19880014D+00 0.22493085D+06 0.22493085D+06 0.22493085D+06 0.10939284D+01  1  2  3  2  7  2       -1 -.191829966702D-04 0.100000000000D+01
0.113822755323D-04 0.000000000000D+00 0.000000000000D+00 0.592322394065D-05 0.000000000000D+00  7 1 -1 24 -13 13 -24 21 2 0.45749704D-01 0.19880014D+00 0.22493085D+06 0.22493085D+06 0.22493085D+06 0.10939284D+01  1  2 15  2  7  2       -1 0.217214926733D-04 0.100000000000D+01
-.640191941371D-04 0.000000000000D+00 0.000000000000D+00 0.592322394065D-05 0.000000000000D+00  7 1 -1 24 -13 13 -24 21 2 0.45749704D-01 0.19880014D+00 0.22493085D+06 0.22493085D+06 0.22493085D+06 0.10939284D+01  1  2  4  2  7  2       -1 -.122171744345D-03 0.100000000000D+01
0.540360903410D-04 0.000000000000D+00 0.000000000000D+00 0.592322394065D-05 0.970098038140D-06  7 1 -1 24 -13 13 -24 21 2 0.46400917D-01 0.19915683D+00 0.22787481D+06 0.22787481D+06 0.22787481D+06 0.10934996D+01  1  2 11  2  7  2       -1 0.100389572195D-03 0.100000000000D+01
0.422707130245D-06 0.000000000000D+00 0.000000000000D+00 0.592322394065D-05 0.327935431716D-09  7 1 21 24 -13 13 -24 1 2 0.46400917D-01 0.19915683D+00 0.22787481D+06 0.22787481D+06 0.22787481D+06 0.10934996D+01  1  2 11  4  7  2       -1 0.506069620527D-05 0.100000000000D+01
  </mgrwgt>
  </event>
  <event>
  8     66 0.27727860E-05 0.37260602E+03 0.75467711E-02 0.97271270E-01
        3 -1    0    0  501    0 0.00000000E+00 0.00000000E+00 0.16181432E+04 0.16181433E+04 0.50000000E+00 0.0000E+00 0.9000E+01
       -3 -1    0    0    0  501 0.00000000E+00 0.00000000E+00 -.13681580E+03 0.13681672E+03 0.50000000E+00 0.0000E+00 0.9000E+01
       25  2    1    2    0    0 -.29956742E+03 0.13884816E+03 0.33264673E+03 0.55624304E+03 0.29955470E+03 0.0000E+00 0.0000E+00
       23  2    1    2    0    0 0.29956742E+03 -.13884816E+03 0.11486807E+04 0.11987169E+04 0.91845588E+02 0.0000E+00 0.0000E+00
       24  1    3    3    0    0 -.10956846E+03 -.31915883E+02 0.23074414E+03 0.26969231E+03 0.80419002E+02 0.0000E+00 0.9000E+01
      -11  1    4    4    0    0 0.22875337E+03 -.70516206E+02 0.71480496E+03 0.75382144E+03 0.51099893E-03 0.0000E+00 0.9000E+01
       11  1    4    4    0    0 0.70814050E+02 -.68331959E+02 0.43387570E+03 0.44489550E+03 0.51099893E-03 0.0000E+00 0.9000E+01
      -24  1    3    3    0    0 -.18999896E+03 0.17076405E+03 0.10190259E+03 0.28655072E+03 0.80419002E+02 0.0000E+00 0.9000E+01
#aMCatNLO 1  0  0  1  2 0.49255151D+02 0.00000000D+00  -5  7  0 0.00000000D+00 0.00000000D+00 0.00000000D+00 0.00000000D+00 0.00000000D+00
  <mgrwgt>
 0.1539750037D-04    4    2    0
 0.470519320709801D+03 0.000000000000000D+00 0.000000000000000D+00 0.470519320709801D+03
 0.470519320709801D+03 0.000000000000000D+00 0.000000000000000D+00 -.470519320709801D+03
 0.139730299301564D+03 -.109568463517624D+03 -.319158834710676D+02 0.578522023629971D+01
 0.280611545980595D+03 0.228753369841430D+03 -.705162056688182D+02 0.146431554870807D+03
 0.146712200724687D+03 0.708140497805695D+02 -.683319591766115D+02 0.108814445503534D+03
 0.373984595412757D+03 -.189998956104376D+03 0.170764048316497D+03 -.261031220610641D+03
 0.000000000000000D+00 -.000000000000000D+00 -.000000000000000D+00 -.000000000000000D+00
 0.478997311959282D+03 0.000000000000000D+00 0.000000000000000D+00 0.478997311959282D+03
 0.548585432268535D+03 0.000000000000000D+00 0.000000000000000D+00 -.548585432268535D+03
 0.138019889125271D+03 -.109273928712897D+03 -.246579311834504D+02 0.578522023629971D+01
 0.277793280215401D+03 0.229345519417904D+03 -.559244042782917D+02 0.146431554870807D+03
 0.143489680119675D+03 0.711217887412164D+02 -.607486289298348D+02 0.108814445503534D+03
 0.383023948683167D+03 -.189196201064047D+03 0.190545607873617D+03 -.261031220610641D+03
 0.852559460843039D+02 -.199717838217657D+01 -.492146434820405D+02 -.695881203092536D+02
0.464945724635D-04 0.000000000000D+00 0.000000000000D+00 0.219418231450D-05 0.000000000000D+00  7 3 -3 24 -11 11 -24 21 0 0.24894518D+00 0.21048661D-01 0.13883525D+06 0.13883525D+06 0.13883525D+06 0.11102125D+01  1  2  2  1  7  1        3 0.194990271065D-04 0.100000000000D+01
-.241207040938D-05 0.000000000000D+00 -.178551400562D-06 0.219418231450D-05 0.000000000000D+00  7 3 -3 24 -11 11 -24 21 2 0.24894518D+00 0.21048661D-01 0.13883525D+06 0.13883525D+06 0.13883525D+06 0.11102125D+01  1  2  3  1  7  1        3 -.124684630058D-05 0.100000000000D+01
0.287347774051D-05 0.000000000000D+00 0.000000000000D+00 0.219418231450D-05 0.000000000000D+00  7 3 -3 24 -11 11 -24 21 2 0.24894518D+00 0.21048661D-01 0.13883525D+06 0.13883525D+06 0.13883525D+06 0.11102125D+01  1  2 15  1  7  1        3 0.148535676098D-05 0.100000000000D+01
-.839596292132D-05 0.000000000000D+00 0.000000000000D+00 0.219418231450D-05 0.000000000000D+00  7 3 -3 24 -11 11 -24 21 2 0.24894518D+00 0.21048661D-01 0.13883525D+06 0.13883525D+06 0.13883525D+06 0.11102125D+01  1  2  4  1  7  1        3 -.434003720103D-05 0.100000000000D+01
  </mgrwgt>
  </event>
  <event>
  8     66 0.27727860E-05 0.19394226E+03 0.75467711E-02 0.99342405E-01
        1 -1    0    0  501    0 0.00000000E+00 0.00000000E+00 0.17877053E+03 0.17877082E+03 0.32000000E+00 0.0000E+00 0.9000E+01
       -1 -1    0    0    0  501 0.00000000E+00 0.00000000E+00 -.66293151E+03 0.66293159E+03 0.32000000E+00 0.0000E+00 0.9000E+01
       25  2    1    2    0    0 -.58129019E+02 0.25358646E+03 -.37313035E+03 0.54483328E+03 0.29988659E+03 0.0000E+00 0.0000E+00
       23  2    1    2    0    0 0.58129019E+02 -.25358646E+03 -.11103062E+03 0.29686913E+03 0.90102188E+02 0.0000E+00 0.0000E+00
       24  1    3    3    0    0 0.96191817E+02 0.12085596E+03 -.20412133E+03 0.26831280E+03 0.80419002E+02 0.0000E+00 0.9000E+01
      -11  1    4    4    0    0 0.20111729E+02 -.46260533E+01 -.20923881E+02 0.29388617E+02 0.51099893E-03 0.0000E+00 0.9000E+01
       11  1    4    4    0    0 0.38017289E+02 -.24896041E+03 -.90106740E+02 0.26748051E+03 0.51099893E-03 0.0000E+00 0.9000E+01
      -24  1    3    3    0    0 -.15432084E+03 0.13273050E+03 -.16900903E+03 0.27652047E+03 0.80419002E+02 0.0000E+00 0.9000E+01
#aMCatNLO 1  0  0  2  1 0.75037716D+01 0.00000000D+00  -5  7  0 0.00000000D+00 0.00000000D+00 0.00000000D+00 0.00000000D+00 0.00000000D+00
  <mgrwgt>
 0.1497276065D-02   11    2    0
 0.344256841596331D+03 0.000000000000000D+00 0.000000000000000D+00 0.344256841596331D+03
 0.344256841596331D+03 0.000000000000000D+00 0.000000000000000D+00 -.344256841596331D+03
 0.184472663105996D+03 0.961918165404631D+02 0.120855961934527D+03 -.608598256206325D+02
 0.212137298355862D+02 0.201117293584419D+02 -.462605326971364D+01 -.491327862997782D+01
 0.263629942149704D+03 0.380172891799057D+02 -.248960407844849D+03 0.779368170186213D+02
 0.219197348101377D+03 -.154320835078811D+03 0.132730499180036D+03 -.121637127680109D+02
 0.000000000000000D+00 -.000000000000000D+00 0.000000000000000D+00 -.000000000000000D+00
 0.345265755903961D+03 0.000000000000000D+00 0.000000000000000D+00 0.345265755903961D+03
 0.358518130681074D+03 0.000000000000000D+00 0.000000000000000D+00 -.358518130681074D+03
 0.184549274355184D+03 0.978127821820097D+02 0.119666035189169D+03 -.608598256206325D+02
 0.214215151449251D+02 0.202990089215697D+02 -.476353240888413D+01 -.491327862997782D+01
 0.265585211984374D+03 0.403419194925071D+02 -.250666884349431D+03 0.779368170186213D+02
 0.216998570449388D+03 -.152404801029946D+03 0.131323967109692D+03 -.121637127680109D+02
 0.152293146511636D+02 -.604890956614073D+01 0.444041445945350D+01 -.132523747771134D+02
0.215020115724D-04 0.000000000000D+00 0.000000000000D+00 0.176005430887D-05 0.000000000000D+00  7 1 -1 24 -11 11 -24 21 0 0.27503187D-01 0.10198949D+00 0.11071830D+06 0.11071830D+06 0.11071830D+06 0.11181113D+01  1  2  2  2  7  2       -1 0.448366780862D-03 0.100000000000D+01
-.119287565799D-05 0.000000000000D+00 -.825733860478D-07 0.176005430887D-05 0.000000000000D+00  7 1 -1 24 -11 11 -24 21 2 0.27503187D-01 0.10198949D+00 0.11071830D+06 0.11071830D+06 0.11071830D+06 0.11181113D+01  1  2  3  2  7  2       -1 -.310970778118D-04 0.100000000000D+01
0.137268111324D-05 0.000000000000D+00 0.000000000000D+00 0.176005430887D-05 0.000000000000D+00  7 1 -1 24 -11 11 -24 21 2 0.27503187D-01 0.10198949D+00 0.11071830D+06 0.11071830D+06 0.11071830D+06 0.11181113D+01  1  2 15  2  7  2       -1 0.357844265690D-04 0.100000000000D+01
0.163618031817D-03 0.000000000000D+00 0.000000000000D+00 0.176005430887D-05 0.000000000000D+00  7 1 -1 24 -11 11 -24 21 2 0.27503187D-01 0.10636050D+00 0.11327583D+06 0.11327583D+06 0.11327583D+06 0.11173063D+01  1  2 12  2  7  2       -1 0.387219579503D-02 0.100000000000D+01
-.173963307027D-03 0.000000000000D+00 0.000000000000D+00 0.176005430887D-05 0.000000000000D+00  7 1 -1 24 -11 11 -24 21 2 0.27503187D-01 0.10198949D+00 0.11071830D+06 0.11071830D+06 0.11071830D+06 0.11181113D+01  1  2  4  2  7  2       -1 -.453504978394D-02 0.100000000000D+01
-.793201119992D-03 0.000000000000D+00 -.609664255238D-04 0.176005430887D-05 0.000000000000D+00  7 1 -1 24 -11 11 -24 21 2 0.27503187D-01 0.10637481D+00 0.11071830D+06 0.11071830D+06 0.11071830D+06 0.11181113D+01  1  2  5  2  7  2       -1 -.188027819500D-01 0.100000000000D+01
0.795117024528D-03 0.000000000000D+00 0.609124392113D-04 0.176005430887D-05 0.000000000000D+00  7 1 -1 24 -11 11 -24 21 2 0.27503187D-01 0.10198949D+00 0.11071830D+06 0.11071830D+06 0.11071830D+06 0.11181113D+01  1  2  6  2  7  2       -1 0.207279072347D-01 0.100000000000D+01
0.757430180116D-05 0.000000000000D+00 0.000000000000D+00 0.176005430887D-05 0.208342337597D-06  7 1 -1 24 -11 11 -24 21 2 0.27583791D-01 0.10621454D+00 0.11327583D+06 0.11327583D+06 0.11327583D+06 0.11173063D+01  1  2 11  2  7  2       -1 0.179132950383D-03 0.100000000000D+01
0.340991419125D-05 0.000000000000D+00 0.000000000000D+00 0.176005430887D-05 0.000000000000D+00  7 1 21 24 -11 11 -24 1 2 0.27503187D-01 0.10636050D+00 0.11327583D+06 0.11327583D+06 0.11327583D+06 0.11173063D+01  1  2 12  4  7  2       -1 0.565719375107D-03 0.100000000000D+01
-.584569048900D-05 0.000000000000D+00 -.452260061740D-06 0.176005430887D-05 0.000000000000D+00  7 1 21 24 -11 11 -24 1 2 0.27503187D-01 0.10637481D+00 0.11071830D+06 0.11071830D+06 0.11071830D+06 0.11181113D+01  1  2  5  4  7  2       -1 -.972050788398D-03 0.100000000000D+01
0.551584998163D-07 0.000000000000D+00 0.000000000000D+00 0.176005430887D-05 0.148841521852D-08  7 1 21 24 -11 11 -24 1 2 0.27583791D-01 0.10621454D+00 0.11327583D+06 0.11327583D+06 0.11327583D+06 0.11173063D+01  1  2 11  4  7  2       -1 0.914910226139D-05 0.100000000000D+01
  </mgrwgt>
  </event>
  <event>
  8     66 0.27727860E-05 0.39128827E+03 0.75467711E-02 0.82457014E-01
        1 -1    0    0  501    0 0.00000000E+00 0.00000000E+00 0.11881115E+04 0.11881115E+04 0.32000000E+00 0.0000E+00 0.9000E+01
       -1 -1    0    0    0  501 0.00000000E+00 0.00000000E+00 -.35108462E+03 0.35108477E+03 0.32000000E+00 0.0000E+00 0.9000E+01
       25  2    1    2    0    0 0.11961998E+03 0.31000613E+03 0.10448658E+04 0.11367441E+04 0.30005009E+03 0.0000E+00 0.0000E+00
       23  2    1    2    0    0 -.11961998E+03 -.31000613E+03 -.20783889E+03 0.40245215E+03 0.91422044E+02 0.0000E+00 0.0000E+00
       24  1    3    3    0    0 0.17356244E+03 0.29117364E+03 0.78756763E+03 0.86118291E+03 0.80419002E+02 0.0000E+00 0.9000E+01
      -13  1    4    4    0    0 -.20743678E+02 -.11547280E+03 -.30396330E+02 0.12119495E+03 0.10565837E+00 0.0000E+00 0.9000E+01
       13  1    4    4    0    0 -.98876304E+02 -.19453332E+03 -.17744256E+03 0.28125720E+03 0.10565837E+00 0.0000E+00 0.9000E+01
      -24  1    3    3    0    0 -.53942462E+02 0.18832481E+02 0.25729812E+03 0.27556123E+03 0.80419002E+02 0.0000E+00 0.9000E+01
#aMCatNLO 1  0  0  2  1 0.16894655D+04 0.00000000D+00  -5  7  0 0.00000000D+00 0.00000000D+00 0.00000000D+00 0.00000000D+00 0.00000000D+00
  <mgrwgt>
 0.1059479212D-02    3    2    0
 0.645854328616304D+03 0.000000000000000D+00 0.000000000000000D+00 0.645854328616304D+03
 0.645854328616304D+03 0.000000000000000D+00 0.000000000000000D+00 -.645854328616304D+03
 0.515839445436088D+03 0.173562443484771D+03 0.291173644339080D+03 0.380417014035039D+03
 0.164111985191400D+03 -.207435731549206D+02 -.115472697577475D+03 -.114754102194256D+03
 0.450128378044748D+03 -.988764087724558D+02 -.194533427546299D+03 -.393695006415558D+03
 0.161628848560372D+03 -.539424615573943D+02 0.188324807846936D+02 0.128032094574775D+03
 0.000000000000000D+00 -.000000000000000D+00 -.000000000000000D+00 0.000000000000000D+00
 0.298910726613894D+04 0.000000000000000D+00 0.000000000000000D+00 0.298910726613894D+04
 0.143388504711596D+04 0.000000000000000D+00 0.000000000000000D+00 -.143388504711596D+04
 0.123315764781233D+04 0.185258628424269D+03 0.115549673492862D+04 0.380417014035039D+03
 0.118812883730629D+03 -.188515508047009D+02 0.243437138135504D+02 -.114754102194256D+03
 0.484935361921868D+03 -.926232946448871D+02 0.267558353364034D+03 -.393695006415558D+03
 0.289782870085667D+03 -.509237058570435D+02 0.241912080684899D+03 0.128032094574775D+03
 0.229630354970441D+04 -.228600771176372D+02 -.168931088279110D+04 0.155522221902299D+04
0.217187041225D-03 0.000000000000D+00 0.000000000000D+00 0.133558741638D-04 0.000000000000D+00  7 1 -1 24 -13 13 -24 21 0 0.18278640D+00 0.54013033D-01 0.15310651D+06 0.15310651D+06 0.15310651D+06 0.11068501D+01  1  2  2  2  7  2       -1 0.103186974138D-02 0.100000000000D+01
-.838175060876D-05 0.000000000000D+00 -.834055424966D-06 0.133558741638D-04 0.000000000000D+00  7 1 -1 24 -13 13 -24 21 2 0.18278640D+00 0.54013033D-01 0.15310651D+06 0.15310651D+06 0.15310651D+06 0.11068501D+01  1  2  3  2  7  2       -1 -.487869072268D-04 0.100000000000D+01
0.131251481069D-04 0.000000000000D+00 0.000000000000D+00 0.133558741638D-04 0.000000000000D+00  7 1 -1 24 -13 13 -24 21 2 0.18278640D+00 0.54013033D-01 0.15310651D+06 0.15310651D+06 0.15310651D+06 0.11068501D+01  1  2 15  2  7  2       -1 0.763963774298D-04 0.100000000000D+01
  </mgrwgt>
  </event>
  <event>
  8     66 0.27727860E-05 0.26048236E+03 0.75467711E-02 0.86735455E-01
        1 -1    0    0  501    0 0.00000000E+00 0.00000000E+00 0.23759375E+03 0.23759397E+03 0.32000000E+00 0.0000E+00 0.9000E+01
       -1 -1    0    0    0  501 0.00000000E+00 0.00000000E+00 -.11733655E+04 0.11733656E+04 0.32000000E+00 0.0000E+00 0.9000E+01
       25  2    1    2    0    0 0.13729291E+03 0.90959813E+02 -.11033909E+04 0.11550482E+04 0.29923538E+03 0.0000E+00 0.0000E+00
       23  2    1    2    0    0 -.13729291E+03 -.90959813E+02 0.16761917E+03 0.25591131E+03 0.10134783E+03 0.0000E+00 0.0000E+00
       24  1    3    3    0    0 0.14256742E+03 -.46801199E+02 -.71817867E+03 0.73808105E+03 0.80419002E+02 0.0000E+00 0.9000E+01
      -13  1    4    4    0    0 -.15238620E+03 -.87164997E+02 0.16329256E+03 0.23975771E+03 0.10565837E+00 0.0000E+00 0.9000E+01
       13  1    4    4    0    0 0.15093287E+02 -.37948154E+01 0.43266088E+01 0.16153596E+02 0.10565837E+00 0.0000E+00 0.9000E+01
      -24  1    3    3    0    0 -.52745088E+01 0.13776101E+03 -.38521228E+03 0.41696718E+03 0.80419002E+02 0.0000E+00 0.9000E+01
#aMCatNLO 1  0  0  2  2 0.10048287D+04 0.00000000D+00  -5  7  0 0.00000000D+00 0.00000000D+00 0.00000000D+00 0.00000000D+00 0.00000000D+00
  <mgrwgt>
 0.6992574252D-03    3    2    0
 0.528000476107099D+03 0.000000000000000D+00 0.000000000000000D+00 0.528000476107099D+03
 0.528000476107099D+03 0.000000000000000D+00 0.000000000000000D+00 -.528000476107099D+03
 0.349764052925238D+03 0.142567419155005D+03 -.468011988584171D+02 -.305535358911558D+03
 0.465050250843131D+03 -.152386375746696D+03 -.871650880112266D+02 0.430641818368864D+03
 0.254169103903581D+02 0.150934651391018D+02 -.379472500887229D+01 0.200949422988285D+02
 0.215769738055470D+03 -.527450854741056D+01 0.137761011878516D+03 -.145201401756134D+03
 0.000000000000000D+00 0.000000000000000D+00 0.000000000000000D+00 0.000000000000000D+00
 0.128219456363702D+04 0.000000000000000D+00 0.000000000000000D+00 0.128219456363702D+04
 0.118499977956235D+04 0.000000000000000D+00 0.000000000000000D+00 -.118499977956235D+04
 0.433703304630415D+03 -.514877716078248D+02 -.292623468509650D+03 -.305535358911558D+03
 0.796889491717386D+03 -.464953268434861D+03 -.483113800727420D+03 0.430641818368864D+03
 0.290200576946875D+02 0.161010029381763D+01 -.208749759198326D+02 0.200949422988285D+02
 0.198062973556412D+03 -.107775761498512D+03 0.791604074692600D+01 -.145201401756134D+03
 0.100951851560047D+04 0.622606701247380D+03 0.788696204409977D+03 0.971947840746712D+02
0.209199273761D-03 0.000000000000D+00 0.000000000000D+00 0.644469417911D-07 0.000000000000D+00  7 1 -1 24 -13 13 -24 21 0 0.36552905D-01 0.18051779D+00 0.67851059D+05 0.67851059D+05 0.67851059D+05 0.11358126D+01  1  2  2  2  7  2       -1 0.666540630373D-03 0.100000000000D+01
-.456762434008D-05 0.000000000000D+00 -.803380294677D-06 0.644469417911D-07 0.000000000000D+00  7 1 -1 24 -13 13 -24 21 2 0.36552905D-01 0.18051779D+00 0.67851059D+05 0.67851059D+05 0.67851059D+05 0.11358126D+01  1  2  3  2  7  2       -1 -.187745778130D-04 0.100000000000D+01
0.125272189509D-04 0.000000000000D+00 0.000000000000D+00 0.644469417911D-07 0.000000000000D+00  7 1 -1 24 -13 13 -24 21 2 0.36552905D-01 0.18051779D+00 0.67851059D+05 0.67851059D+05 0.67851059D+05 0.11358126D+01  1  2 15  2  7  2       -1 0.514913726397D-04 0.100000000000D+01
  </mgrwgt>
  </event>
  <event>
  8     66 0.27727860E-05 0.19163785E+03 0.75467711E-02 0.94835306E-01
        1 -1    0    0  501    0 0.00000000E+00 0.00000000E+00 0.22065927E+04 0.22065927E+04 0.32000000E+00 0.0000E+00 0.9000E+01
       -1 -1    0    0    0  501 0.00000000E+00 0.00000000E+00 -.27480890E+03 0.27480909E+03 0.32000000E+00 0.0000E+00 0.9000E+01
       25  2    1    2    0    0 -.37032990E+02 0.33820915E+03 -.60708657E+02 0.45798605E+03 0.30051425E+03 0.0000E+00 0.0000E+00
       23  2    1    2    0    0 0.37032990E+02 -.33820915E+03 0.19924925E+04 0.20234158E+04 0.91805678E+02 0.0000E+00 0.0000E+00
       24  1    3    3    0    0 -.14011072E+03 0.19262960E+03 -.73420517E+02 0.26190640E+03 0.80419002E+02 0.0000E+00 0.9000E+01
      -13  1    4    4    0    0 0.36106857E+02 -.23114312E+03 0.11053897E+04 0.11298749E+04 0.10565837E+00 0.0000E+00 0.9000E+01
       13  1    4    4    0    0 0.92613316E+00 -.10706603E+03 0.88710276E+03 0.89354088E+03 0.10565837E+00 0.0000E+00 0.9000E+01
      -24  1    3    3    0    0 0.10307772E+03 0.14557954E+03 0.12711860E+02 0.19607965E+03 0.80419002E+02 0.0000E+00 0.9000E+01
#aMCatNLO 1  0  0  2  1 0.17715077D+03 0.00000000D+00  -5  7  0 0.00000000D+00 0.00000000D+00 0.00000000D+00 0.00000000D+00 0.00000000D+00
  <mgrwgt>
 0.5971854117D-03    9    2    0
 0.778711488280071D+03 0.000000000000000D+00 0.000000000000000D+00 0.778711488280071D+03
 0.778711488280071D+03 0.000000000000000D+00 0.000000000000000D+00 -.778711488280071D+03
 0.508357465672326D+03 -.140110715207867D+03 0.192629602578640D+03 -.441840379146989D+03
 0.429106222803982D+03 0.361069036710430D+02 -.231143285767602D+03 0.359723815448668D+03
 0.323318080659666D+03 0.926086565977659D+00 -.107065861178016D+03 0.305074785938353D+03
 0.296641207424168D+03 0.103077724970846D+03 0.145579544366978D+03 -.222958222240032D+03
 0.000000000000000D+00 -.000000000000000D+00 0.000000000000000D+00 -.000000000000000D+00
 0.864915655888473D+03 0.000000000000000D+00 0.000000000000000D+00 0.864915655888473D+03
 0.880373992736926D+03 0.000000000000000D+00 0.000000000000000D+00 -.880373992736926D+03
 0.485494874152266D+03 -.961560544661717D+02 0.157382176304997D+03 -.441840379146989D+03
 0.451525356125903D+03 0.750542007082648D+02 -.262375286145093D+03 0.359723815448668D+03
 0.333103874940864D+03 0.299573653643086D+02 -.130346165059489D+03 0.305074785938353D+03
 0.297341595860322D+03 0.129347535443274D+03 0.124513673484915D+03 -.222958222240032D+03
 0.177823947546045D+03 -.138203047049675D+03 0.110825601414671D+03 -.154583368484531D+02
0.306606657176D-03 0.000000000000D+00 0.000000000000D+00 0.885328936290D-05 0.000000000000D+00  7 1 -1 24 -13 13 -24 21 0 0.33947582D+00 0.42278309D-01 0.15527078D+06 0.15527078D+06 0.15527078D+06 0.11063702D+01  1  2  2  2  7  2       -1 0.471841757461D-03 0.100000000000D+01
-.742396857052D-05 0.000000000000D+00 -.117745029494D-05 0.885328936290D-05 0.000000000000D+00  7 1 -1 24 -13 13 -24 21 2 0.33947582D+00 0.42278309D-01 0.15527078D+06 0.15527078D+06 0.15527078D+06 0.11063702D+01  1  2  3  2  7  2       -1 -.139846593837D-04 0.100000000000D+01
0.177061146588D-04 0.000000000000D+00 0.000000000000D+00 0.885328936290D-05 0.000000000000D+00  7 1 -1 24 -13 13 -24 21 2 0.33947582D+00 0.42278309D-01 0.15527078D+06 0.15527078D+06 0.15527078D+06 0.11063702D+01  1  2 15  2  7  2       -1 0.333533177249D-04 0.100000000000D+01
0.167763360377D-03 0.000000000000D+00 0.000000000000D+00 0.885328936290D-05 0.000000000000D+00  7 1 -1 24 -13 13 -24 21 2 0.33947582D+00 0.49864556D-01 0.24094546D+06 0.24094546D+06 0.24094546D+06 0.10916664D+01  1  2 12  2  7  2       -1 0.223017318025D-03 0.100000000000D+01
-.197725426719D-03 0.000000000000D+00 0.000000000000D+00 0.885328936290D-05 0.000000000000D+00  7 1 -1 24 -13 13 -24 21 2 0.33947582D+00 0.42278309D-01 0.15527078D+06 0.15527078D+06 0.15527078D+06 0.11063702D+01  1  2  4  2  7  2       -1 -.372458842990D-03 0.100000000000D+01
-.328178717601D-03 0.000000000000D+00 -.181242353528D-03 0.885328936290D-05 0.000000000000D+00  7 1 -1 24 -13 13 -24 21 2 0.33947582D+00 0.53998080D-01 0.15527078D+06 0.15527078D+06 0.15527078D+06 0.11063702D+01  1  2  5  2  7  2       -1 -.398602069666D-03 0.100000000000D+01
0.366783326870D-03 0.000000000000D+00 0.175949375907D-03 0.885328936290D-05 0.000000000000D+00  7 1 -1 24 -13 13 -24 21 2 0.33947582D+00 0.42278309D-01 0.15527078D+06 0.15527078D+06 0.15527078D+06 0.11063702D+01  1  2  6  2  7  2       -1 0.690916165013D-03 0.100000000000D+01
0.413174957699D-05 0.000000000000D+00 0.000000000000D+00 0.885328936290D-05 0.000000000000D+00  7 1 21 24 -13 13 -24 1 2 0.33947582D+00 0.49864556D-01 0.24094546D+06 0.24094546D+06 0.24094546D+06 0.10916664D+01  1  2 12  4  7  2       -1 0.497332195813D-04 0.100000000000D+01
-.799947124713D-05 0.000000000000D+00 -.603700309412D-05 0.885328936290D-05 0.000000000000D+00  7 1 21 24 -13 13 -24 1 2 0.33947582D+00 0.53998080D-01 0.15527078D+06 0.15527078D+06 0.15527078D+06 0.11063702D+01  1  2  5  4  7  2       -1 -.866307940382D-04 0.100000000000D+01
  </mgrwgt>
  </event>
  <event>
  8     66 0.27727860E-05 0.24676197E+03 0.75467711E-02 0.10034503E+00
        1 -1    0    0  501    0 0.00000000E+00 0.00000000E+00 0.12337600E+04 0.12337601E+04 0.32000000E+00 0.0000E+00 0.9000E+01
       -1 -1    0    0    0  501 0.00000000E+00 0.00000000E+00 -.11026860E+03 0.11026906E+03 0.32000000E+00 0.0000E+00 0.9000E+01
       25  2    1    2    0    0 -.69794176E+02 0.10469594E+03 0.15474316E+03 0.36049031E+03 0.30029211E+03 0.0000E+00 0.0000E+00
       23  2    1    2    0    0 0.69794176E+02 -.10469594E+03 0.96874828E+03 0.98353883E+03 0.11420566E+03 0.0000E+00 0.0000E+00
       24  1    3    3    0    0 0.16945269E+02 -.73785050E+02 0.66350039E+02 0.12884455E+03 0.80419002E+02 0.0000E+00 0.9000E+01
      -13  1    4    4    0    0 -.30983625E+02 -.33096478E+02 0.30902159E+03 0.31232950E+03 0.10565837E+00 0.0000E+00 0.9000E+01
       13  1    4    4    0    0 0.10077780E+03 -.71599462E+02 0.65972669E+03 0.67120933E+03 0.10565837E+00 0.0000E+00 0.9000E+01
      -24  1    3    3    0    0 -.86739445E+02 0.17848099E+03 0.88393119E+02 0.23164575E+03 0.80419002E+02 0.0000E+00 0.9000E+01
#aMCatNLO 1  0  0  1  1 0.11989121D+03 0.00000000D+00  -5  7  0 0.00000000D+00 0.00000000D+00 0.00000000D+00 0.00000000D+00 0.00000000D+00
  <mgrwgt>
 0.1048327505D-02    3    2    0
 0.368843228968355D+03 0.000000000000000D+00 0.000000000000000D+00 0.368843228968355D+03
 0.368843228968355D+03 0.000000000000000D+00 0.000000000000000D+00 -.368843228968355D+03
 0.133697917469687D+03 0.169452601575650D+02 -.737850363092716D+02 -.753428414409273D+02
 0.984113400937066D+02 -.309834831842376D+02 -.330964558974302D+02 0.873466669990372D+02
 0.218151859507970D+03 0.100777687376420D+03 -.715995262190284D+02 0.179743148350797D+03
 0.287425340865346D+03 -.867394643497476D+02 0.178481018425730D+03 -.191746973908906D+03
 0.000000000000000D+00 -.000000000000000D+00 -.000000000000000D+00 -.000000000000000D+00
 0.377266518843816D+03 0.000000000000000D+00 0.000000000000000D+00 0.377266518843816D+03
 0.137639325734644D+04 0.000000000000000D+00 0.000000000000000D+00 -.137639325734644D+04
 0.129093205491433D+03 0.321927990723986D+02 -.590332082913858D+02 -.753428414409273D+02
 0.923434454695726D+02 -.199156016542471D+02 -.223884009277252D+02 0.873466669990372D+02
 0.224694220401741D+03 0.126472287561617D+03 -.467402800785509D+02 0.179743148350797D+03
 0.301234642988767D+03 -.525845206428063D+02 0.211525554881066D+03 -.191746973908906D+03
 0.100629426183874D+04 -.861649643369622D+02 -.833636655834037D+02 -.999126738502623D+03
0.322465944456D-04 0.000000000000D+00 0.000000000000D+00 0.117138611491D-07 0.000000000000D+00  7 1 -1 24 -13 13 -24 21 0 0.18980928D+00 0.16964438D-01 0.60891471D+05 0.60891471D+05 0.60891471D+05 0.11398425D+01  1  2  2  1  7  1        1 0.102565416417D-02 0.100000000000D+01
-.143956754119D-05 0.000000000000D+00 -.123835413394D-06 0.117138611491D-07 0.000000000000D+00  7 1 -1 24 -13 13 -24 21 2 0.18980928D+00 0.16964438D-01 0.60891471D+05 0.60891471D+05 0.60891471D+05 0.11398425D+01  1  2  3  1  7  1        1 -.594892938818D-04 0.100000000000D+01
0.198823441619D-05 0.000000000000D+00 0.000000000000D+00 0.117138611491D-07 0.000000000000D+00  7 1 -1 24 -13 13 -24 21 2 0.18980928D+00 0.16964438D-01 0.60891471D+05 0.60891471D+05 0.60891471D+05 0.11398425D+01  1  2 15  1  7  1        1 0.821626343375D-04 0.100000000000D+01
  </mgrwgt>
  </event>
  <event>
  9     66 0.27727860E-05 0.24619519E+03 0.75467711E-02 0.98709021E-01
        1 -1    0    0  501    0 0.00000000E+00 0.00000000E+00 0.68676288E+03 0.68676295E+03 0.32000000E+00 0.0000E+00 0.9000E+01
       21 -1    0    0  502  501 0.00000000E+00 0.00000000E+00 -.20758025E+03 0.20758160E+03 0.75000000E+00 0.0000E+00 0.9000E+01
       25  2    1    2    0    0 -.55357707E+01 0.20353336E+03 0.35339887E+03 0.50700082E+03 0.30116872E+03 0.0000E+00 0.0000E+00
       23  2    1    2    0    0 -.13701146E+03 -.88409345E+02 0.43182280E+02 0.18635529E+03 0.79216362E+02 0.0000E+00 0.0000E+00
       24  1    3    3    0    0 0.14722466E+01 0.24300764E+03 0.32302096E+03 0.41214638E+03 0.80419002E+02 0.0000E+00 0.9000E+01
      -11  1    4    4    0    0 -.71718572E+02 -.30837599E+01 0.31116326E+02 0.78238666E+02 0.51099893E-03 0.0000E+00 0.9000E+01
       11  1    4    4    0    0 -.65292883E+02 -.85325586E+02 0.12065954E+02 0.10811662E+03 0.51099893E-03 0.0000E+00 0.9000E+01
      -24  1    3    3    0    0 -.70080173E+01 -.39474282E+02 0.30377908E+02 0.94854439E+02 0.80419002E+02 0.0000E+00 0.9000E+01
        1  1    1    2  502    0 0.14254723E+03 -.11512401E+03 0.82601478E+02 0.20098845E+03 0.32000000E+00 0.0000E+00 0.9000E+01
#aMCatNLO 2  0  0  2  1 0.18323005D+03 0.00000000D+00  -5  7  0 0.00000000D+00 0.00000000D+00 0.00000000D+00 0.00000000D+00 0.00000000D+00
  <mgrwgt>
 0.1367782088D-03    1    2    0
 0.269208482209016D+03 0.000000000000000D+00 0.000000000000000D+00 0.269208482209016D+03
 0.269208482209016D+03 0.000000000000000D+00 0.000000000000000D+00 -.269208482209016D+03
 0.241251746952494D+03 0.682244066486547D+02 0.189097249547813D+03 0.106408881227795D+03
 0.595056283467154D+02 -.545703245373257D+02 -.169330301795617D+02 -.166214311587906D+02
 0.131299525903120D+03 -.325011674327179D+02 -.111808835588986D+03 -.606796827787487D+02
 0.106360063215703D+03 0.188470853213889D+02 -.603553837792652D+02 -.291077672902561D+02
 0.000000000000000D+00 0.000000000000000D+00 -.000000000000000D+00 -.000000000000000D+00
 0.358360370775577D+03 0.000000000000000D+00 0.000000000000000D+00 0.358360370775577D+03
 0.397808892068238D+03 0.000000000000000D+00 0.000000000000000D+00 -.397808892068238D+03
 0.277209209809946D+03 0.147224663426917D+01 0.243007638840389D+03 0.106408881227795D+03
 0.736840223008891D+02 -.717185721658597D+02 -.308375990665163D+01 -.166214311587906D+02
 0.123392220189843D+03 -.652928829279517D+02 -.853255854958278D+02 -.606796827787487D+02
 0.944553297405828D+02 -.700801730326612D+01 -.394742819932814D+02 -.291077672902561D+02
 0.187428480802554D+03 0.142547225762808D+03 -.115124011444628D+03 -.394485212926616D+02
0.344329622019D-06 0.000000000000D+00 0.000000000000D+00 0.876249258888D-09 0.202492940854D-13  7 1 21 24 -11 11 -24 1 2 0.10565590D+00 0.31935521D-01 0.12541777D+06 0.12541777D+06 0.12541777D+06 0.11137388D+01  1  2  1  4  7  2       -1 0.136778208818D-03 0.100000000000D+01
  </mgrwgt>
  </event>
  <event>
  8     66 0.27727860E-05 0.16579087E+03 0.75467711E-02 0.92327486E-01
        1 -1    0    0  501    0 0.00000000E+00 0.00000000E+00 0.38811160E+03 0.38811173E+03 0.32000000E+00 0.0000E+00 0.9000E+01
       -1 -1    0    0    0  501 0.00000000E+00 0.00000000E+00 -.33346624E+03 0.33346640E+03 0.32000000E+00 0.0000E+00 0.9000E+01
       25  2    1    2    0    0 -.62703598E+01 0.59226267E+02 -.25200795E+03 0.39641610E+03 0.30015105E+03 0.0000E+00 0.0000E+00
       23  2    1    2    0    0 0.62703598E+01 -.59226267E+02 0.30665330E+03 0.32516203E+03 0.90260884E+02 0.0000E+00 0.0000E+00
       24  1    3    3    0    0 -.77669655E+02 0.10594125E+03 -.48378225E+02 0.16144285E+03 0.80419002E+02 0.0000E+00 0.9000E+01
      -13  1    4    4    0    0 -.15090579E+01 -.30807166E+02 0.28935578E+03 0.29099508E+03 0.10565837E+00 0.0000E+00 0.9000E+01
       13  1    4    4    0    0 0.77794178E+01 -.28419101E+02 0.17297521E+02 0.34166944E+02 0.10565837E+00 0.0000E+00 0.9000E+01
      -24  1    3    3    0    0 0.71399295E+02 -.46714988E+02 -.20362972E+03 0.23497325E+03 0.80419002E+02 0.0000E+00 0.9000E+01
#aMCatNLO 1  0  0  2  2 0.57902676D+03 0.00000000D+00  -5  7  0 0.00000000D+00 0.00000000D+00 0.00000000D+00 0.00000000D+00 0.00000000D+00
  <mgrwgt>
 0.8133383217D-03    3    2    0
 0.359752998348897D+03 0.000000000000000D+00 0.000000000000000D+00 0.359752998348897D+03
 0.359752998348897D+03 0.000000000000000D+00 0.000000000000000D+00 -.359752998348897D+03
 0.165582044017422D+03 -.776696547991732D+02 0.105941254560310D+03 -.607788832752118D+02
 0.269857335693775D+03 -.150907060358205D+01 -.308071695277614D+02 0.268088833484993D+03
 0.329512976833958D+02 0.777943044256577D+01 -.284190971746963D+02 0.147520641533386D+02
 0.251115319303200D+03 0.713992949601895D+02 -.467149878578525D+02 -.222062014363119D+03
 0.000000000000000D+00 0.000000000000000D+00 -.000000000000000D+00 0.000000000000000D+00
 0.888518096746122D+03 0.000000000000000D+00 0.000000000000000D+00 0.888518096746122D+03
 0.658194679693690D+03 0.000000000000000D+00 0.000000000000000D+00 -.658194679693690D+03
 0.310742708384055D+03 -.119740463487807D+03 0.268443594840761D+03 -.607788832752118D+02
 0.322692635441818D+03 -.538453314181139D+02 0.171346416984761D+03 0.268088833484993D+03
 0.185867654106055D+02 0.322739324172988D+01 -.108364378145173D+02 0.147520641533386D+02
 0.271536698566097D+03 0.252366864800524D+02 0.131592302762381D+03 -.222062014363119D+03
 0.623153968637237D+03 0.145121715184138D+03 -.560545876773385D+03 0.230323417052432D+03
0.255248715366D-04 0.000000000000D+00 0.000000000000D+00 0.280873656601D-05 0.000000000000D+00  7 1 -1 24 -13 13 -24 21 0 0.59709499D-01 0.51302521D-01 0.27486611D+05 0.27486611D+05 0.27486611D+05 0.11708781D+01  1  2  2  2  7  2       -1 0.766611519327D-03 0.100000000000D+01
-.383313621767D-06 0.000000000000D+00 -.980222275535D-07 0.280873656601D-05 0.000000000000D+00  7 1 -1 24 -13 13 -24 21 2 0.59709499D-01 0.51302521D-01 0.27486611D+05 0.27486611D+05 0.27486611D+05 0.11708781D+01  1  2  3  2  7  2       -1 -.157829947756D-04 0.100000000000D+01
0.151814386748D-05 0.000000000000D+00 0.000000000000D+00 0.280873656601D-05 0.000000000000D+00  7 1 -1 24 -13 13 -24 21 2 0.59709499D-01 0.51302521D-01 0.27486611D+05 0.27486611D+05 0.27486611D+05 0.11708781D+01  1  2 15  2  7  2       -1 0.625097971177D-04 0.100000000000D+01
  </mgrwgt>
  </event>
  <event>
  8     66 0.27727860E-05 0.29515763E+03 0.75467711E-02 0.88469010E-01
        1 -1    0    0  501    0 0.00000000E+00 0.00000000E+00 0.77748776E+03 0.77748783E+03 0.32000000E+00 0.0000E+00 0.9000E+01
       -1 -1    0    0    0  501 0.00000000E+00 0.00000000E+00 -.21908689E+03 0.21908713E+03 0.32000000E+00 0.0000E+00 0.9000E+01
       25  2    1    2    0    0 -.12921485E+03 -.16771580E+03 -.26434034E+02 0.36775501E+03 0.29953284E+03 0.0000E+00 0.0000E+00
       23  2    1    2    0    0 0.12921485E+03 0.16771580E+03 0.58483490E+03 0.62881995E+03 0.92507269E+02 0.0000E+00 0.0000E+00
       24  1    3    3    0    0 -.14204402E+03 -.21705414E+03 -.18587771E+02 0.27221632E+03 0.80419002E+02 0.0000E+00 0.9000E+01
      -11  1    4    4    0    0 0.13166020E+03 0.12766299E+03 0.40537100E+03 0.44492460E+03 0.51099893E-03 0.0000E+00 0.9000E+01
       11  1    4    4    0    0 -.24453576E+01 0.40052805E+02 0.17946390E+03 0.18389535E+03 0.51099893E-03 0.0000E+00 0.9000E+01
      -24  1    3    3    0    0 0.12829179E+02 0.49338349E+02 -.78462630E+01 0.95538685E+02 0.80419002E+02 0.0000E+00 0.9000E+01
#aMCatNLO 1  0  0  1  2 0.82755143D+03 0.00000000D+00  -5  7  0 0.00000000D+00 0.00000000D+00 0.00000000D+00 0.00000000D+00 0.00000000D+00
  <mgrwgt>
 0.1143073923D-02    3    2    0
 0.412719671733227D+03 0.000000000000000D+00 0.000000000000000D+00 0.412719671733227D+03
 0.412719671733227D+03 0.000000000000000D+00 0.000000000000000D+00 -.412719671733227D+03
 0.341228463849414D+03 -.142044024294617D+03 -.217054144191229D+03 -.206592938500482D+03
 0.262940205385269D+03 0.131660202909284D+03 0.127662990188116D+03 0.188428510353828D+03
 0.100616356693596D+03 -.244535762309322D+01 0.400528052420602D+02 0.922683274619715D+02
 0.120654317538175D+03 0.128291790084265D+02 0.493383487610526D+02 -.741038993153171D+02
 0.000000000000000D+00 -.000000000000000D+00 -.000000000000000D+00 -.000000000000000D+00
 0.709614960985185D+03 0.000000000000000D+00 0.000000000000000D+00 0.709614960985185D+03
 0.195198133256457D+04 0.000000000000000D+00 0.000000000000000D+00 -.195198133256457D+04
 0.225155528869549D+03 -.388931575684289D+02 -.587165072609758D+01 -.206592938500482D+03
 0.545265602278152D+03 0.278852091496056D+03 0.429011403790002D+03 0.188428510353828D+03
 0.177480407579847D+03 0.482021229507229D+02 0.143744238719757D+03 0.922683274619715D+02
 0.220940398989947D+03 0.750410203244401D+02 0.176705691267708D+03 -.741038993153171D+02
 0.149275435583226D+04 -.363202077202790D+03 -.743589683051369D+03 -.124236637157938D+04
0.490682892202D-04 0.000000000000D+00 0.000000000000D+00 0.115965482577D-05 0.000000000000D+00  7 1 -1 24 -11 11 -24 21 0 0.11961353D+00 0.33705699D-01 0.87118029D+05 0.87118029D+05 0.87118029D+05 0.11266703D+01  1  2  2  1  7  1        1 0.112478749380D-02 0.100000000000D+01
-.235347780327D-05 0.000000000000D+00 -.188435150583D-06 0.115965482577D-05 0.000000000000D+00  7 1 -1 24 -11 11 -24 21 2 0.11961353D+00 0.33705699D-01 0.87118029D+05 0.87118029D+05 0.87118029D+05 0.11266703D+01  1  2  3  1  7  1        1 -.684815099698D-04 0.100000000000D+01
0.298192050742D-05 0.000000000000D+00 0.000000000000D+00 0.115965482577D-05 0.000000000000D+00  7 1 -1 24 -11 11 -24 21 2 0.11961353D+00 0.33705699D-01 0.87118029D+05 0.87118029D+05 0.87118029D+05 0.11266703D+01  1  2 15  1  7  1        1 0.867679392064D-04 0.100000000000D+01
  </mgrwgt>
  </event>
  <event>
  8     66 0.27727860E-05 0.78719329E+02 0.75467711E-02 0.10445636E+00
        3 -1    0    0  501    0 0.00000000E+00 0.00000000E+00 0.53619672E+03 0.53619696E+03 0.50000000E+00 0.0000E+00 0.9000E+01
       -3 -1    0    0    0  501 0.00000000E+00 0.00000000E+00 -.20148150E+03 0.20148212E+03 0.50000000E+00 0.0000E+00 0.9000E+01
       25  2    1    2    0    0 0.58754207E+02 0.15816418E+03 -.12167782E+02 0.34123007E+03 0.29634767E+03 0.0000E+00 0.0000E+00
       23  2    1    2    0    0 -.58754207E+02 -.15816418E+03 0.34688301E+03 0.39644900E+03 0.91520605E+02 0.0000E+00 0.0000E+00
       24  1    3    3    0    0 0.31373921E+02 0.10010419E+03 0.11669621E+03 0.17632468E+03 0.80419002E+02 0.0000E+00 0.9000E+01
      -11  1    4    4    0    0 -.20467948E+02 0.75882538E+01 0.40001034E+02 0.45569740E+02 0.51099893E-03 0.0000E+00 0.9000E+01
       11  1    4    4    0    0 -.38286260E+02 -.16575243E+03 0.30688197E+03 0.35087926E+03 0.51099893E-03 0.0000E+00 0.9000E+01
      -24  1    3    3    0    0 0.27380287E+02 0.58059994E+02 -.12886400E+03 0.16490539E+03 0.80419002E+02 0.0000E+00 0.9000E+01
#aMCatNLO 1  0  0  1  2 0.29357439D+02 0.00000000D+00  -5  7  0 0.00000000D+00 0.00000000D+00 0.00000000D+00 0.00000000D+00 0.00000000D+00
  <mgrwgt>
 0.2351353495D-03    9    2    0
 0.328685309319627D+03 0.000000000000000D+00 0.000000000000000D+00 0.328685309319627D+03
 0.328685309319627D+03 0.000000000000000D+00 0.000000000000000D+00 -.328685309319627D+03
 0.138447057887626D+03 0.313739206594046D+02 0.100104186962410D+03 0.411728155270114D+02
 0.307693831375853D+02 -.204679477286834D+02 0.758825378470863D+01 0.216849362217706D+02
 0.237488885106050D+03 -.382862597117967D+02 -.165752434321071D+03 0.165714403063929D+03
 0.250665292507994D+03 0.273802867810756D+02 0.580599935739524D+02 -.228572154812711D+03
 0.000000000000000D+00 -.000000000000000D+00 0.000000000000000D+00 0.000000000000000D+00
 0.346842897199918D+03 0.000000000000000D+00 0.000000000000000D+00 0.346842897199918D+03
 0.341097321995640D+03 0.000000000000000D+00 0.000000000000000D+00 -.341097321995640D+03
 0.135181644411764D+03 0.340518392271780D+02 0.946157097860778D+02 0.411728155270114D+02
 0.300946609564439D+02 -.198722903564138D+02 0.636743552236177D+01 0.216849362217706D+02
 0.243628506160821D+03 -.335777142100804D+02 -.175402744390574D+03 0.165714403063929D+03
 0.249121015817748D+03 0.322715391377821D+02 0.480352201373998D+02 -.228572154812711D+03
 0.299143918487808D+02 -.128733737984658D+02 0.263843789447348D+02 0.574557520427793D+01
0.236426113759D-04 0.000000000000D+00 0.000000000000D+00 0.749672670423D-07 0.000000000000D+00  7 3 -3 24 -11 11 -24 21 0 0.82491869D-01 0.30997219D-01 0.45587914D+05 0.45587914D+05 0.45587914D+05 0.11508412D+01  1  2  2  1  7  1        3 0.141172509430D-03 0.100000000000D+01
-.101626499930D-05 0.000000000000D+00 -.907938529258D-07 0.749672670423D-07 0.000000000000D+00  7 3 -3 24 -11 11 -24 21 2 0.82491869D-01 0.30997219D-01 0.45587914D+05 0.45587914D+05 0.45587914D+05 0.11508412D+01  1  2  3  1  7  1        3 -.803697152082D-05 0.100000000000D+01
0.143122136611D-05 0.000000000000D+00 0.000000000000D+00 0.749672670423D-07 0.000000000000D+00  7 3 -3 24 -11 11 -24 21 2 0.82491869D-01 0.30997219D-01 0.45587914D+05 0.45587914D+05 0.45587914D+05 0.11508412D+01  1  2 15  1  7  1        3 0.113185885251D-04 0.100000000000D+01
0.557753658713D-04 0.000000000000D+00 0.000000000000D+00 0.749672670423D-07 0.000000000000D+00  7 3 -3 24 -11 11 -24 21 2 0.88534104D-01 0.30997219D-01 0.52131769D+05 0.52131769D+05 0.52131769D+05 0.11457039D+01  1  2 12  1  7  1        3 0.373226647952D-03 0.100000000000D+01
-.487732321500D-04 0.000000000000D+00 0.000000000000D+00 0.749672670423D-07 0.000000000000D+00  7 3 -3 24 -11 11 -24 21 2 0.82491869D-01 0.30997219D-01 0.45587914D+05 0.45587914D+05 0.45587914D+05 0.11508412D+01  1  2  4  1  7  1        3 -.385715416786D-03 0.100000000000D+01
-.175760178054D-03 0.000000000000D+00 -.380255874824D-04 0.749672670423D-07 0.000000000000D+00  7 3 -3 24 -11 11 -24 21 2 0.89709932D-01 0.30997219D-01 0.45587914D+05 0.45587914D+05 0.45587914D+05 0.11508412D+01  1  2  5  1  7  1        3 -.115064634672D-02 0.100000000000D+01
0.178455030505D-03 0.000000000000D+00 0.378922017204D-04 0.749672670423D-07 0.000000000000D+00  7 3 -3 24 -11 11 -24 21 2 0.82491869D-01 0.30997219D-01 0.45587914D+05 0.45587914D+05 0.45587914D+05 0.11508412D+01  1  2  6  1  7  1        3 0.141128347322D-02 0.100000000000D+01
0.682246191739D-06 0.000000000000D+00 0.000000000000D+00 0.749672670423D-07 0.000000000000D+00  7 21 -3 24 -11 11 -24 -3 2 0.88534104D-01 0.30997219D-01 0.52131769D+05 0.52131769D+05 0.52131769D+05 0.11457039D+01  1  2 12  3  7  1        3 0.657610167872D-04 0.100000000000D+01
-.235813514118D-05 0.000000000000D+00 -.529680858164D-06 0.749672670423D-07 0.000000000000D+00  7 21 -3 24 -11 11 -24 -3 2 0.89709932D-01 0.30997219D-01 0.45587914D+05 0.45587914D+05 0.45587914D+05 0.11508412D+01  1  2  5  3  7  1        3 -.223228151431D-03 0.100000000000D+01
  </mgrwgt>
  </event>
  <event>
  8     66 0.27727860E-05 0.85495428E+02 0.75467711E-02 0.10406942E+00
        1 -1    0    0  501    0 0.00000000E+00 0.00000000E+00 0.14453525E+04 0.14453525E+04 0.32000000E+00 0.0000E+00 0.9000E+01
       -1 -1    0    0    0  501 0.00000000E+00 0.00000000E+00 -.85018581E+02 0.85019183E+02 0.32000000E+00 0.0000E+00 0.9000E+01
       25  2    1    2    0    0 0.30482292E+02 0.13529546E+03 0.13090689E+04 0.13502401E+04 0.30042107E+03 0.0000E+00 0.0000E+00
       23  2    1    2    0    0 -.30482292E+02 -.13529546E+03 0.51264965E+02 0.18013160E+03 0.10288471E+03 0.0000E+00 0.0000E+00
       24  1    3    3    0    0 0.38402572E+02 -.19877799E+02 0.13359003E+03 0.16181285E+03 0.80419002E+02 0.0000E+00 0.9000E+01
      -13  1    4    4    0    0 -.24353562E+02 -.36708089E+01 0.41174710E+02 0.47978523E+02 0.10565837E+00 0.0000E+00 0.9000E+01
       13  1    4    4    0    0 -.61287298E+01 -.13162465E+03 0.10090256E+02 0.13215308E+03 0.10565837E+00 0.0000E+00 0.9000E+01
      -24  1    3    3    0    0 -.79202801E+01 0.15517326E+03 0.11754789E+04 0.11884272E+04 0.80419002E+02 0.0000E+00 0.9000E+01
#aMCatNLO 1  0  0  1  2 0.45751115D+02 0.00000000D+00  -5  7  0 0.00000000D+00 0.00000000D+00 0.00000000D+00 0.00000000D+00 0.00000000D+00
  <mgrwgt>
 0.1162289104D-02    9    2    0
 0.350545721222894D+03 0.000000000000000D+00 0.000000000000000D+00 0.350545721222894D+03
 0.350545721222894D+03 0.000000000000000D+00 0.000000000000000D+00 -.350545721222894D+03
 0.940059228801321D+02 0.384025728734738D+02 -.198777945142001D+02 -.223609763678504D+02
 0.248375860051589D+02 -.243535437354046D+02 -.367068911829277D+01 -.321506259476325D+01
 0.268891301876901D+03 -.612875238801583D+01 -.131624793456017D+03 -.234392585989579D+03
 0.313356631683596D+03 -.792027675005338D+01 0.155173277088510D+03 0.259968624952192D+03
 0.000000000000000D+00 -.000000000000000D+00 -.000000000000000D+00 0.000000000000000D+00
 0.374778807378059D+03 0.000000000000000D+00 0.000000000000000D+00 0.374778807378059D+03
 0.373570896940023D+03 0.000000000000000D+00 0.000000000000000D+00 -.373570896940023D+03
 0.958765899757233D+02 0.439495115156318D+02 -.171327675644133D+02 -.223609763678504D+02
 0.233598039148441D+02 -.229455785648501D+02 -.297392598697573D+01 -.321506259476325D+01
 0.265295072494357D+03 0.947615507580923D+01 -.123902355134531D+03 -.234392585989579D+03
 0.318051180142783D+03 0.105247097718961D+02 0.164301192206660D+03 0.259968624952192D+03
 0.457670577903741D+02 -.410047977984870D+02 -.202921435207401D+02 0.120791043803672D+01
0.147851016303D-04 0.000000000000D+00 0.000000000000D+00 0.316201812707D-07 0.000000000000D+00  7 1 -1 24 -13 13 -24 21 0 0.22236197D+00 0.13079831D-01 0.44659766D+05 0.44659766D+05 0.44659766D+05 0.11516353D+01  1  2  2  1  7  1        1 0.511683085275D-03 0.100000000000D+01
-.565614578348D-06 0.000000000000D+00 -.567786832672D-07 0.316201812707D-07 0.000000000000D+00  7 1 -1 24 -13 13 -24 21 2 0.22236197D+00 0.13079831D-01 0.44659766D+05 0.44659766D+05 0.44659766D+05 0.11516353D+01  1  2  3  1  7  1        1 -.259613491094D-04 0.100000000000D+01
0.871022685447D-06 0.000000000000D+00 0.000000000000D+00 0.316201812707D-07 0.000000000000D+00  7 1 -1 24 -13 13 -24 21 2 0.22236197D+00 0.13079831D-01 0.44659766D+05 0.44659766D+05 0.44659766D+05 0.11516353D+01  1  2 15  1  7  1        1 0.399793868206D-04 0.100000000000D+01
0.206079213380D-04 0.000000000000D+00 0.000000000000D+00 0.316201812707D-07 0.000000000000D+00  7 1 -1 24 -13 13 -24 21 2 0.24455759D+00 0.13079831D-01 0.55134411D+05 0.55134411D+05 0.55134411D+05 0.11435799D+01  1  2 12  1  7  1        1 0.747143124512D-03 0.100000000000D+01
-.167202912965D-04 0.000000000000D+00 0.000000000000D+00 0.316201812707D-07 0.000000000000D+00  7 1 -1 24 -13 13 -24 21 2 0.22236197D+00 0.13079831D-01 0.44659766D+05 0.44659766D+05 0.44659766D+05 0.11516353D+01  1  2  4  1  7  1        1 -.767450727362D-03 0.100000000000D+01
-.616959591281D-04 0.000000000000D+00 -.162014036463D-04 0.316201812707D-07 0.000000000000D+00  7 1 -1 24 -13 13 -24 21 2 0.24715086D+00 0.13079831D-01 0.44659766D+05 0.44659766D+05 0.44659766D+05 0.11516353D+01  1  2  5  1  7  1        1 -.222293502960D-02 0.100000000000D+01
0.631453735699D-04 0.000000000000D+00 0.161113309808D-04 0.316201812707D-07 0.000000000000D+00  7 1 -1 24 -13 13 -24 21 2 0.22236197D+00 0.13079831D-01 0.44659766D+05 0.44659766D+05 0.44659766D+05 0.11516353D+01  1  2  6  1  7  1        1 0.289833245225D-02 0.100000000000D+01
0.320585622960D-06 0.000000000000D+00 0.000000000000D+00 0.316201812707D-07 0.000000000000D+00  7 21 -1 24 -13 13 -24 -1 2 0.24455759D+00 0.13079831D-01 0.55134411D+05 0.55134411D+05 0.55134411D+05 0.11435799D+01  1  2 12  3  7  1        1 0.897539190459D-05 0.100000000000D+01
-.991734860200D-06 0.000000000000D+00 -.275987943907D-06 0.316201812707D-07 0.000000000000D+00  7 21 -1 24 -13 13 -24 -1 2 0.24715086D+00 0.13079831D-01 0.44659766D+05 0.44659766D+05 0.44659766D+05 0.11516353D+01  1  2  5  3  7  1        1 -.274772306979D-04 0.100000000000D+01
  </mgrwgt>
  </event>
  <event>
  9     66 -.27727860E-05 0.16143324E+03 0.75467711E-02 0.10753013E+00
        1 -1    0    0  501    0 0.00000000E+00 0.00000000E+00 0.29051860E+03 0.29051878E+03 0.32000000E+00 0.0000E+00 0.9000E+01
       -1 -1    0    0    0  502 0.00000000E+00 0.00000000E+00 -.23184463E+03 0.23184486E+03 0.32000000E+00 0.0000E+00 0.9000E+01
       25  2    1    2    0    0 0.26753683E+02 -.78733454E+02 0.84016060E+02 0.32238773E+03 0.29993405E+03 0.0000E+00 0.0000E+00
       23  2    1    2    0    0 -.10795297E+02 0.12042188E+03 -.31806888E+02 0.15486547E+03 0.91398398E+02 0.0000E+00 0.0000E+00
       24  1    3    3    0    0 0.31750729E+01 0.74408059E+01 -.83497140E+02 0.11620858E+03 0.80419002E+02 0.0000E+00 0.9000E+01
      -13  1    4    4    0    0 0.16795019E+01 0.85357730E+02 0.23182178E+02 0.88465741E+02 0.10565837E+00 0.0000E+00 0.9000E+01
       13  1    4    4    0    0 -.12474798E+02 0.35064152E+02 -.54989065E+02 0.66399727E+02 0.10565837E+00 0.0000E+00 0.9000E+01
      -24  1    3    3    0    0 0.23578610E+02 -.86174260E+02 0.16751320E+03 0.20617915E+03 0.80419002E+02 0.0000E+00 0.9000E+01
       21  1    1    2  501  502 -.15958386E+02 -.41688427E+02 0.64647975E+01 0.45110433E+02 0.75000000E+00 0.0000E+00 0.9000E+01
#aMCatNLO 2  0  0  2  1 0.44638493D+02 0.00000000D+00  -5  7  0 0.00000000D+00 0.00000000D+00 0.00000000D+00 0.00000000D+00 0.00000000D+00
  <mgrwgt>
 -.7592314951D-04    2    2    0
 0.236142026325397D+03 0.000000000000000D+00 0.000000000000000D+00 0.236142026325397D+03
 0.236142026325397D+03 0.000000000000000D+00 0.000000000000000D+00 -.236142026325397D+03
 0.125897475112743D+03 -.107292617195169D+01 -.365633491548331D+01 -.967906934049378D+02
 0.792425875060755D+02 -.111359171323343D+01 0.780612938854240D+02 0.135860952848016D+02
 0.705035857887373D+02 -.148914191723198D+02 0.287511476544337D+02 -.626288492043169D+02
 0.196640404243238D+03 0.170779370575049D+02 -.103156106624374D+03 0.145833447324453D+03
 0.000000000000000D+00 -.000000000000000D+00 -.000000000000000D+00 0.000000000000000D+00
 0.260296534186804D+03 0.000000000000000D+00 0.000000000000000D+00 0.260296534186804D+03
 0.258757379053771D+03 0.000000000000000D+00 0.000000000000000D+00 -.258757379053771D+03
 0.126099567510563D+03 0.317507319615160D+01 0.744080320738038D+01 -.967906934049378D+02
 0.864485780716162D+02 0.167952029850743D+01 0.853577991579183D+02 0.135860952848016D+02
 0.728524812859928D+02 -.124748174693485D+02 0.350640871259371D+02 -.626288492043169D+02
 0.188988265766798D+03 0.235786099601386D+02 -.861742620333070D+02 0.145833447324453D+03
 0.446650206056050D+02 -.159583859854491D+02 -.416884274579288D+02 0.153915513303363D+01
-.294352981962D-05 0.000000000000D+00 0.000000000000D+00 0.851157368478D-06 0.000000000000D+00  7 1 -1 24 -13 13 -24 21 2 0.40547167D-01 0.37176259D-01 0.33903762D+05 0.33903762D+05 0.33903762D+05 0.11624386D+01  1  2 13  2  7  2       -1 -.343695867822D-03 0.100000000000D+01
0.242428754791D-05 0.000000000000D+00 0.000000000000D+00 0.851157368478D-06 0.310273357347D-08  7 1 -1 24 -13 13 -24 21 2 0.44694658D-01 0.35668003D-01 0.33903762D+05 0.33903762D+05 0.33903762D+05 0.11624386D+01  1  2  1  2  7  2       -1 0.267772718313D-03 0.100000000000D+01
  </mgrwgt>
  </event>
  <event>
  8     66 0.27727860E-05 0.52550209E+03 0.75467711E-02 0.88314518E-01
        3 -1    0    0  501    0 0.00000000E+00 0.00000000E+00 0.29525440E+03 0.29525482E+03 0.50000000E+00 0.0000E+00 0.9000E+01
       -3 -1    0    0    0  501 0.00000000E+00 0.00000000E+00 -.97707844E+03 0.97707856E+03 0.50000000E+00 0.0000E+00 0.9000E+01
       25  2    1    2    0    0 -.21872680E+03 -.43098636E+03 -.26705708E+03 0.62865818E+03 0.30050119E+03 0.0000E+00 0.0000E+00
       23  2    1    2    0    0 0.21872680E+03 0.43098636E+03 -.41476697E+03 0.64367521E+03 0.93249547E+02 0.0000E+00 0.0000E+00
       24  1    3    3    0    0 -.10606678E+03 -.21524306E+02 -.41257714E+02 0.14100664E+03 0.80419002E+02 0.0000E+00 0.9000E+01
      -11  1    4    4    0    0 0.95813323E+01 0.32815399E+02 -.66749029E+02 0.74993901E+02 0.51099893E-03 0.0000E+00 0.9000E+01
       11  1    4    4    0    0 0.20914547E+03 0.39817096E+03 -.34801794E+03 0.56868130E+03 0.51099893E-03 0.0000E+00 0.9000E+01
      -24  1    3    3    0    0 -.11266002E+03 -.40946205E+03 -.22579936E+03 0.48765154E+03 0.80419002E+02 0.0000E+00 0.9000E+01
#aMCatNLO 1  0  0  2  1 0.60414490D+03 0.00000000D+00  -5  7  0 0.00000000D+00 0.00000000D+00 0.00000000D+00 0.00000000D+00 0.00000000D+00
  <mgrwgt>
 0.1185137121D-03    3    2    0
 0.537109908220916D+03 0.000000000000000D+00 0.000000000000000D+00 0.537109908220916D+03
 0.537109908220916D+03 0.000000000000000D+00 0.000000000000000D+00 -.537109908220916D+03
 0.140824950369209D+03 -.106066778329714D+03 -.215243061589994D+02 0.406324189687084D+02
 0.464580437895991D+02 0.958133225809182D+01 0.328153990633815D+02 -.314594578660754D+02
 0.452668257329307D+03 0.209145469057397D+03 0.398170961991113D+03 -.512504535919964D+02
 0.434268564953716D+03 -.112660022985775D+03 -.409462054895495D+03 0.420774924893634D+02
 0.000000000000000D+00 -.000000000000000D+00 -.000000000000000D+00 0.000000000000000D+00
 0.188334983530000D+04 0.000000000000000D+00 0.000000000000000D+00 0.188334983530000D+04
 0.688238008752371D+03 0.000000000000000D+00 0.000000000000000D+00 -.688238008752371D+03
 0.111771268142000D+03 -.605893143047122D+02 0.265243651863049D+02 0.406324189687084D+02
 0.704091744786644D+02 0.306221251322778D+02 0.550457974228983D+02 -.314594578660754D+02
 0.762838120631505D+03 0.427985433890125D+03 0.629383712589628D+03 -.512504535919964D+02
 0.287433983609213D+03 0.172754205551827D+02 -.272180314221179D+03 0.420774924893634D+02
 0.133913529719099D+04 -.415293665272874D+03 -.438773560977652D+03 0.119511182654763D+04
0.234273684545D-03 0.000000000000D+00 0.000000000000D+00 0.132988859048D-05 0.000000000000D+00  7 3 -3 24 -11 11 -24 21 0 0.45423795D-01 0.15031980D+00 0.27615245D+06 0.27615245D+06 0.27615245D+06 0.10872233D+01  1  2  2  2  7  2       -3 0.117644356101D-03 0.100000000000D+01
-.130076506700D-04 0.000000000000D+00 -.899672634330D-06 0.132988859048D-05 0.000000000000D+00  7 3 -3 24 -11 11 -24 21 2 0.45423795D-01 0.15031980D+00 0.27615245D+06 0.27615245D+06 0.27615245D+06 0.10872233D+01  1  2  3  2  7  2       -3 -.772118542825D-05 0.100000000000D+01
0.144722288615D-04 0.000000000000D+00 0.000000000000D+00 0.132988859048D-05 0.000000000000D+00  7 3 -3 24 -11 11 -24 21 2 0.45423795D-01 0.15031980D+00 0.27615245D+06 0.27615245D+06 0.27615245D+06 0.10872233D+01  1  2 15  2  7  2       -3 0.859054147702D-05 0.100000000000D+01
  </mgrwgt>
  </event>
  <event>
  8     66 0.27727860E-05 0.12063022E+03 0.75467711E-02 0.10266346E+00
        1 -1    0    0  501    0 0.00000000E+00 0.00000000E+00 0.11497759E+04 0.11497760E+04 0.32000000E+00 0.0000E+00 0.9000E+01
       -1 -1    0    0    0  501 0.00000000E+00 0.00000000E+00 -.52067304E+02 0.52068287E+02 0.32000000E+00 0.0000E+00 0.9000E+01
       25  2    1    2    0    0 -.14900101E+02 -.13297258E+03 0.70135452E+03 0.77459923E+03 0.30033662E+03 0.0000E+00 0.0000E+00
       23  2    1    2    0    0 0.14900101E+02 0.13297258E+03 0.39635409E+03 0.42724502E+03 0.86821770E+02 0.0000E+00 0.0000E+00
       24  1    3    3    0    0 0.89014915E+01 -.20342560E+03 0.45071435E+03 0.50107070E+03 0.80419002E+02 0.0000E+00 0.9000E+01
      -11  1    4    4    0    0 0.13155899E+01 0.11099454E+03 0.19614881E+03 0.22537940E+03 0.51099893E-03 0.0000E+00 0.9000E+01
       11  1    4    4    0    0 0.13584511E+02 0.21978041E+02 0.20020528E+03 0.20186562E+03 0.51099893E-03 0.0000E+00 0.9000E+01
      -24  1    3    3    0    0 -.23801592E+02 0.70453020E+02 0.25064017E+03 0.27352853E+03 0.80419002E+02 0.0000E+00 0.9000E+01
#aMCatNLO 1  0  0  1  2 0.52203378D+02 0.00000000D+00  -5  7  0 0.00000000D+00 0.00000000D+00 0.00000000D+00 0.00000000D+00 0.00000000D+00
  <mgrwgt>
 0.1300062495D-02    9    2    0
 0.244676009885774D+03 0.000000000000000D+00 0.000000000000000D+00 0.244676009885774D+03
 0.244676009885774D+03 0.000000000000000D+00 0.000000000000000D+00 -.244676009885774D+03
 0.219588181890057D+03 0.890149153228208D+01 -.203425595769988D+03 -.170453543681579D+02
 0.113531146236323D+03 0.131558994454471D+01 0.110994535139752D+03 -.238286289563962D+02
 0.466820810550336D+02 0.135845107410450D+02 0.219780407888378D+02 0.388798596015899D+02
 0.109550610590135D+03 -.238015922178718D+02 0.704530198413990D+02 0.199412372296425D+01
 0.000000000000000D+00 -.000000000000000D+00 0.000000000000000D+00 0.000000000000000D+00
 0.284651673043235D+03 0.000000000000000D+00 0.000000000000000D+00 0.284651673043235D+03
 0.263720311678817D+03 0.000000000000000D+00 0.000000000000000D+00 -.263720311678817D+03
 0.229279431048662D+03 0.312824831457446D+02 -.211737345998120D+03 -.170453543681579D+02
 0.110184627013135D+03 0.124702838911961D+02 0.106851955956618D+03 -.238286289563962D+02
 0.474892254698708D+02 0.182799870035537D+02 0.202342563055525D+02 0.388798596015899D+02
 0.105175349979307D+03 -.130951393926522D+02 0.664769063943534D+02 0.199412372296425D+01
 0.562433512110773D+02 -.489376146478423D+02 0.181742273415965D+02 0.209313613644181D+02
0.629091561490D-05 0.000000000000D+00 0.000000000000D+00 0.613951359872D-07 0.000000000000D+00  7 1 -1 24 -11 11 -24 21 0 0.17688868D+00 0.80104335D-02 0.54125521D+05 0.54125521D+05 0.54125521D+05 0.11442790D+01  1  2  2  1  7  1        1 0.727061332292D-03 0.100000000000D+01
-.348415720642D-06 0.000000000000D+00 -.241587723973D-07 0.613951359872D-07 0.000000000000D+00  7 1 -1 24 -11 11 -24 21 2 0.17688868D+00 0.80104335D-02 0.54125521D+05 0.54125521D+05 0.54125521D+05 0.11442790D+01  1  2  3  1  7  1        1 -.527252685217D-04 0.100000000000D+01
0.396018411292D-06 0.000000000000D+00 0.000000000000D+00 0.613951359872D-07 0.000000000000D+00  7 1 -1 24 -11 11 -24 21 2 0.17688868D+00 0.80104335D-02 0.54125521D+05 0.54125521D+05 0.54125521D+05 0.11442790D+01  1  2 15  1  7  1        1 0.599289177780D-04 0.100000000000D+01
0.707315317337D-05 0.000000000000D+00 0.000000000000D+00 0.613951359872D-07 0.000000000000D+00  7 1 -1 24 -11 11 -24 21 2 0.21180151D+00 0.80104335D-02 0.67821354D+05 0.67821354D+05 0.67821354D+05 0.11358288D+01  1  2 12  1  7  1        1 0.736818242496D-03 0.100000000000D+01
-.689596923029D-05 0.000000000000D+00 0.000000000000D+00 0.613951359872D-07 0.000000000000D+00  7 1 -1 24 -11 11 -24 21 2 0.17688868D+00 0.80104335D-02 0.54125521D+05 0.54125521D+05 0.54125521D+05 0.11442790D+01  1  2  4  1  7  1        1 -.104355747414D-02 0.100000000000D+01
-.166255860955D-04 0.000000000000D+00 -.418982166595D-05 0.613951359872D-07 0.000000000000D+00  7 1 -1 24 -11 11 -24 21 2 0.21493342D+00 0.80104335D-02 0.54125521D+05 0.54125521D+05 0.54125521D+05 0.11442790D+01  1  2  5  1  7  1        1 -.170750424071D-02 0.100000000000D+01
0.171927929079D-04 0.000000000000D+00 0.411155775000D-05 0.613951359872D-07 0.000000000000D+00  7 1 -1 24 -11 11 -24 21 2 0.17688868D+00 0.80104335D-02 0.54125521D+05 0.54125521D+05 0.54125521D+05 0.11442790D+01  1  2  6  1  7  1        1 0.260176154232D-02 0.100000000000D+01
0.186651048786D-06 0.000000000000D+00 0.000000000000D+00 0.613951359872D-07 0.000000000000D+00  7 21 -1 24 -11 11 -24 -1 2 0.21180151D+00 0.80104335D-02 0.67821354D+05 0.67821354D+05 0.67821354D+05 0.11358288D+01  1  2 12  3  7  1        1 0.181195412798D-04 0.100000000000D+01
-.420132406496D-06 0.000000000000D+00 -.117498762660D-06 0.613951359872D-07 0.000000000000D+00  7 21 -1 24 -11 11 -24 -1 2 0.21493342D+00 0.80104335D-02 0.54125521D+05 0.54125521D+05 0.54125521D+05 0.11442790D+01  1  2  5  3  7  1        1 -.398400978708D-04 0.100000000000D+01
  </mgrwgt>
  </event>
  <event>
  8     66 0.27727860E-05 0.23459559E+03 0.75467711E-02 0.10375792E+00
        1 -1    0    0  501    0 0.00000000E+00 0.00000000E+00 0.15728280E+03 0.15728312E+03 0.32000000E+00 0.0000E+00 0.9000E+01
       -1 -1    0    0    0  501 0.00000000E+00 0.00000000E+00 -.73566023E+03 0.73566030E+03 0.32000000E+00 0.0000E+00 0.9000E+01
       25  2    1    2    0    0 -.92363255E+02 -.11681968E+03 -.62241437E+03 0.70687130E+03 0.30014926E+03 0.0000E+00 0.0000E+00
       23  2    1    2    0    0 0.92363255E+02 0.11681968E+03 0.44036934E+02 0.18607213E+03 0.10249769E+03 0.0000E+00 0.0000E+00
       24  1    3    3    0    0 0.29254201E+02 0.20862984E+02 -.52119682E+02 0.10234622E+03 0.80419002E+02 0.0000E+00 0.9000E+01
      -11  1    4    4    0    0 0.36123223E+02 -.13558173E+02 0.13130344E+02 0.40756806E+02 0.51099893E-03 0.0000E+00 0.9000E+01
       11  1    4    4    0    0 0.56240033E+02 0.13037785E+03 0.30906589E+02 0.14531532E+03 0.51099893E-03 0.0000E+00 0.9000E+01
      -24  1    3    3    0    0 -.12161746E+03 -.13768266E+03 -.57029469E+03 0.60452508E+03 0.80419002E+02 0.0000E+00 0.9000E+01
#aMCatNLO 1  0  0  2  2 0.11406250D+02 0.00000000D+00  -5  7  0 0.00000000D+00 0.00000000D+00 0.00000000D+00 0.00000000D+00 0.00000000D+00
  <mgrwgt>
 0.1570332762D-03    4    2    0
 0.340157135260154D+03 0.000000000000000D+00 0.000000000000000D+00 0.340157135260154D+03
 0.340157135260154D+03 0.000000000000000D+00 0.000000000000000D+00 -.340157135260154D+03
 0.900238946594080D+02 0.292542012960338D+02 0.208629843174956D+02 0.186014313206463D+02
 0.646580835340399D+02 0.361232227102450D+02 -.135581733297484D+02 0.518840677210396D+02
 0.217008581625144D+03 0.562400327676594D+02 0.130377850922295D+03 0.164107888908892D+03
 0.308623710701716D+03 -.121617456773938D+03 -.137682661910042D+03 -.234593387950578D+03
 0.000000000000000D+00 -.000000000000000D+00 -.000000000000000D+00 0.000000000000000D+00
 0.349023183502420D+03 0.000000000000000D+00 0.000000000000000D+00 0.349023183502420D+03
 0.343893390676347D+03 0.000000000000000D+00 0.000000000000000D+00 -.343893390676347D+03
 0.906374991989805D+02 0.304225314483627D+02 0.218265123134988D+02 0.186014313206463D+02
 0.649897877097506D+02 0.369616504115064D+02 -.128667176130748D+02 0.518840677210396D+02
 0.219157331347695D+03 0.590607006295695D+02 0.132704070481860D+03 0.164107888908892D+03
 0.305625264988414D+03 -.117645132726120D+03 -.134406665461915D+03 -.234593387950578D+03
 0.125066909339265D+02 -.879974976331826D+01 -.725719972036821D+01 0.512979282607264D+01
0.183555078319D-04 0.000000000000D+00 0.000000000000D+00 0.442605420505D-07 0.000000000000D+00  7 1 -1 24 -11 11 -24 21 0 0.24197384D-01 0.11317853D+00 0.55035090D+05 0.55035090D+05 0.55035090D+05 0.11436481D+01  1  2  2  2  7  2       -1 0.361605011777D-03 0.100000000000D+01
-.848592444424D-06 0.000000000000D+00 -.704899831907D-07 0.442605420505D-07 0.000000000000D+00  7 1 -1 24 -11 11 -24 21 2 0.24197384D-01 0.11317853D+00 0.55035090D+05 0.55035090D+05 0.55035090D+05 0.11436481D+01  1  2  3  2  7  2       -1 -.218651272665D-04 0.100000000000D+01
0.111418190019D-05 0.000000000000D+00 0.000000000000D+00 0.442605420505D-07 0.000000000000D+00  7 1 -1 24 -11 11 -24 21 2 0.24197384D-01 0.11317853D+00 0.55035090D+05 0.55035090D+05 0.55035090D+05 0.11436481D+01  1  2 15  2  7  2       -1 0.287083973064D-04 0.100000000000D+01
-.820508265313D-05 0.000000000000D+00 0.000000000000D+00 0.442605420505D-07 0.000000000000D+00  7 1 -1 24 -11 11 -24 21 2 0.24197384D-01 0.11317853D+00 0.55035090D+05 0.55035090D+05 0.55035090D+05 0.11436481D+01  1  2  4  2  7  2       -1 -.211415005663D-03 0.100000000000D+01
  </mgrwgt>
  </event>
  <event>
  8     66 0.27727860E-05 0.93669648E+02 0.75467711E-02 0.10863822E+00
        1 -1    0    0  501    0 0.00000000E+00 0.00000000E+00 0.21736726E+03 0.21736750E+03 0.32000000E+00 0.0000E+00 0.9000E+01
       -1 -1    0    0    0  501 0.00000000E+00 0.00000000E+00 -.18217738E+03 0.18217766E+03 0.32000000E+00 0.0000E+00 0.9000E+01
       25  2    1    2    0    0 0.26503073E+02 0.79360647E+00 0.35566958E+02 0.30425776E+03 0.30100620E+03 0.0000E+00 0.0000E+00
       23  2    1    2    0    0 -.26503073E+02 -.79360647E+00 -.37706975E+00 0.95287394E+02 0.91523235E+02 0.0000E+00 0.0000E+00
       24  1    3    3    0    0 -.10522520E+03 -.25657751E+02 -.23443424E+02 0.13692141E+03 0.80419002E+02 0.0000E+00 0.9000E+01
      -13  1    4    4    0    0 -.21838551E+02 0.44828578E+01 -.44942768E+02 0.50168535E+02 0.10565837E+00 0.0000E+00 0.9000E+01
       13  1    4    4    0    0 -.46645219E+01 -.52764643E+01 0.44565698E+02 0.45118859E+02 0.10565837E+00 0.0000E+00 0.9000E+01
      -24  1    3    3    0    0 0.13172827E+03 0.26451358E+02 0.59010382E+02 0.16733635E+03 0.80419002E+02 0.0000E+00 0.9000E+01
#aMCatNLO 1  0  0  2  1 0.22765295D+02 0.00000000D+00  -5  7  0 0.00000000D+00 0.00000000D+00 0.00000000D+00 0.00000000D+00 0.00000000D+00
  <mgrwgt>
 0.4126677061D-03    7    2    0
 0.198996233715587D+03 0.000000000000000D+00 0.000000000000000D+00 0.198996233715587D+03
 0.198996233715587D+03 0.000000000000000D+00 0.000000000000000D+00 -.198996233715587D+03
 0.139523129749844D+03 -.105218940939197D+03 -.256575638586368D+02 -.356391872142874D+02
 0.543407076050470D+02 -.218458507406312D+02 0.448233028911568D+01 -.495538093754108D+02
 0.413504492129842D+02 -.467078777191775D+01 -.527634297250746D+01 0.407455960386121D+02
 0.162778180863300D+03 0.131735579451745D+03 0.264515765420286D+02 0.444474005510861D+02
 0.000000000000000D+00 -.000000000000000D+00 -.000000000000000D+00 -.000000000000000D+00
 0.199969880017809D+03 0.000000000000000D+00 0.000000000000000D+00 0.199969880017809D+03
 0.399153921015409D+03 0.000000000000000D+00 0.000000000000000D+00 -.399153921015409D+03
 0.135332334349526D+03 -.101079930726331D+03 -.189821154033602D+02 -.356391872142874D+02
 0.539889518055235D+02 -.202145294637347D+02 0.711334604840759D+01 -.495538093754108D+02
 0.410207484352479D+02 -.343037136095381D+01 -.327578356612295D+01 0.407455960386121D+02
 0.168300992180248D+03 0.136721254679213D+03 0.344925371302045D+02 0.444474005510861D+02
 0.200480774262673D+03 -.119964231281928D+02 -.193479842091289D+02 -.199184040997599D+03
0.221929466038D-05 0.000000000000D+00 0.000000000000D+00 0.165546243311D-06 0.000000000000D+00  7 1 -1 24 -13 13 -24 21 0 0.33441157D-01 0.28027328D-01 0.25733711D+05 0.25733711D+05 0.25733711D+05 0.11735678D+01  1  2  2  2  7  2       -1 0.390913301924D-03 0.100000000000D+01
-.116331922431D-06 0.000000000000D+00 -.852267584958D-08 0.165546243311D-06 0.000000000000D+00  7 1 -1 24 -13 13 -24 21 2 0.33441157D-01 0.28027328D-01 0.25733711D+05 0.25733711D+05 0.25733711D+05 0.11735678D+01  1  2  3  2  7  2       -1 -.282215449678D-04 0.100000000000D+01
0.144283902865D-06 0.000000000000D+00 0.000000000000D+00 0.165546243311D-06 0.000000000000D+00  7 1 -1 24 -13 13 -24 21 2 0.33441157D-01 0.28027328D-01 0.25733711D+05 0.25733711D+05 0.25733711D+05 0.11735678D+01  1  2 15  2  7  2       -1 0.350025562008D-04 0.100000000000D+01
0.542965295724D-04 0.000000000000D+00 0.000000000000D+00 0.165546243311D-06 0.000000000000D+00  7 1 -1 24 -13 13 -24 21 2 0.33441157D-01 0.56217931D-01 0.29210087D+05 0.29210087D+05 0.29210087D+05 0.11684126D+01  1  2 12  2  7  2       -1 0.398518080979D-02 0.100000000000D+01
-.539432487599D-04 0.000000000000D+00 -.700044598234D-06 0.165546243311D-06 0.000000000000D+00  7 1 -1 24 -13 13 -24 21 2 0.33441157D-01 0.56314418D-01 0.25733711D+05 0.25733711D+05 0.25733711D+05 0.11735678D+01  1  2  5  2  7  2       -1 -.398439784007D-02 0.100000000000D+01
0.408884444275D-05 0.000000000000D+00 0.000000000000D+00 0.165546243311D-06 0.000000000000D+00  7 1 21 24 -13 13 -24 1 2 0.33441157D-01 0.56217931D-01 0.29210087D+05 0.29210087D+05 0.29210087D+05 0.11684126D+01  1  2 12  4  7  2       -1 0.277681198867D-02 0.100000000000D+01
-.402983225317D-05 0.000000000000D+00 -.528439256488D-07 0.165546243311D-06 0.000000000000D+00  7 1 21 24 -13 13 -24 1 2 0.33441157D-01 0.56314418D-01 0.25733711D+05 0.25733711D+05 0.25733711D+05 0.11735678D+01  1  2  5  4  7  2       -1 -.276262156542D-02 0.100000000000D+01
  </mgrwgt>
  </event>
  <event>
  8     66 0.27727860E-05 0.99328596E+02 0.75467711E-02 0.10537689E+00
        1 -1    0    0  501    0 0.00000000E+00 0.00000000E+00 0.69084310E+03 0.69084318E+03 0.32000000E+00 0.0000E+00 0.9000E+01
       -1 -1    0    0    0  501 0.00000000E+00 0.00000000E+00 -.13018085E+03 0.13018125E+03 0.32000000E+00 0.0000E+00 0.9000E+01
       25  2    1    2    0    0 0.13582361E+03 -.35357007E+02 0.12133056E+03 0.35095878E+03 0.29791406E+03 0.0000E+00 0.0000E+00
       23  2    1    2    0    0 -.13582361E+03 0.35357007E+02 0.43933168E+03 0.47006564E+03 0.90836167E+02 0.0000E+00 0.0000E+00
       24  1    3    3    0    0 0.86190223E+02 0.38755473E+02 -.56521788E+02 0.13635494E+03 0.80419002E+02 0.0000E+00 0.9000E+01
      -13  1    4    4    0    0 -.64080026E+02 -.22779028E+02 0.25478895E+03 0.26370922E+03 0.10565837E+00 0.0000E+00 0.9000E+01
       13  1    4    4    0    0 -.71743587E+02 0.58136034E+02 0.18454273E+03 0.20635642E+03 0.10565837E+00 0.0000E+00 0.9000E+01
      -24  1    3    3    0    0 0.49633390E+02 -.74112480E+02 0.17785235E+03 0.21460384E+03 0.80419002E+02 0.0000E+00 0.9000E+01
#aMCatNLO 1  0  0  2  1 0.21504652D+02 0.00000000D+00  -5  7  0 0.00000000D+00 0.00000000D+00 0.00000000D+00 0.00000000D+00 0.00000000D+00
  <mgrwgt>
 0.7751007903D-03    9    2    0
 0.299891209269241D+03 0.000000000000000D+00 0.000000000000000D+00 0.299891209269241D+03
 0.299891209269241D+03 0.000000000000000D+00 0.000000000000000D+00 -.299891209269241D+03
 0.239487462684710D+03 0.861902229373181D+02 0.387554732893010D+02 -.204832340192967D+03
 0.122813166304200D+03 -.640800157379763D+02 -.227791360017028D+02 0.102264052157636D+03
 0.109969057383166D+03 -.717435973973526D+02 0.581361428749985D+02 0.597179931498565D+02
 0.127512732166407D+03 0.496333901980107D+02 -.741124801625967D+02 0.428502948854738D+02
 0.000000000000000D+00 -.000000000000000D+00 -.000000000000000D+00 -.000000000000000D+00
 0.308228262218772D+03 0.000000000000000D+00 0.000000000000000D+00 0.308228262218772D+03
 0.314279317291327D+03 0.000000000000000D+00 0.000000000000000D+00 -.314279317291327D+03
 0.242269962073664D+03 0.900648986697455D+02 0.464709049565965D+02 -.204832340192967D+03
 0.121131125864187D+03 -.621180220449822D+02 -.188723243572409D+02 0.102264052157636D+03
 0.110748029228326D+03 -.699684153341918D+02 0.616709666515280D+02 0.597179931498565D+02
 0.126018692401659D+03 0.516724912220880D+02 -.700521288711805D+02 0.428502948854738D+02
 0.223397699422633D+02 -.965095251265953D+01 -.192174183797031D+02 -.605105507255490D+01
0.883069313236D-05 0.000000000000D+00 0.000000000000D+00 0.804610220305D-07 0.000000000000D+00  7 1 -1 24 -13 13 -24 21 0 0.10628359D+00 0.20027860D-01 0.40912269D+05 0.40912269D+05 0.40912269D+05 0.11550379D+01  1  2  2  2  7  2       -1 0.572232127923D-03 0.100000000000D+01
-.398078441717D-06 0.000000000000D+00 -.339121868032D-07 0.804610220305D-07 0.000000000000D+00  7 1 -1 24 -13 13 -24 21 2 0.10628359D+00 0.20027860D-01 0.40912269D+05 0.40912269D+05 0.40912269D+05 0.11550379D+01  1  2  3  2  7  2       -1 -.344142686763D-04 0.100000000000D+01
0.518595936018D-06 0.000000000000D+00 0.000000000000D+00 0.804610220305D-07 0.000000000000D+00  7 1 -1 24 -13 13 -24 21 2 0.10628359D+00 0.20027860D-01 0.40912269D+05 0.40912269D+05 0.40912269D+05 0.11550379D+01  1  2 15  2  7  2       -1 0.448331233402D-04 0.100000000000D+01
0.225350995434D-04 0.000000000000D+00 0.000000000000D+00 0.804610220305D-07 0.000000000000D+00  7 1 -1 24 -13 13 -24 21 2 0.10628359D+00 0.21256506D-01 0.45706374D+05 0.45706374D+05 0.45706374D+05 0.11507411D+01  1  2 12  2  7  2       -1 0.175763127860D-02 0.100000000000D+01
-.204224898495D-04 0.000000000000D+00 0.000000000000D+00 0.804610220305D-07 0.000000000000D+00  7 1 -1 24 -13 13 -24 21 2 0.10628359D+00 0.20027860D-01 0.40912269D+05 0.40912269D+05 0.40912269D+05 0.11550379D+01  1  2  4  2  7  2       -1 -.176554412163D-02 0.100000000000D+01
-.814630341542D-04 0.000000000000D+00 -.159773694361D-04 0.804610220305D-07 0.000000000000D+00  7 1 -1 24 -13 13 -24 21 2 0.10628359D+00 0.21549877D-01 0.40912269D+05 0.40912269D+05 0.40912269D+05 0.11550379D+01  1  2  5  2  7  2       -1 -.626778971271D-02 0.100000000000D+01
0.824547912047D-04 0.000000000000D+00 0.159346061333D-04 0.804610220305D-07 0.000000000000D+00  7 1 -1 24 -13 13 -24 21 2 0.10628359D+00 0.20027860D-01 0.40912269D+05 0.40912269D+05 0.40912269D+05 0.11550379D+01  1  2  6  2  7  2       -1 0.712829694049D-02 0.100000000000D+01
0.266875265272D-06 0.000000000000D+00 0.000000000000D+00 0.804610220305D-07 0.000000000000D+00  7 1 21 24 -13 13 -24 1 2 0.10628359D+00 0.21256506D-01 0.45706374D+05 0.45706374D+05 0.45706374D+05 0.11507411D+01  1  2 12  4  7  2       -1 0.253170090260D-03 0.100000000000D+01
-.976408996052D-06 0.000000000000D+00 -.197245957545D-06 0.804610220305D-07 0.000000000000D+00  7 1 21 24 -13 13 -24 1 2 0.10628359D+00 0.21549877D-01 0.40912269D+05 0.40912269D+05 0.40912269D+05 0.11550379D+01  1  2  5  4  7  2       -1 -.913314667327D-03 0.100000000000D+01
  </mgrwgt>
  </event>
  <event>
  8     66 0.27727860E-05 0.31365905E+03 0.75467711E-02 0.98822331E-01
        1 -1    0    0  501    0 0.00000000E+00 0.00000000E+00 0.21718253E+04 0.21718253E+04 0.32000000E+00 0.0000E+00 0.9000E+01
       -1 -1    0    0    0  501 0.00000000E+00 0.00000000E+00 -.23905043E+03 0.23905064E+03 0.32000000E+00 0.0000E+00 0.9000E+01
       25  2    1    2    0    0 0.15893387E+03 -.17702794E+03 0.20801448E+04 0.21150419E+04 0.29966849E+03 0.0000E+00 0.0000E+00
       23  2    1    2    0    0 -.15893387E+03 0.17702794E+03 -.14736988E+03 0.29583406E+03 0.95922061E+02 0.0000E+00 0.0000E+00
       24  1    3    3    0    0 0.20884460E+03 -.16662258E+03 0.17219289E+04 0.17443868E+04 0.80419002E+02 0.0000E+00 0.9000E+01
      -11  1    4    4    0    0 -.59970273E+02 0.13073634E+03 -.59614486E+02 0.15569943E+03 0.51099893E-03 0.0000E+00 0.9000E+01
       11  1    4    4    0    0 -.98963598E+02 0.46291597E+02 -.87755394E+02 0.14013463E+03 0.51099893E-03 0.0000E+00 0.9000E+01
      -24  1    3    3    0    0 -.49910731E+02 -.10405353E+02 0.35821589E+03 0.37065508E+03 0.80419002E+02 0.0000E+00 0.9000E+01
#aMCatNLO 1  0  0  2  1 0.69010825D+02 0.00000000D+00  -5  7  0 0.00000000D+00 0.00000000D+00 0.00000000D+00 0.00000000D+00 0.00000000D+00
  <mgrwgt>
 0.8343268210D-03    4    2    0
 0.720538722215617D+03 0.000000000000000D+00 0.000000000000000D+00 0.720538722215617D+03
 0.720538722215617D+03 0.000000000000000D+00 0.000000000000000D+00 -.720538722215617D+03
 0.608849594443693D+03 0.208844601582997D+03 -.166622583299137D+03 0.541157518495531D+03
 0.340435127485573D+03 -.599702731404333D+02 0.130736339624813D+03 -.308557372083517D+03
 0.352138352126802D+03 -.989635976869196D+02 0.462915971413585D+02 -.334760680793822D+03
 0.139654370375164D+03 -.499107307556442D+02 -.104053534670344D+02 0.102160534381809D+03
 0.000000000000000D+00 -.000000000000000D+00 -.000000000000000D+00 0.000000000000000D+00
 0.113606403721597D+04 0.000000000000000D+00 0.000000000000000D+00 0.113606403721597D+04
 0.724235503414600D+03 0.000000000000000D+00 0.000000000000000D+00 -.724235503414600D+03
 0.606381081264724D+03 0.220791437186418D+03 -.140108819145405D+03 0.541157518495531D+03
 0.345353511244553D+03 -.532283398685246D+02 0.145698797856045D+03 -.308557372083517D+03
 0.352616104972295D+03 -.920352129711265D+02 0.616678494326559D+02 -.334760680793822D+03
 0.138378208059708D+03 -.471774147084498D+02 -.433927041051620D+01 0.102160534381809D+03
 0.417570635089292D+03 -.283504696383172D+02 -.629185577327789D+02 0.411828533801373D+03
0.375415935840D-03 0.000000000000D+00 0.000000000000D+00 0.783401805214D-06 0.000000000000D+00  7 1 -1 24 -11 11 -24 21 0 0.33412699D+00 0.36777007D-01 0.98381998D+05 0.98381998D+05 0.98381998D+05 0.11223039D+01  1  2  2  2  7  2       -1 0.796990868563D-03 0.100000000000D+01
-.331572259942D-05 0.000000000000D+00 -.144169604291D-05 0.783401805214D-06 0.000000000000D+00  7 1 -1 24 -11 11 -24 21 2 0.33412699D+00 0.36777007D-01 0.98381998D+05 0.98381998D+05 0.98381998D+05 0.11223039D+01  1  2  3  2  7  2       -1 -.886624536220D-05 0.100000000000D+01
0.219976089544D-04 0.000000000000D+00 0.000000000000D+00 0.783401805214D-06 0.000000000000D+00  7 1 -1 24 -11 11 -24 21 2 0.33412699D+00 0.36777007D-01 0.98381998D+05 0.98381998D+05 0.98381998D+05 0.11223039D+01  1  2 15  2  7  2       -1 0.588216271185D-04 0.100000000000D+01
-.471930624080D-05 0.000000000000D+00 0.000000000000D+00 0.783401805214D-06 0.000000000000D+00  7 1 -1 24 -11 11 -24 21 2 0.33412699D+00 0.36777007D-01 0.98381998D+05 0.98381998D+05 0.98381998D+05 0.11223039D+01  1  2  4  2  7  2       -1 -.126194293448D-04 0.100000000000D+01
  </mgrwgt>
  </event>
  <event>
  9     66 0.27727860E-05 0.13238524E+03 0.75467711E-02 0.11170449E+00
        1 -1    0    0  501    0 0.00000000E+00 0.00000000E+00 0.22547366E+03 0.22547388E+03 0.32000000E+00 0.0000E+00 0.9000E+01
       -1 -1    0    0    0  502 0.00000000E+00 0.00000000E+00 -.24314578E+03 0.24314599E+03 0.32000000E+00 0.0000E+00 0.9000E+01
       25  2    1    2    0    0 -.50731470E+01 0.10993256E+02 0.83567572E+02 0.31037997E+03 0.29867306E+03 0.0000E+00 0.0000E+00
       23  2    1    2    0    0 -.97436904E+01 -.13053768E+02 -.10729117E+03 0.14208543E+03 0.91714407E+02 0.0000E+00 0.0000E+00
       24  1    3    3    0    0 -.34237128E+02 0.16489772E+02 0.16797950E+03 0.19007478E+03 0.80419002E+02 0.0000E+00 0.9000E+01
      -11  1    4    4    0    0 0.37909172E+02 -.19481311E+02 -.66719470E+02 0.79171425E+02 0.51099893E-03 0.0000E+00 0.9000E+01
       11  1    4    4    0    0 -.47652863E+02 0.64275428E+01 -.40571702E+02 0.62914002E+02 0.51099893E-03 0.0000E+00 0.9000E+01
      -24  1    3    3    0    0 0.29163981E+02 -.54965163E+01 -.84411928E+02 0.12030519E+03 0.80419002E+02 0.0000E+00 0.9000E+01
       21  1    1    2  501  502 0.14816837E+02 0.20605116E+01 0.60514716E+01 0.16154479E+02 0.75000000E+00 0.0000E+00 0.9000E+01
#aMCatNLO 2  0  0  2  2 0.14959424D+02 0.00000000D+00  -5  7  0 0.00000000D+00 0.00000000D+00 0.00000000D+00 0.00000000D+00 0.00000000D+00
  <mgrwgt>
 0.4133333785D-03    2    2    0
 0.225797665563967D+03 0.000000000000000D+00 0.000000000000000D+00 0.225797665563967D+03
 0.225797665563967D+03 0.000000000000000D+00 0.000000000000000D+00 -.225797665563967D+03
 0.198217352688182D+03 -.277200049569529D+02 0.173960797729080D+02 0.178190574066256D+03
 0.769739065455671D+02 0.404143699643769D+02 -.191329238645851D+02 -.626545466319896D+02
 0.593697045630314D+02 -.456808640118046D+02 0.670177985674604D+01 -.373243436618564D+02
 0.117034367331153D+03 0.329864990043806D+02 -.496493576506897D+01 -.782116837724100D+02
 0.000000000000000D+00 0.000000000000000D+00 0.000000000000000D+00 0.000000000000000D+00
 0.237614027157953D+03 0.000000000000000D+00 0.000000000000000D+00 0.237614027157953D+03
 0.230706297612907D+03 0.000000000000000D+00 0.000000000000000D+00 -.230706297612907D+03
 0.199156195461445D+03 -.342371283096043D+02 0.164897724470832D+02 0.178190574066256D+03
 0.757774307744575D+02 0.379091722424032D+02 -.194813105568733D+02 -.626545466319896D+02
 0.608704793663547D+02 -.476528626872631D+02 0.642754278167861D+01 -.373243436618564D+02
 0.116038928510810D+03 0.291639813096720D+02 -.549651628032802D+01 -.782116837724100D+02
 0.164772906577933D+02 0.148168374447922D+02 0.206051160843942D+01 0.690772954504543D+01
-.532119914803D-06 0.000000000000D+00 0.000000000000D+00 0.929343453777D-07 0.000000000000D+00  7 1 -1 24 -11 11 -24 21 2 0.32962058D-01 0.36609842D-01 0.17525851D+05 0.17525851D+05 0.17525851D+05 0.11896353D+01  1  2  8  2  7  2       -1 -.866861683542D-04 0.100000000000D+01
0.341950505532D-05 0.000000000000D+00 0.000000000000D+00 0.929343453777D-07 0.311329173242D-08  7 1 -1 24 -11 11 -24 21 2 0.34687017D-01 0.37405706D-01 0.19646443D+05 0.19646443D+05 0.19646443D+05 0.11847869D+01  1  2  1  2  7  2       -1 0.500019546833D-03 0.100000000000D+01
  </mgrwgt>
  </event>
  <event>
  8     66 0.27727860E-05 0.25099276E+03 0.75467711E-02 0.94013917E-01
        1 -1    0    0  501    0 0.00000000E+00 0.00000000E+00 0.46486659E+03 0.46486670E+03 0.32000000E+00 0.0000E+00 0.9000E+01
       -1 -1    0    0    0  501 0.00000000E+00 0.00000000E+00 -.50088277E+03 0.50088287E+03 0.32000000E+00 0.0000E+00 0.9000E+01
       25  2    1    2    0    0 -.20903796E+03 0.35622535E+03 -.14042087E+03 0.52959889E+03 0.30027252E+03 0.0000E+00 0.0000E+00
       23  2    1    2    0    0 0.20903796E+03 -.35622535E+03 0.10440469E+03 0.43615068E+03 0.93454310E+02 0.0000E+00 0.0000E+00
       24  1    3    3    0    0 -.16800970E+03 0.34215777E+03 -.18106871E+03 0.42959550E+03 0.80419002E+02 0.0000E+00 0.9000E+01
      -11  1    4    4    0    0 0.23520877E+01 -.58030180E+02 -.17963977E+01 0.58105603E+02 0.51099893E-03 0.0000E+00 0.9000E+01
       11  1    4    4    0    0 0.20668588E+03 -.29819517E+03 0.10620108E+03 0.37804508E+03 0.51099893E-03 0.0000E+00 0.9000E+01
      -24  1    3    3    0    0 -.41028264E+02 0.14067585E+02 0.40647838E+02 0.10000339E+03 0.80419002E+02 0.0000E+00 0.9000E+01
#aMCatNLO 1  0  0  2  1 0.14308426D+03 0.00000000D+00  -5  7  0 0.00000000D+00 0.00000000D+00 0.00000000D+00 0.00000000D+00 0.00000000D+00
  <mgrwgt>
 0.8801527689D-03    9    2    0
 0.482538875109855D+03 0.000000000000000D+00 0.000000000000000D+00 0.482538875109855D+03
 0.482538875109855D+03 0.000000000000000D+00 0.000000000000000D+00 -.482538875109855D+03
 0.423137162303712D+03 -.168009698832436D+03 0.342157767778879D+03 -.165162481256718D+03
 0.580790117538404D+02 0.235208768910006D+01 -.580301799159718D+02 0.370821689567602D+00
 0.382271615031345D+03 0.206685875321455D+03 -.298195172570830D+03 0.120383452586847D+03
 0.101589961130813D+03 -.410282641781186D+02 0.140675847079224D+02 0.444082069803035D+02
 0.000000000000000D+00 -.000000000000000D+00 -.000000000000000D+00 -.000000000000000D+00
 0.509648900841668D+03 0.000000000000000D+00 0.000000000000000D+00 0.509648900841668D+03
 0.722216559804814D+03 0.000000000000000D+00 0.000000000000000D+00 -.722216559804814D+03
 0.421617694685407D+03 -.109450431713583D+03 0.363367888372515D+03 -.165162481256718D+03
 0.561117844995835D+02 0.102679099954108D+02 -.551630752888958D+02 0.370821689567602D+00
 0.400206191542031D+03 0.260928033872660D+03 -.278548705312366D+03 0.120383452586847D+03
 0.976913941816669D+02 -.272138776481092D+02 0.190711446676793D+02 0.444082069803035D+02
 0.256238395737793D+03 -.134531634506378D+03 -.487272524389327D+02 -.212567658963146D+03
0.701795731942D-04 0.000000000000D+00 0.000000000000D+00 0.122163751819D-05 0.000000000000D+00  7 1 -1 24 -11 11 -24 21 0 0.71517953D-01 0.77058904D-01 0.20332936D+06 0.20332936D+06 0.20332936D+06 0.10972751D+01  1  2  2  2  7  2       -1 0.735822781872D-03 0.100000000000D+01
-.387709316937D-05 0.000000000000D+00 -.269508039772D-06 0.122163751819D-05 0.000000000000D+00  7 1 -1 24 -11 11 -24 21 2 0.71517953D-01 0.77058904D-01 0.20332936D+06 0.20332936D+06 0.20332936D+06 0.10972751D+01  1  2  3  2  7  2       -1 -.489440398914D-04 0.100000000000D+01
0.439228524468D-05 0.000000000000D+00 0.000000000000D+00 0.122163751819D-05 0.000000000000D+00  7 1 -1 24 -11 11 -24 21 2 0.71517953D-01 0.77058904D-01 0.20332936D+06 0.20332936D+06 0.20332936D+06 0.10972751D+01  1  2 15  2  7  2       -1 0.554477735868D-04 0.100000000000D+01
0.105081731846D-03 0.000000000000D+00 0.000000000000D+00 0.122163751819D-05 0.000000000000D+00  7 1 -1 24 -11 11 -24 21 2 0.71517953D-01 0.11663946D+00 0.27867923D+06 0.27867923D+06 0.27867923D+06 0.10869286D+01  1  2 12  2  7  2       -1 0.518489011871D-03 0.100000000000D+01
-.110958709973D-03 0.000000000000D+00 0.000000000000D+00 0.122163751819D-05 0.000000000000D+00  7 1 -1 24 -11 11 -24 21 2 0.71517953D-01 0.77058904D-01 0.20332936D+06 0.20332936D+06 0.20332936D+06 0.10972751D+01  1  2  4  2  7  2       -1 -.140073175700D-02 0.100000000000D+01
-.131970888305D-03 0.000000000000D+00 -.262409611428D-04 0.122163751819D-05 0.000000000000D+00  7 1 -1 24 -11 11 -24 21 2 0.71517953D-01 0.11884628D+00 0.20332936D+06 0.20332936D+06 0.20332936D+06 0.10972751D+01  1  2  5  2  7  2       -1 -.642547329399D-03 0.100000000000D+01
0.132949302137D-03 0.000000000000D+00 0.239570214388D-04 0.122163751819D-05 0.000000000000D+00  7 1 -1 24 -11 11 -24 21 2 0.71517953D-01 0.77058904D-01 0.20332936D+06 0.20332936D+06 0.20332936D+06 0.10972751D+01  1  2  6  2  7  2       -1 0.167833881289D-02 0.100000000000D+01
0.513499819169D-05 0.000000000000D+00 0.000000000000D+00 0.122163751819D-05 0.000000000000D+00  7 1 21 24 -11 11 -24 1 2 0.71517953D-01 0.11663946D+00 0.27867923D+06 0.27867923D+06 0.27867923D+06 0.10869286D+01  1  2 12  4  7  2       -1 0.167964203225D-03 0.100000000000D+01
-.566945504384D-05 0.000000000000D+00 -.132521766260D-05 0.122163751819D-05 0.000000000000D+00  7 1 21 24 -11 11 -24 1 2 0.71517953D-01 0.11884628D+00 0.20332936D+06 0.20332936D+06 0.20332936D+06 0.10972751D+01  1  2  5  4  7  2       -1 -.183686688215D-03 0.100000000000D+01
  </mgrwgt>
  </event>
  <event>
  8     66 0.27727860E-05 0.42236400E+03 0.75467711E-02 0.89426000E-01
        1 -1    0    0  501    0 0.00000000E+00 0.00000000E+00 0.55998959E+03 0.55998968E+03 0.32000000E+00 0.0000E+00 0.9000E+01
       -1 -1    0    0    0  501 0.00000000E+00 0.00000000E+00 -.37097739E+03 0.37097753E+03 0.32000000E+00 0.0000E+00 0.9000E+01
       25  2    1    2    0    0 0.38263324E+03 0.90328423E+02 0.18811668E+03 0.52848956E+03 0.29890786E+03 0.0000E+00 0.0000E+00
       23  2    1    2    0    0 -.38263324E+03 -.90328423E+02 0.89552022E+00 0.40247765E+03 0.86139629E+02 0.0000E+00 0.0000E+00
       24  1    3    3    0    0 0.19457308E+03 -.17909099E+02 -.26409255E+02 0.21294150E+03 0.80419002E+02 0.0000E+00 0.9000E+01
      -13  1    4    4    0    0 -.32956278E+02 -.34863657E+02 -.60917353E+01 0.48360224E+02 0.10565837E+00 0.0000E+00 0.9000E+01
       13  1    4    4    0    0 -.34967696E+03 -.55464765E+02 0.69872555E+01 0.35411742E+03 0.10565837E+00 0.0000E+00 0.9000E+01
      -24  1    3    3    0    0 0.18806016E+03 0.10823752E+03 0.21452593E+03 0.31554806E+03 0.80419002E+02 0.0000E+00 0.9000E+01
#aMCatNLO 1  0  0  1  1 0.58800132D+03 0.00000000D+00  -5  7  0 0.00000000D+00 0.00000000D+00 0.00000000D+00 0.00000000D+00 0.00000000D+00
  <mgrwgt>
 0.1053384495D-02    3    2    0
 0.455788966687100D+03 0.000000000000000D+00 0.000000000000000D+00 0.455788966687100D+03
 0.455788966687100D+03 0.000000000000000D+00 0.000000000000000D+00 -.455788966687100D+03
 0.222946627093215D+03 0.194573077099525D+03 -.179090986579592D+02 -.711235856179396D+02
 0.506514790760360D+02 -.329558019972269D+02 -.348636262569358D+02 -.162485387504964D+02
 0.360201190058789D+03 -.349677436728708D+03 -.554647964329049D+02 -.662890935166904D+02
 0.277778637146159D+03 0.188060161626410D+03 0.108237521347800D+03 0.153661217885126D+03
 0.000000000000000D+00 -.000000000000000D+00 -.000000000000000D+00 -.000000000000000D+00
 0.821280393863447D+03 0.000000000000000D+00 0.000000000000000D+00 0.821280393863447D+03
 0.852306089153318D+03 0.000000000000000D+00 0.000000000000000D+00 -.852306089153318D+03
 0.338956547419142D+03 0.303190478242735D+03 0.106963987190658D+03 -.711235856179396D+02
 0.293558208502634D+02 -.174901748488811D+02 -.170834127159049D+02 -.162485387504964D+02
 0.253612104508332D+03 -.231025669187277D+03 0.809443995002231D+02 -.662890935166904D+02
 0.462842728627357D+03 0.331224271797646D+03 0.272827578113038D+03 0.153661217885126D+03
 0.588819281611671D+03 -.385898906004223D+03 -.443652552088015D+03 -.310256952898712D+02
0.720305754143D-04 0.000000000000D+00 0.000000000000D+00 0.398485678738D-07 0.000000000000D+00  7 1 -1 24 -13 13 -24 21 0 0.86152262D-01 0.57073462D-01 0.17839135D+06 0.17839135D+06 0.17839135D+06 0.11016596D+01  1  2  2  1  7  1        1 0.104218045827D-02 0.100000000000D+01
-.397347536778D-05 0.000000000000D+00 -.276616375677D-06 0.398485678738D-07 0.000000000000D+00  7 1 -1 24 -13 13 -24 21 2 0.86152262D-01 0.57073462D-01 0.17839135D+06 0.17839135D+06 0.17839135D+06 0.11016596D+01  1  2  3  1  7  1        1 -.697736446361D-04 0.100000000000D+01
0.461152378498D-05 0.000000000000D+00 0.000000000000D+00 0.398485678738D-07 0.000000000000D+00  7 1 -1 24 -13 13 -24 21 2 0.86152262D-01 0.57073462D-01 0.17839135D+06 0.17839135D+06 0.17839135D+06 0.11016596D+01  1  2 15  1  7  1        1 0.809776812544D-04 0.100000000000D+01
  </mgrwgt>
  </event>
  <event>
  8     66 0.27727860E-05 0.38488713E+03 0.75467711E-02 0.90415545E-01
        3 -1    0    0  501    0 0.00000000E+00 0.00000000E+00 0.67285472E+03 0.67285491E+03 0.50000000E+00 0.0000E+00 0.9000E+01
       -3 -1    0    0    0  501 0.00000000E+00 0.00000000E+00 -.34500468E+03 0.34500504E+03 0.50000000E+00 0.0000E+00 0.9000E+01
       25  2    1    2    0    0 0.13813973E+03 -.29141491E+03 0.47898872E+03 0.65043165E+03 0.29937585E+03 0.0000E+00 0.0000E+00
       23  2    1    2    0    0 -.13813973E+03 0.29141491E+03 -.15113868E+03 0.36742830E+03 0.90307369E+02 0.0000E+00 0.0000E+00
       24  1    3    3    0    0 -.65672051E+02 -.90150246E+02 0.10777276E+03 0.17470566E+03 0.80419002E+02 0.0000E+00 0.9000E+01
      -11  1    4    4    0    0 0.12715194E+02 0.35266227E+02 -.20395928E+02 0.42677592E+02 0.51099893E-03 0.0000E+00 0.9000E+01
       11  1    4    4    0    0 -.15085492E+03 0.25614868E+03 -.13074275E+03 0.32475071E+03 0.51099893E-03 0.0000E+00 0.9000E+01
      -24  1    3    3    0    0 0.20381178E+03 -.20126466E+03 0.37121596E+03 0.47572598E+03 0.80419002E+02 0.0000E+00 0.9000E+01
#aMCatNLO 1  0  0  1  2 0.53912217D+03 0.00000000D+00  -5  7  0 0.00000000D+00 0.00000000D+00 0.00000000D+00 0.00000000D+00 0.00000000D+00
  <mgrwgt>
 0.1127548493D-03    3    2    0
 0.481807335022558D+03 0.000000000000000D+00 0.000000000000000D+00 0.481807335022558D+03
 0.481807335022558D+03 0.000000000000000D+00 0.000000000000000D+00 -.481807335022558D+03
 0.147873003408826D+03 -.656720509790188D+02 -.901502463915911D+02 0.543996689192199D+02
 0.520193587500473D+02 0.127151944132156D+02 0.352662268721145D+02 -.360642587336105D+02
 0.387514606569702D+03 -.150854923831648D+03 0.256148683763598D+03 -.248592465828704D+03
 0.376207701316540D+03 0.203811780397451D+03 -.201264664244121D+03 0.230257055643094D+03
 0.000000000000000D+00 -.000000000000000D+00 -.000000000000000D+00 -.000000000000000D+00
 0.587488229308426D+03 0.000000000000000D+00 0.000000000000000D+00 0.587488229308426D+03
 0.260472422572017D+04 0.000000000000000D+00 0.000000000000000D+00 -.260472422572017D+04
 0.112297504393817D+03 -.511186015814419D+02 -.238972411074131D+02 0.543996689192199D+02
 0.804049192111468D+02 0.201227597233499D+02 0.689883672546507D+02 -.360642587336105D+02
 0.565905703835154D+03 -.975223829557054D+02 0.498939311328548D+03 -.248592465828704D+03
 0.345568462379531D+03 0.244186582920019D+03 -.174627399167710D+02 0.230257055643094D+03
 0.208803586520894D+04 -.115668358106221D+03 -.526567697559015D+03 -.201723599641174D+04
0.926722784003D-04 0.000000000000D+00 0.000000000000D+00 0.172135810488D-05 0.000000000000D+00  7 3 -3 24 -11 11 -24 21 0 0.10351615D+00 0.53077686D-01 0.14813810D+06 0.14813810D+06 0.14813810D+06 0.11079802D+01  1  2  2  1  7  1        3 0.111653860574D-03 0.100000000000D+01
-.483270082786D-05 0.000000000000D+00 -.355885950228D-06 0.172135810488D-05 0.000000000000D+00  7 3 -3 24 -11 11 -24 21 2 0.10351615D+00 0.53077686D-01 0.14813810D+06 0.14813810D+06 0.14813810D+06 0.11079802D+01  1  2  3  1  7  1        3 -.714788947307D-05 0.100000000000D+01
0.557708125767D-05 0.000000000000D+00 0.000000000000D+00 0.172135810488D-05 0.000000000000D+00  7 3 -3 24 -11 11 -24 21 2 0.10351615D+00 0.53077686D-01 0.14813810D+06 0.14813810D+06 0.14813810D+06 0.11079802D+01  1  2 15  1  7  1        3 0.824887818057D-05 0.100000000000D+01
  </mgrwgt>
  </event>
  <event>
  8     66 0.27727860E-05 0.14583242E+03 0.75467711E-02 0.99120948E-01
        1 -1    0    0  501    0 0.00000000E+00 0.00000000E+00 0.22152258E+04 0.22152258E+04 0.32000000E+00 0.0000E+00 0.9000E+01
       -1 -1    0    0    0  501 0.00000000E+00 0.00000000E+00 -.12361404E+03 0.12361445E+03 0.32000000E+00 0.0000E+00 0.9000E+01
       25  2    1    2    0    0 -.31372526E+02 -.25083395E+03 0.20219548E+04 0.20596781E+04 0.30011760E+03 0.0000E+00 0.0000E+00
       23  2    1    2    0    0 0.31372526E+02 0.25083395E+03 0.69656917E+02 0.27916217E+03 0.95799406E+02 0.0000E+00 0.0000E+00
       24  1    3    3    0    0 0.73471280E+02 -.20751607E+03 0.93779933E+03 0.96664148E+03 0.80419002E+02 0.0000E+00 0.9000E+01
      -11  1    4    4    0    0 -.27921230E+02 0.27970775E+02 0.13970244E+02 0.41918099E+02 0.51099893E-03 0.0000E+00 0.9000E+01
       11  1    4    4    0    0 0.59293756E+02 0.22286318E+03 0.55686673E+02 0.23724408E+03 0.51099893E-03 0.0000E+00 0.9000E+01
      -24  1    3    3    0    0 -.10484381E+03 -.43317886E+02 0.10841555E+04 0.10930366E+04 0.80419002E+02 0.0000E+00 0.9000E+01
#aMCatNLO 1  0  0  2  1 0.36434110D+02 0.00000000D+00  -5  7  0 0.00000000D+00 0.00000000D+00 0.00000000D+00 0.00000000D+00 0.00000000D+00
  <mgrwgt>
 0.6706896125D-03    9    2    0
 0.523291043252080D+03 0.000000000000000D+00 0.000000000000000D+00 0.523291043252080D+03
 0.523291043252080D+03 0.000000000000000D+00 0.000000000000000D+00 -.523291043252080D+03
 0.285986081908714D+03 0.734712796958793D+02 -.207516066743906D+03 0.163889829440744D+03
 0.657563438821033D+02 -.279212299557090D+02 0.279707746504120D+02 -.525541382191517D+02
 0.418888399986299D+03 0.592937559471825D+02 0.222863178052080D+03 -.349690929275102D+03
 0.275951260727043D+03 -.104843805687353D+03 -.433178859585865D+02 0.238355238053510D+03
 0.000000000000000D+00 0.000000000000000D+00 -.000000000000000D+00 -.000000000000000D+00
 0.537025358485719D+03 0.000000000000000D+00 0.000000000000000D+00 0.537025358485719D+03
 0.548341819954295D+03 0.000000000000000D+00 0.000000000000000D+00 -.548341819954295D+03
 0.278609231458955D+03 0.686530948052920D+02 -.198954176330427D+03 0.163889829440744D+03
 0.671214649380239D+02 -.290551923453943D+02 0.299858201362045D+02 -.525541382191517D+02
 0.424891164500694D+03 0.520930480200338D+02 0.235658799966083D+03 -.349690929275102D+03
 0.276594214308024D+03 -.109559158783886D+03 -.349387271279974D+02 0.238355238053510D+03
 0.381511032343161D+02 0.178682083039544D+02 -.317517166438632D+02 -.113164614685759D+02
0.858634378121D-04 0.000000000000D+00 0.000000000000D+00 0.608193959903D-06 0.000000000000D+00  7 1 -1 24 -11 11 -24 21 0 0.34080400D+00 0.19017578D-01 0.10354196D+06 0.10354196D+06 0.10354196D+06 0.11204837D+01  1  2  2  2  7  2       -1 0.504542143168D-03 0.100000000000D+01
-.339875600763D-05 0.000000000000D+00 -.329738209561D-06 0.608193959903D-06 0.000000000000D+00  7 1 -1 24 -11 11 -24 21 2 0.34080400D+00 0.19017578D-01 0.10354196D+06 0.10354196D+06 0.10354196D+06 0.11204837D+01  1  2  3  2  7  2       -1 -.250738042758D-04 0.100000000000D+01
0.506194544371D-05 0.000000000000D+00 0.000000000000D+00 0.608193959903D-06 0.000000000000D+00  7 1 -1 24 -11 11 -24 21 2 0.34080400D+00 0.19017578D-01 0.10354196D+06 0.10354196D+06 0.10354196D+06 0.11204837D+01  1  2 15  2  7  2       -1 0.373437307726D-04 0.100000000000D+01
0.211034581664D-03 0.000000000000D+00 0.000000000000D+00 0.608193959903D-06 0.000000000000D+00  7 1 -1 24 -11 11 -24 21 2 0.34080400D+00 0.20168199D-01 0.11736362D+06 0.11736362D+06 0.11736362D+06 0.11160603D+01  1  2 12  2  7  2       -1 0.139785467520D-02 0.100000000000D+01
-.193501891221D-03 0.000000000000D+00 0.000000000000D+00 0.608193959903D-06 0.000000000000D+00  7 1 -1 24 -11 11 -24 21 2 0.34080400D+00 0.19017578D-01 0.10354196D+06 0.10354196D+06 0.10354196D+06 0.11204837D+01  1  2  4  2  7  2       -1 -.142753070141D-02 0.100000000000D+01
-.723434327274D-03 0.000000000000D+00 -.148640388082D-03 0.608193959903D-06 0.000000000000D+00  7 1 -1 24 -11 11 -24 21 2 0.34080400D+00 0.20535406D-01 0.10354196D+06 0.10354196D+06 0.10354196D+06 0.11204837D+01  1  2  5  2  7  2       -1 -.471889194411D-02 0.100000000000D+01
0.733122698185D-03 0.000000000000D+00 0.148203254042D-03 0.608193959903D-06 0.000000000000D+00  7 1 -1 24 -11 11 -24 21 2 0.34080400D+00 0.19017578D-01 0.10354196D+06 0.10354196D+06 0.10354196D+06 0.11204837D+01  1  2  6  2  7  2       -1 0.540850093481D-02 0.100000000000D+01
0.252113119150D-05 0.000000000000D+00 0.000000000000D+00 0.608193959903D-06 0.000000000000D+00  7 1 21 24 -11 11 -24 1 2 0.34080400D+00 0.20168199D-01 0.11736362D+06 0.11736362D+06 0.11736362D+06 0.11160603D+01  1  2 12  4  7  2       -1 0.201001775732D-03 0.100000000000D+01
-.901845663097D-05 0.000000000000D+00 -.191420285741D-05 0.608193959903D-06 0.000000000000D+00  7 1 21 24 -11 11 -24 1 2 0.34080400D+00 0.20535406D-01 0.10354196D+06 0.10354196D+06 0.10354196D+06 0.11204837D+01  1  2  5  4  7  2       -1 -.707057197393D-03 0.100000000000D+01
  </mgrwgt>
  </event>
  <event>
  9     66 0.27727860E-05 0.16715715E+03 0.75467711E-02 0.10680303E+00
        3 -1    0    0  501    0 0.00000000E+00 0.00000000E+00 0.42527644E+03 0.42527674E+03 0.50000000E+00 0.0000E+00 0.9000E+01
       21 -1    0    0  502  501 0.00000000E+00 0.00000000E+00 -.18710381E+03 0.18710531E+03 0.75000000E+00 0.0000E+00 0.9000E+01
       25  2    1    2    0    0 0.87548737E+02 -.69154392E+02 0.13007849E+03 0.34547926E+03 0.29998066E+03 0.0000E+00 0.0000E+00
       23  2    1    2    0    0 -.53367082E+02 0.36060388E+02 0.16087373E+03 0.19584272E+03 0.91244828E+02 0.0000E+00 0.0000E+00
       24  1    3    3    0    0 -.23707794E+02 -.30402260E+02 0.17459323E+03 0.19605195E+03 0.80419002E+02 0.0000E+00 0.9000E+01
      -11  1    4    4    0    0 -.44206230E+02 0.64255660E+02 0.13754277E+03 0.15811702E+03 0.51099893E-03 0.0000E+00 0.9000E+01
       11  1    4    4    0    0 -.91608521E+01 -.28195272E+02 0.23330961E+02 0.37725699E+02 0.51099893E-03 0.0000E+00 0.9000E+01
      -24  1    3    3    0    0 0.11125653E+03 -.38752131E+02 -.44514738E+02 0.14942731E+03 0.80419002E+02 0.0000E+00 0.9000E+01
        3  1    1    2  502    0 -.34181655E+02 0.33094004E+02 -.52779581E+02 0.71060065E+02 0.50000000E+00 0.0000E+00 0.9000E+01
#aMCatNLO 2  0  0  2  1 0.47577291D+02 0.00000000D+00  -5  7  0 0.00000000D+00 0.00000000D+00 0.00000000D+00 0.00000000D+00 0.00000000D+00
  <mgrwgt>
 0.1262424107D-04    2    2    0
 0.226998183204015D+03 0.000000000000000D+00 0.000000000000000D+00 0.226998183204015D+03
 0.226998183204015D+03 0.000000000000000D+00 0.000000000000000D+00 -.226998183204015D+03
 0.121439703590233D+03 -.328173634395730D+02 -.215825547307359D+02 0.820828827581180D+02
 0.108395950967193D+03 -.520238162644751D+02 0.718244924808830D+02 0.623253319864869D+02
 0.286645330627241D+02 -.113582551381662D+02 -.260677899909369D+02 0.362157713002692D+01
 0.195496178787880D+03 0.961994348422142D+02 -.241741477592101D+02 -.148029791874632D+03
 0.000000000000000D+00 -.000000000000000D+00 0.000000000000000D+00 -.000000000000000D+00
 0.233253949034319D+03 0.000000000000000D+00 0.000000000000000D+00 0.233253949034319D+03
 0.341134794964225D+03 0.000000000000000D+00 0.000000000000000D+00 -.341134794964225D+03
 0.121207147152789D+03 -.237077938686085D+02 -.304022603526124D+02 0.820828827581180D+02
 0.998370053902899D+02 -.442062303485752D+02 0.642556599564870D+02 0.623253319864869D+02
 0.298665433030666D+02 -.916085216102107D+01 -.281952722215823D+02 0.362157713002692D+01
 0.205571833194062D+03 0.111256530974516D+03 -.387521313151482D+02 -.148029791874632D+03
 0.117906214958336D+03 -.341816545963110D+02 0.330940039328558D+02 -.107880845929905D+03
-.355977907207D-06 0.000000000000D+00 0.000000000000D+00 0.647655344916D-06 0.000000000000D+00  7 3 21 24 -11 11 -24 3 2 0.63672411D-01 0.28942874D-01 0.37450472D+05 0.37450472D+05 0.37450472D+05 0.11585018D+01  1  2 13  4  7  2       -3 -.952794163319D-04 0.100000000000D+01
0.422278363076D-06 0.000000000000D+00 0.000000000000D+00 0.647655344916D-06 0.115428261739D-09  7 3 21 24 -11 11 -24 3 2 0.65427138D-01 0.28785275D-01 0.37450472D+05 0.37450472D+05 0.37450472D+05 0.11585018D+01  1  2  1  4  7  2       -3 0.107903657403D-03 0.100000000000D+01
  </mgrwgt>
  </event>
  <event>
  9     66 0.27727860E-05 0.17625060E+03 0.75467711E-02 0.10317729E+00
        1 -1    0    0  501    0 0.00000000E+00 0.00000000E+00 0.35536095E+04 0.35536095E+04 0.32000000E+00 0.0000E+00 0.9000E+01
       -1 -1    0    0    0  502 0.00000000E+00 0.00000000E+00 -.30153743E+02 0.30155441E+02 0.32000000E+00 0.0000E+00 0.9000E+01
       25  2    1    2    0    0 -.68770793E+02 -.10211001E+03 0.20225962E+04 0.20484911E+04 0.30044071E+03 0.0000E+00 0.0000E+00
       23  2    1    2    0    0 -.55877793E+02 0.14691544E+03 0.10412078E+04 0.10569172E+04 0.90850124E+02 0.0000E+00 0.0000E+00
       24  1    3    3    0    0 -.92987026E+01 -.38463316E+02 0.17364008E+04 0.17387124E+04 0.80419002E+02 0.0000E+00 0.9000E+01
      -11  1    4    4    0    0 -.24723240E+01 0.49876292E+02 0.13454344E+03 0.14351200E+03 0.51099893E-03 0.0000E+00 0.9000E+01
       11  1    4    4    0    0 -.53405469E+02 0.97039146E+02 0.90666439E+03 0.91340519E+03 0.51099893E-03 0.0000E+00 0.9000E+01
      -24  1    3    3    0    0 -.59472090E+02 -.63646690E+02 0.28619546E+03 0.30977877E+03 0.80419002E+02 0.0000E+00 0.9000E+01
       21  1    1    2  501  502 0.12464859E+03 -.44805432E+02 0.45965174E+03 0.47835665E+03 0.75000000E+00 0.0000E+00 0.9000E+01
#aMCatNLO 2  0  0  2  1 0.13245677D+03 0.00000000D+00  -5  7  0 0.00000000D+00 0.00000000D+00 0.00000000D+00 0.00000000D+00 0.00000000D+00
  <mgrwgt>
 0.7876183622D-04    2    2    0
 0.244499956175333D+03 0.000000000000000D+00 0.000000000000000D+00 0.244499956175333D+03
 0.244499956175333D+03 0.000000000000000D+00 0.000000000000000D+00 -.244499956175333D+03
 0.163567542236985D+03 0.308057943634949D+02 -.528790377430758D+02 0.128615455214674D+03
 0.632019038651630D+02 0.137061936844884D+02 0.440608595125320D+02 -.431886740463459D+02
 0.974423376312049D+02 -.267113700380364D+02 0.874438455367164D+02 0.336910336955653D+02
 0.164788128617313D+03 -.178006180099469D+02 -.786256673061726D+02 -.119117814863893D+03
 0.000000000000000D+00 0.000000000000000D+00 -.000000000000000D+00 -.000000000000000D+00
 0.291825156375593D+03 0.000000000000000D+00 0.000000000000000D+00 0.291825156375593D+03
 0.367196102674302D+03 0.000000000000000D+00 0.000000000000000D+00 -.367196102674302D+03
 0.156764293872236D+03 -.929870255823421D+01 -.384633161537838D+02 0.128615455214674D+03
 0.660228633643133D+02 -.247232401301158D+01 0.498762923132420D+02 -.431886740463459D+02
 0.115774892529718D+03 -.534054690526995D+02 0.970391460393859D+02 0.336910336955653D+02
 0.168059812156209D+03 -.594720902503901D+02 -.636466901803266D+02 -.119117814863893D+03
 0.152399397127418D+03 0.124648585874335D+03 -.448054320185175D+02 -.753709462987096D+02
-.192705851125D-05 0.000000000000D+00 0.000000000000D+00 0.712471015439D-06 0.000000000000D+00  7 1 -1 24 -11 11 -24 21 2 0.45804824D+00 0.48174164D-02 0.62835509D+05 0.62835509D+05 0.62835509D+05 0.11386677D+01  1  2 13  2  7  2       -1 -.364146715183D-04 0.100000000000D+01
0.160106699810D-04 0.000000000000D+00 0.000000000000D+00 0.712471015439D-06 0.312597026422D-09  7 1 -1 24 -11 11 -24 21 2 0.54670767D+00 0.46391553D-02 0.62835509D+05 0.62835509D+05 0.62835509D+05 0.11386677D+01  1  2  1  2  7  2       -1 0.115176507735D-03 0.100000000000D+01
  </mgrwgt>
  </event>
  <event>
  8     66 0.27727860E-05 0.29843597E+03 0.75467711E-02 0.97003111E-01
        3 -1    0    0  501    0 0.00000000E+00 0.00000000E+00 0.29193681E+03 0.29193724E+03 0.50000000E+00 0.0000E+00 0.9000E+01
       -3 -1    0    0    0  501 0.00000000E+00 0.00000000E+00 -.67935404E+03 0.67935422E+03 0.50000000E+00 0.0000E+00 0.9000E+01
       25  2    1    2    0    0 -.21586752E+03 0.94069402E+02 0.12396132E+03 0.40111464E+03 0.30013115E+03 0.0000E+00 0.0000E+00
       23  2    1    2    0    0 0.21586752E+03 -.94069402E+02 -.51137854E+03 0.57017682E+03 0.90253836E+02 0.0000E+00 0.0000E+00
       24  1    3    3    0    0 -.14074073E+03 0.15077687E+03 0.15886897E+03 0.27248520E+03 0.80419002E+02 0.0000E+00 0.9000E+01
      -11  1    4    4    0    0 -.60210583E+01 0.58020725E+01 -.24343203E+02 0.25739245E+02 0.51099893E-03 0.0000E+00 0.9000E+01
       11  1    4    4    0    0 0.22188857E+03 -.99871475E+02 -.48703534E+03 0.54443758E+03 0.51099893E-03 0.0000E+00 0.9000E+01
      -24  1    3    3    0    0 -.75126786E+02 -.56707468E+02 -.34907660E+02 0.12862943E+03 0.80419002E+02 0.0000E+00 0.9000E+01
#aMCatNLO 1  0  0  1  2 0.18823729D+03 0.00000000D+00  -5  7  0 0.00000000D+00 0.00000000D+00 0.00000000D+00 0.00000000D+00 0.00000000D+00
  <mgrwgt>
 0.1700767333D-03    3    2    0
 0.445341157164301D+03 0.000000000000000D+00 0.000000000000000D+00 0.445341157164301D+03
 0.445341157164301D+03 0.000000000000000D+00 0.000000000000000D+00 -.445341157164301D+03
 0.366248572381541D+03 -.140740730706496D+03 0.150776869723984D+03 0.291769057807001D+03
 0.174802304876686D+02 -.602105831324760D+01 0.580207252427745D+01 -.153506113596012D+02
 0.381866440066178D+03 0.221888574587356D+03 -.998714745090739D+02 -.294301082389771D+03
 0.125087071393214D+03 -.751267855676127D+02 -.567074677391871D+02 0.178826359423711D+02
 0.000000000000000D+00 0.000000000000000D+00 -.000000000000000D+00 -.000000000000000D+00
 0.462765735177522D+03 0.000000000000000D+00 0.000000000000000D+00 0.462765735177522D+03
 0.162263955720711D+04 0.000000000000000D+00 0.000000000000000D+00 -.162263955720711D+04
 0.412289459456817D+03 -.159819182446729D+03 0.229878290086945D+03 0.291769057807001D+03
 0.193567305235020D+02 -.692376589356830D+01 0.954480032777108D+01 -.153506113596012D+02
 0.358787681944250D+03 0.203738486415538D+03 -.246191545801858D+02 -.294301082389771D+03
 0.119922246715645D+03 -.811308576363972D+02 -.318139053543052D+02 0.178826359423711D+02
 0.117504917374442D+04 0.441353195611563D+02 -.182990030480225D+03 -.115987382202959D+04
0.109805330072D-03 0.000000000000D+00 0.000000000000D+00 0.439282978978D-05 0.000000000000D+00  7 3 -3 24 -11 11 -24 21 0 0.44913402D-01 0.10451605D+00 0.89064027D+05 0.89064027D+05 0.89064027D+05 0.11258731D+01  1  2  2  1  7  1        3 0.166873574536D-03 0.100000000000D+01
-.491187170613D-05 0.000000000000D+00 -.421681379882D-06 0.439282978978D-05 0.000000000000D+00  7 3 -3 24 -11 11 -24 21 2 0.44913402D-01 0.10451605D+00 0.89064027D+05 0.89064027D+05 0.89064027D+05 0.11258731D+01  1  2  3  1  7  1        3 -.946215420435D-05 0.100000000000D+01
0.657465425548D-05 0.000000000000D+00 0.000000000000D+00 0.439282978978D-05 0.000000000000D+00  7 3 -3 24 -11 11 -24 21 2 0.44913402D-01 0.10451605D+00 0.89064027D+05 0.89064027D+05 0.89064027D+05 0.11258731D+01  1  2 15  1  7  1        3 0.126653129657D-04 0.100000000000D+01
  </mgrwgt>
  </event>
  <event>
  9     66 0.27727860E-05 0.19768159E+03 0.75467711E-02 0.91193241E-01
        1 -1    0    0  501    0 0.00000000E+00 0.00000000E+00 0.53959533E+03 0.53959542E+03 0.32000000E+00 0.0000E+00 0.9000E+01
       -1 -1    0    0    0  502 0.00000000E+00 0.00000000E+00 -.93868490E+03 0.93868496E+03 0.32000000E+00 0.0000E+00 0.9000E+01
       25  2    1    2    0    0 0.40570925E+03 -.28576644E+03 -.19317881E+03 0.61115332E+03 0.29987976E+03 0.0000E+00 0.0000E+00
       23  2    1    2    0    0 0.14537478E+03 -.13797182E+02 0.63425963E+02 0.18450359E+03 0.93244476E+02 0.0000E+00 0.0000E+00
       24  1    3    3    0    0 0.39600268E+03 -.18999215E+03 -.19110869E+03 0.48570041E+03 0.80419002E+02 0.0000E+00 0.9000E+01
      -13  1    4    4    0    0 0.65652601E+02 0.37165715E+02 0.45799662E+02 0.88256301E+02 0.10565837E+00 0.0000E+00 0.9000E+01
       13  1    4    4    0    0 0.79722180E+02 -.50962897E+02 0.17626300E+02 0.96247289E+02 0.10565837E+00 0.0000E+00 0.9000E+01
      -24  1    3    3    0    0 0.97065694E+01 -.95774287E+02 -.20701259E+01 0.12545291E+03 0.80419002E+02 0.0000E+00 0.9000E+01
       21  1    1    2  501  502 -.55108403E+03 0.29956362E+03 -.26933673E+03 0.68262347E+03 0.75000000E+00 0.0000E+00 0.9000E+01
#aMCatNLO 2  0  0  2  2 0.62724156D+03 0.00000000D+00  -5  7  0 0.00000000D+00 0.00000000D+00 0.00000000D+00 0.00000000D+00 0.00000000D+00
  <mgrwgt>
 0.5865808231D-05    1    2    0
 0.236009608438010D+03 0.000000000000000D+00 0.000000000000000D+00 0.236009608438010D+03
 0.236009608438010D+03 0.000000000000000D+00 0.000000000000000D+00 -.236009608438010D+03
 0.183273281988822D+03 0.113681610893302D+03 -.365253424308795D+02 -.113420768122927D+03
 0.108296040189676D+03 -.243603701982754D+02 0.860959374828139D+02 0.610089684679419D+02
 0.416647769418163D+02 0.174112638853122D+02 -.170913758509410D+02 0.337740491953393D+02
 0.138785117755705D+03 -.106732504580339D+03 -.324792192009934D+02 0.186377504596456D+02
 0.000000000000000D+00 -.000000000000000D+00 0.000000000000000D+00 -.000000000000000D+00
 0.636105736001421D+03 0.000000000000000D+00 0.000000000000000D+00 0.636105736001421D+03
 0.796266649738016D+03 0.000000000000000D+00 0.000000000000000D+00 -.796266649738016D+03
 0.460702375140068D+03 0.396002721440572D+03 -.189992201090980D+03 -.113420768122927D+03
 0.970240120596548D+02 0.656526365465631D+02 0.371657906832963D+02 0.610089684679419D+02
 0.100466493718390D+03 0.797220946319047D+02 -.509629040432319D+02 0.337740491953393D+02
 0.126812923658074D+03 0.970657689896295D+01 -.957743090554374D+02 0.186377504596456D+02
 0.647366581163251D+03 -.551084029518003D+03 0.299563623506353D+03 -.160160913736594D+03
0.269865050980D-05 0.000000000000D+00 0.000000000000D+00 0.210059999820D-06 0.108384041448D-10  7 1 -1 24 -13 13 -24 21 2 0.83014652D-01 0.14441303D+00 0.46871949D+06 0.46871949D+06 0.46871949D+06 0.10704990D+01  1  2  1  2  7  2       -1 0.586580823138D-05 0.100000000000D+01
  </mgrwgt>
  </event>
  <event>
  8     66 0.27727860E-05 0.21322765E+03 0.75467711E-02 0.95411589E-01
        1 -1    0    0  501    0 0.00000000E+00 0.00000000E+00 0.18531145E+03 0.18531173E+03 0.32000000E+00 0.0000E+00 0.9000E+01
       -1 -1    0    0    0  501 0.00000000E+00 0.00000000E+00 -.37971900E+03 0.37971913E+03 0.32000000E+00 0.0000E+00 0.9000E+01
       25  2    1    2    0    0 0.65923316E+02 -.10335275E+03 -.24272176E+03 0.40494939E+03 0.30007080E+03 0.0000E+00 0.0000E+00
       23  2    1    2    0    0 -.65923316E+02 0.10335275E+03 0.48314217E+02 0.16008146E+03 0.90907293E+02 0.0000E+00 0.0000E+00
       24  1    3    3    0    0 -.74395699E+02 0.17354079E+01 -.21861244E+02 0.11172673E+03 0.80419002E+02 0.0000E+00 0.9000E+01
      -13  1    4    4    0    0 -.68010473E+01 0.24699556E+02 -.26208265E+02 0.36649783E+02 0.10565837E+00 0.0000E+00 0.9000E+01
       13  1    4    4    0    0 -.59122268E+02 0.78653198E+02 0.74522482E+02 0.12343168E+03 0.10565837E+00 0.0000E+00 0.9000E+01
      -24  1    3    3    0    0 0.14031901E+03 -.10508816E+03 -.22086052E+03 0.29322267E+03 0.80419002E+02 0.0000E+00 0.9000E+01
#aMCatNLO 1  0  0  2  2 0.37147635D+03 0.00000000D+00  -5  7  0 0.00000000D+00 0.00000000D+00 0.00000000D+00 0.00000000D+00 0.00000000D+00
  <mgrwgt>
 0.9261017461D-03    3    2    0
 0.265266646972751D+03 0.000000000000000D+00 0.000000000000000D+00 0.265266646972751D+03
 0.265266646972751D+03 0.000000000000000D+00 0.000000000000000D+00 -.265266646972751D+03
 0.110980890696784D+03 -.743956983557736D+02 0.173540746635997D+01 0.176581588101208D+02
 0.294290309410238D+02 -.680097694052932D+01 0.246994830578501D+02 -.144827522058863D+02
 0.158765782644958D+03 -.591223395186618D+02 0.786532723550051D+02 0.124598497007611D+03
 0.231357589662735D+03 0.140319014814965D+03 -.105088162879215D+03 -.127773903611845D+03
 0.000000000000000D+00 0.000000000000000D+00 0.000000000000000D+00 0.000000000000000D+00
 0.801719372343039D+03 0.000000000000000D+00 0.000000000000000D+00 0.801719372343039D+03
 0.396018224538361D+03 0.000000000000000D+00 0.000000000000000D+00 -.396018224538361D+03
 0.182120231341379D+03 -.158050754333341D+03 -.375328015416547D+02 0.176581588101208D+02
 0.328879336135250D+02 -.245870881703734D+02 0.163505706693317D+02 -.144827522058863D+02
 0.207888472882842D+03 -.163770462519016D+03 0.295307857550765D+02 0.124598497007611D+03
 0.224760874825056D+03 0.101365869423065D+02 -.166196612657136D+03 -.127773903611845D+03
 0.550080084218597D+03 0.336271718080424D+03 0.157848057774382D+03 0.405701147804678D+03
0.148805441309D-04 0.000000000000D+00 0.000000000000D+00 0.234918030013D-05 0.000000000000D+00  7 1 -1 24 -13 13 -24 21 0 0.28509485D-01 0.58418339D-01 0.45466033D+05 0.45466033D+05 0.45466033D+05 0.11509444D+01  1  2  2  2  7  2       -1 0.913218475712D-03 0.100000000000D+01
-.778763941891D-06 0.000000000000D+00 -.571452075999D-07 0.234918030013D-05 0.000000000000D+00  7 1 -1 24 -13 13 -24 21 2 0.28509485D-01 0.58418339D-01 0.45466033D+05 0.45466033D+05 0.45466033D+05 0.11509444D+01  1  2  3  2  7  2       -1 -.633097227398D-04 0.100000000000D+01
0.937239227879D-06 0.000000000000D+00 0.000000000000D+00 0.234918030013D-05 0.000000000000D+00  7 1 -1 24 -13 13 -24 21 2 0.28509485D-01 0.58418339D-01 0.45466033D+05 0.45466033D+05 0.45466033D+05 0.11509444D+01  1  2 15  2  7  2       -1 0.761929931087D-04 0.100000000000D+01
  </mgrwgt>
  </event>
  <event>
  8     66 0.27727860E-05 0.18715415E+03 0.75467711E-02 0.10266789E+00
        1 -1    0    0  501    0 0.00000000E+00 0.00000000E+00 0.85354395E+02 0.85354995E+02 0.32000000E+00 0.0000E+00 0.9000E+01
       -1 -1    0    0    0  501 0.00000000E+00 0.00000000E+00 -.55641475E+03 0.55641484E+03 0.32000000E+00 0.0000E+00 0.9000E+01
       25  2    1    2    0    0 -.14355638E+02 0.11021483E+02 -.45924150E+03 0.54830613E+03 0.29901388E+03 0.0000E+00 0.0000E+00
       23  2    1    2    0    0 0.14355638E+02 -.11021483E+02 -.11818858E+02 0.93463707E+02 0.90929762E+02 0.0000E+00 0.0000E+00
       24  1    3    3    0    0 0.11105129E+03 0.42082446E+02 -.26738768E+03 0.30342497E+03 0.80419002E+02 0.0000E+00 0.9000E+01
      -13  1    4    4    0    0 0.24930093E+02 0.28457289E+02 -.30432768E+02 0.48554005E+02 0.10565837E+00 0.0000E+00 0.9000E+01
       13  1    4    4    0    0 -.10574455E+02 -.39478772E+02 0.18613909E+02 0.44909702E+02 0.10565837E+00 0.0000E+00 0.9000E+01
      -24  1    3    3    0    0 -.12540693E+03 -.31060963E+02 -.19185381E+03 0.24488116E+03 0.80419002E+02 0.0000E+00 0.9000E+01
#aMCatNLO 1  0  0  1  2 0.12039955D+03 0.00000000D+00  -5  7  0 0.00000000D+00 0.00000000D+00 0.00000000D+00 0.00000000D+00 0.00000000D+00
  <mgrwgt>
 0.6907692521D-03    3    2    0
 0.217928121451816D+03 0.000000000000000D+00 0.000000000000000D+00 0.217928121451816D+03
 0.217928121451816D+03 0.000000000000000D+00 0.000000000000000D+00 -.217928121451816D+03
 0.157788842272994D+03 0.111051279748277D+03 0.420824437677817D+02 -.657782941727951D+02
 0.386017125532269D+02 0.249301415483763D+02 0.284573790914693D+02 0.766536559234348D+01
 0.862440339081939D+02 -.105744998968736D+02 -.394788649858419D+02 0.759449310758683D+02
 0.153221654169217D+03 -.125406921399779D+03 -.310609578734091D+02 -.178320024954166D+02
 0.000000000000000D+00 0.000000000000000D+00 0.000000000000000D+00 -.000000000000000D+00
 0.235236354263090D+03 0.000000000000000D+00 0.000000000000000D+00 0.235236354263090D+03
 0.622313977504268D+03 0.000000000000000D+00 0.000000000000000D+00 -.622313977504268D+03
 0.147813575974632D+03 0.105136583717566D+03 0.107334428511409D+01 -.657782941727951D+02
 0.312838804550698D+02 0.235775604989845D+02 0.190793602507931D+02 0.766536559234348D+01
 0.100684866875573D+03 -.141923627195264D+02 -.645630443990287D+02 0.759449310758683D+02
 0.172397636779405D+03 -.131709028361957D+03 -.747561418727964D+02 -.178320024954166D+02
 0.405370371682678D+03 0.171872468649332D+02 0.119166481735918D+03 -.387077623241179D+03
0.855250140236D-05 0.000000000000D+00 0.000000000000D+00 0.194509792291D-06 0.000000000000D+00  7 1 -1 24 -13 13 -24 21 0 0.13131499D-01 0.85602322D-01 0.35026676D+05 0.35026676D+05 0.35026676D+05 0.11611448D+01  1  2  2  1  7  1        1 0.685408015669D-03 0.100000000000D+01
-.461750899233D-06 0.000000000000D+00 -.328438573104D-07 0.194509792291D-06 0.000000000000D+00  7 1 -1 24 -13 13 -24 21 2 0.13131499D-01 0.85602322D-01 0.35026676D+05 0.35026676D+05 0.35026676D+05 0.11611448D+01  1  2  3  1  7  1        1 -.498926444018D-04 0.100000000000D+01
0.511368548556D-06 0.000000000000D+00 0.000000000000D+00 0.194509792291D-06 0.000000000000D+00  7 1 -1 24 -13 13 -24 21 2 0.13131499D-01 0.85602322D-01 0.35026676D+05 0.35026676D+05 0.35026676D+05 0.11611448D+01  1  2 15  1  7  1        1 0.552538808127D-04 0.100000000000D+01
  </mgrwgt>
  </event>
  <event>
  8     66 0.27727860E-05 0.16633441E+03 0.75467711E-02 0.10205059E+00
        1 -1    0    0  501    0 0.00000000E+00 0.00000000E+00 0.25087667E+03 0.25087687E+03 0.32000000E+00 0.0000E+00 0.9000E+01
       -1 -1    0    0    0  501 0.00000000E+00 0.00000000E+00 -.51617609E+03 0.51617619E+03 0.32000000E+00 0.0000E+00 0.9000E+01
       25  2    1    2    0    0 -.23410132E+02 -.54458263E+01 0.15265532E+03 0.33815489E+03 0.30077798E+03 0.0000E+00 0.0000E+00
       23  2    1    2    0    0 0.23410132E+02 0.54458263E+01 -.41795475E+03 0.42889817E+03 0.93218988E+02 0.0000E+00 0.0000E+00
       24  1    3    3    0    0 -.56769321E+02 0.70451073E+02 0.18237441E+03 0.21889209E+03 0.80419002E+02 0.0000E+00 0.9000E+01
      -13  1    4    4    0    0 -.17335836E+02 -.34779462E+02 -.15734388E+03 0.16207175E+03 0.10565837E+00 0.0000E+00 0.9000E+01
       13  1    4    4    0    0 0.40745968E+02 0.40225288E+02 -.26061086E+03 0.26682642E+03 0.10565837E+00 0.0000E+00 0.9000E+01
      -24  1    3    3    0    0 0.33359189E+02 -.75896899E+02 -.29719083E+02 0.11926280E+03 0.80419002E+02 0.0000E+00 0.9000E+01
#aMCatNLO 1  0  0  2  2 0.17133526D+03 0.00000000D+00  -5  7  0 0.00000000D+00 0.00000000D+00 0.00000000D+00 0.00000000D+00 0.00000000D+00
  <mgrwgt>
 0.7852461259D-03    3    2    0
 0.359856435017302D+03 0.000000000000000D+00 0.000000000000000D+00 0.359856435017302D+03
 0.359856435017302D+03 0.000000000000000D+00 0.000000000000000D+00 -.359856435017302D+03
 0.300516616687787D+03 -.567693206321346D+02 0.704510725863740D+02 0.275058014894130D+03
 0.114732308669311D+03 -.173359087597164D+02 -.347795564105175D+02 -.107950689557559D+03
 0.188311460890351D+03 0.407460407525095D+02 0.402253827597288D+02 -.179395889159943D+03
 0.116152483787155D+03 0.333591886393415D+02 -.758968989355852D+02 0.122885638233719D+02
 0.000000000000000D+00 -.000000000000000D+00 -.000000000000000D+00 0.000000000000000D+00
 0.111493723568594D+04 0.000000000000000D+00 0.000000000000000D+00 0.111493723568594D+04
 0.379763566639209D+03 0.000000000000000D+00 0.000000000000000D+00 -.379763566639209D+03
 0.304174788181239D+03 0.695030579990905D+01 0.101734298555205D+03 0.275058014894130D+03
 0.110585132574114D+03 0.640701708485505D+01 -.231229388823363D+02 -.107950689557559D+03
 0.206501466107240D+03 0.823496289898472D+02 0.606507136164759D+02 -.179395889159943D+03
 0.118564529021324D+03 0.580925985290370D+02 -.637540020938367D+02 0.122885638233719D+02
 0.754874886441231D+03 -.153799550403648D+03 -.755080711955075D+02 0.735173669046730D+03
0.316558940027D-04 0.000000000000D+00 0.000000000000D+00 0.301048841276D-06 0.000000000000D+00  7 1 -1 24 -13 13 -24 21 0 0.38596434D-01 0.79411730D-01 0.27667136D+05 0.27667136D+05 0.27667136D+05 0.11706120D+01  1  2  2  2  7  2       -1 0.740142334543D-03 0.100000000000D+01
-.485257188565D-06 0.000000000000D+00 -.121566968159D-06 0.301048841276D-06 0.000000000000D+00  7 1 -1 24 -13 13 -24 21 2 0.38596434D-01 0.79411730D-01 0.27667136D+05 0.27667136D+05 0.27667136D+05 0.11706120D+01  1  2  3  2  7  2       -1 -.155474280745D-04 0.100000000000D+01
0.189301022027D-05 0.000000000000D+00 0.000000000000D+00 0.301048841276D-06 0.000000000000D+00  7 1 -1 24 -13 13 -24 21 2 0.38596434D-01 0.79411730D-01 0.27667136D+05 0.27667136D+05 0.27667136D+05 0.11706120D+01  1  2 15  2  7  2       -1 0.606512194718D-04 0.100000000000D+01
  </mgrwgt>
  </event>
  <event>
  8     66 0.27727860E-05 0.18000271E+03 0.75467711E-02 0.94520580E-01
        1 -1    0    0  501    0 0.00000000E+00 0.00000000E+00 0.12607362E+04 0.12607362E+04 0.32000000E+00 0.0000E+00 0.9000E+01
       -1 -1    0    0    0  501 0.00000000E+00 0.00000000E+00 -.69084982E+02 0.69085723E+02 0.32000000E+00 0.0000E+00 0.9000E+01
       25  2    1    2    0    0 -.77618815E+02 0.99990511E+02 0.37266367E+03 0.49502922E+03 0.30025479E+03 0.0000E+00 0.0000E+00
       23  2    1    2    0    0 0.77618815E+02 -.99990511E+02 0.81898754E+03 0.83479273E+03 0.10057598E+03 0.0000E+00 0.0000E+00
       24  1    3    3    0    0 0.16982760E+02 0.28402999E+02 0.33602783E+03 0.34709806E+03 0.80419002E+02 0.0000E+00 0.9000E+01
      -13  1    4    4    0    0 0.31814449E+02 -.20103475E+02 0.64269329E+02 0.74477290E+02 0.10565837E+00 0.0000E+00 0.9000E+01
       13  1    4    4    0    0 0.45804365E+02 -.79887036E+02 0.75471821E+03 0.76031544E+03 0.10565837E+00 0.0000E+00 0.9000E+01
      -24  1    3    3    0    0 -.94601575E+02 0.71587512E+02 0.36635842E+02 0.14793117E+03 0.80419002E+02 0.0000E+00 0.9000E+01
#aMCatNLO 1  0  0  2  1 0.45143022D+03 0.00000000D+00  -5  7  0 0.00000000D+00 0.00000000D+00 0.00000000D+00 0.00000000D+00 0.00000000D+00
  <mgrwgt>
 0.7384608538D-03    3    2    0
 0.295124476416461D+03 0.000000000000000D+00 0.000000000000000D+00 0.295124476416461D+03
 0.295124476416461D+03 0.000000000000000D+00 0.000000000000000D+00 -.295124476416461D+03
 0.103601450772001D+03 0.169827566877475D+02 0.284030030172618D+02 0.563107453562734D+02
 0.380429349339536D+02 0.318144185155635D+02 -.201034087702151D+02 -.556422759448571D+01
 0.189281818684160D+03 0.458044069890279D+02 -.798871162884988D+02 0.165371133623359D+03
 0.259322748442807D+03 -.946015821923389D+02 0.715875220414521D+02 -.216117651385146D+03
 0.000000000000000D+00 -.000000000000000D+00 -.000000000000000D+00 0.000000000000000D+00
 0.600234443080813D+03 0.000000000000000D+00 0.000000000000000D+00 0.600234443080813D+03
 0.594324681306681D+03 0.000000000000000D+00 0.000000000000000D+00 -.594324681306681D+03
 0.145044357911656D+03 0.100919251729845D+03 0.348576303747564D+02 0.563107453562734D+02
 0.709755098368607D+02 0.686162701029539D+02 -.172733854538580D+02 -.556422759448571D+01
 0.268539257998775D+03 0.200353147370392D+03 -.680024822299575D+02 0.165371133623359D+03
 0.258531093250385D+03 0.802126913557542D+02 0.850305540855964D+02 -.216117651385146D+03
 0.451468905389817D+03 -.450101360558945D+03 -.346123167765373D+02 0.590976177413191D+01
0.113359383938D-04 0.000000000000D+00 0.000000000000D+00 0.558072740604D-07 0.000000000000D+00  7 1 -1 24 -13 13 -24 21 0 0.19395947D+00 0.10628519D-01 0.32400976D+05 0.32400976D+05 0.32400976D+05 0.11642462D+01  1  2  2  2  7  2       -1 0.718549812282D-03 0.100000000000D+01
-.442590729450D-06 0.000000000000D+00 -.435329882533D-07 0.558072740604D-07 0.000000000000D+00  7 1 -1 24 -13 13 -24 21 2 0.19395947D+00 0.10628519D-01 0.32400976D+05 0.32400976D+05 0.32400976D+05 0.11642462D+01  1  2  3  2  7  2       -1 -.380269428171D-04 0.100000000000D+01
0.674332797438D-06 0.000000000000D+00 0.000000000000D+00 0.558072740604D-07 0.000000000000D+00  7 1 -1 24 -13 13 -24 21 2 0.19395947D+00 0.10628519D-01 0.32400976D+05 0.32400976D+05 0.32400976D+05 0.11642462D+01  1  2 15  2  7  2       -1 0.579379842857D-04 0.100000000000D+01
  </mgrwgt>
  </event>
  <event>
  8     66 0.27727860E-05 0.87252633E+02 0.75467711E-02 0.10435141E+00
        1 -1    0    0  501    0 0.00000000E+00 0.00000000E+00 0.33750129E+04 0.33750129E+04 0.32000000E+00 0.0000E+00 0.9000E+01
       -1 -1    0    0    0  501 0.00000000E+00 0.00000000E+00 -.16070872E+02 0.16074058E+02 0.32000000E+00 0.0000E+00 0.9000E+01
       25  2    1    2    0    0 -.57109584E+02 0.77562375E+02 0.27400610E+04 0.27580232E+04 0.29913207E+03 0.0000E+00 0.0000E+00
       23  2    1    2    0    0 0.57109584E+02 -.77562375E+02 0.61888100E+03 0.63306380E+03 0.92079575E+02 0.0000E+00 0.0000E+00
       24  1    3    3    0    0 -.12482165E+03 -.42264709E+02 0.12730027E+04 0.12823298E+04 0.80419002E+02 0.0000E+00 0.9000E+01
      -11  1    4    4    0    0 0.28074208E+02 -.73360863E+02 0.22932213E+03 0.24240176E+03 0.51099893E-03 0.0000E+00 0.9000E+01
       11  1    4    4    0    0 0.29035376E+02 -.42015126E+01 0.38955888E+03 0.39066203E+03 0.51099893E-03 0.0000E+00 0.9000E+01
      -24  1    3    3    0    0 0.67712066E+02 0.11982708E+03 0.14670584E+04 0.14756934E+04 0.80419002E+02 0.0000E+00 0.9000E+01
#aMCatNLO 1  0  0  1  2 0.39659005D+02 0.00000000D+00  -5  7  0 0.00000000D+00 0.00000000D+00 0.00000000D+00 0.00000000D+00 0.00000000D+00
  <mgrwgt>
 0.1023748001D-02    9    2    0
 0.232905192046393D+03 0.000000000000000D+00 0.000000000000000D+00 0.232905192046393D+03
 0.232905192046393D+03 0.000000000000000D+00 0.000000000000000D+00 -.232905192046393D+03
 0.155749583518166D+03 -.124821649885423D+03 -.422647086748008D+02 0.205904573098025D+02
 0.111044615146158D+03 0.280742076473187D+02 -.733608627972088D+02 -.784915869860114D+02
 0.349138812381266D+02 0.290353761980309D+02 -.420151263573149D+01 0.189281093540961D+02
 0.164102304190335D+03 0.677120660400735D+02 0.119827084107741D+03 0.389730203221128D+02
 0.000000000000000D+00 0.000000000000000D+00 -.000000000000000D+00 0.000000000000000D+00
 0.321284800687327D+03 0.000000000000000D+00 0.000000000000000D+00 0.321284800687327D+03
 0.238239727830103D+03 0.000000000000000D+00 0.000000000000000D+00 -.238239727830103D+03
 0.159784506143547D+03 -.132840072856916D+03 -.315185748457795D+02 0.205904573098025D+02
 0.105010984726911D+03 0.225837543432106D+02 -.660026645333234D+02 -.784915869860114D+02
 0.332751187402448D+02 0.273025420550833D+02 -.187920216772368D+01 0.189281093540961D+02
 0.169425005998545D+03 0.592363953177565D+02 0.131186012440226D+03 0.389730203221128D+02
 0.920289129081834D+02 0.237173811408654D+02 -.317855708933993D+02 0.830450728572238D+02
0.362407930520D-04 0.000000000000D+00 0.000000000000D+00 0.239165389448D-06 0.000000000000D+00  7 1 -1 24 -11 11 -24 21 0 0.51923300D+00 0.24726881D-02 0.44452824D+05 0.44452824D+05 0.44452824D+05 0.11518148D+01  1  2  2  1  7  1        1 0.703552630090D-03 0.100000000000D+01
-.198912255629D-05 0.000000000000D+00 -.139174187740D-06 0.239165389448D-06 0.000000000000D+00  7 1 -1 24 -11 11 -24 21 2 0.51923300D+00 0.24726881D-02 0.44452824D+05 0.44452824D+05 0.44452824D+05 0.11518148D+01  1  2  3  1  7  1        1 -.512301656132D-04 0.100000000000D+01
0.236340089032D-05 0.000000000000D+00 0.000000000000D+00 0.239165389448D-06 0.000000000000D+00  7 1 -1 24 -11 11 -24 21 2 0.51923300D+00 0.24726881D-02 0.44452824D+05 0.44452824D+05 0.44452824D+05 0.11518148D+01  1  2 15  1  7  1        1 0.608697632224D-04 0.100000000000D+01
0.727758967699D-04 0.000000000000D+00 0.000000000000D+00 0.239165389448D-06 0.000000000000D+00  7 1 -1 24 -11 11 -24 21 2 0.72052382D+00 0.24726881D-02 0.52927470D+05 0.52927470D+05 0.52927470D+05 0.11451281D+01  1  2 12  1  7  1        1 0.108950274904D-03 0.100000000000D+01
-.716895040379D-04 0.000000000000D+00 0.000000000000D+00 0.239165389448D-06 0.000000000000D+00  7 1 -1 24 -11 11 -24 21 2 0.51923300D+00 0.24726881D-02 0.44452824D+05 0.44452824D+05 0.44452824D+05 0.11518148D+01  1  2  4  1  7  1        1 -.184637449964D-02 0.100000000000D+01
-.839907737875D-04 0.000000000000D+00 -.930660224841D-05 0.239165389448D-06 0.000000000000D+00  7 1 -1 24 -11 11 -24 21 2 0.71826568D+00 0.24726881D-02 0.44452824D+05 0.44452824D+05 0.44452824D+05 0.11518148D+01  1  2  5  1  7  1        1 -.133918180300D-03 0.100000000000D+01
0.847183143623D-04 0.000000000000D+00 0.903705777529D-05 0.239165389448D-06 0.000000000000D+00  7 1 -1 24 -11 11 -24 21 2 0.51923300D+00 0.24726881D-02 0.44452824D+05 0.44452824D+05 0.44452824D+05 0.11518148D+01  1  2  6  1  7  1        1 0.218193356741D-02 0.100000000000D+01
0.299765740140D-05 0.000000000000D+00 0.000000000000D+00 0.239165389448D-06 0.000000000000D+00  7 21 -1 24 -11 11 -24 -1 2 0.72052382D+00 0.24726881D-02 0.52927470D+05 0.52927470D+05 0.52927470D+05 0.11451281D+01  1  2 12  3  7  1        1 0.223156176573D-06 0.100000000000D+01
-.320042808795D-05 0.000000000000D+00 -.380692265112D-06 0.239165389448D-06 0.000000000000D+00  7 21 -1 24 -11 11 -24 -1 2 0.71826568D+00 0.24726881D-02 0.44452824D+05 0.44452824D+05 0.44452824D+05 0.11518148D+01  1  2  5  3  7  1        1 -.258544949807D-06 0.100000000000D+01
  </mgrwgt>
  </event>
  <event>
  8     66 0.27727860E-05 0.19309201E+03 0.75467711E-02 0.98912620E-01
        1 -1    0    0  501    0 0.00000000E+00 0.00000000E+00 0.95861576E+03 0.95861582E+03 0.32000000E+00 0.0000E+00 0.9000E+01
       -1 -1    0    0    0  501 0.00000000E+00 0.00000000E+00 -.53925577E+02 0.53926526E+02 0.32000000E+00 0.0000E+00 0.9000E+01
       25  2    1    2    0    0 0.12828119E+02 0.93977305E+02 0.70935890E+03 0.77711265E+03 0.30284933E+03 0.0000E+00 0.0000E+00
       23  2    1    2    0    0 -.12828119E+02 -.93977305E+02 0.19533128E+03 0.23542970E+03 0.90975478E+02 0.0000E+00 0.0000E+00
       24  1    3    3    0    0 0.92741125E+02 0.64929334E+02 0.14509539E+03 0.20083980E+03 0.80419002E+02 0.0000E+00 0.9000E+01
      -11  1    4    4    0    0 -.44999892E+02 -.19288132E+02 0.88840830E+02 0.10143823E+03 0.51099893E-03 0.0000E+00 0.9000E+01
       11  1    4    4    0    0 0.32171773E+02 -.74689172E+02 0.10649045E+03 0.13399146E+03 0.51099893E-03 0.0000E+00 0.9000E+01
      -24  1    3    3    0    0 -.79913006E+02 0.29047971E+02 0.56426351E+03 0.57627285E+03 0.80419002E+02 0.0000E+00 0.9000E+01
#aMCatNLO 1  0  0  2  2 0.24269576D+03 0.00000000D+00  -5  7  0 0.00000000D+00 0.00000000D+00 0.00000000D+00 0.00000000D+00 0.00000000D+00
  <mgrwgt>
 0.3358460135D-03    3    2    0
 0.227364060135541D+03 0.000000000000000D+00 0.000000000000000D+00 0.227364060135541D+03
 0.227364060135541D+03 0.000000000000000D+00 0.000000000000000D+00 -.227364060135541D+03
 0.158539610713594D+03 0.927411245455760D+02 0.649293344515357D+02 -.764908985209998D+02
 0.491218372705443D+02 -.449998922548403D+02 -.192881327740349D+02 -.399155708687712D+01
 0.864937975082117D+02 0.321717726153857D+02 -.746891734595758D+02 -.294564326098877D+02
 0.160572874778733D+03 -.799130049061214D+02 0.290479717820750D+02 0.109938888217765D+03
 0.000000000000000D+00 0.000000000000000D+00 0.000000000000000D+00 0.000000000000000D+00
 0.388740416462946D+03 0.000000000000000D+00 0.000000000000000D+00 0.388740416462946D+03
 0.370109872756154D+03 0.000000000000000D+00 0.000000000000000D+00 -.370109872756154D+03
 0.122431567563641D+03 0.253212130322759D+02 0.450583110618232D+02 -.764908985209998D+02
 0.816280012359635D+02 -.763737242490569D+02 -.285351064853398D+02 -.399155708687712D+01
 0.928414488628719D+02 -.108602796957747D+02 -.873722354629086D+02 -.294564326098877D+02
 0.218539470908325D+03 -.170882195968848D+03 0.223614597607317D+01 0.109938888217765D+03
 0.243409800648299D+03 0.232794986881403D+03 0.686128849103520D+02 0.186305437067919D+02
0.219382752841D-05 0.000000000000D+00 0.000000000000D+00 0.123764822130D-07 0.000000000000D+00  7 1 -1 24 -11 11 -24 21 0 0.14747943D+00 0.82963198D-02 0.37284525D+05 0.37284525D+05 0.37284525D+05 0.11586767D+01  1  2  2  2  7  2       -1 0.331249987194D-03 0.100000000000D+01
-.117923459444D-06 0.000000000000D+00 -.842487535716D-08 0.123764822130D-07 0.000000000000D+00  7 1 -1 24 -11 11 -24 21 2 0.14747943D+00 0.82963198D-02 0.37284525D+05 0.37284525D+05 0.37284525D+05 0.11586767D+01  1  2  3  2  7  2       -1 -.239044159464D-04 0.100000000000D+01
0.140596229283D-06 0.000000000000D+00 0.000000000000D+00 0.123764822130D-07 0.000000000000D+00  7 1 -1 24 -11 11 -24 21 2 0.14747943D+00 0.82963198D-02 0.37284525D+05 0.37284525D+05 0.37284525D+05 0.11586767D+01  1  2 15  2  7  2       -1 0.285004422454D-04 0.100000000000D+01
  </mgrwgt>
  </event>
  <event>
  8     66 0.27727860E-05 0.21029282E+03 0.75467711E-02 0.10388480E+00
        1 -1    0    0  501    0 0.00000000E+00 0.00000000E+00 0.32542066E+03 0.32542081E+03 0.32000000E+00 0.0000E+00 0.9000E+01
       -1 -1    0    0    0  501 0.00000000E+00 0.00000000E+00 -.15233531E+03 0.15233565E+03 0.32000000E+00 0.0000E+00 0.9000E+01
       25  2    1    2    0    0 0.82946504E+02 0.34449803E+02 0.15320502E+03 0.34872034E+03 0.30011195E+03 0.0000E+00 0.0000E+00
       23  2    1    2    0    0 -.82946504E+02 -.34449803E+02 0.19880322E+02 0.12903613E+03 0.90488581E+02 0.0000E+00 0.0000E+00
       24  1    3    3    0    0 0.14473457E+03 -.49412040E+02 0.45538729E+02 0.17869146E+03 0.80419002E+02 0.0000E+00 0.9000E+01
      -11  1    4    4    0    0 -.31778271E+02 -.52977706E+02 -.16045738E+02 0.63827592E+02 0.51099893E-03 0.0000E+00 0.9000E+01
       11  1    4    4    0    0 -.51168233E+02 0.18527902E+02 0.35926060E+02 0.65208535E+02 0.51099893E-03 0.0000E+00 0.9000E+01
      -24  1    3    3    0    0 -.61788064E+02 0.83861843E+02 0.10766629E+03 0.17002888E+03 0.80419002E+02 0.0000E+00 0.9000E+01
#aMCatNLO 1  0  0  1  2 0.51274842D+02 0.00000000D+00  -5  7  0 0.00000000D+00 0.00000000D+00 0.00000000D+00 0.00000000D+00 0.00000000D+00
  <mgrwgt>
 0.6618334487D-03    4    2    0
 0.222650343635599D+03 0.000000000000000D+00 0.000000000000000D+00 0.222650343635599D+03
 0.222650343635599D+03 0.000000000000000D+00 0.000000000000000D+00 -.222650343635599D+03
 0.174014803930674D+03 0.144734568195826D+03 -.494120399888250D+02 -.205983277469510D+02
 0.747165397883364D+02 -.317782706553645D+02 -.529777056016216D+02 -.420245825831069D+02
 0.559970496651505D+02 -.511682334360518D+02 0.185279023200520D+02 0.131984201271840D+02
 0.140572293887037D+03 -.617880641044099D+02 0.838618432703946D+02 0.494244902028739D+02
 0.000000000000000D+00 0.000000000000000D+00 0.000000000000000D+00 -.000000000000000D+00
 0.234465346506964D+03 0.000000000000000D+00 0.000000000000000D+00 0.234465346506964D+03
 0.287664435355377D+03 0.000000000000000D+00 0.000000000000000D+00 -.287664435355377D+03
 0.171628445344399D+03 0.134687688580904D+03 -.665134778501889D+02 -.205983277469510D+02
 0.823234355454275D+02 -.363429821902137D+02 -.607475937320945D+02 -.420245825831069D+02
 0.575120414125012D+02 -.544676242838355D+02 0.129117976461270D+02 0.131984201271840D+02
 0.136779105003979D+03 -.698498912094744D+02 0.701392905405354D+02 0.494244902028739D+02
 0.738867545560336D+02 0.259728091026197D+02 0.442099833956210D+02 -.531990888484130D+02
0.586710207249D-05 0.000000000000D+00 0.000000000000D+00 0.478197871927D-06 0.000000000000D+00  7 1 -1 24 -11 11 -24 21 0 0.50064754D-01 0.23436240D-01 0.44223072D+05 0.44223072D+05 0.44223072D+05 0.11520152D+01  1  2  2  1  7  1        1 0.825800609768D-03 0.100000000000D+01
-.324657916008D-06 0.000000000000D+00 -.225312168018D-07 0.478197871927D-06 0.000000000000D+00  7 1 -1 24 -11 11 -24 21 2 0.50064754D-01 0.23436240D-01 0.44223072D+05 0.44223072D+05 0.44223072D+05 0.11520152D+01  1  2  3  1  7  1        1 -.606448591356D-04 0.100000000000D+01
0.363129749184D-06 0.000000000000D+00 0.000000000000D+00 0.478197871927D-06 0.000000000000D+00  7 1 -1 24 -11 11 -24 21 2 0.50064754D-01 0.23436240D-01 0.44223072D+05 0.44223072D+05 0.44223072D+05 0.11520152D+01  1  2 15  1  7  1        1 0.678312506837D-04 0.100000000000D+01
-.916258303067D-06 0.000000000000D+00 0.000000000000D+00 0.478197871927D-06 0.000000000000D+00  7 1 -1 24 -11 11 -24 21 2 0.50064754D-01 0.23436240D-01 0.44223072D+05 0.44223072D+05 0.44223072D+05 0.11520152D+01  1  2  4  1  7  1        1 -.171153552652D-03 0.100000000000D+01
  </mgrwgt>
  </event>
  <event>
  9     66 0.27727860E-05 0.19559639E+03 0.75467711E-02 0.10511879E+00
        1 -1    0    0  501    0 0.00000000E+00 0.00000000E+00 0.89003165E+03 0.89003171E+03 0.32000000E+00 0.0000E+00 0.9000E+01
       -1 -1    0    0    0  502 0.00000000E+00 0.00000000E+00 -.65653556E+02 0.65654335E+02 0.32000000E+00 0.0000E+00 0.9000E+01
       25  2    1    2    0    0 0.14133072E+02 0.37922918E+02 0.36059706E+03 0.47143520E+03 0.30097012E+03 0.0000E+00 0.0000E+00
       23  2    1    2    0    0 -.24964661E+02 0.73748609E+00 0.37444449E+03 0.38630428E+03 0.91643537E+02 0.0000E+00 0.0000E+00
       24  1    3    3    0    0 0.56724944E+02 0.13623673E+03 0.17605432E+03 0.24339373E+03 0.80419002E+02 0.0000E+00 0.9000E+01
      -13  1    4    4    0    0 -.11508488E+02 -.44576798E+02 0.14870355E+03 0.15566725E+03 0.10565837E+00 0.0000E+00 0.9000E+01
       13  1    4    4    0    0 -.13456172E+02 0.45314284E+02 0.22574095E+03 0.23063703E+03 0.10565837E+00 0.0000E+00 0.9000E+01
      -24  1    3    3    0    0 -.42591872E+02 -.98313814E+02 0.18454274E+03 0.22804147E+03 0.80419002E+02 0.0000E+00 0.9000E+01
       21  1    1    2  501  502 0.10831588E+02 -.38660404E+02 0.89336538E+02 0.97946566E+02 0.75000000E+00 0.0000E+00 0.9000E+01
#aMCatNLO 2  0  0  2  1 0.40149099D+02 0.00000000D+00  -5  7  0 0.00000000D+00 0.00000000D+00 0.00000000D+00 0.00000000D+00 0.00000000D+00
  <mgrwgt>
 0.2452454740D-03    1    2    0
 0.220124380352068D+03 0.000000000000000D+00 0.000000000000000D+00 0.220124380352068D+03
 0.220124380352068D+03 0.000000000000000D+00 0.000000000000000D+00 -.220124380352068D+03
 0.169696360876883D+03 0.610119776044274D+02 0.120935262459091D+03 -.631018210770043D+02
 0.586426760989873D+02 -.101160495155473D+02 -.495468813807606D+02 0.296940321898285D+02
 0.681430852438186D+02 -.117338736566847D+02 0.391670657106568D+02 0.545136426885270D+02
 0.143766638484446D+03 -.391620544321954D+02 -.110555446788988D+03 -.211058538013512D+02
 0.000000000000000D+00 0.000000000000000D+00 -.000000000000000D+00 0.000000000000000D+00
 0.247024539841204D+03 0.000000000000000D+00 0.000000000000000D+00 0.247024539841204D+03
 0.236545306946917D+03 0.000000000000000D+00 0.000000000000000D+00 -.236545306946917D+03
 0.179519384331525D+03 0.567249365163053D+02 0.136236687974958D+03 -.631018210770043D+02
 0.547839640809051D+02 -.115084972319258D+02 -.445769185138463D+02 0.296940321898285D+02
 0.721540088289854D+02 -.134561883434846D+02 0.453143988836394D+02 0.545136426885270D+02
 0.135618339311987D+03 -.425918393020116D+02 -.983137638561266D+02 -.211058538013512D+02
 0.414941502347190D+02 0.108315883611167D+02 -.386604044886243D+02 0.104792328942871D+02
0.146501426201D-05 0.000000000000D+00 0.000000000000D+00 0.141174874163D-06 0.622950156646D-09  7 1 -1 24 -13 13 -24 21 2 0.13692608D+00 0.10100469D-01 0.47412296D+05 0.47412296D+05 0.47412296D+05 0.11493310D+01  1  2  1  2  7  2       -1 0.245245473991D-03 0.100000000000D+01
  </mgrwgt>
  </event>
  <event>
  7     66 0.27727860E-05 0.21499622E+03 0.75467711E-02 0.82516318E-01
        1 -1    0    0  501    0 0.00000000E+00 0.00000000E+00 0.63942816E+03 0.63942824E+03 0.32000000E+00 0.0000E+00 0.9000E+01
       -1 -1    0    0    0  501 0.00000000E+00 0.00000000E+00 -.25667735E+03 0.25667755E+03 0.32000000E+00 0.0000E+00 0.9000E+01
       25  2    1    2    0    0 -.38770770E+02 -.24163897E+02 0.31608554E+03 0.44150949E+03 0.30484995E+03 0.0000E+00 0.0000E+00
       24  1    3    3    0    0 -.46915797E+02 -.81727411E+02 0.15359624E+02 0.12483427E+03 0.80419002E+02 0.0000E+00 0.9000E+01
      -11  1    1    2    0    0 0.12095225E+03 -.90006746E+00 -.16667597E+03 0.20593964E+03 0.51099893E-03 0.0000E+00 0.9000E+01
       11  1    1    2    0    0 -.82181478E+02 0.25063964E+02 0.23334125E+03 0.24865666E+03 0.51099893E-03 0.0000E+00 0.9000E+01
      -24  1    3    3    0    0 0.81450272E+01 0.57563514E+02 0.30072591E+03 0.31667521E+03 0.80419002E+02 0.0000E+00 0.9000E+01
#aMCatNLO 1  0  0  1  1 0.16852381D+04 0.00000000D+00  -5  7  0 0.00000000D+00 0.00000000D+00 0.00000000D+00 0.00000000D+00 0.00000000D+00
  <mgrwgt>
 0.9421727989D-02    3    2    0
 0.405125720856022D+03 0.000000000000000D+00 0.000000000000000D+00 0.405125720856022D+03
 0.405125720856022D+03 0.000000000000000D+00 0.000000000000000D+00 -.405125720856022D+03
 0.130806050064316D+03 -.469158376291689D+02 -.817274352317562D+02 -.419825831631447D+02
 0.306496406409554D+03 0.120952248844263D+03 -.900012342857055D+00 -.281619940024261D+03
 0.164777111453495D+03 -.821813723351573D+02 0.250639756856163D+02 0.140604109551957D+03
 0.208171873784679D+03 0.814496112006328D+01 0.575634718889970D+02 0.182998413635449D+03
 0.000000000000000D+00 -.000000000000000D+00 0.000000000000000D+00 -.000000000000000D+00
 0.107302768822434D+04 0.000000000000000D+00 0.000000000000000D+00 0.107302768822434D+04
 0.607707669152931D+04 0.000000000000000D+00 0.000000000000000D+00 -.607707669152931D+04
 0.320462501740754D+03 0.184663993212188D+03 -.245694264054843D+03 -.419825831631447D+02
 0.913730091060879D+03 0.747142229825715D+03 -.444264985230563D+03 -.281619940024261D+03
 0.210648045819028D+03 0.110477509093646D+03 -.111345424553234D+03 0.140604109551957D+03
 0.425061686750188D+03 0.333104722320261D+03 -.172519697899675D+03 0.182998413635449D+03
 0.528020205438280D+04 -.137538845445181D+04 0.973824371738314D+03 -.500404900330498D+04
0.382073894283D-03 0.000000000000D+00 0.000000000000D+00 0.766872570200D-11 0.000000000000D+00  7 1 -1 24 -11 11 -24 21 0 0.98373584D-01 0.39488844D-01 0.46223373D+05 0.46223373D+05 0.46223373D+05 0.11503077D+01  1  2  2  1  7  1        1 0.907990528827D-02 0.100000000000D+01
-.108664364537D-04 0.000000000000D+00 -.146726435641D-05 0.766872570200D-11 0.000000000000D+00  7 1 -1 24 -11 11 -24 21 2 0.98373584D-01 0.39488844D-01 0.46223373D+05 0.46223373D+05 0.46223373D+05 0.11503077D+01  1  2  3  1  7  1        1 -.341703272869D-03 0.100000000000D+01
0.217366708063D-04 0.000000000000D+00 0.000000000000D+00 0.766872570200D-11 0.000000000000D+00  7 1 -1 24 -11 11 -24 21 2 0.98373584D-01 0.39488844D-01 0.46223373D+05 0.46223373D+05 0.46223373D+05 0.11503077D+01  1  2 15  1  7  1        1 0.683525973525D-03 0.100000000000D+01
  </mgrwgt>
  </event>
  <event>
  9     66 0.27727860E-05 0.19321124E+03 0.75467711E-02 0.10292345E+00
        1 -1    0    0  501    0 0.00000000E+00 0.00000000E+00 0.36335478E+03 0.36335492E+03 0.32000000E+00 0.0000E+00 0.9000E+01
       21 -1    0    0  502  501 0.00000000E+00 0.00000000E+00 -.68865103E+03 0.68865144E+03 0.75000000E+00 0.0000E+00 0.9000E+01
       25  2    1    2    0    0 0.10555550E+03 -.35545316E+01 -.22305118E+03 0.38820383E+03 0.29965945E+03 0.0000E+00 0.0000E+00
       23  2    1    2    0    0 -.15014544E+03 0.98441220E+02 0.23549107E+03 0.31016775E+03 0.92269514E+02 0.0000E+00 0.0000E+00
       24  1    3    3    0    0 0.64821797E+02 0.44947312E+02 -.25679779E+03 0.28041834E+03 0.80419002E+02 0.0000E+00 0.9000E+01
      -13  1    4    4    0    0 0.55155183E+01 0.11394032E+02 -.23615464E+01 0.12877615E+02 0.10565837E+00 0.0000E+00 0.9000E+01
       13  1    4    4    0    0 -.15566096E+03 0.87047188E+02 0.23785262E+03 0.29729014E+03 0.10565837E+00 0.0000E+00 0.9000E+01
      -24  1    3    3    0    0 0.40733702E+02 -.48501843E+02 0.33746604E+02 0.10778549E+03 0.80419002E+02 0.0000E+00 0.9000E+01
        1  1    1    2  502    0 0.44589941E+02 -.94886688E+02 -.33773614E+03 0.35363477E+03 0.32000000E+00 0.0000E+00 0.9000E+01
#aMCatNLO 2  0  0  2  1 0.10484153D+03 0.00000000D+00  -5  7  0 0.00000000D+00 0.00000000D+00 0.00000000D+00 0.00000000D+00 0.00000000D+00
  <mgrwgt>
 0.2323240839D-03    2    2    0
 0.345172557899636D+03 0.000000000000000D+00 0.000000000000000D+00 0.345172557899636D+03
 0.345172557899636D+03 0.000000000000000D+00 0.000000000000000D+00 -.345172557899636D+03
 0.286315109702258D+03 0.831686835491830D+02 0.590542952183456D+01 -.261834340888096D+03
 0.118597123394298D+02 0.631148190773362D+01 0.970058344818046D+01 -.259165076105197D+01
 0.274442199916518D+03 -.137436645089949D+03 0.482657876402767D+02 0.232594289321344D+03
 0.117728093841066D+03 0.479564796330321D+02 -.638718006102918D+02 0.318317023278038D+02
 0.000000000000000D+00 0.000000000000000D+00 -.000000000000000D+00 -.000000000000000D+00
 0.356939277386064D+03 0.000000000000000D+00 0.000000000000000D+00 0.356939277386064D+03
 0.701029139999715D+03 0.000000000000000D+00 0.000000000000000D+00 -.701029139999715D+03
 0.285037829624688D+03 0.648217976611653D+02 0.449473118490241D+02 -.261834340888096D+03
 0.129213627881451D+02 0.551572935925878D+01 0.113939322567326D+02 -.259165076105197D+01
 0.293100210744722D+03 -.155661169947173D+03 0.870472876336568D+02 0.232594289321344D+03
 0.107201382921018D+03 0.407337016284824D+02 -.485018435151092D+02 0.318317023278038D+02
 0.359707631307205D+03 0.445899412982667D+02 -.948866882243042D+02 -.344089862613651D+03
-.292142235782D-05 0.000000000000D+00 0.000000000000D+00 0.258780972325D-05 0.000000000000D+00  7 1 21 24 -13 13 -24 1 2 0.54057964D-01 0.10593031D+00 0.65244647D+05 0.65244647D+05 0.65244647D+05 0.11372661D+01  1  2 13  4  7  2       -1 -.217471207300D-03 0.100000000000D+01
0.631793072482D-05 0.000000000000D+00 0.000000000000D+00 0.258780972325D-05 0.169515123127D-09  7 1 21 24 -13 13 -24 1 2 0.55900767D-01 0.10594633D+00 0.65244647D+05 0.65244647D+05 0.65244647D+05 0.11372661D+01  1  2  1  4  7  2       -1 0.449795291250D-03 0.100000000000D+01
  </mgrwgt>
  </event>
  <event>
  8     66 0.27727860E-05 0.20527398E+03 0.75467711E-02 0.92975080E-01
        1 -1    0    0  501    0 0.00000000E+00 0.00000000E+00 0.22088189E+04 0.22088189E+04 0.32000000E+00 0.0000E+00 0.9000E+01
       -1 -1    0    0    0  501 0.00000000E+00 0.00000000E+00 -.12983119E+03 0.12983158E+03 0.32000000E+00 0.0000E+00 0.9000E+01
       25  2    1    2    0    0 0.60691745E+02 -.98938546E+01 0.55257805E+02 0.31191183E+03 0.30075603E+03 0.0000E+00 0.0000E+00
       23  2    1    2    0    0 -.60691745E+02 0.98938546E+01 0.20237299E+04 0.20267386E+04 0.91681676E+02 0.0000E+00 0.0000E+00
       24  1    3    3    0    0 0.24846396E+02 0.11915954E+03 0.54344933E+02 0.15568214E+03 0.80419002E+02 0.0000E+00 0.9000E+01
      -13  1    4    4    0    0 -.45571244E+02 0.48752614E+02 0.10520238E+04 0.10541383E+04 0.10565837E+00 0.0000E+00 0.9000E+01
       13  1    4    4    0    0 -.15120500E+02 -.38858759E+02 0.97170611E+03 0.97260033E+03 0.10565837E+00 0.0000E+00 0.9000E+01
      -24  1    3    3    0    0 0.35845349E+02 -.12905340E+03 0.91287146E+00 0.15622970E+03 0.80419002E+02 0.0000E+00 0.9000E+01
#aMCatNLO 1  0  0  2  1 0.51290353D+03 0.00000000D+00  -5  7  0 0.00000000D+00 0.00000000D+00 0.00000000D+00 0.00000000D+00 0.00000000D+00
  <mgrwgt>
 0.8054580964D-03    3    2    0
 0.535512900787772D+03 0.000000000000000D+00 0.000000000000000D+00 0.535512900787772D+03
 0.535512900787772D+03 0.000000000000000D+00 0.000000000000000D+00 -.535512900787772D+03
 0.234451549536280D+03 0.248463956101275D+02 0.119159543602243D+03 -.183531939779654D+03
 0.259673144212673D+03 -.455712845982628D+02 0.487527298852644D+02 0.250951332281967D+03
 0.237535982305727D+03 -.151204599901754D+02 -.388588752414230D+02 0.233847605064931D+03
 0.339365125520863D+03 0.358453489783107D+02 -.129053398246084D+03 -.301266997567243D+03
 0.000000000000000D+00 -.000000000000000D+00 -.000000000000000D+00 0.000000000000000D+00
 0.928032671419029D+03 0.000000000000000D+00 0.000000000000000D+00 0.928032671419029D+03
 0.790495558121952D+03 0.000000000000000D+00 0.000000000000000D+00 -.790495558121952D+03
 0.276418761994958D+03 0.140483909260689D+03 0.128531763965203D+03 -.183531939779654D+03
 0.268047418926013D+03 0.738803500851515D+02 0.584340781573467D+02 0.250951332281967D+03
 0.254648311355395D+03 0.962873996801934D+02 -.298294610138597D+02 0.233847605064931D+03
 0.388389738284302D+03 0.200575538026272D+03 -.115702301500309D+03 -.301266997567243D+03
 0.531023998980313D+03 -.511227197052306D+03 -.414340796083811D+02 0.137537113297077D+03
0.129406561547D-03 0.000000000000D+00 0.000000000000D+00 0.271421569444D-05 0.000000000000D+00  7 1 -1 24 -13 13 -24 21 0 0.33981832D+00 0.19974061D-01 0.42137408D+05 0.42137408D+05 0.42137408D+05 0.11538889D+01  1  2  2  2  7  2       -1 0.739935070028D-03 0.100000000000D+01
0.847733604602D-06 0.000000000000D+00 -.496955269871D-06 0.271421569444D-05 0.000000000000D+00  7 1 -1 24 -13 13 -24 21 2 0.33981832D+00 0.19974061D-01 0.42137408D+05 0.42137408D+05 0.42137408D+05 0.11538889D+01  1  2  3  2  7  2       -1 0.645393662929D-05 0.100000000000D+01
0.775880756834D-05 0.000000000000D+00 0.000000000000D+00 0.271421569444D-05 0.000000000000D+00  7 1 -1 24 -13 13 -24 21 2 0.33981832D+00 0.19974061D-01 0.42137408D+05 0.42137408D+05 0.42137408D+05 0.11538889D+01  1  2 15  2  7  2       -1 0.590690897389D-04 0.100000000000D+01
  </mgrwgt>
  </event>
  <event>
  6     66 0.27727860E-05 0.26642386E+03 0.75467711E-02 0.10214503E+00
        1 -1    0    0  501    0 0.00000000E+00 0.00000000E+00 0.14201273E+04 0.14201273E+04 0.32000000E+00 0.0000E+00 0.9000E+01
       -1 -1    0    0    0  501 0.00000000E+00 0.00000000E+00 -.75034435E+02 0.75035118E+02 0.32000000E+00 0.0000E+00 0.9000E+01
       24  1    1    2    0    0 -.55972707E+01 -.13110199E+03 0.34361620E+03 0.37650813E+03 0.80419002E+02 0.0000E+00 0.9000E+01
      -11  1    1    2    0    0 -.89101617E+02 0.26458846E+02 0.28194701E+03 0.29687250E+03 0.51099893E-03 0.0000E+00 0.9000E+01
       11  1    1    2    0    0 0.13001431E+03 -.22015226E+02 0.60703919E+02 0.14516665E+03 0.51099893E-03 0.0000E+00 0.9000E+01
      -24  1    1    2    0    0 -.35315421E+02 0.12665837E+03 0.65882571E+03 0.67661514E+03 0.80419002E+02 0.0000E+00 0.9000E+01
#aMCatNLO 1  0  0  2  2 0.80012067D+01 0.00000000D+00  -5  7  0 0.00000000D+00 0.00000000D+00 0.00000000D+00 0.00000000D+00 0.00000000D+00
  <mgrwgt>
 0.1441766816D-02    8    2    0
 0.326433738058153D+03 0.000000000000000D+00 0.000000000000000D+00 0.326433738058153D+03
 0.326433738058153D+03 0.000000000000000D+00 0.000000000000000D+00 -.326433738058153D+03
 0.154311725710946D+03 -.559730652446760D+01 -.131101962078402D+03 0.112177732364428D+02
 0.989904392993187D+02 -.891015359458203D+02 0.264588350754935D+02 0.340580887780810D+02
 0.207385679698350D+03 0.130014300398669D+03 -.220152070647073D+02 -.160063838807175D+03
 0.192179631407690D+03 -.353154579283812D+02 0.126658334067616D+03 0.114787976792651D+03
 0.000000000000000D+00 -.000000000000000D+00 0.000000000000000D+00 0.000000000000000D+00
 0.344570281683215D+03 0.000000000000000D+00 0.000000000000000D+00 0.344570281683215D+03
 0.327341909092975D+03 0.000000000000000D+00 0.000000000000000D+00 -.327341909092975D+03
 0.154744498941559D+03 -.379248223357874D+01 -.131675444333510D+03 0.112177732364428D+02
 0.978589676791603D+02 -.879519762119521D+02 0.260935628925510D+02 0.340580887780810D+02
 0.209001529153126D+03 0.132445915389746D+03 -.227878518344379D+02 -.160063838807175D+03
 0.191311507830926D+03 -.330759491651563D+02 0.125946730981181D+03 0.114787976792651D+03
 0.189956871714185D+02 -.762550777905849D+01 0.242300229421651D+01 0.172283725902400D+02
0.403454242606D-04 0.000000000000D+00 0.000000000000D+00 0.358105455929D-12 0.000000000000D+00  7 1 -1 24 -11 11 -24 21 0 0.21848117D+00 0.11543815D-01 0.70981672D+05 0.70981672D+05 0.70981672D+05 0.11341458D+01  1  2  2  2  7  2       -1 0.174394264149D-02 0.100000000000D+01
-.212895513875D-05 0.000000000000D+00 -.154937052355D-06 0.358105455929D-12 0.000000000000D+00  7 1 -1 24 -11 11 -24 21 2 0.21848117D+00 0.11543815D-01 0.70981672D+05 0.70981672D+05 0.70981672D+05 0.11341458D+01  1  2  3  2  7  2       -1 -.118370154782D-03 0.100000000000D+01
0.235869563110D-05 0.000000000000D+00 0.000000000000D+00 0.358105455929D-12 0.000000000000D+00  7 1 -1 24 -11 11 -24 21 2 0.21848117D+00 0.11543815D-01 0.70981672D+05 0.70981672D+05 0.70981672D+05 0.11341458D+01  1  2 15  2  7  2       -1 0.131143753033D-03 0.100000000000D+01
-.573237640168D-05 0.000000000000D+00 0.000000000000D+00 0.358105455929D-12 0.000000000000D+00  7 1 -1 24 -11 11 -24 21 2 0.21848117D+00 0.11543815D-01 0.70981672D+05 0.70981672D+05 0.70981672D+05 0.11341458D+01  1  2  4  2  7  2       -1 -.318720798565D-03 0.100000000000D+01
0.882091247012D-08 0.000000000000D+00 0.000000000000D+00 0.358105455929D-12 0.000000000000D+00  7 1 -1 24 -11 11 -24 21 2 0.21848117D+00 0.12384620D-01 0.70981672D+05 0.70981672D+05 0.70981672D+05 0.11341458D+01  1  2  5  2  7  2       -1 0.440034168471D-06 0.100000000000D+01
-.879915692859D-08 0.000000000000D+00 0.000000000000D+00 0.358105455929D-12 0.000000000000D+00  7 1 -1 24 -11 11 -24 21 2 0.21848117D+00 0.11543815D-01 0.70981672D+05 0.70981672D+05 0.70981672D+05 0.11341458D+01  1  2  6  2  7  2       -1 -.489234154645D-06 0.100000000000D+01
0.475281664359D-07 0.000000000000D+00 0.000000000000D+00 0.358105455929D-12 0.383642058430D-13  7 1 -1 24 -11 11 -24 21 2 0.23061991D+00 0.11575931D-01 0.73310986D+05 0.73310986D+05 0.73310986D+05 0.11329573D+01  1  2 11  2  7  2       -1 0.232683091596D-05 0.100000000000D+01
0.222496163335D-08 0.000000000000D+00 0.000000000000D+00 0.358105455929D-12 0.206614994549D-16  7 1 21 24 -11 11 -24 1 2 0.23061991D+00 0.11575931D-01 0.73310986D+05 0.73310986D+05 0.73310986D+05 0.11329573D+01  1  2 11  4  7  2       -1 0.149374375120D-05 0.100000000000D+01
  </mgrwgt>
  </event>
  <event>
  7     66 0.27727860E-05 0.31294942E+03 0.75467711E-02 0.92776007E-01
        1 -1    0    0  501    0 0.00000000E+00 0.00000000E+00 0.61441312E+03 0.61441320E+03 0.32000000E+00 0.0000E+00 0.9000E+01
       -1 -1    0    0    0  501 0.00000000E+00 0.00000000E+00 -.17553155E+03 0.17553184E+03 0.32000000E+00 0.0000E+00 0.9000E+01
       25  2    1    2    0    0 -.83272612E+02 -.23432064E+03 0.35078775E+03 0.52263572E+03 0.29707838E+03 0.0000E+00 0.0000E+00
       24  1    3    3    0    0 -.66222759E+02 -.26822622E+03 0.21043516E+03 0.35648413E+03 0.80419002E+02 0.0000E+00 0.9000E+01
      -13  1    1    2    0    0 0.51756693E+02 0.12094918E+03 0.25428619E+02 0.13399285E+03 0.10565837E+00 0.0000E+00 0.9000E+01
       13  1    1    2    0    0 0.31515919E+02 0.11337146E+03 0.62665198E+02 0.13331647E+03 0.10565837E+00 0.0000E+00 0.9000E+01
      -24  1    3    3    0    0 -.17049853E+02 0.33905585E+02 0.14035259E+03 0.16615159E+03 0.80419002E+02 0.0000E+00 0.9000E+01
#aMCatNLO 1  0  0  2  2 0.43264364D+03 0.00000000D+00  -5  7  0 0.00000000D+00 0.00000000D+00 0.00000000D+00 0.00000000D+00 0.00000000D+00
  <mgrwgt>
 0.8912131887D-04    3    2    0
 0.328403766534538D+03 0.000000000000000D+00 0.000000000000000D+00 0.328403766534538D+03
 0.328403766534538D+03 0.000000000000000D+00 0.000000000000000D+00 -.328403766534538D+03
 0.288131233275163D+03 -.662227636634126D+02 -.268226236902192D+03 0.148870092484951D+02
 0.144162377663521D+03 0.517567923175866D+02 0.120949265233842D+03 -.589516820963366D+02
 0.118466932539990D+03 0.315158260437515D+02 0.113371391227560D+03 -.137147535647576D+02
 0.106046989590402D+03 -.170498546979255D+02 0.339055804407900D+02 0.577794264125992D+02
 0.000000000000000D+00 0.000000000000000D+00 0.000000000000000D+00 0.000000000000000D+00
 0.922918004776764D+03 0.000000000000000D+00 0.000000000000000D+00 0.922918004776764D+03
 0.481595966859067D+03 0.000000000000000D+00 0.000000000000000D+00 -.481595966859067D+03
 0.502983370259071D+03 -.229896778031721D+03 -.439830539195576D+03 0.148870092484951D+02
 0.914457983598051D+02 0.301172325242666D+01 0.698424136089624D+02 -.589516820963366D+02
 0.734909576193575D+02 -.819841805146789D+01 0.717329235980351D+02 -.137147535647576D+02
 0.118576318610785D+03 -.635222600987786D+02 -.148184930505779D+02 0.577794264125992D+02
 0.618017526786812D+03 0.298605732929541D+03 0.313073695039156D+03 0.441322037917697D+03
0.187414422370D-05 0.000000000000D+00 0.000000000000D+00 0.203634226691D-10 0.000000000000D+00  7 1 -1 24 -13 13 -24 21 0 0.94525124D-01 0.27004882D-01 0.97937341D+05 0.97937341D+05 0.97937341D+05 0.11224656D+01  1  2  2  2  7  2       -1 0.882403907877D-04 0.100000000000D+01
-.103824988497D-06 0.000000000000D+00 -.719720729253D-08 0.203634226691D-10 0.000000000000D+00  7 1 -1 24 -13 13 -24 21 2 0.94525124D-01 0.27004882D-01 0.97937341D+05 0.97937341D+05 0.97937341D+05 0.11224656D+01  1  2  3  2  7  2       -1 -.615903091342D-05 0.100000000000D+01
0.118675108548D-06 0.000000000000D+00 0.000000000000D+00 0.203634226691D-10 0.000000000000D+00  7 1 -1 24 -13 13 -24 21 2 0.94525124D-01 0.27004882D-01 0.97937341D+05 0.97937341D+05 0.97937341D+05 0.11224656D+01  1  2 15  2  7  2       -1 0.703995900005D-05 0.100000000000D+01
  </mgrwgt>
  </event>
  <event>
  8     66 0.27727860E-05 0.25915416E+03 0.75467711E-02 0.97644263E-01
        1 -1    0    0  501    0 0.00000000E+00 0.00000000E+00 0.35135433E+03 0.35135448E+03 0.32000000E+00 0.0000E+00 0.9000E+01
       -1 -1    0    0    0  501 0.00000000E+00 0.00000000E+00 -.22662778E+03 0.22662801E+03 0.32000000E+00 0.0000E+00 0.9000E+01
       25  2    1    2    0    0 -.62182552E+02 -.17529874E+03 0.44843151E+02 0.35593529E+03 0.30013780E+03 0.0000E+00 0.0000E+00
       23  2    1    2    0    0 0.62182552E+02 0.17529874E+03 0.79883400E+02 0.22204719E+03 0.91253932E+02 0.0000E+00 0.0000E+00
       24  1    3    3    0    0 -.25787516E+02 -.21546609E+03 -.30096341E+02 0.23337445E+03 0.80419002E+02 0.0000E+00 0.9000E+01
      -11  1    4    4    0    0 0.60239001E+02 0.11723539E+03 0.94449680E+02 0.16215306E+03 0.51099893E-03 0.0000E+00 0.9000E+01
       11  1    4    4    0    0 0.19435511E+01 0.58063356E+02 -.14566280E+02 0.59894134E+02 0.51099893E-03 0.0000E+00 0.9000E+01
      -24  1    3    3    0    0 -.36395036E+02 0.40167343E+02 0.74939491E+02 0.12256083E+03 0.80419002E+02 0.0000E+00 0.9000E+01
#aMCatNLO 1  0  0  2  2 0.21278545D+03 0.00000000D+00  -5  7  0 0.00000000D+00 0.00000000D+00 0.00000000D+00 0.00000000D+00 0.00000000D+00
  <mgrwgt>
 0.6369742643D-03    3    2    0
 0.282182137891515D+03 0.000000000000000D+00 0.000000000000000D+00 0.282182137891515D+03
 0.282182137891515D+03 0.000000000000000D+00 0.000000000000000D+00 -.282182137891515D+03
 0.245657219946886D+03 -.257875159520378D+02 -.215466086501811D+03 -.823991707863603D+02
 0.145192120088070D+03 0.602390005491065D+02 0.117235386925991D+03 0.608923525643938D+02
 0.645585900969982D+02 0.194355108298432D+01 0.580633564489946D+02 -.281545875902498D+02
 0.108956345651075D+03 -.363950356800530D+02 0.401673431268251D+02 0.496614058122163D+02
 0.000000000000000D+00 -.000000000000000D+00 -.000000000000000D+00 0.000000000000000D+00
 0.449977654436418D+03 0.000000000000000D+00 0.000000000000000D+00 0.449977654436418D+03
 0.377846709012773D+03 0.000000000000000D+00 0.000000000000000D+00 -.377846709012773D+03
 0.196084940894158D+03 0.286176992444248D+02 -.156120120531502D+03 -.823991707863603D+02
 0.203099562027809D+03 0.103134801757158D+03 0.164026723925015D+03 0.608923525643938D+02
 0.856271472348677D+02 0.204405117159083D+02 0.782400985556413D+02 -.281545875902498D+02
 0.118334006883098D+03 -.840182688567842D+01 0.707027249006429D+02 0.496614058122163D+02
 0.224678706409258D+03 -.143791185831812D+03 -.156849426849797D+03 0.721309454236447D+02
0.950210885327D-05 0.000000000000D+00 0.000000000000D+00 0.141962020682D-05 0.000000000000D+00  7 1 -1 24 -11 11 -24 21 0 0.54054541D-01 0.34865841D-01 0.67160878D+05 0.67160878D+05 0.67160878D+05 0.11361914D+01  1  2  2  2  7  2       -1 0.629025767687D-03 0.100000000000D+01
-.523243461512D-06 0.000000000000D+00 -.364905999593D-07 0.141962020682D-05 0.000000000000D+00  7 1 -1 24 -11 11 -24 21 2 0.54054541D-01 0.34865841D-01 0.67160878D+05 0.67160878D+05 0.67160878D+05 0.11361914D+01  1  2  3  2  7  2       -1 -.447152080031D-04 0.100000000000D+01
0.616254297779D-06 0.000000000000D+00 0.000000000000D+00 0.141962020682D-05 0.000000000000D+00  7 1 -1 24 -11 11 -24 21 2 0.54054541D-01 0.34865841D-01 0.67160878D+05 0.67160878D+05 0.67160878D+05 0.11361914D+01  1  2 15  2  7  2       -1 0.526637046326D-04 0.100000000000D+01
  </mgrwgt>
  </event>
  <event>
  7     66 0.27727860E-05 0.41808877E+03 0.75467711E-02 0.85398654E-01
        1 -1    0    0  501    0 0.00000000E+00 0.00000000E+00 0.35454441E+04 0.35454441E+04 0.32000000E+00 0.0000E+00 0.9000E+01
       -1 -1    0    0    0  501 0.00000000E+00 0.00000000E+00 -.78351987E+02 0.78352640E+02 0.32000000E+00 0.0000E+00 0.9000E+01
       25  2    1    2    0    0 -.84175121E+02 -.35836413E+03 0.13228590E+04 0.14062741E+04 0.30354654E+03 0.0000E+00 0.0000E+00
       24  1    3    3    0    0 -.10031927E+03 -.26975431E+03 0.11891129E+04 0.12260865E+04 0.80419002E+02 0.0000E+00 0.9000E+01
      -13  1    1    2    0    0 -.41823080E+02 0.58374973E+01 0.12146982E+04 0.12154320E+04 0.10565837E+00 0.0000E+00 0.9000E+01
       13  1    1    2    0    0 0.12599820E+03 0.35252663E+03 0.92953494E+03 0.10020907E+04 0.10565837E+00 0.0000E+00 0.9000E+01
      -24  1    3    3    0    0 0.16144146E+02 -.88609818E+02 0.13374613E+03 0.18018762E+03 0.80419002E+02 0.0000E+00 0.9000E+01
#aMCatNLO 1  0  0  1  1 0.10773960D+04 0.00000000D+00  -5  7  0 0.00000000D+00 0.00000000D+00 0.00000000D+00 0.00000000D+00 0.00000000D+00
  <mgrwgt>
 0.1732231394D-01    3    2    0
 0.527061477027424D+03 0.000000000000000D+00 0.000000000000000D+00 0.527061477027424D+03
 0.527061477027424D+03 0.000000000000000D+00 0.000000000000000D+00 -.527061477027424D+03
 0.303883809200383D+03 -.100320867027455D+03 -.269761138157057D+03 0.551616308572608D+02
 0.183090659701346D+03 -.418187755533671D+02 0.584650614642044D+01 0.178154983222393D+03
 0.387609820513128D+03 0.125996449414286D+03 0.352528491753149D+03 -.100448644567572D+03
 0.179538664639992D+03 0.161431931665362D+02 -.886138597425116D+02 -.132867969512082D+03
 0.000000000000000D+00 0.000000000000000D+00 -.000000000000000D+00 -.000000000000000D+00
 0.913781058482463D+03 0.000000000000000D+00 0.000000000000000D+00 0.913781058482463D+03
 0.256589572060553D+04 0.000000000000000D+00 0.000000000000000D+00 -.256589572060553D+04
 0.442644359379934D+03 -.397543634432733D+03 -.168472745984870D+03 0.551616308572608D+02
 0.304188105627595D+03 -.235823970835309D+03 0.719601301958350D+02 0.178154983222393D+03
 0.548577275485233D+03 -.246737134116669D+03 0.479549667533231D+03 -.100448644567572D+03
 0.211891583502167D+03 -.139700868043098D+03 -.355048919224793D+02 -.132867969512082D+03
 0.197237545509306D+04 0.101980560742781D+04 -.347532159821717D+03 -.165211466212307D+04
0.136890700730D-01 0.000000000000D+00 0.000000000000D+00 0.104815867333D-10 0.000000000000D+00  7 1 -1 24 -13 13 -24 21 0 0.54545299D+00 0.12054203D-01 0.17479822D+06 0.17479822D+06 0.17479822D+06 0.11023463D+01  1  2  2  1  7  1        1 0.171333106453D-01 0.100000000000D+01
-.710896328042D-03 0.000000000000D+00 -.525696334954D-04 0.104815867333D-10 0.000000000000D+00  7 1 -1 24 -13 13 -24 21 2 0.54545299D+00 0.12054203D-01 0.17479822D+06 0.17479822D+06 0.17479822D+06 0.11023463D+01  1  2  3  1  7  1        1 -.108120905648D-02 0.100000000000D+01
0.835166237163D-03 0.000000000000D+00 0.000000000000D+00 0.104815867333D-10 0.000000000000D+00  7 1 -1 24 -13 13 -24 21 2 0.54545299D+00 0.12054203D-01 0.17479822D+06 0.17479822D+06 0.17479822D+06 0.11023463D+01  1  2 15  1  7  1        1 0.127021235540D-02 0.100000000000D+01
  </mgrwgt>
  </event>
  <event>
  8     66 0.27727860E-05 0.19131244E+03 0.75467711E-02 0.10503822E+00
        1 -1    0    0  501    0 0.00000000E+00 0.00000000E+00 0.11469790E+04 0.11469790E+04 0.32000000E+00 0.0000E+00 0.9000E+01
       -1 -1    0    0    0  501 0.00000000E+00 0.00000000E+00 -.46675748E+02 0.46676845E+02 0.32000000E+00 0.0000E+00 0.9000E+01
       25  2    1    2    0    0 0.52606601E+02 0.51407302E+02 0.54786912E+03 0.62894813E+03 0.30000836E+03 0.0000E+00 0.0000E+00
       23  2    1    2    0    0 -.52606601E+02 -.51407302E+02 0.55243409E+03 0.56470771E+03 0.91111007E+02 0.0000E+00 0.0000E+00
       24  1    3    3    0    0 0.12942795E+03 0.53952278E+02 0.45879010E+03 0.48643398E+03 0.80419002E+02 0.0000E+00 0.9000E+01
      -13  1    4    4    0    0 0.17788268E+02 0.61317204E+01 0.19446314E+03 0.19537130E+03 0.10565837E+00 0.0000E+00 0.9000E+01
       13  1    4    4    0    0 -.70394869E+02 -.57539022E+02 0.35797095E+03 0.36933642E+03 0.10565837E+00 0.0000E+00 0.9000E+01
      -24  1    3    3    0    0 -.76821348E+02 -.25449765E+01 0.89079021E+02 0.14251415E+03 0.80419002E+02 0.0000E+00 0.9000E+01
#aMCatNLO 1  0  0  2  1 0.50750415D+02 0.00000000D+00  -5  7  0 0.00000000D+00 0.00000000D+00 0.00000000D+00 0.00000000D+00 0.00000000D+00
  <mgrwgt>
 0.6398693204D-03    4    2    0
 0.231380166844348D+03 0.000000000000000D+00 0.000000000000000D+00 0.231380166844348D+03
 0.231380166844348D+03 0.000000000000000D+00 0.000000000000000D+00 -.231380166844348D+03
 0.163857043896699D+03 0.129427947216153D+03 0.539522791902495D+02 0.268229925583295D+02
 0.415714947802653D+02 0.177883852809368D+02 0.613180463074571D+01 0.370697113467712D+02
 0.101529935649278D+03 -.703949888731611D+02 -.575391094887973D+02 0.451898689280058D+02
 0.155801859362454D+03 -.768213436239289D+02 -.254497433219782D+01 -.109082572833106D+03
 0.000000000000000D+00 0.000000000000000D+00 -.000000000000000D+00 0.000000000000000D+00
 0.357866143166421D+03 0.000000000000000D+00 0.000000000000000D+00 0.357866143166421D+03
 0.237914588568542D+03 0.000000000000000D+00 0.000000000000000D+00 -.237914588568542D+03
 0.155795179603589D+03 0.114503209998796D+03 0.630433501927962D+02 0.268229925583295D+02
 0.405044935748819D+02 0.139562124756245D+02 0.846608727570960D+01 0.370697113467712D+02
 0.105449247745078D+03 -.800589601973623D+02 -.516525167672374D+02 0.451898689280058D+02
 0.163785966111570D+03 -.917430740622033D+02 0.654426515789207D+01 -.109082572833106D+03
 0.130245844699844D+03 0.433426117851449D+02 -.264011858591604D+02 0.119951554597879D+03
0.486723460434D-05 0.000000000000D+00 0.000000000000D+00 0.822641131115D-06 0.000000000000D+00  7 1 -1 24 -13 13 -24 21 0 0.17645839D+00 0.71809721D-02 0.36600448D+05 0.36600448D+05 0.36600448D+05 0.11594066D+01  1  2  2  2  7  2       -1 0.666372862890D-03 0.100000000000D+01
-.258514074935D-06 0.000000000000D+00 -.186914624530D-07 0.822641131115D-06 0.000000000000D+00  7 1 -1 24 -13 13 -24 21 2 0.17645839D+00 0.71809721D-02 0.36600448D+05 0.36600448D+05 0.36600448D+05 0.11594066D+01  1  2  3  2  7  2       -1 -.475763122976D-04 0.100000000000D+01
0.314951637489D-06 0.000000000000D+00 0.000000000000D+00 0.822641131115D-06 0.000000000000D+00  7 1 -1 24 -13 13 -24 21 2 0.17645839D+00 0.71809721D-02 0.36600448D+05 0.36600448D+05 0.36600448D+05 0.11594066D+01  1  2 15  2  7  2       -1 0.579629463796D-04 0.100000000000D+01
-.200449118506D-06 0.000000000000D+00 0.000000000000D+00 0.822641131115D-06 0.000000000000D+00  7 1 -1 24 -13 13 -24 21 2 0.17645839D+00 0.71809721D-02 0.36600448D+05 0.36600448D+05 0.36600448D+05 0.11594066D+01  1  2  4  2  7  2       -1 -.368901765377D-04 0.100000000000D+01
  </mgrwgt>
  </event>
  <event>
  8     66 0.27727860E-05 0.23315186E+03 0.75467711E-02 0.91646082E-01
        3 -1    0    0  501    0 0.00000000E+00 0.00000000E+00 0.72595753E+02 0.72597474E+02 0.50000000E+00 0.0000E+00 0.9000E+01
       -3 -1    0    0    0  501 0.00000000E+00 0.00000000E+00 -.93748003E+03 0.93748016E+03 0.50000000E+00 0.0000E+00 0.9000E+01
       25  2    1    2    0    0 0.64386209E+02 0.98436999E+02 -.76058504E+03 0.82599539E+03 0.29990556E+03 0.0000E+00 0.0000E+00
       23  2    1    2    0    0 -.64386209E+02 -.98436999E+02 -.10429923E+03 0.18408225E+03 0.95773259E+02 0.0000E+00 0.0000E+00
       24  1    3    3    0    0 -.76196297E+02 -.25256933E+02 -.34310614E+03 0.36143164E+03 0.80419002E+02 0.0000E+00 0.9000E+01
      -13  1    4    4    0    0 -.47021832E+02 0.18972018E+01 -.17258973E+02 0.50125197E+02 0.10565837E+00 0.0000E+00 0.9000E+01
       13  1    4    4    0    0 -.17364377E+02 -.10033420E+03 -.87040259E+02 0.13395705E+03 0.10565837E+00 0.0000E+00 0.9000E+01
      -24  1    3    3    0    0 0.14058251E+03 0.12369393E+03 -.41747890E+03 0.46456375E+03 0.80419002E+02 0.0000E+00 0.9000E+01
#aMCatNLO 1  0  0  1  1 0.58930040D+03 0.00000000D+00  -5  7  0 0.00000000D+00 0.00000000D+00 0.00000000D+00 0.00000000D+00 0.00000000D+00
  <mgrwgt>
 0.2735803798D-03    5    2    0
 0.260879292062837D+03 0.000000000000000D+00 0.000000000000000D+00 0.260879292062837D+03
 0.260879292062837D+03 0.000000000000000D+00 0.000000000000000D+00 -.260879292062837D+03
 0.130955022397415D+03 -.761962933188763D+02 -.252569281769175D+02 -.651015698755936D+02
 0.684287605889191D+02 -.470218610819773D+02 0.189730678611117D+01 0.496773598642502D+02
 0.115048032133802D+03 -.173643542635734D+02 -.100334316181433D+03 0.535495461724347D+02
 0.207326769005537D+03 0.140582508664427D+03 0.123693937572239D+03 -.381253361610913D+02
 0.000000000000000D+00 -.000000000000000D+00 -.000000000000000D+00 0.000000000000000D+00
 0.697559606615830D+03 0.000000000000000D+00 0.000000000000000D+00 0.697559606615830D+03
 0.679116966533901D+03 0.000000000000000D+00 0.000000000000000D+00 -.679116966533901D+03
 0.131769944157876D+03 -.203460664764421D+02 0.790185130692075D+02 -.651015698755936D+02
 0.800406674464532D+02 -.154601433523571D+02 0.608247674037152D+02 0.496773598642502D+02
 0.643971781327215D+02 0.207822133450459D+02 -.291125791482777D+02 0.535495461724347D+02
 0.510879867037952D+03 0.293259294843897D+03 0.408749883572594D+03 -.381253361610913D+02
 0.589588916374729D+03 -.278235298360144D+03 -.519480584897239D+03 0.184426400819290D+02
0.317445320320D-04 0.000000000000D+00 0.000000000000D+00 0.635262239735D-07 0.000000000000D+00  7 3 -3 24 -13 13 -24 21 0 0.11168720D-01 0.14422784D+00 0.54359789D+05 0.54359789D+05 0.54359789D+05 0.11441154D+01  1  2  2  1  7  1        3 0.231275612258D-03 0.100000000000D+01
-.173651052561D-05 0.000000000000D+00 -.121907361530D-06 0.635262239735D-07 0.000000000000D+00  7 3 -3 24 -13 13 -24 21 2 0.11168720D-01 0.14422784D+00 0.54359789D+05 0.54359789D+05 0.54359789D+05 0.11441154D+01  1  2  3  1  7  1        3 -.165606735349D-04 0.100000000000D+01
0.201770031871D-05 0.000000000000D+00 0.000000000000D+00 0.635262239735D-07 0.000000000000D+00  7 3 -3 24 -13 13 -24 21 2 0.11168720D-01 0.14422784D+00 0.54359789D+05 0.54359789D+05 0.54359789D+05 0.11441154D+01  1  2 15  1  7  1        3 0.192423113921D-04 0.100000000000D+01
0.447193541384D-04 0.000000000000D+00 -.191358761571D-04 0.635262239735D-07 0.000000000000D+00  7 3 -3 24 -13 13 -24 21 2 0.82206450D-01 0.14422784D+00 0.54359789D+05 0.54359789D+05 0.54359789D+05 0.11441154D+01  1  2  5  1  7  1        3 0.101640104917D-04 0.100000000000D+01
0.890142509529D-05 0.000000000000D+00 -.465897721460D-05 0.635262239735D-07 0.000000000000D+00  7 21 -3 24 -13 13 -24 -3 2 0.82206450D-01 0.14422784D+00 0.54359789D+05 0.54359789D+05 0.54359789D+05 0.11441154D+01  1  2  5  3  7  1        3 0.294591192267D-04 0.100000000000D+01
  </mgrwgt>
  </event>
  <event>
  8     66 0.27727860E-05 0.63145888E+03 0.75467711E-02 0.84714350E-01
        3 -1    0    0  501    0 0.00000000E+00 0.00000000E+00 0.42534605E+03 0.42534634E+03 0.50000000E+00 0.0000E+00 0.9000E+01
       -3 -1    0    0    0  501 0.00000000E+00 0.00000000E+00 -.10135834E+04 0.10135835E+04 0.50000000E+00 0.0000E+00 0.9000E+01
       25  2    1    2    0    0 -.18183605E+03 -.58697416E+03 -.38831571E+03 0.78684439E+03 0.30121750E+03 0.0000E+00 0.0000E+00
       23  2    1    2    0    0 0.18183605E+03 0.58697416E+03 -.19992161E+03 0.65208545E+03 0.87428617E+02 0.0000E+00 0.0000E+00
       24  1    3    3    0    0 -.24610119E+02 -.21045656E+03 -.13585529E+02 0.22704494E+03 0.80419002E+02 0.0000E+00 0.9000E+01
      -13  1    4    4    0    0 0.17531931E+03 0.44515274E+03 -.16233342E+03 0.50522270E+03 0.10565837E+00 0.0000E+00 0.9000E+01
       13  1    4    4    0    0 0.65167344E+01 0.14182142E+03 -.37588186E+02 0.14686275E+03 0.10565837E+00 0.0000E+00 0.9000E+01
      -24  1    3    3    0    0 -.15722593E+03 -.37651761E+03 -.37473018E+03 0.55979945E+03 0.80419002E+02 0.0000E+00 0.9000E+01
#aMCatNLO 1  0  0  2  1 0.10449133D+04 0.00000000D+00  -5  7  0 0.00000000D+00 0.00000000D+00 0.00000000D+00 0.00000000D+00 0.00000000D+00
  <mgrwgt>
 0.2767026797D-04    5    2    0
 0.656600320893972D+03 0.000000000000000D+00 0.000000000000000D+00 0.656600320893972D+03
 0.656600320893972D+03 0.000000000000000D+00 0.000000000000000D+00 -.656600320893972D+03
 0.242697274264900D+03 -.246101193582663D+02 -.210456556841523D+03 0.868166498364465D+02
 0.480878599119589D+03 0.175319558874149D+03 0.445153185425078D+03 0.484347073212754D+02
 0.144085955377079D+03 0.651648787121670D+01 0.141820979490971D+03 0.245989369479985D+02
 0.445538813026376D+03 -.157225927387100D+03 -.376517608074526D+03 -.159850294105720D+03
 0.000000000000000D+00 0.000000000000000D+00 -.000000000000000D+00 -.000000000000000D+00
 0.133574519999366D+04 0.000000000000000D+00 0.000000000000000D+00 0.133574519999366D+04
 0.138870468392976D+04 0.000000000000000D+00 0.000000000000000D+00 -.138870468392976D+04
 0.170476807495982D+03 -.910085274077715D+02 -.823130803086372D+02 0.868166498364465D+02
 0.864852098899455D+03 -.409437063117981D+02 0.862523533018635D+03 0.484347073212754D+02
 0.281943266723786D+03 -.619477827081697D+02 0.273951401108754D+03 0.245989369479985D+02
 0.360923201775197D+03 -.286826975223907D+03 -.126398225396990D+03 -.159850294105720D+03
 0.104625450902901D+04 0.480726991651646D+03 -.927763628421762D+03 -.529594839361001D+02
0.133040844317D-03 0.000000000000D+00 0.000000000000D+00 0.750350694875D-07 0.000000000000D+00  7 3 -3 24 -13 13 -24 21 0 0.65437886D-01 0.15593593D+00 0.39874031D+06 0.39874031D+06 0.39874031D+06 0.10755264D+01  1  2  2  2  7  2       -3 0.273452318495D-04 0.100000000000D+01
-.737745951419D-05 0.000000000000D+00 -.510911872638D-06 0.750350694875D-07 0.000000000000D+00  7 3 -3 24 -13 13 -24 21 2 0.65437886D-01 0.15593593D+00 0.39874031D+06 0.39874031D+06 0.39874031D+06 0.10755264D+01  1  2  3  2  7  2       -3 -.175406463429D-05 0.100000000000D+01
0.836299198440D-05 0.000000000000D+00 0.000000000000D+00 0.750350694875D-07 0.000000000000D+00  7 3 -3 24 -13 13 -24 21 2 0.65437886D-01 0.15593593D+00 0.39874031D+06 0.39874031D+06 0.39874031D+06 0.10755264D+01  1  2 15  2  7  2       -3 0.198838481573D-05 0.100000000000D+01
0.151175539903D-04 0.000000000000D+00 -.364571419442D-04 0.750350694875D-07 0.000000000000D+00  7 3 -3 24 -13 13 -24 21 2 0.65437886D-01 0.46554728D+00 0.39874031D+06 0.39874031D+06 0.39874031D+06 0.10755264D+01  1  2  5  2  7  2       -3 0.163212578738D-09 0.100000000000D+01
0.371913369212D-05 0.000000000000D+00 -.453287946646D-05 0.750350694875D-07 0.000000000000D+00  7 3 21 24 -13 13 -24 3 2 0.65437886D-01 0.46554728D+00 0.39874031D+06 0.39874031D+06 0.39874031D+06 0.10755264D+01  1  2  5  4  7  2       -3 0.905527245468D-07 0.100000000000D+01
  </mgrwgt>
  </event>
  <event>
  8     66 0.27727860E-05 0.28905790E+03 0.75467711E-02 0.93359715E-01
        3 -1    0    0  501    0 0.00000000E+00 0.00000000E+00 0.72019240E+03 0.72019257E+03 0.50000000E+00 0.0000E+00 0.9000E+01
       -3 -1    0    0    0  501 0.00000000E+00 0.00000000E+00 -.18638210E+03 0.18638277E+03 0.50000000E+00 0.0000E+00 0.9000E+01
       25  2    1    2    0    0 -.25455596E+03 -.36135036E+02 0.14196204E+03 0.42918879E+03 0.31296217E+03 0.0000E+00 0.0000E+00
       23  2    1    2    0    0 0.25455596E+03 0.36135036E+02 0.39184826E+03 0.47738655E+03 0.90820604E+02 0.0000E+00 0.0000E+00
       24  1    3    3    0    0 -.15859026E+03 -.11058258E+02 -.61926837E+02 0.18861417E+03 0.80419002E+02 0.0000E+00 0.9000E+01
      -11  1    4    4    0    0 0.18115133E+02 0.30837286E+02 0.60793129E+02 0.70532976E+02 0.51099893E-03 0.0000E+00 0.9000E+01
       11  1    4    4    0    0 0.23644083E+03 0.52977501E+01 0.33105513E+03 0.40685358E+03 0.51099893E-03 0.0000E+00 0.9000E+01
      -24  1    3    3    0    0 -.95965704E+02 -.25076778E+02 0.20388888E+03 0.24057463E+03 0.80419002E+02 0.0000E+00 0.9000E+01
#aMCatNLO 1  0  0  1  1 0.42756239D+03 0.00000000D+00  -5  7  0 0.00000000D+00 0.00000000D+00 0.00000000D+00 0.00000000D+00 0.00000000D+00
  <mgrwgt>
 0.1035818303D-03    3    2    0
 0.366375974325098D+03 0.000000000000000D+00 0.000000000000000D+00 0.366375974325098D+03
 0.366375974325098D+03 0.000000000000000D+00 0.000000000000000D+00 -.366375974325098D+03
 0.278470956676470D+03 -.158590256755887D+03 -.110582579277531D+02 -.214022669714316D+03
 0.429769707236030D+02 0.181151328468612D+02 0.308372859932278D+02 0.238311511910331D+02
 0.262193476212081D+03 0.236440827632217D+03 0.529775007520680D+01 0.113194910843677D+03
 0.149110545038042D+03 -.959657037231914D+02 -.250767781406816D+02 0.769966076796052D+02
 0.000000000000000D+00 -.000000000000000D+00 -.000000000000000D+00 -.000000000000000D+00
 0.491425935643403D+03 0.000000000000000D+00 0.000000000000000D+00 0.491425935643403D+03
 0.110387716181153D+04 0.000000000000000D+00 0.000000000000000D+00 -.110387716181153D+04
 0.264122055886033D+03 -.745558689313289D+02 0.109219795400584D+03 -.214022669714316D+03
 0.705623052608374D+02 0.356995899454437D+02 0.560058428591240D+02 0.238311511910331D+02
 0.385114552139798D+03 0.336693010459960D+03 0.148788262764032D+03 0.113194910843677D+03
 0.128573064077209D+03 -.529593037868746D+02 0.364780947977566D+02 0.769966076796052D+02
 0.746931120091055D+03 -.244877427687200D+03 -.350491995821497D+03 -.612451226168127D+03
0.294542666257D-04 0.000000000000D+00 0.000000000000D+00 0.601093771512D-08 0.000000000000D+00  7 3 -3 24 -11 11 -24 21 0 0.11079890D+00 0.28674234D-01 0.83554470D+05 0.83554470D+05 0.83554470D+05 0.11281821D+01  1  2  2  1  7  1        3 0.102138281507D-03 0.100000000000D+01
-.152456534512D-05 0.000000000000D+00 -.113112139329D-06 0.601093771512D-08 0.000000000000D+00  7 3 -3 24 -11 11 -24 21 2 0.11079890D+00 0.28674234D-01 0.83554470D+05 0.83554470D+05 0.83554470D+05 0.11281821D+01  1  2  3  1  7  1        3 -.672891143519D-05 0.100000000000D+01
0.185162931594D-05 0.000000000000D+00 0.000000000000D+00 0.601093771512D-08 0.000000000000D+00  7 3 -3 24 -11 11 -24 21 2 0.11079890D+00 0.28674234D-01 0.83554470D+05 0.83554470D+05 0.83554470D+05 0.11281821D+01  1  2 15  1  7  1        3 0.817246024750D-05 0.100000000000D+01
  </mgrwgt>
  </event>
  <event>
  8     66 0.27727860E-05 0.32690465E+02 0.75467711E-02 0.11080431E+00
        1 -1    0    0  501    0 0.00000000E+00 0.00000000E+00 0.34017207E+03 0.34017222E+03 0.32000000E+00 0.0000E+00 0.9000E+01
       -1 -1    0    0    0  501 0.00000000E+00 0.00000000E+00 -.22970931E+03 0.22970954E+03 0.32000000E+00 0.0000E+00 0.9000E+01
       25  2    1    2    0    0 0.33919032E+02 -.30539536E+02 0.25375611E+03 0.39555156E+03 0.29997619E+03 0.0000E+00 0.0000E+00
       23  2    1    2    0    0 -.33919032E+02 0.30539536E+02 -.14329335E+03 0.17433020E+03 0.88175227E+02 0.0000E+00 0.0000E+00
       24  1    3    3    0    0 -.20209123E+02 0.21776629E+02 -.30265593E+02 0.90916733E+02 0.80419002E+02 0.0000E+00 0.9000E+01
      -11  1    4    4    0    0 -.28759331E+02 0.10416127E+02 -.14954064E+03 0.15263682E+03 0.51099893E-03 0.0000E+00 0.9000E+01
       11  1    4    4    0    0 -.51597007E+01 0.20123409E+02 0.62472933E+01 0.21693381E+02 0.51099893E-03 0.0000E+00 0.9000E+01
      -24  1    3    3    0    0 0.54128155E+02 -.52316165E+02 0.28402170E+03 0.30463483E+03 0.80419002E+02 0.0000E+00 0.9000E+01
#aMCatNLO 1  0  0  1  2 0.51670982D+02 0.00000000D+00  -5  7  0 0.00000000D+00 0.00000000D+00 0.00000000D+00 0.00000000D+00 0.00000000D+00
  <mgrwgt>
 0.3426318617D-03    9    2    0
 0.279536759854052D+03 0.000000000000000D+00 0.000000000000000D+00 0.279536759854052D+03
 0.279536759854052D+03 0.000000000000000D+00 0.000000000000000D+00 -.279536759854052D+03
 0.986543037432050D+02 -.202091229953167D+02 0.217766287866203D+02 -.488141934188808D+02
 0.185134165765315D+03 -.287593313019818D+02 0.104161270784158D+02 -.182589880588624D+03
 0.208784147713570D+02 -.515970073687381D+01 0.201234089493040D+02 0.208185108252168D+01
 0.254406635428227D+03 0.541281550341723D+02 -.523161648143400D+02 0.229322222924984D+03
 0.000000000000000D+00 -.000000000000000D+00 0.000000000000000D+00 0.000000000000000D+00
 0.354794981765775D+03 0.000000000000000D+00 0.000000000000000D+00 0.354794981765775D+03
 0.289739867984315D+03 0.000000000000000D+00 0.000000000000000D+00 -.289739867984315D+03
 0.963743659749389D+02 -.129989103241423D+02 0.164013814646791D+02 -.488141934188808D+02
 0.183216800127283D+03 -.151413908958022D+02 0.263888713614856D+00 -.182589880588624D+03
 0.194734555276394D+02 -.366789152258809D+01 0.190112581918104D+02 0.208185108252168D+01
 0.262391601747887D+03 0.732341931541729D+02 -.665598057332853D+02 0.229322222924984D+03
 0.830786263723414D+02 -.414260004116404D+02 0.308832773631810D+02 0.650551137814600D+02
0.874833718898D-05 0.000000000000D+00 0.000000000000D+00 0.489841034848D-06 0.000000000000D+00  7 1 -1 24 -11 11 -24 21 0 0.52334194D-01 0.35339923D-01 0.15282867D+05 0.15282867D+05 0.15282867D+05 0.11955299D+01  1  2  2  1  7  1        1 0.592832213537D-03 0.100000000000D+01
-.926519285348D-07 0.000000000000D+00 -.335959182958D-07 0.489841034848D-06 0.000000000000D+00  7 1 -1 24 -11 11 -24 21 2 0.52334194D-01 0.35339923D-01 0.15282867D+05 0.15282867D+05 0.15282867D+05 0.11955299D+01  1  2  3  1  7  1        1 -.897390837373D-05 0.100000000000D+01
0.502287167110D-06 0.000000000000D+00 0.000000000000D+00 0.489841034848D-06 0.000000000000D+00  7 1 -1 24 -11 11 -24 21 2 0.52334194D-01 0.35339923D-01 0.15282867D+05 0.15282867D+05 0.15282867D+05 0.11955299D+01  1  2 15  1  7  1        1 0.486495973286D-04 0.100000000000D+01
0.162282561518D-04 0.000000000000D+00 0.000000000000D+00 0.489841034848D-06 0.000000000000D+00  7 1 -1 24 -11 11 -24 21 2 0.67195866D-01 0.35339923D-01 0.22021276D+05 0.22021276D+05 0.22021276D+05 0.11800034D+01  1  2 12  1  7  1        1 0.110458016720D-02 0.100000000000D+01
-.211197528027D-04 0.000000000000D+00 0.000000000000D+00 0.489841034848D-06 0.000000000000D+00  7 1 -1 24 -11 11 -24 21 2 0.52334194D-01 0.35339923D-01 0.15282867D+05 0.15282867D+05 0.15282867D+05 0.11955299D+01  1  2  4  1  7  1        1 -.204557778261D-02 0.100000000000D+01
-.217206604131D-04 0.000000000000D+00 -.521625170139D-05 0.489841034848D-06 0.000000000000D+00  7 1 -1 24 -11 11 -24 21 2 0.68067483D-01 0.35339923D-01 0.15282867D+05 0.15282867D+05 0.15282867D+05 0.11955299D+01  1  2  5  1  7  1        1 -.149564863430D-02 0.100000000000D+01
0.224856513390D-04 0.000000000000D+00 0.504110203429D-05 0.489841034848D-06 0.000000000000D+00  7 1 -1 24 -11 11 -24 21 2 0.52334194D-01 0.35339923D-01 0.15282867D+05 0.15282867D+05 0.15282867D+05 0.11955299D+01  1  2  6  1  7  1        1 0.217787344560D-02 0.100000000000D+01
0.549154714712D-06 0.000000000000D+00 0.000000000000D+00 0.489841034848D-06 0.000000000000D+00  7 21 -1 24 -11 11 -24 -1 2 0.67195866D-01 0.35339923D-01 0.22021276D+05 0.22021276D+05 0.22021276D+05 0.11800034D+01  1  2 12  3  7  1        1 0.135293060562D-03 0.100000000000D+01
-.667834892980D-06 0.000000000000D+00 -.183159714202D-06 0.489841034848D-06 0.000000000000D+00  7 21 -1 24 -11 11 -24 -1 2 0.68067483D-01 0.35339923D-01 0.15282867D+05 0.15282867D+05 0.15282867D+05 0.11955299D+01  1  2  5  3  7  1        1 -.166396297282D-03 0.100000000000D+01
  </mgrwgt>
  </event>
  <event>
  8     66 0.27727860E-05 0.29424933E+03 0.75467711E-02 0.93378985E-01
        1 -1    0    0  501    0 0.00000000E+00 0.00000000E+00 0.11304091E+03 0.11304136E+03 0.32000000E+00 0.0000E+00 0.9000E+01
       -1 -1    0    0    0  501 0.00000000E+00 0.00000000E+00 -.91908279E+03 0.91908285E+03 0.32000000E+00 0.0000E+00 0.9000E+01
       25  2    1    2    0    0 0.21288862E+03 -.10635995E+03 -.55533715E+03 0.67452955E+03 0.29992791E+03 0.0000E+00 0.0000E+00
       23  2    1    2    0    0 -.21288862E+03 0.10635995E+03 -.25070473E+03 0.35759467E+03 0.91580998E+02 0.0000E+00 0.0000E+00
       24  1    3    3    0    0 -.23840212E+02 -.27722792E+02 -.28340432E+03 0.29685373E+03 0.80419002E+02 0.0000E+00 0.9000E+01
      -13  1    4    4    0    0 -.97656528E+02 0.52397488E+02 -.53896177E+02 0.12323597E+03 0.10565837E+00 0.0000E+00 0.9000E+01
       13  1    4    4    0    0 -.11523209E+03 0.53962464E+02 -.19680855E+03 0.23435870E+03 0.10565837E+00 0.0000E+00 0.9000E+01
      -24  1    3    3    0    0 0.23672883E+03 -.78637160E+02 -.27193283E+03 0.37767582E+03 0.80419002E+02 0.0000E+00 0.9000E+01
#aMCatNLO 1  0  0  1  2 0.39925647D+03 0.00000000D+00  -5  7  0 0.00000000D+00 0.00000000D+00 0.00000000D+00 0.00000000D+00 0.00000000D+00
  <mgrwgt>
 0.8562008283D-03    5    2    0
 0.322326260296795D+03 0.000000000000000D+00 0.000000000000000D+00 0.322326260296795D+03
 0.322326260296795D+03 0.000000000000000D+00 0.000000000000000D+00 -.322326260296795D+03
 0.120924315753098D+03 -.238402120242093D+02 -.277227922417798D+02 -.825746042493950D+02
 0.129918438363772D+03 -.976565045046671D+02 0.523974864101852D+02 0.677975749765837D+02
 0.129141436118204D+03 -.115232117654942D+03 0.539624661350850D+02 -.220708366866650D+02
 0.264668330358517D+03 0.236728834183819D+03 -.786371603034904D+02 0.368478659594763D+02
 0.000000000000000D+00 0.000000000000000D+00 0.000000000000000D+00 0.000000000000000D+00
 0.668899583874854D+03 0.000000000000000D+00 0.000000000000000D+00 0.668899583874854D+03
 0.516669850233221D+03 0.000000000000000D+00 0.000000000000000D+00 -.516669850233221D+03
 0.164229999577591D+03 -.898972452561167D+02 -.748611837690422D+02 -.825746042493950D+02
 0.183199417987225D+03 -.170191393617234D+03 0.636487844431102D+00 0.677975749765837D+02
 0.190582983877889D+03 -.189297441240320D+03 0.110934738384039D+01 -.220708366866650D+02
 0.220263669054616D+03 0.124392574557867D+03 -.158800472669728D+03 0.368478659594763D+02
 0.427293363610754D+03 0.324993505555803D+03 0.231915821210498D+03 0.152229733641634D+03
0.455891793271D-04 0.000000000000D+00 0.000000000000D+00 0.228334931046D-05 0.000000000000D+00  7 1 -1 24 -13 13 -24 21 0 0.17390948D-01 0.14139739D+00 0.86582667D+05 0.86582667D+05 0.86582667D+05 0.11268930D+01  1  2  2  1  7  1        1 0.782321057192D-03 0.100000000000D+01
-.250715466965D-05 0.000000000000D+00 -.175074452522D-06 0.228334931046D-05 0.000000000000D+00  7 1 -1 24 -13 13 -24 21 2 0.17390948D-01 0.14139739D+00 0.86582667D+05 0.86582667D+05 0.86582667D+05 0.11268930D+01  1  2  3  1  7  1        1 -.546348480605D-04 0.100000000000D+01
0.283570013678D-05 0.000000000000D+00 0.000000000000D+00 0.228334931046D-05 0.000000000000D+00  7 1 -1 24 -13 13 -24 21 2 0.17390948D-01 0.14139739D+00 0.86582667D+05 0.86582667D+05 0.86582667D+05 0.11268930D+01  1  2 15  1  7  1        1 0.617943711228D-04 0.100000000000D+01
0.763959282583D-05 0.000000000000D+00 -.162506685601D-04 0.228334931046D-05 0.000000000000D+00  7 1 -1 24 -13 13 -24 21 2 0.57183280D-01 0.14139739D+00 0.86582667D+05 0.86582667D+05 0.86582667D+05 0.11268930D+01  1  2  5  1  7  1        1 0.352886122332D-04 0.100000000000D+01
0.170311119971D-05 0.000000000000D+00 -.223866400652D-05 0.228334931046D-05 0.000000000000D+00  7 21 -1 24 -13 13 -24 -1 2 0.57183280D-01 0.14139739D+00 0.86582667D+05 0.86582667D+05 0.86582667D+05 0.11268930D+01  1  2  5  3  7  1        1 0.314316358617D-04 0.100000000000D+01
  </mgrwgt>
  </event>
  <event>
  8     66 0.27727860E-05 0.20598931E+03 0.75467711E-02 0.97618523E-01
        3 -1    0    0  501    0 0.00000000E+00 0.00000000E+00 0.20419603E+03 0.20419664E+03 0.50000000E+00 0.0000E+00 0.9000E+01
       -3 -1    0    0    0  501 0.00000000E+00 0.00000000E+00 -.47340958E+03 0.47340985E+03 0.50000000E+00 0.0000E+00 0.9000E+01
       25  2    1    2    0    0 -.11039672E+02 0.88659575E+02 0.64716062E+02 0.32080965E+03 0.30124453E+03 0.0000E+00 0.0000E+00
       23  2    1    2    0    0 0.11039672E+02 -.88659575E+02 -.33392962E+03 0.35679684E+03 0.88388919E+02 0.0000E+00 0.0000E+00
       24  1    3    3    0    0 -.11962422E+03 0.14755702E+02 0.80898367E+02 0.16595013E+03 0.80419002E+02 0.0000E+00 0.9000E+01
      -11  1    4    4    0    0 0.14408109E+02 -.10010673E+03 -.21872949E+03 0.24098038E+03 0.51099893E-03 0.0000E+00 0.9000E+01
       11  1    4    4    0    0 -.33684376E+01 0.11447160E+02 -.11520013E+03 0.11581646E+03 0.51099893E-03 0.0000E+00 0.9000E+01
      -24  1    3    3    0    0 0.10858455E+03 0.73903872E+02 -.16182305E+02 0.15485952E+03 0.80419002E+02 0.0000E+00 0.9000E+01
#aMCatNLO 1  0  0  2  2 0.29047937D+03 0.00000000D+00  -5  7  0 0.00000000D+00 0.00000000D+00 0.00000000D+00 0.00000000D+00 0.00000000D+00
  <mgrwgt>
 0.1978869780D-03    3    2    0
 0.310915830114630D+03 0.000000000000000D+00 0.000000000000000D+00 0.310915830114630D+03
 0.310915830114630D+03 0.000000000000000D+00 0.000000000000000D+00 -.310915830114630D+03
 0.215858779945501D+03 -.119624220209378D+03 0.147557020718943D+02 0.160000350377283D+03
 0.167899013338778D+03 0.144081093637217D+02 -.100106734855414D+03 -.134019128117169D+03
 0.763302267390465D+02 -.336843758179949D+01 0.114471603364195D+02 -.753917745017590D+02
 0.161743640205934D+03 0.108584548427456D+03 0.739038724471006D+02 0.494105522416444D+02
 0.000000000000000D+00 -.000000000000000D+00 -.000000000000000D+00 0.000000000000000D+00
 0.592951938415204D+03 0.000000000000000D+00 0.000000000000000D+00 0.592951938415204D+03
 0.427617193983006D+03 0.000000000000000D+00 0.000000000000000D+00 -.427617193983006D+03
 0.189795847553583D+03 -.370742068975054D+02 0.507999887429132D+02 0.160000350377283D+03
 0.172770455638479D+03 0.837337555973138D+02 -.698366795732082D+02 -.134019128117169D+03
 0.849455234066861D+02 0.294508979290286D+02 0.257772553908622D+02 -.753917745017590D+02
 0.238821095630200D+03 0.190098777611527D+03 0.109495898742452D+03 0.494105522416444D+02
 0.334236210169262D+03 -.266209224240364D+03 -.116236463303020D+03 0.165334744432198D+03
0.266540546763D-04 0.000000000000D+00 0.000000000000D+00 0.658380511801D-07 0.000000000000D+00  7 3 -3 24 -11 11 -24 21 0 0.31414841D-01 0.72832311D-01 0.42431596D+05 0.42431596D+05 0.42431596D+05 0.11536185D+01  1  2  2  2  7  2       -3 0.192974814391D-03 0.100000000000D+01
-.117561933993D-05 0.000000000000D+00 -.102358588131D-06 0.658380511801D-07 0.000000000000D+00  7 3 -3 24 -11 11 -24 21 2 0.31414841D-01 0.72832311D-01 0.42431596D+05 0.42431596D+05 0.42431596D+05 0.11536185D+01  1  2  3  2  7  2       -3 -.113273541236D-04 0.100000000000D+01
0.168543252866D-05 0.000000000000D+00 0.000000000000D+00 0.658380511801D-07 0.000000000000D+00  7 3 -3 24 -11 11 -24 21 2 0.31414841D-01 0.72832311D-01 0.42431596D+05 0.42431596D+05 0.42431596D+05 0.11536185D+01  1  2 15  2  7  2       -3 0.162395177208D-04 0.100000000000D+01
  </mgrwgt>
  </event>
  <event>
  7     66 0.27727860E-05 0.34201703E+03 0.75467711E-02 0.83338661E-01
        1 -1    0    0  501    0 0.00000000E+00 0.00000000E+00 0.35223484E+03 0.35223498E+03 0.32000000E+00 0.0000E+00 0.9000E+01
       -1 -1    0    0    0  501 0.00000000E+00 0.00000000E+00 -.85505328E+03 0.85505334E+03 0.32000000E+00 0.0000E+00 0.9000E+01
       23  2    1    2    0    0 -.25283582E+03 0.11908224E+03 -.16105489E+03 0.33463697E+03 0.89088118E+02 0.0000E+00 0.0000E+00
       24  1    1    2    0    0 0.51833279E+01 0.48130510E+02 0.21559953E+03 0.23514631E+03 0.80419002E+02 0.0000E+00 0.9000E+01
      -13  1    3    3    0    0 -.45068413E+02 0.10440380E+02 0.61444122E+01 0.46668280E+02 0.10565837E+00 0.0000E+00 0.9000E+01
       13  1    3    3    0    0 -.20776741E+03 0.10864186E+03 -.16719930E+03 0.28796869E+03 0.10565837E+00 0.0000E+00 0.9000E+01
      -24  1    1    2    0    0 0.24765250E+03 -.16721275E+03 -.55736308E+03 0.63750504E+03 0.80419002E+02 0.0000E+00 0.9000E+01
#aMCatNLO 1  0  0  1  2 0.14661294D+04 0.00000000D+00  -5  7  0 0.00000000D+00 0.00000000D+00 0.00000000D+00 0.00000000D+00 0.00000000D+00
  <mgrwgt>
 0.5527818393D-02    5    2    0
 0.548798393097593D+03 0.000000000000000D+00 0.000000000000000D+00 0.548798393097593D+03
 0.548798393097593D+03 0.000000000000000D+00 0.000000000000000D+00 -.548798393097593D+03
 0.357414318945332D+03 0.518332813582280D+01 0.481305098045044D+02 0.344868622185579D+03
 0.541467563140908D+02 -.450681843466922D+02 0.104402419839350D+02 0.281377207027679D+02
 0.240152518906995D+03 -.207767639411102D+03 0.108641994346799D+03 -.519880506968976D+02
 0.445883192028768D+03 0.247652495621971D+03 -.167212746135238D+03 -.321018292191449D+03
 0.000000000000000D+00 -.000000000000000D+00 -.000000000000000D+00 0.000000000000000D+00
 0.174803710103022D+04 0.000000000000000D+00 0.000000000000000D+00 0.174803710103022D+04
 0.156138773029902D+04 0.000000000000000D+00 0.000000000000000D+00 -.156138773029902D+04
 0.659964929822974D+03 0.151087919185509D+03 0.536026647425187D+03 0.344868622185579D+03
 0.864628190067221D+02 -.249030565345312D+02 0.778712111083431D+02 0.281377207027679D+02
 0.460242223702345D+03 -.107322492119682D+03 0.444524498479484D+03 -.519880506968976D+02
 0.624792298031349D+03 0.401200417611994D+03 0.346242228376855D+03 -.321018292191449D+03
 0.147796256076585D+04 -.420062788143289D+03 -.140466458538987D+04 0.186649370731199D+03
0.110069893827D-02 0.000000000000D+00 0.000000000000D+00 0.158439759207D-10 0.000000000000D+00  7 1 -1 24 -13 13 -24 21 0 0.54189991D-01 0.13154667D+00 0.11697565D+06 0.11697565D+06 0.11697565D+06 0.11161765D+01  1  2  2  1  7  1        1 0.513536028099D-02 0.100000000000D+01
-.445249204175D-04 0.000000000000D+00 -.422697374363D-05 0.158439759207D-10 0.000000000000D+00  7 1 -1 24 -13 13 -24 21 2 0.54189991D-01 0.13154667D+00 0.11697565D+06 0.11697565D+06 0.11697565D+06 0.11161765D+01  1  2  3  1  7  1        1 -.258804167146D-03 0.100000000000D+01
0.673074410699D-04 0.000000000000D+00 0.000000000000D+00 0.158439759207D-10 0.000000000000D+00  7 1 -1 24 -13 13 -24 21 2 0.54189991D-01 0.13154667D+00 0.11697565D+06 0.11697565D+06 0.11697565D+06 0.11161765D+01  1  2 15  1  7  1        1 0.391229137873D-03 0.100000000000D+01
0.173469245108D-02 0.000000000000D+00 -.600348121211D-03 0.158439759207D-10 0.000000000000D+00  7 1 -1 24 -13 13 -24 21 2 0.37201893D+00 0.13154667D+00 0.11697565D+06 0.11697565D+06 0.11697565D+06 0.11161765D+01  1  2  5  1  7  1        1 0.241267766409D-03 0.100000000000D+01
0.354526207582D-03 0.000000000000D+00 -.141464079618D-03 0.158439759207D-10 0.000000000000D+00  7 21 -1 24 -13 13 -24 -1 2 0.37201893D+00 0.13154667D+00 0.11697565D+06 0.11697565D+06 0.11697565D+06 0.11161765D+01  1  2  5  3  7  1        1 0.187653745850D-04 0.100000000000D+01
  </mgrwgt>
  </event>
  <event>
  8     66 0.27727860E-05 0.14546765E+03 0.75467711E-02 0.10661984E+00
        3 -1    0    0  501    0 0.00000000E+00 0.00000000E+00 0.15595149E+03 0.15595229E+03 0.50000000E+00 0.0000E+00 0.9000E+01
       -3 -1    0    0    0  501 0.00000000E+00 0.00000000E+00 -.27402939E+03 0.27402984E+03 0.50000000E+00 0.0000E+00 0.9000E+01
       25  2    1    2    0    0 0.39556007E+02 0.36826940E+02 -.11006421E+03 0.32476062E+03 0.30072318E+03 0.0000E+00 0.0000E+00
       23  2    1    2    0    0 -.39556007E+02 -.36826940E+02 -.80136938E+01 0.10522151E+03 0.89924666E+02 0.0000E+00 0.0000E+00
       24  1    3    3    0    0 0.49103058E+02 -.10742581E+02 -.18282136E+03 0.20595480E+03 0.80419002E+02 0.0000E+00 0.9000E+01
      -13  1    4    4    0    0 -.67414840E+02 -.27355126E+02 -.16491833E+02 0.74599298E+02 0.10565837E+00 0.0000E+00 0.9000E+01
       13  1    4    4    0    0 0.27858833E+02 -.94718132E+01 0.84781391E+01 0.30622211E+02 0.10565837E+00 0.0000E+00 0.9000E+01
      -24  1    3    3    0    0 -.95470509E+01 0.47569521E+02 0.72757149E+02 0.11880583E+03 0.80419002E+02 0.0000E+00 0.9000E+01
#aMCatNLO 1  0  0  1  1 0.83663123D+02 0.00000000D+00  -5  7  0 0.00000000D+00 0.00000000D+00 0.00000000D+00 0.00000000D+00 0.00000000D+00
  <mgrwgt>
 0.3884245074D-03    4    2    0
 0.206725809652882D+03 0.000000000000000D+00 0.000000000000000D+00 0.206725809652882D+03
 0.206725809652882D+03 0.000000000000000D+00 0.000000000000000D+00 -.206725809652882D+03
 0.161977254456947D+03 0.491031941742035D+02 -.107424546206662D+02 -.131312189067327D+03
 0.728721374655955D+02 -.674149973197385D+02 -.273553055121860D+02 0.415377124060436D+01
 0.342676021741361D+02 0.278587328024015D+02 -.947187359780047D+01 0.175625503830324D+02
 0.144334625209085D+03 -.954692965686650D+01 0.475696337306526D+02 0.109595867443690D+03
 0.000000000000000D+00 -.000000000000000D+00 -.000000000000000D+00 -.000000000000000D+00
 0.237861145929055D+03 0.000000000000000D+00 0.000000000000000D+00 0.237861145929055D+03
 0.275857329030786D+03 0.000000000000000D+00 0.000000000000000D+00 -.275857329030786D+03
 0.167674841328573D+03 0.636155754981273D+02 0.189157081966341D+02 -.131312189067327D+03
 0.633811999991588D+02 -.614166723728457D+02 -.150968557143741D+02 0.415377124060436D+01
 0.357182575056903D+02 0.309397430430191D+02 -.317538087765864D+01 0.175625503830324D+02
 0.155057136297662D+03 0.363329113886009D+01 0.745053326764364D+02 0.109595867443690D+03
 0.918870398287581D+02 -.367719373071609D+02 -.751488042810377D+02 -.379961831017313D+02
0.149950957015D-04 0.000000000000D+00 0.000000000000D+00 0.722033912541D-07 0.000000000000D+00  7 3 -3 24 -13 13 -24 21 0 0.23992633D-01 0.42158464D-01 0.21160837D+05 0.21160837D+05 0.21160837D+05 0.11816674D+01  1  2  2  1  7  1        3 0.549404448136D-03 0.100000000000D+01
-.707960208021D-06 0.000000000000D+00 -.575851157932D-07 0.722033912541D-07 0.000000000000D+00  7 3 -3 24 -13 13 -24 21 2 0.23992633D-01 0.42158464D-01 0.21160837D+05 0.21160837D+05 0.21160837D+05 0.11816674D+01  1  2  3  1  7  1        3 -.362194845235D-04 0.100000000000D+01
0.996897428556D-06 0.000000000000D+00 0.000000000000D+00 0.722033912541D-07 0.000000000000D+00  7 3 -3 24 -13 13 -24 21 2 0.23992633D-01 0.42158464D-01 0.21160837D+05 0.21160837D+05 0.21160837D+05 0.11816674D+01  1  2 15  1  7  1        3 0.510016107911D-04 0.100000000000D+01
-.343551409211D-05 0.000000000000D+00 0.000000000000D+00 0.722033912541D-07 0.000000000000D+00  7 3 -3 24 -13 13 -24 21 2 0.23992633D-01 0.42158464D-01 0.21160837D+05 0.21160837D+05 0.21160837D+05 0.11816674D+01  1  2  4  1  7  1        3 -.175762066963D-03 0.100000000000D+01
  </mgrwgt>
  </event>
  <event>
  8     66 0.27727860E-05 0.23526991E+03 0.75467711E-02 0.98553489E-01
        1 -1    0    0  501    0 0.00000000E+00 0.00000000E+00 0.18582916E+04 0.18582916E+04 0.32000000E+00 0.0000E+00 0.9000E+01
       -1 -1    0    0    0  501 0.00000000E+00 0.00000000E+00 -.47359892E+02 0.47360973E+02 0.32000000E+00 0.0000E+00 0.9000E+01
       25  2    1    2    0    0 0.17764749E+03 -.23833022E+02 0.77313910E+03 0.84856275E+03 0.30031324E+03 0.0000E+00 0.0000E+00
       23  2    1    2    0    0 -.17764749E+03 0.23833022E+02 0.10377926E+04 0.10570898E+04 0.91097700E+02 0.0000E+00 0.0000E+00
       24  1    3    3    0    0 0.14914948E+03 -.57301023E+02 0.20074028E+03 0.26887330E+03 0.80419002E+02 0.0000E+00 0.9000E+01
      -13  1    4    4    0    0 -.57401625E+02 0.50948783E+02 0.45181671E+03 0.45828929E+03 0.10565837E+00 0.0000E+00 0.9000E+01
       13  1    4    4    0    0 -.12024587E+03 -.27115761E+02 0.58597589E+03 0.59880055E+03 0.10565837E+00 0.0000E+00 0.9000E+01
      -24  1    3    3    0    0 0.28498008E+02 0.33468001E+02 0.57239881E+03 0.57968945E+03 0.80419002E+02 0.0000E+00 0.9000E+01
#aMCatNLO 1  0  0  2  1 0.21597200D+03 0.00000000D+00  -5  7  0 0.00000000D+00 0.00000000D+00 0.00000000D+00 0.00000000D+00 0.00000000D+00
  <mgrwgt>
 0.6440409734D-03    3    2    0
 0.296664027223425D+03 0.000000000000000D+00 0.000000000000000D+00 0.296664027223425D+03
 0.296664027223425D+03 0.000000000000000D+00 0.000000000000000D+00 -.296664027223425D+03
 0.250876667026067D+03 0.149149483780330D+03 -.573010228415261D+02 -.175905970260004D+03
 0.929181450149546D+02 -.574015406669583D+02 0.509488875285763D+02 0.523741888880407D+02
 0.134737472131656D+03 -.120245951669788D+03 -.271158655796579D+02 0.544042952102268D+02
 0.114795770274174D+03 0.284980085564169D+02 0.334680008926077D+02 0.691274861617366D+02
 0.000000000000000D+00 0.000000000000000D+00 -.000000000000000D+00 0.000000000000000D+00
 0.767644025837224D+03 0.000000000000000D+00 0.000000000000000D+00 0.767644025837224D+03
 0.341508562561021D+03 0.000000000000000D+00 0.000000000000000D+00 -.341508562561021D+03
 0.218934077740908D+03 0.102004211648233D+03 0.108233485946113D+02 -.175905970260004D+03
 0.126022351803301D+03 -.793721094932479D+02 0.826961046661009D+02 0.523741888880407D+02
 0.160177624872364D+03 -.149840533443380D+03 0.156479618427893D+02 0.544042952102268D+02
 0.126278713372810D+03 0.430630527538803D+01 0.684247315563305D+02 0.691274861617366D+02
 0.477739820608863D+03 0.122902126013007D+03 -.177592146659832D+03 0.426135463276203D+03
0.140216948485D-04 0.000000000000D+00 0.000000000000D+00 0.666589365817D-06 0.000000000000D+00  7 1 -1 24 -13 13 -24 21 0 0.28589110D+00 0.72862225D-02 0.55351932D+05 0.55351932D+05 0.55351932D+05 0.11434310D+01  1  2  2  2  7  2       -1 0.634577182029D-03 0.100000000000D+01
-.728063226731D-06 0.000000000000D+00 -.538470002151D-07 0.666589365817D-06 0.000000000000D+00  7 1 -1 24 -13 13 -24 21 2 0.28589110D+00 0.72862225D-02 0.55351932D+05 0.55351932D+05 0.55351932D+05 0.11434310D+01  1  2  3  2  7  2       -1 -.430797284260D-04 0.100000000000D+01
0.888004776164D-06 0.000000000000D+00 0.000000000000D+00 0.666589365817D-06 0.000000000000D+00  7 1 -1 24 -13 13 -24 21 2 0.28589110D+00 0.72862225D-02 0.55351932D+05 0.55351932D+05 0.55351932D+05 0.11434310D+01  1  2 15  2  7  2       -1 0.525435198395D-04 0.100000000000D+01
  </mgrwgt>
  </event>
  <event>
  8     66 0.27727860E-05 0.54078280E+03 0.75467711E-02 0.86189570E-01
        1 -1    0    0  501    0 0.00000000E+00 0.00000000E+00 0.25782015E+04 0.25782016E+04 0.32000000E+00 0.0000E+00 0.9000E+01
       -1 -1    0    0    0  501 0.00000000E+00 0.00000000E+00 -.16401825E+03 0.16401856E+03 0.32000000E+00 0.0000E+00 0.9000E+01
       25  2    1    2    0    0 0.50462520E+03 0.14603284E+03 0.61456981E+03 0.86536884E+03 0.30853686E+03 0.0000E+00 0.0000E+00
       23  2    1    2    0    0 -.50462520E+03 -.14603284E+03 0.17996135E+04 0.18768513E+04 0.89386185E+02 0.0000E+00 0.0000E+00
       24  1    3    3    0    0 0.26997162E+03 0.54064849E+02 0.13355718E+03 0.31640546E+03 0.80419002E+02 0.0000E+00 0.9000E+01
      -13  1    4    4    0    0 -.18408494E+02 -.21425884E+02 0.60775629E+02 0.67019619E+02 0.10565837E+00 0.0000E+00 0.9000E+01
       13  1    4    4    0    0 -.48621670E+03 -.12460696E+03 0.17388379E+04 0.18098317E+04 0.10565837E+00 0.0000E+00 0.9000E+01
      -24  1    3    3    0    0 0.23465358E+03 0.91967991E+02 0.48101264E+03 0.54896337E+03 0.80419002E+02 0.0000E+00 0.9000E+01
#aMCatNLO 1  0  0  2  1 0.90919053D+03 0.00000000D+00  -5  7  0 0.00000000D+00 0.00000000D+00 0.00000000D+00 0.00000000D+00 0.00000000D+00
  <mgrwgt>
 0.7897375694D-03    3    2    0
 0.650286520392252D+03 0.000000000000000D+00 0.000000000000000D+00 0.650286520392252D+03
 0.650286520392252D+03 0.000000000000000D+00 0.000000000000000D+00 -.650286520392252D+03
 0.419216693302922D+03 0.269971618312703D+03 0.540648490817235D+02 -.305724937466436D+03
 0.284936116556456D+02 -.184078398761231D+02 -.214257393699049D+02 0.373831897123040D+01
 0.588267263142867D+03 -.486217355834713D+03 -.124607100520297D+03 0.306796555180504D+03
 0.264595472683070D+03 0.234653577398133D+03 0.919679908084787D+02 -.480993668529911D+01
 0.000000000000000D+00 -.000000000000000D+00 -.000000000000000D+00 0.000000000000000D+00
 0.148804543170325D+04 0.000000000000000D+00 0.000000000000000D+00 0.148804543170325D+04
 0.109094104461359D+04 0.000000000000000D+00 0.000000000000000D+00 -.109094104461359D+04
 0.701478846285718D+03 0.622619350694765D+03 0.669534359353194D+02 -.305724937466436D+03
 0.213588609422860D+02 -.272083051963678D+01 -.208524097721260D+02 0.373831897123040D+01
 0.374903512196370D+03 -.183137725532330D+03 -.113530131125593D+03 0.306796555180504D+03
 0.489116575364077D+03 0.471823116513483D+03 0.100636074914018D+03 -.480993668529911D+01
 0.992128681528393D+03 -.908583911156280D+03 -.332069699516187D+02 0.397104387089663D+03
0.393108690535D-03 0.000000000000D+00 0.000000000000D+00 0.259412531073D-07 0.000000000000D+00  7 1 -1 24 -13 13 -24 21 0 0.39664642D+00 0.25233602D-01 0.29244604D+06 0.29244604D+06 0.29244604D+06 0.10853722D+01  1  2  2  2  7  2       -1 0.782489741418D-03 0.100000000000D+01
-.209365093178D-04 0.000000000000D+00 -.150964087955D-05 0.259412531073D-07 0.000000000000D+00  7 1 -1 24 -13 13 -24 21 2 0.39664642D+00 0.25233602D-01 0.29244604D+06 0.29244604D+06 0.29244604D+06 0.10853722D+01  1  2  3  2  7  2       -1 -.490939183677D-04 0.100000000000D+01
0.240274057515D-04 0.000000000000D+00 0.000000000000D+00 0.259412531073D-07 0.000000000000D+00  7 1 -1 24 -13 13 -24 21 2 0.39664642D+00 0.25233602D-01 0.29244604D+06 0.29244604D+06 0.29244604D+06 0.10853722D+01  1  2 15  2  7  2       -1 0.563417463076D-04 0.100000000000D+01
  </mgrwgt>
  </event>
  <event>
  8     66 0.27727860E-05 0.19285091E+03 0.75467711E-02 0.10229945E+00
        1 -1    0    0  501    0 0.00000000E+00 0.00000000E+00 0.44261772E+03 0.44261784E+03 0.32000000E+00 0.0000E+00 0.9000E+01
       -1 -1    0    0    0  501 0.00000000E+00 0.00000000E+00 -.16240351E+03 0.16240383E+03 0.32000000E+00 0.0000E+00 0.9000E+01
       25  2    1    2    0    0 0.16734381E+03 0.19503654E+01 0.20998998E+03 0.40225185E+03 0.29950461E+03 0.0000E+00 0.0000E+00
       23  2    1    2    0    0 -.16734381E+03 -.19503654E+01 0.70224230E+02 0.20276981E+03 0.90423440E+02 0.0000E+00 0.0000E+00
       24  1    3    3    0    0 0.13976551E+03 -.10713989E+03 0.17163591E+03 0.25872660E+03 0.80419002E+02 0.0000E+00 0.9000E+01
      -13  1    4    4    0    0 0.42037020E+01 -.59861103E+01 0.23953660E+02 0.25045830E+02 0.10565837E+00 0.0000E+00 0.9000E+01
       13  1    4    4    0    0 -.17154751E+03 0.40357449E+01 0.46270570E+02 0.17772398E+03 0.10565837E+00 0.0000E+00 0.9000E+01
      -24  1    3    3    0    0 0.27578297E+02 0.10909026E+03 0.38354075E+02 0.14352525E+03 0.80419002E+02 0.0000E+00 0.9000E+01
#aMCatNLO 1  0  0  1  2 0.24355823D+02 0.00000000D+00  -5  7  0 0.00000000D+00 0.00000000D+00 0.00000000D+00 0.00000000D+00 0.00000000D+00
  <mgrwgt>
 0.6677528376D-03    9    2    0
 0.268109682503546D+03 0.000000000000000D+00 0.000000000000000D+00 0.268109682503546D+03
 0.268109682503546D+03 0.000000000000000D+00 0.000000000000000D+00 -.268109682503546D+03
 0.202231374755535D+03 0.139765511109536D+03 -.107139893516157D+03 0.584547526107139D+02
 0.157416837607893D+02 0.420394073146161D+01 -.598612366116102D+01 0.139389315754237D+02
 0.176348167549443D+03 -.171547749804030D+03 0.403575823526324D+01 -.406664283000940D+02
 0.141898138941325D+03 0.275782979630324D+02 0.109090258942055D+03 -.317272558860436D+02
 0.000000000000000D+00 0.000000000000000D+00 -.000000000000000D+00 0.000000000000000D+00
 0.300378590690335D+03 0.000000000000000D+00 0.000000000000000D+00 0.300378590690335D+03
 0.273021620608559D+03 0.000000000000000D+00 0.000000000000000D+00 -.273021620608559D+03
 0.194606758915190D+03 0.131654537558566D+03 -.103221602867639D+03 0.584547526107139D+02
 0.154677042632191D+02 0.356605213324861D+01 -.567796916978362D+01 0.139389315754237D+02
 0.183625866369228D+03 -.178905258118926D+03 0.759006103818735D+01 -.406664283000940D+02
 0.143071887992839D+03 0.217537963459575D+02 0.111903989017126D+03 -.317272558860436D+02
 0.366279937584177D+02 0.219308720811538D+02 -.105944780178907D+02 0.273569700817761D+02
0.520800692654D-05 0.000000000000D+00 0.000000000000D+00 0.518096895146D-06 0.000000000000D+00  7 1 -1 24 -13 13 -24 21 0 0.68095067D-01 0.24985189D-01 0.65232922D+05 0.65232922D+05 0.65232922D+05 0.11372728D+01  1  2  2  1  7  1        1 0.440521953558D-03 0.100000000000D+01
-.288504983911D-06 0.000000000000D+00 -.200001178976D-07 0.518096895146D-06 0.000000000000D+00  7 1 -1 24 -13 13 -24 21 2 0.68095067D-01 0.24985189D-01 0.65232922D+05 0.65232922D+05 0.65232922D+05 0.11372728D+01  1  2  3  1  7  1        1 -.315630263947D-04 0.100000000000D+01
0.331783025649D-06 0.000000000000D+00 0.000000000000D+00 0.518096895146D-06 0.000000000000D+00  7 1 -1 24 -13 13 -24 21 2 0.68095067D-01 0.24985189D-01 0.65232922D+05 0.65232922D+05 0.65232922D+05 0.11372728D+01  1  2 15  1  7  1        1 0.362977313386D-04 0.100000000000D+01
0.225197893563D-04 0.000000000000D+00 0.000000000000D+00 0.518096895146D-06 0.000000000000D+00  7 1 -1 24 -13 13 -24 21 2 0.76866125D-01 0.24985189D-01 0.71624943D+05 0.71624943D+05 0.71624943D+05 0.11338134D+01  1  2 12  1  7  1        1 0.207617281402D-02 0.100000000000D+01
-.229041406755D-04 0.000000000000D+00 0.000000000000D+00 0.518096895146D-06 0.000000000000D+00  7 1 -1 24 -13 13 -24 21 2 0.68095067D-01 0.24985189D-01 0.65232922D+05 0.65232922D+05 0.65232922D+05 0.11372728D+01  1  2  4  1  7  1        1 -.250575912723D-02 0.100000000000D+01
-.406853854401D-04 0.000000000000D+00 -.582378913316D-05 0.518096895146D-06 0.000000000000D+00  7 1 -1 24 -13 13 -24 21 2 0.77210003D-01 0.24985189D-01 0.65232922D+05 0.65232922D+05 0.65232922D+05 0.11372728D+01  1  2  5  1  7  1        1 -.375226309591D-02 0.100000000000D+01
0.411376154759D-04 0.000000000000D+00 0.577813545986D-05 0.518096895146D-06 0.000000000000D+00  7 1 -1 24 -13 13 -24 21 2 0.68095067D-01 0.24985189D-01 0.65232922D+05 0.65232922D+05 0.65232922D+05 0.11372728D+01  1  2  6  1  7  1        1 0.450053799930D-02 0.100000000000D+01
0.430754273525D-06 0.000000000000D+00 0.000000000000D+00 0.518096895146D-06 0.000000000000D+00  7 21 -1 24 -13 13 -24 -1 2 0.76866125D-01 0.24985189D-01 0.71624943D+05 0.71624943D+05 0.71624943D+05 0.11338134D+01  1  2 12  3  7  1        1 0.121282006825D-03 0.100000000000D+01
-.772853665600D-06 0.000000000000D+00 -.114821620732D-06 0.518096895146D-06 0.000000000000D+00  7 21 -1 24 -13 13 -24 -1 2 0.77210003D-01 0.24985189D-01 0.65232922D+05 0.65232922D+05 0.65232922D+05 0.11372728D+01  1  2  5  3  7  1        1 -.217474417878D-03 0.100000000000D+01
  </mgrwgt>
  </event>
  <event>
  8     66 0.27727860E-05 0.19388251E+03 0.75467711E-02 0.97250788E-01
        1 -1    0    0  501    0 0.00000000E+00 0.00000000E+00 0.80088498E+02 0.80089138E+02 0.32000000E+00 0.0000E+00 0.9000E+01
       -1 -1    0    0    0  501 0.00000000E+00 0.00000000E+00 -.11026449E+04 0.11026449E+04 0.32000000E+00 0.0000E+00 0.9000E+01
       25  2    1    2    0    0 0.10537238E+02 -.91874439E+02 -.25112181E+03 0.40198499E+03 0.29996303E+03 0.0000E+00 0.0000E+00
       23  2    1    2    0    0 -.10537238E+02 0.91874439E+02 -.77143458E+03 0.78074909E+03 0.76849746E+02 0.0000E+00 0.0000E+00
       24  1    3    3    0    0 0.25946161E+02 -.15129337E+03 -.55863871E+02 0.18207381E+03 0.80419002E+02 0.0000E+00 0.9000E+01
      -13  1    4    4    0    0 0.19661352E+02 0.77319756E+02 -.64616471E+03 0.65107124E+03 0.10565837E+00 0.0000E+00 0.9000E+01
       13  1    4    4    0    0 -.30198590E+02 0.14554684E+02 -.12526987E+03 0.12967785E+03 0.10565837E+00 0.0000E+00 0.9000E+01
      -24  1    3    3    0    0 -.15408923E+02 0.59418926E+02 -.19525794E+03 0.21991117E+03 0.80419002E+02 0.0000E+00 0.9000E+01
#aMCatNLO 1  0  0  2  2 0.31019513D+03 0.00000000D+00  -5  7  0 0.00000000D+00 0.00000000D+00 0.00000000D+00 0.00000000D+00 0.00000000D+00
  <mgrwgt>
 0.1565512409D-02    5    2    0
 0.297169277006297D+03 0.000000000000000D+00 0.000000000000000D+00 0.297169277006297D+03
 0.297169277006297D+03 0.000000000000000D+00 0.000000000000000D+00 -.297169277006297D+03
 0.266213500809296D+03 0.259461616015984D+02 -.151293366245783D+03 0.202087916726690D+03
 0.183909392592411D+03 0.196614409964711D+02 0.773198747248408D+02 -.165703739831624D+03
 0.425325721578030D+02 -.301986795688476D+02 0.145545655553787D+02 -.261767849085973D+02
 0.101683088453084D+03 -.154089230292219D+02 0.594189259655640D+02 -.102073919864684D+02
 0.000000000000000D+00 0.000000000000000D+00 0.000000000000000D+00 -.000000000000000D+00
 0.474838780442645D+03 0.000000000000000D+00 0.000000000000000D+00 0.474838780442645D+03
 0.507487029983216D+03 0.000000000000000D+00 0.000000000000000D+00 -.507487029983216D+03
 0.307428071388895D+03 -.110051142537232D+03 -.187333988007625D+03 0.202087916726690D+03
 0.187194117549542D+03 -.683187183604694D+02 0.540042680956602D+02 -.165703739831624D+03
 0.612663497230190D+02 -.548070312512666D+02 0.803311058401351D+01 -.261767849085973D+02
 0.114528746742831D+03 -.666678068595492D+02 0.458348181351830D+02 -.102073919864684D+02
 0.311908525021575D+03 0.299844699008517D+03 0.794617911927680D+02 -.326482495405712D+02
0.932759998380D-04 0.000000000000D+00 0.000000000000D+00 0.185641810698D-07 0.000000000000D+00  7 1 -1 24 -13 13 -24 21 0 0.12321360D-01 0.16963773D+00 0.37590428D+05 0.37590428D+05 0.37590428D+05 0.11583550D+01  1  2  2  2  7  2       -1 0.151440617848D-02 0.100000000000D+01
-.403295908284D-05 0.000000000000D+00 -.358204399513D-06 0.185641810698D-07 0.000000000000D+00  7 1 -1 24 -13 13 -24 21 2 0.12321360D-01 0.16963773D+00 0.37590428D+05 0.37590428D+05 0.37590428D+05 0.11583550D+01  1  2  3  2  7  2       -1 -.878576667346D-04 0.100000000000D+01
0.563384348809D-05 0.000000000000D+00 0.000000000000D+00 0.185641810698D-07 0.000000000000D+00  7 1 -1 24 -13 13 -24 21 2 0.12321360D-01 0.16963773D+00 0.37590428D+05 0.37590428D+05 0.37590428D+05 0.11583550D+01  1  2 15  2  7  2       -1 0.122732795807D-03 0.100000000000D+01
0.692663686139D-05 0.000000000000D+00 -.245245539967D-04 0.185641810698D-07 0.000000000000D+00  7 1 -1 24 -13 13 -24 21 2 0.12321360D-01 0.37198546D+00 0.37590428D+05 0.37590428D+05 0.37590428D+05 0.11583550D+01  1  2  5  2  7  2       -1 0.285406857548D-05 0.100000000000D+01
0.213291174714D-05 0.000000000000D+00 -.208672460200D-05 0.185641810698D-07 0.000000000000D+00  7 1 21 24 -13 13 -24 1 2 0.12321360D-01 0.37198546D+00 0.37590428D+05 0.37590428D+05 0.37590428D+05 0.11583550D+01  1  2  5  4  7  2       -1 0.133770331196D-04 0.100000000000D+01
  </mgrwgt>
  </event>
  <event>
  8     66 0.27727860E-05 0.10764043E+03 0.75467711E-02 0.10120915E+00
        1 -1    0    0  501    0 0.00000000E+00 0.00000000E+00 0.28764961E+03 0.28764979E+03 0.32000000E+00 0.0000E+00 0.9000E+01
       -1 -1    0    0    0  501 0.00000000E+00 0.00000000E+00 -.30179405E+03 0.30179422E+03 0.32000000E+00 0.0000E+00 0.9000E+01
       25  2    1    2    0    0 -.11294928E+01 0.19709190E+03 0.46022229E+02 0.36367861E+03 0.30215492E+03 0.0000E+00 0.0000E+00
       23  2    1    2    0    0 0.11294928E+01 -.19709190E+03 -.60166671E+02 0.22576540E+03 0.92214396E+02 0.0000E+00 0.0000E+00
       24  1    3    3    0    0 0.10110424E+02 0.52912329E+02 -.10274865E+03 0.14116103E+03 0.80419002E+02 0.0000E+00 0.9000E+01
      -13  1    4    4    0    0 -.37846404E+01 -.88723528E+02 -.75049275E+02 0.11626948E+03 0.10565837E+00 0.0000E+00 0.9000E+01
       13  1    4    4    0    0 0.49141332E+01 -.10836838E+03 0.14882604E+02 0.10949592E+03 0.10565837E+00 0.0000E+00 0.9000E+01
      -24  1    3    3    0    0 -.11239916E+02 0.14417957E+03 0.14877088E+03 0.22251758E+03 0.80419002E+02 0.0000E+00 0.9000E+01
#aMCatNLO 1  0  0  1  2 0.10507099D+03 0.00000000D+00  -5  7  0 0.00000000D+00 0.00000000D+00 0.00000000D+00 0.00000000D+00 0.00000000D+00
  <mgrwgt>
 0.6594563643D-03    9    2    0
 0.294637142213751D+03 0.000000000000000D+00 0.000000000000000D+00 0.294637142213751D+03
 0.294637142213751D+03 0.000000000000000D+00 0.000000000000000D+00 -.294637142213751D+03
 0.138735396002408D+03 0.101104235504057D+02 0.529123298169318D+02 -.993899332857711D+02
 0.114501559035166D+03 -.378465151202327D+01 -.887235043707197D+02 -.722801716004819D+02
 0.109884681224373D+03 0.491414432906016D+01 -.108368400826031D+03 0.175152520879354D+02
 0.226152648165556D+03 -.112399163674425D+02 0.144179575379819D+03 0.154154852798318D+03
 0.000000000000000D+00 -.000000000000000D+00 -.000000000000000D+00 0.000000000000000D+00
 0.357988409298042D+03 0.000000000000000D+00 0.000000000000000D+00 0.357988409298042D+03
 0.346299168283133D+03 0.000000000000000D+00 0.000000000000000D+00 -.346299168283133D+03
 0.150012048334000D+03 0.227639673508331D+02 0.750988791054298D+02 -.993899332857711D+02
 0.102231112192703D+03 0.571304760932511D+01 -.720703696436718D+02 -.722801716004819D+02
 0.952671038069746D+02 0.139043437179963D+02 -.926051091346302D+02 0.175152520879354D+02
 0.251058106531861D+03 0.967250140469088D+01 0.180847120453431D+03 0.154154852798318D+03
 0.105719206715637D+03 -.520538600828454D+02 -.912705207805591D+02 0.116892410149099D+02
0.960382271102D-05 0.000000000000D+00 0.000000000000D+00 0.887401164917D-07 0.000000000000D+00  7 1 -1 24 -13 13 -24 21 0 0.44253813D-01 0.46429881D-01 0.52796847D+05 0.52796847D+05 0.52796847D+05 0.11452220D+01  1  2  2  1  7  1        1 0.504790076992D-03 0.100000000000D+01
-.493440634758D-06 0.000000000000D+00 -.368812079549D-07 0.887401164917D-07 0.000000000000D+00  7 1 -1 24 -13 13 -24 21 2 0.44253813D-01 0.46429881D-01 0.52796847D+05 0.52796847D+05 0.52796847D+05 0.11452220D+01  1  2  3  1  7  1        1 -.340158197854D-04 0.100000000000D+01
0.606428681809D-06 0.000000000000D+00 0.000000000000D+00 0.887401164917D-07 0.000000000000D+00  7 1 -1 24 -13 13 -24 21 2 0.44253813D-01 0.46429881D-01 0.52796847D+05 0.52796847D+05 0.52796847D+05 0.11452220D+01  1  2 15  1  7  1        1 0.418047629239D-04 0.100000000000D+01
0.417832685727D-05 0.000000000000D+00 0.000000000000D+00 0.887401164917D-07 0.000000000000D+00  7 1 -1 24 -13 13 -24 21 2 0.56923436D-01 0.46429881D-01 0.84544399D+05 0.84544399D+05 0.84544399D+05 0.11277551D+01  1  2 12  1  7  1        1 0.199874700274D-03 0.100000000000D+01
-.517037131059D-05 0.000000000000D+00 0.000000000000D+00 0.887401164917D-07 0.000000000000D+00  7 1 -1 24 -13 13 -24 21 2 0.44253813D-01 0.46429881D-01 0.52796847D+05 0.52796847D+05 0.52796847D+05 0.11452220D+01  1  2  4  1  7  1        1 -.356424676720D-03 0.100000000000D+01
-.957945178328D-05 0.000000000000D+00 -.475231756461D-05 0.887401164917D-07 0.000000000000D+00  7 1 -1 24 -13 13 -24 21 2 0.62081107D-01 0.46429881D-01 0.52796847D+05 0.52796847D+05 0.52796847D+05 0.11452220D+01  1  2  5  1  7  1        1 -.423778289389D-03 0.100000000000D+01
0.108220095565D-04 0.000000000000D+00 0.449247156481D-05 0.887401164917D-07 0.000000000000D+00  7 1 -1 24 -13 13 -24 21 2 0.44253813D-01 0.46429881D-01 0.52796847D+05 0.52796847D+05 0.52796847D+05 0.11452220D+01  1  2  6  1  7  1        1 0.746025967175D-03 0.100000000000D+01
0.142143755243D-06 0.000000000000D+00 0.000000000000D+00 0.887401164917D-07 0.000000000000D+00  7 21 -1 24 -13 13 -24 -1 2 0.56923436D-01 0.46429881D-01 0.84544399D+05 0.84544399D+05 0.84544399D+05 0.11277551D+01  1  2 12  3  7  1        1 0.272964186019D-04 0.100000000000D+01
-.276007862782D-06 0.000000000000D+00 -.200408072266D-06 0.887401164917D-07 0.000000000000D+00  7 21 -1 24 -13 13 -24 -1 2 0.62081107D-01 0.46429881D-01 0.52796847D+05 0.52796847D+05 0.52796847D+05 0.11452220D+01  1  2  5  3  7  1        1 -.461167758129D-04 0.100000000000D+01
  </mgrwgt>
  </event>
  <event>
  8     66 0.27727860E-05 0.20027646E+03 0.75467711E-02 0.97620633E-01
        1 -1    0    0  501    0 0.00000000E+00 0.00000000E+00 0.27485701E+03 0.27485720E+03 0.32000000E+00 0.0000E+00 0.9000E+01
       -1 -1    0    0    0  501 0.00000000E+00 0.00000000E+00 -.47140156E+03 0.47140167E+03 0.32000000E+00 0.0000E+00 0.9000E+01
       25  2    1    2    0    0 0.10555894E+03 0.26914868E+03 -.98520182E+02 0.42751809E+03 0.29913506E+03 0.0000E+00 0.0000E+00
       23  2    1    2    0    0 -.10555894E+03 -.26914868E+03 -.98024365E+02 0.31874078E+03 0.91669013E+02 0.0000E+00 0.0000E+00
       24  1    3    3    0    0 0.48452229E+02 -.15447806E+02 0.30394428E+02 0.99886387E+02 0.80419002E+02 0.0000E+00 0.9000E+01
      -11  1    4    4    0    0 -.11766677E+03 -.23668906E+03 -.68084224E+02 0.27295172E+03 0.51099893E-03 0.0000E+00 0.9000E+01
       11  1    4    4    0    0 0.12107826E+02 -.32459626E+02 -.29940141E+02 0.45789068E+02 0.51099893E-03 0.0000E+00 0.9000E+01
      -24  1    3    3    0    0 0.57106712E+02 0.28459649E+03 -.12891461E+03 0.32763170E+03 0.80419002E+02 0.0000E+00 0.9000E+01
#aMCatNLO 1  0  0  1  2 0.74306034D+02 0.00000000D+00  -5  7  0 0.00000000D+00 0.00000000D+00 0.00000000D+00 0.00000000D+00 0.00000000D+00
  <mgrwgt>
 0.7976802755D-03    9    2    0
 0.359955742043936D+03 0.000000000000000D+00 0.000000000000000D+00 0.359955742043936D+03
 0.359955742043936D+03 0.000000000000000D+00 0.000000000000000D+00 -.359955742043936D+03
 0.111840085513871D+03 0.484522285166374D+02 -.154478061979296D+02 0.587769989776793D+02
 0.264353411414893D+03 -.117666765844645D+03 -.236689057527240D+03 0.394314458520585D+01
 0.392908400124752D+02 0.121078257038638D+02 -.324596256037203D+02 -.185349230178354D+02
 0.304427147146632D+03 0.571067116241439D+02 0.284596489328890D+03 -.441852205450498D+02
 0.000000000000000D+00 -.000000000000000D+00 -.000000000000000D+00 0.000000000000000D+00
 0.407853455198997D+03 0.000000000000000D+00 0.000000000000000D+00 0.407853455198997D+03
 0.391885103813054D+03 0.000000000000000D+00 0.000000000000000D+00 -.391885103813054D+03
 0.115786441507499D+03 0.583195996195538D+02 -.913086929003994D+01 0.587769989776793D+02
 0.242357494204333D+03 -.957013797665525D+02 -.222627160334406D+03 0.394314458520585D+01
 0.387457077670104D+02 0.154906281680879D+02 -.302940082862525D+02 -.185349230178354D+02
 0.326846449023885D+03 0.844717596367699D+02 0.302115165780213D+03 -.441852205450498D+02
 0.760024665093240D+02 -.625806076578590D+02 -.400631278695146D+02 0.159683513859431D+02
0.204400878931D-04 0.000000000000D+00 0.000000000000D+00 0.635279139423D-06 0.000000000000D+00  7 1 -1 24 -11 11 -24 21 0 0.42285717D-01 0.72523340D-01 0.12086800D+06 0.12086800D+06 0.12086800D+06 0.11150294D+01  1  2  2  1  7  1        1 0.494278147763D-03 0.100000000000D+01
-.113389281086D-05 0.000000000000D+00 -.784953195081D-07 0.635279139423D-06 0.000000000000D+00  7 1 -1 24 -11 11 -24 21 2 0.42285717D-01 0.72523340D-01 0.12086800D+06 0.12086800D+06 0.12086800D+06 0.11150294D+01  1  2  3  1  7  1        1 -.340904927781D-04 0.100000000000D+01
0.132644465416D-05 0.000000000000D+00 0.000000000000D+00 0.635279139423D-06 0.000000000000D+00  7 1 -1 24 -11 11 -24 21 2 0.42285717D-01 0.72523340D-01 0.12086800D+06 0.12086800D+06 0.12086800D+06 0.11150294D+01  1  2 15  1  7  1        1 0.398795648674D-04 0.100000000000D+01
0.220765318603D-04 0.000000000000D+00 0.000000000000D+00 0.635279139423D-06 0.000000000000D+00  7 1 -1 24 -11 11 -24 21 2 0.49579651D-01 0.72523340D-01 0.14986996D+06 0.14986996D+06 0.14986996D+06 0.11075816D+01  1  2 12  1  7  1        1 0.528853566849D-03 0.100000000000D+01
-.201160525074D-04 0.000000000000D+00 0.000000000000D+00 0.635279139423D-06 0.000000000000D+00  7 1 -1 24 -11 11 -24 21 2 0.42285717D-01 0.72523340D-01 0.12086800D+06 0.12086800D+06 0.12086800D+06 0.11150294D+01  1  2  4  1  7  1        1 -.604789214785D-03 0.100000000000D+01
-.564548058961D-04 0.000000000000D+00 -.154239549323D-04 0.635279139423D-06 0.000000000000D+00  7 1 -1 24 -11 11 -24 21 2 0.51693518D-01 0.72523340D-01 0.12086800D+06 0.12086800D+06 0.12086800D+06 0.11150294D+01  1  2  5  1  7  1        1 -.130305219950D-02 0.100000000000D+01
0.586714770101D-04 0.000000000000D+00 0.151178941128D-04 0.635279139423D-06 0.000000000000D+00  7 1 -1 24 -11 11 -24 21 2 0.42285717D-01 0.72523340D-01 0.12086800D+06 0.12086800D+06 0.12086800D+06 0.11150294D+01  1  2  6  1  7  1        1 0.176395823674D-02 0.100000000000D+01
0.528126845933D-06 0.000000000000D+00 0.000000000000D+00 0.635279139423D-06 0.000000000000D+00  7 21 -1 24 -11 11 -24 -1 2 0.49579651D-01 0.72523340D-01 0.14986996D+06 0.14986996D+06 0.14986996D+06 0.11075816D+01  1  2 12  3  7  1        1 0.560648444594D-04 0.100000000000D+01
-.144204045947D-05 0.000000000000D+00 -.442877764868D-06 0.635279139423D-06 0.000000000000D+00  7 21 -1 24 -11 11 -24 -1 2 0.51693518D-01 0.72523340D-01 0.12086800D+06 0.12086800D+06 0.12086800D+06 0.11150294D+01  1  2  5  3  7  1        1 -.143422178078D-03 0.100000000000D+01
  </mgrwgt>
  </event>
  <event>
  7     66 0.27727860E-05 0.53686536E+03 0.75467711E-02 0.83389315E-01
        1 -1    0    0  501    0 0.00000000E+00 0.00000000E+00 0.87454672E+03 0.87454678E+03 0.32000000E+00 0.0000E+00 0.9000E+01
       -1 -1    0    0    0  501 0.00000000E+00 0.00000000E+00 -.91064410E+03 0.91064416E+03 0.32000000E+00 0.0000E+00 0.9000E+01
       23  2    1    2    0    0 -.49037728E+02 -.51711703E+03 0.67037604E+03 0.85271925E+03 0.88945856E+02 0.0000E+00 0.0000E+00
       24  1    1    2    0    0 0.62845562E+02 0.23781070E+03 -.53607136E+03 0.59526734E+03 0.80419002E+02 0.0000E+00 0.9000E+01
      -13  1    3    3    0    0 0.17691709E+02 -.10875074E+03 0.10585467E+03 0.15279052E+03 0.10565837E+00 0.0000E+00 0.9000E+01
       13  1    3    3    0    0 -.66729437E+02 -.40836629E+03 0.56452136E+03 0.69992873E+03 0.10565837E+00 0.0000E+00 0.9000E+01
      -24  1    1    2    0    0 -.13807834E+02 0.27930634E+03 -.17040207E+03 0.33720434E+03 0.80419002E+02 0.0000E+00 0.9000E+01
#aMCatNLO 1  0  0  2  2 0.14193626D+04 0.00000000D+00  -5  7  0 0.00000000D+00 0.00000000D+00 0.00000000D+00 0.00000000D+00 0.00000000D+00
  <mgrwgt>
 0.1200944157D-02    3    2    0
 0.892412971703669D+03 0.000000000000000D+00 0.000000000000000D+00 0.892412971703669D+03
 0.892412971703669D+03 0.000000000000000D+00 0.000000000000000D+00 -.892412971703669D+03
 0.584547245244592D+03 0.628455622408585D+02 0.237810696901399D+03 -.524141940426992D+03
 0.154961849807776D+03 0.176918278032054D+02 -.108750318254112D+03 0.108965785476263D+03
 0.711489865767095D+03 -.667295557229834D+02 -.408366715199693D+03 0.578793245813481D+03
 0.333826982587874D+03 -.138078343210805D+02 0.279306336552406D+03 -.163617090862751D+03
 0.000000000000000D+00 -.000000000000000D+00 0.000000000000000D+00 0.000000000000000D+00
 0.373262234817811D+04 0.000000000000000D+00 0.000000000000000D+00 0.373262234817811D+04
 0.133447323975914D+04 0.000000000000000D+00 0.000000000000000D+00 -.133447323975914D+04
 0.558401045854402D+03 0.680439694997682D+02 -.161213388268661D+03 -.524141940426992D+03
 0.284646313352479D+03 0.196912728211868D+02 -.262225542377893D+03 0.108965785476263D+03
 0.123306938027077D+04 -.578852265624197D+02 -.108724779866774D+04 0.578793245813481D+03
 0.204276613901944D+03 -.113604080780713D+02 0.914445610125788D+02 -.163617090862751D+03
 0.278670223455765D+04 -.184896076804640D+02 0.141924216830172D+04 0.239814910841897D+04
0.115893665145D-02 0.000000000000D+00 0.000000000000D+00 0.102111557469D-07 0.000000000000D+00  7 1 -1 24 -13 13 -24 21 0 0.13454566D+00 0.14009910D+00 0.28822442D+06 0.28822442D+06 0.28822442D+06 0.10858408D+01  1  2  2  2  7  2       -1 0.117451023216D-02 0.100000000000D+01
-.441688374550D-04 0.000000000000D+00 -.445062189658D-05 0.102111557469D-07 0.000000000000D+00  7 1 -1 24 -13 13 -24 21 2 0.13454566D+00 0.14009910D+00 0.28822442D+06 0.28822442D+06 0.28822442D+06 0.10858408D+01  1  2  3  2  7  2       -1 -.527770873716D-04 0.100000000000D+01
0.662912357791D-04 0.000000000000D+00 0.000000000000D+00 0.102111557469D-07 0.000000000000D+00  7 1 -1 24 -13 13 -24 21 2 0.13454566D+00 0.14009910D+00 0.28822442D+06 0.28822442D+06 0.28822442D+06 0.10858408D+01  1  2 15  2  7  2       -1 0.792110126569D-04 0.100000000000D+01
  </mgrwgt>
  </event>
  <event>
  9     66 0.27727860E-05 0.21018734E+03 0.75467711E-02 0.10459648E+00
        1 -1    0    0  502    0 0.00000000E+00 0.00000000E+00 0.65652705E+03 0.65652713E+03 0.32000000E+00 0.0000E+00 0.9000E+01
       -1 -1    0    0    0  501 0.00000000E+00 0.00000000E+00 -.12853398E+03 0.12853437E+03 0.32000000E+00 0.0000E+00 0.9000E+01
       25  2    1    2    0    0 -.10563991E+03 0.11677181E+03 0.43265849E+03 0.54993775E+03 0.30073695E+03 0.0000E+00 0.0000E+00
       23  2    1    2    0    0 0.81836985E+02 -.13612394E+03 0.78345262E+02 0.20004835E+03 0.93028724E+02 0.0000E+00 0.0000E+00
       24  1    3    3    0    0 -.12132631E+03 0.10559627E+03 0.43124031E+03 0.46723235E+03 0.80419002E+02 0.0000E+00 0.9000E+01
      -13  1    4    4    0    0 0.54465486E+02 -.87433954E+02 -.99860165E+00 0.10301550E+03 0.10565837E+00 0.0000E+00 0.9000E+01
       13  1    4    4    0    0 0.27371499E+02 -.48689985E+02 0.79343864E+02 0.97032847E+02 0.10565837E+00 0.0000E+00 0.9000E+01
      -24  1    3    3    0    0 0.15686396E+02 0.11175540E+02 0.14181762E+01 0.82705398E+02 0.80419002E+02 0.0000E+00 0.9000E+01
       21  1    1    2  502  501 0.23802929E+02 0.19352133E+02 0.16989326E+02 0.35075407E+02 0.75000000E+00 0.0000E+00 0.9000E+01
#aMCatNLO 2  0  0  1  1 0.30677100D+02 0.00000000D+00  -5  7  0 0.00000000D+00 0.00000000D+00 0.00000000D+00 0.00000000D+00 0.00000000D+00
  <mgrwgt>
 0.5277090075D-03    1    2    0
 0.274049826332385D+03 0.000000000000000D+00 0.000000000000000D+00 0.274049826332385D+03
 0.274049826332385D+03 0.000000000000000D+00 0.000000000000000D+00 -.274049826332385D+03
 0.235738050437129D+03 -.111071280114540D+03 0.113933764350585D+03 0.154231905078522D+03
 0.141169488590097D+03 0.606023043604710D+02 -.824447196911051D+02 -.972576650452056D+02
 0.582694774778530D+02 0.299095341460955D+02 -.466264461522284D+02 0.180755716899605D+02
 0.112922636159692D+03 0.205594416079738D+02 0.151374014927486D+02 -.750498117232774D+02
 0.000000000000000D+00 0.000000000000000D+00 0.000000000000000D+00 -.000000000000000D+00
 0.285807301614106D+03 0.000000000000000D+00 0.000000000000000D+00 0.285807301614106D+03
 0.295246699207826D+03 0.000000000000000D+00 0.000000000000000D+00 -.295246699207826D+03
 0.236907879133496D+03 -.121326313461754D+03 0.105596270572358D+03 0.154231905078522D+03
 0.141669521312245D+03 0.544655256494463D+02 -.874340115431328D+02 -.972576650452056D+02
 0.587080323537196D+02 0.273714645486558D+02 -.486899342717586D+02 0.180755716899605D+02
 0.111672046189646D+03 0.156863943372785D+02 0.111755419916805D+02 -.750498117232774D+02
 0.320965218328264D+02 0.238029289263737D+02 0.193521332508532D+02 -.943939759371975D+01
0.564087785616D-05 0.000000000000D+00 0.000000000000D+00 0.259390030831D-06 0.193530113505D-08  7 1 -1 24 -13 13 -24 21 2 0.10100267D+00 0.19774195D-01 0.51090568D+05 0.51090568D+05 0.51090568D+05 0.11464721D+01  1  2  1  1  7  1        1 0.527709007484D-03 0.100000000000D+01
  </mgrwgt>
  </event>
  <event>
  8     66 0.27727860E-05 0.96112849E+02 0.75467711E-02 0.10996209E+00
        3 -1    0    0  501    0 0.00000000E+00 0.00000000E+00 0.67718566E+02 0.67720412E+02 0.50000000E+00 0.0000E+00 0.9000E+01
       -3 -1    0    0    0  501 0.00000000E+00 0.00000000E+00 -.58872406E+03 0.58872427E+03 0.50000000E+00 0.0000E+00 0.9000E+01
       25  2    1    2    0    0 -.26864945E+02 -.30107464E+01 -.39594789E+03 0.49761607E+03 0.30019365E+03 0.0000E+00 0.0000E+00
       23  2    1    2    0    0 0.26864945E+02 0.30107464E+01 -.12505760E+03 0.15882861E+03 0.94108107E+02 0.0000E+00 0.0000E+00
       24  1    3    3    0    0 -.77026346E+02 0.70351231E+02 -.34140608E+03 0.36593398E+03 0.80419002E+02 0.0000E+00 0.9000E+01
      -11  1    4    4    0    0 0.22605158E+02 -.26132343E+00 0.92411156E+01 0.24422524E+02 0.51099893E-03 0.0000E+00 0.9000E+01
       11  1    4    4    0    0 0.42597862E+01 0.32720698E+01 -.13429872E+03 0.13440609E+03 0.51099893E-03 0.0000E+00 0.9000E+01
      -24  1    3    3    0    0 0.50161402E+02 -.73361977E+02 -.54541814E+02 0.13168208E+03 0.80419002E+02 0.0000E+00 0.9000E+01
#aMCatNLO 1  0  0  2  1 0.29217261D+02 0.00000000D+00  -5  7  0 0.00000000D+00 0.00000000D+00 0.00000000D+00 0.00000000D+00 0.00000000D+00
  <mgrwgt>
 0.2742392138D-03    9    2    0
 0.199670289583729D+03 0.000000000000000D+00 0.000000000000000D+00 0.199670289583729D+03
 0.199670289583729D+03 0.000000000000000D+00 0.000000000000000D+00 -.199670289583729D+03
 0.156109886040408D+03 -.770265407259221D+02 0.703512091284192D+02 -.837896172753274D+02
 0.522028577314760D+02 0.226053456884984D+02 -.261298161144058D+00 0.470538885205802D+02
 0.457248055635194D+02 0.425997402890390D+01 0.327208661623800D+01 -.454081921493309D+02
 0.145303029832054D+03 0.501612210085198D+02 -.733619975835131D+02 0.821439209040780D+02
 0.000000000000000D+00 -.000000000000000D+00 -.000000000000000D+00 -.000000000000000D+00
 0.205300488090684D+03 0.000000000000000D+00 0.000000000000000D+00 0.205300488090684D+03
 0.242078228113778D+03 0.000000000000000D+00 0.000000000000000D+00 -.242078228113778D+03
 0.158861090625615D+03 -.722363547282867D+02 0.808136080917849D+02 -.837896172753274D+02
 0.530135067822634D+02 0.242055120319207D+02 0.323367650182275D+01 0.470538885205802D+02
 0.461944391526194D+02 0.565791324099629D+01 0.632537051182442D+01 -.454081921493309D+02
 0.142338938544883D+03 0.545357781306908D+02 -.638073869853488D+02 0.821439209040780D+02
 0.469707410990813D+02 -.121628486753210D+02 -.265652681200833D+02 -.367777400230935D+02
0.756190050266D-05 0.000000000000D+00 0.000000000000D+00 0.756467075346D-07 0.000000000000D+00  7 3 -3 24 -11 11 -24 21 0 0.10418399D-01 0.90573090D-01 0.19537307D+05 0.19537307D+05 0.19537307D+05 0.11850219D+01  1  2  2  2  7  2       -3 0.215119078731D-03 0.100000000000D+01
-.355142268682D-06 0.000000000000D+00 -.290396890243D-07 0.756467075346D-07 0.000000000000D+00  7 3 -3 24 -11 11 -24 21 2 0.10418399D-01 0.90573090D-01 0.19537307D+05 0.19537307D+05 0.19537307D+05 0.11850219D+01  1  2  3  2  7  2       -3 -.141874098875D-04 0.100000000000D+01
0.467212507019D-06 0.000000000000D+00 0.000000000000D+00 0.756467075346D-07 0.000000000000D+00  7 3 -3 24 -11 11 -24 21 2 0.10418399D-01 0.90573090D-01 0.19537307D+05 0.19537307D+05 0.19537307D+05 0.11850219D+01  1  2 15  2  7  2       -3 0.186644506335D-04 0.100000000000D+01
0.199607476097D-04 0.000000000000D+00 0.000000000000D+00 0.756467075346D-07 0.000000000000D+00  7 3 -3 24 -11 11 -24 21 2 0.10418399D-01 0.11090110D+00 0.24544857D+05 0.24544857D+05 0.24544857D+05 0.11755102D+01  1  2 12  2  7  2       -3 0.472949481358D-03 0.100000000000D+01
-.205363991238D-04 0.000000000000D+00 0.000000000000D+00 0.756467075346D-07 0.000000000000D+00  7 3 -3 24 -11 11 -24 21 2 0.10418399D-01 0.90573090D-01 0.19537307D+05 0.19537307D+05 0.19537307D+05 0.11850219D+01  1  2  4  2  7  2       -3 -.820398858929D-03 0.100000000000D+01
-.276267930293D-04 0.000000000000D+00 -.485650722521D-05 0.756467075346D-07 0.000000000000D+00  7 3 -3 24 -11 11 -24 21 2 0.10418399D-01 0.11156664D+00 0.19537307D+05 0.19537307D+05 0.19537307D+05 0.11850219D+01  1  2  5  2  7  2       -3 -.651096738579D-03 0.100000000000D+01
0.281294174112D-04 0.000000000000D+00 0.475285871946D-05 0.756467075346D-07 0.000000000000D+00  7 3 -3 24 -11 11 -24 21 2 0.10418399D-01 0.90573090D-01 0.19537307D+05 0.19537307D+05 0.19537307D+05 0.11850219D+01  1  2  6  2  7  2       -3 0.112372874170D-02 0.100000000000D+01
0.576635118376D-06 0.000000000000D+00 0.000000000000D+00 0.756467075346D-07 0.000000000000D+00  7 3 21 24 -11 11 -24 3 2 0.10418399D-01 0.11090110D+00 0.24544857D+05 0.24544857D+05 0.24544857D+05 0.11755102D+01  1  2 12  4  7  2       -3 0.222477545736D-03 0.100000000000D+01
-.755982729858D-06 0.000000000000D+00 -.143449695246D-06 0.756467075346D-07 0.000000000000D+00  7 3 21 24 -11 11 -24 3 2 0.10418399D-01 0.11156664D+00 0.19537307D+05 0.19537307D+05 0.19537307D+05 0.11850219D+01  1  2  5  4  7  2       -3 -.293017076954D-03 0.100000000000D+01
  </mgrwgt>
  </event>
  <event>
  8     66 0.27727860E-05 0.38037709E+03 0.75467711E-02 0.92357037E-01
        1 -1    0    0  501    0 0.00000000E+00 0.00000000E+00 0.23674351E+04 0.23674352E+04 0.32000000E+00 0.0000E+00 0.9000E+01
       -1 -1    0    0    0  501 0.00000000E+00 0.00000000E+00 -.70685911E+02 0.70686636E+02 0.32000000E+00 0.0000E+00 0.9000E+01
       25  2    1    2    0    0 -.23956314E+03 0.21802624E+03 0.16150868E+04 0.16740109E+04 0.29812970E+03 0.0000E+00 0.0000E+00
       23  2    1    2    0    0 0.23956314E+03 -.21802624E+03 0.68166246E+03 0.76411088E+03 0.11948137E+03 0.0000E+00 0.0000E+00
       24  1    3    3    0    0 0.30775049E+02 0.45682611E+02 0.55810606E+03 0.56655414E+03 0.80419002E+02 0.0000E+00 0.9000E+01
      -11  1    4    4    0    0 0.22077474E+03 -.16250864E+03 0.62550070E+03 0.68293607E+03 0.51099893E-03 0.0000E+00 0.9000E+01
       11  1    4    4    0    0 0.18788398E+02 -.55517602E+02 0.56161754E+02 0.81174816E+02 0.51099893E-03 0.0000E+00 0.9000E+01
      -24  1    3    3    0    0 -.27033819E+03 0.17234363E+03 0.10569807E+04 0.11074568E+04 0.80419002E+02 0.0000E+00 0.9000E+01
#aMCatNLO 1  0  0  1  1 0.37446285D+03 0.00000000D+00  -5  7  0 0.00000000D+00 0.00000000D+00 0.00000000D+00 0.00000000D+00 0.00000000D+00
  <mgrwgt>
 0.5715220167D-03    3    2    0
 0.409078501282764D+03 0.000000000000000D+00 0.000000000000000D+00 0.409078501282764D+03
 0.409078501282764D+03 0.000000000000000D+00 0.000000000000000D+00 -.409078501282764D+03
 0.121612768372245D+03 0.307750494002420D+02 0.456826114160435D+02 0.727216943244193D+02
 0.279241094503133D+03 0.220774741935092D+03 -.162508636311582D+03 -.531511552739068D+02
 0.842437601289797D+02 0.187883987364970D+02 -.555176024163028D+02 -.605128334779722D+02
 0.333059379561170D+03 -.270338190071831D+03 0.172343627311841D+03 0.409422944274597D+02
 0.000000000000000D+00 -.000000000000000D+00 0.000000000000000D+00 -.000000000000000D+00
 0.575784620008442D+03 0.000000000000000D+00 0.000000000000000D+00 0.575784620008442D+03
 0.728341322844302D+03 0.000000000000000D+00 0.000000000000000D+00 -.728341322844302D+03
 0.127320241747754D+03 0.665641649697234D+02 0.489848147950772D+01 0.727216943244193D+02
 0.429653121417416D+03 0.322692510927993D+03 -.278650861882330D+03 -.531511552739068D+02
 0.117419121219156D+03 0.477814847204085D+02 -.885571946837721D+02 -.605128334779722D+02
 0.225387103986846D+03 -.190050301657852D+03 0.808501209398066D+02 0.409422944274597D+02
 0.404346354481571D+03 -.246987858960272D+03 0.281459454146788D+03 -.152556702835861D+03
0.515273087193D-04 0.000000000000D+00 0.000000000000D+00 0.733841801063D-09 0.000000000000D+00  7 1 -1 24 -11 11 -24 21 0 0.36422085D+00 0.10874813D-01 0.14468673D+06 0.14468673D+06 0.14468673D+06 0.11087900D+01  1  2  2  1  7  1        1 0.567911681568D-03 0.100000000000D+01
-.284421034304D-05 0.000000000000D+00 -.197878432934D-06 0.733841801063D-09 0.000000000000D+00  7 1 -1 24 -11 11 -24 21 2 0.36422085D+00 0.10874813D-01 0.14468673D+06 0.14468673D+06 0.14468673D+06 0.11087900D+01  1  2  3  1  7  1        1 -.385392864988D-04 0.100000000000D+01
0.311065410339D-05 0.000000000000D+00 0.000000000000D+00 0.733841801063D-09 0.000000000000D+00  7 1 -1 24 -11 11 -24 21 2 0.36422085D+00 0.10874813D-01 0.14468673D+06 0.14468673D+06 0.14468673D+06 0.11087900D+01  1  2 15  1  7  1        1 0.421496215927D-04 0.100000000000D+01
  </mgrwgt>
  </event>
  <event>
  8     66 0.27727860E-05 0.66191259E+03 0.75467711E-02 0.90789125E-01
        1 -1    0    0  501    0 0.00000000E+00 0.00000000E+00 0.84375113E+03 0.84375119E+03 0.32000000E+00 0.0000E+00 0.9000E+01
       -1 -1    0    0    0  501 0.00000000E+00 0.00000000E+00 -.62995808E+03 0.62995816E+03 0.32000000E+00 0.0000E+00 0.9000E+01
       25  2    1    2    0    0 0.28466485E+03 -.57220412E+03 0.38401474E+03 0.80504017E+03 0.30359631E+03 0.0000E+00 0.0000E+00
       23  2    1    2    0    0 -.28466485E+03 0.57220412E+03 -.17022169E+03 0.66866919E+03 0.98445027E+02 0.0000E+00 0.0000E+00
       24  1    3    3    0    0 0.22965991E+02 -.21239654E+03 0.28821645E+02 0.23008179E+03 0.80419002E+02 0.0000E+00 0.9000E+01
      -11  1    4    4    0    0 -.81247439E+01 0.24486861E+00 -.11069088E+02 0.13733031E+02 0.51099893E-03 0.0000E+00 0.9000E+01
       11  1    4    4    0    0 -.27654011E+03 0.57195925E+03 -.15915260E+03 0.65493616E+03 0.51099893E-03 0.0000E+00 0.9000E+01
      -24  1    3    3    0    0 0.26169886E+03 -.35980758E+03 0.35519309E+03 0.57495838E+03 0.80419002E+02 0.0000E+00 0.9000E+01
#aMCatNLO 1  0  0  2  2 0.94969414D+02 0.00000000D+00  -5  7  0 0.00000000D+00 0.00000000D+00 0.00000000D+00 0.00000000D+00 0.00000000D+00
  <mgrwgt>
 0.6671948740D-03    4    2    0
 0.729059634670348D+03 0.000000000000000D+00 0.000000000000000D+00 0.729059634670348D+03
 0.729059634670348D+03 0.000000000000000D+00 0.000000000000000D+00 -.729059634670348D+03
 0.228315904961766D+03 0.229659905044969D+02 -.212396540632842D+03 -.460535682533265D+01
 0.155028399187172D+02 -.812474389426275D+01 0.244868596277435D+00 -.132010083542345D+02
 0.685274026439470D+03 -.276540109491502D+03 0.571959253198636D+03 -.256882603216818D+03
 0.529026498020742D+03 0.261698862881268D+03 -.359807581162072D+03 0.274688968396385D+03
 0.000000000000000D+00 -.000000000000000D+00 0.000000000000000D+00 0.000000000000000D+00
 0.823795592896620D+03 0.000000000000000D+00 0.000000000000000D+00 0.823795592896620D+03
 0.754799756384768D+03 0.000000000000000D+00 0.000000000000000D+00 -.754799756384768D+03
 0.237289126274980D+03 0.358907403165438D+02 -.220294255354093D+03 -.460535682533265D+01
 0.150758235201726D+02 -.727590947878265D+01 -.273814717251284D+00 -.132010083542345D+02
 0.651932746197871D+03 -.239420529968479D+03 0.549277201018995D+03 -.256882603216818D+03
 0.556911047919590D+03 0.291843449282119D+03 -.378227538781842D+03 0.274688968396385D+03
 0.117386605368775D+03 -.810377501514014D+02 0.495184078341919D+02 0.689958365118517D+02
0.407605097125D-03 0.000000000000D+00 0.000000000000D+00 0.120806830327D-07 0.000000000000D+00  7 1 -1 24 -11 11 -24 21 0 0.12980788D+00 0.96916639D-01 0.43812827D+06 0.43812827D+06 0.43812827D+06 0.10725887D+01  1  2  2  2  7  2       -1 0.105452466069D-02 0.100000000000D+01
-.223876875006D-04 0.000000000000D+00 -.156531089785D-05 0.120806830327D-07 0.000000000000D+00  7 1 -1 24 -11 11 -24 21 2 0.12980788D+00 0.96916639D-01 0.43812827D+06 0.43812827D+06 0.43812827D+06 0.10725887D+01  1  2  3  2  7  2       -1 -.666335250864D-04 0.100000000000D+01
0.242250240718D-04 0.000000000000D+00 0.000000000000D+00 0.120806830327D-07 0.000000000000D+00  7 1 -1 24 -11 11 -24 21 2 0.12980788D+00 0.96916639D-01 0.43812827D+06 0.43812827D+06 0.43812827D+06 0.10725887D+01  1  2 15  2  7  2       -1 0.721020761595D-04 0.100000000000D+01
-.131973303590D-03 0.000000000000D+00 0.000000000000D+00 0.120806830327D-07 0.000000000000D+00  7 1 -1 24 -11 11 -24 21 2 0.12980788D+00 0.96916639D-01 0.43812827D+06 0.43812827D+06 0.43812827D+06 0.10725887D+01  1  2  4  2  7  2       -1 -.392798337715D-03 0.100000000000D+01
  </mgrwgt>
  </event>
  <event>
  8     66 0.27727860E-05 0.13946528E+03 0.75467711E-02 0.99084074E-01
        1 -1    0    0  501    0 0.00000000E+00 0.00000000E+00 0.87646211E+03 0.87646217E+03 0.32000000E+00 0.0000E+00 0.9000E+01
       -1 -1    0    0    0  501 0.00000000E+00 0.00000000E+00 -.19080531E+03 0.19080558E+03 0.32000000E+00 0.0000E+00 0.9000E+01
       25  2    1    2    0    0 -.20096196E+03 0.41010516E+02 0.17865036E+02 0.36261804E+03 0.29850479E+03 0.0000E+00 0.0000E+00
       23  2    1    2    0    0 0.20096196E+03 -.41010516E+02 0.66779176E+03 0.70464971E+03 0.92291975E+02 0.0000E+00 0.0000E+00
       24  1    3    3    0    0 0.31298355E+02 -.47005428E+02 0.25186097E+02 0.10144285E+03 0.80419002E+02 0.0000E+00 0.9000E+01
      -11  1    4    4    0    0 0.12027218E+03 -.68494410E+02 0.44858974E+03 0.46945675E+03 0.51099893E-03 0.0000E+00 0.9000E+01
       11  1    4    4    0    0 0.80689785E+02 0.27483894E+02 0.21920202E+03 0.23519297E+03 0.51099893E-03 0.0000E+00 0.9000E+01
      -24  1    3    3    0    0 -.23226032E+03 0.88015944E+02 -.73210604E+01 0.26117518E+03 0.80419002E+02 0.0000E+00 0.9000E+01
#aMCatNLO 1  0  0  1  2 0.93935517D+02 0.00000000D+00  -5  7  0 0.00000000D+00 0.00000000D+00 0.00000000D+00 0.00000000D+00 0.00000000D+00
  <mgrwgt>
 0.6088034195D-03    9    2    0
 0.408942295209646D+03 0.000000000000000D+00 0.000000000000000D+00 0.408942295209646D+03
 0.408942295209646D+03 0.000000000000000D+00 0.000000000000000D+00 -.408942295209646D+03
 0.111259791105327D+03 0.312983551319455D+02 -.470054283327490D+02 -.521768898624648D+02
 0.236533909442047D+03 0.120272177698413D+03 -.684944100581921D+02 0.191810868770255D+03
 0.123142694649637D+03 0.806897845202413D+02 0.274838940381651D+02 0.888702283565745D+02
 0.346948195222282D+03 -.232260317350600D+03 0.880159443527761D+02 -.228504207264365D+03
 0.000000000000000D+00 -.000000000000000D+00 -.000000000000000D+00 0.000000000000000D+00
 0.506415196260759D+03 0.000000000000000D+00 0.000000000000000D+00 0.506415196260759D+03
 0.434904141773491D+03 0.000000000000000D+00 0.000000000000000D+00 -.434904141773491D+03
 0.112794750584133D+03 0.427712650256670D+02 -.412750633839680D+02 -.521768898624648D+02
 0.246931512538875D+03 0.145028449904691D+03 -.561294149673675D+02 0.191810868770255D+03
 0.133653425912910D+03 0.938392557608412D+02 0.340516497156828D+02 0.888702283565745D+02
 0.329881560289599D+03 -.197602654355578D+03 0.105326379026548D+03 -.228504207264365D+03
 0.118058088708732D+03 -.840363163356216D+02 -.419735503908956D+02 0.715110544872688D+02
0.196067090257D-04 0.000000000000D+00 0.000000000000D+00 0.210781693077D-06 0.000000000000D+00  7 1 -1 24 -11 11 -24 21 0 0.13484035D+00 0.29354689D-01 0.84969195D+05 0.84969195D+05 0.84969195D+05 0.11275736D+01  1  2  2  1  7  1        1 0.468535304049D-03 0.100000000000D+01
-.937464141212D-06 0.000000000000D+00 -.752949252239D-07 0.210781693077D-06 0.000000000000D+00  7 1 -1 24 -11 11 -24 21 2 0.13484035D+00 0.29354689D-01 0.84969195D+05 0.84969195D+05 0.84969195D+05 0.11275736D+01  1  2  3  1  7  1        1 -.284827602217D-04 0.100000000000D+01
0.111907541810D-05 0.000000000000D+00 0.000000000000D+00 0.210781693077D-06 0.000000000000D+00  7 1 -1 24 -11 11 -24 21 2 0.13484035D+00 0.29354689D-01 0.84969195D+05 0.84969195D+05 0.84969195D+05 0.11275736D+01  1  2 15  1  7  1        1 0.340006144263D-04 0.100000000000D+01
0.246212321965D-04 0.000000000000D+00 0.000000000000D+00 0.210781693077D-06 0.000000000000D+00  7 1 -1 24 -11 11 -24 21 2 0.17051223D+00 0.29354689D-01 0.11806030D+06 0.11806030D+06 0.11806030D+06 0.11158527D+01  1  2 12  1  7  1        1 0.484624993208D-03 0.100000000000D+01
-.271595749228D-04 0.000000000000D+00 0.000000000000D+00 0.210781693077D-06 0.000000000000D+00  7 1 -1 24 -11 11 -24 21 2 0.13484035D+00 0.29354689D-01 0.84969195D+05 0.84969195D+05 0.84969195D+05 0.11275736D+01  1  2  4  1  7  1        1 -.825183200341D-03 0.100000000000D+01
-.404864520091D-04 0.000000000000D+00 -.111646280196D-04 0.210781693077D-06 0.000000000000D+00  7 1 -1 24 -11 11 -24 21 2 0.17291182D+00 0.29354689D-01 0.84969195D+05 0.84969195D+05 0.84969195D+05 0.11275736D+01  1  2  5  1  7  1        1 -.800274761465D-03 0.100000000000D+01
0.422851999524D-04 0.000000000000D+00 0.108280580503D-04 0.210781693077D-06 0.000000000000D+00  7 1 -1 24 -11 11 -24 21 2 0.13484035D+00 0.29354689D-01 0.84969195D+05 0.84969195D+05 0.84969195D+05 0.11275736D+01  1  2  6  1  7  1        1 0.128474163248D-02 0.100000000000D+01
0.795187163374D-06 0.000000000000D+00 0.000000000000D+00 0.210781693077D-06 0.000000000000D+00  7 21 -1 24 -11 11 -24 -1 2 0.17051223D+00 0.29354689D-01 0.11806030D+06 0.11806030D+06 0.11806030D+06 0.11158527D+01  1  2 12  3  7  1        1 0.189291342665D-04 0.100000000000D+01
-.117938944703D-05 0.000000000000D+00 -.376385247438D-06 0.210781693077D-06 0.000000000000D+00  7 21 -1 24 -11 11 -24 -1 2 0.17291182D+00 0.29354689D-01 0.84969195D+05 0.84969195D+05 0.84969195D+05 0.11275736D+01  1  2  5  3  7  1        1 -.280875368729D-04 0.100000000000D+01
  </mgrwgt>
  </event>
  <event>
  8     66 0.27727860E-05 0.21310825E+03 0.75467711E-02 0.94494857E-01
        1 -1    0    0  501    0 0.00000000E+00 0.00000000E+00 0.37351922E+03 0.37351936E+03 0.32000000E+00 0.0000E+00 0.9000E+01
       -1 -1    0    0    0  501 0.00000000E+00 0.00000000E+00 -.38169056E+03 0.38169069E+03 0.32000000E+00 0.0000E+00 0.9000E+01
       25  2    1    2    0    0 -.62788213E+02 0.13964992E+03 -.27444520E+03 0.43428553E+03 0.29973203E+03 0.0000E+00 0.0000E+00
       23  2    1    2    0    0 0.62788213E+02 -.13964992E+03 0.26627386E+03 0.32092453E+03 0.92985601E+02 0.0000E+00 0.0000E+00
       24  1    3    3    0    0 -.10902786E+02 0.13431126E+03 -.14929859E+02 0.15763407E+03 0.80419002E+02 0.0000E+00 0.9000E+01
      -11  1    4    4    0    0 0.59821323E+02 -.36150464E+02 0.69482155E+02 0.98555652E+02 0.51099893E-03 0.0000E+00 0.9000E+01
       11  1    4    4    0    0 0.29668897E+01 -.10349946E+03 0.19679171E+03 0.22236888E+03 0.51099893E-03 0.0000E+00 0.9000E+01
      -24  1    3    3    0    0 -.51885427E+02 0.53386611E+01 -.25951534E+03 0.27665145E+03 0.80419002E+02 0.0000E+00 0.9000E+01
#aMCatNLO 1  0  0  2  2 0.41514405D+03 0.00000000D+00  -5  7  0 0.00000000D+00 0.00000000D+00 0.00000000D+00 0.00000000D+00 0.00000000D+00
  <mgrwgt>
 0.6035292019D-03    5    2    0
 0.377582923588174D+03 0.000000000000000D+00 0.000000000000000D+00 0.377582923588174D+03
 0.377582923588174D+03 0.000000000000000D+00 0.000000000000000D+00 -.377582923588174D+03
 0.157481752604730D+03 -.109027862625506D+02 0.134311257898521D+03 -.132250407378219D+02
 0.993132589892125D+02 0.598213233699281D+02 -.361504636735618D+02 0.705526516689160D+02
 0.224511294352007D+03 0.296688968794206D+01 -.103499455286770D+03 0.199209391376348D+03
 0.273859541230398D+03 -.518854267953196D+02 0.533866106181122D+01 -.256537002307442D+03
 0.000000000000000D+00 -.000000000000000D+00 0.000000000000000D+00 -.000000000000000D+00
 0.599881178233116D+03 0.000000000000000D+00 0.000000000000000D+00 0.599881178233116D+03
 0.685818372698486D+03 0.000000000000000D+00 0.000000000000000D+00 -.685818372698486D+03
 0.151976592650658D+03 0.649378079832518D+02 0.110624808027616D+03 -.132250407378219D+02
 0.150646205513845D+03 0.121080212056965D+03 -.552827715155874D+02 0.705526516689160D+02
 0.274719080249973D+03 0.125315919390541D+03 -.141711367886135D+03 0.199209391376348D+03
 0.284412171747979D+03 0.849331761347784D+02 -.373923725217027D+02 -.256537002307442D+03
 0.423945500769147D+03 -.396267115565536D+03 0.123761703895809D+03 -.859371944653691D+02
0.217110465541D-04 0.000000000000D+00 0.000000000000D+00 0.121586642009D-05 0.000000000000D+00  7 1 -1 24 -11 11 -24 21 0 0.57464517D-01 0.58721645D-01 0.45415125D+05 0.45415125D+05 0.45415125D+05 0.11509876D+01  1  2  2  2  7  2       -1 0.533153304373D-03 0.100000000000D+01
-.726362246942D-06 0.000000000000D+00 -.833761354175D-07 0.121586642009D-05 0.000000000000D+00  7 1 -1 24 -11 11 -24 21 2 0.57464517D-01 0.58721645D-01 0.45415125D+05 0.45415125D+05 0.45415125D+05 0.11509876D+01  1  2  3  2  7  2       -1 -.236301199407D-04 0.100000000000D+01
0.124451932651D-05 0.000000000000D+00 0.000000000000D+00 0.121586642009D-05 0.000000000000D+00  7 1 -1 24 -11 11 -24 21 2 0.57464517D-01 0.58721645D-01 0.45415125D+05 0.45415125D+05 0.45415125D+05 0.11509876D+01  1  2 15  2  7  2       -1 0.404868797598D-04 0.100000000000D+01
0.651281619827D-05 0.000000000000D+00 -.645008111201D-05 0.121586642009D-05 0.000000000000D+00  7 1 -1 24 -11 11 -24 21 2 0.57464517D-01 0.15367903D+00 0.45415125D+05 0.45415125D+05 0.45415125D+05 0.11509876D+01  1  2  5  2  7  2       -1 0.255071869288D-04 0.100000000000D+01
0.108151885509D-05 0.000000000000D+00 -.688322479914D-06 0.121586642009D-05 0.000000000000D+00  7 1 21 24 -11 11 -24 1 2 0.57464517D-01 0.15367903D+00 0.45415125D+05 0.45415125D+05 0.45415125D+05 0.11509876D+01  1  2  5  4  7  2       -1 0.280119507682D-04 0.100000000000D+01
  </mgrwgt>
  </event>
  <event>
  9     66 0.27727860E-05 0.20428481E+03 0.75467711E-02 0.10245216E+00
        1 -1    0    0  501    0 0.00000000E+00 0.00000000E+00 0.12199540E+04 0.12199541E+04 0.32000000E+00 0.0000E+00 0.9000E+01
       -1 -1    0    0    0  502 0.00000000E+00 0.00000000E+00 -.32453564E+03 0.32453580E+03 0.32000000E+00 0.0000E+00 0.9000E+01
       25  2    1    2    0    0 -.11287694E+02 0.73763810E+02 0.11172071E+04 0.11588315E+04 0.29861399E+03 0.0000E+00 0.0000E+00
       23  2    1    2    0    0 -.87369537E+02 -.35595746E+02 -.24471028E+03 0.27741786E+03 0.90427070E+02 0.0000E+00 0.0000E+00
       24  1    3    3    0    0 -.10789239E+03 0.11315466E+03 0.61525313E+03 0.63988153E+03 0.80419002E+02 0.0000E+00 0.9000E+01
      -11  1    4    4    0    0 -.51297519E+02 -.54714941E+02 -.21271016E+03 0.22554550E+03 0.51099893E-03 0.0000E+00 0.9000E+01
       11  1    4    4    0    0 -.36072018E+02 0.19119194E+02 -.32000117E+02 0.51872358E+02 0.51099893E-03 0.0000E+00 0.9000E+01
      -24  1    3    3    0    0 0.96604692E+02 -.39390849E+02 0.50195393E+03 0.51894997E+03 0.80419002E+02 0.0000E+00 0.9000E+01
       21  1    1    2  501  502 0.98657231E+02 -.38168063E+02 0.22921621E+02 0.10824054E+03 0.75000000E+00 0.0000E+00 0.9000E+01
#aMCatNLO 2  0  0  2  1 0.10578303D+03 0.00000000D+00  -5  7  0 0.00000000D+00 0.00000000D+00 0.00000000D+00 0.00000000D+00 0.00000000D+00
  <mgrwgt>
 0.2740442139D-03    2    2    0
 0.567972605873995D+03 0.000000000000000D+00 0.000000000000000D+00 0.567972605873995D+03
 0.567972605873995D+03 0.000000000000000D+00 0.000000000000000D+00 -.567972605873995D+03
 0.323307672656636D+03 -.793656444405447D+02 0.102118362437267D+03 0.285190409691399D+03
 0.445933477977277D+03 -.126219893293971D+02 -.696775545451029D+02 -.440275357655744D+03
 0.863889657931520D+02 -.284385455066835D+02 0.161659909017532D+02 -.799560083948612D+02
 0.280315095320925D+03 0.120426179276625D+03 -.486067987939172D+02 0.235040956359206D+03
 0.000000000000000D+00 0.000000000000000D+00 -.000000000000000D+00 -.000000000000000D+00
 0.602835545515993D+03 0.000000000000000D+00 0.000000000000000D+00 0.602835545515993D+03
 0.656758233092400D+03 0.000000000000000D+00 0.000000000000000D+00 -.656758233092400D+03
 0.335030639937215D+03 -.107892386343085D+03 0.113154659345586D+03 0.285190409691399D+03
 0.446617902376349D+03 -.512975188786117D+02 -.547149405652145D+02 -.440275357655744D+03
 0.897758170923249D+02 -.360720178377877D+02 0.191191941583790D+02 -.799560083948612D+02
 0.269435655853138D+03 0.966046919205568D+02 -.393908494872093D+02 0.235040956359206D+03
 0.118733763349367D+03 0.986572311389272D+02 -.381680634515414D+02 -.539226875764073D+02
-.613539538172D-04 0.000000000000D+00 0.000000000000D+00 0.170322446484D-05 0.000000000000D+00  7 1 -1 24 -11 11 -24 21 2 0.17683078D+00 0.51099093D-01 0.70000498D+05 0.70000498D+05 0.70000498D+05 0.11346594D+01  1  2 13  2  7  2       -1 -.456675475709D-03 0.100000000000D+01
0.105489762135D-03 0.000000000000D+00 0.000000000000D+00 0.170322446484D-05 0.105478965960D-08  7 1 -1 24 -11 11 -24 21 2 0.18768489D+00 0.49928480D-01 0.70000498D+05 0.70000498D+05 0.70000498D+05 0.11346594D+01  1  2  1  2  7  2       -1 0.730719689624D-03 0.100000000000D+01
  </mgrwgt>
  </event>
  <event>
  8     66 0.27727860E-05 0.21604737E+03 0.75467711E-02 0.93888893E-01
        1 -1    0    0  501    0 0.00000000E+00 0.00000000E+00 0.29812209E+04 0.29812209E+04 0.32000000E+00 0.0000E+00 0.9000E+01
       -1 -1    0    0    0  501 0.00000000E+00 0.00000000E+00 -.21191702E+03 0.21191726E+03 0.32000000E+00 0.0000E+00 0.9000E+01
       25  2    1    2    0    0 0.29146961E+03 -.39840459E+03 0.25965493E+03 0.63370370E+03 0.30079718E+03 0.0000E+00 0.0000E+00
       23  2    1    2    0    0 -.29146961E+03 0.39840459E+03 0.25096489E+04 0.25594345E+04 0.93199767E+02 0.0000E+00 0.0000E+00
       24  1    3    3    0    0 0.24103130E+03 -.34594863E+03 0.29361844E+03 0.52005341E+03 0.80419002E+02 0.0000E+00 0.9000E+01
      -11  1    4    4    0    0 -.64283853E+02 0.83810407E+02 0.75752514E+03 0.76485354E+03 0.51099893E-03 0.0000E+00 0.9000E+01
       11  1    4    4    0    0 -.22718576E+03 0.31459418E+03 0.17521238E+04 0.17945809E+04 0.51099893E-03 0.0000E+00 0.9000E+01
      -24  1    3    3    0    0 0.50438313E+02 -.52455956E+02 -.33963518E+02 0.11365028E+03 0.80419002E+02 0.0000E+00 0.9000E+01
#aMCatNLO 1  0  0  1  2 0.37110209D+02 0.00000000D+00  -5  7  0 0.00000000D+00 0.00000000D+00 0.00000000D+00 0.00000000D+00 0.00000000D+00
  <mgrwgt>
 0.5909258824D-03    6    2    0
 0.794840766894977D+03 0.000000000000000D+00 0.000000000000000D+00 0.794840766894977D+03
 0.794840766894977D+03 0.000000000000000D+00 0.000000000000000D+00 -.794840766894977D+03
 0.533115395447227D+03 0.241031297999941D+03 -.345948633760421D+03 -.316177584740356D+03
 0.216688507842621D+03 -.642838526632429D+02 0.838104066933097D+02 0.189201774430723D+03
 0.552426117064382D+03 -.227185758583591D+03 0.314594182728955D+03 0.393181568877191D+03
 0.287451513435725D+03 0.504383132468923D+02 -.524559556618438D+02 -.266205758567558D+03
 0.000000000000000D+00 -.000000000000000D+00 0.000000000000000D+00 -.000000000000000D+00
 0.811033294226375D+03 0.000000000000000D+00 0.000000000000000D+00 0.811033294226375D+03
 0.816607916676218D+03 0.000000000000000D+00 0.000000000000000D+00 -.816607916676218D+03
 0.542860611824616D+03 0.250307318548848D+03 -.354412766565860D+03 -.316177584740356D+03
 0.214320242728594D+03 -.605681136504424D+02 0.804198893578989D+02 0.189201774430723D+03
 0.543708773060559D+03 -.217735947717498D+03 0.305971470679624D+03 0.393181568877191D+03
 0.289225005516996D+03 0.554098583405796D+02 -.569923641033019D+02 -.266205758567558D+03
 0.375265777718269D+02 -.274131155214878D+02 0.250137706316388D+02 -.557462244984361D+01
0.692878495833D-03 0.000000000000D+00 0.000000000000D+00 0.233676460093D-05 0.000000000000D+00  7 1 -1 24 -11 11 -24 21 0 0.45864939D+00 0.32602638D-01 0.26592993D+06 0.26592993D+06 0.26592993D+06 0.10884466D+01  1  2  2  1  7  1        1 0.462936730455D-03 0.100000000000D+01
-.297326275544D-04 0.000000000000D+00 -.266083586310D-05 0.233676460093D-05 0.000000000000D+00  7 1 -1 24 -11 11 -24 21 2 0.45864939D+00 0.32602638D-01 0.26592993D+06 0.26592993D+06 0.26592993D+06 0.10884466D+01  1  2  3  1  7  1        1 -.235348874063D-04 0.100000000000D+01
0.412310189750D-04 0.000000000000D+00 0.000000000000D+00 0.233676460093D-05 0.000000000000D+00  7 1 -1 24 -11 11 -24 21 2 0.45864939D+00 0.32602638D-01 0.26592993D+06 0.26592993D+06 0.26592993D+06 0.10884466D+01  1  2 15  1  7  1        1 0.326364492155D-04 0.100000000000D+01
0.888436054010D-03 0.000000000000D+00 0.000000000000D+00 0.233676460093D-05 0.000000000000D+00  7 1 -1 24 -11 11 -24 21 2 0.47412614D+00 0.32602638D-01 0.28498429D+06 0.28498429D+06 0.28498429D+06 0.10862056D+01  1  2 12  1  7  1        1 0.586052274534D-03 0.100000000000D+01
-.592319716932D-03 0.000000000000D+00 0.000000000000D+00 0.233676460093D-05 0.000000000000D+00  7 1 -1 24 -11 11 -24 21 2 0.45864939D+00 0.32602638D-01 0.26592993D+06 0.26592993D+06 0.26592993D+06 0.10884466D+01  1  2  4  1  7  1        1 -.468851191204D-03 0.100000000000D+01
0.124648263423D-04 0.000000000000D+00 0.000000000000D+00 0.233676460093D-05 0.000000000000D+00  7 21 -1 24 -11 11 -24 -1 2 0.47412614D+00 0.32602638D-01 0.28498429D+06 0.28498429D+06 0.28498429D+06 0.10862056D+01  1  2 12  3  7  1        1 0.168650684447D-05 0.100000000000D+01
  </mgrwgt>
  </event>
  <event>
  8     66 0.27727860E-05 0.10061240E+03 0.75467711E-02 0.10422269E+00
        1 -1    0    0  501    0 0.00000000E+00 0.00000000E+00 0.36519997E+03 0.36520011E+03 0.32000000E+00 0.0000E+00 0.9000E+01
       -1 -1    0    0    0  501 0.00000000E+00 0.00000000E+00 -.24635182E+03 0.24635203E+03 0.32000000E+00 0.0000E+00 0.9000E+01
       25  2    1    2    0    0 0.11902121E+03 0.20140113E+02 0.25479130E+03 0.40864503E+03 0.29580480E+03 0.0000E+00 0.0000E+00
       23  2    1    2    0    0 -.11902121E+03 -.20140113E+02 -.13594315E+03 0.20290712E+03 0.90105965E+02 0.0000E+00 0.0000E+00
       24  1    3    3    0    0 0.18544034E+03 -.15188938E+02 0.12379339E+03 0.23750967E+03 0.80419002E+02 0.0000E+00 0.9000E+01
      -11  1    4    4    0    0 -.47107593E+02 -.35756002E+02 -.14475150E+02 0.60886345E+02 0.51099893E-03 0.0000E+00 0.9000E+01
       11  1    4    4    0    0 -.71913618E+02 0.15615889E+02 -.12146800E+03 0.14202077E+03 0.51099893E-03 0.0000E+00 0.9000E+01
      -24  1    3    3    0    0 -.66419131E+02 0.35329051E+02 0.13099790E+03 0.17113535E+03 0.80419002E+02 0.0000E+00 0.9000E+01
#aMCatNLO 1  0  0  1  2 0.22242614D+02 0.00000000D+00  -5  7  0 0.00000000D+00 0.00000000D+00 0.00000000D+00 0.00000000D+00 0.00000000D+00
  <mgrwgt>
 0.1315868236D-02    9    2    0
 0.299946303529176D+03 0.000000000000000D+00 0.000000000000000D+00 0.299946303529176D+03
 0.299946303529176D+03 0.000000000000000D+00 0.000000000000000D+00 -.299946303529176D+03
 0.217600503547714D+03 0.185440341939959D+03 -.151889377149016D+02 0.791450500166128D+02
 0.649374885829288D+02 -.471075929742184D+02 -.357560022868535D+02 -.268190307076132D+02
 0.168845810204525D+03 -.719136183492046D+02 0.156158893677033D+02 -.151965401058277D+03
 0.148508804723183D+03 -.664191306165360D+02 0.353290506340519D+02 0.996393817492773D+02
 0.000000000000000D+00 -.000000000000000D+00 0.000000000000000D+00 0.000000000000000D+00
 0.322781130968865D+03 0.000000000000000D+00 0.000000000000000D+00 0.322781130968865D+03
 0.305618181998247D+03 0.000000000000000D+00 0.000000000000000D+00 -.305618181998247D+03
 0.223515868653234D+03 0.191883636687925D+03 -.202202525880204D+02 0.791450500166128D+02
 0.644213920657355D+02 -.452180748134493D+02 -.372314525335315D+02 -.268190307076132D+02
 0.166503906844467D+03 -.670152350500028D+02 0.117909349443020D+02 -.151965401058277D+03
 0.145863649894983D+03 -.621192936340107D+02 0.319714774345648D+02 0.996393817492773D+02
 0.280944955086944D+02 -.175310331904620D+02 0.136892927426851D+02 0.171629489706180D+02
0.154290852932D-04 0.000000000000D+00 0.000000000000D+00 0.169627691876D-07 0.000000000000D+00  7 1 -1 24 -11 11 -24 21 0 0.56184638D-01 0.37900307D-01 0.49628513D+05 0.49628513D+05 0.49628513D+05 0.11475804D+01  1  2  2  1  7  1        1 0.844046711726D-03 0.100000000000D+01
-.764965893185D-06 0.000000000000D+00 -.592517500974D-07 0.169627691876D-07 0.000000000000D+00  7 1 -1 24 -11 11 -24 21 2 0.56184638D-01 0.37900307D-01 0.49628513D+05 0.49628513D+05 0.49628513D+05 0.11475804D+01  1  2  3  1  7  1        1 -.551105315742D-04 0.100000000000D+01
0.876441725772D-06 0.000000000000D+00 0.000000000000D+00 0.169627691876D-07 0.000000000000D+00  7 1 -1 24 -11 11 -24 21 2 0.56184638D-01 0.37900307D-01 0.49628513D+05 0.49628513D+05 0.49628513D+05 0.11475804D+01  1  2 15  1  7  1        1 0.631415986404D-04 0.100000000000D+01
0.650231611109D-04 0.000000000000D+00 0.000000000000D+00 0.169627691876D-07 0.000000000000D+00  7 1 -1 24 -11 11 -24 21 2 0.60966392D-01 0.37900307D-01 0.53922204D+05 0.53922204D+05 0.53922204D+05 0.11444217D+01  1  2 12  1  7  1        1 0.418002195328D-02 0.100000000000D+01
-.653895598439D-04 0.000000000000D+00 0.000000000000D+00 0.169627691876D-07 0.000000000000D+00  7 1 -1 24 -11 11 -24 21 2 0.56184638D-01 0.37900307D-01 0.49628513D+05 0.49628513D+05 0.49628513D+05 0.11475804D+01  1  2  4  1  7  1        1 -.471086807203D-02 0.100000000000D+01
-.147491672755D-03 0.000000000000D+00 -.244468088176D-04 0.169627691876D-07 0.000000000000D+00  7 1 -1 24 -11 11 -24 21 2 0.61339812D-01 0.37900307D-01 0.49628513D+05 0.49628513D+05 0.49628513D+05 0.11475804D+01  1  2  5  1  7  1        1 -.946379389794D-02 0.100000000000D+01
0.149156555424D-03 0.000000000000D+00 0.243529127101D-04 0.169627691876D-07 0.000000000000D+00  7 1 -1 24 -11 11 -24 21 2 0.56184638D-01 0.37900307D-01 0.49628513D+05 0.49628513D+05 0.49628513D+05 0.11475804D+01  1  2  6  1  7  1        1 0.107457039986D-01 0.100000000000D+01
0.901150695076D-06 0.000000000000D+00 0.000000000000D+00 0.169627691876D-07 0.000000000000D+00  7 21 -1 24 -11 11 -24 -1 2 0.60966392D-01 0.37900307D-01 0.53922204D+05 0.53922204D+05 0.53922204D+05 0.11444217D+01  1  2 12  3  7  1        1 0.222225563049D-03 0.100000000000D+01
-.207538368432D-05 0.000000000000D+00 -.354461590592D-06 0.169627691876D-07 0.000000000000D+00  7 21 -1 24 -11 11 -24 -1 2 0.61339812D-01 0.37900307D-01 0.49628513D+05 0.49628513D+05 0.49628513D+05 0.11475804D+01  1  2  5  3  7  1        1 -.509499087594D-03 0.100000000000D+01
  </mgrwgt>
  </event>
  <event>
  8     66 0.27727860E-05 0.11558404E+03 0.75467711E-02 0.10176384E+00
        1 -1    0    0  501    0 0.00000000E+00 0.00000000E+00 0.21248405E+03 0.21248429E+03 0.32000000E+00 0.0000E+00 0.9000E+01
       -1 -1    0    0    0  501 0.00000000E+00 0.00000000E+00 -.67939663E+03 0.67939671E+03 0.32000000E+00 0.0000E+00 0.9000E+01
       25  2    1    2    0    0 0.17744741E+03 -.59987462E+02 0.30019970E+02 0.35287590E+03 0.29754685E+03 0.0000E+00 0.0000E+00
       23  2    1    2    0    0 -.17744741E+03 0.59987462E+02 -.49693255E+03 0.53900510E+03 0.92187084E+02 0.0000E+00 0.0000E+00
       24  1    3    3    0    0 0.59320352E+02 0.80794899E+02 0.72898031E+02 0.14774322E+03 0.80419002E+02 0.0000E+00 0.9000E+01
      -13  1    4    4    0    0 -.32865675E+02 0.16559519E+02 -.27630003E+02 0.46019545E+02 0.10565837E+00 0.0000E+00 0.9000E+01
       13  1    4    4    0    0 -.14458173E+03 0.43427943E+02 -.46930255E+03 0.49298555E+03 0.10565837E+00 0.0000E+00 0.9000E+01
      -24  1    3    3    0    0 0.11812705E+03 -.14078236E+03 -.42878061E+02 0.20513268E+03 0.80419002E+02 0.0000E+00 0.9000E+01
#aMCatNLO 1  0  0  1  2 0.42207502D+02 0.00000000D+00  -5  7  0 0.00000000D+00 0.00000000D+00 0.00000000D+00 0.00000000D+00 0.00000000D+00
  <mgrwgt>
 0.5260490697D-03    7    2    0
 0.379948800352265D+03 0.000000000000000D+00 0.000000000000000D+00 0.379948800352265D+03
 0.379948800352265D+03 0.000000000000000D+00 0.000000000000000D+00 -.379948800352265D+03
 0.218195686161502D+03 0.593203519905075D+02 0.807948987067715D+02 0.176338939794372D+03
 0.370351334760969D+02 -.328655285015356D+02 0.165594839018381D+02 -.415230548151634D+01
 0.290251526248809D+03 -.144581877031054D+03 0.434279784221035D+02 -.247903287622633D+03
 0.214415254818120D+03 0.118127053542082D+03 -.140782361030713D+03 0.757166533097770D+02
 0.000000000000000D+00 0.000000000000000D+00 0.000000000000000D+00 0.000000000000000D+00
 0.786229433855549D+03 0.000000000000000D+00 0.000000000000000D+00 0.786229433855549D+03
 0.381632229920526D+03 0.000000000000000D+00 0.000000000000000D+00 -.381632229920526D+03
 0.213305701661179D+03 0.559939876714014D+02 0.692918325897745D+02 0.176338939794372D+03
 0.367157433662893D+02 -.334340603583372D+02 0.145934155728688D+02 -.415230548151634D+01
 0.290612525538204D+03 -.149059650476616D+03 0.279431670605267D+02 -.247903287622633D+03
 0.220434907273239D+03 0.114774874142065D+03 -.152374699564696D+03 0.757166533097770D+02
 0.406792785937163D+03 0.117248490214876D+02 0.405462843415256D+02 0.404597203935023D+03
0.364364773952D-04 0.000000000000D+00 0.000000000000D+00 0.136908535640D-06 0.000000000000D+00  7 1 -1 24 -13 13 -24 21 0 0.32689878D-01 0.10452258D+00 0.66789366D+05 0.66789366D+05 0.66789366D+05 0.11363971D+01  1  2  2  1  7  1        1 0.581501545400D-03 0.100000000000D+01
-.165870500472D-05 0.000000000000D+00 -.139925667142D-06 0.136908535640D-06 0.000000000000D+00  7 1 -1 24 -13 13 -24 21 2 0.32689878D-01 0.10452258D+00 0.66789366D+05 0.66789366D+05 0.66789366D+05 0.11363971D+01  1  2  3  1  7  1        1 -.341856541773D-04 0.100000000000D+01
0.214705722034D-05 0.000000000000D+00 0.000000000000D+00 0.136908535640D-06 0.000000000000D+00  7 1 -1 24 -13 13 -24 21 2 0.32689878D-01 0.10452258D+00 0.66789366D+05 0.66789366D+05 0.66789366D+05 0.11363971D+01  1  2 15  1  7  1        1 0.442505179790D-04 0.100000000000D+01
0.109706090445D-02 0.000000000000D+00 0.000000000000D+00 0.136908535640D-06 0.000000000000D+00  7 1 -1 24 -13 13 -24 21 2 0.67638762D-01 0.10452258D+00 0.77668999D+05 0.77668999D+05 0.77668999D+05 0.11308413D+01  1  2 12  1  7  1        1 0.859123469924D-02 0.100000000000D+01
-.108959901804D-02 0.000000000000D+00 -.122291846567D-04 0.136908535640D-06 0.000000000000D+00  7 1 -1 24 -13 13 -24 21 2 0.67744189D-01 0.10452258D+00 0.66789366D+05 0.66789366D+05 0.66789366D+05 0.11363971D+01  1  2  5  1  7  1        1 -.864799063057D-02 0.100000000000D+01
0.862554548713D-04 0.000000000000D+00 0.000000000000D+00 0.136908535640D-06 0.000000000000D+00  7 21 -1 24 -13 13 -24 -1 2 0.67638762D-01 0.10452258D+00 0.77668999D+05 0.77668999D+05 0.77668999D+05 0.11308413D+01  1  2 12  3  7  1        1 0.232646295232D-02 0.100000000000D+01
-.851008815975D-04 0.000000000000D+00 -.963574859002D-06 0.136908535640D-06 0.000000000000D+00  7 21 -1 24 -13 13 -24 -1 2 0.67744189D-01 0.10452258D+00 0.66789366D+05 0.66789366D+05 0.66789366D+05 0.11363971D+01  1  2  5  3  7  1        1 -.233522436051D-02 0.100000000000D+01
  </mgrwgt>
  </event>
  <event>
  8     66 0.27727860E-05 0.19439663E+03 0.75467711E-02 0.10035299E+00
        1 -1    0    0  501    0 0.00000000E+00 0.00000000E+00 0.10478304E+04 0.10478304E+04 0.32000000E+00 0.0000E+00 0.9000E+01
       -1 -1    0    0    0  501 0.00000000E+00 0.00000000E+00 -.16774302E+03 0.16774333E+03 0.32000000E+00 0.0000E+00 0.9000E+01
       25  2    1    2    0    0 0.61719092E+02 -.42944458E+02 -.33516653E+01 0.32379234E+03 0.31492344E+03 0.0000E+00 0.0000E+00
       23  2    1    2    0    0 -.61719092E+02 0.42944458E+02 0.88343903E+03 0.89178142E+03 0.95687543E+02 0.0000E+00 0.0000E+00
       24  1    3    3    0    0 0.13375067E+03 0.59741657E+01 -.86947024E+02 0.17875104E+03 0.80419002E+02 0.0000E+00 0.9000E+01
      -11  1    4    4    0    0 0.12975343E+02 -.14793422E+02 0.64942415E+02 0.67858103E+02 0.51099893E-03 0.0000E+00 0.9000E+01
       11  1    4    4    0    0 -.74694435E+02 0.57737880E+02 0.81849662E+03 0.82392332E+03 0.51099893E-03 0.0000E+00 0.9000E+01
      -24  1    3    3    0    0 -.72031577E+02 -.48918623E+02 0.83595359E+02 0.14504130E+03 0.80419002E+02 0.0000E+00 0.9000E+01
#aMCatNLO 1  0  0  1  2 0.20586054D+03 0.00000000D+00  -5  7  0 0.00000000D+00 0.00000000D+00 0.00000000D+00 0.00000000D+00 0.00000000D+00
  <mgrwgt>
 0.5791438845D-03    7    2    0
 0.419245093518303D+03 0.000000000000000D+00 0.000000000000000D+00 0.419245093518303D+03
 0.419245093518303D+03 0.000000000000000D+00 0.000000000000000D+00 -.419245093518303D+03
 0.350398909002987D+03 0.133750668427137D+03 0.597416556306448D+01 -.313667415453426D+03
 0.302108845913321D+02 0.129753426613659D+02 -.147934219285125D+02 0.229236275108442D+02
 0.335353994164943D+03 -.746944346075720D+02 0.577378795978591D+02 0.321790894993285D+03
 0.122526399277344D+03 -.720315764809311D+02 -.489186232324111D+02 -.310471070507031D+02
 0.000000000000000D+00 0.000000000000000D+00 0.000000000000000D+00 0.000000000000000D+00
 0.557089960410560D+03 0.000000000000000D+00 0.000000000000000D+00 0.557089960410560D+03
 0.516186163729705D+03 0.000000000000000D+00 0.000000000000000D+00 -.516186163729705D+03
 0.357321283809524D+03 0.128485617301768D+03 -.794700103074596D+02 -.313667415453426D+03
 0.345372517750214D+02 0.124936519427692D+02 -.226105666237763D+02 0.229236275108442D+02
 0.332292436662137D+03 -.796613588633368D+02 -.228681277398876D+02 0.321790894993285D+03
 0.139240223242688D+03 -.739789769712381D+02 -.805221207145863D+02 -.310471070507031D+02
 0.209884928650894D+03 0.126610665900380D+02 0.205470825385710D+03 0.409037966808543D+02
0.305797616050D-04 0.000000000000D+00 0.000000000000D+00 0.112681644835D-08 0.000000000000D+00  7 1 -1 24 -11 11 -24 21 0 0.16120470D+00 0.25806646D-01 0.37790051D+05 0.37790051D+05 0.37790051D+05 0.11581467D+01  1  2  2  1  7  1        1 0.679834344366D-03 0.100000000000D+01
-.478782059298D-06 0.000000000000D+00 -.117434336399D-06 0.112681644835D-08 0.000000000000D+00  7 1 -1 24 -11 11 -24 21 2 0.16120470D+00 0.25806646D-01 0.37790051D+05 0.37790051D+05 0.37790051D+05 0.11581467D+01  1  2  3  1  7  1        1 -.142769036442D-04 0.100000000000D+01
0.177219731251D-05 0.000000000000D+00 0.000000000000D+00 0.112681644835D-08 0.000000000000D+00  7 1 -1 24 -11 11 -24 21 2 0.16120470D+00 0.25806646D-01 0.37790051D+05 0.37790051D+05 0.37790051D+05 0.11581467D+01  1  2 15  1  7  1        1 0.528455270573D-04 0.100000000000D+01
-.135071826850D-04 0.000000000000D+00 0.000000000000D+00 0.112681644835D-08 0.000000000000D+00  7 1 -1 24 -11 11 -24 21 2 0.16120470D+00 0.25806646D-01 0.37790051D+05 0.37790051D+05 0.37790051D+05 0.11581467D+01  1  2  4  1  7  1        1 -.402773541641D-03 0.100000000000D+01
-.736460971795D-05 0.000000000000D+00 -.115886143231D-04 0.112681644835D-08 0.000000000000D+00  7 1 -1 24 -11 11 -24 21 2 0.24347984D+00 0.25806646D-01 0.37790051D+05 0.37790051D+05 0.37790051D+05 0.11581467D+01  1  2  5  1  7  1        1 -.956485054090D-04 0.100000000000D+01
0.120262149795D-04 0.000000000000D+00 0.106686402254D-04 0.112681644835D-08 0.000000000000D+00  7 1 -1 24 -11 11 -24 21 2 0.16120470D+00 0.25806646D-01 0.37790051D+05 0.37790051D+05 0.37790051D+05 0.11581467D+01  1  2  6  1  7  1        1 0.358612251925D-03 0.100000000000D+01
0.535461815751D-07 0.000000000000D+00 -.564115650334D-06 0.112681644835D-08 0.000000000000D+00  7 21 -1 24 -11 11 -24 -1 2 0.24347984D+00 0.25806646D-01 0.37790051D+05 0.37790051D+05 0.37790051D+05 0.11581467D+01  1  2  5  3  7  1        1 0.550711853859D-06 0.100000000000D+01
  </mgrwgt>
  </event>
  <event>
  8     66 0.27727860E-05 0.29657551E+03 0.75467711E-02 0.87684994E-01
        1 -1    0    0  501    0 0.00000000E+00 0.00000000E+00 0.42402328E+03 0.42402340E+03 0.32000000E+00 0.0000E+00 0.9000E+01
       -1 -1    0    0    0  501 0.00000000E+00 0.00000000E+00 -.23512852E+03 0.23512873E+03 0.32000000E+00 0.0000E+00 0.9000E+01
       25  2    1    2    0    0 0.21562623E+03 0.85604514E+02 0.87138996E+02 0.38944171E+03 0.30041445E+03 0.0000E+00 0.0000E+00
       23  2    1    2    0    0 -.21562623E+03 -.85604514E+02 0.10175577E+03 0.26971042E+03 0.92556330E+02 0.0000E+00 0.0000E+00
       24  1    3    3    0    0 0.76919903E+02 0.13579768E+03 -.38391000E+02 0.17971858E+03 0.80419002E+02 0.0000E+00 0.9000E+01
      -11  1    4    4    0    0 -.22488101E+03 -.79649730E+02 0.99439764E+02 0.25846434E+03 0.51099893E-03 0.0000E+00 0.9000E+01
       11  1    4    4    0    0 0.92547859E+01 -.59547838E+01 0.23160067E+01 0.11246084E+02 0.51099893E-03 0.0000E+00 0.9000E+01
      -24  1    3    3    0    0 0.13870632E+03 -.50193168E+02 0.12553000E+03 0.20972314E+03 0.80419002E+02 0.0000E+00 0.9000E+01
#aMCatNLO 1  0  0  1  1 0.89113828D+03 0.00000000D+00  -5  7  0 0.00000000D+00 0.00000000D+00 0.00000000D+00 0.00000000D+00 0.00000000D+00
  <mgrwgt>
 0.9229003881D-03    3    2    0
 0.315753190037944D+03 0.000000000000000D+00 0.000000000000000D+00 0.315753190037944D+03
 0.315753190037944D+03 0.000000000000000D+00 0.000000000000000D+00 -.315753190037944D+03
 0.199069632587579D+03 0.769199026719367D+02 0.135797682303425D+03 -.938286774826387D+02
 0.240035060079259D+03 -.224881011466151D+03 -.796497303779500D+02 0.264817144447700D+02
 0.110456502230830D+02 0.925478589723475D+01 -.595478380835573D+01 -.946507603129149D+00
 0.181356037185967D+03 0.138706322896979D+03 -.501931681171188D+02 0.682934706409979D+02
 0.000000000000000D+00 0.000000000000000D+00 0.000000000000000D+00 -.000000000000000D+00
 0.868716378573146D+03 0.000000000000000D+00 0.000000000000000D+00 0.868716378573146D+03
 0.116149850013452D+04 0.000000000000000D+00 0.000000000000000D+00 -.116149850013452D+04
 0.153595139774985D+03 -.802424788215533D+02 0.433771239544313D+02 -.938286774826387D+02
 0.745667853130485D+03 -.664152040004977D+03 -.337966468380399D+03 0.264817144447700D+02
 0.121058728733381D+02 -.106251480921177D+01 -.120219525728081D+02 -.946507603129149D+00
 0.180843450663175D+03 -.227051322499260D+02 -.145112427209781D+03 0.682934706409979D+02
 0.938002562265684D+03 0.768162165885668D+03 0.451723724208557D+03 -.292782121561373D+03
0.189139943015D-04 0.000000000000D+00 0.000000000000D+00 0.655005874921D-06 0.000000000000D+00  7 1 -1 24 -11 11 -24 21 0 0.65234377D-01 0.36173644D-01 0.87957034D+05 0.87957034D+05 0.87957034D+05 0.11263242D+01  1  2  2  1  7  1        1 0.914306880445D-03 0.100000000000D+01
-.104576144192D-05 0.000000000000D+00 -.726347182868D-07 0.655005874921D-06 0.000000000000D+00  7 1 -1 24 -11 11 -24 21 2 0.65234377D-01 0.36173644D-01 0.87957034D+05 0.87957034D+05 0.87957034D+05 0.11263242D+01  1  2  3  1  7  1        1 -.641310237284D-04 0.100000000000D+01
0.118589266693D-05 0.000000000000D+00 0.000000000000D+00 0.655005874921D-06 0.000000000000D+00  7 1 -1 24 -11 11 -24 21 2 0.65234377D-01 0.36173644D-01 0.87957034D+05 0.87957034D+05 0.87957034D+05 0.11263242D+01  1  2 15  1  7  1        1 0.727245313450D-04 0.100000000000D+01
  </mgrwgt>
  </event>
  <event>
  8     66 0.27727860E-05 0.18581593E+03 0.75467711E-02 0.10642928E+00
        1 -1    0    0  501    0 0.00000000E+00 0.00000000E+00 0.17189714E+04 0.17189715E+04 0.32000000E+00 0.0000E+00 0.9000E+01
       -1 -1    0    0    0  501 0.00000000E+00 0.00000000E+00 -.40052124E+02 0.40053403E+02 0.32000000E+00 0.0000E+00 0.9000E+01
       25  2    1    2    0    0 0.44504667E+02 0.37135376E+02 0.15894328E+04 0.16178719E+04 0.29640030E+03 0.0000E+00 0.0000E+00
       23  2    1    2    0    0 -.44504667E+02 -.37135376E+02 0.89486528E+02 0.14115299E+03 0.92502037E+02 0.0000E+00 0.0000E+00
       24  1    3    3    0    0 -.73905675E+02 0.70627920E+02 0.43242609E+03 0.45156383E+03 0.80419002E+02 0.0000E+00 0.9000E+01
      -13  1    4    4    0    0 0.20221198E+02 -.17983100E+02 -.23673858E+01 0.27164396E+02 0.10565837E+00 0.0000E+00 0.9000E+01
       13  1    4    4    0    0 -.64725865E+02 -.19152276E+02 0.91853914E+02 0.11398860E+03 0.10565837E+00 0.0000E+00 0.9000E+01
      -24  1    3    3    0    0 0.11841034E+03 -.33492544E+02 0.11570067E+04 0.11663080E+04 0.80419002E+02 0.0000E+00 0.9000E+01
#aMCatNLO 1  0  0  1  1 0.22297983D+02 0.00000000D+00  -5  7  0 0.00000000D+00 0.00000000D+00 0.00000000D+00 0.00000000D+00 0.00000000D+00
  <mgrwgt>
 0.9481271922D-03    4    2    0
 0.262392089377135D+03 0.000000000000000D+00 0.000000000000000D+00 0.262392089377135D+03
 0.262392089377135D+03 0.000000000000000D+00 0.000000000000000D+00 -.262392089377135D+03
 0.130155389678289D+03 -.739056712287561D+02 0.706279184982462D+02 0.478104557277359D+01
 0.986262708943794D+02 0.202213060180070D+02 -.179830995277556D+02 -.948411736791171D+02
 0.882142791663282D+02 -.647259742703433D+02 -.191522779219870D+02 -.567934640076541D+02
 0.207788239015273D+03 0.118410339481092D+03 -.334925410485036D+02 0.146853592113998D+03
 0.000000000000000D+00 0.000000000000000D+00 0.000000000000000D+00 -.000000000000000D+00
 0.266463345514819D+03 0.000000000000000D+00 0.000000000000000D+00 0.266463345514819D+03
 0.295045035202570D+03 0.000000000000000D+00 0.000000000000000D+00 -.295045035202570D+03
 0.127528910556037D+03 -.743373004720585D+02 0.651729578506080D+02 0.478104557277359D+01
 0.994092044920280D+02 0.198895904175209D+02 -.221753445503931D+02 -.948411736791171D+02
 0.893220486393062D+02 -.650233531590058D+02 -.229105731725136D+02 -.567934640076541D+02
 0.208997520042676D+03 0.117712210329887D+03 -.423155462222363D+02 0.146853592113998D+03
 0.362506969873410D+02 0.175885288365597D+01 0.222285060945350D+02 -.285816896877509D+02
0.193032257301D-04 0.000000000000D+00 0.000000000000D+00 0.143949002248D-07 0.000000000000D+00  7 1 -1 24 -13 13 -24 21 0 0.26445725D+00 0.61619659D-02 0.34527560D+05 0.34527560D+05 0.34527560D+05 0.11617141D+01  1  2  2  1  7  1        1 0.139034444400D-02 0.100000000000D+01
-.917131672395D-06 0.000000000000D+00 -.741294694596D-07 0.143949002248D-07 0.000000000000D+00  7 1 -1 24 -13 13 -24 21 2 0.26445725D+00 0.61619659D-02 0.34527560D+05 0.34527560D+05 0.34527560D+05 0.11617141D+01  1  2  3  1  7  1        1 -.891502861462D-04 0.100000000000D+01
0.114529965776D-05 0.000000000000D+00 0.000000000000D+00 0.143949002248D-07 0.000000000000D+00  7 1 -1 24 -13 13 -24 21 2 0.26445725D+00 0.61619659D-02 0.34527560D+05 0.34527560D+05 0.34527560D+05 0.11617141D+01  1  2 15  1  7  1        1 0.111329480036D-03 0.100000000000D+01
-.477746855658D-05 0.000000000000D+00 0.000000000000D+00 0.143949002248D-07 0.000000000000D+00  7 1 -1 24 -13 13 -24 21 2 0.26445725D+00 0.61619659D-02 0.34527560D+05 0.34527560D+05 0.34527560D+05 0.11617141D+01  1  2  4  1  7  1        1 -.464396445672D-03 0.100000000000D+01
  </mgrwgt>
  </event>
  <event>
  8     66 0.27727860E-05 0.15034531E+03 0.75467711E-02 0.10091846E+00
        1 -1    0    0  501    0 0.00000000E+00 0.00000000E+00 0.51916536E+03 0.51916546E+03 0.32000000E+00 0.0000E+00 0.9000E+01
       -1 -1    0    0    0  501 0.00000000E+00 0.00000000E+00 -.19578426E+03 0.19578452E+03 0.32000000E+00 0.0000E+00 0.9000E+01
       25  2    1    2    0    0 -.20685093E+03 -.42865198E+02 0.31766490E+03 0.48577955E+03 0.30074250E+03 0.0000E+00 0.0000E+00
       23  2    1    2    0    0 0.20685093E+03 0.42865198E+02 0.57162050E+01 0.22917044E+03 0.88666116E+02 0.0000E+00 0.0000E+00
       24  1    3    3    0    0 -.57982857E+02 -.14001082E+03 0.13214708E+03 0.21655278E+03 0.80419002E+02 0.0000E+00 0.9000E+01
      -13  1    4    4    0    0 0.13770751E+03 0.23596463E+02 -.38429392E+02 0.14490335E+03 0.10565837E+00 0.0000E+00 0.9000E+01
       13  1    4    4    0    0 0.69143425E+02 0.19268735E+02 0.44145597E+02 0.84267089E+02 0.10565837E+00 0.0000E+00 0.9000E+01
      -24  1    3    3    0    0 -.14886808E+03 0.97145619E+02 0.18551782E+03 0.26922677E+03 0.80419002E+02 0.0000E+00 0.9000E+01
#aMCatNLO 1  0  0  1  2 0.16475278D+02 0.00000000D+00  -5  7  0 0.00000000D+00 0.00000000D+00 0.00000000D+00 0.00000000D+00 0.00000000D+00
  <mgrwgt>
 0.7120352141D-03    6    2    0
 0.318817402983890D+03 0.000000000000000D+00 0.000000000000000D+00 0.318817402983890D+03
 0.318817402983890D+03 0.000000000000000D+00 0.000000000000000D+00 -.318817402983890D+03
 0.175791124523028D+03 -.579828576642551D+02 -.140010816606317D+03 0.383440080979968D+02
 0.181963225096748D+03 0.137707606772220D+03 0.235964698667438D+02 -.116578029381634D+03
 0.720958179596112D+02 0.691433279991192D+02 0.192687286984253D+02 0.676189727946945D+01
 0.207784638388392D+03 -.148868077107084D+03 0.971456180411478D+02 0.714721240041682D+02
 0.000000000000000D+00 0.000000000000000D+00 -.000000000000000D+00 -.000000000000000D+00
 0.325256401633723D+03 0.000000000000000D+00 0.000000000000000D+00 0.325256401633723D+03
 0.329639589181125D+03 0.000000000000000D+00 0.000000000000000D+00 -.329639589181125D+03
 0.173368547790978D+03 -.601127903528317D+02 -.136035388365525D+03 0.383440080979968D+02
 0.180881009995438D+03 0.135494195950568D+03 0.277277064715738D+02 -.116578029381634D+03
 0.717150164515484D+02 0.682660577371964D+02 0.209061161110697D+02 0.676189727946945D+01
 0.211883041224116D+03 -.151428120491309D+03 0.101923829494442D+03 0.714721240041682D+02
 0.170483753527686D+02 0.778065715637702D+01 -.145222637115605D+02 -.438318754740217D+01
0.783241952636D-05 0.000000000000D+00 0.000000000000D+00 0.221370767954D-06 0.000000000000D+00  7 1 -1 24 -13 13 -24 21 0 0.79871622D-01 0.30120683D-01 0.83566251D+05 0.83566251D+05 0.83566251D+05 0.11281770D+01  1  2  2  1  7  1        1 0.391171540209D-03 0.100000000000D+01
-.430061512106D-06 0.000000000000D+00 -.300785533046D-07 0.221370767954D-06 0.000000000000D+00  7 1 -1 24 -13 13 -24 21 2 0.79871622D-01 0.30120683D-01 0.83566251D+05 0.83566251D+05 0.83566251D+05 0.11281770D+01  1  2  3  1  7  1        1 -.273373482092D-04 0.100000000000D+01
0.513656754330D-06 0.000000000000D+00 0.000000000000D+00 0.221370767954D-06 0.000000000000D+00  7 1 -1 24 -13 13 -24 21 2 0.79871622D-01 0.30120683D-01 0.83566251D+05 0.83566251D+05 0.83566251D+05 0.11281770D+01  1  2 15  1  7  1        1 0.326511746758D-04 0.100000000000D+01
0.129333021149D-04 0.000000000000D+00 0.000000000000D+00 0.221370767954D-06 0.000000000000D+00  7 1 -1 24 -13 13 -24 21 2 0.82804679D-01 0.30120683D-01 0.88420828D+05 0.88420828D+05 0.88420828D+05 0.11261344D+01  1  2 12  1  7  1        1 0.778578966221D-03 0.100000000000D+01
-.769362064119D-05 0.000000000000D+00 0.000000000000D+00 0.221370767954D-06 0.000000000000D+00  7 1 -1 24 -13 13 -24 21 2 0.79871622D-01 0.30120683D-01 0.83566251D+05 0.83566251D+05 0.83566251D+05 0.11281770D+01  1  2  4  1  7  1        1 -.489053729611D-03 0.100000000000D+01
0.153688383022D-06 0.000000000000D+00 0.000000000000D+00 0.221370767954D-06 0.000000000000D+00  7 21 -1 24 -13 13 -24 -1 2 0.82804679D-01 0.30120683D-01 0.88420828D+05 0.88420828D+05 0.88420828D+05 0.11261344D+01  1  2 12  3  7  1        1 0.260246108453D-04 0.100000000000D+01
  </mgrwgt>
  </event>
  <event>
  9     66 0.27727860E-05 0.23913749E+03 0.75467711E-02 0.91616399E-01
       21 -1    0    0  501  502 0.00000000E+00 0.00000000E+00 0.12688067E+04 0.12688070E+04 0.75000000E+00 0.0000E+00 0.9000E+01
       -3 -1    0    0    0  501 0.00000000E+00 0.00000000E+00 -.48104539E+03 0.48104565E+03 0.50000000E+00 0.0000E+00 0.9000E+01
       25  2    1    2    0    0 -.39459106E+02 0.15688234E+03 0.21621379E+03 0.40334375E+03 0.29961424E+03 0.0000E+00 0.0000E+00
       23  2    1    2    0    0 -.61136237E+02 0.43598587E+03 -.83369981E+02 0.45739167E+03 0.91843710E+02 0.0000E+00 0.0000E+00
       24  1    3    3    0    0 -.22838150E+02 0.16191349E+03 0.11347581E+02 0.18257476E+03 0.80419002E+02 0.0000E+00 0.9000E+01
      -13  1    4    4    0    0 -.65368027E+02 0.14949928E+03 -.33396830E+02 0.16654841E+03 0.10565837E+00 0.0000E+00 0.9000E+01
       13  1    4    4    0    0 0.42317896E+01 0.28648658E+03 -.49973151E+02 0.29084325E+03 0.10565837E+00 0.0000E+00 0.9000E+01
      -24  1    3    3    0    0 -.16620956E+02 -.50311493E+01 0.20486621E+03 0.22076899E+03 0.80419002E+02 0.0000E+00 0.9000E+01
       -3  1    1    2    0  502 0.10059534E+03 -.59286821E+03 0.65491754E+03 0.88911719E+03 0.50000000E+00 0.0000E+00 0.9000E+01
#aMCatNLO 2  0  0  1  1 0.60134195D+03 0.00000000D+00  -5  7  0 0.00000000D+00 0.00000000D+00 0.00000000D+00 0.00000000D+00 0.00000000D+00
  <mgrwgt>
 0.2623083023D-05    1    2    0
 0.300668358221997D+03 0.000000000000000D+00 0.000000000000000D+00 0.300668358221997D+03
 0.300668358221997D+03 0.000000000000000D+00 0.000000000000000D+00 -.300668358221997D+03
 0.953714160508664D+02 -.354809834340752D+01 0.482257410157398D+02 -.170346689667050D+02
 0.874410974305810D+02 -.472672363572102D+02 0.428198319418193D+02 -.598181902057421D+02
 0.145600072356410D+03 0.352592541361764D+02 0.103623996544094D+03 -.960116316296205D+02
 0.272924130606136D+03 0.155560805644414D+02 -.194669569501654D+03 0.172864490802068D+03
 0.000000000000000D+00 0.000000000000000D+00 -.000000000000000D+00 0.000000000000000D+00
 0.108599446457465D+04 0.000000000000000D+00 0.000000000000000D+00 0.108599446457465D+04
 0.562023032377243D+03 0.000000000000000D+00 0.000000000000000D+00 -.562023032377243D+03
 0.183016271742455D+03 -.228381498156371D+02 0.161913491514236D+03 -.170346689667050D+02
 0.173784889227879D+03 -.653681185063760D+02 0.149499100088904D+03 -.598181902057421D+02
 0.302176785166740D+03 0.423188112926559D+01 0.286486766304540D+03 -.960116316296205D+02
 0.191444291560214D+03 -.166209558435669D+02 -.503114929313173D+01 0.172864490802068D+03
 0.797595259254603D+03 0.100595343036314D+03 -.592868208614549D+03 0.523971432197405D+03
0.205653515221D-05 0.000000000000D+00 0.000000000000D+00 0.646221584543D-06 0.841712438711D-11  7 21 -3 24 -13 13 -24 -3 2 0.19520105D+00 0.74007011D-01 0.43264811D+06 0.43264811D+06 0.43264811D+06 0.10729798D+01  1  2  1  3  7  1        3 0.262308302334D-05 0.100000000000D+01
  </mgrwgt>
  </event>
  <event>
  8     66 0.27727860E-05 0.32173652E+03 0.75467711E-02 0.87696617E-01
        1 -1    0    0  501    0 0.00000000E+00 0.00000000E+00 0.24912450E+04 0.24912450E+04 0.32000000E+00 0.0000E+00 0.9000E+01
       -1 -1    0    0    0  501 0.00000000E+00 0.00000000E+00 -.55282384E+02 0.55283311E+02 0.32000000E+00 0.0000E+00 0.9000E+01
       25  2    1    2    0    0 -.26882912E+03 0.19013532E+01 0.92012690E+03 0.10043272E+04 0.29961140E+03 0.0000E+00 0.0000E+00
       23  2    1    2    0    0 0.26882912E+03 -.19013532E+01 0.15158357E+04 0.15422011E+04 0.91397829E+02 0.0000E+00 0.0000E+00
       24  1    3    3    0    0 -.20120973E+03 0.77508820E+02 0.78141708E+03 0.81459981E+03 0.80419002E+02 0.0000E+00 0.9000E+01
      -13  1    4    4    0    0 0.27367813E+03 0.69914939E+01 0.14669119E+04 0.14922396E+04 0.10565837E+00 0.0000E+00 0.9000E+01
       13  1    4    4    0    0 -.48490075E+01 -.88928470E+01 0.48923815E+02 0.49961450E+02 0.10565837E+00 0.0000E+00 0.9000E+01
      -24  1    3    3    0    0 -.67619388E+02 -.75607466E+02 0.13870981E+03 0.18972743E+03 0.80419002E+02 0.0000E+00 0.9000E+01
#aMCatNLO 1  0  0  2  1 0.85339502D+03 0.00000000D+00  -5  7  0 0.00000000D+00 0.00000000D+00 0.00000000D+00 0.00000000D+00 0.00000000D+00
  <mgrwgt>
 0.7798719790D-03    5    2    0
 0.371110723056483D+03 0.000000000000000D+00 0.000000000000000D+00 0.371110723056483D+03
 0.371110723056483D+03 0.000000000000000D+00 0.000000000000000D+00 -.371110723056483D+03
 0.230252963526674D+03 -.201209731973477D+03 0.775088196069038D+02 0.749919334004116D+01
 0.305418624897736D+03 0.273678499414392D+03 0.699151505199041D+01 0.135394734424898D+03
 0.108476657106921D+02 -.484937964680052D+01 -.889286823121366D+01 0.388230125497650D+01
 0.195702191977864D+03 -.676193877941146D+02 -.756074664276805D+02 -.146776229019916D+03
 0.000000000000000D+00 -.000000000000000D+00 0.000000000000000D+00 -.000000000000000D+00
 0.738911086080019D+03 0.000000000000000D+00 0.000000000000000D+00 0.738911086080019D+03
 0.161546025458803D+04 0.000000000000000D+00 0.000000000000000D+00 -.161546025458803D+04
 0.238002496900385D+03 -.178865811681578D+03 -.134643069213333D+03 0.749919334004116D+01
 0.490365300616286D+03 0.311651217522245D+03 -.353553266927934D+03 0.135394734424898D+03
 0.261144460285258D+02 -.308564478769578D+01 -.256392438380417D+02 0.388230125497650D+01
 0.376524269324150D+03 -.403142445106030D+02 -.334865360585336D+03 -.146776229019916D+03
 0.122336482779870D+04 -.893855165423685D+02 0.848700940564645D+03 -.876549168508010D+03
0.541249708190D-04 0.000000000000D+00 0.000000000000D+00 0.241463364626D-05 0.000000000000D+00  7 1 -1 24 -13 13 -24 21 0 0.38326853D+00 0.85050550D-02 0.10351439D+06 0.10351439D+06 0.10351439D+06 0.11204931D+01  1  2  2  2  7  2       -1 0.725772497770D-03 0.100000000000D+01
-.293242410180D-05 0.000000000000D+00 -.207854139377D-06 0.241463364626D-05 0.000000000000D+00  7 1 -1 24 -13 13 -24 21 2 0.38326853D+00 0.85050550D-02 0.10351439D+06 0.10351439D+06 0.10351439D+06 0.11204931D+01  1  2  3  2  7  2       -1 -.493682818900D-04 0.100000000000D+01
0.332586673536D-05 0.000000000000D+00 0.000000000000D+00 0.241463364626D-05 0.000000000000D+00  7 1 -1 24 -13 13 -24 21 2 0.38326853D+00 0.85050550D-02 0.10351439D+06 0.10351439D+06 0.10351439D+06 0.11204931D+01  1  2 15  2  7  2       -1 0.559920123486D-04 0.100000000000D+01
0.143706586815D-03 0.000000000000D+00 -.566162260545D-04 0.241463364626D-05 0.000000000000D+00  7 1 -1 24 -13 13 -24 21 2 0.38326853D+00 0.12827853D+00 0.10351439D+06 0.10351439D+06 0.10351439D+06 0.11204931D+01  1  2  5  2  7  2       -1 0.193788678920D-04 0.100000000000D+01
0.313278689307D-04 0.000000000000D+00 -.172930520461D-04 0.241463364626D-05 0.000000000000D+00  7 1 21 24 -13 13 -24 1 2 0.38326853D+00 0.12827853D+00 0.10351439D+06 0.10351439D+06 0.10351439D+06 0.11204931D+01  1  2  5  4  7  2       -1 0.280968829097D-04 0.100000000000D+01
  </mgrwgt>
  </event>
  <event>
  8     66 0.27727860E-05 0.10943112E+04 0.75467711E-02 0.85424488E-01
        1 -1    0    0  501    0 0.00000000E+00 0.00000000E+00 0.13555286E+04 0.13555286E+04 0.32000000E+00 0.0000E+00 0.9000E+01
       -1 -1    0    0    0  501 0.00000000E+00 0.00000000E+00 -.11832056E+04 0.11832057E+04 0.32000000E+00 0.0000E+00 0.9000E+01
       25  2    1    2    0    0 0.12042479E+04 -.13309393E+03 -.20830108E+03 0.12654922E+04 0.30025686E+03 0.0000E+00 0.0000E+00
       23  2    1    2    0    0 -.12042479E+04 0.13309393E+03 0.38062403E+03 0.12732420E+04 0.91343076E+02 0.0000E+00 0.0000E+00
       24  1    3    3    0    0 0.84757050E+02 0.12981325E+00 -.35448130E+02 0.12209652E+03 0.80419002E+02 0.0000E+00 0.9000E+01
      -13  1    4    4    0    0 -.11950823E+04 0.13178431E+03 0.38570713E+03 0.12626793E+04 0.10565837E+00 0.0000E+00 0.9000E+01
       13  1    4    4    0    0 -.91655935E+01 0.13096136E+01 -.50831055E+01 0.10562780E+02 0.10565837E+00 0.0000E+00 0.9000E+01
      -24  1    3    3    0    0 0.11194909E+04 -.13322374E+03 -.17285295E+03 0.11433957E+04 0.80419002E+02 0.0000E+00 0.9000E+01
#aMCatNLO 1  0  0  2  2 0.19152792D+01 0.00000000D+00  -5  7  0 0.00000000D+00 0.00000000D+00 0.00000000D+00 0.00000000D+00 0.00000000D+00
  <mgrwgt>
 0.2165370311D-02   10    2    0
 0.126643955408994D+04 0.000000000000000D+00 0.000000000000000D+00 0.126643955408994D+04
 0.126643955408994D+04 0.000000000000000D+00 0.000000000000000D+00 -.126643955408994D+04
 0.124790459461863D+03 0.847570498308991D+02 0.129813248669972D+00 -.438368391973602D+02
 0.123935844522159D+04 -.119508393290610D+04 0.131784488109998D+03 0.300693527940562D+03
 0.109313799461265D+02 -.916400674071264D+01 0.130943906650935D+01 -.581389863291830D+01
 0.115779882355029D+04 0.111949088981592D+04 -.133223740425178D+03 -.251042790110284D+03
 0.000000000000000D+00 0.000000000000000D+00 -.000000000000000D+00 -.000000000000000D+00
 0.126656415563865D+04 0.000000000000000D+00 0.000000000000000D+00 0.126656415563865D+04
 0.127382141519369D+04 0.000000000000000D+00 0.000000000000000D+00 -.127382141519369D+04
 0.124779126737149D+03 0.847401703525554D+02 0.222649319918102D+00 -.438368391973602D+02
 0.123961850067967D+04 -.119525159691641D+04 0.132706629641253D+03 0.300693527940562D+03
 0.109335968576906D+02 -.916548556434683D+01 0.131757250366134D+01 -.581389863291830D+01
 0.115754860804057D+04 0.111933429278250D+04 -.132362466572073D+03 -.251042790110284D+03
 0.750573851725603D+01 0.342619345702420D+00 -.188438489275940D+01 -.725725955504634D+01
0.361557215976D-02 0.000000000000D+00 0.000000000000D+00 0.466581495046D-04 0.000000000000D+00  7 1 -1 24 -13 13 -24 21 0 0.20854286D+00 0.18203164D+00 0.15112735D+07 0.15112735D+07 0.15112735D+07 0.10361303D+01  1  2  2  2  7  2       -1 0.640434909737D-03 0.100000000000D+01
-.200649212680D-03 0.000000000000D+00 -.138847490955D-04 0.466581495046D-04 0.000000000000D+00  7 1 -1 24 -13 13 -24 21 2 0.20854286D+00 0.18203164D+00 0.15112735D+07 0.15112735D+07 0.15112735D+07 0.10361303D+01  1  2  3  2  7  2       -1 -.381561172925D-04 0.100000000000D+01
0.227209683361D-03 0.000000000000D+00 0.000000000000D+00 0.466581495046D-04 0.000000000000D+00  7 1 -1 24 -13 13 -24 21 2 0.20854286D+00 0.18203164D+00 0.15112735D+07 0.15112735D+07 0.15112735D+07 0.10361303D+01  1  2 15  2  7  2       -1 0.432069441616D-04 0.100000000000D+01
-.200683818755D+01 0.000000000000D+00 0.000000000000D+00 0.466581495046D-04 0.000000000000D+00  7 1 -1 24 -13 13 -24 21 2 0.20854286D+00 0.18203164D+00 0.15112735D+07 0.15112735D+07 0.15112735D+07 0.10361303D+01  1  2  4  2  7  2       -1 -.381626980981D+00 0.100000000000D+01
-.260620811902D+01 0.000000000000D+00 -.659066425465D-01 0.466581495046D-04 0.000000000000D+00  7 1 -1 24 -13 13 -24 21 2 0.20854286D+00 0.18310018D+00 0.15112735D+07 0.15112735D+07 0.15112735D+07 0.10361303D+01  1  2  5  2  7  2       -1 -.485629853951D+00 0.100000000000D+01
0.260655034623D+01 0.000000000000D+00 0.659055137063D-01 0.466581495046D-04 0.000000000000D+00  7 1 -1 24 -13 13 -24 21 2 0.20854286D+00 0.18203164D+00 0.15112735D+07 0.15112735D+07 0.15112735D+07 0.10361303D+01  1  2  6  2  7  2       -1 0.495670226717D+00 0.100000000000D+01
0.200687230208D+01 0.000000000000D+00 0.000000000000D+00 0.466581495046D-04 0.728218457266D-04  7 1 -1 24 -13 13 -24 21 2 0.20856338D+00 0.18309267D+00 0.15136317D+07 0.15136317D+07 0.15136317D+07 0.10360868D+01  1  2 11  2  7  2       -1 0.373848574086D+00 0.100000000000D+01
0.204004918266D-05 0.000000000000D+00 0.000000000000D+00 0.466581495046D-04 0.000000000000D+00  7 1 21 24 -13 13 -24 1 2 0.20854286D+00 0.18310160D+00 0.15136317D+07 0.15136317D+07 0.15136317D+07 0.10360868D+01  1  2 12  4  7  2       -1 0.228720519063D-05 0.100000000000D+01
-.283592321940D-02 0.000000000000D+00 -.716961001937D-04 0.466581495046D-04 0.000000000000D+00  7 1 21 24 -13 13 -24 1 2 0.20854286D+00 0.18310018D+00 0.15112735D+07 0.15112735D+07 0.15112735D+07 0.10361303D+01  1  2  5  4  7  2       -1 -.318035222465D-02 0.100000000000D+01
0.217286677272D-02 0.000000000000D+00 0.000000000000D+00 0.466581495046D-04 0.786718942225D-07  7 1 21 24 -13 13 -24 1 2 0.20856338D+00 0.18309267D+00 0.15136317D+07 0.15136317D+07 0.15136317D+07 0.10360868D+01  1  2 11  4  7  2       -1 0.243598372269D-02 0.100000000000D+01
  </mgrwgt>
  </event>
  <event>
  8     66 0.27727860E-05 0.10741926E+03 0.75467711E-02 0.10421186E+00
        1 -1    0    0  501    0 0.00000000E+00 0.00000000E+00 0.27473530E+03 0.27473548E+03 0.32000000E+00 0.0000E+00 0.9000E+01
       -1 -1    0    0    0  501 0.00000000E+00 0.00000000E+00 -.20264883E+03 0.20264908E+03 0.32000000E+00 0.0000E+00 0.9000E+01
       25  2    1    2    0    0 -.10001663E+03 0.45755032E+01 0.11373020E+03 0.33567930E+03 0.29953593E+03 0.0000E+00 0.0000E+00
       23  2    1    2    0    0 0.10001663E+03 -.45755032E+01 -.41643733E+02 0.14170526E+03 0.91224548E+02 0.0000E+00 0.0000E+00
       24  1    3    3    0    0 -.76614958E+02 -.81270507E+02 0.15644268E+03 0.20836572E+03 0.80419002E+02 0.0000E+00 0.9000E+01
      -13  1    4    4    0    0 0.90659239E+02 -.29806351E+01 -.68210751E+02 0.11349317E+03 0.10565837E+00 0.0000E+00 0.9000E+01
       13  1    4    4    0    0 0.93573923E+01 -.15948681E+01 0.26567018E+02 0.28212090E+02 0.10565837E+00 0.0000E+00 0.9000E+01
      -24  1    3    3    0    0 -.23401673E+02 0.85846010E+02 -.42712475E+02 0.12731358E+03 0.80419002E+02 0.0000E+00 0.9000E+01
#aMCatNLO 1  0  0  2  1 0.99644973D+02 0.00000000D+00  -5  7  0 0.00000000D+00 0.00000000D+00 0.00000000D+00 0.00000000D+00 0.00000000D+00
  <mgrwgt>
 0.5284134797D-03    9    2    0
 0.235955270934304D+03 0.000000000000000D+00 0.000000000000000D+00 0.235955270934304D+03
 0.235955270934304D+03 0.000000000000000D+00 0.000000000000000D+00 -.235955270934304D+03
 0.186885379898114D+03 -.766149638082992D+02 -.812705069178762D+02 0.126428562007389D+03
 0.125229294426974D+03 0.906593544651062D+02 -.298063754259411D+01 -.863387133937475D+02
 0.244809670140418D+02 0.935728645878429D+01 -.159486611851451D+01 0.225658001882244D+02
 0.135314900529479D+03 -.234016771155912D+02 0.858460105789848D+02 -.626556488018658D+02
 0.000000000000000D+00 0.000000000000000D+00 -.000000000000000D+00 -.000000000000000D+00
 0.284459918875919D+03 0.000000000000000D+00 0.000000000000000D+00 0.284459918875919D+03
 0.298482892758545D+03 0.000000000000000D+00 0.000000000000000D+00 -.298482892758545D+03
 0.183219761463257D+03 -.944071819820653D+02 -.469613429879442D+02 0.126428562007389D+03
 0.118619125759796D+03 0.789367280856607D+02 0.196243859690194D+02 -.863387133937475D+02
 0.238122173580387D+02 0.703566814920507D+01 0.288196652754252D+01 0.225658001882244D+02
 0.156664850040468D+03 -.374381409305856D+02 0.112912862689380D+03 -.626556488018658D+02
 0.100626857012904D+03 0.458729266777851D+02 -.884578721979973D+02 -.140229738826265D+02
0.404992865869D-05 0.000000000000D+00 0.000000000000D+00 0.895876425042D-06 0.000000000000D+00  7 1 -1 24 -13 13 -24 21 0 0.42267002D-01 0.31176776D-01 0.31999007D+05 0.31999007D+05 0.31999007D+05 0.11647455D+01  1  2  2  2  7  2       -1 0.444958743612D-03 0.100000000000D+01
-.204019175529D-06 0.000000000000D+00 -.155527924201D-07 0.895876425042D-06 0.000000000000D+00  7 1 -1 24 -13 13 -24 21 2 0.42267002D-01 0.31176776D-01 0.31999007D+05 0.31999007D+05 0.31999007D+05 0.11647455D+01  1  2  3  2  7  2       -1 -.304092318870D-04 0.100000000000D+01
0.260734627817D-06 0.000000000000D+00 0.000000000000D+00 0.895876425042D-06 0.000000000000D+00  7 1 -1 24 -13 13 -24 21 2 0.42267002D-01 0.31176776D-01 0.31999007D+05 0.31999007D+05 0.31999007D+05 0.11647455D+01  1  2 15  2  7  2       -1 0.388627183581D-04 0.100000000000D+01
0.100094033181D-05 0.000000000000D+00 0.000000000000D+00 0.895876425042D-06 0.000000000000D+00  7 1 -1 24 -13 13 -24 21 2 0.42267002D-01 0.41918961D-01 0.54006821D+05 0.54006821D+05 0.54006821D+05 0.11443622D+01  1  2 12  2  7  2       -1 0.873854365531D-04 0.100000000000D+01
-.181559228378D-05 0.000000000000D+00 0.000000000000D+00 0.895876425042D-06 0.000000000000D+00  7 1 -1 24 -13 13 -24 21 2 0.42267002D-01 0.31176776D-01 0.31999007D+05 0.31999007D+05 0.31999007D+05 0.11647455D+01  1  2  4  2  7  2       -1 -.270615576337D-03 0.100000000000D+01
-.263771528795D-05 0.000000000000D+00 -.165562665039D-05 0.895876425042D-06 0.000000000000D+00  7 1 -1 24 -13 13 -24 21 2 0.42267002D-01 0.46813322D-01 0.31999007D+05 0.31999007D+05 0.31999007D+05 0.11647455D+01  1  2  5  2  7  2       -1 -.197306136196D-03 0.100000000000D+01
0.317290809287D-05 0.000000000000D+00 0.152766519473D-05 0.895876425042D-06 0.000000000000D+00  7 1 -1 24 -13 13 -24 21 2 0.42267002D-01 0.31176776D-01 0.31999007D+05 0.31999007D+05 0.31999007D+05 0.11647455D+01  1  2  6  2  7  2       -1 0.472924653783D-03 0.100000000000D+01
0.383240484226D-07 0.000000000000D+00 0.000000000000D+00 0.895876425042D-06 0.000000000000D+00  7 1 21 24 -13 13 -24 1 2 0.42267002D-01 0.41918961D-01 0.54006821D+05 0.54006821D+05 0.54006821D+05 0.11443622D+01  1  2 12  4  7  2       -1 0.335237166474D-04 0.100000000000D+01
-.692987487661D-07 0.000000000000D+00 -.797461537501D-07 0.895876425042D-06 0.000000000000D+00  7 1 21 24 -13 13 -24 1 2 0.42267002D-01 0.46813322D-01 0.31999007D+05 0.31999007D+05 0.31999007D+05 0.11647455D+01  1  2  5  4  7  2       -1 -.509108448492D-04 0.100000000000D+01
  </mgrwgt>
  </event>
  <event>
  8     66 0.27727860E-05 0.23215267E+03 0.75467711E-02 0.93853789E-01
        1 -1    0    0  501    0 0.00000000E+00 0.00000000E+00 0.11683247E+03 0.11683291E+03 0.32000000E+00 0.0000E+00 0.9000E+01
       -1 -1    0    0    0  501 0.00000000E+00 0.00000000E+00 -.56918122E+03 0.56918131E+03 0.32000000E+00 0.0000E+00 0.9000E+01
       25  2    1    2    0    0 0.44600463E+02 -.14733432E+03 -.28944469E+03 0.44371685E+03 0.29901472E+03 0.0000E+00 0.0000E+00
       23  2    1    2    0    0 -.44600463E+02 0.14733432E+03 -.16290405E+03 0.24229737E+03 0.92052612E+02 0.0000E+00 0.0000E+00
       24  1    3    3    0    0 -.75165195E+02 -.10814013E+03 -.51436501E+02 0.16265615E+03 0.80419002E+02 0.0000E+00 0.9000E+01
      -13  1    4    4    0    0 -.25206498E+02 0.13541793E+03 -.86681392E+02 0.16274845E+03 0.10565837E+00 0.0000E+00 0.9000E+01
       13  1    4    4    0    0 -.19393965E+02 0.11916392E+02 -.76222657E+02 0.79548922E+02 0.10565837E+00 0.0000E+00 0.9000E+01
      -24  1    3    3    0    0 0.11976566E+03 -.39194188E+02 -.23800819E+03 0.28106069E+03 0.80419002E+02 0.0000E+00 0.9000E+01
#aMCatNLO 1  0  0  2  1 0.43882822D+03 0.00000000D+00  -5  7  0 0.00000000D+00 0.00000000D+00 0.00000000D+00 0.00000000D+00 0.00000000D+00
  <mgrwgt>
 0.6199188575D-03    3    2    0
 0.257874057735547D+03 0.000000000000000D+00 0.000000000000000D+00 0.257874057735547D+03
 0.257874057735547D+03 0.000000000000000D+00 0.000000000000000D+00 -.257874057735547D+03
 0.171240949976771D+03 -.751651942254277D+02 -.108140134027782D+03 0.742438683265066D+02
 0.140451506662436D+03 -.252065093036568D+02 0.135418091452929D+03 0.274444551725678D+02
 0.389577708348687D+02 -.193939559030491D+02 0.119162340467905D+02 -.316162260397228D+02
 0.165097887997019D+03 0.119765659432134D+03 -.391941914719378D+02 -.700720974593516D+02
 0.000000000000000D+00 0.000000000000000D+00 -.000000000000000D+00 0.000000000000000D+00
 0.558364377824727D+03 0.000000000000000D+00 0.000000000000000D+00 0.558364377824727D+03
 0.557639690954975D+03 0.000000000000000D+00 0.000000000000000D+00 -.557639690954975D+03
 0.197772847218207D+03 -.164615630606542D+03 -.603533912489155D+01 0.742438683265066D+02
 0.285212323236573D+03 -.128389142651116D+03 0.253197747335153D+03 0.274444551725678D+02
 0.696515584341427D+02 -.457212964307530D+02 0.419680461303736D+02 -.316162260397228D+02
 0.124538523987389D+03 0.495566221527594D+02 0.409471654823963D+02 -.700720974593516D+02
 0.438828815903389D+03 0.289169447535652D+03 -.330077619823031D+03 0.724686869752198D+00
0.120567250931D-04 0.000000000000D+00 0.000000000000D+00 0.168625289153D-06 0.000000000000D+00  7 1 -1 24 -13 13 -24 21 0 0.17974267D-01 0.87566381D-01 0.53894864D+05 0.53894864D+05 0.53894864D+05 0.11444409D+01  1  2  2  2  7  2       -1 0.612113236492D-03 0.100000000000D+01
-.660826271683D-06 0.000000000000D+00 -.463009989663D-07 0.168625289153D-06 0.000000000000D+00  7 1 -1 24 -13 13 -24 21 2 0.17974267D-01 0.87566381D-01 0.53894864D+05 0.53894864D+05 0.53894864D+05 0.11444409D+01  1  2  3  2  7  2       -1 -.439416574899D-04 0.100000000000D+01
0.778212818533D-06 0.000000000000D+00 0.000000000000D+00 0.168625289153D-06 0.000000000000D+00  7 1 -1 24 -13 13 -24 21 2 0.17974267D-01 0.87566381D-01 0.53894864D+05 0.53894864D+05 0.53894864D+05 0.11444409D+01  1  2 15  2  7  2       -1 0.517472785080D-04 0.100000000000D+01
  </mgrwgt>
  </event>
  <event>
  8     66 0.27727860E-05 0.29303872E+03 0.75467711E-02 0.98232492E-01
        1 -1    0    0  501    0 0.00000000E+00 0.00000000E+00 0.45882544E+03 0.45882555E+03 0.32000000E+00 0.0000E+00 0.9000E+01
       -1 -1    0    0    0  501 0.00000000E+00 0.00000000E+00 -.26245650E+03 0.26245669E+03 0.32000000E+00 0.0000E+00 0.9000E+01
       25  2    1    2    0    0 0.21328966E+03 -.58793112E+02 -.51678755E+02 0.37718582E+03 0.30108029E+03 0.0000E+00 0.0000E+00
       23  2    1    2    0    0 -.21328966E+03 0.58793112E+02 0.24804770E+03 0.34409642E+03 0.89025726E+02 0.0000E+00 0.0000E+00
       24  1    3    3    0    0 0.38788458E+01 -.91683670E+02 0.45892238E+02 0.13036201E+03 0.80419002E+02 0.0000E+00 0.9000E+01
      -11  1    4    4    0    0 -.21497490E+02 -.20591678E+02 0.43215728E+02 0.52476265E+02 0.51099893E-03 0.0000E+00 0.9000E+01
       11  1    4    4    0    0 -.19179217E+03 0.79384789E+02 0.20483197E+03 0.29162016E+03 0.51099893E-03 0.0000E+00 0.9000E+01
      -24  1    3    3    0    0 0.20941082E+03 0.32890559E+02 -.97570992E+02 0.24682381E+03 0.80419002E+02 0.0000E+00 0.9000E+01
#aMCatNLO 1  0  0  1  1 0.13961812D+03 0.00000000D+00  -5  7  0 0.00000000D+00 0.00000000D+00 0.00000000D+00 0.00000000D+00 0.00000000D+00
  <mgrwgt>
 0.7877238878D-03    4    2    0
 0.347018486360623D+03 0.000000000000000D+00 0.000000000000000D+00 0.347018486360623D+03
 0.347018486360623D+03 0.000000000000000D+00 0.000000000000000D+00 -.347018486360623D+03
 0.122494907944969D+03 0.387884578627030D+01 -.916836701084704D+02 0.108095193641300D+02
 0.423089442516956D+02 -.214974896958494D+02 -.205916777766047D+02 0.300647219646952D+02
 0.245113465332522D+03 -.191792172888131D+03 0.793847893328622D+02 0.130362680736259D+03
 0.284119655192060D+03 0.209410816797710D+03 0.328905585522128D+02 -.171236922065084D+03
 0.000000000000000D+00 0.000000000000000D+00 0.000000000000000D+00 -.000000000000000D+00
 0.398622990255948D+03 0.000000000000000D+00 0.000000000000000D+00 0.398622990255948D+03
 0.463109079573424D+03 0.000000000000000D+00 0.000000000000000D+00 -.463109079573424D+03
 0.134425559573615D+03 -.175035485233573D+02 -.105734550609136D+03 0.108095193641300D+02
 0.490455405818399D+02 -.291005336865826D+02 -.255878190416172D+02 0.300647219646952D+02
 0.273497822388969D+03 -.234953977607650D+03 0.510221395975155D+02 0.130362680736259D+03
 0.250972134008463D+03 0.164877410257408D+03 0.362659659713735D+01 -.171236922065084D+03
 0.153791013276485D+03 0.116680649560182D+03 0.766736334561005D+02 -.644860893174760D+02
0.302134326818D-04 0.000000000000D+00 0.000000000000D+00 0.161085092071D-06 0.000000000000D+00  7 1 -1 24 -11 11 -24 21 0 0.70588553D-01 0.40377947D-01 0.85871690D+05 0.85871690D+05 0.85871690D+05 0.11271912D+01  1  2  2  1  7  1        1 0.108724073678D-02 0.100000000000D+01
-.162018501148D-05 0.000000000000D+00 -.116027536878D-06 0.161085092071D-06 0.000000000000D+00  7 1 -1 24 -11 11 -24 21 2 0.70588553D-01 0.40377947D-01 0.85871690D+05 0.85871690D+05 0.85871690D+05 0.11271912D+01  1  2  3  1  7  1        1 -.740773462118D-04 0.100000000000D+01
0.194781932741D-05 0.000000000000D+00 0.000000000000D+00 0.161085092071D-06 0.000000000000D+00  7 1 -1 24 -11 11 -24 21 2 0.70588553D-01 0.40377947D-01 0.85871690D+05 0.85871690D+05 0.85871690D+05 0.11271912D+01  1  2 15  1  7  1        1 0.890572901565D-04 0.100000000000D+01
-.687852651423D-05 0.000000000000D+00 0.000000000000D+00 0.161085092071D-06 0.000000000000D+00  7 1 -1 24 -11 11 -24 21 2 0.70588553D-01 0.40377947D-01 0.85871690D+05 0.85871690D+05 0.85871690D+05 0.11271912D+01  1  2  4  1  7  1        1 -.314496792904D-03 0.100000000000D+01
  </mgrwgt>
  </event>
  <event>
  8     66 0.27727860E-05 0.17808075E+03 0.75467711E-02 0.91144327E-01
        1 -1    0    0  501    0 0.00000000E+00 0.00000000E+00 0.16317316E+04 0.16317316E+04 0.32000000E+00 0.0000E+00 0.9000E+01
       -1 -1    0    0    0  501 0.00000000E+00 0.00000000E+00 -.22878366E+03 0.22878388E+03 0.32000000E+00 0.0000E+00 0.9000E+01
       25  2    1    2    0    0 0.52825187E+03 -.20663041E+03 0.64448605E+03 0.90933259E+03 0.29962864E+03 0.0000E+00 0.0000E+00
       23  2    1    2    0    0 -.52825187E+03 0.20663041E+03 0.75846186E+03 0.95118290E+03 0.87967948E+02 0.0000E+00 0.0000E+00
       24  1    3    3    0    0 0.32946862E+03 -.90155108E+01 0.42800180E+03 0.54615347E+03 0.80419002E+02 0.0000E+00 0.9000E+01
      -13  1    4    4    0    0 -.19249059E+02 0.15792961E+02 0.11680175E+02 0.27502392E+02 0.10565837E+00 0.0000E+00 0.9000E+01
       13  1    4    4    0    0 -.50900281E+03 0.19083745E+03 0.74678169E+03 0.92368051E+03 0.10565837E+00 0.0000E+00 0.9000E+01
      -24  1    3    3    0    0 0.19878324E+03 -.19761490E+03 0.21648425E+03 0.36317911E+03 0.80419002E+02 0.0000E+00 0.9000E+01
#aMCatNLO 1  0  0  1  2 0.16503301D+03 0.00000000D+00  -5  7  0 0.00000000D+00 0.00000000D+00 0.00000000D+00 0.00000000D+00 0.00000000D+00
  <mgrwgt>
 0.1340099089D-02    9    2    0
 0.610994075622228D+03 0.000000000000000D+00 0.000000000000000D+00 0.610994075622228D+03
 0.610994075622228D+03 0.000000000000000D+00 0.000000000000000D+00 -.610994075622228D+03
 0.340152852819698D+03 0.329468624747123D+03 -.901551083578126D+01 0.246148978997996D+02
 0.284626578992701D+02 -.192483526909462D+02 0.157927083273887D+02 -.137918155825059D+02
 0.548963594681521D+03 -.509003513333541D+03 0.190837699766858D+03 0.765338098324150D+02
 0.304409045843968D+03 0.198783241277364D+03 -.197614897258465D+03 -.873568921497087D+02
 0.000000000000000D+00 -.000000000000000D+00 -.000000000000000D+00 0.000000000000000D+00
 0.871150859860868D+03 0.000000000000000D+00 0.000000000000000D+00 0.871150859860868D+03
 0.643283711025785D+03 0.000000000000000D+00 0.000000000000000D+00 -.643283711025785D+03
 0.386790906569827D+03 0.377536816039790D+03 -.220877020335855D+00 0.246148978997996D+02
 0.265478137201723D+02 -.156108582647972D+02 0.164582301750681D+02 -.137918155825059D+02
 0.490965909526206D+03 -.440239555058249D+03 0.203418864492813D+03 0.765338098324150D+02
 0.328777256175616D+03 0.240651845135981D+03 -.189954549960217D+03 -.873568921497087D+02
 0.281352684894832D+03 -.162338247852724D+03 -.297016676873286D+02 0.227867148835083D+03
0.206086445073D-03 0.000000000000D+00 0.000000000000D+00 0.110234891885D-05 0.000000000000D+00  7 1 -1 24 -13 13 -24 21 0 0.25103565D+00 0.35197506D-01 0.35962015D+06 0.35962015D+06 0.35962015D+06 0.10787752D+01  1  2  2  1  7  1        1 0.100649596079D-02 0.100000000000D+01
-.114443866160D-04 0.000000000000D+00 -.791426212887D-06 0.110234891885D-05 0.000000000000D+00  7 1 -1 24 -13 13 -24 21 2 0.25103565D+00 0.35197506D-01 0.35962015D+06 0.35962015D+06 0.35962015D+06 0.10787752D+01  1  2  3  1  7  1        1 -.650454696003D-04 0.100000000000D+01
0.129343204930D-04 0.000000000000D+00 0.000000000000D+00 0.110234891885D-05 0.000000000000D+00  7 1 -1 24 -13 13 -24 21 2 0.25103565D+00 0.35197506D-01 0.35962015D+06 0.35962015D+06 0.35962015D+06 0.10787752D+01  1  2 15  1  7  1        1 0.735136778107D-04 0.100000000000D+01
0.295463420385D-03 0.000000000000D+00 0.000000000000D+00 0.110234891885D-05 0.000000000000D+00  7 1 -1 24 -13 13 -24 21 2 0.36237193D+00 0.35197506D-01 0.47310151D+06 0.47310151D+06 0.47310151D+06 0.10702118D+01  1  2 12  1  7  1        1 0.532162075414D-03 0.100000000000D+01
-.304738512135D-03 0.000000000000D+00 0.000000000000D+00 0.110234891885D-05 0.000000000000D+00  7 1 -1 24 -13 13 -24 21 2 0.25103565D+00 0.35197506D-01 0.35962015D+06 0.35962015D+06 0.35962015D+06 0.10787752D+01  1  2  4  1  7  1        1 -.173201590371D-02 0.100000000000D+01
-.388775243433D-03 0.000000000000D+00 -.748800400022D-04 0.110234891885D-05 0.000000000000D+00  7 1 -1 24 -13 13 -24 21 2 0.36375001D+00 0.35197506D-01 0.35962015D+06 0.35962015D+06 0.35962015D+06 0.10787752D+01  1  2  5  1  7  1        1 -.712806248412D-03 0.100000000000D+01
0.394007296086D-03 0.000000000000D+00 0.700098148033D-04 0.110234891885D-05 0.000000000000D+00  7 1 -1 24 -13 13 -24 21 2 0.25103565D+00 0.35197506D-01 0.35962015D+06 0.35962015D+06 0.35962015D+06 0.10787752D+01  1  2  6  1  7  1        1 0.223938516408D-02 0.100000000000D+01
0.132107645759D-04 0.000000000000D+00 0.000000000000D+00 0.110234891885D-05 0.000000000000D+00  7 21 -1 24 -13 13 -24 -1 2 0.36237193D+00 0.35197506D-01 0.47310151D+06 0.47310151D+06 0.47310151D+06 0.10702118D+01  1  2 12  3  7  1        1 0.885228164847D-05 0.100000000000D+01
-.152115729439D-04 0.000000000000D+00 -.337309271802D-05 0.110234891885D-05 0.000000000000D+00  7 21 -1 24 -13 13 -24 -1 2 0.36375001D+00 0.35197506D-01 0.35962015D+06 0.35962015D+06 0.35962015D+06 0.10787752D+01  1  2  5  3  7  1        1 -.104424489545D-04 0.100000000000D+01
  </mgrwgt>
  </event>
  <event>
  8     66 0.27727860E-05 0.77269254E+03 0.75467711E-02 0.88679651E-01
        3 -1    0    0  501    0 0.00000000E+00 0.00000000E+00 0.10760364E+04 0.10760365E+04 0.50000000E+00 0.0000E+00 0.9000E+01
       -3 -1    0    0    0  501 0.00000000E+00 0.00000000E+00 -.83848862E+03 0.83848877E+03 0.50000000E+00 0.0000E+00 0.9000E+01
       25  2    1    2    0    0 0.75137905E+03 0.85054048E+02 0.65615637E+03 0.10452355E+04 0.30028546E+03 0.0000E+00 0.0000E+00
       23  2    1    2    0    0 -.75137905E+03 -.85054048E+02 -.41860863E+03 0.86928977E+03 0.92880857E+02 0.0000E+00 0.0000E+00
       24  1    3    3    0    0 0.61168105E+03 0.88571073E+02 0.62177472E+03 0.88038035E+03 0.80419002E+02 0.0000E+00 0.9000E+01
      -13  1    4    4    0    0 -.18532018E+03 -.57981860E+02 -.12627402E+03 0.23162600E+03 0.10565837E+00 0.0000E+00 0.9000E+01
       13  1    4    4    0    0 -.56605887E+03 -.27072188E+02 -.29233461E+03 0.63766377E+03 0.10565837E+00 0.0000E+00 0.9000E+01
      -24  1    3    3    0    0 0.13969800E+03 -.35170252E+01 0.34381656E+02 0.16485513E+03 0.80419002E+02 0.0000E+00 0.9000E+01
#aMCatNLO 1  0  0  2  2 0.19649815D+03 0.00000000D+00  -5  7  0 0.00000000D+00 0.00000000D+00 0.00000000D+00 0.00000000D+00 0.00000000D+00
  <mgrwgt>
 0.2196345717D-04    4    2    0
 0.949865516972120D+03 0.000000000000000D+00 0.000000000000000D+00 0.949865516972120D+03
 0.949865516972120D+03 0.000000000000000D+00 0.000000000000000D+00 -.949865516972120D+03
 0.809487869516776D+03 0.611681053935996D+03 0.885710729432171D+02 0.516531555893611D+03
 0.249218898640911D+03 -.185319684523779D+03 -.579819002366137D+02 -.156220271452673D+03
 0.679184500730715D+03 -.566059365880980D+03 -.270721475511607D+02 -.374346736540098D+03
 0.161839765055838D+03 0.139697996468763D+03 -.351702515544273D+01 0.140354520991601D+02
 0.000000000000000D+00 0.000000000000000D+00 -.000000000000000D+00 0.000000000000000D+00
 0.123145293236167D+04 0.000000000000000D+00 0.000000000000000D+00 0.123145293236167D+04
 0.989841649836527D+03 0.000000000000000D+00 0.000000000000000D+00 -.989841649836527D+03
 0.767313201760618D+03 0.545142602250719D+03 0.135340417537409D+03 0.516531555893611D+03
 0.262781852612625D+03 -.206925287076110D+03 -.427954953031984D+02 -.156220271452673D+03
 0.729098808154869D+03 -.625486640896435D+03 0.146988079354184D+02 -.374346736540098D+03
 0.150672500625294D+03 0.126510484949485D+03 0.575237103523321D+01 0.140354520991601D+02
 0.311428219044793D+03 0.160758840772341D+03 -.112996101204862D+03 0.241611282525145D+03
0.702200148659D-03 0.000000000000D+00 0.000000000000D+00 0.494657269784D-05 0.000000000000D+00  7 3 -3 24 -13 13 -24 21 0 0.16554408D+00 0.12899827D+00 0.59705376D+06 0.59705376D+06 0.59705376D+06 0.10631076D+01  1  2  2  2  7  2       -3 0.248626245405D-04 0.100000000000D+01
-.369897102993D-04 0.000000000000D+00 -.269663346440D-05 0.494657269784D-05 0.000000000000D+00  7 3 -3 24 -13 13 -24 21 2 0.16554408D+00 0.12899827D+00 0.59705376D+06 0.59705376D+06 0.59705376D+06 0.10631076D+01  1  2  3  2  7  2       -3 -.148020353856D-05 0.100000000000D+01
0.430204259733D-04 0.000000000000D+00 0.000000000000D+00 0.494657269784D-05 0.000000000000D+00  7 3 -3 24 -13 13 -24 21 2 0.16554408D+00 0.12899827D+00 0.59705376D+06 0.59705376D+06 0.59705376D+06 0.10631076D+01  1  2 15  2  7  2       -3 0.172153245432D-05 0.100000000000D+01
-.784797797504D-04 0.000000000000D+00 0.000000000000D+00 0.494657269784D-05 0.000000000000D+00  7 3 -3 24 -13 13 -24 21 2 0.16554408D+00 0.12899827D+00 0.59705376D+06 0.59705376D+06 0.59705376D+06 0.10631076D+01  1  2  4  2  7  2       -3 -.314049628268D-05 0.100000000000D+01
  </mgrwgt>
  </event>
  <event>
  8     66 0.27727860E-05 0.32373386E+03 0.75467711E-02 0.91196076E-01
        1 -1    0    0  501    0 0.00000000E+00 0.00000000E+00 0.31287171E+03 0.31287187E+03 0.32000000E+00 0.0000E+00 0.9000E+01
       -1 -1    0    0    0  501 0.00000000E+00 0.00000000E+00 -.14432955E+04 0.14432955E+04 0.32000000E+00 0.0000E+00 0.9000E+01
       25  2    1    2    0    0 -.36370886E+03 0.40368209E+03 -.16252784E+03 0.64247154E+03 0.30184600E+03 0.0000E+00 0.0000E+00
       23  2    1    2    0    0 0.36370886E+03 -.40368209E+03 -.96789594E+03 0.11136959E+04 0.90843463E+02 0.0000E+00 0.0000E+00
       24  1    3    3    0    0 -.96226644E+02 -.36837341E+01 -.11565107E+02 0.12599248E+03 0.80419002E+02 0.0000E+00 0.9000E+01
      -11  1    4    4    0    0 0.11217320E+03 -.14766408E+03 -.41467810E+03 0.45425260E+03 0.51099893E-03 0.0000E+00 0.9000E+01
       11  1    4    4    0    0 0.25153567E+03 -.25601802E+03 -.55321785E+03 0.65944325E+03 0.51099893E-03 0.0000E+00 0.9000E+01
      -24  1    3    3    0    0 -.26748222E+03 0.40736583E+03 -.15096273E+03 0.51647906E+03 0.80419002E+02 0.0000E+00 0.9000E+01
#aMCatNLO 1  0  0  2  1 0.19597877D+03 0.00000000D+00  -5  7  0 0.00000000D+00 0.00000000D+00 0.00000000D+00 0.00000000D+00 0.00000000D+00
  <mgrwgt>
 0.5009207191D-03    9    2    0
 0.671986976720845D+03 0.000000000000000D+00 0.000000000000000D+00 0.671986976720845D+03
 0.671986976720845D+03 0.000000000000000D+00 0.000000000000000D+00 -.671986976720845D+03
 0.154906581074412D+03 -.962266441309451D+02 -.368373408324811D+01 0.908608604862031D+02
 0.244782743908507D+03 0.112173198864585D+03 -.147664076188247D+03 -.159784497919340D+03
 0.396378311041652D+03 0.251535665451815D+03 -.256018017038461D+03 -.168227076957424D+03
 0.547906317417119D+03 -.267482220185455D+03 0.407365827309956D+03 0.237150714390561D+03
 0.000000000000000D+00 0.000000000000000D+00 -.000000000000000D+00 -.000000000000000D+00
 0.722057439951211D+03 0.000000000000000D+00 0.000000000000000D+00 0.722057439951211D+03
 0.902583366944616D+03 0.000000000000000D+00 0.000000000000000D+00 -.902583366944616D+03
 0.167514351831688D+03 -.115039105907769D+03 0.102054034152451D+02 0.908608604862031D+02
 0.221422940574671D+03 0.849712534436524D+02 -.127581028862496D+03 -.159784497919340D+03
 0.348888224754343D+03 0.208051211474718D+03 -.223913682821083D+03 -.168227076957424D+03
 0.620362123428014D+03 -.335647786206163D+03 0.457692091376607D+03 0.237150714390561D+03
 0.266453166307111D+03 0.157664427195562D+03 -.116402783108273D+03 -.180525926993406D+03
0.371795955148D-03 0.000000000000D+00 0.000000000000D+00 0.103725274234D-05 0.000000000000D+00  7 1 -1 24 -11 11 -24 21 0 0.48134124D-01 0.22204547D+00 0.33856795D+06 0.33856795D+06 0.33856795D+06 0.10806871D+01  1  2  2  2  7  2       -1 0.350941855978D-03 0.100000000000D+01
-.201345774907D-04 0.000000000000D+00 -.142779436389D-05 0.103725274234D-05 0.000000000000D+00  7 1 -1 24 -11 11 -24 21 2 0.48134124D-01 0.22204547D+00 0.33856795D+06 0.33856795D+06 0.33856795D+06 0.10806871D+01  1  2  3  2  7  2       -1 -.221959114955D-04 0.100000000000D+01
0.229818441244D-04 0.000000000000D+00 0.000000000000D+00 0.103725274234D-05 0.000000000000D+00  7 1 -1 24 -11 11 -24 21 2 0.48134124D-01 0.22204547D+00 0.33856795D+06 0.33856795D+06 0.33856795D+06 0.10806871D+01  1  2 15  2  7  2       -1 0.253346750595D-04 0.100000000000D+01
0.349587522336D-03 0.000000000000D+00 0.000000000000D+00 0.103725274234D-05 0.000000000000D+00  7 1 -1 24 -11 11 -24 21 2 0.48134124D-01 0.30436506D+00 0.46846695D+06 0.46846695D+06 0.46846695D+06 0.10705156D+01  1  2 12  2  7  2       -1 0.738139023048D-04 0.100000000000D+01
-.389757376736D-03 0.000000000000D+00 0.000000000000D+00 0.103725274234D-05 0.000000000000D+00  7 1 -1 24 -11 11 -24 21 2 0.48134124D-01 0.22204547D+00 0.33856795D+06 0.33856795D+06 0.33856795D+06 0.10806871D+01  1  2  4  2  7  2       -1 -.429659884481D-03 0.100000000000D+01
-.544238285701D-03 0.000000000000D+00 -.143293146753D-03 0.103725274234D-05 0.000000000000D+00  7 1 -1 24 -11 11 -24 21 2 0.48134124D-01 0.30684520D+00 0.33856795D+06 0.33856795D+06 0.33856795D+06 0.10806871D+01  1  2  5  2  7  2       -1 -.113917344891D-03 0.100000000000D+01
0.567806881708D-03 0.000000000000D+00 0.136110425152D-03 0.103725274234D-05 0.000000000000D+00  7 1 -1 24 -11 11 -24 21 2 0.48134124D-01 0.22204547D+00 0.33856795D+06 0.33856795D+06 0.33856795D+06 0.10806871D+01  1  2  6  2  7  2       -1 0.625937708338D-03 0.100000000000D+01
0.140086813972D-04 0.000000000000D+00 0.000000000000D+00 0.103725274234D-05 0.000000000000D+00  7 1 21 24 -11 11 -24 1 2 0.48134124D-01 0.30436506D+00 0.46846695D+06 0.46846695D+06 0.46846695D+06 0.10705156D+01  1  2 12  4  7  2       -1 0.268967461671D-04 0.100000000000D+01
-.186065570851D-04 0.000000000000D+00 -.584814270494D-05 0.103725274234D-05 0.000000000000D+00  7 1 21 24 -11 11 -24 1 2 0.48134124D-01 0.30684520D+00 0.33856795D+06 0.33856795D+06 0.33856795D+06 0.10806871D+01  1  2  5  4  7  2       -1 -.362310278414D-04 0.100000000000D+01
  </mgrwgt>
  </event>
  <event>
  8     66 0.27727860E-05 0.18915767E+03 0.75467711E-02 0.10280336E+00
        1 -1    0    0  501    0 0.00000000E+00 0.00000000E+00 0.32930504E+03 0.32930519E+03 0.32000000E+00 0.0000E+00 0.9000E+01
       -1 -1    0    0    0  501 0.00000000E+00 0.00000000E+00 -.53589168E+03 0.53589177E+03 0.32000000E+00 0.0000E+00 0.9000E+01
       25  2    1    2    0    0 0.17416208E+02 -.31701188E+02 0.25452168E+03 0.39385552E+03 0.29838330E+03 0.0000E+00 0.0000E+00
       23  2    1    2    0    0 -.17416208E+02 0.31701188E+02 -.46110832E+03 0.47134145E+03 0.90739133E+02 0.0000E+00 0.0000E+00
       24  1    3    3    0    0 0.85775897E+02 0.83564000E+02 0.11939497E+03 0.18725069E+03 0.80419002E+02 0.0000E+00 0.9000E+01
      -13  1    4    4    0    0 0.35260964E+01 0.49904852E+02 -.41124811E+03 0.41428003E+03 0.10565837E+00 0.0000E+00 0.9000E+01
       13  1    4    4    0    0 -.20942304E+02 -.18203664E+02 -.49860210E+02 0.57061416E+02 0.10565837E+00 0.0000E+00 0.9000E+01
      -24  1    3    3    0    0 -.68359689E+02 -.11526519E+03 0.13512671E+03 0.20660482E+03 0.80419002E+02 0.0000E+00 0.9000E+01
#aMCatNLO 1  0  0  2  1 0.10261223D+03 0.00000000D+00  -5  7  0 0.00000000D+00 0.00000000D+00 0.00000000D+00 0.00000000D+00 0.00000000D+00
  <mgrwgt>
 0.4082344881D-03    4    2    0
 0.420085629888469D+03 0.000000000000000D+00 0.000000000000000D+00 0.420085629888469D+03
 0.420085629888469D+03 0.000000000000000D+00 0.000000000000000D+00 -.420085629888469D+03
 0.222185814601116D+03 0.857758970381638D+02 0.835639997393942D+02 0.168993709026235D+03
 0.325500040184059D+03 0.352612952635663D+01 0.499049439477808D+02 -.321632304254340D+03
 0.465007484318678D+02 -.209423375688059D+02 -.182037559781515D+02 -.373143587666456D+02
 0.245984656559896D+03 -.683596889957144D+02 -.115265187709024D+03 0.189952953994751D+03
 0.000000000000000D+00 0.000000000000000D+00 -.000000000000000D+00 0.000000000000000D+00
 0.487884967188715D+03 0.000000000000000D+00 0.000000000000000D+00 0.487884967188715D+03
 0.463906001942146D+03 0.000000000000000D+00 0.000000000000000D+00 -.463906001942146D+03
 0.230856184752381D+03 0.783774552845298D+02 0.110115679613454D+03 0.168993709026235D+03
 0.333674441050007D+03 -.723857664183866D+01 0.885375427616933D+02 -.321632304254340D+03
 0.453911356222428D+02 -.224429859695639D+02 -.128181981448584D+02 -.373143587666456D+02
 0.236492449340175D+03 -.762388233156173D+02 -.869883884703158D+02 0.189952953994751D+03
 0.105376758366055D+03 0.275429306424901D+02 -.988466357599732D+02 0.239789652465690D+02
0.552479433530D-04 0.000000000000D+00 0.000000000000D+00 0.854756939489D-06 0.000000000000D+00  7 1 -1 24 -13 13 -24 21 0 0.50662332D-01 0.82444893D-01 0.35780623D+05 0.35780623D+05 0.35780623D+05 0.11603015D+01  1  2  2  2  7  2       -1 0.839982617390D-03 0.100000000000D+01
-.693596562502D-06 0.000000000000D+00 -.212166649593D-06 0.854756939489D-06 0.000000000000D+00  7 1 -1 24 -13 13 -24 21 2 0.50662332D-01 0.82444893D-01 0.35780623D+05 0.35780623D+05 0.35780623D+05 0.11603015D+01  1  2  3  2  7  2       -1 -.141972050950D-04 0.100000000000D+01
0.330706909769D-05 0.000000000000D+00 0.000000000000D+00 0.854756939489D-06 0.000000000000D+00  7 1 -1 24 -13 13 -24 21 2 0.50662332D-01 0.82444893D-01 0.35780623D+05 0.35780623D+05 0.35780623D+05 0.11603015D+01  1  2 15  2  7  2       -1 0.676922879689D-04 0.100000000000D+01
-.237062873774D-04 0.000000000000D+00 0.000000000000D+00 0.854756939489D-06 0.000000000000D+00  7 1 -1 24 -13 13 -24 21 2 0.50662332D-01 0.82444893D-01 0.35780623D+05 0.35780623D+05 0.35780623D+05 0.11603015D+01  1  2  4  2  7  2       -1 -.485243212167D-03 0.100000000000D+01
  </mgrwgt>
  </event>
  <event>
  8     66 0.27727860E-05 0.28133157E+03 0.75467711E-02 0.93000479E-01
        1 -1    0    0  501    0 0.00000000E+00 0.00000000E+00 0.11638504E+04 0.11638504E+04 0.32000000E+00 0.0000E+00 0.9000E+01
       -1 -1    0    0    0  501 0.00000000E+00 0.00000000E+00 -.95839890E+02 0.95840424E+02 0.32000000E+00 0.0000E+00 0.9000E+01
       25  2    1    2    0    0 -.21418676E+03 0.90575122E+01 0.89668657E+03 0.96898649E+03 0.29821135E+03 0.0000E+00 0.0000E+00
       23  2    1    2    0    0 0.21418676E+03 -.90575122E+01 0.17132394E+03 0.29070438E+03 0.95912126E+02 0.0000E+00 0.0000E+00
       24  1    3    3    0    0 -.96061063E+02 0.11504652E+03 0.28447592E+03 0.33144712E+03 0.80419002E+02 0.0000E+00 0.9000E+01
      -13  1    4    4    0    0 0.10936006E+03 -.10083916E+02 0.28365087E+02 0.11342794E+03 0.10565837E+00 0.0000E+00 0.9000E+01
       13  1    4    4    0    0 0.10482670E+03 0.10264041E+01 0.14295885E+03 0.17727644E+03 0.10565837E+00 0.0000E+00 0.9000E+01
      -24  1    3    3    0    0 -.11812570E+03 -.10598901E+03 0.61221065E+03 0.63753936E+03 0.80419002E+02 0.0000E+00 0.9000E+01
#aMCatNLO 1  0  0  1  1 0.46780768D+03 0.00000000D+00  -5  7  0 0.00000000D+00 0.00000000D+00 0.00000000D+00 0.00000000D+00 0.00000000D+00
  <mgrwgt>
 0.5941101231D-03    3    2    0
 0.333981524067655D+03 0.000000000000000D+00 0.000000000000000D+00 0.333981524067655D+03
 0.333981524067655D+03 0.000000000000000D+00 0.000000000000000D+00 -.333981524067655D+03
 0.170215466472689D+03 -.960610664364319D+02 0.115046520406611D+03 0.653136506184230D+01
 0.168557198849966D+03 0.109360080820891D+03 -.100839281355714D+02 -.127867964714982D+03
 0.105742223039470D+03 0.104826686848214D+03 0.102641564470040D+01 -.138466576717925D+02
 0.223448159773185D+03 -.118125701232673D+03 -.105989007915740D+03 0.135183257324932D+03
 0.000000000000000D+00 0.000000000000000D+00 0.000000000000000D+00 -.000000000000000D+00
 0.613198535374631D+03 0.000000000000000D+00 0.000000000000000D+00 0.613198535374631D+03
 0.674035093010712D+03 0.000000000000000D+00 0.000000000000000D+00 -.674035093010712D+03
 0.257644959468934D+03 -.228271178637012D+03 0.881097012790112D+02 0.653136506184230D+01
 0.132145541557540D+03 0.164420621450468D+02 -.290152777963970D+02 -.127867964714982D+03
 0.570151099087229D+02 0.545341990510748D+02 -.922030168062237D+01 -.138466576717925D+02
 0.368681148686195D+03 -.301095374430137D+03 -.143267707031272D+03 0.135183257324932D+03
 0.471746868763951D+03 0.458390291871027D+03 0.933935852292800D+02 -.608365576360805D+02
0.133247293194D-04 0.000000000000D+00 0.000000000000D+00 0.202058972602D-07 0.000000000000D+00  7 1 -1 24 -13 13 -24 21 0 0.17905395D+00 0.14744643D-01 0.79147451D+05 0.79147451D+05 0.79147451D+05 0.11301530D+01  1  2  2  1  7  1        1 0.588028079154D-03 0.100000000000D+01
-.713774222290D-06 0.000000000000D+00 -.511704690684D-07 0.202058972602D-07 0.000000000000D+00  7 1 -1 24 -13 13 -24 21 2 0.17905395D+00 0.14744643D-01 0.79147451D+05 0.79147451D+05 0.79147451D+05 0.11301530D+01  1  2  3  1  7  1        1 -.402323132578D-04 0.100000000000D+01
0.821677692100D-06 0.000000000000D+00 0.000000000000D+00 0.202058972602D-07 0.000000000000D+00  7 1 -1 24 -13 13 -24 21 2 0.17905395D+00 0.14744643D-01 0.79147451D+05 0.79147451D+05 0.79147451D+05 0.11301530D+01  1  2 15  1  7  1        1 0.463143572199D-04 0.100000000000D+01
  </mgrwgt>
  </event>
  <event>
  8     66 0.27727860E-05 0.19110588E+03 0.75467711E-02 0.10037661E+00
        1 -1    0    0  501    0 0.00000000E+00 0.00000000E+00 0.15759682E+04 0.15759683E+04 0.32000000E+00 0.0000E+00 0.9000E+01
       -1 -1    0    0    0  501 0.00000000E+00 0.00000000E+00 -.39963790E+02 0.39965071E+02 0.32000000E+00 0.0000E+00 0.9000E+01
       25  2    1    2    0    0 0.10991442E+03 0.52248903E+02 0.12455652E+04 0.12880573E+04 0.30470953E+03 0.0000E+00 0.0000E+00
       23  2    1    2    0    0 -.10991442E+03 -.52248903E+02 0.29043923E+03 0.32787599E+03 0.91304938E+02 0.0000E+00 0.0000E+00
       24  1    3    3    0    0 0.83695251E+02 -.22647941E+02 0.17299135E+03 0.20954963E+03 0.80419002E+02 0.0000E+00 0.9000E+01
      -11  1    4    4    0    0 -.94217889E+02 0.22658474E+01 0.20041048E+03 0.22146445E+03 0.51099893E-03 0.0000E+00 0.9000E+01
       11  1    4    4    0    0 -.15696530E+02 -.54514751E+02 0.90028757E+02 0.10641154E+03 0.51099893E-03 0.0000E+00 0.9000E+01
      -24  1    3    3    0    0 0.26219168E+02 0.74896844E+02 0.10725739E+04 0.10785077E+04 0.80419002E+02 0.0000E+00 0.9000E+01
#aMCatNLO 1  0  0  1  2 0.18634401D+03 0.00000000D+00  -5  7  0 0.00000000D+00 0.00000000D+00 0.00000000D+00 0.00000000D+00 0.00000000D+00
  <mgrwgt>
 0.5355452277D-03    6    2    0
 0.250963591545794D+03 0.000000000000000D+00 0.000000000000000D+00 0.250963591545794D+03
 0.250963591545794D+03 0.000000000000000D+00 0.000000000000000D+00 -.250963591545794D+03
 0.145245671916666D+03 0.836952511162755D+02 -.226479401181620D+02 -.843283167455692D+02
 0.996965522426654D+02 -.942178893391502D+02 0.226584712868496D+01 -.325155008317508D+02
 0.670802223862814D+02 -.156965307000140D+02 -.545147509735462D+02 -.357982832782346D+02
 0.189904736545975D+03 0.262191689228887D+02 0.748968439630232D+02 0.152642100855555D+03
 0.000000000000000D+00 -.000000000000000D+00 -.000000000000000D+00 0.000000000000000D+00
 0.399109272808372D+03 0.000000000000000D+00 0.000000000000000D+00 0.399109272808372D+03
 0.333762244998055D+03 0.000000000000000D+00 0.000000000000000D+00 -.333762244998055D+03
 0.180768948117196D+03 0.138193621541139D+03 -.120607181804077D+01 -.843283167455692D+02
 0.741031578814106D+02 -.651645880452019D+02 0.136965936844456D+02 -.325155008317508D+02
 0.587211566590274D+02 0.533310948746541D+01 -.462408379779175D+02 -.357982832782346D+02
 0.221808445300260D+03 0.950433753057956D+02 0.101975076901331D+03 0.152642100855555D+03
 0.197469809848533D+03 -.173405518289199D+03 -.682247607898183D+02 0.653470278103165D+02
0.392361406934D-05 0.000000000000D+00 0.000000000000D+00 0.734649083787D-08 0.000000000000D+00  7 1 -1 24 -11 11 -24 21 0 0.24245675D+00 0.61483764D-02 0.36521459D+05 0.36521459D+05 0.36521459D+05 0.11594919D+01  1  2  2  1  7  1        1 0.350414477787D-03 0.100000000000D+01
-.198301270055D-06 0.000000000000D+00 -.150677111376D-07 0.734649083787D-08 0.000000000000D+00  7 1 -1 24 -11 11 -24 21 2 0.24245675D+00 0.61483764D-02 0.36521459D+05 0.36521459D+05 0.36521459D+05 0.11594919D+01  1  2  3  1  7  1        1 -.238098512069D-04 0.100000000000D+01
0.256769886073D-06 0.000000000000D+00 0.000000000000D+00 0.734649083787D-08 0.000000000000D+00  7 1 -1 24 -11 11 -24 21 2 0.24245675D+00 0.61483764D-02 0.36521459D+05 0.36521459D+05 0.36521459D+05 0.11594919D+01  1  2 15  1  7  1        1 0.308301241847D-04 0.100000000000D+01
-.113512997571D-05 0.000000000000D+00 -.111548927320D-05 0.734649083787D-08 0.000000000000D+00  7 1 -1 24 -11 11 -24 21 2 0.43196235D+00 0.61483764D-02 0.36521459D+05 0.36521459D+05 0.36521459D+05 0.11594919D+01  1  2  5  1  7  1        1 -.209236112598D-04 0.100000000000D+01
0.165828912570D-05 0.000000000000D+00 0.952230669886D-06 0.734649083787D-08 0.000000000000D+00  7 1 -1 24 -11 11 -24 21 2 0.24245675D+00 0.61483764D-02 0.36521459D+05 0.36521459D+05 0.36521459D+05 0.11594919D+01  1  2  6  1  7  1        1 0.199109250938D-03 0.100000000000D+01
-.137094481103D-07 0.000000000000D+00 -.708236981649D-07 0.734649083787D-08 0.000000000000D+00  7 21 -1 24 -11 11 -24 -1 2 0.43196235D+00 0.61483764D-02 0.36521459D+05 0.36521459D+05 0.36521459D+05 0.11594919D+01  1  2  5  3  7  1        1 -.751627936351D-07 0.100000000000D+01
  </mgrwgt>
  </event>
  <event>
  8     66 0.27727860E-05 0.10827625E+03 0.75467711E-02 0.10171244E+00
        1 -1    0    0  501    0 0.00000000E+00 0.00000000E+00 0.18932084E+04 0.18932084E+04 0.32000000E+00 0.0000E+00 0.9000E+01
       -1 -1    0    0    0  501 0.00000000E+00 0.00000000E+00 -.50061729E+02 0.50062752E+02 0.32000000E+00 0.0000E+00 0.9000E+01
       25  2    1    2    0    0 0.11501632E+03 -.13869300E+03 0.15509049E+04 0.15899365E+04 0.30021277E+03 0.0000E+00 0.0000E+00
       23  2    1    2    0    0 -.11501632E+03 0.13869300E+03 0.29224179E+03 0.35333465E+03 0.83520120E+02 0.0000E+00 0.0000E+00
       24  1    3    3    0    0 -.25125406E+02 -.56023849E+02 0.10884291E+04 0.10931218E+04 0.80419002E+02 0.0000E+00 0.9000E+01
      -13  1    4    4    0    0 -.11269447E+03 0.13720880E+03 0.22775176E+03 0.28878569E+03 0.10565837E+00 0.0000E+00 0.9000E+01
       13  1    4    4    0    0 -.23218569E+01 0.14841995E+01 0.64490033E+02 0.64548969E+02 0.10565837E+00 0.0000E+00 0.9000E+01
      -24  1    3    3    0    0 0.14014173E+03 -.82669149E+02 0.46247573E+03 0.49681476E+03 0.80419002E+02 0.0000E+00 0.9000E+01
#aMCatNLO 1  0  0  1  2 0.82011885D+02 0.00000000D+00  -5  7  0 0.00000000D+00 0.00000000D+00 0.00000000D+00 0.00000000D+00 0.00000000D+00
  <mgrwgt>
 0.3239583275D-02    9    2    0
 0.307860854853908D+03 0.000000000000000D+00 0.000000000000000D+00 0.307860854853908D+03
 0.307860854853908D+03 0.000000000000000D+00 0.000000000000000D+00 -.307860854853908D+03
 0.191803294516441D+03 -.251254060561674D+02 -.560238493674082D+02 0.162945788854947D+03
 0.229664173432449D+03 -.112694642344398D+03 0.137209016481352D+03 -.145668239302527D+03
 0.106725889531885D+02 -.232168055702288D+01 0.148398270916990D+01 0.103107589281172D+02
 0.183581652805737D+03 0.140141728957588D+03 -.826691498231140D+02 -.275883084805370D+02
 0.000000000000000D+00 0.000000000000000D+00 0.000000000000000D+00 0.000000000000000D+00
 0.359395061111825D+03 0.000000000000000D+00 0.000000000000000D+00 0.359395061111825D+03
 0.345025683016471D+03 0.000000000000000D+00 0.000000000000000D+00 -.345025683016471D+03
 0.199668936267205D+03 -.486808143975682D+02 -.669276950128668D+02 0.162945788854947D+03
 0.237637109277627D+03 -.140812786281865D+03 0.124193071400406D+03 -.145668239302527D+03
 0.109644433133202D+02 -.362360976235483D+01 0.881317075422285D+00 0.103107589281172D+02
 0.172889050260663D+03 0.118692409409004D+03 -.925980827530012D+02 -.275883084805370D+02
 0.832612050094796D+02 0.744248010327840D+02 0.344513892900397D+02 0.143693780953540D+02
0.472173089186D-04 0.000000000000D+00 0.000000000000D+00 0.742947734491D-07 0.000000000000D+00  7 1 -1 24 -13 13 -24 21 0 0.29126291D+00 0.77018852D-02 0.53589460D+05 0.53589460D+05 0.53589460D+05 0.11446564D+01  1  2  2  1  7  1        1 0.186721165632D-02 0.100000000000D+01
-.236395303697D-05 0.000000000000D+00 -.181326898851D-06 0.742947734491D-07 0.000000000000D+00  7 1 -1 24 -13 13 -24 21 2 0.29126291D+00 0.77018852D-02 0.53589460D+05 0.53589460D+05 0.53589460D+05 0.11446564D+01  1  2  3  1  7  1        1 -.122484579658D-03 0.100000000000D+01
0.299646949595D-05 0.000000000000D+00 0.000000000000D+00 0.742947734491D-07 0.000000000000D+00  7 1 -1 24 -13 13 -24 21 2 0.29126291D+00 0.77018852D-02 0.53589460D+05 0.53589460D+05 0.53589460D+05 0.11446564D+01  1  2 15  1  7  1        1 0.155257444175D-03 0.100000000000D+01
0.309698731430D-04 0.000000000000D+00 0.000000000000D+00 0.742947734491D-07 0.000000000000D+00  7 1 -1 24 -13 13 -24 21 2 0.35509691D+00 0.77018852D-02 0.78278783D+05 0.78278783D+05 0.78278783D+05 0.11305557D+01  1  2 12  1  7  1        1 0.828183722593D-03 0.100000000000D+01
-.315328504593D-04 0.000000000000D+00 0.000000000000D+00 0.742947734491D-07 0.000000000000D+00  7 1 -1 24 -13 13 -24 21 2 0.29126291D+00 0.77018852D-02 0.53589460D+05 0.53589460D+05 0.53589460D+05 0.11446564D+01  1  2  4  1  7  1        1 -.163382599973D-02 0.100000000000D+01
-.778994670319D-04 0.000000000000D+00 -.256446312768D-04 0.742947734491D-07 0.000000000000D+00  7 1 -1 24 -13 13 -24 21 2 0.35841925D+00 0.77018852D-02 0.53589460D+05 0.53589460D+05 0.53589460D+05 0.11446564D+01  1  2  5  1  7  1        1 -.209036452482D-02 0.100000000000D+01
0.819913006580D-04 0.000000000000D+00 0.251024021431D-04 0.742947734491D-07 0.000000000000D+00  7 1 -1 24 -13 13 -24 21 2 0.29126291D+00 0.77018852D-02 0.53589460D+05 0.53589460D+05 0.53589460D+05 0.11446564D+01  1  2  6  1  7  1        1 0.424825275277D-02 0.100000000000D+01
0.880008493381D-06 0.000000000000D+00 0.000000000000D+00 0.742947734491D-07 0.000000000000D+00  7 21 -1 24 -13 13 -24 -1 2 0.35509691D+00 0.77018852D-02 0.78278783D+05 0.78278783D+05 0.78278783D+05 0.11305557D+01  1  2 12  3  7  1        1 0.998169798680D-05 0.100000000000D+01
-.197814273289D-05 0.000000000000D+00 -.754747039063D-06 0.742947734491D-07 0.000000000000D+00  7 21 -1 24 -13 13 -24 -1 2 0.35841925D+00 0.77018852D-02 0.53589460D+05 0.53589460D+05 0.53589460D+05 0.11446564D+01  1  2  5  3  7  1        1 -.226288949761D-04 0.100000000000D+01
  </mgrwgt>
  </event>
  <event>
  9     66 -.27727860E-05 0.20302470E+03 0.75467711E-02 0.10549857E+00
        1 -1    0    0  501    0 0.00000000E+00 0.00000000E+00 0.11860949E+04 0.11860949E+04 0.32000000E+00 0.0000E+00 0.9000E+01
       -1 -1    0    0    0  502 0.00000000E+00 0.00000000E+00 -.40026761E+02 0.40028041E+02 0.32000000E+00 0.0000E+00 0.9000E+01
       25  2    1    2    0    0 0.43380658E+02 0.25313395E+02 0.87153689E+03 0.92277664E+03 0.29902761E+03 0.0000E+00 0.0000E+00
       23  2    1    2    0    0 -.58278394E+02 -.15838845E+02 0.24037266E+03 0.26488752E+03 0.93483395E+02 0.0000E+00 0.0000E+00
       24  1    3    3    0    0 -.87187609E+02 -.50374969E+02 0.44351341E+03 0.46185569E+03 0.80419002E+02 0.0000E+00 0.9000E+01
      -11  1    4    4    0    0 -.80841200E+02 -.20381601E+02 0.21516963E+03 0.23075675E+03 0.51099893E-03 0.0000E+00 0.9000E+01
       11  1    4    4    0    0 0.22562807E+02 0.45427561E+01 0.25203027E+02 0.34130770E+02 0.51099893E-03 0.0000E+00 0.9000E+01
      -24  1    3    3    0    0 0.13056827E+03 0.75688364E+02 0.42802348E+03 0.46092095E+03 0.80419002E+02 0.0000E+00 0.9000E+01
       21  1    1    2  501  502 0.14897736E+02 -.94745500E+01 0.34158590E+02 0.38458827E+02 0.75000000E+00 0.0000E+00 0.9000E+01
#aMCatNLO 2  0  0  2  1 0.17655300D+02 0.00000000D+00  -5  7  0 0.00000000D+00 0.00000000D+00 0.00000000D+00 0.00000000D+00 0.00000000D+00
  <mgrwgt>
 -.5129126449D-03    3    2    0
 0.208501555628394D+03 0.000000000000000D+00 0.000000000000000D+00 0.208501555628394D+03
 0.208501555628394D+03 0.000000000000000D+00 0.000000000000000D+00 -.208501555628394D+03
 0.130840829876011D+03 -.824822588197691D+02 -.533674392569690D+02 0.316338460420958D+02
 0.810572245537154D+02 -.779047073059596D+02 -.222491319760737D+02 -.247110465894705D+01
 0.307083985846486D+02 0.236463606970801D+02 0.385364047730607D+01 -.192094982883182D+02
 0.174396658242414D+03 0.136740605428649D+03 0.717629307557366D+02 -.995324309483057D+01
 0.000000000000000D+00 0.000000000000000D+00 -.000000000000000D+00 -.000000000000000D+00
 0.215270876904421D+03 0.000000000000000D+00 0.000000000000000D+00 0.215270876904421D+03
 0.220526866037801D+03 0.000000000000000D+00 0.000000000000000D+00 -.220526866037801D+03
 0.132692245980753D+03 -.871876054187951D+02 -.503749683371381D+02 0.316338460420958D+02
 0.834075302795111D+02 -.808412027431957D+02 -.203816017065790D+02 -.247110465894705D+01
 0.299786831410985D+02 0.225628012513646D+02 0.454275445923524D+01 -.192094982883182D+02
 0.171298234284080D+03 0.130568270963375D+03 0.756883655788852D+02 -.995324309483057D+01
 0.184210492567790D+02 0.148977359472510D+02 -.947454999440330D+01 -.525598913338055D+01
-.186991139325D-04 0.000000000000D+00 0.000000000000D+00 0.240685259481D-07 0.000000000000D+00  7 1 -1 24 -11 11 -24 21 2 0.17673196D+00 0.62480515D-02 0.44926395D+05 0.44926395D+05 0.44926395D+05 0.11514053D+01  1  2 13  2  7  2       -1 -.416560720405D-02 0.100000000000D+01
-.596042849536D-06 0.000000000000D+00 0.000000000000D+00 0.240685259481D-07 0.000000000000D+00  7 1 -1 24 -11 11 -24 21 2 0.17673196D+00 0.58220617D-02 0.41219029D+05 0.41219029D+05 0.41219029D+05 0.11547466D+01  1  2  8  2  7  2       -1 -.148283480296D-03 0.100000000000D+01
0.177265551235D-04 0.000000000000D+00 0.000000000000D+00 0.240685259481D-07 0.547421584882D-09  7 1 -1 24 -11 11 -24 21 2 0.18246983D+00 0.61578486D-02 0.44926395D+05 0.44926395D+05 0.44926395D+05 0.11514053D+01  1  2  1  2  7  2       -1 0.380097803949D-02 0.100000000000D+01
  </mgrwgt>
  </event>
  <event>
  8     66 0.27727860E-05 0.29884031E+03 0.75467711E-02 0.96909461E-01
        1 -1    0    0  501    0 0.00000000E+00 0.00000000E+00 0.20132545E+03 0.20132570E+03 0.32000000E+00 0.0000E+00 0.9000E+01
       -1 -1    0    0    0  501 0.00000000E+00 0.00000000E+00 -.74677756E+03 0.74677763E+03 0.32000000E+00 0.0000E+00 0.9000E+01
       25  2    1    2    0    0 -.25876434E+03 -.17555212E+03 -.21164476E+03 0.48236359E+03 0.30017261E+03 0.0000E+00 0.0000E+00
       23  2    1    2    0    0 0.25876434E+03 0.17555212E+03 -.33380735E+03 0.46573974E+03 0.87798789E+02 0.0000E+00 0.0000E+00
       24  1    3    3    0    0 -.13810570E+03 0.26194424E+02 -.97756409E+01 0.16224091E+03 0.80419002E+02 0.0000E+00 0.9000E+01
      -11  1    4    4    0    0 0.25334504E+03 0.18503590E+03 -.31996369E+03 0.44810574E+03 0.51099893E-03 0.0000E+00 0.9000E+01
       11  1    4    4    0    0 0.54193055E+01 -.94837817E+01 -.13843666E+02 0.17634004E+02 0.51099893E-03 0.0000E+00 0.9000E+01
      -24  1    3    3    0    0 -.12065864E+03 -.20174654E+03 -.20186912E+03 0.32012268E+03 0.80419002E+02 0.0000E+00 0.9000E+01
#aMCatNLO 1  0  0  1  2 0.80348314D+02 0.00000000D+00  -5  7  0 0.00000000D+00 0.00000000D+00 0.00000000D+00 0.00000000D+00 0.00000000D+00
  <mgrwgt>
 0.1014070199D-02    9    2    0
 0.387744092088290D+03 0.000000000000000D+00 0.000000000000000D+00 0.387744092088290D+03
 0.387744092088290D+03 0.000000000000000D+00 0.000000000000000D+00 -.387744092088290D+03
 0.191478095708003D+03 -.138105702195866D+03 0.261944236207845D+02 0.102163165445058D+03
 0.322797537470715D+03 0.253345035900639D+03 0.185035902968572D+03 -.760016946802302D+02
 0.118219733069606D+02 0.541930547199448D+01 -.948378167660695D+01 -.452195380141755D+01
 0.249390577690902D+03 -.120658639176768D+03 -.201746544912749D+03 -.216395169634101D+02
 0.000000000000000D+00 0.000000000000000D+00 -.000000000000000D+00 0.000000000000000D+00
 0.473858235834695D+03 0.000000000000000D+00 0.000000000000000D+00 0.473858235834695D+03
 0.409024804674189D+03 0.000000000000000D+00 0.000000000000000D+00 -.409024804674189D+03
 0.205276602173133D+03 -.153934209486285D+03 0.392200742153111D+02 0.102163165445058D+03
 0.316439211651384D+03 0.227842720243587D+03 0.206022357787413D+03 -.760016946802302D+02
 0.108273142232893D+02 0.451571336657025D+01 -.874019450004782D+01 -.452195380141755D+01
 0.247096388204633D+03 -.140465959924941D+03 -.185446635227926D+03 -.216395169634101D+02
 0.103243524256445D+03 0.620417358010686D+02 -.510556022747503D+02 0.648334311605061D+02
0.558777359404D-04 0.000000000000D+00 0.000000000000D+00 0.473524957276D-06 0.000000000000D+00  7 1 -1 24 -11 11 -24 21 0 0.30973171D-01 0.11488888D+00 0.13507163D+06 0.13507163D+06 0.13507163D+06 0.11111627D+01  1  2  2  1  7  1        1 0.755101289762D-03 0.100000000000D+01
-.309348900338D-05 0.000000000000D+00 -.214585218957D-06 0.473524957276D-06 0.000000000000D+00  7 1 -1 24 -11 11 -24 21 2 0.30973171D-01 0.11488888D+00 0.13507163D+06 0.13507163D+06 0.13507163D+06 0.11111627D+01  1  2  3  1  7  1        1 -.516143256449D-04 0.100000000000D+01
0.353760743809D-05 0.000000000000D+00 0.000000000000D+00 0.473524957276D-06 0.000000000000D+00  7 1 -1 24 -11 11 -24 21 2 0.30973171D-01 0.11488888D+00 0.13507163D+06 0.13507163D+06 0.13507163D+06 0.11111627D+01  1  2 15  1  7  1        1 0.590243644357D-04 0.100000000000D+01
0.906373779957D-04 0.000000000000D+00 0.000000000000D+00 0.473524957276D-06 0.000000000000D+00  7 1 -1 24 -11 11 -24 21 2 0.38565621D-01 0.11488888D+00 0.16873941D+06 0.16873941D+06 0.16873941D+06 0.11035398D+01  1  2 12  1  7  1        1 0.111281899800D-02 0.100000000000D+01
-.927580081432D-04 0.000000000000D+00 0.000000000000D+00 0.473524957276D-06 0.000000000000D+00  7 1 -1 24 -11 11 -24 21 2 0.30973171D-01 0.11488888D+00 0.13507163D+06 0.13507163D+06 0.13507163D+06 0.11111627D+01  1  2  4  1  7  1        1 -.154765122270D-02 0.100000000000D+01
-.156665718127D-03 0.000000000000D+00 -.359492834415D-04 0.473524957276D-06 0.000000000000D+00  7 1 -1 24 -11 11 -24 21 2 0.39614521D-01 0.11488888D+00 0.13507163D+06 0.13507163D+06 0.13507163D+06 0.11111627D+01  1  2  5  1  7  1        1 -.189579262427D-02 0.100000000000D+01
0.161654479798D-03 0.000000000000D+00 0.348876730915D-04 0.473524957276D-06 0.000000000000D+00  7 1 -1 24 -11 11 -24 21 2 0.30973171D-01 0.11488888D+00 0.13507163D+06 0.13507163D+06 0.13507163D+06 0.11111627D+01  1  2  6  1  7  1        1 0.269717686183D-02 0.100000000000D+01
0.278139649053D-05 0.000000000000D+00 0.000000000000D+00 0.473524957276D-06 0.000000000000D+00  7 21 -1 24 -11 11 -24 -1 2 0.38565621D-01 0.11488888D+00 0.16873941D+06 0.16873941D+06 0.16873941D+06 0.11035398D+01  1  2 12  3  7  1        1 0.183508873256D-03 0.100000000000D+01
-.465343925176D-05 0.000000000000D+00 -.120250042217D-05 0.473524957276D-06 0.000000000000D+00  7 21 -1 24 -11 11 -24 -1 2 0.39614521D-01 0.11488888D+00 0.13507163D+06 0.13507163D+06 0.13507163D+06 0.11111627D+01  1  2  5  3  7  1        1 -.298502015645D-03 0.100000000000D+01
  </mgrwgt>
  </event>
  <event>
  9     66 0.27727860E-05 0.27307358E+03 0.75467711E-02 0.99653846E-01
        1 -1    0    0  501    0 0.00000000E+00 0.00000000E+00 0.87486845E+03 0.87486851E+03 0.32000000E+00 0.0000E+00 0.9000E+01
       21 -1    0    0  502  501 0.00000000E+00 0.00000000E+00 -.23442043E+03 0.23442163E+03 0.75000000E+00 0.0000E+00 0.9000E+01
       25  2    1    2    0    0 0.16564530E+03 0.43574700E+02 0.53264803E+03 0.63497995E+03 0.30024738E+03 0.0000E+00 0.0000E+00
       23  2    1    2    0    0 -.21809293E+03 -.13133150E+03 -.62129989E+02 0.27599652E+03 0.86610928E+02 0.0000E+00 0.0000E+00
       24  1    3    3    0    0 -.77600886E+01 0.49089487E+02 0.33235176E+02 0.10020873E+03 0.80419002E+02 0.0000E+00 0.9000E+01
      -13  1    4    4    0    0 -.42640747E+02 -.71548969E+02 -.24934073E+02 0.86943703E+02 0.10565837E+00 0.0000E+00 0.9000E+01
       13  1    4    4    0    0 -.17545218E+03 -.59782534E+02 -.37195916E+02 0.18905281E+03 0.10565837E+00 0.0000E+00 0.9000E+01
      -24  1    3    3    0    0 0.17340539E+03 -.55147867E+01 0.49941286E+03 0.53477122E+03 0.80419002E+02 0.0000E+00 0.9000E+01
        1  1    1    2  502    0 0.52447625E+02 0.87756803E+02 0.16992998E+03 0.19831367E+03 0.32000000E+00 0.0000E+00 0.9000E+01
#aMCatNLO 2  0  0  2  1 0.10223507D+03 0.00000000D+00  -5  7  0 0.00000000D+00 0.00000000D+00 0.00000000D+00 0.00000000D+00 0.00000000D+00
  <mgrwgt>
 0.1374973342D-03    1    2    0
 0.386664869830191D+03 0.000000000000000D+00 0.000000000000000D+00 0.386664869830191D+03
 0.386664869830191D+03 0.000000000000000D+00 0.000000000000000D+00 -.386664869830191D+03
 0.102868128547365D+03 -.101254115431968D+01 0.603796679430165D+02 -.216311436583584D+02
 0.106578269428886D+03 -.351061347128462D+02 -.589421970010684D+02 -.815616590848110D+02
 0.226650766300510D+03 -.159588023905858D+03 -.332378444739998D+02 -.157472150506539D+03
 0.337232575383621D+03 0.195706699773024D+03 0.318003735320516D+02 0.260664953249708D+03
 0.000000000000000D+00 0.000000000000000D+00 0.000000000000000D+00 0.000000000000000D+00
 0.493992946686735D+03 0.000000000000000D+00 0.000000000000000D+00 0.493992946686735D+03
 0.415162900726466D+03 0.000000000000000D+00 0.000000000000000D+00 -.415162900726466D+03
 0.969799928115763D+02 -.776008859978644D+01 0.490894866577131D+02 -.216311436583584D+02
 0.116575203817222D+03 -.426405495380143D+02 -.715489863482074D+02 -.815616590848110D+02
 0.243217936027793D+03 -.175452377999063D+03 -.597825164654309D+02 -.157472150506539D+03
 0.323285131841415D+03 0.173405391470671D+03 -.551478663064840D+01 0.260664953249708D+03
 0.129097582915195D+03 0.524476246661935D+02 0.877568027865735D+02 0.788300459602693D+02
0.632791167372D-06 0.000000000000D+00 0.000000000000D+00 0.141295709465D-06 0.162034423619D-11  7 1 21 24 -13 13 -24 1 2 0.13459518D+00 0.36064761D-01 0.10779608D+06 0.10779608D+06 0.10779608D+06 0.11190564D+01  1  2  1  4  7  2       -1 0.137497334152D-03 0.100000000000D+01
  </mgrwgt>
  </event>
  <event>
  9     66 0.27727860E-05 0.26050844E+03 0.75467711E-02 0.10241883E+00
        1 -1    0    0  501    0 0.00000000E+00 0.00000000E+00 0.12296693E+03 0.12296734E+03 0.32000000E+00 0.0000E+00 0.9000E+01
       -1 -1    0    0    0  502 0.00000000E+00 0.00000000E+00 -.64142115E+03 0.64142123E+03 0.32000000E+00 0.0000E+00 0.9000E+01
       25  2    1    2    0    0 -.49683996E+02 -.14941108E+03 -.40195306E+03 0.52504327E+03 0.29885114E+03 0.0000E+00 0.0000E+00
       23  2    1    2    0    0 0.56628201E+02 0.15560745E+03 -.12351813E+03 0.22766553E+03 0.95678820E+02 0.0000E+00 0.0000E+00
       24  1    3    3    0    0 0.29197895E+02 0.53550750E+02 -.16436819E+03 0.19288421E+03 0.80419002E+02 0.0000E+00 0.9000E+01
      -11  1    4    4    0    0 0.76455339E+02 0.14853908E+03 -.12139540E+03 0.20650937E+03 0.51099893E-03 0.0000E+00 0.9000E+01
       11  1    4    4    0    0 -.19827138E+02 0.70683646E+01 -.21227276E+01 0.21156161E+02 0.51099893E-03 0.0000E+00 0.9000E+01
      -24  1    3    3    0    0 -.78881890E+02 -.20296183E+03 -.23758486E+03 0.33215906E+03 0.80419002E+02 0.0000E+00 0.9000E+01
       21  1    1    2  501  502 -.69442057E+01 -.61963610E+01 0.70169586E+01 0.11679773E+02 0.75000000E+00 0.0000E+00 0.9000E+01
#aMCatNLO 2  0  0  2  2 0.93068191D+01 0.00000000D+00  -5  7  0 0.00000000D+00 0.00000000D+00 0.00000000D+00 0.00000000D+00 0.00000000D+00
  <mgrwgt>
 0.1211077565D-03    4    2    0
 0.269427153162681D+03 0.000000000000000D+00 0.000000000000000D+00 0.269427153162681D+03
 0.269427153162681D+03 0.000000000000000D+00 0.000000000000000D+00 -.269427153162681D+03
 0.108155985915761D+03 0.277979074062728D+02 0.523015316521011D+02 -.415009333113890D+02
 0.167392769770855D+03 0.742811225181227D+02 0.146599013280183D+03 0.318022564338269D+02
 0.276566073181362D+02 -.201823723096616D+02 0.675138654674746D+01 0.176629147085125D+02
 0.235648943320609D+03 -.818966576147339D+02 -.205651931479032D+03 -.796423783095041D+01
 0.000000000000000D+00 -.000000000000000D+00 -.000000000000000D+00 0.000000000000000D+00
 0.291632128147231D+03 0.000000000000000D+00 0.000000000000000D+00 0.291632128147231D+03
 0.270444300579122D+03 0.000000000000000D+00 0.000000000000000D+00 -.270444300579122D+03
 0.109131770179382D+03 0.291978946951044D+02 0.535507496471537D+02 -.415009333113890D+02
 0.170060756957105D+03 0.764553391260005D+02 0.148539081260350D+03 0.318022564338269D+02
 0.274782773282174D+02 -.198271376702910D+02 0.706836478469850D+01 0.176629147085125D+02
 0.232263867205239D+03 -.788818904746524D+02 -.202961834652920D+03 -.796423783095041D+01
 0.231417570564104D+02 -.694420567616145D+01 -.619636103928255D+01 0.211878275681097D+02
-.168361366428D-06 0.000000000000D+00 0.000000000000D+00 0.156146374860D-07 0.000000000000D+00  7 1 -1 24 -11 11 -24 21 2 0.17477210D-01 0.98306876D-01 0.67864647D+05 0.67864647D+05 0.67864647D+05 0.11358052D+01  1  2  8  2  7  2       -1 -.892981364791D-05 0.100000000000D+01
-.768444654067D-08 0.000000000000D+00 0.000000000000D+00 0.156146374860D-07 0.000000000000D+00  7 1 -1 24 -11 11 -24 21 2 0.17477210D-01 0.10595725D+00 0.67864647D+05 0.67864647D+05 0.67864647D+05 0.11358052D+01  1  2  9  2  7  2       -1 -.345112062149D-06 0.100000000000D+01
0.766291797833D-08 0.000000000000D+00 0.000000000000D+00 0.156146374860D-07 0.000000000000D+00  7 1 -1 24 -11 11 -24 21 2 0.17477210D-01 0.98306876D-01 0.67864647D+05 0.67864647D+05 0.67864647D+05 0.11358052D+01  1  2 10  2  7  2       -1 0.406437836645D-06 0.100000000000D+01
0.274694094200D-05 0.000000000000D+00 0.000000000000D+00 0.156146374860D-07 0.124216120989D-08  7 1 -1 24 -11 11 -24 21 2 0.18917604D-01 0.98678006D-01 0.70351443D+05 0.70351443D+05 0.70351443D+05 0.11344748D+01  1  2  1  2  7  2       -1 0.129976244398D-03 0.100000000000D+01
  </mgrwgt>
  </event>
  <event>
  8     66 0.27727860E-05 0.16481044E+03 0.75467711E-02 0.10405488E+00
        1 -1    0    0  501    0 0.00000000E+00 0.00000000E+00 0.22569328E+04 0.22569328E+04 0.32000000E+00 0.0000E+00 0.9000E+01
       -1 -1    0    0    0  501 0.00000000E+00 0.00000000E+00 -.21848043E+02 0.21850386E+02 0.32000000E+00 0.0000E+00 0.9000E+01
       25  2    1    2    0    0 0.77413293E+01 0.91104284E+02 0.15074637E+04 0.15398376E+04 0.30048794E+03 0.0000E+00 0.0000E+00
       23  2    1    2    0    0 -.77413293E+01 -.91104284E+02 0.72762106E+03 0.73894564E+03 0.90820389E+02 0.0000E+00 0.0000E+00
       24  1    3    3    0    0 -.32754992E+02 0.13775195E+02 0.12822716E+04 0.12852822E+04 0.80419002E+02 0.0000E+00 0.9000E+01
      -13  1    4    4    0    0 -.36692437E+02 -.11727684E+02 0.13703391E+03 0.14234528E+03 0.10565837E+00 0.0000E+00 0.9000E+01
       13  1    4    4    0    0 0.28951108E+02 -.79376600E+02 0.59058714E+03 0.59660037E+03 0.10565837E+00 0.0000E+00 0.9000E+01
      -24  1    3    3    0    0 0.40496321E+02 0.77329089E+02 0.22519211E+03 0.25455538E+03 0.80419002E+02 0.0000E+00 0.9000E+01
#aMCatNLO 1  0  0  1  2 0.11448476D+03 0.00000000D+00  -5  7  0 0.00000000D+00 0.00000000D+00 0.00000000D+00 0.00000000D+00 0.00000000D+00
  <mgrwgt>
 0.1885382808D-02    3    2    0
 0.222063642426728D+03 0.000000000000000D+00 0.000000000000000D+00 0.222063642426728D+03
 0.222063642426728D+03 0.000000000000000D+00 0.000000000000000D+00 -.222063642426728D+03
 0.141612036085542D+03 -.327549860622764D+02 0.137752117684248D+02 0.111013995688460D+03
 0.407351461438882D+02 -.366925256481692D+02 -.117276020324326D+02 -.132466615979745D+02
 0.889623584467546D+02 0.289511939574451D+02 -.793767103807068D+02 0.278472159826550D+02
 0.172817744177270D+03 0.404963177530005D+02 0.773291006447145D+02 -.125614550073141D+03
 0.000000000000000D+00 0.000000000000000D+00 -.000000000000000D+00 -.000000000000000D+00
 0.234300162667035D+03 0.000000000000000D+00 0.000000000000000D+00 0.234300162667035D+03
 0.887642704994096D+03 0.000000000000000D+00 0.000000000000000D+00 -.887642704994096D+03
 0.154236820399645D+03 -.558475080515434D+02 0.433443124104784D+02 0.111013995688460D+03
 0.455058798006207D+02 -.434240804415887D+02 -.310810082521794D+01 -.132466615979745D+02
 0.711508381714146D+02 0.164535370200352D+02 -.633739335534770D+02 0.278472159826550D+02
 0.187752082317553D+03 0.123519918092738D+02 0.113366845102405D+03 -.125614550073141D+03
 0.663297246971897D+03 0.704660596638231D+02 -.902291231341890D+02 -.653342542327061D+03
0.235325225559D-04 0.000000000000D+00 0.000000000000D+00 0.292779654857D-06 0.000000000000D+00  7 1 -1 24 -13 13 -24 21 0 0.34722061D+00 0.33614194D-02 0.27162481D+05 0.27162481D+05 0.27162481D+05 0.11713609D+01  1  2  2  1  7  1        1 0.184727198292D-02 0.100000000000D+01
-.116604363781D-05 0.000000000000D+00 -.903710828700D-07 0.292779654857D-06 0.000000000000D+00  7 1 -1 24 -13 13 -24 21 2 0.34722061D+00 0.33614194D-02 0.27162481D+05 0.27162481D+05 0.27162481D+05 0.11713609D+01  1  2  3  1  7  1        1 -.125591027796D-03 0.100000000000D+01
0.151988169046D-05 0.000000000000D+00 0.000000000000D+00 0.292779654857D-06 0.000000000000D+00  7 1 -1 24 -13 13 -24 21 2 0.34722061D+00 0.33614194D-02 0.27162481D+05 0.27162481D+05 0.27162481D+05 0.11713609D+01  1  2 15  1  7  1        1 0.163701852524D-03 0.100000000000D+01
  </mgrwgt>
  </event>
  <event>
  8     66 0.27727860E-05 0.21740384E+03 0.75467711E-02 0.96096114E-01
        1 -1    0    0  501    0 0.00000000E+00 0.00000000E+00 0.22705287E+03 0.22705310E+03 0.32000000E+00 0.0000E+00 0.9000E+01
       -1 -1    0    0    0  501 0.00000000E+00 0.00000000E+00 -.11681091E+04 0.11681091E+04 0.32000000E+00 0.0000E+00 0.9000E+01
       25  2    1    2    0    0 -.12960399E+03 0.37564311E+03 -.83716517E+03 0.97438528E+03 0.30112489E+03 0.0000E+00 0.0000E+00
       23  2    1    2    0    0 0.12960399E+03 -.37564311E+03 -.10389102E+03 0.42077693E+03 0.91405354E+02 0.0000E+00 0.0000E+00
       24  1    3    3    0    0 -.18106666E+02 0.29340777E+03 -.36346056E+03 0.47432770E+03 0.80419002E+02 0.0000E+00 0.9000E+01
      -11  1    4    4    0    0 -.13426839E+02 -.19454611E+02 -.97316350E+01 0.25562993E+02 0.51099893E-03 0.0000E+00 0.9000E+01
       11  1    4    4    0    0 0.14303083E+03 -.35618850E+03 -.94159382E+02 0.39521393E+03 0.51099893E-03 0.0000E+00 0.9000E+01
      -24  1    3    3    0    0 -.11149732E+03 0.82235338E+02 -.47370461E+03 0.50005757E+03 0.80419002E+02 0.0000E+00 0.9000E+01
#aMCatNLO 1  0  0  2  1 0.75502851D+01 0.00000000D+00  -5  7  0 0.00000000D+00 0.00000000D+00 0.00000000D+00 0.00000000D+00 0.00000000D+00
  <mgrwgt>
 0.1520357986D-02   11    2    0
 0.514997772130275D+03 0.000000000000000D+00 0.000000000000000D+00 0.514997772130275D+03
 0.514997772130275D+03 0.000000000000000D+00 0.000000000000000D+00 -.514997772130275D+03
 0.310416168541959D+03 -.181066661716366D+02 0.293407773222980D+03 -.589492068681207D+02
 0.257345831075682D+02 -.134268386466662D+02 -.194546108069708D+02 0.101738335953573D+02
 0.449301239446225D+03 0.143030825791449D+03 -.356188500281974D+03 0.233545582078121D+03
 0.244543553164798D+03 -.111497320973146D+03 0.822353378659651D+02 -.184770208805358D+03
 0.000000000000000D+00 0.000000000000000D+00 -.000000000000000D+00 -.000000000000000D+00
 0.517158179491174D+03 0.000000000000000D+00 0.000000000000000D+00 0.517158179491174D+03
 0.521650896089077D+03 0.000000000000000D+00 0.000000000000000D+00 -.521650896089077D+03
 0.311755858451861D+03 -.199831150963612D+02 0.294703521263916D+03 -.589492068681207D+02
 0.257352311332353D+02 -.135820697939979D+02 -.193474187313448D+02 0.101738335953573D+02
 0.446966916720109D+03 0.140327712592951D+03 -.354321914101432D+03 0.233545582078121D+03
 0.245565210909521D+03 -.112975471747280D+03 0.832560482858204D+02 -.184770208805358D+03
 0.878585836552394D+01 0.621294404468833D+01 -.429023671695944D+01 -.449271659790287D+01
0.113954366604D-03 0.000000000000D+00 0.000000000000D+00 0.204367751055D-05 0.000000000000D+00  7 1 -1 24 -11 11 -24 21 0 0.34931232D-01 0.17970911D+00 0.19028400D+06 0.19028400D+06 0.19028400D+06 0.10994903D+01  1  2  2  2  7  2       -1 0.372764993604D-03 0.100000000000D+01
-.611862393065D-05 0.000000000000D+00 -.437614772634D-06 0.204367751055D-05 0.000000000000D+00  7 1 -1 24 -11 11 -24 21 2 0.34931232D-01 0.17970911D+00 0.19028400D+06 0.19028400D+06 0.19028400D+06 0.10994903D+01  1  2  3  2  7  2       -1 -.241958415141D-04 0.100000000000D+01
0.713369067407D-05 0.000000000000D+00 0.000000000000D+00 0.204367751055D-05 0.000000000000D+00  7 1 -1 24 -11 11 -24 21 2 0.34931232D-01 0.17970911D+00 0.19028400D+06 0.19028400D+06 0.19028400D+06 0.10994903D+01  1  2 15  2  7  2       -1 0.282098803451D-04 0.100000000000D+01
0.728147687204D-04 0.000000000000D+00 0.000000000000D+00 0.204367751055D-05 0.000000000000D+00  7 1 -1 24 -11 11 -24 21 2 0.34931232D-01 0.18240441D+00 0.19367336D+06 0.19367336D+06 0.19367336D+06 0.10988992D+01  1  2 12  2  7  2       -1 0.273341969917D-03 0.100000000000D+01
-.978924639232D-04 0.000000000000D+00 0.000000000000D+00 0.204367751055D-05 0.000000000000D+00  7 1 -1 24 -11 11 -24 21 2 0.34931232D-01 0.17970911D+00 0.19028400D+06 0.19028400D+06 0.19028400D+06 0.10994903D+01  1  2  4  2  7  2       -1 -.387111639701D-03 0.100000000000D+01
-.756890607774D-02 0.000000000000D+00 -.806695173114D-03 0.204367751055D-05 0.000000000000D+00  7 1 -1 24 -11 11 -24 21 2 0.34931232D-01 0.18245898D+00 0.19028400D+06 0.19028400D+06 0.19028400D+06 0.10994903D+01  1  2  5  2  7  2       -1 -.284380907869D-01 0.100000000000D+01
0.758037539923D-02 0.000000000000D+00 0.806602165444D-03 0.204367751055D-05 0.000000000000D+00  7 1 -1 24 -11 11 -24 21 2 0.34931232D-01 0.17970911D+00 0.19028400D+06 0.19028400D+06 0.19028400D+06 0.10994903D+01  1  2  6  2  7  2       -1 0.299762763418D-01 0.100000000000D+01
0.263400727649D-04 0.000000000000D+00 0.000000000000D+00 0.204367751055D-05 0.230899056022D-06  7 1 -1 24 -11 11 -24 21 2 0.35077768D-01 0.18203072D+00 0.19367336D+06 0.19367336D+06 0.19367336D+06 0.10988992D+01  1  2 11  2  7  2       -1 0.990236936754D-04 0.100000000000D+01
0.502000426569D-05 0.000000000000D+00 0.000000000000D+00 0.204367751055D-05 0.000000000000D+00  7 1 21 24 -11 11 -24 1 2 0.34931232D-01 0.18240441D+00 0.19367336D+06 0.19367336D+06 0.19367336D+06 0.10988992D+01  1  2 12  4  7  2       -1 0.119660917556D-03 0.100000000000D+01
-.210002645947D-04 0.000000000000D+00 -.224550636615D-05 0.204367751055D-05 0.000000000000D+00  7 1 21 24 -11 11 -24 1 2 0.34931232D-01 0.18245898D+00 0.19028400D+06 0.19028400D+06 0.19028400D+06 0.10994903D+01  1  2  5  4  7  2       -1 -.501296178519D-03 0.100000000000D+01
0.743626026917D-07 0.000000000000D+00 0.000000000000D+00 0.204367751055D-05 0.549525176204D-09  7 1 21 24 -11 11 -24 1 2 0.35077768D-01 0.18203072D+00 0.19367336D+06 0.19367336D+06 0.19367336D+06 0.10988992D+01  1  2 11  4  7  2       -1 0.177463568640D-05 0.100000000000D+01
  </mgrwgt>
  </event>
  <event>
  8     66 0.27727860E-05 0.55388202E+02 0.75467711E-02 0.10235566E+00
        1 -1    0    0  501    0 0.00000000E+00 0.00000000E+00 0.60193385E+03 0.60193393E+03 0.32000000E+00 0.0000E+00 0.9000E+01
       -1 -1    0    0    0  501 0.00000000E+00 0.00000000E+00 -.34363494E+03 0.34363509E+03 0.32000000E+00 0.0000E+00 0.9000E+01
       25  2    1    2    0    0 0.20736883E+02 -.13270526E+03 -.24862080E+03 0.41261955E+03 0.30066906E+03 0.0000E+00 0.0000E+00
       23  2    1    2    0    0 -.20736883E+02 0.13270526E+03 0.50691970E+03 0.53294948E+03 0.95009792E+02 0.0000E+00 0.0000E+00
       24  1    3    3    0    0 0.84847802E+02 0.10528091E+02 -.19625224E+03 0.22867476E+03 0.80419002E+02 0.0000E+00 0.9000E+01
      -13  1    4    4    0    0 -.26475465E+02 0.99483060E+02 0.47665036E+03 0.48764065E+03 0.10565837E+00 0.0000E+00 0.9000E+01
       13  1    4    4    0    0 0.57385820E+01 0.33222195E+02 0.30269343E+02 0.45308828E+02 0.10565837E+00 0.0000E+00 0.9000E+01
      -24  1    3    3    0    0 -.64110918E+02 -.14323335E+03 -.52368565E+02 0.18394479E+03 0.80419002E+02 0.0000E+00 0.9000E+01
#aMCatNLO 1  0  0  1  2 0.87951969D+02 0.00000000D+00  -5  7  0 0.00000000D+00 0.00000000D+00 0.00000000D+00 0.00000000D+00 0.00000000D+00
  <mgrwgt>
 0.8611009655D-03    9    2    0
 0.454802830378201D+03 0.000000000000000D+00 0.000000000000000D+00 0.454802830378201D+03
 0.454802830378201D+03 0.000000000000000D+00 0.000000000000000D+00 -.454802830378201D+03
 0.293445300605530D+03 0.848478016726076D+02 0.105280910448772D+02 -.268947835729116D+03
 0.371567615343799D+03 -.264755050804738D+02 0.994831430109672D+02 0.357021910615680D+03
 0.385042799435574D+02 0.573862156613951D+01 0.332221127686999D+02 0.185994360042518D+02
 0.206088464863516D+03 -.641109181582733D+02 -.143233346824544D+03 -.106673510890815D+03
 0.000000000000000D+00 0.000000000000000D+00 -.000000000000000D+00 0.000000000000000D+00
 0.501969704632889D+03 0.000000000000000D+00 0.000000000000000D+00 0.501969704632889D+03
 0.499855581820398D+03 0.000000000000000D+00 0.000000000000000D+00 -.499855581820398D+03
 0.288098301957215D+03 0.602209570893038D+02 0.239564943205883D+02 -.268947835729116D+03
 0.380153148178801D+03 -.583089055885917D+02 0.116841101242857D+03 0.357021910615680D+03
 0.397345321868798D+02 0.242541330758817D+01 0.350287224820047D+02 0.185994360042518D+02
 0.205861930033333D+03 -.815559357054498D+02 -.133721014459635D+03 -.106673510890815D+03
 0.879773740970589D+02 0.772184708971495D+02 -.421053035858147D+02 0.211412281249112D+01
0.377096923245D-04 0.000000000000D+00 0.000000000000D+00 0.329163073042D-06 0.000000000000D+00  7 1 -1 24 -13 13 -24 21 0 0.92605225D-01 0.52866933D-01 0.46304366D+05 0.46304366D+05 0.46304366D+05 0.11502403D+01  1  2  2  1  7  1        1 0.586001382692D-03 0.100000000000D+01
-.668414307030D-06 0.000000000000D+00 -.144815147716D-06 0.329163073042D-06 0.000000000000D+00  7 1 -1 24 -13 13 -24 21 2 0.92605225D-01 0.52866933D-01 0.46304366D+05 0.46304366D+05 0.46304366D+05 0.11502403D+01  1  2  3  1  7  1        1 -.137425879507D-04 0.100000000000D+01
0.223740057130D-05 0.000000000000D+00 0.000000000000D+00 0.329163073042D-06 0.000000000000D+00  7 1 -1 24 -13 13 -24 21 2 0.92605225D-01 0.52866933D-01 0.46304366D+05 0.46304366D+05 0.46304366D+05 0.11502403D+01  1  2 15  1  7  1        1 0.460009215970D-04 0.100000000000D+01
0.302232775107D-04 0.000000000000D+00 0.000000000000D+00 0.329163073042D-06 0.000000000000D+00  7 1 -1 24 -13 13 -24 21 2 0.10634944D+00 0.52866933D-01 0.71022088D+05 0.71022088D+05 0.71022088D+05 0.11341248D+01  1  2 12  1  7  1        1 0.488494028326D-03 0.100000000000D+01
-.309057595443D-04 0.000000000000D+00 0.000000000000D+00 0.329163073042D-06 0.000000000000D+00  7 1 -1 24 -13 13 -24 21 2 0.92605225D-01 0.52866933D-01 0.46304366D+05 0.46304366D+05 0.46304366D+05 0.11502403D+01  1  2  4  1  7  1        1 -.635421944524D-03 0.100000000000D+01
-.697627922906D-04 0.000000000000D+00 -.303684443342D-04 0.329163073042D-06 0.000000000000D+00  7 1 -1 24 -13 13 -24 21 2 0.11034965D+00 0.52866933D-01 0.46304366D+05 0.46304366D+05 0.46304366D+05 0.11502403D+01  1  2  5  1  7  1        1 -.111112444420D-02 0.100000000000D+01
0.744011731798D-04 0.000000000000D+00 0.299076890261D-04 0.329163073042D-06 0.000000000000D+00  7 1 -1 24 -13 13 -24 21 2 0.92605225D-01 0.52866933D-01 0.46304366D+05 0.46304366D+05 0.46304366D+05 0.11502403D+01  1  2  6  1  7  1        1 0.152968698501D-02 0.100000000000D+01
0.645572794554D-06 0.000000000000D+00 0.000000000000D+00 0.329163073042D-06 0.000000000000D+00  7 21 -1 24 -13 13 -24 -1 2 0.10634944D+00 0.52866933D-01 0.71022088D+05 0.71022088D+05 0.71022088D+05 0.11341248D+01  1  2 12  3  7  1        1 0.226525588621D-04 0.100000000000D+01
-.152409444308D-05 0.000000000000D+00 -.784511609299D-06 0.329163073042D-06 0.000000000000D+00  7 21 -1 24 -13 13 -24 -1 2 0.11034965D+00 0.52866933D-01 0.46304366D+05 0.46304366D+05 0.46304366D+05 0.11502403D+01  1  2  5  3  7  1        1 -.514459342865D-04 0.100000000000D+01
  </mgrwgt>
  </event>
  <event>
  8     66 0.27727860E-05 0.14780787E+03 0.75467711E-02 0.99526741E-01
        1 -1    0    0  501    0 0.00000000E+00 0.00000000E+00 0.20736512E+03 0.20736537E+03 0.32000000E+00 0.0000E+00 0.9000E+01
       -1 -1    0    0    0  501 0.00000000E+00 0.00000000E+00 -.33698974E+03 0.33698989E+03 0.32000000E+00 0.0000E+00 0.9000E+01
       25  2    1    2    0    0 0.85235632E+02 -.12974497E+03 -.30873825E+02 0.33933898E+03 0.30016476E+03 0.0000E+00 0.0000E+00
       23  2    1    2    0    0 -.85235632E+02 0.12974497E+03 -.98750795E+02 0.20501627E+03 0.90449343E+02 0.0000E+00 0.0000E+00
       24  1    3    3    0    0 -.66025463E+02 -.47771819E+02 0.59487526E+02 0.12902515E+03 0.80419002E+02 0.0000E+00 0.9000E+01
      -13  1    4    4    0    0 -.15911294E+02 0.39039032E+02 -.78452228E+02 0.89061656E+02 0.10565837E+00 0.0000E+00 0.9000E+01
       13  1    4    4    0    0 -.69324338E+02 0.90705936E+02 -.20298567E+02 0.11595462E+03 0.10565837E+00 0.0000E+00 0.9000E+01
      -24  1    3    3    0    0 0.15126110E+03 -.81973149E+02 -.90361351E+02 0.21031383E+03 0.80419002E+02 0.0000E+00 0.9000E+01
#aMCatNLO 1  0  0  2  1 0.16950989D+03 0.00000000D+00  -5  7  0 0.00000000D+00 0.00000000D+00 0.00000000D+00 0.00000000D+00 0.00000000D+00
  <mgrwgt>
 0.4076475427D-03    7    2    0
 0.264348303357481D+03 0.000000000000000D+00 0.000000000000000D+00 0.264348303357481D+03
 0.264348303357481D+03 0.000000000000000D+00 0.000000000000000D+00 -.264348303357481D+03
 0.147431565529335D+03 -.660254628267247D+02 -.477718195630498D+02 0.928834865528441D+02
 0.724646403432840D+02 -.159112227195999D+02 0.390389629910657D+02 -.589399394318571D+02
 0.114412200787518D+03 -.693244103803224D+02 0.907060068826317D+02 0.752981605830689D+01
 0.194388200054825D+03 0.151261095926647D+03 -.819731503106476D+02 -.414733631792939D+02
 0.000000000000000D+00 0.000000000000000D+00 0.000000000000000D+00 -.000000000000000D+00
 0.283963929765047D+03 0.000000000000000D+00 0.000000000000000D+00 0.283963929765047D+03
 0.140690341707943D+04 0.000000000000000D+00 0.000000000000000D+00 -.140690341707943D+04
 0.180866652260035D+03 -.105041112639799D+03 -.811452557243034D+02 0.928834865528441D+02
 0.718386863428839D+02 -.330605331811673D+02 0.243696848772651D+02 -.589399394318571D+02
 0.118135424934407D+03 -.969608587019809D+02 0.670661790646781D+02 0.752981605830689D+01
 0.184365237072609D+03 0.106249241863086D+03 -.120475654953964D+03 -.414733631792939D+02
 0.113566134623454D+04 0.128813262659861D+03 0.110185046736324D+03 -.112293948731438D+04
0.742962665747D-05 0.000000000000D+00 0.000000000000D+00 0.110570544171D-05 0.000000000000D+00  7 1 -1 24 -13 13 -24 21 0 0.31902357D-01 0.51844606D-01 0.53067311D+05 0.53067311D+05 0.53067311D+05 0.11450279D+01  1  2  2  2  7  2       -1 0.489723836681D-03 0.100000000000D+01
-.403253790822D-06 0.000000000000D+00 -.285317226303D-07 0.110570544171D-05 0.000000000000D+00  7 1 -1 24 -13 13 -24 21 2 0.31902357D-01 0.51844606D-01 0.53067311D+05 0.53067311D+05 0.53067311D+05 0.11450279D+01  1  2  3  2  7  2       -1 -.348493654839D-04 0.100000000000D+01
0.474871126754D-06 0.000000000000D+00 0.000000000000D+00 0.110570544171D-05 0.000000000000D+00  7 1 -1 24 -13 13 -24 21 2 0.31902357D-01 0.51844606D-01 0.53067311D+05 0.53067311D+05 0.53067311D+05 0.11450279D+01  1  2 15  2  7  2       -1 0.410385663585D-04 0.100000000000D+01
0.811681836550D-05 0.000000000000D+00 0.000000000000D+00 0.110570544171D-05 0.000000000000D+00  7 1 -1 24 -13 13 -24 21 2 0.31902357D-01 0.26602943D+00 0.10999550D+06 0.10999550D+06 0.10999550D+06 0.11183425D+01  1  2 12  2  7  2       -1 0.765428217385D-05 0.100000000000D+01
-.487428833992D-04 0.000000000000D+00 -.313849305914D-05 0.110570544171D-05 0.000000000000D+00  7 1 -1 24 -13 13 -24 21 2 0.31902357D-01 0.27979514D+00 0.53067311D+05 0.53067311D+05 0.53067311D+05 0.11450279D+01  1  2  5  2  7  2       -1 -.386882532732D-04 0.100000000000D+01
0.162006910481D-05 0.000000000000D+00 0.000000000000D+00 0.110570544171D-05 0.000000000000D+00  7 1 21 24 -13 13 -24 1 2 0.31902357D-01 0.26602943D+00 0.10999550D+06 0.10999550D+06 0.10999550D+06 0.11183425D+01  1  2 12  4  7  2       -1 0.120724113781D-04 0.100000000000D+01
-.101858570667D-04 0.000000000000D+00 -.647137177940D-06 0.110570544171D-05 0.000000000000D+00  7 1 21 24 -13 13 -24 1 2 0.31902357D-01 0.27979514D+00 0.53067311D+05 0.53067311D+05 0.53067311D+05 0.11450279D+01  1  2  5  4  7  2       -1 -.693039351025D-04 0.100000000000D+01
  </mgrwgt>
  </event>
  <event>
  8     66 0.27727860E-05 0.24401238E+03 0.75467711E-02 0.92025407E-01
        1 -1    0    0  501    0 0.00000000E+00 0.00000000E+00 0.91247384E+03 0.91247390E+03 0.32000000E+00 0.0000E+00 0.9000E+01
       -1 -1    0    0    0  501 0.00000000E+00 0.00000000E+00 -.39911759E+03 0.39911772E+03 0.32000000E+00 0.0000E+00 0.9000E+01
       25  2    1    2    0    0 0.34381818E+03 0.38151844E+03 0.22063509E+02 0.59508441E+03 0.29978558E+03 0.0000E+00 0.0000E+00
       23  2    1    2    0    0 -.34381818E+03 -.38151844E+03 0.49129274E+03 0.71650721E+03 0.90811706E+02 0.0000E+00 0.0000E+00
       24  1    3    3    0    0 0.36343915E+03 0.29642137E+03 0.12850023E+02 0.47601049E+03 0.80419002E+02 0.0000E+00 0.9000E+01
      -11  1    4    4    0    0 -.34704985E+03 -.36125400E+03 0.46941640E+03 0.68651278E+03 0.51099893E-03 0.0000E+00 0.9000E+01
       11  1    4    4    0    0 0.32316676E+01 -.20264446E+02 0.21876338E+02 0.29994426E+02 0.51099893E-03 0.0000E+00 0.9000E+01
      -24  1    3    3    0    0 -.19620973E+02 0.85097074E+02 0.92134863E+01 0.11907392E+03 0.80419002E+02 0.0000E+00 0.9000E+01
#aMCatNLO 1  0  0  2  1 0.14182343D+03 0.00000000D+00  -5  7  0 0.00000000D+00 0.00000000D+00 0.00000000D+00 0.00000000D+00 0.00000000D+00
  <mgrwgt>
 0.1102748330D-02    9    2    0
 0.603476996668758D+03 0.000000000000000D+00 0.000000000000000D+00 0.603476996668758D+03
 0.603476996668758D+03 0.000000000000000D+00 0.000000000000000D+00 -.603476996668758D+03
 0.511812986350076D+03 0.363439152237908D+03 0.296421369203458D+03 -.188498465623333D+03
 0.546372585134823D+03 -.347049846380159D+03 -.361253996551352D+03 0.218116839996578D+03
 0.232901036666750D+02 0.323166758361774D+01 -.202644463416509D+02 0.110153287694837D+02
 0.125478318185943D+03 -.196209734413666D+02 0.850970736895453D+02 -.406337031427283D+02
 0.000000000000000D+00 -.000000000000000D+00 0.000000000000000D+00 -.000000000000000D+00
 0.668823602099717D+03 0.000000000000000D+00 0.000000000000000D+00 0.668823602099717D+03
 0.689800724403645D+03 0.000000000000000D+00 0.000000000000000D+00 -.689800724403645D+03
 0.551444870862525D+03 0.424774591775375D+03 0.285760571608346D+03 -.188498465623333D+03
 0.517223044326752D+03 -.285694922002572D+03 -.371918180833480D+03 0.218116839996578D+03
 0.242322324478428D+02 0.597305656434206D+01 -.207409309527234D+02 0.110153287694837D+02
 0.122357778532424D+03 -.532421953322054D+01 0.826121351151871D+02 -.406337031427283D+02
 0.143366400333817D+03 -.139728506803925D+03 0.242864050626697D+02 -.209771223039277D+02
0.118911402857D-03 0.000000000000D+00 0.000000000000D+00 0.864957185064D-05 0.000000000000D+00  7 1 -1 24 -11 11 -24 21 0 0.14038061D+00 0.61402721D-01 0.31137606D+06 0.31137606D+06 0.31137606D+06 0.10833580D+01  1  2  2  2  7  2       -1 0.695033642249D-03 0.100000000000D+01
-.655690750338D-05 0.000000000000D+00 -.456651097061D-06 0.864957185064D-05 0.000000000000D+00  7 1 -1 24 -11 11 -24 21 2 0.14038061D+00 0.61402721D-01 0.31137606D+06 0.31137606D+06 0.31137606D+06 0.10833580D+01  1  2  3  2  7  2       -1 -.449806137244D-04 0.100000000000D+01
0.719991154454D-05 0.000000000000D+00 0.000000000000D+00 0.864957185064D-05 0.000000000000D+00  7 1 -1 24 -11 11 -24 21 2 0.14038061D+00 0.61402721D-01 0.31137606D+06 0.31137606D+06 0.31137606D+06 0.10833580D+01  1  2 15  2  7  2       -1 0.493916438303D-04 0.100000000000D+01
0.971877783398D-04 0.000000000000D+00 0.000000000000D+00 0.864957185064D-05 0.000000000000D+00  7 1 -1 24 -11 11 -24 21 2 0.14038061D+00 0.73099783D-01 0.40070875D+06 0.40070875D+06 0.40070875D+06 0.10753722D+01  1  2 12  2  7  2       -1 0.463156468821D-03 0.100000000000D+01
-.879407767298D-04 0.000000000000D+00 0.000000000000D+00 0.864957185064D-05 0.000000000000D+00  7 1 -1 24 -11 11 -24 21 2 0.14038061D+00 0.61402721D-01 0.31137606D+06 0.31137606D+06 0.31137606D+06 0.10833580D+01  1  2  4  2  7  2       -1 -.603276789656D-03 0.100000000000D+01
-.241937300078D-03 0.000000000000D+00 -.741255230110D-04 0.864957185064D-05 0.000000000000D+00  7 1 -1 24 -11 11 -24 21 2 0.14038061D+00 0.76825452D-01 0.31137606D+06 0.31137606D+06 0.31137606D+06 0.10833580D+01  1  2  5  2  7  2       -1 -.107041809877D-02 0.100000000000D+01
0.253967430207D-03 0.000000000000D+00 0.723026597560D-04 0.864957185064D-05 0.000000000000D+00  7 1 -1 24 -11 11 -24 21 2 0.14038061D+00 0.61402721D-01 0.31137606D+06 0.31137606D+06 0.31137606D+06 0.10833580D+01  1  2  6  2  7  2       -1 0.174222541203D-02 0.100000000000D+01
0.250009730394D-05 0.000000000000D+00 0.000000000000D+00 0.864957185064D-05 0.000000000000D+00  7 1 21 24 -11 11 -24 1 2 0.14038061D+00 0.73099783D-01 0.40070875D+06 0.40070875D+06 0.40070875D+06 0.10753722D+01  1  2 12  4  7  2       -1 0.923833900180D-04 0.100000000000D+01
-.651159311656D-05 0.000000000000D+00 -.231240256617D-05 0.864957185064D-05 0.000000000000D+00  7 1 21 24 -11 11 -24 1 2 0.14038061D+00 0.76825452D-01 0.31137606D+06 0.31137606D+06 0.31137606D+06 0.10833580D+01  1  2  5  4  7  2       -1 -.220766724954D-03 0.100000000000D+01
  </mgrwgt>
  </event>
  <event>
  8     66 0.27727860E-05 0.26539488E+03 0.75467711E-02 0.97187432E-01
        1 -1    0    0  501    0 0.00000000E+00 0.00000000E+00 0.23508655E+04 0.23508655E+04 0.32000000E+00 0.0000E+00 0.9000E+01
       -1 -1    0    0    0  501 0.00000000E+00 0.00000000E+00 -.42420131E+02 0.42421337E+02 0.32000000E+00 0.0000E+00 0.9000E+01
       25  2    1    2    0    0 -.71060613E+02 0.20578300E+03 0.17146850E+04 0.17543486E+04 0.30032995E+03 0.0000E+00 0.0000E+00
       23  2    1    2    0    0 0.71060613E+02 -.20578300E+03 0.59376031E+03 0.63893821E+03 0.91073998E+02 0.0000E+00 0.0000E+00
       24  1    3    3    0    0 0.87420085E+02 0.34635625E+02 0.61546613E+03 0.62777995E+03 0.80419002E+02 0.0000E+00 0.9000E+01
      -11  1    4    4    0    0 0.30568638E+02 -.11490466E+03 0.19883945E+03 0.23167790E+03 0.51099893E-03 0.0000E+00 0.9000E+01
       11  1    4    4    0    0 0.40491975E+02 -.90878343E+02 0.39492085E+03 0.40726030E+03 0.51099893E-03 0.0000E+00 0.9000E+01
      -24  1    3    3    0    0 -.15848070E+03 0.17114738E+03 0.10992189E+04 0.11265687E+04 0.80419002E+02 0.0000E+00 0.9000E+01
#aMCatNLO 1  0  0  1  2 0.18733041D+03 0.00000000D+00  -5  7  0 0.00000000D+00 0.00000000D+00 0.00000000D+00 0.00000000D+00 0.00000000D+00
  <mgrwgt>
 0.8966651048D-03    9    2    0
 0.315793430896495D+03 0.000000000000000D+00 0.000000000000000D+00 0.315793430896495D+03
 0.315793430896495D+03 0.000000000000000D+00 0.000000000000000D+00 -.315793430896495D+03
 0.129337042350496D+03 0.874200850601975D+02 0.346356249707795D+02 0.376690427347818D+02
 0.151145742165625D+03 0.305686380878538D+02 -.114904660325536D+03 -.933140545455219D+02
 0.998081461122235D+02 0.404919751722847D+02 -.908783426950552D+02 0.794939029147157D+01
 0.251295931164646D+03 -.158480698320336D+03 0.171147378049812D+03 0.476956215192686D+02
 0.000000000000000D+00 -.000000000000000D+00 -.000000000000000D+00 0.000000000000000D+00
 0.477162177241883D+03 0.000000000000000D+00 0.000000000000000D+00 0.477162177241883D+03
 0.388761466335542D+03 0.000000000000000D+00 0.000000000000000D+00 -.388761466335542D+03
 0.161807429707200D+03 0.121213586029915D+03 0.600228134569974D+02 0.376690427347818D+02
 0.144432744881856D+03 0.648768006920448D+02 -.891308350143056D+02 -.933140545455219D+02
 0.975181011404297D+02 0.633958781066390D+02 -.736719070142554D+02 0.794939029147157D+01
 0.255024425995625D+03 -.997114647513307D+02 0.215297453271194D+03 0.476956215192686D+02
 0.207140941852315D+03 -.149774800077268D+03 -.112517524699631D+03 0.884007109063409D+02
0.283011220229D-04 0.000000000000D+00 0.000000000000D+00 0.225086479394D-05 0.000000000000D+00  7 1 -1 24 -11 11 -24 21 0 0.36167171D+00 0.65262684D-02 0.86686235D+05 0.86686235D+05 0.86686235D+05 0.11268498D+01  1  2  2  1  7  1        1 0.709461230585D-03 0.100000000000D+01
-.156290048230D-05 0.000000000000D+00 -.108683760424D-06 0.225086479394D-05 0.000000000000D+00  7 1 -1 24 -11 11 -24 21 2 0.36167171D+00 0.65262684D-02 0.86686235D+05 0.86686235D+05 0.86686235D+05 0.11268498D+01  1  2  3  1  7  1        1 -.497494633367D-04 0.100000000000D+01
0.185202462162D-05 0.000000000000D+00 0.000000000000D+00 0.225086479394D-05 0.000000000000D+00  7 1 -1 24 -11 11 -24 21 2 0.36167171D+00 0.65262684D-02 0.86686235D+05 0.86686235D+05 0.86686235D+05 0.11268498D+01  1  2 15  1  7  1        1 0.589527177552D-04 0.100000000000D+01
0.385178523002D-05 0.000000000000D+00 0.000000000000D+00 0.225086479394D-05 0.000000000000D+00  7 1 -1 24 -11 11 -24 21 2 0.57105467D+00 0.65262684D-02 0.16106266D+06 0.16106266D+06 0.16106266D+06 0.11051214D+01  1  2 12  1  7  1        1 0.109938883889D-04 0.100000000000D+01
-.114668645461D-04 0.000000000000D+00 0.000000000000D+00 0.225086479394D-05 0.000000000000D+00  7 1 -1 24 -11 11 -24 21 2 0.36167171D+00 0.65262684D-02 0.86686235D+05 0.86686235D+05 0.86686235D+05 0.11268498D+01  1  2  4  1  7  1        1 -.365007474108D-03 0.100000000000D+01
-.158857338996D-04 0.000000000000D+00 -.758068876974D-05 0.225086479394D-05 0.000000000000D+00  7 1 -1 24 -11 11 -24 21 2 0.57571329D+00 0.65262684D-02 0.86686235D+05 0.86686235D+05 0.86686235D+05 0.11268498D+01  1  2  5  1  7  1        1 -.460358142447D-04 0.100000000000D+01
0.181629451011D-04 0.000000000000D+00 0.682936702151D-05 0.225086479394D-05 0.000000000000D+00  7 1 -1 24 -11 11 -24 21 2 0.36167171D+00 0.65262684D-02 0.86686235D+05 0.86686235D+05 0.86686235D+05 0.11268498D+01  1  2  6  1  7  1        1 0.578153747875D-03 0.100000000000D+01
0.202436677487D-06 0.000000000000D+00 0.000000000000D+00 0.225086479394D-05 0.000000000000D+00  7 21 -1 24 -11 11 -24 -1 2 0.57105467D+00 0.65262684D-02 0.16106266D+06 0.16106266D+06 0.16106266D+06 0.11051214D+01  1  2 12  3  7  1        1 0.623868583386D-07 0.100000000000D+01
-.532266134598D-06 0.000000000000D+00 -.403825049528D-06 0.225086479394D-05 0.000000000000D+00  7 21 -1 24 -11 11 -24 -1 2 0.57571329D+00 0.65262684D-02 0.86686235D+05 0.86686235D+05 0.86686235D+05 0.11268498D+01  1  2  5  3  7  1        1 -.166114986527D-06 0.100000000000D+01
  </mgrwgt>
  </event>
  <event>
  7     66 0.27727860E-05 0.56998058E+03 0.75467711E-02 0.92968100E-01
        1 -1    0    0  501    0 0.00000000E+00 0.00000000E+00 0.10622659E+04 0.10622659E+04 0.32000000E+00 0.0000E+00 0.9000E+01
       -1 -1    0    0    0  501 0.00000000E+00 0.00000000E+00 -.31636195E+03 0.31636211E+03 0.32000000E+00 0.0000E+00 0.9000E+01
       23  2    1    2    0    0 -.17690789E+03 -.49133572E+03 0.27401573E+03 0.59740139E+03 0.95376125E+02 0.0000E+00 0.0000E+00
       24  1    1    2    0    0 0.50199202E+02 0.44503842E+03 0.28414889E+03 0.53645779E+03 0.80419002E+02 0.0000E+00 0.9000E+01
      -11  1    3    3    0    0 -.27891513E+02 -.18651232E+03 0.68085958E+02 0.20050057E+03 0.51099893E-03 0.0000E+00 0.9000E+01
       11  1    3    3    0    0 -.14901637E+03 -.30482340E+03 0.20592977E+03 0.39690082E+03 0.51099893E-03 0.0000E+00 0.9000E+01
      -24  1    1    2    0    0 0.12670868E+03 0.46297298E+02 0.18773932E+03 0.24476887E+03 0.80419002E+02 0.0000E+00 0.9000E+01
#aMCatNLO 1  0  0  2  1 0.20240538D+02 0.00000000D+00  -5  7  0 0.00000000D+00 0.00000000D+00 0.00000000D+00 0.00000000D+00 0.00000000D+00
  <mgrwgt>
 0.2256130796D-03    4    2    0
 0.579707384610844D+03 0.000000000000000D+00 0.000000000000000D+00 0.579707384610844D+03
 0.579707384610844D+03 0.000000000000000D+00 0.000000000000000D+00 -.579707384610844D+03
 0.455081302748069D+03 0.501992023826028D+02 0.445038421056833D+03 -.725396580501578D+01
 0.194606908417714D+03 -.278915129360973D+02 -.186512316072260D+03 -.480319504434035D+02
 0.339459855565299D+03 -.149016373727680D+03 -.304823404237671D+03 -.104788420363723D+02
 0.170266702490607D+03 0.126708684281175D+03 0.462972992530980D+02 0.657647582847916D+02
 0.000000000000000D+00 -.000000000000000D+00 0.000000000000000D+00 0.000000000000000D+00
 0.603653134680086D+03 0.000000000000000D+00 0.000000000000000D+00 0.603653134680086D+03
 0.584088713183756D+03 0.000000000000000D+00 0.000000000000000D+00 -.584088713183756D+03
 0.447871158955497D+03 0.522342930814665D+02 0.437424642282701D+03 -.725396580501578D+01
 0.197656444436165D+03 -.270074226492267D+02 -.189819916988696D+03 -.480319504434035D+02
 0.343980806706560D+03 -.147476022719178D+03 -.310586239191315D+03 -.104788420363723D+02
 0.170083020742600D+03 0.127475770684379D+03 0.434274388690356D+02 0.657647582847916D+02
 0.281504170230195D+02 -.522661839744101D+01 0.195540750282740D+02 0.195644214963302D+02
0.509387563210D-04 0.000000000000D+00 0.000000000000D+00 0.114265582459D-09 0.000000000000D+00  7 1 -1 24 -11 11 -24 21 0 0.16342554D+00 0.48671085D-01 0.32487786D+06 0.32487786D+06 0.32487786D+06 0.10820013D+01  1  2  2  2  7  2       -1 0.350462384650D-03 0.100000000000D+01
-.282894571997D-05 0.000000000000D+00 -.195618236755D-06 0.114265582459D-09 0.000000000000D+00  7 1 -1 24 -11 11 -24 21 2 0.16342554D+00 0.48671085D-01 0.32487786D+06 0.32487786D+06 0.32487786D+06 0.10820013D+01  1  2  3  2  7  2       -1 -.227862722666D-04 0.100000000000D+01
0.302357062655D-05 0.000000000000D+00 0.000000000000D+00 0.114265582459D-09 0.000000000000D+00  7 1 -1 24 -11 11 -24 21 2 0.16342554D+00 0.48671085D-01 0.32487786D+06 0.32487786D+06 0.32487786D+06 0.10820013D+01  1  2 15  2  7  2       -1 0.243539149682D-04 0.100000000000D+01
-.156948305983D-04 0.000000000000D+00 0.000000000000D+00 0.114265582459D-09 0.000000000000D+00  7 1 -1 24 -11 11 -24 21 2 0.16342554D+00 0.48671085D-01 0.32487786D+06 0.32487786D+06 0.32487786D+06 0.10820013D+01  1  2  4  2  7  2       -1 -.126416947723D-03 0.100000000000D+01
  </mgrwgt>
  </event>
  <event>
  8     66 0.27727860E-05 0.18591408E+03 0.75467711E-02 0.96895915E-01
        1 -1    0    0  501    0 0.00000000E+00 0.00000000E+00 0.15373777E+04 0.15373777E+04 0.32000000E+00 0.0000E+00 0.9000E+01
       -1 -1    0    0    0  501 0.00000000E+00 0.00000000E+00 -.29904955E+02 0.29906668E+02 0.32000000E+00 0.0000E+00 0.9000E+01
       25  2    1    2    0    0 0.65013104E+02 0.15003107E+01 0.96470527E+03 0.10125004E+04 0.30045270E+03 0.0000E+00 0.0000E+00
       23  2    1    2    0    0 -.65013104E+02 -.15003107E+01 0.54276749E+03 0.55478403E+03 0.94656289E+02 0.0000E+00 0.0000E+00
       24  1    3    3    0    0 0.60654612E+02 0.12421188E+03 0.53724925E+03 0.56054576E+03 0.80419002E+02 0.0000E+00 0.9000E+01
      -13  1    4    4    0    0 -.45426065E+02 -.26604323E+01 0.83470390E+02 0.95067989E+02 0.10565837E+00 0.0000E+00 0.9000E+01
       13  1    4    4    0    0 -.19587038E+02 0.11601215E+01 0.45929710E+03 0.45971604E+03 0.10565837E+00 0.0000E+00 0.9000E+01
      -24  1    3    3    0    0 0.43584920E+01 -.12271157E+03 0.42745602E+03 0.45195463E+03 0.80419002E+02 0.0000E+00 0.9000E+01
#aMCatNLO 1  0  0  2  1 0.32706118D+03 0.00000000D+00  -5  7  0 0.00000000D+00 0.00000000D+00 0.00000000D+00 0.00000000D+00 0.00000000D+00
  <mgrwgt>
 0.8701432752D-03    3    2    0
 0.214421500235638D+03 0.000000000000000D+00 0.000000000000000D+00 0.214421500235638D+03
 0.214421500235638D+03 0.000000000000000D+00 0.000000000000000D+00 -.214421500235638D+03
 0.160072933633148D+03 0.606553788653372D+02 0.124211896345712D+03 -.696117435898147D+01
 0.540269767870334D+02 -.454264638349544D+02 -.266041504455943D+01 -.291251231068455D+02
 0.655901875575289D+02 -.195881218919307D+02 0.116007012218252D+01 0.625861999316966D+02
 0.149152902493565D+03 0.435920686154796D+01 -.122711551423336D+03 -.264999024658696D+02
 0.000000000000000D+00 -.000000000000000D+00 -.000000000000000D+00 0.000000000000000D+00
 0.547862015159179D+03 0.000000000000000D+00 0.000000000000000D+00 0.547862015159179D+03
 0.365791088021290D+03 0.000000000000000D+00 0.000000000000000D+00 -.365791088021290D+03
 0.306459827314823D+03 0.119378434312691D+03 0.270463937108175D+03 -.696117435898147D+01
 0.531545076649738D+02 -.319353978664771D+02 0.309396065299263D+02 -.291251231068455D+02
 0.777432539337445D+02 -.154656439219754D+01 0.460932668499116D+02 0.625861999316966D+02
 0.101971006406182D+03 0.359684837674428D+02 -.439874247699224D+02 -.264999024658696D+02
 0.374324507860746D+03 -.121864955821459D+03 -.303509385718091D+03 0.182070927137889D+03
0.590912523129D-05 0.000000000000D+00 0.000000000000D+00 0.700446432527D-07 0.000000000000D+00  7 1 -1 24 -13 13 -24 21 0 0.23651978D+00 0.46008966D-02 0.34564045D+05 0.34564045D+05 0.34564045D+05 0.11616722D+01  1  2  2  2  7  2       -1 0.856727359204D-03 0.100000000000D+01
-.320161463061D-06 0.000000000000D+00 -.226925967966D-07 0.700446432527D-07 0.000000000000D+00  7 1 -1 24 -13 13 -24 21 2 0.23651978D+00 0.46008966D-02 0.34564045D+05 0.34564045D+05 0.34564045D+05 0.11616722D+01  1  2  3  2  7  2       -1 -.626405676126D-04 0.100000000000D+01
0.388731392156D-06 0.000000000000D+00 0.000000000000D+00 0.700446432527D-07 0.000000000000D+00  7 1 -1 24 -13 13 -24 21 2 0.23651978D+00 0.46008966D-02 0.34564045D+05 0.34564045D+05 0.34564045D+05 0.11616722D+01  1  2 15  2  7  2       -1 0.760564835651D-04 0.100000000000D+01
  </mgrwgt>
  </event>
  <event>
  8     66 0.27727860E-05 0.26785233E+03 0.75467711E-02 0.10129548E+00
        1 -1    0    0  501    0 0.00000000E+00 0.00000000E+00 0.20175370E+03 0.20175396E+03 0.32000000E+00 0.0000E+00 0.9000E+01
       -1 -1    0    0    0  501 0.00000000E+00 0.00000000E+00 -.69480474E+03 0.69480481E+03 0.32000000E+00 0.0000E+00 0.9000E+01
       25  2    1    2    0    0 0.15042642E+01 0.23226916E+03 -.43744979E+02 0.38243029E+03 0.30064610E+03 0.0000E+00 0.0000E+00
       23  2    1    2    0    0 -.15042642E+01 -.23226916E+03 -.44930605E+03 0.51412848E+03 0.92200510E+02 0.0000E+00 0.0000E+00
       24  1    3    3    0    0 -.42413813E+02 0.63189067E+02 -.13076739E+03 0.17134502E+03 0.80419002E+02 0.0000E+00 0.9000E+01
      -11  1    4    4    0    0 -.69239814E+01 -.77780277E+02 -.71326200E+02 0.10575982E+03 0.51099893E-03 0.0000E+00 0.9000E+01
       11  1    4    4    0    0 0.54197172E+01 -.15448889E+03 -.37797986E+03 0.40836866E+03 0.51099893E-03 0.0000E+00 0.9000E+01
      -24  1    3    3    0    0 0.43918077E+02 0.16908010E+03 0.87022406E+02 0.21108527E+03 0.80419002E+02 0.0000E+00 0.9000E+01
#aMCatNLO 1  0  0  1  1 0.39281487D+02 0.00000000D+00  -5  7  0 0.00000000D+00 0.00000000D+00 0.00000000D+00 0.00000000D+00 0.00000000D+00
  <mgrwgt>
 0.6775347058D-03    4    2    0
 0.374405629382143D+03 0.000000000000000D+00 0.000000000000000D+00 0.374405629382143D+03
 0.374405629382143D+03 0.000000000000000D+00 0.000000000000000D+00 -.374405629382143D+03
 0.119049868991471D+03 -.424138125186547D+02 0.631890668790240D+02 -.437477506519646D+02
 0.796628488923847D+02 -.692398137572092D+01 -.777802766437040D+02 -.157625042676748D+02
 0.240064689283764D+03 0.541971716352314D+01 -.154488888225365D+03 -.183670534168300D+03
 0.310033851596666D+03 0.439180767308525D+02 0.169080097990044D+03 0.243180789087939D+03
 0.000000000000000D+00 -.000000000000000D+00 0.000000000000000D+00 -.000000000000000D+00
 0.376030481868214D+03 0.000000000000000D+00 0.000000000000000D+00 0.376030481868214D+03
 0.722436872560253D+03 0.000000000000000D+00 0.000000000000000D+00 -.722436872560253D+03
 0.116585210586283D+03 -.362876537709170D+02 0.624038129425842D+02 -.437477506519646D+02
 0.799308734813941D+02 -.277478389563376D+01 -.783121227463711D+02 -.157625042676748D+02
 0.241707157357405D+03 0.179450627869479D+02 -.156094392973294D+03 -.183670534168300D+03
 0.311617632699967D+03 0.600800831918273D+02 0.167008444329595D+03 0.243180789087939D+03
 0.348626480303417D+03 -.389627083122244D+02 0.499425844748627D+01 -.346406390692039D+03
0.416906219470D-04 0.000000000000D+00 0.000000000000D+00 0.101782787866D-05 0.000000000000D+00  7 1 -1 24 -11 11 -24 21 0 0.31039056D-01 0.10689306D+00 0.71744871D+05 0.71744871D+05 0.71744871D+05 0.11337517D+01  1  2  2  1  7  1        1 0.675118040890D-03 0.100000000000D+01
-.200029053845D-05 0.000000000000D+00 -.160102965669D-06 0.101782787866D-05 0.000000000000D+00  7 1 -1 24 -11 11 -24 21 2 0.31039056D-01 0.10689306D+00 0.71744871D+05 0.71744871D+05 0.71744871D+05 0.11337517D+01  1  2  3  1  7  1        1 -.416361300718D-04 0.100000000000D+01
0.254635628494D-05 0.000000000000D+00 0.000000000000D+00 0.101782787866D-05 0.000000000000D+00  7 1 -1 24 -11 11 -24 21 2 0.31039056D-01 0.10689306D+00 0.71744871D+05 0.71744871D+05 0.71744871D+05 0.11337517D+01  1  2 15  1  7  1        1 0.530025111108D-04 0.100000000000D+01
-.429963888805D-06 0.000000000000D+00 0.000000000000D+00 0.101782787866D-05 0.000000000000D+00  7 1 -1 24 -11 11 -24 21 2 0.31039056D-01 0.10689306D+00 0.71744871D+05 0.71744871D+05 0.71744871D+05 0.11337517D+01  1  2  4  1  7  1        1 -.894971608191D-05 0.100000000000D+01
  </mgrwgt>
  </event>
  <event>
  9     66 -.27727860E-05 0.33228774E+03 0.75467711E-02 0.99237742E-01
        1 -1    0    0  501    0 0.00000000E+00 0.00000000E+00 0.32912237E+03 0.32912253E+03 0.32000000E+00 0.0000E+00 0.9000E+01
       -1 -1    0    0    0  502 0.00000000E+00 0.00000000E+00 -.43078893E+03 0.43078905E+03 0.32000000E+00 0.0000E+00 0.9000E+01
       25  2    1    2    0    0 0.82709637E+02 0.26192965E+03 -.18671844E+03 0.44768899E+03 0.30018931E+03 0.0000E+00 0.0000E+00
       23  2    1    2    0    0 -.93630754E+02 -.25339102E+03 0.87466409E+02 0.29813105E+03 0.90873665E+02 0.0000E+00 0.0000E+00
       24  1    3    3    0    0 0.15683526E+03 0.13387456E+03 -.41218480E+02 0.22513524E+03 0.80419002E+02 0.0000E+00 0.9000E+01
      -11  1    4    4    0    0 -.11626032E+02 -.10503639E+03 0.72088972E+02 0.12792431E+03 0.51099893E-03 0.0000E+00 0.9000E+01
       11  1    4    4    0    0 -.82004722E+02 -.14835462E+03 0.15377438E+02 0.17020674E+03 0.51099893E-03 0.0000E+00 0.9000E+01
      -24  1    3    3    0    0 -.74125625E+02 0.12805510E+03 -.14549996E+03 0.22255375E+03 0.80419002E+02 0.0000E+00 0.9000E+01
       21  1    1    2  501  502 0.10921117E+02 -.85386369E+01 -.24145215E+01 0.14091541E+02 0.75000000E+00 0.0000E+00 0.9000E+01
#aMCatNLO 2  0  0  2  1 0.13862868D+02 0.00000000D+00  -5  7  0 0.00000000D+00 0.00000000D+00 0.00000000D+00 0.00000000D+00 0.00000000D+00
  <mgrwgt>
 -.1266740864D-03    3    2    0
 0.369528206099093D+03 0.000000000000000D+00 0.000000000000000D+00 0.369528206099093D+03
 0.369528206099093D+03 0.000000000000000D+00 0.000000000000000D+00 -.369528206099093D+03
 0.222431009491119D+03 0.160115876597634D+03 0.131309621199031D+03 -.113590259620251D+02
 0.139817995879573D+03 -.956798439395101D+01 -.106645469690819D+03 0.899125655336450D+02
 0.174331757116531D+03 -.794327653243646D+02 -.150365500155954D+03 0.383694369923699D+02
 0.202475649710962D+03 -.711151268793186D+02 0.125701348647741D+03 -.116922976563990D+03
 0.000000000000000D+00 0.000000000000000D+00 -.000000000000000D+00 -.000000000000000D+00
 0.376257941005063D+03 0.000000000000000D+00 0.000000000000000D+00 0.376257941005063D+03
 0.376802017014230D+03 0.000000000000000D+00 0.000000000000000D+00 -.376802017014230D+03
 0.221621163524897D+03 0.156835261551472D+03 0.133874558565225D+03 -.113590259620251D+02
 0.138751856947665D+03 -.116260318625294D+02 -.105036392496671D+03 0.899125655336450D+02
 0.173798972512381D+03 -.820047219075181D+02 -.148354624923251D+03 0.383694369923699D+02
 0.205014424317601D+03 -.741256246299326D+02 0.128055095753920D+03 -.116922976563990D+03
 0.138735407167490D+02 0.109211168485084D+02 -.853863689922271D+01 -.544076009167272D+00
-.118371589803D-04 0.000000000000D+00 0.000000000000D+00 0.229208129616D-05 0.000000000000D+00  7 1 -1 24 -11 11 -24 21 2 0.49727253D-01 0.66854154D-01 0.11518738D+06 0.11518738D+06 0.11518738D+06 0.11167176D+01  1  2 13  2  7  2       -1 -.338096830733D-03 0.100000000000D+01
-.272156188533D-04 0.000000000000D+00 0.000000000000D+00 0.229208129616D-05 0.000000000000D+00  7 1 -1 24 -11 11 -24 21 2 0.49727253D-01 0.64994111D-01 0.11041514D+06 0.11041514D+06 0.11041514D+06 0.11182081D+01  1  2  8  2  7  2       -1 -.823218838328D-03 0.100000000000D+01
0.364829967132D-04 0.000000000000D+00 0.000000000000D+00 0.229208129616D-05 0.793344211389D-07  7 1 -1 24 -11 11 -24 21 2 0.50632870D-01 0.66273458D-01 0.11518738D+06 0.11518738D+06 0.11518738D+06 0.11167176D+01  1  2  1  2  7  2       -1 0.103464158265D-02 0.100000000000D+01
  </mgrwgt>
  </event>
  <event>
  8     66 0.27727860E-05 0.30270249E+03 0.75467711E-02 0.89963221E-01
        1 -1    0    0  501    0 0.00000000E+00 0.00000000E+00 0.92382138E+03 0.92382144E+03 0.32000000E+00 0.0000E+00 0.9000E+01
       -1 -1    0    0    0  501 0.00000000E+00 0.00000000E+00 -.65510543E+03 0.65510551E+03 0.32000000E+00 0.0000E+00 0.9000E+01
       25  2    1    2    0    0 0.15059971E+03 -.66586591E+03 -.16708751E+03 0.76410013E+03 0.29978842E+03 0.0000E+00 0.0000E+00
       23  2    1    2    0    0 -.15059971E+03 0.66586591E+03 0.43580346E+03 0.81482681E+03 0.89221074E+02 0.0000E+00 0.0000E+00
       24  1    3    3    0    0 0.18549588E+03 -.57391513E+03 -.88953250E+02 0.61495300E+03 0.80419002E+02 0.0000E+00 0.9000E+01
      -11  1    4    4    0    0 -.99796684E+02 0.41770592E+03 0.32385766E+03 0.53788604E+03 0.51099893E-03 0.0000E+00 0.9000E+01
       11  1    4    4    0    0 -.50803027E+02 0.24815999E+03 0.11194580E+03 0.27694077E+03 0.51099893E-03 0.0000E+00 0.9000E+01
      -24  1    3    3    0    0 -.34896171E+02 -.91950778E+02 -.78134263E+02 0.14914713E+03 0.80419002E+02 0.0000E+00 0.9000E+01
#aMCatNLO 1  0  0  2  1 0.11746576D+03 0.00000000D+00  -5  7  0 0.00000000D+00 0.00000000D+00 0.00000000D+00 0.00000000D+00 0.00000000D+00
  <mgrwgt>
 0.1012590263D-02    9    2    0
 0.777946342476720D+03 0.000000000000000D+00 0.000000000000000D+00 0.777946342476720D+03
 0.777946342476720D+03 0.000000000000000D+00 0.000000000000000D+00 -.777946342476720D+03
 0.639420078514097D+03 0.185495882567785D+03 -.573915128665843D+03 -.196477793888954D+03
 0.489916212827699D+03 -.997966842838361D+02 0.417705918837492D+03 0.235754708893617D+03
 0.261706752582777D+03 -.508030274535094D+02 0.248159988145551D+03 0.657730722452650D+02
 0.164849641028867D+03 -.348961708304392D+02 -.919507783171995D+02 -.105049987249927D+03
 0.000000000000000D+00 0.000000000000000D+00 -.000000000000000D+00 -.000000000000000D+00
 0.804275576707749D+03 0.000000000000000D+00 0.000000000000000D+00 0.804275576707749D+03
 0.923204391332540D+03 0.000000000000000D+00 0.000000000000000D+00 -.923204391332540D+03
 0.600539375610488D+03 0.152702647047032D+03 -.540609566875784D+03 -.196477793888954D+03
 0.519067875190676D+03 -.126481309111701D+03 0.444807435566043D+03 0.235754708893617D+03
 0.278492763015700D+03 -.650896961702087D+02 0.262669856420580D+03 0.657730722452650D+02
 0.162220546727638D+03 -.435462034288746D+02 -.831656069055253D+02 -.105049987249927D+03
 0.167159407495787D+03 0.824145616637516D+02 -.837021182053130D+02 -.118928814624791D+03
0.331846362286D-03 0.000000000000D+00 0.000000000000D+00 0.483136264825D-05 0.000000000000D+00  7 1 -1 24 -11 11 -24 21 0 0.14212638D+00 0.10078546D+00 0.50289169D+06 0.50289169D+06 0.50289169D+06 0.10683334D+01  1  2  2  2  7  2       -1 0.671176233717D-03 0.100000000000D+01
-.182437336609D-04 0.000000000000D+00 -.127437740833D-05 0.483136264825D-05 0.000000000000D+00  7 1 -1 24 -11 11 -24 21 2 0.14212638D+00 0.10078546D+00 0.50289169D+06 0.50289169D+06 0.50289169D+06 0.10683334D+01  1  2  3  2  7  2       -1 -.421140372106D-04 0.100000000000D+01
0.203846345585D-04 0.000000000000D+00 0.000000000000D+00 0.483136264825D-05 0.000000000000D+00  7 1 -1 24 -11 11 -24 21 2 0.14212638D+00 0.10078546D+00 0.50289169D+06 0.50289169D+06 0.50289169D+06 0.10683334D+01  1  2 15  2  7  2       -1 0.470561165975D-04 0.100000000000D+01
0.744601655291D-03 0.000000000000D+00 0.000000000000D+00 0.483136264825D-05 0.000000000000D+00  7 1 -1 24 -11 11 -24 21 2 0.14212638D+00 0.12109053D+00 0.59414968D+06 0.59414968D+06 0.59414968D+06 0.10632550D+01  1  2 12  2  7  2       -1 0.109112351394D-02 0.100000000000D+01
-.757300357033D-03 0.000000000000D+00 0.000000000000D+00 0.483136264825D-05 0.000000000000D+00  7 1 -1 24 -11 11 -24 21 2 0.14212638D+00 0.10078546D+00 0.50289169D+06 0.50289169D+06 0.50289169D+06 0.10683334D+01  1  2  4  2  7  2       -1 -.174816054699D-02 0.100000000000D+01
-.124958840841D-02 0.000000000000D+00 -.227356232391D-03 0.483136264825D-05 0.000000000000D+00  7 1 -1 24 -11 11 -24 21 2 0.14212638D+00 0.12198791D+00 0.50289169D+06 0.50289169D+06 0.50289169D+06 0.10683334D+01  1  2  5  2  7  2       -1 -.183176299399D-02 0.100000000000D+01
0.127379132669D-02 0.000000000000D+00 0.223274296127D-03 0.483136264825D-05 0.000000000000D+00  7 1 -1 24 -11 11 -24 21 2 0.14212638D+00 0.10078546D+00 0.50289169D+06 0.50289169D+06 0.50289169D+06 0.10683334D+01  1  2  6  2  7  2       -1 0.294043403218D-02 0.100000000000D+01
0.199393970380D-04 0.000000000000D+00 0.000000000000D+00 0.483136264825D-05 0.000000000000D+00  7 1 21 24 -11 11 -24 1 2 0.14212638D+00 0.12109053D+00 0.59414968D+06 0.59414968D+06 0.59414968D+06 0.10632550D+01  1  2 12  4  7  2       -1 0.187612769664D-03 0.100000000000D+01
-.320864240120D-04 0.000000000000D+00 -.627765625651D-05 0.483136264825D-05 0.000000000000D+00  7 1 21 24 -11 11 -24 1 2 0.14212638D+00 0.12198791D+00 0.50289169D+06 0.50289169D+06 0.50289169D+06 0.10683334D+01  1  2  5  4  7  2       -1 -.302774824493D-03 0.100000000000D+01
  </mgrwgt>
  </event>
  <event>
  8     66 0.27727860E-05 0.89325898E+02 0.75467711E-02 0.10441784E+00
        1 -1    0    0  501    0 0.00000000E+00 0.00000000E+00 0.66200513E+02 0.66201286E+02 0.32000000E+00 0.0000E+00 0.9000E+01
       -1 -1    0    0    0  501 0.00000000E+00 0.00000000E+00 -.88930620E+03 0.88930626E+03 0.32000000E+00 0.0000E+00 0.9000E+01
       25  2    1    2    0    0 0.19791378E+02 0.48834701E+01 -.80716962E+03 0.86114861E+03 0.29939704E+03 0.0000E+00 0.0000E+00
       23  2    1    2    0    0 -.19791378E+02 -.48834701E+01 -.15936068E+02 0.94358932E+02 0.90741958E+02 0.0000E+00 0.0000E+00
       24  1    3    3    0    0 -.11348332E+03 0.24533106E+02 -.33358580E+03 0.36225273E+03 0.80419002E+02 0.0000E+00 0.9000E+01
      -13  1    4    4    0    0 0.26467429E+02 0.11252983E+02 -.31786024E+02 0.42866267E+02 0.10565837E+00 0.0000E+00 0.9000E+01
       13  1    4    4    0    0 -.46258807E+02 -.16136453E+02 0.15849956E+02 0.51492665E+02 0.10565837E+00 0.0000E+00 0.9000E+01
      -24  1    3    3    0    0 0.13327470E+03 -.19649636E+02 -.47358382E+03 0.49889588E+03 0.80419002E+02 0.0000E+00 0.9000E+01
#aMCatNLO 1  0  0  2  1 0.68715369D+02 0.00000000D+00  -5  7  0 0.00000000D+00 0.00000000D+00 0.00000000D+00 0.00000000D+00 0.00000000D+00
  <mgrwgt>
 0.9327637161D-03    7    2    0
 0.242637432021412D+03 0.000000000000000D+00 0.000000000000000D+00 0.242637432021412D+03
 0.242637432021412D+03 0.000000000000000D+00 0.000000000000000D+00 -.242637432021412D+03
 0.147460440348164D+03 -.113483317735499D+03 0.245331065062822D+02 -.423913764131232D+02
 0.304893572809015D+02 0.264675226564276D+02 0.112530178110744D+02 0.101213013974289D+02
 0.128273455400897D+03 -.462589015182850D+02 -.161364881187262D+02 0.118548754282792D+03
 0.179051611012861D+03 0.133274696597356D+03 -.196496361986304D+02 -.862786792670973D+02
 0.000000000000000D+00 0.000000000000000D+00 0.000000000000000D+00 -.000000000000000D+00
 0.247171273085703D+03 0.000000000000000D+00 0.000000000000000D+00 0.247171273085703D+03
 0.803619942661121D+03 0.000000000000000D+00 0.000000000000000D+00 -.803619942661121D+03
 0.162337171506478D+03 -.133547318017123D+03 0.159444772440983D+02 -.423913764131232D+02
 0.267210226735181D+02 0.227623001640867D+02 0.966695412118472D+01 0.101213013974289D+02
 0.136474034416153D+03 -.634052367609886D+02 -.234761768416960D+02 0.118548754282792D+03
 0.164583569601762D+03 0.111019210767908D+03 -.291763564017784D+02 -.862786792670973D+02
 0.560675417548913D+03 0.631710438461172D+02 0.270411018781914D+02 -.556448669575418D+03
0.242815304910D-04 0.000000000000D+00 0.000000000000D+00 0.659214381229D-06 0.000000000000D+00  7 1 -1 24 -13 13 -24 21 0 0.10184758D-01 0.13681640D+00 0.35321810D+05 0.35321810D+05 0.35321810D+05 0.11608123D+01  1  2  2  2  7  2       -1 0.932287095125D-03 0.100000000000D+01
-.124195414777D-05 0.000000000000D+00 -.932474705591D-07 0.659214381229D-06 0.000000000000D+00  7 1 -1 24 -13 13 -24 21 2 0.10184758D-01 0.13681640D+00 0.35321810D+05 0.35321810D+05 0.35321810D+05 0.11608123D+01  1  2  3  2  7  2       -1 -.642544485120D-04 0.100000000000D+01
0.148815577021D-05 0.000000000000D+00 0.000000000000D+00 0.659214381229D-06 0.000000000000D+00  7 1 -1 24 -13 13 -24 21 2 0.10184758D-01 0.13681640D+00 0.35321810D+05 0.35321810D+05 0.35321810D+05 0.11608123D+01  1  2 15  2  7  2       -1 0.769920761464D-04 0.100000000000D+01
0.245990802636D-03 0.000000000000D+00 0.000000000000D+00 0.659214381229D-06 0.000000000000D+00  7 1 -1 24 -13 13 -24 21 2 0.10184758D-01 0.45062772D+00 0.52422195D+05 0.52422195D+05 0.52422195D+05 0.11454926D+01  1  2 12  2  7  2       -1 0.247847074735D-04 0.100000000000D+01
-.275523965851D-03 0.000000000000D+00 -.706284575468D-05 0.659214381229D-06 0.000000000000D+00  7 1 -1 24 -13 13 -24 21 2 0.10184758D-01 0.45428152D+00 0.35321810D+05 0.35321810D+05 0.35321810D+05 0.11608123D+01  1  2  5  2  7  2       -1 -.270303139947D-04 0.100000000000D+01
0.339456620889D-04 0.000000000000D+00 0.000000000000D+00 0.659214381229D-06 0.000000000000D+00  7 1 21 24 -13 13 -24 1 2 0.10184758D-01 0.45062772D+00 0.52422195D+05 0.52422195D+05 0.52422195D+05 0.11454926D+01  1  2 12  4  7  2       -1 0.748185844224D-04 0.100000000000D+01
-.380595491852D-04 0.000000000000D+00 -.982659586081D-06 0.659214381229D-06 0.000000000000D+00  7 1 21 24 -13 13 -24 1 2 0.10184758D-01 0.45428152D+00 0.35321810D+05 0.35321810D+05 0.35321810D+05 0.11608123D+01  1  2  5  4  7  2       -1 -.848339845304D-04 0.100000000000D+01
  </mgrwgt>
  </event>
  <event>
  8     66 0.27727860E-05 0.28725105E+03 0.75467711E-02 0.94122557E-01
        1 -1    0    0  501    0 0.00000000E+00 0.00000000E+00 0.12302383E+04 0.12302383E+04 0.32000000E+00 0.0000E+00 0.9000E+01
       -1 -1    0    0    0  501 0.00000000E+00 0.00000000E+00 -.12491847E+03 0.12491888E+03 0.32000000E+00 0.0000E+00 0.9000E+01
       25  2    1    2    0    0 -.11437009E+03 -.16969411E+03 0.10674334E+04 0.11274039E+04 0.29958100E+03 0.0000E+00 0.0000E+00
       23  2    1    2    0    0 0.11437009E+03 0.16969411E+03 0.37886358E+02 0.22775331E+03 0.92518032E+02 0.0000E+00 0.0000E+00
       24  1    3    3    0    0 0.60257927E+02 0.40068848E+01 0.23605647E+03 0.25658711E+03 0.80419002E+02 0.0000E+00 0.9000E+01
      -11  1    4    4    0    0 -.53371538E+01 0.31712396E+02 0.31431957E+02 0.44968091E+02 0.51099893E-03 0.0000E+00 0.9000E+01
       11  1    4    4    0    0 0.11970724E+03 0.13798171E+03 0.64544002E+01 0.18278522E+03 0.51099893E-03 0.0000E+00 0.9000E+01
      -24  1    3    3    0    0 -.17462801E+03 -.17370099E+03 0.83137696E+03 0.87081677E+03 0.80419002E+02 0.0000E+00 0.9000E+01
#aMCatNLO 1  0  0  1  1 0.36238559D+03 0.00000000D+00  -5  7  0 0.00000000D+00 0.00000000D+00 0.00000000D+00 0.00000000D+00 0.00000000D+00
  <mgrwgt>
 0.6905281947D-03    5    2    0
 0.392020143730452D+03 0.000000000000000D+00 0.000000000000000D+00 0.392020143730452D+03
 0.392020143730452D+03 0.000000000000000D+00 0.000000000000000D+00 -.392020143730452D+03
 0.110706021717610D+03 0.602579271837221D+02 0.400688475253030D+01 0.462767152709715D+02
 0.334121444870808D+02 -.533715382880134D+01 0.317123959616670D+02 -.906698023620475D+01
 0.306831841057476D+03 0.119707240879353D+03 0.137981712123177D+03 -.246529921687672D+03
 0.333090280198737D+03 -.174628014234274D+03 -.173700992837374D+03 0.209320186652905D+03
 0.000000000000000D+00 0.000000000000000D+00 -.000000000000000D+00 0.000000000000000D+00
 0.758964991391996D+03 0.000000000000000D+00 0.000000000000000D+00 0.758964991391996D+03
 0.532239307077489D+03 0.000000000000000D+00 0.000000000000000D+00 -.532239307077489D+03
 0.115771158610798D+03 0.460178207799319D+02 0.517355874240494D+02 0.462767152709715D+02
 0.515594804715492D+02 -.106798774487230D+02 0.496196545087992D+02 -.906698023620475D+01
 0.383315936343097D+03 0.763131215677631D+02 0.283426202465191D+03 -.246529921687672D+03
 0.313090936703309D+03 -.215257667391703D+03 -.375221905018984D+02 0.209320186652905D+03
 0.427466786340732D+03 0.103606602492731D+03 -.347259253896141D+03 0.226725684314507D+03
0.266172989854D-04 0.000000000000D+00 0.000000000000D+00 0.143991952252D-05 0.000000000000D+00  7 1 -1 24 -11 11 -24 21 0 0.18926746D+00 0.19218262D-01 0.82513164D+05 0.82513164D+05 0.82513164D+05 0.11286373D+01  1  2  2  1  7  1        1 0.694237733002D-03 0.100000000000D+01
-.130488962669D-05 0.000000000000D+00 -.102217436600D-06 0.143991952252D-05 0.000000000000D+00  7 1 -1 24 -11 11 -24 21 2 0.18926746D+00 0.19218262D-01 0.82513164D+05 0.82513164D+05 0.82513164D+05 0.11286373D+01  1  2  3  1  7  1        1 -.433537662204D-04 0.100000000000D+01
0.161239968805D-05 0.000000000000D+00 0.000000000000D+00 0.143991952252D-05 0.000000000000D+00  7 1 -1 24 -11 11 -24 21 2 0.18926746D+00 0.19218262D-01 0.82513164D+05 0.82513164D+05 0.82513164D+05 0.11286373D+01  1  2 15  1  7  1        1 0.535705071905D-04 0.100000000000D+01
-.393325198681D-05 0.000000000000D+00 -.739191041139D-05 0.143991952252D-05 0.000000000000D+00  7 1 -1 24 -11 11 -24 21 2 0.41283052D+00 0.19218262D-01 0.82513164D+05 0.82513164D+05 0.82513164D+05 0.11286373D+01  1  2  5  1  7  1        1 -.140748511633D-04 0.100000000000D+01
0.132303911135D-06 0.000000000000D+00 -.624482437876D-06 0.143991952252D-05 0.000000000000D+00  7 21 -1 24 -11 11 -24 -1 2 0.41283052D+00 0.19218262D-01 0.82513164D+05 0.82513164D+05 0.82513164D+05 0.11286373D+01  1  2  5  3  7  1        1 0.148571847851D-06 0.100000000000D+01
  </mgrwgt>
  </event>
  <event>
  9     66 0.27727860E-05 0.24223630E+03 0.75467711E-02 0.10280667E+00
       21 -1    0    0  501  502 0.00000000E+00 0.00000000E+00 0.17028706E+03 0.17028871E+03 0.75000000E+00 0.0000E+00 0.9000E+01
       -1 -1    0    0    0  501 0.00000000E+00 0.00000000E+00 -.40723803E+03 0.40723816E+03 0.32000000E+00 0.0000E+00 0.9000E+01
       25  2    1    2    0    0 0.13317638E+03 0.45451148E+02 -.16314503E+03 0.37014276E+03 0.30097775E+03 0.0000E+00 0.0000E+00
       23  2    1    2    0    0 -.13533927E+03 -.15354385E+02 -.51636724E+02 0.16993989E+03 0.87525653E+02 0.0000E+00 0.0000E+00
       24  1    3    3    0    0 0.19648761E+03 -.13526616E+02 -.12088084E+03 0.24468294E+03 0.80419002E+02 0.0000E+00 0.9000E+01
      -13  1    4    4    0    0 -.13157524E+03 0.68535528E+01 -.23393439E+02 0.13381435E+03 0.10565837E+00 0.0000E+00 0.9000E+01
       13  1    4    4    0    0 -.37640260E+01 -.22207938E+02 -.28243285E+02 0.36125541E+02 0.10565837E+00 0.0000E+00 0.9000E+01
      -24  1    3    3    0    0 -.63311225E+02 0.58977764E+02 -.42264194E+02 0.12545982E+03 0.80419002E+02 0.0000E+00 0.9000E+01
       -1  1    1    2    0  502 0.21628882E+01 -.30096762E+02 -.22169212E+02 0.37444219E+02 0.32000000E+00 0.0000E+00 0.9000E+01
#aMCatNLO 2  0  0  1  1 0.30174380D+02 0.00000000D+00  -5  7  0 0.00000000D+00 0.00000000D+00 0.00000000D+00 0.00000000D+00 0.00000000D+00
  <mgrwgt>
 0.7913445284D-04    1    2    0
 0.247309306474228D+03 0.000000000000000D+00 0.000000000000000D+00 0.247309306474228D+03
 0.247309306474228D+03 0.000000000000000D+00 0.000000000000000D+00 -.247309306474228D+03
 0.216364886545400D+03 0.197428311297442D+03 -.266166023442281D+02 -.256937064924990D+02
 0.134963692201505D+03 -.130984197610073D+03 -.137360443710317D+01 0.325030983132115D+02
 0.285165260260010D+02 -.364228667816644D+01 -.238994468451320D+02 -.151242336943845D+02
 0.114773508175549D+03 -.628018270092027D+02 0.518896536264632D+02 0.831484187367204D+01
 0.000000000000000D+00 0.000000000000000D+00 -.000000000000000D+00 -.000000000000000D+00
 0.259402648323926D+03 0.000000000000000D+00 0.000000000000000D+00 0.259402648323926D+03
 0.267335154058680D+03 0.000000000000000D+00 0.000000000000000D+00 -.267335154058680D+03
 0.214284229326366D+03 0.196487605821895D+03 -.135266103914118D+02 -.256937064924990D+02
 0.135703794250946D+03 -.131575440868620D+03 0.685359280764074D+01 0.325030983132115D+02
 0.271312245346905D+02 -.376384304906107D+01 -.222079802190895D+02 -.151242336943845D+02
 0.118418909321672D+03 -.633112101146382D+02 0.589777602914850D+02 0.831484187367204D+01
 0.311996449489315D+02 0.216288821042504D+01 -.300967624886244D+02 -.793250573475488D+01
0.142898110612D-06 0.000000000000D+00 0.000000000000D+00 0.176348197765D-07 0.121532692165D-11  7 21 -1 24 -13 13 -24 -1 2 0.26198064D-01 0.62651946D-01 0.66388098D+05 0.66388098D+05 0.66388098D+05 0.11366207D+01  1  2  1  3  7  1        1 0.791344528404D-04 0.100000000000D+01
  </mgrwgt>
  </event>
  <event>
  8     66 0.27727860E-05 0.23791939E+03 0.75467711E-02 0.95618589E-01
        1 -1    0    0  501    0 0.00000000E+00 0.00000000E+00 0.14261501E+04 0.14261502E+04 0.32000000E+00 0.0000E+00 0.9000E+01
       -1 -1    0    0    0  501 0.00000000E+00 0.00000000E+00 -.55435691E+02 0.55436614E+02 0.32000000E+00 0.0000E+00 0.9000E+01
       25  2    1    2    0    0 -.14283392E+03 -.51312652E+02 0.56834361E+03 0.66017924E+03 0.29964589E+03 0.0000E+00 0.0000E+00
       23  2    1    2    0    0 0.14283392E+03 0.51312652E+02 0.80237083E+03 0.82140754E+03 0.88751789E+02 0.0000E+00 0.0000E+00
       24  1    3    3    0    0 -.11351599E+03 -.13016767E+03 0.21063411E+03 0.28401311E+03 0.80419002E+02 0.0000E+00 0.9000E+01
      -11  1    4    4    0    0 -.67859808E+01 -.56628378E+01 0.12750504E+03 0.12781100E+03 0.51099893E-03 0.0000E+00 0.9000E+01
       11  1    4    4    0    0 0.14961990E+03 0.56975489E+02 0.67486579E+03 0.69359654E+03 0.51099893E-03 0.0000E+00 0.9000E+01
      -24  1    3    3    0    0 -.29317925E+02 0.78855022E+02 0.35770950E+03 0.37616613E+03 0.80419002E+02 0.0000E+00 0.9000E+01
#aMCatNLO 1  0  0  1  1 0.35494048D+03 0.00000000D+00  -5  7  0 0.00000000D+00 0.00000000D+00 0.00000000D+00 0.00000000D+00 0.00000000D+00
  <mgrwgt>
 0.1230464769D-02    5    2    0
 0.281176685514679D+03 0.000000000000000D+00 0.000000000000000D+00 0.281176685514679D+03
 0.281176685514679D+03 0.000000000000000D+00 0.000000000000000D+00 -.281176685514679D+03
 0.234853853514823D+03 -.113515991415942D+03 -.130167674041332D+03 -.137330305773768D+03
 0.259447059889935D+02 -.678598079715580D+01 -.566283781582120D+01 0.243928370909916D+02
 0.182403415458291D+03 0.149619897190090D+03 0.569754894554931D+02 0.873995762975066D+02
 0.119151396067251D+03 -.293179249769917D+02 0.788550224016602D+02 0.255378923852701D+02
 0.000000000000000D+00 -.000000000000000D+00 -.000000000000000D+00 0.000000000000000D+00
 0.100703885235332D+04 0.000000000000000D+00 0.000000000000000D+00 0.100703885235332D+04
 0.379191798477889D+03 0.000000000000000D+00 0.000000000000000D+00 -.379191798477889D+03
 0.170410348787408D+03 -.532235877934718D+02 -.296666115009690D+02 -.137330305773768D+03
 0.254119815561400D+02 0.854511791614978D+00 0.707305555329056D+01 0.243928370909916D+02
 0.295116785989546D+03 0.220662048359675D+03 0.175395244660532D+03 0.873995762975066D+02
 0.174060177632321D+03 0.143040639572553D+02 0.151568266104253D+03 0.255378923852701D+02
 0.721231356865791D+03 -.182597036315074D+03 -.304369954817107D+03 0.627847053875428D+03
0.178154875581D-04 0.000000000000D+00 0.000000000000D+00 0.281299669899D-06 0.000000000000D+00  7 1 -1 24 -11 11 -24 21 0 0.21940779D+00 0.85286416D-02 0.56605636D+05 0.56605636D+05 0.56605636D+05 0.11425852D+01  1  2  2  1  7  1        1 0.121519666778D-02 0.100000000000D+01
-.956167308617D-06 0.000000000000D+00 -.684161631486D-07 0.281299669899D-06 0.000000000000D+00  7 1 -1 24 -11 11 -24 21 2 0.21940779D+00 0.85286416D-02 0.56605636D+05 0.56605636D+05 0.56605636D+05 0.11425852D+01  1  2  3  1  7  1        1 -.851451592122D-04 0.100000000000D+01
0.113030131073D-05 0.000000000000D+00 0.000000000000D+00 0.281299669899D-06 0.000000000000D+00  7 1 -1 24 -11 11 -24 21 2 0.21940779D+00 0.85286416D-02 0.56605636D+05 0.56605636D+05 0.56605636D+05 0.11425852D+01  1  2 15  1  7  1        1 0.100651511710D-03 0.100000000000D+01
-.549954450301D-05 0.000000000000D+00 -.529206022766D-05 0.281299669899D-06 0.000000000000D+00  7 1 -1 24 -11 11 -24 21 2 0.80402355D+00 0.85286416D-02 0.56605636D+05 0.56605636D+05 0.56605636D+05 0.11425852D+01  1  2  5  1  7  1        1 -.237283551165D-06 0.100000000000D+01
-.707412544295D-06 0.000000000000D+00 -.810022985975D-06 0.281299669899D-06 0.000000000000D+00  7 21 -1 24 -11 11 -24 -1 2 0.80402355D+00 0.85286416D-02 0.56605636D+05 0.56605636D+05 0.56605636D+05 0.11425852D+01  1  2  5  3  7  1        1 -.967841148957D-09 0.100000000000D+01
  </mgrwgt>
  </event>
  <event>
  8     66 0.27727860E-05 0.21696108E+03 0.75467711E-02 0.98523300E-01
        1 -1    0    0  501    0 0.00000000E+00 0.00000000E+00 0.12654556E+03 0.12654597E+03 0.32000000E+00 0.0000E+00 0.9000E+01
       -1 -1    0    0    0  501 0.00000000E+00 0.00000000E+00 -.50948163E+03 0.50948173E+03 0.32000000E+00 0.0000E+00 0.9000E+01
       25  2    1    2    0    0 -.84671024E+02 0.93905648E+02 -.15591851E+03 0.36094705E+03 0.29997456E+03 0.0000E+00 0.0000E+00
       23  2    1    2    0    0 0.84671024E+02 -.93905648E+02 -.22701756E+03 0.27508065E+03 0.90249312E+02 0.0000E+00 0.0000E+00
       24  1    3    3    0    0 -.65957929E+02 0.14838787E+03 -.18386452E+03 0.25815265E+03 0.80419002E+02 0.0000E+00 0.9000E+01
      -13  1    4    4    0    0 0.95014765E+02 -.10291794E+03 -.21620207E+03 0.25761066E+03 0.10565837E+00 0.0000E+00 0.9000E+01
       13  1    4    4    0    0 -.10343741E+02 0.90122926E+01 -.10815485E+02 0.17469982E+02 0.10565837E+00 0.0000E+00 0.9000E+01
      -24  1    3    3    0    0 -.18713095E+02 -.54482227E+02 0.27946017E+02 0.10279440E+03 0.80419002E+02 0.0000E+00 0.9000E+01
#aMCatNLO 1  0  0  1  1 0.22128418D+03 0.00000000D+00  -5  7  0 0.00000000D+00 0.00000000D+00 0.00000000D+00 0.00000000D+00 0.00000000D+00
  <mgrwgt>
 0.8009150416D-03    3    2    0
 0.253914945733538D+03 0.000000000000000D+00 0.000000000000000D+00 0.253914945733538D+03
 0.253914945733538D+03 0.000000000000000D+00 0.000000000000000D+00 -.253914945733538D+03
 0.184675767955413D+03 -.659579296558260D+02 0.148387874169813D+03 -.356161989891095D+02
 0.159612599937289D+03 0.950149097163577D+02 -.102918094516354D+03 -.765259094128013D+02
 0.137243815588757D+02 -.103438845718885D+02 0.901244561561750D+01 -.372189686304893D+00
 0.149817142015498D+03 -.187130954886433D+02 -.544822252690766D+02 0.112514298088216D+03
 0.000000000000000D+00 -.000000000000000D+00 0.000000000000000D+00 -.000000000000000D+00
 0.368373821844198D+03 0.000000000000000D+00 0.000000000000000D+00 0.368373821844198D+03
 0.410908854725994D+03 0.000000000000000D+00 0.000000000000000D+00 -.410908854725994D+03
 0.134221722434536D+03 -.592644309306002D+02 0.822646243227510D+02 -.356161989891095D+02
 0.222895268277835D+03 0.103043558437161D+03 -.182230927325191D+03 -.765259094128013D+02
 0.106096359105163D+02 -.983312572360833D+01 0.396679814142810D+01 -.372189686304893D+00
 0.186220923865131D+03 -.116598246621814D+02 -.124159565661996D+03 0.112514298088216D+03
 0.225335126082173D+03 -.222861771207714D+02 0.220159070523009D+03 -.425350328817956D+02
0.138118995050D-04 0.000000000000D+00 0.000000000000D+00 0.100755079660D-05 0.000000000000D+00  7 1 -1 24 -13 13 -24 21 0 0.19468587D-01 0.78381827D-01 0.47072110D+05 0.47072110D+05 0.47072110D+05 0.11496076D+01  1  2  2  1  7  1        1 0.791924890004D-03 0.100000000000D+01
-.744248750674D-06 0.000000000000D+00 -.530413308557D-07 0.100755079660D-05 0.000000000000D+00  7 1 -1 24 -13 13 -24 21 2 0.19468587D-01 0.78381827D-01 0.47072110D+05 0.47072110D+05 0.47072110D+05 0.11496076D+01  1  2  3  1  7  1        1 -.563959584739D-04 0.100000000000D+01
0.862890392036D-06 0.000000000000D+00 0.000000000000D+00 0.100755079660D-05 0.000000000000D+00  7 1 -1 24 -13 13 -24 21 2 0.19468587D-01 0.78381827D-01 0.47072110D+05 0.47072110D+05 0.47072110D+05 0.11496076D+01  1  2 15  1  7  1        1 0.653861100508D-04 0.100000000000D+01
  </mgrwgt>
  </event>
  <event>
  8     66 0.27727860E-05 0.23275150E+03 0.75467711E-02 0.10242219E+00
        3 -1    0    0  501    0 0.00000000E+00 0.00000000E+00 0.39084575E+03 0.39084607E+03 0.50000000E+00 0.0000E+00 0.9000E+01
       -3 -1    0    0    0  501 0.00000000E+00 0.00000000E+00 -.22269210E+03 0.22269266E+03 0.50000000E+00 0.0000E+00 0.9000E+01
       25  2    1    2    0    0 0.75173838E+02 0.14395796E+03 0.23708259E+03 0.41534348E+03 0.29987839E+03 0.0000E+00 0.0000E+00
       23  2    1    2    0    0 -.75173838E+02 -.14395796E+03 -.68928945E+02 0.19819525E+03 0.90305905E+02 0.0000E+00 0.0000E+00
       24  1    3    3    0    0 0.12225735E+03 0.47493726E+02 0.13272286E+02 0.15442113E+03 0.80419002E+02 0.0000E+00 0.9000E+01
      -11  1    4    4    0    0 -.89256042E+02 -.13007794E+03 -.39304868E+02 0.16257855E+03 0.51099893E-03 0.0000E+00 0.9000E+01
       11  1    4    4    0    0 0.14082204E+02 -.13880022E+02 -.29624076E+02 0.35616701E+02 0.51099893E-03 0.0000E+00 0.9000E+01
      -24  1    3    3    0    0 -.47083515E+02 0.96464233E+02 0.22381031E+03 0.26092235E+03 0.80419002E+02 0.0000E+00 0.9000E+01
#aMCatNLO 1  0  0  2  1 0.59827492D+02 0.00000000D+00  -5  7  0 0.00000000D+00 0.00000000D+00 0.00000000D+00 0.00000000D+00 0.00000000D+00
  <mgrwgt>
 0.1389443950D-03    4    2    0
 0.295022930645957D+03 0.000000000000000D+00 0.000000000000000D+00 0.295022930645957D+03
 0.295022930645957D+03 0.000000000000000D+00 0.000000000000000D+00 -.295022930645957D+03
 0.156787062158115D+03 0.122257353274511D+03 0.474937257738168D+02 -.302068285034169D+02
 0.180252922009042D+03 -.892560422951246D+02 -.130077937242768D+03 -.872020931473277D+02
 0.454771796142465D+02 0.140822044306306D+02 -.138800215593129D+02 -.409537591138271D+02
 0.207528697510510D+03 -.470835154100170D+02 0.964642330282643D+02 0.158362680764572D+03
 0.000000000000000D+00 0.000000000000000D+00 -.000000000000000D+00 0.000000000000000D+00
 0.485533588209975D+03 0.000000000000000D+00 0.000000000000000D+00 0.485533588209975D+03
 0.301270211810685D+03 0.000000000000000D+00 0.000000000000000D+00 -.301270211810685D+03
 0.161246257496164D+03 0.120778503644997D+03 0.635077961449551D+02 -.302068285034169D+02
 0.168876012481114D+03 -.908794860147469D+02 -.112498095823625D+03 -.872020931473277D+02
 0.441776575955415D+02 0.136653109336349D+02 -.936559246191127D+01 -.409537591138271D+02
 0.218771271529228D+03 -.490658031525767D+02 0.117929901187933D+03 0.158362680764572D+03
 0.193732600918613D+03 0.550147458869166D+01 -.595740090473516D+02 0.184263376399291D+03
0.146990487671D-04 0.000000000000D+00 0.000000000000D+00 0.128851302715D-05 0.000000000000D+00  7 3 -3 24 -11 11 -24 21 0 0.60130182D-01 0.34260391D-01 0.54173262D+05 0.54173262D+05 0.54173262D+05 0.11442456D+01  1  2  2  2  7  2       -3 0.143214775090D-03 0.100000000000D+01
-.760806092889D-06 0.000000000000D+00 -.564482176141D-07 0.128851302715D-05 0.000000000000D+00  7 3 -3 24 -11 11 -24 21 2 0.60130182D-01 0.34260391D-01 0.54173262D+05 0.54173262D+05 0.54173262D+05 0.11442456D+01  1  2  3  2  7  2       -3 -.970534746980D-05 0.100000000000D+01
0.913167036046D-06 0.000000000000D+00 0.000000000000D+00 0.128851302715D-05 0.000000000000D+00  7 3 -3 24 -11 11 -24 21 2 0.60130182D-01 0.34260391D-01 0.54173262D+05 0.54173262D+05 0.54173262D+05 0.11442456D+01  1  2 15  2  7  2       -3 0.116489647831D-04 0.100000000000D+01
-.487117757187D-06 0.000000000000D+00 0.000000000000D+00 0.128851302715D-05 0.000000000000D+00  7 3 -3 24 -11 11 -24 21 2 0.60130182D-01 0.34260391D-01 0.54173262D+05 0.54173262D+05 0.54173262D+05 0.11442456D+01  1  2  4  2  7  2       -3 -.621399741196D-05 0.100000000000D+01
  </mgrwgt>
  </event>
  <event>
  8     66 0.27727860E-05 0.16953617E+03 0.75467711E-02 0.10736526E+00
        1 -1    0    0  501    0 0.00000000E+00 0.00000000E+00 0.18472812E+04 0.18472812E+04 0.32000000E+00 0.0000E+00 0.9000E+01
       -1 -1    0    0    0  501 0.00000000E+00 0.00000000E+00 -.33117716E+02 0.33119262E+02 0.32000000E+00 0.0000E+00 0.9000E+01
       25  2    1    2    0    0 -.99767298E+02 -.46387588E+02 0.15173581E+04 0.15506160E+04 0.29988205E+03 0.0000E+00 0.0000E+00
       23  2    1    2    0    0 0.99767298E+02 0.46387588E+02 0.29680537E+03 0.32978442E+03 0.92514922E+02 0.0000E+00 0.0000E+00
       24  1    3    3    0    0 -.40574002E+02 -.25734363E+02 0.13592757E+04 0.13625000E+04 0.80419002E+02 0.0000E+00 0.9000E+01
      -13  1    4    4    0    0 0.91499458E+02 0.72050865E+02 0.23190242E+03 0.25950380E+03 0.10565837E+00 0.0000E+00 0.9000E+01
       13  1    4    4    0    0 0.82678403E+01 -.25663277E+02 0.64902950E+02 0.70280617E+02 0.10565837E+00 0.0000E+00 0.9000E+01
      -24  1    3    3    0    0 -.59193297E+02 -.20653225E+02 0.15808235E+03 0.18811605E+03 0.80419002E+02 0.0000E+00 0.9000E+01
#aMCatNLO 1  0  0  2  1 0.34510267D+02 0.00000000D+00  -5  7  0 0.00000000D+00 0.00000000D+00 0.00000000D+00 0.00000000D+00 0.00000000D+00
  <mgrwgt>
 0.9862050497D-03    4    2    0
 0.247344320771241D+03 0.000000000000000D+00 0.000000000000000D+00 0.247344320771241D+03
 0.247344320771241D+03 0.000000000000000D+00 0.000000000000000D+00 -.247344320771241D+03
 0.194258079738924D+03 -.405740098696840D+02 -.257343664578288D+02 0.170177782614514D+03
 0.135968834018796D+03 0.914995737716235D+02 0.720509828465896D+02 -.701712740007097D+02
 0.291315951745852D+02 0.826773841304521D+01 -.256633882746325D+02 -.110310852238041D+02
 0.135330132610175D+03 -.591933023149847D+02 -.206532281141283D+02 -.889754233899998D+02
 0.000000000000000D+00 -.000000000000000D+00 0.000000000000000D+00 0.000000000000000D+00
 0.339541585205987D+03 0.000000000000000D+00 0.000000000000000D+00 0.339541585205987D+03
 0.251196033273741D+03 0.000000000000000D+00 0.000000000000000D+00 -.251196033273741D+03
 0.192304144081262D+03 -.273653445997628D+02 -.283606786907459D+02 0.170177782614514D+03
 0.141579670125981D+03 0.100983287030478D+03 0.701653122177846D+02 -.701712740007097D+02
 0.301172319527196D+02 0.102922454055444D+02 -.260659261065310D+02 -.110310852238041D+02
 0.131889879933259D+03 -.500625091810126D+02 -.224687267443037D+02 -.889754233899998D+02
 0.948466923865070D+02 -.338476786552468D+02 0.673001932379597D+01 0.883455519322460D+02
0.129343823706D-04 0.000000000000D+00 0.000000000000D+00 0.539369092032D-06 0.000000000000D+00  7 1 -1 24 -13 13 -24 21 0 0.28419722D+00 0.50951543D-02 0.28742514D+05 0.28742514D+05 0.28742514D+05 0.11690653D+01  1  2  2  2  7  2       -1 0.102223943282D-02 0.100000000000D+01
-.593929377275D-06 0.000000000000D+00 -.496714340041D-07 0.539369092032D-06 0.000000000000D+00  7 1 -1 24 -13 13 -24 21 2 0.28419722D+00 0.50951543D-02 0.28742514D+05 0.28742514D+05 0.28742514D+05 0.11690653D+01  1  2  3  2  7  2       -1 -.641533382760D-04 0.100000000000D+01
0.782234057091D-06 0.000000000000D+00 0.000000000000D+00 0.539369092032D-06 0.000000000000D+00  7 1 -1 24 -13 13 -24 21 2 0.28419722D+00 0.50951543D-02 0.28742514D+05 0.28742514D+05 0.28742514D+05 0.11690653D+01  1  2 15  2  7  2       -1 0.844930862081D-04 0.100000000000D+01
-.521909747417D-06 0.000000000000D+00 0.000000000000D+00 0.539369092032D-06 0.000000000000D+00  7 1 -1 24 -13 13 -24 21 2 0.28419722D+00 0.50951543D-02 0.28742514D+05 0.28742514D+05 0.28742514D+05 0.11690653D+01  1  2  4  2  7  2       -1 -.563741310949D-04 0.100000000000D+01
  </mgrwgt>
  </event>
  <event>
  8     66 0.27727860E-05 0.42952688E+03 0.75467711E-02 0.93181176E-01
        1 -1    0    0  501    0 0.00000000E+00 0.00000000E+00 0.37312549E+03 0.37312562E+03 0.32000000E+00 0.0000E+00 0.9000E+01
       -1 -1    0    0    0  501 0.00000000E+00 0.00000000E+00 -.50684673E+03 0.50684683E+03 0.32000000E+00 0.0000E+00 0.9000E+01
       25  2    1    2    0    0 0.33813703E+03 -.16744985E+03 -.83802634E+02 0.48908959E+03 0.29968256E+03 0.0000E+00 0.0000E+00
       23  2    1    2    0    0 -.33813703E+03 0.16744985E+03 -.49918608E+02 0.39088286E+03 0.89002463E+02 0.0000E+00 0.0000E+00
       24  1    3    3    0    0 0.19252166E+03 0.42881977E+02 -.24103754E+02 0.21436338E+03 0.80419002E+02 0.0000E+00 0.9000E+01
      -11  1    4    4    0    0 -.42097884E+02 0.28677095E+02 -.38291961E+02 0.63725049E+02 0.51099893E-03 0.0000E+00 0.9000E+01
       11  1    4    4    0    0 -.29603915E+03 0.13877276E+03 -.11626647E+02 0.32715781E+03 0.51099893E-03 0.0000E+00 0.9000E+01
      -24  1    3    3    0    0 0.14561538E+03 -.21033183E+03 -.59698881E+02 0.27472621E+03 0.80419002E+02 0.0000E+00 0.9000E+01
#aMCatNLO 1  0  0  2  1 0.24755224D+03 0.00000000D+00  -5  7  0 0.00000000D+00 0.00000000D+00 0.00000000D+00 0.00000000D+00 0.00000000D+00
  <mgrwgt>
 0.9919884921D-03    3    2    0
 0.434876460683623D+03 0.000000000000000D+00 0.000000000000000D+00 0.434876460683623D+03
 0.434876460683623D+03 0.000000000000000D+00 0.000000000000000D+00 -.434876460683623D+03
 0.213176272928071D+03 0.192521656980184D+03 0.428819765604874D+02 0.857059303683607D+01
 0.585865683251868D+02 -.420978842486571D+02 0.286770945872032D+02 -.289444014611643D+02
 0.329214339965948D+03 -.296039149379431D+03 0.138772758401324D+03 0.385360246990488D+02
 0.268775740148041D+03 0.145615376647904D+03 -.210331829549015D+03 -.181622162747205D+02
 0.000000000000000D+00 -.000000000000000D+00 0.000000000000000D+00 0.000000000000000D+00
 0.858722765045415D+03 0.000000000000000D+00 0.000000000000000D+00 0.858722765045415D+03
 0.489830245408476D+03 0.000000000000000D+00 0.000000000000000D+00 -.489830245408476D+03
 0.258802462024901D+03 0.245806072641340D+03 0.417348576336512D+01 0.857059303683607D+01
 0.464221086264170D+02 -.302428459252147D+02 0.200649959810994D+02 -.289444014611643D+02
 0.250904650645260D+03 -.230546153319475D+03 0.911953381780437D+02 0.385360246990488D+02
 0.348167330741119D+03 0.215265656616140D+03 -.260929310777149D+03 -.181622162747205D+02
 0.444256458416193D+03 -.200282730012791D+03 0.145495490854641D+03 0.368892519636939D+03
0.712711397337D-04 0.000000000000D+00 0.000000000000D+00 0.105987676986D-05 0.000000000000D+00  7 1 -1 24 -11 11 -24 21 0 0.57403939D-01 0.77976438D-01 0.18449334D+06 0.18449334D+06 0.18449334D+06 0.11005274D+01  1  2  2  2  7  2       -1 0.986055833361D-03 0.100000000000D+01
-.395877019679D-05 0.000000000000D+00 -.273699942700D-06 0.105987676986D-05 0.000000000000D+00  7 1 -1 24 -11 11 -24 21 2 0.57403939D-01 0.77976438D-01 0.18449334D+06 0.18449334D+06 0.18449334D+06 0.11005274D+01  1  2  3  2  7  2       -1 -.663360874251D-04 0.100000000000D+01
0.431281628987D-05 0.000000000000D+00 0.000000000000D+00 0.105987676986D-05 0.000000000000D+00  7 1 -1 24 -11 11 -24 21 2 0.57403939D-01 0.77976438D-01 0.18449334D+06 0.18449334D+06 0.18449334D+06 0.11005274D+01  1  2 15  2  7  2       -1 0.722687461588D-04 0.100000000000D+01
  </mgrwgt>
  </event>
  <event>
  8     66 0.27727860E-05 0.43797565E+03 0.75467711E-02 0.78949968E-01
        1 -1    0    0  501    0 0.00000000E+00 0.00000000E+00 0.74494607E+03 0.74494614E+03 0.32000000E+00 0.0000E+00 0.9000E+01
       -1 -1    0    0    0  501 0.00000000E+00 0.00000000E+00 -.30089288E+03 0.30089305E+03 0.32000000E+00 0.0000E+00 0.9000E+01
       25  2    1    2    0    0 0.77311000E+02 -.41360812E+03 0.23399214E+03 0.56725003E+03 0.29995267E+03 0.0000E+00 0.0000E+00
       23  2    1    2    0    0 -.77311000E+02 0.41360812E+03 0.21006105E+03 0.47858916E+03 0.88731489E+02 0.0000E+00 0.0000E+00
       24  1    3    3    0    0 0.75405108E+01 -.16009781E+03 0.23079784E+03 0.29227218E+03 0.80419002E+02 0.0000E+00 0.9000E+01
      -11  1    4    4    0    0 -.79640952E+02 0.39780008E+03 0.21820699E+03 0.46065375E+03 0.51099893E-03 0.0000E+00 0.9000E+01
       11  1    4    4    0    0 0.23299521E+01 0.15808041E+02 -.81459422E+01 0.17935418E+02 0.51099893E-03 0.0000E+00 0.9000E+01
      -24  1    3    3    0    0 0.69770489E+02 -.25351031E+03 0.31943005E+01 0.27497785E+03 0.80419002E+02 0.0000E+00 0.9000E+01
#aMCatNLO 1  0  0  2  2 0.25719633D+04 0.00000000D+00  -5  7  0 0.00000000D+00 0.00000000D+00 0.00000000D+00 0.00000000D+00 0.00000000D+00
  <mgrwgt>
 0.1172657590D-02    5    2    0
 0.473443867856722D+03 0.000000000000000D+00 0.000000000000000D+00 0.473443867856722D+03
 0.473443867856722D+03 0.000000000000000D+00 0.000000000000000D+00 -.473443867856722D+03
 0.214580012914468D+03 0.754051084791998D+01 -.160097808121087D+03 0.117852443839654D+03
 0.406462369531081D+03 -.796409516870607D+02 0.397800078269455D+03 0.249814809011908D+02
 0.236298281474424D+02 0.232995211066952D+01 0.158080409859576D+02 -.174082147742361D+02
 0.302215525120452D+03 0.697704887284712D+02 -.253510311134325D+03 -.125425709966609D+03
 0.000000000000000D+00 -.000000000000000D+00 -.000000000000000D+00 -.000000000000000D+00
 0.163199247494411D+04 0.000000000000000D+00 0.000000000000000D+00 0.163199247494411D+04
 0.769134903375064D+04 0.000000000000000D+00 0.000000000000000D+00 -.769134903375064D+04
 0.302688075266934D+03 0.240888104956358D+03 0.115050325188530D+03 0.117852443839654D+03
 0.186063944901682D+04 0.943083563983222D+03 0.160372955207364D+04 0.249814809011908D+02
 0.105236308450475D+03 0.604634492743836D+02 0.843552368054387D+02 -.174082147742361D+02
 0.472164441424951D+03 0.419105207509290D+03 0.158402209926919D+03 -.125425709966609D+03
 0.658261323453556D+04 -.166354032572325D+04 -.196153732399453D+04 -.605935655880653D+04
0.840304047402D-04 0.000000000000D+00 0.000000000000D+00 0.131499092825D-05 0.000000000000D+00  7 1 -1 24 -11 11 -24 21 0 0.11460711D+00 0.46291231D-01 0.19182267D+06 0.19182267D+06 0.19182267D+06 0.10992205D+01  1  2  2  2  7  2       -1 0.116442799112D-02 0.100000000000D+01
-.463393776382D-05 0.000000000000D+00 -.322698879916D-06 0.131499092825D-05 0.000000000000D+00  7 1 -1 24 -11 11 -24 21 2 0.11460711D+00 0.46291231D-01 0.19182267D+06 0.19182267D+06 0.19182267D+06 0.10992205D+01  1  2  3  2  7  2       -1 -.775882662823D-04 0.100000000000D+01
0.512375201777D-05 0.000000000000D+00 0.000000000000D+00 0.131499092825D-05 0.000000000000D+00  7 1 -1 24 -11 11 -24 21 2 0.11460711D+00 0.46291231D-01 0.19182267D+06 0.19182267D+06 0.19182267D+06 0.10992205D+01  1  2 15  2  7  2       -1 0.857894637736D-04 0.100000000000D+01
0.154848846631D-03 0.000000000000D+00 -.103327081786D-03 0.131499092825D-05 0.000000000000D+00  7 1 -1 24 -11 11 -24 21 2 0.11460711D+00 0.86635657D+00 0.19182267D+06 0.19182267D+06 0.19182267D+06 0.10992205D+01  1  2  5  2  7  2       -1 0.282935485581D-07 0.100000000000D+01
0.235940644156D-04 0.000000000000D+00 -.328733738460D-04 0.131499092825D-05 0.000000000000D+00  7 1 21 24 -11 11 -24 1 2 0.11460711D+00 0.86635657D+00 0.19182267D+06 0.19182267D+06 0.19182267D+06 0.10992205D+01  1  2  5  4  7  2       -1 0.107638270908D-09 0.100000000000D+01
  </mgrwgt>
  </event>
  <event>
  8     66 0.27727860E-05 0.31282069E+03 0.75467711E-02 0.88725978E-01
        1 -1    0    0  501    0 0.00000000E+00 0.00000000E+00 0.61283804E+03 0.61283813E+03 0.32000000E+00 0.0000E+00 0.9000E+01
       -1 -1    0    0    0  501 0.00000000E+00 0.00000000E+00 -.38075681E+03 0.38075694E+03 0.32000000E+00 0.0000E+00 0.9000E+01
       25  2    1    2    0    0 0.18753654E+02 -.23344519E+03 -.24625001E+03 0.45318701E+03 0.29981835E+03 0.0000E+00 0.0000E+00
       23  2    1    2    0    0 -.18753654E+02 0.23344519E+03 0.47833125E+03 0.54040805E+03 0.91606346E+02 0.0000E+00 0.0000E+00
       24  1    3    3    0    0 -.16235924E+02 0.41403274E+02 -.62579191E+02 0.11118097E+03 0.80419002E+02 0.0000E+00 0.9000E+01
      -13  1    4    4    0    0 -.46164875E+02 0.16940763E+03 0.39163385E+03 0.42919369E+03 0.10565837E+00 0.0000E+00 0.9000E+01
       13  1    4    4    0    0 0.27411221E+02 0.64037557E+02 0.86697403E+02 0.11121436E+03 0.10565837E+00 0.0000E+00 0.9000E+01
      -24  1    3    3    0    0 0.34989579E+02 -.27484847E+03 -.18367082E+03 0.34200605E+03 0.80419002E+02 0.0000E+00 0.9000E+01
#aMCatNLO 1  0  0  1  2 0.76941415D+03 0.00000000D+00  -5  7  0 0.00000000D+00 0.00000000D+00 0.00000000D+00 0.00000000D+00 0.00000000D+00
  <mgrwgt>
 0.6149709520D-03    3    2    0
 0.483055238230110D+03 0.000000000000000D+00 0.000000000000000D+00 0.483055238230110D+03
 0.483055238230110D+03 0.000000000000000D+00 0.000000000000000D+00 -.483055238230110D+03
 0.129376835356308D+03 -.162359243996733D+02 0.414032741402427D+02 -.910676299340154D+02
 0.347324863941997D+03 -.461649731934402D+02 0.169407773769854D+03 0.299673760193844D+03
 0.935512842053338D+02 0.274113188634777D+02 0.640374171554394D+02 0.624473504537392D+02
 0.395857492956581D+03 0.349895787296358D+02 -.274848465065536D+03 -.271053480713567D+03
 0.000000000000000D+00 0.000000000000000D+00 -.000000000000000D+00 -.000000000000000D+00
 0.997949734368428D+03 0.000000000000000D+00 0.000000000000000D+00 0.997949734368428D+03
 0.100657043218700D+04 0.000000000000000D+00 0.000000000000000D+00 -.100657043218700D+04
 0.197533494630442D+03 -.987897953935361D+02 0.120413988601195D+03 -.910676299340154D+02
 0.563861015280388D+03 -.276264528407260D+03 0.389631611074136D+03 0.299673760193844D+03
 0.139085876759574D+03 -.313359779119222D+02 0.120263319526741D+03 0.624473504537392D+02
 0.334577338623326D+03 -.149465353783863D+03 -.983102140025224D+02 -.271053480713567D+03
 0.769462441261696D+03 0.555855655496581D+03 -.531998705199549D+03 -.862069781857122D+01
0.489484387137D-04 0.000000000000D+00 0.000000000000D+00 0.563505774768D-05 0.000000000000D+00  7 1 -1 24 -13 13 -24 21 0 0.94282792D-01 0.58577987D-01 0.97856785D+05 0.97856785D+05 0.97856785D+05 0.11224950D+01  1  2  2  1  7  1        1 0.602684465550D-03 0.100000000000D+01
-.209515001841D-05 0.000000000000D+00 -.187974893081D-06 0.563505774768D-05 0.000000000000D+00  7 1 -1 24 -13 13 -24 21 2 0.94282792D-01 0.58577987D-01 0.97856785D+05 0.97856785D+05 0.97856785D+05 0.11224950D+01  1  2  3  1  7  1        1 -.325038718427D-04 0.100000000000D+01
0.288711820430D-05 0.000000000000D+00 0.000000000000D+00 0.563505774768D-05 0.000000000000D+00  7 1 -1 24 -13 13 -24 21 2 0.94282792D-01 0.58577987D-01 0.97856785D+05 0.97856785D+05 0.97856785D+05 0.11224950D+01  1  2 15  1  7  1        1 0.447903583431D-04 0.100000000000D+01
  </mgrwgt>
  </event>
  <event>
  9     66 -.27727860E-05 0.21671786E+03 0.75467711E-02 0.10415203E+00
        1 -1    0    0  501    0 0.00000000E+00 0.00000000E+00 0.25849874E+04 0.25849875E+04 0.32000000E+00 0.0000E+00 0.9000E+01
       -1 -1    0    0    0  502 0.00000000E+00 0.00000000E+00 -.25190084E+02 0.25192117E+02 0.32000000E+00 0.0000E+00 0.9000E+01
       25  2    1    2    0    0 -.11902310E+03 -.13755792E+02 0.12746968E+04 0.13148607E+04 0.29941766E+03 0.0000E+00 0.0000E+00
       23  2    1    2    0    0 0.87598004E+02 0.32624406E+01 0.11078099E+04 0.11149577E+04 0.90574329E+02 0.0000E+00 0.0000E+00
       24  1    3    3    0    0 -.18948369E+03 0.17732088E+02 0.71897485E+03 0.74807122E+03 0.80419002E+02 0.0000E+00 0.9000E+01
      -13  1    4    4    0    0 0.62426468E+02 -.33661125E+02 0.44241224E+03 0.44806109E+03 0.10565837E+00 0.0000E+00 0.9000E+01
       13  1    4    4    0    0 0.25171536E+02 0.36923566E+02 0.66539769E+03 0.66689659E+03 0.10565837E+00 0.0000E+00 0.9000E+01
      -24  1    3    3    0    0 0.70460596E+02 -.31487880E+02 0.55572193E+03 0.56678943E+03 0.80419002E+02 0.0000E+00 0.9000E+01
       21  1    1    2  501  502 0.31425094E+02 0.10493352E+02 0.17729064E+03 0.18036125E+03 0.75000000E+00 0.0000E+00 0.9000E+01
#aMCatNLO 2  0  0  2  1 0.33130755D+02 0.00000000D+00  -5  7  0 0.00000000D+00 0.00000000D+00 0.00000000D+00 0.00000000D+00 0.00000000D+00
  <mgrwgt>
 -.3351331310D-03    2    2    0
 0.238002732241928D+03 0.000000000000000D+00 0.000000000000000D+00 0.238002732241928D+03
 0.238002732241928D+03 0.000000000000000D+00 0.000000000000000D+00 -.238002732241928D+03
 0.207867937041170D+03 -.175395141210018D+03 0.224364846967243D+02 -.739933232782029D+02
 0.761870341948679D+02 0.673329803977459D+02 -.320228733020848D+02 0.156610828375741D+02
 0.762628760784283D+02 0.301126587607249D+02 0.385735990800405D+02 0.584921490811044D+02
 0.115687617169391D+03 0.779495020515477D+02 -.289872104746801D+02 -.159908640475667D+00
 0.000000000000000D+00 0.000000000000000D+00 0.000000000000000D+00 0.000000000000000D+00
 0.256305420365766D+03 0.000000000000000D+00 0.000000000000000D+00 0.256305420365766D+03
 0.254058489770593D+03 0.000000000000000D+00 0.000000000000000D+00 -.254058489770593D+03
 0.219455518900325D+03 -.189483693261197D+03 0.177320872935015D+02 -.739933232782029D+02
 0.726320704528019D+02 0.624265197930522D+02 -.336612205533770D+02 0.156610828375741D+02
 0.736090486995935D+02 0.251714874211049D+02 0.369236613480049D+02 0.584921490811044D+02
 0.111460410690143D+03 0.704605922589156D+02 -.314878796458942D+02 -.159908640475667D+00
 0.332068613934951D+02 0.314250937881246D+02 0.104933515577649D+02 0.224693059517292D+01
-.128598728326D-04 0.000000000000D+00 0.000000000000D+00 0.292066141752D-06 0.000000000000D+00  7 1 -1 24 -13 13 -24 21 2 0.36928545D+00 0.40054453D-02 0.54477232D+05 0.54477232D+05 0.54477232D+05 0.11440337D+01  1  2 13  2  7  2       -1 -.814385157558D-03 0.100000000000D+01
0.962057449342D-05 0.000000000000D+00 0.000000000000D+00 0.292066141752D-06 0.186600286350D-08  7 1 -1 24 -13 13 -24 21 2 0.39768393D+00 0.38754911D-02 0.54477232D+05 0.54477232D+05 0.54477232D+05 0.11440337D+01  1  2  1  2  7  2       -1 0.479252026564D-03 0.100000000000D+01
  </mgrwgt>
  </event>
  <event>
  9     66 0.27727860E-05 0.30662064E+03 0.75467711E-02 0.91285129E-01
        1 -1    0    0  501    0 0.00000000E+00 0.00000000E+00 0.16939218E+04 0.16939218E+04 0.32000000E+00 0.0000E+00 0.9000E+01
       21 -1    0    0  502  501 0.00000000E+00 0.00000000E+00 -.30798605E+03 0.30798697E+03 0.75000000E+00 0.0000E+00 0.9000E+01
       25  2    1    2    0    0 0.26681670E+03 -.30650723E+03 0.31349707E+03 0.59411366E+03 0.29925372E+03 0.0000E+00 0.0000E+00
       23  2    1    2    0    0 -.26863895E+03 -.23540765E+03 0.44543768E+03 0.57905789E+03 0.96486639E+02 0.0000E+00 0.0000E+00
       24  1    3    3    0    0 0.89473394E+02 -.16755971E+03 0.28699619E+03 0.35343426E+03 0.80419002E+02 0.0000E+00 0.9000E+01
      -11  1    4    4    0    0 -.21625176E+03 -.23244909E+03 0.38498044E+03 0.49900636E+03 0.51099893E-03 0.0000E+00 0.9000E+01
       11  1    4    4    0    0 -.52387192E+02 -.29585554E+01 0.60457236E+02 0.80051535E+02 0.51099893E-03 0.0000E+00 0.9000E+01
      -24  1    3    3    0    0 0.17734330E+03 -.13894752E+03 0.26500879E+02 0.24067940E+03 0.80419002E+02 0.0000E+00 0.9000E+01
        1  1    1    2  502    0 0.18222491E+01 0.54191488E+03 0.62700096E+03 0.82873721E+03 0.32000000E+00 0.0000E+00 0.9000E+01
#aMCatNLO 2  0  0  2  1 0.54191794D+03 0.00000000D+00  -5  7  0 0.00000000D+00 0.00000000D+00 0.00000000D+00 0.00000000D+00 0.00000000D+00
  <mgrwgt>
 0.4701120358D-04    1    2    0
 0.355905350877783D+03 0.000000000000000D+00 0.000000000000000D+00 0.355905350877783D+03
 0.355905350877783D+03 0.000000000000000D+00 0.000000000000000D+00 -.355905350877783D+03
 0.149179516333624D+03 0.898921846214050D+02 -.430165139022196D+02 0.765263798624684D+02
 0.234449044366555D+03 -.215613987803931D+03 -.427843828978942D+02 0.815258195158036D+02
 0.650908148005485D+02 -.522524547222466D+02 0.371105627563642D+02 0.113710720165176D+02
 0.263091326254838D+03 0.177974257904773D+03 0.486903340437496D+02 -.169423271394790D+03
 0.000000000000000D+00 0.000000000000000D+00 0.000000000000000D+00 0.000000000000000D+00
 0.784336222161042D+03 0.000000000000000D+00 0.000000000000000D+00 0.784336222161042D+03
 0.665154993883713D+03 0.000000000000000D+00 0.000000000000000D+00 -.665154993883713D+03
 0.220011927209409D+03 0.894733942534611D+02 -.167559711941557D+03 0.765263798624684D+02
 0.327786306949779D+03 -.216251756511107D+03 -.232449094603340D+03 0.815258195158036D+02
 0.536886596255072D+02 -.523871915929652D+02 -.295855548886504D+01 0.113710720165176D+02
 0.293135669857968D+03 0.177343304743652D+03 -.138947516570814D+03 -.169423271394790D+03
 0.554868652402091D+03 0.182224910695968D+01 0.541914878604576D+03 0.119181228277329D+03
0.174520282769D-05 0.000000000000D+00 0.000000000000D+00 0.279504209567D-07 0.258164771599D-12  7 1 21 24 -11 11 -24 1 2 0.26060340D+00 0.47382539D-01 0.46060969D+06 0.46060969D+06 0.46060969D+06 0.10710382D+01  1  2  1  4  7  2       -1 0.470112035753D-04 0.100000000000D+01
  </mgrwgt>
  </event>
  <event>
  8     66 0.27727860E-05 0.19573264E+03 0.75467711E-02 0.10063909E+00
        1 -1    0    0  501    0 0.00000000E+00 0.00000000E+00 0.63502655E+03 0.63502663E+03 0.32000000E+00 0.0000E+00 0.9000E+01
       -1 -1    0    0    0  501 0.00000000E+00 0.00000000E+00 -.72714156E+02 0.72714860E+02 0.32000000E+00 0.0000E+00 0.9000E+01
       25  2    1    2    0    0 0.31629545E+02 0.91092579E+02 0.43167033E+03 0.53355796E+03 0.29840665E+03 0.0000E+00 0.0000E+00
       23  2    1    2    0    0 -.31629545E+02 -.91092579E+02 0.13064206E+03 0.17418353E+03 0.63041809E+02 0.0000E+00 0.0000E+00
       24  1    3    3    0    0 0.97377495E+02 0.12495538E+03 0.15381651E+03 0.23499566E+03 0.80419002E+02 0.0000E+00 0.9000E+01
      -13  1    4    4    0    0 -.41452196E+02 -.75106474E+02 0.70051146E+02 0.11075397E+03 0.10565837E+00 0.0000E+00 0.9000E+01
       13  1    4    4    0    0 0.98226504E+01 -.15986104E+02 0.60590913E+02 0.63429566E+02 0.10565837E+00 0.0000E+00 0.9000E+01
      -24  1    3    3    0    0 -.65747950E+02 -.33862803E+02 0.27785383E+03 0.29856230E+03 0.80419002E+02 0.0000E+00 0.9000E+01
#aMCatNLO 1  0  0  2  1 0.17946571D+03 0.00000000D+00  -5  7  0 0.00000000D+00 0.00000000D+00 0.00000000D+00 0.00000000D+00 0.00000000D+00
  <mgrwgt>
 0.1816467812D-02    3    2    0
 0.214885311087052D+03 0.000000000000000D+00 0.000000000000000D+00 0.214885311087052D+03
 0.214885311087052D+03 0.000000000000000D+00 0.000000000000000D+00 -.214885311087052D+03
 0.185734535459027D+03 0.973774937820114D+02 0.124955386797755D+03 -.541652722947800D+02
 0.907335940571954D+02 -.414523404728823D+02 -.751066523005854D+02 -.295513001415359D+02
 0.251776965401096D+02 0.982278955848997D+01 -.159859425970089D+02 0.167892479772205D+02
 0.128124796117773D+03 -.657479428676190D+02 -.338627919001608D+02 0.669273244590954D+02
 0.000000000000000D+00 0.000000000000000D+00 -.000000000000000D+00 0.000000000000000D+00
 0.526043886005800D+03 0.000000000000000D+00 0.000000000000000D+00 0.526043886005800D+03
 0.260333108910991D+03 0.000000000000000D+00 0.000000000000000D+00 -.260333108910991D+03
 0.207571209551096D+03 0.400967525783219D+02 0.179100432132476D+03 -.541652722947800D+02
 0.893615559310587D+02 -.676812573127605D+02 -.503135741816112D+02 -.295513001415359D+02
 0.197182190189201D+02 0.328418351760113D+01 -.980527675592165D+01 0.167892479772205D+02
 0.149085776294846D+03 -.106120673901297D+03 0.429983145577017D+01 0.669273244590954D+02
 0.320640234120871D+03 0.130420995118134D+03 -.123281412650713D+03 0.265710777094809D+03
0.993310630448D-05 0.000000000000D+00 0.000000000000D+00 0.725445153930D-10 0.000000000000D+00  7 1 -1 24 -13 13 -24 21 0 0.97696452D-01 0.11186854D-01 0.38311266D+05 0.38311266D+05 0.38311266D+05 0.11576084D+01  1  2  2  2  7  2       -1 0.179869728874D-02 0.100000000000D+01
-.545991776647D-06 0.000000000000D+00 -.381457436561D-07 0.725445153930D-10 0.000000000000D+00  7 1 -1 24 -13 13 -24 21 2 0.97696452D-01 0.11186854D-01 0.38311266D+05 0.38311266D+05 0.38311266D+05 0.11576084D+01  1  2  3  2  7  2       -1 -.132489802340D-03 0.100000000000D+01
0.619224279567D-06 0.000000000000D+00 0.000000000000D+00 0.725445153930D-10 0.000000000000D+00  7 1 -1 24 -13 13 -24 21 2 0.97696452D-01 0.11186854D-01 0.38311266D+05 0.38311266D+05 0.38311266D+05 0.11576084D+01  1  2 15  2  7  2       -1 0.150260326094D-03 0.100000000000D+01
  </mgrwgt>
  </event>
  <event>
  8     66 0.27727860E-05 0.26036694E+03 0.75467711E-02 0.88804739E-01
        1 -1    0    0  501    0 0.00000000E+00 0.00000000E+00 0.13572898E+04 0.13572899E+04 0.32000000E+00 0.0000E+00 0.9000E+01
       -1 -1    0    0    0  501 0.00000000E+00 0.00000000E+00 -.55087284E+02 0.55088213E+02 0.32000000E+00 0.0000E+00 0.9000E+01
       25  2    1    2    0    0 0.16501432E+03 -.48246039E+02 0.73353625E+03 0.81129682E+03 0.30094800E+03 0.0000E+00 0.0000E+00
       23  2    1    2    0    0 -.16501432E+03 0.48246039E+02 0.56866630E+03 0.60108126E+03 0.91432569E+02 0.0000E+00 0.0000E+00
       24  1    3    3    0    0 -.43507952E+02 0.47964689E+02 0.22266374E+03 0.24543820E+03 0.80419002E+02 0.0000E+00 0.9000E+01
      -13  1    4    4    0    0 -.66181747E+02 0.33688425E+02 0.38410180E+03 0.39121495E+03 0.10565837E+00 0.0000E+00 0.9000E+01
       13  1    4    4    0    0 -.98832577E+02 0.14557614E+02 0.18456449E+03 0.20986630E+03 0.10565837E+00 0.0000E+00 0.9000E+01
      -24  1    3    3    0    0 0.20852228E+03 -.96210729E+02 0.51087251E+03 0.56585862E+03 0.80419002E+02 0.0000E+00 0.9000E+01
#aMCatNLO 1  0  0  1  1 0.78464864D+03 0.00000000D+00  -5  7  0 0.00000000D+00 0.00000000D+00 0.00000000D+00 0.00000000D+00 0.00000000D+00
  <mgrwgt>
 0.7955707328D-03    3    2    0
 0.273441206264154D+03 0.000000000000000D+00 0.000000000000000D+00 0.273441206264154D+03
 0.273441206264154D+03 0.000000000000000D+00 0.000000000000000D+00 -.273441206264154D+03
 0.103675383363895D+03 -.435079462264158D+02 0.479646864870211D+02 -.937105258981728D+01
 0.957519833804090D+02 -.661817060090948D+02 0.336884512346115D+02 0.604442914130117D+02
 0.102527015020787D+03 -.988326228442733D+02 0.145575894516686D+02 -.230646495778928D+02
 0.244928030763216D+03 0.208522275079784D+03 -.962107271733012D+02 -.280085892453016D+02
 0.000000000000000D+00 0.000000000000000D+00 0.000000000000000D+00 -.000000000000000D+00
 0.842253008675540D+03 0.000000000000000D+00 0.000000000000000D+00 0.842253008675540D+03
 0.901020991556906D+03 0.000000000000000D+00 0.000000000000000D+00 -.901020991556906D+03
 0.172447271371663D+03 -.140526899240205D+03 -.586107448549635D+02 -.937105258981728D+01
 0.195636564753554D+03 -.168564510807345D+03 -.787791774546497D+02 0.604442914130117D+02
 0.259318658543992D+03 -.225971370063131D+03 -.125104470426503D+03 -.230646495778928D+02
 0.329025162934425D+03 0.685704777420727D+01 -.317740211043495D+03 -.280085892453016D+02
 0.786846342628812D+03 0.528205732336473D+03 0.580234603779611D+03 -.587679828813655D+02
0.102943737913D-04 0.000000000000D+00 0.000000000000D+00 0.332450692307D-06 0.000000000000D+00  7 1 -1 24 -13 13 -24 21 0 0.20881389D+00 0.84750412D-02 0.67790944D+05 0.67790944D+05 0.67790944D+05 0.11358454D+01  1  2  2  1  7  1        1 0.786352184737D-03 0.100000000000D+01
-.570240461141D-06 0.000000000000D+00 -.395331059293D-07 0.332450692307D-06 0.000000000000D+00  7 1 -1 24 -13 13 -24 21 2 0.20881389D+00 0.84750412D-02 0.67790944D+05 0.67790944D+05 0.67790944D+05 0.11358454D+01  1  2  3  1  7  1        1 -.561970662165D-04 0.100000000000D+01
0.663782516726D-06 0.000000000000D+00 0.000000000000D+00 0.332450692307D-06 0.000000000000D+00  7 1 -1 24 -13 13 -24 21 2 0.20881389D+00 0.84750412D-02 0.67790944D+05 0.67790944D+05 0.67790944D+05 0.11358454D+01  1  2 15  1  7  1        1 0.654156142677D-04 0.100000000000D+01
  </mgrwgt>
  </event>
  <event>
  9     66 0.27727860E-05 0.16921252E+03 0.75467711E-02 0.98569614E-01
        1 -1    0    0  501    0 0.00000000E+00 0.00000000E+00 0.15323124E+04 0.15323125E+04 0.32000000E+00 0.0000E+00 0.9000E+01
       -1 -1    0    0    0  502 0.00000000E+00 0.00000000E+00 -.28176542E+03 0.28176560E+03 0.32000000E+00 0.0000E+00 0.9000E+01
       25  2    1    2    0    0 -.52541748E+02 0.55217783E+02 0.12965199E+04 0.13330141E+04 0.30025494E+03 0.0000E+00 0.0000E+00
       23  2    1    2    0    0 -.17366058E+03 0.69504826E+02 -.77726267E+02 0.22081013E+03 0.87902346E+02 0.0000E+00 0.0000E+00
       24  1    3    3    0    0 -.94193280E+02 -.48599826E+02 0.96318961E+03 0.97233521E+03 0.80419002E+02 0.0000E+00 0.9000E+01
      -11  1    4    4    0    0 -.10837217E+03 0.39373698E+02 -.91990825E+02 0.14750297E+03 0.51099893E-03 0.0000E+00 0.9000E+01
       11  1    4    4    0    0 -.65288411E+02 0.30131128E+02 0.14264558E+02 0.73307156E+02 0.51099893E-03 0.0000E+00 0.9000E+01
      -24  1    3    3    0    0 0.41651532E+02 0.10381761E+03 0.33333032E+03 0.36067889E+03 0.80419002E+02 0.0000E+00 0.9000E+01
       21  1    1    2  501  502 0.22620233E+03 -.12472261E+03 0.31753339E+02 0.26025383E+03 0.75000000E+00 0.0000E+00 0.9000E+01
#aMCatNLO 2  0  0  2  1 0.25830838D+03 0.00000000D+00  -5  7  0 0.00000000D+00 0.00000000D+00 0.00000000D+00 0.00000000D+00 0.00000000D+00
  <mgrwgt>
 0.1742316080D-03    1    2    0
 0.464270535385513D+03 0.000000000000000D+00 0.000000000000000D+00 0.464270535385513D+03
 0.464270535385513D+03 0.000000000000000D+00 0.000000000000000D+00 -.464270535385513D+03
 0.346418032647027D+03 -.109987809512325D+02 -.944713042334676D+02 0.323252899264153D+03
 0.335888962771559D+03 -.258901934397815D+02 -.610490959565662D+01 -.334834023471679D+03
 0.839967796990376D+02 -.432767695641752D+02 0.179944299817901D+02 -.697049546698682D+02
 0.162237295653402D+03 0.801657439551892D+02 0.825817838473341D+02 0.812860788773944D+02
 0.000000000000000D+00 0.000000000000000D+00 -.000000000000000D+00 -.000000000000000D+00
 0.532652875440806D+03 0.000000000000000D+00 0.000000000000000D+00 0.532652875440806D+03
 0.810569720952265D+03 0.000000000000000D+00 0.000000000000000D+00 -.810569720952265D+03
 0.349562540875806D+03 -.941932803179876D+02 -.485998260226846D+02 0.323252899264153D+03
 0.354130820005327D+03 -.108372165732068D+03 0.393736980477229D+02 -.334834023471679D+03
 0.100146104554876D+03 -.652884113401969D+02 0.301311283668738D+02 -.697049546698682D+02
 0.159961209710176D+03 0.416515319639544D+02 0.103817608927224D+03 0.812860788773944D+02
 0.379421921246887D+03 0.226202325426298D+03 -.124722609319136D+03 -.277916845511459D+03
0.339393700127D-04 0.000000000000D+00 0.000000000000D+00 0.107986695051D-05 0.123242006128D-09  7 1 -1 24 -11 11 -24 21 2 0.23574024D+00 0.43348515D-01 0.12828326D+06 0.12828326D+06 0.12828326D+06 0.11129521D+01  1  2  1  2  7  2       -1 0.174231607961D-03 0.100000000000D+01
  </mgrwgt>
  </event>
  <event>
  8     66 0.27727860E-05 0.23618913E+03 0.75467711E-02 0.96798059E-01
        1 -1    0    0  501    0 0.00000000E+00 0.00000000E+00 0.13703286E+04 0.13703287E+04 0.32000000E+00 0.0000E+00 0.9000E+01
       -1 -1    0    0    0  501 0.00000000E+00 0.00000000E+00 -.69074820E+02 0.69075561E+02 0.32000000E+00 0.0000E+00 0.9000E+01
       25  2    1    2    0    0 0.93311360E+02 0.10730223E+03 0.11851834E+04 0.12306774E+04 0.29947712E+03 0.0000E+00 0.0000E+00
       23  2    1    2    0    0 -.93311360E+02 -.10730223E+03 0.11607041E+03 0.20872676E+03 0.99366712E+02 0.0000E+00 0.0000E+00
       24  1    3    3    0    0 -.40889430E+02 -.41484147E+02 0.21591442E+03 0.23765338E+03 0.80419002E+02 0.0000E+00 0.9000E+01
      -11  1    4    4    0    0 -.76559432E+02 -.37234056E+02 0.17961499E+02 0.87007684E+02 0.51099893E-03 0.0000E+00 0.9000E+01
       11  1    4    4    0    0 -.16751928E+02 -.70068177E+02 0.98108909E+02 0.12171908E+03 0.51099893E-03 0.0000E+00 0.9000E+01
      -24  1    3    3    0    0 0.13420079E+03 0.14878638E+03 0.96926897E+03 0.99302407E+03 0.80419002E+02 0.0000E+00 0.9000E+01
#aMCatNLO 1  0  0  2  1 0.28868063D+03 0.00000000D+00  -5  7  0 0.00000000D+00 0.00000000D+00 0.00000000D+00 0.00000000D+00 0.00000000D+00
  <mgrwgt>
 0.5583456921D-03    5    2    0
 0.307661767057766D+03 0.000000000000000D+00 0.000000000000000D+00 0.307661767057766D+03
 0.307661767057766D+03 0.000000000000000D+00 0.000000000000000D+00 -.307661767057766D+03
 0.993295816726125D+02 -.408894304414564D+02 -.414841469780551D+02 0.250397055934828D+01
 0.165549914602096D+03 -.765594324573100D+02 -.372340563108901D+02 -.141982578428529D+03
 0.772575152526432D+02 -.167519277297306D+02 -.700681772682768D+02 -.279024571436211D+02
 0.273186522588181D+03 0.134200790628497D+03 0.148786380557222D+03 0.167381065012802D+03
 0.000000000000000D+00 -.000000000000000D+00 -.000000000000000D+00 -.000000000000000D+00
 0.462796734185921D+03 0.000000000000000D+00 0.000000000000000D+00 0.462796734185921D+03
 0.509278065316302D+03 0.000000000000000D+00 0.000000000000000D+00 -.509278065316302D+03
 0.852033446862085D+02 -.279313212798891D+02 -.244241977224450D+01 0.250397055934828D+01
 0.154970109482947D+03 -.540521566962022D+02 0.305785318881154D+02 -.141982578428529D+03
 0.516625521489880D+02 -.769901592981381D+01 -.427924915564374D+02 -.279024571436211D+02
 0.387840060789407D+03 0.180618819080769D+03 0.288640118604135D+03 0.167381065012802D+03
 0.292398732394672D+03 -.909363251748634D+02 -.273983739163568D+03 -.464813311303809D+02
0.910206492487D-05 0.000000000000D+00 0.000000000000D+00 0.344426881854D-07 0.000000000000D+00  7 1 -1 24 -11 11 -24 21 0 0.21081985D+00 0.10626955D-01 0.55785305D+05 0.55785305D+05 0.55785305D+05 0.11431363D+01  1  2  2  2  7  2       -1 0.484001440716D-03 0.100000000000D+01
-.462700094196D-06 0.000000000000D+00 -.349543259402D-07 0.344426881854D-07 0.000000000000D+00  7 1 -1 24 -11 11 -24 21 2 0.21081985D+00 0.10626955D-01 0.55785305D+05 0.55785305D+05 0.55785305D+05 0.11431363D+01  1  2  3  2  7  2       -1 -.321515801992D-04 0.100000000000D+01
0.543285274588D-06 0.000000000000D+00 0.000000000000D+00 0.344426881854D-07 0.000000000000D+00  7 1 -1 24 -11 11 -24 21 2 0.21081985D+00 0.10626955D-01 0.55785305D+05 0.55785305D+05 0.55785305D+05 0.11431363D+01  1  2 15  2  7  2       -1 0.377511919623D-04 0.100000000000D+01
0.113995774226D-05 0.000000000000D+00 -.283898463914D-05 0.344426881854D-07 0.000000000000D+00  7 1 -1 24 -11 11 -24 21 2 0.21081985D+00 0.27543708D-01 0.55785305D+05 0.55785305D+05 0.55785305D+05 0.11431363D+01  1  2  5  2  7  2       -1 0.176367629953D-04 0.100000000000D+01
0.291648955401D-06 0.000000000000D+00 -.299411748638D-06 0.344426881854D-07 0.000000000000D+00  7 1 21 24 -11 11 -24 1 2 0.21081985D+00 0.27543708D-01 0.55785305D+05 0.55785305D+05 0.55785305D+05 0.11431363D+01  1  2  5  4  7  2       -1 0.511078766344D-04 0.100000000000D+01
  </mgrwgt>
  </event>
  <event>
  8     66 0.27727860E-05 0.20483862E+03 0.75467711E-02 0.97919260E-01
        3 -1    0    0  501    0 0.00000000E+00 0.00000000E+00 0.98117452E+03 0.98117465E+03 0.50000000E+00 0.0000E+00 0.9000E+01
       -3 -1    0    0    0  501 0.00000000E+00 0.00000000E+00 -.16651840E+03 0.16651915E+03 0.50000000E+00 0.0000E+00 0.9000E+01
       25  2    1    2    0    0 0.26232645E+03 -.99294554E+02 0.18083513E+03 0.44846627E+03 0.29957649E+03 0.0000E+00 0.0000E+00
       23  2    1    2    0    0 -.26232645E+03 0.99294554E+02 0.63382099E+03 0.69922753E+03 0.92279568E+02 0.0000E+00 0.0000E+00
       24  1    3    3    0    0 0.26093222E+03 -.32278776E+02 0.20261036E+03 0.34153435E+03 0.80419002E+02 0.0000E+00 0.9000E+01
      -13  1    4    4    0    0 -.54318004E+01 0.28158047E+02 0.65059264E+02 0.71099220E+02 0.10565837E+00 0.0000E+00 0.9000E+01
       13  1    4    4    0    0 -.25689465E+03 0.71136507E+02 0.56876173E+03 0.62812831E+03 0.10565837E+00 0.0000E+00 0.9000E+01
      -24  1    3    3    0    0 0.13942332E+01 -.67015779E+02 -.21775224E+02 0.10693192E+03 0.80419002E+02 0.0000E+00 0.9000E+01
#aMCatNLO 1  0  0  1  2 0.72742346D+02 0.00000000D+00  -5  7  0 0.00000000D+00 0.00000000D+00 0.00000000D+00 0.00000000D+00 0.00000000D+00
  <mgrwgt>
 0.4480776969D-04    7    2    0
 0.404208013369528D+03 0.000000000000000D+00 0.000000000000000D+00 0.404208013369528D+03
 0.404208013369528D+03 0.000000000000000D+00 0.000000000000000D+00 -.404208013369528D+03
 0.280695939705793D+03 0.260932220765935D+03 -.322787757391943D+02 -.565283240144578D+02
 0.353764712472691D+02 -.543147084985625D+01 0.281579908486215D+02 0.207152454410988D+02
 0.318590977137022D+03 -.256894983254983D+03 0.711365635815258D+02 0.174484290448614D+03
 0.173752638648973D+03 0.139423333890366D+01 -.670157786909531D+02 -.138671211875255D+03
 0.000000000000000D+00 0.000000000000000D+00 0.000000000000000D+00 0.000000000000000D+00
 0.108545339352104D+04 0.000000000000000D+00 0.000000000000000D+00 0.108545339352104D+04
 0.407787572989483D+03 0.000000000000000D+00 0.000000000000000D+00 -.407787572989483D+03
 0.258687073802135D+03 0.236803386967629D+03 -.343582697864222D+02 -.565283240144578D+02
 0.357887690394358D+02 -.861498648177592D+01 0.278836260839929D+02 0.207152454410988D+02
 0.342358898911336D+03 -.286462005776628D+03 0.685883903941283D+02 0.174484290448614D+03
 0.174847413506277D+03 -.142000892665324D+02 -.683597433972304D+02 -.138671211875255D+03
 0.681558811251342D+03 0.724736945573073D+02 0.624599670553139D+01 0.677665820531559D+03
0.239225129569D-04 0.000000000000D+00 0.000000000000D+00 0.201496625679D-05 0.000000000000D+00  7 3 -3 24 -13 13 -24 21 0 0.15094999D+00 0.25618283D-01 0.11386429D+06 0.11386429D+06 0.11386429D+06 0.11171240D+01  1  2  2  1  7  1        3 0.446594636352D-04 0.100000000000D+01
-.127635370876D-05 0.000000000000D+00 -.918687486970D-07 0.201496625679D-05 0.000000000000D+00  7 3 -3 24 -13 13 -24 21 2 0.15094999D+00 0.25618283D-01 0.11386429D+06 0.11386429D+06 0.11386429D+06 0.11171240D+01  1  2  3  1  7  1        3 -.297358584354D-05 0.100000000000D+01
0.153517894561D-05 0.000000000000D+00 0.000000000000D+00 0.201496625679D-05 0.000000000000D+00  7 3 -3 24 -13 13 -24 21 2 0.15094999D+00 0.25618283D-01 0.11386429D+06 0.11386429D+06 0.11386429D+06 0.11171240D+01  1  2 15  1  7  1        3 0.357658409940D-05 0.100000000000D+01
0.449462554514D-03 0.000000000000D+00 0.000000000000D+00 0.201496625679D-05 0.000000000000D+00  7 3 -3 24 -13 13 -24 21 2 0.40470112D+00 0.25618283D-01 0.14266442D+06 0.14266442D+06 0.14266442D+06 0.11092744D+01  1  2 12  1  7  1        3 0.100746193232D-04 0.100000000000D+01
-.449517481167D-03 0.000000000000D+00 -.695587500354D-05 0.201496625679D-05 0.000000000000D+00  7 3 -3 24 -13 13 -24 21 2 0.40595476D+00 0.25618283D-01 0.11386429D+06 0.11386429D+06 0.11386429D+06 0.11171240D+01  1  2  5  1  7  1        3 -.101737614947D-04 0.100000000000D+01
0.493803006282D-04 0.000000000000D+00 0.000000000000D+00 0.201496625679D-05 0.000000000000D+00  7 21 -3 24 -13 13 -24 -3 2 0.40470112D+00 0.25618283D-01 0.14266442D+06 0.14266442D+06 0.14266442D+06 0.11092744D+01  1  2 12  3  7  1        3 0.249288172231D-04 0.100000000000D+01
-.491624724017D-04 0.000000000000D+00 -.767035830397D-06 0.201496625679D-05 0.000000000000D+00  7 21 -3 24 -13 13 -24 -3 2 0.40595476D+00 0.25618283D-01 0.11386429D+06 0.11386429D+06 0.11386429D+06 0.11171240D+01  1  2  5  3  7  1        3 -.252843672557D-04 0.100000000000D+01
  </mgrwgt>
  </event>
  <event>
  8     66 0.27727860E-05 0.17492029E+03 0.75467711E-02 0.90618554E-01
        1 -1    0    0  501    0 0.00000000E+00 0.00000000E+00 0.17597178E+04 0.17597178E+04 0.32000000E+00 0.0000E+00 0.9000E+01
       -1 -1    0    0    0  501 0.00000000E+00 0.00000000E+00 -.10344681E+03 0.10344730E+03 0.32000000E+00 0.0000E+00 0.9000E+01
       25  2    1    2    0    0 -.90271541E+02 -.56883338E+02 0.15317954E+03 0.35361242E+03 0.30032167E+03 0.0000E+00 0.0000E+00
       23  2    1    2    0    0 0.90271541E+02 0.56883338E+02 0.15030914E+04 0.15095527E+04 0.89893397E+02 0.0000E+00 0.0000E+00
       24  1    3    3    0    0 0.63680066E+01 -.26187826E+01 -.59770712E+02 0.10043487E+03 0.80419002E+02 0.0000E+00 0.9000E+01
      -11  1    4    4    0    0 0.50606017E+02 -.12630420E+02 0.84576668E+03 0.84737345E+03 0.51099893E-03 0.0000E+00 0.9000E+01
       11  1    4    4    0    0 0.39665524E+02 0.69513757E+02 0.65732475E+03 0.66217924E+03 0.51099893E-03 0.0000E+00 0.9000E+01
      -24  1    3    3    0    0 -.96639548E+02 -.54264555E+02 0.21295025E+03 0.25317755E+03 0.80419002E+02 0.0000E+00 0.9000E+01
#aMCatNLO 1  0  0  2  2 0.68975359D+03 0.00000000D+00  -5  7  0 0.00000000D+00 0.00000000D+00 0.00000000D+00 0.00000000D+00 0.00000000D+00
  <mgrwgt>
 0.9069774790D-03    5    2    0
 0.426658735684385D+03 0.000000000000000D+00 0.000000000000000D+00 0.426658735684385D+03
 0.426658735684385D+03 0.000000000000000D+00 0.000000000000000D+00 -.426658735684385D+03
 0.335306909770389D+03 0.636800658352698D+01 -.261878257568730D+01 -.325447535334608D+03
 0.208571680673403D+03 0.506060170076260D+02 -.126304195724298D+02 0.201944669459177D+03
 0.169973494713503D+03 0.396655242870909D+02 0.695137574474779D+02 0.149951567559945D+03
 0.139465386211474D+03 -.966395478782438D+02 -.542645552993608D+02 -.264487016845139D+02
 0.000000000000000D+00 0.000000000000000D+00 -.000000000000000D+00 -.000000000000000D+00
 0.805099461080427D+03 0.000000000000000D+00 0.000000000000000D+00 0.805099461080427D+03
 0.101234492116231D+04 0.000000000000000D+00 0.000000000000000D+00 -.101234492116231D+04
 0.425585989505924D+03 -.244402762981229D+03 0.949073743243172D+02 -.325447535334608D+03
 0.226364806730154D+03 -.927378856122012D+02 0.431168270537376D+02 0.201944669459177D+03
 0.209042714460694D+03 -.852484899487212D+02 0.118093517251682D+03 0.149951567559945D+03
 0.236235143927238D+03 -.220460799408360D+03 -.610977703218030D+01 -.264487016845139D+02
 0.720215727618729D+03 0.642849937950511D+03 -.250007941597556D+03 -.207245460081885D+03
0.415875725789D-04 0.000000000000D+00 0.000000000000D+00 0.171934727360D-05 0.000000000000D+00  7 1 -1 24 -11 11 -24 21 0 0.27072585D+00 0.15914934D-01 0.30597109D+05 0.30597109D+05 0.30597109D+05 0.11665426D+01  1  2  2  2  7  2       -1 0.671122612156D-03 0.100000000000D+01
-.770266137123D-07 0.000000000000D+00 -.159707228962D-06 0.171934727360D-05 0.000000000000D+00  7 1 -1 24 -11 11 -24 21 2 0.27072585D+00 0.15914934D-01 0.30597109D+05 0.30597109D+05 0.30597109D+05 0.11665426D+01  1  2  3  2  7  2       -1 -.169153242116D-05 0.100000000000D+01
0.251133592187D-05 0.000000000000D+00 0.000000000000D+00 0.171934727360D-05 0.000000000000D+00  7 1 -1 24 -11 11 -24 21 2 0.27072585D+00 0.15914934D-01 0.30597109D+05 0.30597109D+05 0.30597109D+05 0.11665426D+01  1  2 15  2  7  2       -1 0.551498492213D-04 0.100000000000D+01
0.549616828607D-04 0.000000000000D+00 -.177214770210D-04 0.171934727360D-05 0.000000000000D+00  7 1 -1 24 -11 11 -24 21 2 0.27072585D+00 0.82453601D-01 0.30597109D+05 0.30597109D+05 0.30597109D+05 0.11665426D+01  1  2  5  2  7  2       -1 0.723777299752D-04 0.100000000000D+01
0.104155835087D-04 0.000000000000D+00 -.355958641060D-05 0.171934727360D-05 0.000000000000D+00  7 1 21 24 -11 11 -24 1 2 0.27072585D+00 0.82453601D-01 0.30597109D+05 0.30597109D+05 0.30597109D+05 0.11665426D+01  1  2  5  4  7  2       -1 0.110018820109D-03 0.100000000000D+01
  </mgrwgt>
  </event>
  <event>
  8     66 0.27727860E-05 0.12960835E+03 0.75467711E-02 0.10145874E+00
        1 -1    0    0  501    0 0.00000000E+00 0.00000000E+00 0.13513328E+04 0.13513328E+04 0.32000000E+00 0.0000E+00 0.9000E+01
       -1 -1    0    0    0  501 0.00000000E+00 0.00000000E+00 -.66159505E+02 0.66160279E+02 0.32000000E+00 0.0000E+00 0.9000E+01
       25  2    1    2    0    0 -.45136518E+02 0.13724497E+03 0.11559774E+04 0.12027692E+04 0.29915962E+03 0.0000E+00 0.0000E+00
       23  2    1    2    0    0 0.45136518E+02 -.13724497E+03 0.12919586E+03 0.21472389E+03 0.92419117E+02 0.0000E+00 0.0000E+00
       24  1    3    3    0    0 0.48080440E+01 0.19630754E+03 0.87698932E+03 0.90229554E+03 0.80419002E+02 0.0000E+00 0.9000E+01
      -11  1    4    4    0    0 0.17550591E+02 -.94365866E+00 -.80560285E+01 0.19334253E+02 0.51099893E-03 0.0000E+00 0.9000E+01
       11  1    4    4    0    0 0.27585928E+02 -.13630131E+03 0.13725189E+03 0.19538964E+03 0.51099893E-03 0.0000E+00 0.9000E+01
      -24  1    3    3    0    0 -.49944562E+02 -.59062563E+02 0.27898811E+03 0.30047367E+03 0.80419002E+02 0.0000E+00 0.9000E+01
#aMCatNLO 1  0  0  2  1 0.87763398D+02 0.00000000D+00  -5  7  0 0.00000000D+00 0.00000000D+00 0.00000000D+00 0.00000000D+00 0.00000000D+00
  <mgrwgt>
 0.6798716543D-03    9    2    0
 0.299005156849796D+03 0.000000000000000D+00 0.000000000000000D+00 0.299005156849796D+03
 0.299005156849796D+03 0.000000000000000D+00 0.000000000000000D+00 -.299005156849796D+03
 0.254033191426501D+03 0.480804397486560D+01 0.196307535436812D+03 0.139663454904363D+03
 0.631419922956544D+02 0.175505909129331D+02 -.943658677620618D+00 -.606464958424764D+02
 0.168176049598578D+03 0.275859275182024D+02 -.136301314068106D+03 -.945735271883804D+02
 0.112659080378859D+03 -.499445624060010D+02 -.590625626910860D+02 0.155565681264937D+02
 0.000000000000000D+00 0.000000000000000D+00 0.000000000000000D+00 -.000000000000000D+00
 0.328052019076349D+03 0.000000000000000D+00 0.000000000000000D+00 0.328052019076349D+03
 0.376716749043406D+03 0.000000000000000D+00 0.000000000000000D+00 -.376716749043406D+03
 0.234166896329509D+03 -.179985841898569D+02 0.168929244696003D+03 0.139663454904363D+03
 0.622762000459961D+02 0.116915873003463D+02 -.797711856473257D+01 -.606464958424764D+02
 0.182755758426533D+03 0.111918885625959D+02 -.155981591297206D+03 -.945735271883804D+02
 0.125217185183853D+03 -.610571280813536D+02 -.724026781934182D+02 0.155565681264937D+02
 0.100352728133864D+03 0.561722364082683D+02 0.674321433593534D+02 -.486647299670567D+02
0.965898675989D-05 0.000000000000D+00 0.000000000000D+00 0.273043313760D-06 0.000000000000D+00  7 1 -1 24 -11 11 -24 21 0 0.20789742D+00 0.10178448D-01 0.57699944D+05 0.57699944D+05 0.57699944D+05 0.11418637D+01  1  2  2  2  7  2       -1 0.564600439013D-03 0.100000000000D+01
-.505331537924D-06 0.000000000000D+00 -.370930524276D-07 0.273043313760D-06 0.000000000000D+00  7 1 -1 24 -11 11 -24 21 2 0.20789742D+00 0.10178448D-01 0.57699944D+05 0.57699944D+05 0.57699944D+05 0.11418637D+01  1  2  3  2  7  2       -1 -.385136409563D-04 0.100000000000D+01
0.634108354625D-06 0.000000000000D+00 0.000000000000D+00 0.273043313760D-06 0.000000000000D+00  7 1 -1 24 -11 11 -24 21 2 0.20789742D+00 0.10178448D-01 0.57699944D+05 0.57699944D+05 0.57699944D+05 0.11418637D+01  1  2 15  2  7  2       -1 0.483283145116D-04 0.100000000000D+01
0.764626619023D-05 0.000000000000D+00 0.000000000000D+00 0.273043313760D-06 0.000000000000D+00  7 1 -1 24 -11 11 -24 21 2 0.20789742D+00 0.13219826D-01 0.81368961D+05 0.81368961D+05 0.81368961D+05 0.11291448D+01  1  2 12  2  7  2       -1 0.378959364771D-03 0.100000000000D+01
-.874942169781D-05 0.000000000000D+00 0.000000000000D+00 0.273043313760D-06 0.000000000000D+00  7 1 -1 24 -11 11 -24 21 2 0.20789742D+00 0.10178448D-01 0.57699944D+05 0.57699944D+05 0.57699944D+05 0.11418637D+01  1  2  4  2  7  2       -1 -.666833673650D-03 0.100000000000D+01
-.131697318136D-04 0.000000000000D+00 -.470107109281D-05 0.273043313760D-06 0.000000000000D+00  7 1 -1 24 -11 11 -24 21 2 0.20789742D+00 0.14111800D-01 0.57699944D+05 0.57699944D+05 0.57699944D+05 0.11418637D+01  1  2  5  2  7  2       -1 -.606946894623D-03 0.100000000000D+01
0.141822028000D-04 0.000000000000D+00 0.446082992723D-05 0.273043313760D-06 0.000000000000D+00  7 1 -1 24 -11 11 -24 21 2 0.20789742D+00 0.10178448D-01 0.57699944D+05 0.57699944D+05 0.57699944D+05 0.11418637D+01  1  2  6  2  7  2       -1 0.108089091144D-02 0.100000000000D+01
0.267433598654D-06 0.000000000000D+00 0.000000000000D+00 0.273043313760D-06 0.000000000000D+00  7 1 21 24 -11 11 -24 1 2 0.20789742D+00 0.13219826D-01 0.81368961D+05 0.81368961D+05 0.81368961D+05 0.11291448D+01  1  2 12  4  7  2       -1 0.176664836963D-03 0.100000000000D+01
-.421323261562D-06 0.000000000000D+00 -.193260580291D-06 0.273043313760D-06 0.000000000000D+00  7 1 21 24 -11 11 -24 1 2 0.20789742D+00 0.14111800D-01 0.57699944D+05 0.57699944D+05 0.57699944D+05 0.11418637D+01  1  2  5  4  7  2       -1 -.257278003127D-03 0.100000000000D+01
  </mgrwgt>
  </event>
  <event>
  9     66 0.27727860E-05 0.37621601E+03 0.75467711E-02 0.92203160E-01
        1 -1    0    0  501    0 0.00000000E+00 0.00000000E+00 0.11332674E+04 0.11332674E+04 0.32000000E+00 0.0000E+00 0.9000E+01
       21 -1    0    0  502  501 0.00000000E+00 0.00000000E+00 -.41668647E+03 0.41668714E+03 0.75000000E+00 0.0000E+00 0.9000E+01
       25  2    1    2    0    0 -.12655361E+03 0.34759670E+02 0.78564915E+02 0.33714573E+03 0.30045091E+03 0.0000E+00 0.0000E+00
       23  2    1    2    0    0 0.52663648E+03 -.65994374E+02 0.60499362E+03 0.81015205E+03 0.92886118E+02 0.0000E+00 0.0000E+00
       24  1    3    3    0    0 -.15597065E+03 0.10201923E+03 0.18593660E+00 0.20298280E+03 0.80419002E+02 0.0000E+00 0.9000E+01
      -11  1    4    4    0    0 0.16277926E+03 -.37893335E+02 0.25228905E+03 0.30262643E+03 0.51099893E-03 0.0000E+00 0.9000E+01
       11  1    4    4    0    0 0.36385722E+03 -.28101039E+02 0.35270457E+03 0.50752562E+03 0.51099893E-03 0.0000E+00 0.9000E+01
      -24  1    3    3    0    0 0.29417039E+02 -.67259564E+02 0.78378978E+02 0.13416293E+03 0.80419002E+02 0.0000E+00 0.9000E+01
        1  1    1    2  502    0 -.40008287E+03 0.31234704E+02 0.33022388E+02 0.40265679E+03 0.32000000E+00 0.0000E+00 0.9000E+01
#aMCatNLO 2  0  0  2  2 0.40130028D+03 0.00000000D+00  -5  7  0 0.00000000D+00 0.00000000D+00 0.00000000D+00 0.00000000D+00 0.00000000D+00
  <mgrwgt>
 0.8316539569D-04    1    2    0
 0.414728232234166D+03 0.000000000000000D+00 0.000000000000000D+00 0.414728232234166D+03
 0.414728232234166D+03 0.000000000000000D+00 0.000000000000000D+00 -.414728232234166D+03
 0.359684153577415D+03 -.295879266465895D+03 0.112941982033053D+03 -.150349734786531D+03
 0.130735637934819D+03 0.895707178783204D+02 -.321779008699935D+02 0.896296614999042D+02
 0.234777885879338D+03 0.225599851945227D+03 -.173072058599319D+02 0.626563893436666D+02
 0.104258787076759D+03 -.192913033576516D+02 -.634568753031280D+02 -.193631605703963D+01
 0.000000000000000D+00 -.000000000000000D+00 0.000000000000000D+00 -.000000000000000D+00
 0.570351107115809D+03 0.000000000000000D+00 0.000000000000000D+00 0.570351107115809D+03
 0.827942044985202D+03 0.000000000000000D+00 0.000000000000000D+00 -.827942044985202D+03
 0.252600526768840D+03 -.155970648675020D+03 0.102019234319015D+03 -.150349734786531D+03
 0.189648278875071D+03 0.162779263514232D+03 -.378933348948509D+02 0.896296614999042D+02
 0.370280388726132D+03 0.363857217514312D+03 -.281010393461291D+02 0.626563893436666D+02
 0.108904437238812D+03 0.294170394037126D+02 -.672595641435434D+02 -.193631605703963D+01
 0.476859520492158D+03 -.400082871757236D+03 0.312347040655085D+02 -.257590937869393D+03
0.243003407102D-05 0.000000000000D+00 0.000000000000D+00 0.923522358516D-06 0.706130920184D-11  7 1 21 24 -11 11 -24 1 2 0.17434887D+00 0.64105660D-01 0.38765729D+06 0.38765729D+06 0.38765729D+06 0.10764103D+01  1  2  1  4  7  2       -1 0.831653956904D-04 0.100000000000D+01
  </mgrwgt>
  </event>
  <event>
  8     66 0.27727860E-05 0.94168585E+02 0.75467711E-02 0.11137847E+00
        1 -1    0    0  501    0 0.00000000E+00 0.00000000E+00 0.56768770E+03 0.56768779E+03 0.32000000E+00 0.0000E+00 0.9000E+01
       -1 -1    0    0    0  501 0.00000000E+00 0.00000000E+00 -.82152755E+02 0.82153378E+02 0.32000000E+00 0.0000E+00 0.9000E+01
       25  2    1    2    0    0 -.15512732E+02 0.23356498E+02 0.23460581E+03 0.38196577E+03 0.30011964E+03 0.0000E+00 0.0000E+00
       23  2    1    2    0    0 0.15512732E+02 -.23356498E+02 0.25092914E+03 0.26787540E+03 0.89474158E+02 0.0000E+00 0.0000E+00
       24  1    3    3    0    0 0.54434931E+02 0.85445079E+00 0.25344738E+03 0.27141606E+03 0.80419002E+02 0.0000E+00 0.9000E+01
      -11  1    4    4    0    0 0.17541507E+02 0.69976088E+00 0.18765469E+01 0.17655468E+02 0.51099893E-03 0.0000E+00 0.9000E+01
       11  1    4    4    0    0 -.20287750E+01 -.24056259E+02 0.24905259E+03 0.25021993E+03 0.51099893E-03 0.0000E+00 0.9000E+01
      -24  1    3    3    0    0 -.69947663E+02 0.22502047E+02 -.18841567E+02 0.11054971E+03 0.80419002E+02 0.0000E+00 0.9000E+01
#aMCatNLO 1  0  0  2  1 0.41402381D+02 0.00000000D+00  -5  7  0 0.00000000D+00 0.00000000D+00 0.00000000D+00 0.00000000D+00 0.00000000D+00
  <mgrwgt>
 0.5308633271D-03    9    2    0
 0.215956802914973D+03 0.000000000000000D+00 0.000000000000000D+00 0.215956802914973D+03
 0.215956802914973D+03 0.000000000000000D+00 0.000000000000000D+00 -.215956802914973D+03
 0.123450092914826D+03 0.544349310366711D+02 0.854450831278973D+00 0.762155999984159D+02
 0.244542440755262D+02 0.175415064684006D+02 0.699760825377387D+00 -.170239812885158D+02
 0.964995653536248D+02 -.202877488169835D+01 -.240562586149931D+02 0.934309724201052D+02
 0.187509703485968D+03 -.699476626233733D+02 0.225020469583367D+02 -.152622591130005D+03
 0.000000000000000D+00 -.000000000000000D+00 -.000000000000000D+00 -.000000000000000D+00
 0.224526723823312D+03 0.000000000000000D+00 0.000000000000000D+00 0.224526723823312D+03
 0.273482229856859D+03 0.000000000000000D+00 0.000000000000000D+00 -.273482229856859D+03
 0.124236465580897D+03 0.547495710108537D+02 0.126944955264770D+02 0.762155999984159D+02
 0.246780618723304D+02 0.176039199783175D+02 0.304840946393809D+01 -.170239812885158D+02
 0.946315695926303D+02 -.178597811577682D+01 -.149197063767469D+02 0.934309724201052D+02
 0.190347346116198D+03 -.694676651093636D+02 0.405645707499237D+02 -.152622591130005D+03
 0.641155105181155D+02 -.109984776403085D+01 -.413877693635919D+02 -.489555060335471D+02
0.317781455352D-05 0.000000000000D+00 0.000000000000D+00 0.393652388171D-06 0.000000000000D+00  7 1 -1 24 -11 11 -24 21 0 0.87336625D-01 0.12638940D-01 0.15344179D+05 0.15344179D+05 0.15344179D+05 0.11953563D+01  1  2  2  2  7  2       -1 0.554583468305D-03 0.100000000000D+01
-.110228129742D-06 0.000000000000D+00 -.122036446233D-07 0.393652388171D-06 0.000000000000D+00  7 1 -1 24 -11 11 -24 21 2 0.87336625D-01 0.12638940D-01 0.15344179D+05 0.15344179D+05 0.15344179D+05 0.11953563D+01  1  2  3  2  7  2       -1 -.274868862668D-04 0.100000000000D+01
0.193714436766D-06 0.000000000000D+00 0.000000000000D+00 0.393652388171D-06 0.000000000000D+00  7 1 -1 24 -11 11 -24 21 2 0.87336625D-01 0.12638940D-01 0.15344179D+05 0.15344179D+05 0.15344179D+05 0.11953563D+01  1  2 15  2  7  2       -1 0.483053346191D-04 0.100000000000D+01
0.591937231035D-05 0.000000000000D+00 0.000000000000D+00 0.393652388171D-06 0.000000000000D+00  7 1 -1 24 -11 11 -24 21 2 0.87336625D-01 0.16208712D-01 0.20470946D+05 0.20470946D+05 0.20470946D+05 0.11830567D+01  1  2 12  2  7  2       -1 0.989822060226D-03 0.100000000000D+01
-.667112585926D-05 0.000000000000D+00 0.000000000000D+00 0.393652388171D-06 0.000000000000D+00  7 1 -1 24 -11 11 -24 21 2 0.87336625D-01 0.12638940D-01 0.15344179D+05 0.15344179D+05 0.15344179D+05 0.11953563D+01  1  2  4  2  7  2       -1 -.166353614267D-02 0.100000000000D+01
-.769444173365D-05 0.000000000000D+00 -.177997542652D-05 0.393652388171D-06 0.000000000000D+00  7 1 -1 24 -11 11 -24 21 2 0.87336625D-01 0.16580953D-01 0.15344179D+05 0.15344179D+05 0.15344179D+05 0.11953563D+01  1  2  5  2  7  2       -1 -.126632596056D-02 0.100000000000D+01
0.794666364678D-05 0.000000000000D+00 0.171634138544D-05 0.393652388171D-06 0.000000000000D+00  7 1 -1 24 -11 11 -24 21 2 0.87336625D-01 0.12638940D-01 0.15344179D+05 0.15344179D+05 0.15344179D+05 0.11953563D+01  1  2  6  2  7  2       -1 0.198160887217D-02 0.100000000000D+01
0.199600681981D-06 0.000000000000D+00 0.000000000000D+00 0.393652388171D-06 0.000000000000D+00  7 1 21 24 -11 11 -24 1 2 0.87336625D-01 0.16208712D-01 0.20470946D+05 0.20470946D+05 0.20470946D+05 0.11830567D+01  1  2 12  4  7  2       -1 0.438912122442D-03 0.100000000000D+01
-.242535543651D-06 0.000000000000D+00 -.639928283911D-07 0.393652388171D-06 0.000000000000D+00  7 1 21 24 -11 11 -24 1 2 0.87336625D-01 0.16580953D-01 0.15344179D+05 0.15344179D+05 0.15344179D+05 0.11953563D+01  1  2  5  4  7  2       -1 -.525019541174D-03 0.100000000000D+01
  </mgrwgt>
  </event>
  <event>
  8     66 0.27727860E-05 0.11503843E+03 0.75467711E-02 0.10394375E+00
        3 -1    0    0  501    0 0.00000000E+00 0.00000000E+00 0.83476854E+03 0.83476869E+03 0.50000000E+00 0.0000E+00 0.9000E+01
       -3 -1    0    0    0  501 0.00000000E+00 0.00000000E+00 -.51449403E+02 0.51451833E+02 0.50000000E+00 0.0000E+00 0.9000E+01
       25  2    1    2    0    0 0.10736647E+02 -.20123961E+02 0.69711589E+03 0.75912494E+03 0.29963288E+03 0.0000E+00 0.0000E+00
       23  2    1    2    0    0 -.10736647E+02 0.20123961E+02 0.86203248E+02 0.12709558E+03 0.90565103E+02 0.0000E+00 0.0000E+00
       24  1    3    3    0    0 0.98844927E+02 -.93557545E+02 0.32214260E+03 0.35884036E+03 0.80419002E+02 0.0000E+00 0.9000E+01
      -11  1    4    4    0    0 -.23938939E+02 0.15323556E+02 -.98035321E+01 0.30066483E+02 0.51099893E-03 0.0000E+00 0.9000E+01
       11  1    4    4    0    0 0.13202292E+02 0.48004050E+01 0.96006781E+02 0.97029100E+02 0.51099893E-03 0.0000E+00 0.9000E+01
      -24  1    3    3    0    0 -.88108279E+02 0.73433584E+02 0.37497329E+03 0.40028458E+03 0.80419002E+02 0.0000E+00 0.9000E+01
#aMCatNLO 1  0  0  2  1 0.10686831D+03 0.00000000D+00  -5  7  0 0.00000000D+00 0.00000000D+00 0.00000000D+00 0.00000000D+00 0.00000000D+00
  <mgrwgt>
 0.1918643888D-03    9    2    0
 0.207242577883220D+03 0.000000000000000D+00 0.000000000000000D+00 0.207242577883220D+03
 0.207242577883220D+03 0.000000000000000D+00 0.000000000000000D+00 -.207242577883220D+03
 0.158440483773280D+03 0.988449269030211D+02 -.935575451795373D+02 0.106224813229162D+02
 0.828131685182697D+02 -.239389393731399D+02 0.153235558367172D+02 -.777826246551470D+02
 0.260207906330748D+02 0.132022918226222D+02 0.480040505153501D+01 0.219029027104133D+02
 0.147210712841816D+03 -.881082793525035D+02 0.734335842912850D+02 0.452572406218174D+02
 0.000000000000000D+00 0.000000000000000D+00 -.000000000000000D+00 -.000000000000000D+00
 0.250384676103961D+03 0.000000000000000D+00 0.000000000000000D+00 0.250384676103961D+03
 0.292537002380789D+03 0.000000000000000D+00 0.000000000000000D+00 -.292537002380789D+03
 0.131662991405805D+03 0.849517430726003D+02 -.594835405051335D+02 0.106224813229162D+02
 0.915104154326207D+02 -.322873729667480D+02 0.357986728987747D+02 -.777826246551470D+02
 0.267326786966365D+02 0.106759048269555D+02 0.109965457886357D+02 0.219029027104133D+02
 0.178134544566555D+03 -.103689207732420D+03 0.111646900470571D+03 0.452572406218174D+02
 0.114881048383132D+03 0.403489327996117D+02 -.989585786528476D+02 -.421523262768280D+02
0.884615667336D-05 0.000000000000D+00 0.000000000000D+00 0.537424304290D-06 0.000000000000D+00  7 3 -3 24 -11 11 -24 21 0 0.12842613D+00 0.79154912D-02 0.29008315D+05 0.29008315D+05 0.29008315D+05 0.11686928D+01  1  2  2  2  7  2       -3 0.186537713751D-03 0.100000000000D+01
-.468446414859D-06 0.000000000000D+00 -.339715708722D-07 0.537424304290D-06 0.000000000000D+00  7 3 -3 24 -11 11 -24 21 2 0.12842613D+00 0.79154912D-02 0.29008315D+05 0.29008315D+05 0.29008315D+05 0.11686928D+01  1  2  3  2  7  2       -3 -.134918874298D-04 0.100000000000D+01
0.544105155865D-06 0.000000000000D+00 0.000000000000D+00 0.537424304290D-06 0.000000000000D+00  7 3 -3 24 -11 11 -24 21 2 0.12842613D+00 0.79154912D-02 0.29008315D+05 0.29008315D+05 0.29008315D+05 0.11686928D+01  1  2 15  2  7  2       -3 0.156709610321D-04 0.100000000000D+01
0.153633526638D-05 0.000000000000D+00 0.000000000000D+00 0.537424304290D-06 0.000000000000D+00  7 3 -3 24 -11 11 -24 21 2 0.12842613D+00 0.11724046D-01 0.56151505D+05 0.56151505D+05 0.56151505D+05 0.11428892D+01  1  2 12  2  7  2       -3 0.227223694756D-04 0.100000000000D+01
-.432651522231D-05 0.000000000000D+00 0.000000000000D+00 0.537424304290D-06 0.000000000000D+00  7 3 -3 24 -11 11 -24 21 2 0.12842613D+00 0.79154912D-02 0.29008315D+05 0.29008315D+05 0.29008315D+05 0.11686928D+01  1  2  4  2  7  2       -3 -.124609463305D-03 0.100000000000D+01
-.454805089453D-05 0.000000000000D+00 -.315950938904D-05 0.537424304290D-06 0.000000000000D+00  7 3 -3 24 -11 11 -24 21 2 0.12842613D+00 0.13509927D-01 0.29008315D+05 0.29008315D+05 0.29008315D+05 0.11686928D+01  1  2  5  2  7  2       -3 -.552056630605D-04 0.100000000000D+01
0.579277098065D-05 0.000000000000D+00 0.275618050712D-05 0.537424304290D-06 0.000000000000D+00  7 3 -3 24 -11 11 -24 21 2 0.12842613D+00 0.79154912D-02 0.29008315D+05 0.29008315D+05 0.29008315D+05 0.11686928D+01  1  2  6  2  7  2       -3 0.166839603204D-03 0.100000000000D+01
0.721651813019D-07 0.000000000000D+00 0.000000000000D+00 0.537424304290D-06 0.000000000000D+00  7 3 21 24 -11 11 -24 3 2 0.12842613D+00 0.11724046D-01 0.56151505D+05 0.56151505D+05 0.56151505D+05 0.11428892D+01  1  2 12  4  7  2       -3 0.189725673756D-04 0.100000000000D+01
-.117410390422D-06 0.000000000000D+00 -.188014196929D-06 0.537424304290D-06 0.000000000000D+00  7 3 21 24 -11 11 -24 3 2 0.12842613D+00 0.13509927D-01 0.29008315D+05 0.29008315D+05 0.29008315D+05 0.11686928D+01  1  2  5  4  7  2       -3 -.255718122840D-04 0.100000000000D+01
  </mgrwgt>
  </event>
  <event>
  8     66 0.27727860E-05 0.26677923E+03 0.75467711E-02 0.10212955E+00
        1 -1    0    0  501    0 0.00000000E+00 0.00000000E+00 0.61922533E+03 0.61922542E+03 0.32000000E+00 0.0000E+00 0.9000E+01
       -1 -1    0    0    0  501 0.00000000E+00 0.00000000E+00 -.12815933E+03 0.12815973E+03 0.32000000E+00 0.0000E+00 0.9000E+01
       25  2    1    2    0    0 0.12519723E+03 0.13462998E+03 0.25840714E+03 0.43652605E+03 0.29996860E+03 0.0000E+00 0.0000E+00
       23  2    1    2    0    0 -.12519723E+03 -.13462998E+03 0.23265887E+03 0.31085910E+03 0.93293372E+02 0.0000E+00 0.0000E+00
       24  1    3    3    0    0 -.36982825E+02 -.23654840E+02 0.14291895E+03 0.16976550E+03 0.80419002E+02 0.0000E+00 0.9000E+01
      -13  1    4    4    0    0 -.49910014E+01 -.59519056E+02 0.40855722E+02 0.72364559E+02 0.10565837E+00 0.0000E+00 0.9000E+01
       13  1    4    4    0    0 -.12020623E+03 -.75110924E+02 0.19180314E+03 0.23849454E+03 0.10565837E+00 0.0000E+00 0.9000E+01
      -24  1    3    3    0    0 0.16218006E+03 0.15828482E+03 0.11548818E+03 0.26676055E+03 0.80419002E+02 0.0000E+00 0.9000E+01
#aMCatNLO 1  0  0  2  1 0.85110169D+01 0.00000000D+00  -5  7  0 0.00000000D+00 0.00000000D+00 0.00000000D+00 0.00000000D+00 0.00000000D+00
  <mgrwgt>
 0.3108143468D-03    8    2    0
 0.281708509130308D+03 0.000000000000000D+00 0.000000000000000D+00 0.281708509130308D+03
 0.281708509130308D+03 0.000000000000000D+00 0.000000000000000D+00 -.281708509130308D+03
 0.100631626473014D+03 -.369828239847929D+02 -.236548391768271D+02 0.416200385134612D+02
 0.603838264548432D+02 -.499085627890134D+01 -.595190355631921D+02 -.887593693980803D+01
 0.149195595543960D+03 -.120206376136251D+03 -.751109464681252D+02 0.465628455591928D+02
 0.253205969788799D+03 0.162180056399946D+03 0.158284821208144D+03 -.793069471328460D+02
 0.000000000000000D+00 0.000000000000000D+00 0.000000000000000D+00 0.000000000000000D+00
 0.301848753203187D+03 0.000000000000000D+00 0.000000000000000D+00 0.301848753203187D+03
 0.282641248982171D+03 0.000000000000000D+00 0.000000000000000D+00 -.282641248982171D+03
 0.101237280543756D+03 -.384984392124067D+02 -.238204447874342D+02 0.416200385134612D+02
 0.605633217100534D+02 -.589891756582335D+01 -.596182560257141D+02 -.887593693980803D+01
 0.151140962907935D+03 -.122461278429654D+03 -.753573312129830D+02 0.465628455591928D+02
 0.250539733439692D+03 0.158397974899922D+03 0.157871567299919D+03 -.793069471328460D+02
 0.210087035839222D+02 0.846066030796252D+01 0.924464726212146D+00 0.192075042210164D+02
0.507225318313D-05 0.000000000000D+00 0.000000000000D+00 0.299314589177D-06 0.000000000000D+00  7 1 -1 24 -13 13 -24 21 0 0.95265473D-01 0.19716857D-01 0.71171158D+05 0.71171158D+05 0.71171158D+05 0.11340475D+01  1  2  2  2  7  2       -1 0.394136362356D-03 0.100000000000D+01
-.280775996511D-06 0.000000000000D+00 -.194787877782D-07 0.299314589177D-06 0.000000000000D+00  7 1 -1 24 -13 13 -24 21 2 0.95265473D-01 0.19716857D-01 0.71171158D+05 0.71171158D+05 0.71171158D+05 0.11340475D+01  1  2  3  2  7  2       -1 -.280587349080D-04 0.100000000000D+01
0.321400211197D-06 0.000000000000D+00 0.000000000000D+00 0.299314589177D-06 0.000000000000D+00  7 1 -1 24 -13 13 -24 21 2 0.95265473D-01 0.19716857D-01 0.71171158D+05 0.71171158D+05 0.71171158D+05 0.11340475D+01  1  2 15  2  7  2       -1 0.321184269219D-04 0.100000000000D+01
-.875605373674D-06 0.000000000000D+00 0.000000000000D+00 0.299314589177D-06 0.000000000000D+00  7 1 -1 24 -13 13 -24 21 2 0.95265473D-01 0.19716857D-01 0.71171158D+05 0.71171158D+05 0.71171158D+05 0.11340475D+01  1  2  4  2  7  2       -1 -.875017073014D-04 0.100000000000D+01
0.651785661417D-08 0.000000000000D+00 0.000000000000D+00 0.299314589177D-06 0.000000000000D+00  7 1 -1 24 -13 13 -24 21 2 0.95265473D-01 0.21290946D-01 0.71171158D+05 0.71171158D+05 0.71171158D+05 0.11340475D+01  1  2  5  2  7  2       -1 0.576001685862D-06 0.100000000000D+01
-.649867783483D-08 0.000000000000D+00 0.000000000000D+00 0.299314589177D-06 0.000000000000D+00  7 1 -1 24 -13 13 -24 21 2 0.95265473D-01 0.19716857D-01 0.71171158D+05 0.71171158D+05 0.71171158D+05 0.11340475D+01  1  2  6  2  7  2       -1 -.649431151117D-06 0.100000000000D+01
0.124022063713D-08 0.000000000000D+00 0.000000000000D+00 0.299314589177D-06 0.283150286331D-07  7 1 -1 24 -13 13 -24 21 2 0.10207631D+00 0.19782140D-01 0.73482425D+05 0.73482425D+05 0.73482425D+05 0.11328715D+01  1  2 11  2  7  2       -1 0.111250644367D-06 0.100000000000D+01
0.749169310739D-10 0.000000000000D+00 0.000000000000D+00 0.299314589177D-06 0.177072147933D-10  7 1 21 24 -13 13 -24 1 2 0.10207631D+00 0.19782140D-01 0.73482425D+05 0.73482425D+05 0.73482425D+05 0.11328715D+01  1  2 11  4  7  2       -1 0.821785141153D-07 0.100000000000D+01
  </mgrwgt>
  </event>
  <event>
  8     66 0.27727860E-05 0.32576128E+03 0.75467711E-02 0.91081481E-01
        1 -1    0    0  501    0 0.00000000E+00 0.00000000E+00 0.84985550E+03 0.84985556E+03 0.32000000E+00 0.0000E+00 0.9000E+01
       -1 -1    0    0    0  501 0.00000000E+00 0.00000000E+00 -.44546335E+03 0.44546347E+03 0.32000000E+00 0.0000E+00 0.9000E+01
       25  2    1    2    0    0 -.19769470E+03 0.20753802E+03 -.31186779E+03 0.51855081E+03 0.29912906E+03 0.0000E+00 0.0000E+00
       23  2    1    2    0    0 0.19769470E+03 -.20753802E+03 0.71625994E+03 0.77676822E+03 0.90472904E+02 0.0000E+00 0.0000E+00
       24  1    3    3    0    0 -.20851758E+02 0.12743972E+03 -.12290830E+02 0.15262358E+03 0.80419002E+02 0.0000E+00 0.9000E+01
      -11  1    4    4    0    0 0.28092950E+02 -.52164146E+02 0.75476962E+02 0.95953550E+02 0.51099893E-03 0.0000E+00 0.9000E+01
       11  1    4    4    0    0 0.16960175E+03 -.15537388E+03 0.64078297E+03 0.68081467E+03 0.51099893E-03 0.0000E+00 0.9000E+01
      -24  1    3    3    0    0 -.17684294E+03 0.80098306E+02 -.29957696E+03 0.36592722E+03 0.80419002E+02 0.0000E+00 0.9000E+01
#aMCatNLO 1  0  0  2  2 0.55736504D+03 0.00000000D+00  -5  7  0 0.00000000D+00 0.00000000D+00 0.00000000D+00 0.00000000D+00 0.00000000D+00
  <mgrwgt>
 0.8007848722D-03    5    2    0
 0.615288218492143D+03 0.000000000000000D+00 0.000000000000000D+00 0.615288218492143D+03
 0.615288218492143D+03 0.000000000000000D+00 0.000000000000000D+00 -.615288218492143D+03
 0.164692364371796D+03 -.208517578508395D+02 0.127439715584383D+03 -.630926462775459D+02
 0.761985723572377D+02 0.280929502117308D+02 -.521641456545718D+02 0.479156601312244D+02
 0.506059251772605D+03 0.169601750786511D+03 -.155373876202913D+03 0.450766204399222D+03
 0.483626248482646D+03 -.176842943147402D+03 0.800983062731020D+02 -.435589218252900D+03
 0.000000000000000D+00 0.000000000000000D+00 0.000000000000000D+00 -.000000000000000D+00
 0.889032534760824D+03 0.000000000000000D+00 0.000000000000000D+00 0.889032534760824D+03
 0.103909666634071D+04 0.000000000000000D+00 0.000000000000000D+00 -.103909666634071D+04
 0.187905966071422D+03 -.969186071504014D+02 0.124368555931902D+03 -.630926462775459D+02
 0.718894824207914D+02 -.385442665674711D+01 -.534540044530438D+02 0.479156601312244D+02
 0.481631203546371D+03 -.434749842193652D+02 -.163976739046034D+03 0.450766204399222D+03
 0.609489390527026D+03 -.412663295657362D+03 0.705771816500707D+02 -.435589218252900D+03
 0.577213158535924D+03 0.556911313683876D+03 0.224850059171051D+02 -.150064131579886D+03
0.128938773799D-03 0.000000000000D+00 0.000000000000D+00 0.447671664381D-05 0.000000000000D+00  7 1 -1 24 -11 11 -24 21 0 0.13074701D+00 0.68532837D-01 0.10612041D+06 0.10612041D+06 0.10612041D+06 0.11196111D+01  1  2  2  2  7  2       -1 0.716001410750D-03 0.100000000000D+01
-.364113316804D-05 0.000000000000D+00 -.495158841745D-06 0.447671664381D-05 0.000000000000D+00  7 1 -1 24 -11 11 -24 21 2 0.13074701D+00 0.68532837D-01 0.10612041D+06 0.10612041D+06 0.10612041D+06 0.11196111D+01  1  2  3  2  7  2       -1 -.253455240156D-04 0.100000000000D+01
0.759940047123D-05 0.000000000000D+00 0.000000000000D+00 0.447671664381D-05 0.000000000000D+00  7 1 -1 24 -11 11 -24 21 2 0.13074701D+00 0.68532837D-01 0.10612041D+06 0.10612041D+06 0.10612041D+06 0.11196111D+01  1  2 15  2  7  2       -1 0.528985835613D-04 0.100000000000D+01
0.240504049981D-04 0.000000000000D+00 -.378680970351D-04 0.447671664381D-05 0.000000000000D+00  7 1 -1 24 -11 11 -24 21 2 0.13074701D+00 0.15446778D+00 0.10612041D+06 0.10612041D+06 0.10612041D+06 0.11196111D+01  1  2  5  2  7  2       -1 0.259072141597D-04 0.100000000000D+01
0.451694796934D-05 0.000000000000D+00 -.334230864596D-05 0.447671664381D-05 0.000000000000D+00  7 1 21 24 -11 11 -24 1 2 0.13074701D+00 0.15446778D+00 0.10612041D+06 0.10612041D+06 0.10612041D+06 0.11196111D+01  1  2  5  4  7  2       -1 0.313231877723D-04 0.100000000000D+01
  </mgrwgt>
  </event>
  <event>
  8     66 0.27727860E-05 0.25737929E+03 0.75467711E-02 0.80380755E-01
        1 -1    0    0  501    0 0.00000000E+00 0.00000000E+00 0.51115459E+03 0.51115469E+03 0.32000000E+00 0.0000E+00 0.9000E+01
       -1 -1    0    0    0  501 0.00000000E+00 0.00000000E+00 -.30733456E+03 0.30733472E+03 0.32000000E+00 0.0000E+00 0.9000E+01
       25  2    1    2    0    0 -.18738633E+03 0.60398800E+02 -.16157056E+03 0.39330435E+03 0.29970254E+03 0.0000E+00 0.0000E+00
       23  2    1    2    0    0 0.18738633E+03 -.60398800E+02 0.36539059E+03 0.42518507E+03 0.92251873E+02 0.0000E+00 0.0000E+00
       24  1    3    3    0    0 -.49388542E+01 -.38698159E+02 -.14461312E+03 0.17000621E+03 0.80419002E+02 0.0000E+00 0.9000E+01
      -13  1    4    4    0    0 0.18436331E+03 -.66438327E+02 0.36878927E+03 0.41762354E+03 0.10565837E+00 0.0000E+00 0.9000E+01
       13  1    4    4    0    0 0.30230176E+01 0.60395266E+01 -.33986828E+01 0.75615293E+01 0.10565837E+00 0.0000E+00 0.9000E+01
      -24  1    3    3    0    0 -.18244747E+03 0.99096959E+02 -.16957436E+02 0.22329814E+03 0.80419002E+02 0.0000E+00 0.9000E+01
#aMCatNLO 1  0  0  2  1 0.21683865D+04 0.00000000D+00  -5  7  0 0.00000000D+00 0.00000000D+00 0.00000000D+00 0.00000000D+00 0.00000000D+00
  <mgrwgt>
 0.1267453553D-02    3    2    0
 0.396352845243641D+03 0.000000000000000D+00 0.000000000000000D+00 0.396352845243641D+03
 0.396352845243641D+03 0.000000000000000D+00 0.000000000000000D+00 -.396352845243641D+03
 0.212718708525861D+03 -.493885427295007D+01 -.386981588033134D+02 -.193028736788706D+03
 0.336384797654169D+03 0.184363548818855D+03 -.664384217439855D+02 0.273405834019543D+03
 0.868091461432581D+01 0.302277974233668D+01 0.603962155517330D+01 -.545381083654539D+01
 0.234921269692928D+03 -.182447474288242D+03 0.990969589921256D+02 -.749232863942913D+02
 0.000000000000000D+00 -.000000000000000D+00 -.000000000000000D+00 0.000000000000000D+00
 0.397231362803490D+04 0.000000000000000D+00 0.000000000000000D+00 0.397231362803490D+04
 0.157150953543640D+04 0.000000000000000D+00 0.000000000000000D+00 -.157150953543640D+04
 0.584555980862215D+03 0.540572048876420D+03 0.758962815605774D+02 -.193028736788706D+03
 0.143589313964145D+04 0.139699070364283D+04 0.188295863812652D+03 0.273405834019543D+03
 0.367713600036560D+02 0.341221131428223D+02 0.125725995142644D+02 -.545381083654539D+01
 0.251519944079521D+03 0.150385098206631D+03 0.169014465974531D+03 -.749232863942913D+02
 0.323508273888446D+04 -.212206996386871D+04 -.445779210862025D+03 0.240080409259850D+04
0.526435699125D-04 0.000000000000D+00 0.000000000000D+00 0.268102777385D-05 0.000000000000D+00  7 1 -1 24 -13 13 -24 21 0 0.78639188D-01 0.47282260D-01 0.66244097D+05 0.66244097D+05 0.66244097D+05 0.11367013D+01  1  2  2  2  7  2       -1 0.124492170072D-02 0.100000000000D+01
-.226177470516D-05 0.000000000000D+00 -.202165169834D-06 0.268102777385D-05 0.000000000000D+00  7 1 -1 24 -13 13 -24 21 2 0.78639188D-01 0.47282260D-01 0.66244097D+05 0.66244097D+05 0.66244097D+05 0.11367013D+01  1  2  3  2  7  2       -1 -.691096635588D-04 0.100000000000D+01
0.299918206544D-05 0.000000000000D+00 0.000000000000D+00 0.268102777385D-05 0.000000000000D+00  7 1 -1 24 -13 13 -24 21 2 0.78639188D-01 0.47282260D-01 0.66244097D+05 0.66244097D+05 0.66244097D+05 0.11367013D+01  1  2 15  2  7  2       -1 0.916415162931D-04 0.100000000000D+01
  </mgrwgt>
  </event>
  <event>
  8     66 0.27727860E-05 0.52212382E+03 0.75467711E-02 0.80236047E-01
        1 -1    0    0  501    0 0.00000000E+00 0.00000000E+00 0.13039005E+04 0.13039006E+04 0.32000000E+00 0.0000E+00 0.9000E+01
       -1 -1    0    0    0  501 0.00000000E+00 0.00000000E+00 -.21032317E+03 0.21032341E+03 0.32000000E+00 0.0000E+00 0.9000E+01
       25  2    1    2    0    0 -.30468688E+02 -.47444273E+03 0.62449309E+03 0.84005309E+03 0.29945505E+03 0.0000E+00 0.0000E+00
       23  2    1    2    0    0 0.30468688E+02 0.47444273E+03 0.46908426E+03 0.67417088E+03 0.91880804E+02 0.0000E+00 0.0000E+00
       24  1    3    3    0    0 -.97297813E+02 -.43012276E+03 0.50221465E+03 0.67317102E+03 0.80419002E+02 0.0000E+00 0.9000E+01
      -13  1    4    4    0    0 0.54042316E+02 0.41445525E+03 0.42498155E+03 0.59607303E+03 0.10565837E+00 0.0000E+00 0.9000E+01
       13  1    4    4    0    0 -.23573628E+02 0.59987480E+02 0.44102714E+02 0.78097850E+02 0.10565837E+00 0.0000E+00 0.9000E+01
      -24  1    3    3    0    0 0.66829125E+02 -.44319974E+02 0.12227843E+03 0.16688206E+03 0.80419002E+02 0.0000E+00 0.9000E+01
#aMCatNLO 1  0  0  1  1 0.21213412D+04 0.00000000D+00  -5  7  0 0.00000000D+00 0.00000000D+00 0.00000000D+00 0.00000000D+00 0.00000000D+00
  <mgrwgt>
 0.9569581404D-03    5    2    0
 0.523679961143020D+03 0.000000000000000D+00 0.000000000000000D+00 0.523679961143020D+03
 0.523679961143020D+03 0.000000000000000D+00 0.000000000000000D+00 -.523679961143020D+03
 0.448863011620009D+03 -.972978128642079D+02 -.430122759717930D+03 0.232020350548503D+02
 0.418040017878856D+03 0.540424186312782D+02 0.414455723332656D+03 -.795782215438671D+01
 0.668608943154493D+02 -.235737306436787D+02 0.599870108046646D+02 -.177824898965813D+02
 0.113595998471726D+03 0.668291248766084D+02 -.443199744193907D+02 0.253827699611767D+01
 0.000000000000000D+00 -.000000000000000D+00 -.000000000000000D+00 0.000000000000000D+00
 0.237284143100971D+04 0.000000000000000D+00 0.000000000000000D+00 0.237284143100971D+04
 0.212835110096349D+04 0.000000000000000D+00 0.000000000000000D+00 -.212835110096349D+04
 0.671419427669148D+03 0.588814791954550D+03 -.311601730165334D+03 0.232020350548503D+02
 0.119503460731230D+04 0.104196367316706D+04 0.585112031615177D+03 -.795782215438671D+01
 0.124659351755496D+03 0.937220961039448D+02 0.802490232654672D+02 -.177824898965813D+02
 0.374695378821429D+03 0.365881271938491D+03 0.733913825505386D+01 0.253827699611767D+01
 0.213538376641482D+04 -.209038183316404D+04 -.361098462970365D+03 0.244490330046216D+03
0.998843962514D-04 0.000000000000D+00 0.000000000000D+00 0.220915198866D-05 0.000000000000D+00  7 1 -1 24 -13 13 -24 21 0 0.20060010D+00 0.32357432D-01 0.27261328D+06 0.27261328D+06 0.27261328D+06 0.10876412D+01  1  2  2  1  7  1        1 0.950228502112D-03 0.100000000000D+01
-.554907337143D-05 0.000000000000D+00 -.383582381771D-06 0.220915198866D-05 0.000000000000D+00  7 1 -1 24 -13 13 -24 21 2 0.20060010D+00 0.32357432D-01 0.27261328D+06 0.27261328D+06 0.27261328D+06 0.10876412D+01  1  2  3  1  7  1        1 -.624485203570D-04 0.100000000000D+01
0.614701882848D-05 0.000000000000D+00 0.000000000000D+00 0.220915198866D-05 0.000000000000D+00  7 1 -1 24 -13 13 -24 21 2 0.20060010D+00 0.32357432D-01 0.27261328D+06 0.27261328D+06 0.27261328D+06 0.10876412D+01  1  2 15  1  7  1        1 0.691777175665D-04 0.100000000000D+01
0.474076663193D-04 0.000000000000D+00 -.354881993950D-04 0.220915198866D-05 0.000000000000D+00  7 1 -1 24 -13 13 -24 21 2 0.96246248D+00 0.32357432D-01 0.27261328D+06 0.27261328D+06 0.27261328D+06 0.10876412D+01  1  2  5  1  7  1        1 0.440278523665D-09 0.100000000000D+01
0.830565966375D-05 0.000000000000D+00 -.676451531937D-05 0.220915198866D-05 0.000000000000D+00  7 21 -1 24 -13 13 -24 -1 2 0.96246248D+00 0.32357432D-01 0.27261328D+06 0.27261328D+06 0.27261328D+06 0.10876412D+01  1  2  5  3  7  1        1 0.783521843780D-12 0.100000000000D+01
  </mgrwgt>
  </event>
  <event>
  9     66 -.27727860E-05 0.19877161E+03 0.75467711E-02 0.10618177E+00
        1 -1    0    0  502    0 0.00000000E+00 0.00000000E+00 0.37871732E+03 0.37871745E+03 0.32000000E+00 0.0000E+00 0.9000E+01
       -1 -1    0    0    0  501 0.00000000E+00 0.00000000E+00 -.17756310E+03 0.17756339E+03 0.32000000E+00 0.0000E+00 0.9000E+01
       25  2    1    2    0    0 0.12799559E+03 0.71160917E+02 0.86921483E+02 0.34510385E+03 0.30015758E+03 0.0000E+00 0.0000E+00
       23  2    1    2    0    0 -.12923998E+03 -.64797006E+02 0.10194289E+03 0.19726116E+03 0.87281086E+02 0.0000E+00 0.0000E+00
       24  1    3    3    0    0 -.42295540E+01 -.35795235E+01 -.74174392E+02 0.10954341E+03 0.80419002E+02 0.0000E+00 0.9000E+01
      -11  1    4    4    0    0 -.21356689E+02 -.56961463E+01 0.65253181E+02 0.68895079E+02 0.51099893E-03 0.0000E+00 0.9000E+01
       11  1    4    4    0    0 -.10788329E+03 -.59100860E+02 0.36689712E+02 0.12836608E+03 0.51099893E-03 0.0000E+00 0.9000E+01
      -24  1    3    3    0    0 0.13222515E+03 0.74740441E+02 0.16109587E+03 0.23556044E+03 0.80419002E+02 0.0000E+00 0.9000E+01
       21  1    1    2  502  501 0.12443883E+01 -.63639112E+01 0.12289840E+02 0.13915837E+02 0.75000000E+00 0.0000E+00 0.9000E+01
#aMCatNLO 2  0  0  1  2 0.64844327D+01 0.00000000D+00  -5  7  0 0.00000000D+00 0.00000000D+00 0.00000000D+00 0.00000000D+00 0.00000000D+00
  <mgrwgt>
 -.1627780392D-03    3    2    0
 0.254188906611540D+03 0.000000000000000D+00 0.000000000000000D+00 0.254188906611540D+03
 0.254188906611540D+03 0.000000000000000D+00 0.000000000000000D+00 -.254188906611540D+03
 0.144457383126011D+03 -.387602753697882D+01 -.538748902487634D+01 -.119819326311677D+03
 0.492782174654155D+02 -.212361006166294D+02 -.631284540476359D+01 0.440172549128717D+02
 0.123793277565756D+03 -.107580881836843D+03 -.606474096014874D+02 -.854524091579843D+01
 0.190848935065898D+03 0.132693009990451D+03 0.723477440311273D+02 0.843473123146035D+02
 0.000000000000000D+00 0.000000000000000D+00 -.000000000000000D+00 0.000000000000000D+00
 0.263305829045489D+03 0.000000000000000D+00 0.000000000000000D+00 0.263305829045489D+03
 0.255365221190873D+03 0.000000000000000D+00 0.000000000000000D+00 -.255365221190873D+03
 0.144411180411904D+03 -.422955402329499D+01 -.357952351142960D+01 -.119819326311677D+03
 0.492551822014744D+02 -.213566889082122D+02 -.569614628617978D+01 0.440172549128717D+02
 0.123307491064110D+03 -.107883291574441D+03 -.591008596323339D+02 -.854524091579843D+01
 0.191445312803202D+03 0.132225146196161D+03 0.747404405837436D+02 0.843473123146035D+02
 0.102518837556713D+02 0.124438830978709D+01 -.636391115380036D+01 0.794060785461653D+01
-.107061741650D-04 0.000000000000D+00 0.000000000000D+00 0.880550794094D-07 0.000000000000D+00  7 1 -1 24 -11 11 -24 21 2 0.58388521D-01 0.27190145D-01 0.40818394D+05 0.40818394D+05 0.40818394D+05 0.11551275D+01  1  2 13  1  7  1        1 -.129207255541D-02 0.100000000000D+01
-.265291910052D-04 0.000000000000D+00 0.000000000000D+00 0.880550794094D-07 0.000000000000D+00  7 1 -1 24 -11 11 -24 21 2 0.56243839D-01 0.27190145D-01 0.39510152D+05 0.39510152D+05 0.39510152D+05 0.11564004D+01  1  2  8  1  7  1        1 -.337018025684D-02 0.100000000000D+01
0.374571178271D-04 0.000000000000D+00 0.000000000000D+00 0.880550794094D-07 0.149100998696D-07  7 1 -1 24 -11 11 -24 21 2 0.58261121D-01 0.27315973D-01 0.40818394D+05 0.40818394D+05 0.40818394D+05 0.11551275D+01  1  2  1  1  7  1        1 0.449947477304D-02 0.100000000000D+01
  </mgrwgt>
  </event>
  <event>
  8     66 0.27727860E-05 0.70902543E+03 0.75467711E-02 0.79460444E-01
        1 -1    0    0  501    0 0.00000000E+00 0.00000000E+00 0.13788159E+04 0.13788160E+04 0.32000000E+00 0.0000E+00 0.9000E+01
       -1 -1    0    0    0  501 0.00000000E+00 0.00000000E+00 -.39784533E+03 0.39784546E+03 0.32000000E+00 0.0000E+00 0.9000E+01
       25  2    1    2    0    0 0.65836716E+03 -.20848149E+03 0.32649299E+03 0.82092541E+03 0.30068090E+03 0.0000E+00 0.0000E+00
       23  2    1    2    0    0 -.65836716E+03 0.20848149E+03 0.65447760E+03 0.95573601E+03 0.90435287E+02 0.0000E+00 0.0000E+00
       24  1    3    3    0    0 0.84589498E+02 -.33961625E+02 0.14496291E+03 0.18918308E+03 0.80419002E+02 0.0000E+00 0.9000E+01
      -11  1    4    4    0    0 -.97254936E+02 0.18542403E+02 0.56420175E+02 0.11395429E+03 0.51099893E-03 0.0000E+00 0.9000E+01
       11  1    4    4    0    0 -.56111223E+03 0.18993909E+03 0.59805743E+03 0.84178173E+03 0.51099893E-03 0.0000E+00 0.9000E+01
      -24  1    3    3    0    0 0.57377767E+03 -.17451987E+03 0.18153008E+03 0.63174234E+03 0.80419002E+02 0.0000E+00 0.9000E+01
#aMCatNLO 1  0  0  1  2 0.22699676D+04 0.00000000D+00  -5  7  0 0.00000000D+00 0.00000000D+00 0.00000000D+00 0.00000000D+00 0.00000000D+00
  <mgrwgt>
 0.1246203845D-02    3    2    0
 0.740645414165283D+03 0.000000000000000D+00 0.000000000000000D+00 0.740645414165283D+03
 0.740645414165283D+03 0.000000000000000D+00 0.000000000000000D+00 -.740645414165283D+03
 0.130906044027875D+03 0.845894978914515D+02 -.339616253648434D+02 0.485839609100323D+02
 0.993131460348915D+02 -.972549356822761D+02 0.185424030882131D+02 -.779472568460638D+01
 0.613575914347873D+03 -.561112227435962D+03 0.189939089799957D+03 0.159848719280593D+03
 0.637495723919927D+03 0.573777665226787D+03 -.174519867523327D+03 -.200637954506019D+03
 0.000000000000000D+00 0.000000000000000D+00 -.000000000000000D+00 -.000000000000000D+00
 0.184259158706905D+04 0.000000000000000D+00 0.000000000000000D+00 0.184259158706905D+04
 0.399864432216317D+04 0.000000000000000D+00 0.000000000000000D+00 -.399864432216317D+04
 0.177623740128314D+03 0.716668983936761D+02 0.132613843620201D+03 0.485839609100323D+02
 0.221584529306164D+03 -.110695557467109D+03 0.191795306085373D+03 -.779472568460638D+01
 0.147945010768013D+04 -.648777465639991D+03 0.131996545717563D+04 0.159848719280593D+03
 0.831872113431490D+03 0.512234005417942D+03 0.618792963805938D+03 -.200637954506019D+03
 0.313070541868612D+04 0.175572119295482D+03 -.226316757068714D+04 -.215605273509412D+04
0.471721155879D-03 0.000000000000D+00 0.000000000000D+00 0.580976617013D-05 0.000000000000D+00  7 1 -1 24 -11 11 -24 21 0 0.21212554D+00 0.61206987D-01 0.50271706D+06 0.50271706D+06 0.50271706D+06 0.10683441D+01  1  2  2  1  7  1        1 0.123693770559D-02 0.100000000000D+01
-.261460744964D-04 0.000000000000D+00 -.181153344561D-05 0.580976617013D-05 0.000000000000D+00  7 1 -1 24 -11 11 -24 21 2 0.21212554D+00 0.61206987D-01 0.50271706D+06 0.50271706D+06 0.50271706D+06 0.10683441D+01  1  2  3  1  7  1        1 -.782512485825D-04 0.100000000000D+01
0.292421679150D-04 0.000000000000D+00 0.000000000000D+00 0.580976617013D-05 0.000000000000D+00  7 1 -1 24 -11 11 -24 21 2 0.21212554D+00 0.61206987D-01 0.50271706D+06 0.50271706D+06 0.50271706D+06 0.10683441D+01  1  2 15  1  7  1        1 0.875173881617D-04 0.100000000000D+01
  </mgrwgt>
  </event>
  <event>
  8     66 0.27727860E-05 0.53117834E+03 0.75467711E-02 0.93063332E-01
        3 -1    0    0  501    0 0.00000000E+00 0.00000000E+00 0.10704019E+04 0.10704020E+04 0.50000000E+00 0.0000E+00 0.9000E+01
       -3 -1    0    0    0  501 0.00000000E+00 0.00000000E+00 -.43578583E+03 0.43578611E+03 0.50000000E+00 0.0000E+00 0.9000E+01
       25  2    1    2    0    0 0.48446464E+03 -.30612111E+02 0.80175191E+03 0.98409879E+03 0.30000203E+03 0.0000E+00 0.0000E+00
       23  2    1    2    0    0 -.48446464E+03 0.30612111E+02 -.16713583E+03 0.52208935E+03 0.94867363E+02 0.0000E+00 0.0000E+00
       24  1    3    3    0    0 0.38857471E+03 0.78446391E+02 0.55764831E+03 0.68889984E+03 0.80419002E+02 0.0000E+00 0.9000E+01
      -13  1    4    4    0    0 -.46703885E+03 0.45092924E+02 -.17040770E+03 0.49919681E+03 0.10565837E+00 0.0000E+00 0.9000E+01
       13  1    4    4    0    0 -.17425792E+02 -.14480813E+02 0.32718752E+01 0.22892542E+02 0.10565837E+00 0.0000E+00 0.9000E+01
      -24  1    3    3    0    0 0.95889928E+02 -.10905850E+03 0.24410361E+03 0.29519895E+03 0.80419002E+02 0.0000E+00 0.9000E+01
#aMCatNLO 1  0  0  2  2 0.85603432D+02 0.00000000D+00  -5  7  0 0.00000000D+00 0.00000000D+00 0.00000000D+00 0.00000000D+00 0.00000000D+00
  <mgrwgt>
 0.6670100425D-04    4    2    0
 0.682983371115048D+03 0.000000000000000D+00 0.000000000000000D+00 0.682983371115048D+03
 0.682983371115048D+03 0.000000000000000D+00 0.000000000000000D+00 -.682983371115048D+03
 0.500539408587713D+03 0.388574709358425D+03 0.784463910010978D+02 0.294836128350793D+03
 0.629611818298005D+03 -.467039403499834D+03 0.450929978869944D+02 -.419823604458590D+03
 0.237217081845746D+02 -.174252343104566D+02 -.144808864463458D+02 -.702741603634177D+01
 0.212093807159803D+03 0.958899284518666D+02 -.109058502441746D+03 0.132014892144138D+03
 0.000000000000000D+00 -.000000000000000D+00 0.000000000000000D+00 0.000000000000000D+00
 0.918184457483624D+03 0.000000000000000D+00 0.000000000000000D+00 0.918184457483624D+03
 0.692156871307854D+03 0.000000000000000D+00 0.000000000000000D+00 -.692156871307854D+03
 0.502526923155160D+03 0.396029143077551D+03 0.479444240115189D+02 0.294836128350793D+03
 0.621153283936242D+03 -.457744160246478D+03 0.705882741117193D+01 -.419823604458590D+03
 0.243905485511237D+02 -.170676810584292D+02 -.159439187706354D+02 -.702741603634177D+01
 0.220575688303690D+03 0.991053749025677D+02 -.122215429606368D+03 0.132014892144138D+03
 0.241694884845263D+03 -.203226766752109D+02 0.831560969543126D+02 0.226027586175769D+03
0.348889238181D-03 0.000000000000D+00 0.000000000000D+00 0.274727837602D-05 0.000000000000D+00  7 3 -3 24 -13 13 -24 21 0 0.16467725D+00 0.67044004D-01 0.28215043D+06 0.28215043D+06 0.28215043D+06 0.10865284D+01  1  2  2  2  7  2       -3 0.699591254990D-04 0.100000000000D+01
-.178936050563D-04 0.000000000000D+00 -.133982653926D-05 0.274727837602D-05 0.000000000000D+00  7 3 -3 24 -13 13 -24 21 2 0.16467725D+00 0.67044004D-01 0.28215043D+06 0.28215043D+06 0.28215043D+06 0.10865284D+01  1  2  3  2  7  2       -3 -.423581306842D-05 0.100000000000D+01
0.207515435946D-04 0.000000000000D+00 0.000000000000D+00 0.274727837602D-05 0.000000000000D+00  7 3 -3 24 -13 13 -24 21 2 0.16467725D+00 0.67044004D-01 0.28215043D+06 0.28215043D+06 0.28215043D+06 0.10865284D+01  1  2 15  2  7  2       -3 0.491235048897D-05 0.100000000000D+01
-.166214200576D-04 0.000000000000D+00 0.000000000000D+00 0.274727837602D-05 0.000000000000D+00  7 3 -3 24 -13 13 -24 21 2 0.16467725D+00 0.67044004D-01 0.28215043D+06 0.28215043D+06 0.28215043D+06 0.10865284D+01  1  2  4  2  7  2       -3 -.393465867128D-05 0.100000000000D+01
  </mgrwgt>
  </event>
  <event>
  9     66 0.27727860E-05 0.18118524E+03 0.75467711E-02 0.97891641E-01
        3 -1    0    0  501    0 0.00000000E+00 0.00000000E+00 0.77927206E+03 0.77927222E+03 0.50000000E+00 0.0000E+00 0.9000E+01
       21 -1    0    0  502  501 0.00000000E+00 0.00000000E+00 -.30164178E+03 0.30164271E+03 0.75000000E+00 0.0000E+00 0.9000E+01
       25  2    1    2    0    0 0.22997453E+03 0.13584268E+02 0.40111657E+03 0.55028755E+03 0.29807561E+03 0.0000E+00 0.0000E+00
       23  2    1    2    0    0 0.31283142E+02 0.11985312E+03 0.16387900E+03 0.22453254E+03 0.90637359E+02 0.0000E+00 0.0000E+00
       24  1    3    3    0    0 0.14950134E+03 -.70526134E+02 0.82143046E+02 0.20134369E+03 0.80419002E+02 0.0000E+00 0.9000E+01
      -13  1    4    4    0    0 0.24896518E+02 0.12668815E+03 0.10931682E+03 0.16917418E+03 0.10565837E+00 0.0000E+00 0.9000E+01
       13  1    4    4    0    0 0.63866238E+01 -.68350255E+01 0.54562175E+02 0.55358366E+02 0.10565837E+00 0.0000E+00 0.9000E+01
      -24  1    3    3    0    0 0.80473196E+02 0.84110402E+02 0.31897353E+03 0.34894386E+03 0.80419002E+02 0.0000E+00 0.9000E+01
        3  1    1    2  502    0 -.26125767E+03 -.13343739E+03 -.87365282E+02 0.30609484E+03 0.50000000E+00 0.0000E+00 0.9000E+01
#aMCatNLO 2  0  0  2  2 0.29336174D+03 0.00000000D+00  -5  7  0 0.00000000D+00 0.00000000D+00 0.00000000D+00 0.00000000D+00 0.00000000D+00
  <mgrwgt>
 0.1945289012D-04    1    2    0
 0.220830861797750D+03 0.000000000000000D+00 0.000000000000000D+00 0.220830861797750D+03
 0.220830861797750D+03 0.000000000000000D+00 0.000000000000000D+00 -.220830861797750D+03
 0.181014395660567D+03 0.452768789520618D+02 -.123758794447328D+03 -.945132821951172D+02
 0.103940962715204D+03 -.381879479374534D+02 0.944679389923488D+02 -.205234710764941D+02
 0.256051896753859D+02 -.661365672880913D+01 -.134750819525065D+02 0.207438532910161D+02
 0.131101175544344D+03 -.475274285799333D+00 0.427659374074860D+02 0.942928999805953D+02
 0.000000000000000D+00 -.000000000000000D+00 -.000000000000000D+00 -.000000000000000D+00
 0.308386151168822D+03 0.000000000000000D+00 0.000000000000000D+00 0.308386151168822D+03
 0.762230867384068D+03 0.000000000000000D+00 0.000000000000000D+00 -.762230867384068D+03
 0.206699209767664D+03 0.149501339850597D+03 -.705261386706268D+02 -.945132821951172D+02
 0.130732509901049D+03 0.248965449154643D+02 0.126688351205911D+03 -.205234710764941D+02
 0.227555713144508D+02 0.638659441595413D+01 -.683520213702277D+01 0.207438532910161D+02
 0.170026049732494D+03 0.804731945761218D+02 0.841103774883292D+02 0.942928999805953D+02
 0.540403677837232D+03 -.261257673758137D+03 -.133437387886591D+03 -.453844716215246D+03
0.920028472298D-06 0.000000000000D+00 0.000000000000D+00 0.440638189523D-07 0.116198127854D-11  7 3 21 24 -13 13 -24 3 2 0.11988805D+00 0.46406496D-01 0.14331420D+06 0.14331420D+06 0.14331420D+06 0.11091180D+01  1  2  1  4  7  2       -3 0.194528901208D-04 0.100000000000D+01
  </mgrwgt>
  </event>
  <event>
  9     66 0.27727860E-05 0.22681967E+03 0.75467711E-02 0.97848430E-01
       21 -1    0    0  501  502 0.00000000E+00 0.00000000E+00 0.22458072E+03 0.22458197E+03 0.75000000E+00 0.0000E+00 0.9000E+01
       -1 -1    0    0    0  501 0.00000000E+00 0.00000000E+00 -.11999142E+04 0.11999142E+04 0.32000000E+00 0.0000E+00 0.9000E+01
       25  2    1    2    0    0 0.83657448E+02 -.20033251E+03 -.41183875E+02 0.37285541E+03 0.30032209E+03 0.0000E+00 0.0000E+00
       23  2    1    2    0    0 -.13502557E+03 -.40933372E+02 -.66710955E+03 0.68810482E+03 0.92442684E+02 0.0000E+00 0.0000E+00
       24  1    3    3    0    0 0.82185891E+02 0.35333590E+02 0.98566587E+00 0.12029618E+03 0.80419002E+02 0.0000E+00 0.9000E+01
      -13  1    4    4    0    0 -.10031695E+03 -.42870022E+02 -.62018286E+03 0.62970479E+03 0.10565837E+00 0.0000E+00 0.9000E+01
       13  1    4    4    0    0 -.34708614E+02 0.19366498E+01 -.46926689E+02 0.58400032E+02 0.10565837E+00 0.0000E+00 0.9000E+01
      -24  1    3    3    0    0 0.14715571E+01 -.23566610E+03 -.42169540E+02 0.25255923E+03 0.80419002E+02 0.0000E+00 0.9000E+01
       -1  1    1    2    0  502 0.51368120E+02 0.24126588E+03 -.26704003E+03 0.36353595E+03 0.32000000E+00 0.0000E+00 0.9000E+01
#aMCatNLO 2  0  0  1  2 0.24667369D+03 0.00000000D+00  -5  7  0 0.00000000D+00 0.00000000D+00 0.00000000D+00 0.00000000D+00 0.00000000D+00
  <mgrwgt>
 0.3496733419D-04    1    2    0
 0.375202984630377D+03 0.000000000000000D+00 0.000000000000000D+00 0.375202984630377D+03
 0.375202984630377D+03 0.000000000000000D+00 0.000000000000000D+00 -.375202984630377D+03
 0.187997074064698D+03 0.938732690301622D+02 0.902268906750208D+02 0.109190665641462D+03
 0.284278615963714D+03 -.811760605762413D+02 0.470313090254294D+02 -.268352072201654D+03
 0.365220103051993D+02 -.322779418221465D+02 0.133526878077242D+02 -.106629000168180D+02
 0.241608268927142D+03 0.195807333682256D+02 -.150610887508174D+03 0.169824306577010D+03
 0.000000000000000D+00 0.000000000000000D+00 0.000000000000000D+00 -.000000000000000D+00
 0.503021315888993D+03 0.000000000000000D+00 0.000000000000000D+00 0.503021315888993D+03
 0.535719642638767D+03 0.000000000000000D+00 0.000000000000000D+00 -.535719642638767D+03
 0.162458612037679D+03 0.821858907996121D+02 0.353335896999904D+02 0.109190665641462D+03
 0.289679455558241D+03 -.100317039982107D+03 -.428700805553887D+02 -.268352072201654D+03
 0.363611077411458D+02 -.347085274882060D+02 0.193670828856770D+01 -.106629000168180D+02
 0.301410331735312D+03 0.147155716181578D+01 -.235666101799936D+03 0.169824306577010D+03
 0.248831451455382D+03 0.513681195088855D+02 0.241265884366766D+03 -.326983267497742D+02
0.158667817345D-05 0.000000000000D+00 0.000000000000D+00 0.288407841182D-05 0.161763085711D-10  7 21 -1 24 -13 13 -24 -1 2 0.34550972D-01 0.18460224D+00 0.14433750D+06 0.14433750D+06 0.14433750D+06 0.11088731D+01  1  2  1  3  7  1        1 0.349673341910D-04 0.100000000000D+01
  </mgrwgt>
  </event>
  <event>
  8     66 0.27727860E-05 0.12284424E+03 0.75467711E-02 0.10589931E+00
        1 -1    0    0  501    0 0.00000000E+00 0.00000000E+00 0.22723128E+04 0.22723128E+04 0.32000000E+00 0.0000E+00 0.9000E+01
       -1 -1    0    0    0  501 0.00000000E+00 0.00000000E+00 -.13301924E+03 0.13301962E+03 0.32000000E+00 0.0000E+00 0.9000E+01
       25  2    1    2    0    0 0.70422736E+02 -.17306414E+02 0.49797013E+02 0.31255336E+03 0.29991830E+03 0.0000E+00 0.0000E+00
       23  2    1    2    0    0 -.70422736E+02 0.17306414E+02 0.20894965E+04 0.20927790E+04 0.92030266E+02 0.0000E+00 0.0000E+00
       24  1    3    3    0    0 -.35358800E+02 -.41177837E+02 -.79640495E+02 0.12552165E+03 0.80419002E+02 0.0000E+00 0.9000E+01
      -11  1    4    4    0    0 0.52712442E+01 0.35923077E+02 0.46600360E+03 0.46741588E+03 0.51099893E-03 0.0000E+00 0.9000E+01
       11  1    4    4    0    0 -.75693980E+02 -.18616663E+02 0.16234929E+04 0.16253632E+04 0.51099893E-03 0.0000E+00 0.9000E+01
      -24  1    3    3    0    0 0.10578154E+03 0.23871423E+02 0.12943751E+03 0.18703172E+03 0.80419002E+02 0.0000E+00 0.9000E+01
#aMCatNLO 1  0  0  1  2 0.85109172D+02 0.00000000D+00  -5  7  0 0.00000000D+00 0.00000000D+00 0.00000000D+00 0.00000000D+00 0.00000000D+00
  <mgrwgt>
 0.4716153317D-03    9    2    0
 0.549783407352258D+03 0.000000000000000D+00 0.000000000000000D+00 0.549783407352258D+03
 0.549783407352258D+03 0.000000000000000D+00 0.000000000000000D+00 -.549783407352258D+03
 0.429528856218459D+03 -.353588000247113D+02 -.411778369346868D+02 -.418427966771056D+03
 0.115838423348437D+03 0.527124422676135D+01 0.359230765728620D+02 0.110001303981788D+03
 0.396893384870788D+03 -.756939802537316D+02 -.186166626417696D+02 0.389163462030574D+03
 0.157306150266833D+03 0.105781536051682D+03 0.238714230035943D+02 -.807367992413064D+02
 0.000000000000000D+00 -.000000000000000D+00 0.000000000000000D+00 0.000000000000000D+00
 0.660859261468476D+03 0.000000000000000D+00 0.000000000000000D+00 0.660859261468476D+03
 0.567976063798684D+03 0.000000000000000D+00 0.000000000000000D+00 -.567976063798684D+03
 0.428780894403899D+03 -.288160889438812D+01 -.479121321322412D+02 -.418427966771056D+03
 0.116019868581394D+03 0.140444243714531D+02 0.341039172533692D+02 0.110001303981788D+03
 0.392636233894739D+03 -.458193291582425D+02 -.248113091736590D+02 0.389163462030574D+03
 0.165418728570911D+03 0.117992975529008D+03 0.213393247720264D+02 -.807367992413064D+02
 0.125979599816218D+03 -.833364618478301D+02 0.172801992805045D+02 0.928831976697913D+02
0.128480418651D-03 0.000000000000D+00 0.000000000000D+00 0.103882419596D-04 0.000000000000D+00  7 1 -1 24 -11 11 -24 21 0 0.34958661D+00 0.20464529D-01 0.29978347D+05 0.29978347D+05 0.29978347D+05 0.11673650D+01  1  2  2  1  7  1        1 0.652740966433D-03 0.100000000000D+01
0.444777111964D-05 0.000000000000D+00 -.493398637291D-06 0.103882419596D-04 0.000000000000D+00  7 1 -1 24 -11 11 -24 21 2 0.34958661D+00 0.20464529D-01 0.29978347D+05 0.29978347D+05 0.29978347D+05 0.11673650D+01  1  2  3  1  7  1        1 0.307935460332D-04 0.100000000000D+01
0.704144081504D-05 0.000000000000D+00 0.000000000000D+00 0.103882419596D-04 0.000000000000D+00  7 1 -1 24 -11 11 -24 21 2 0.34958661D+00 0.20464529D-01 0.29978347D+05 0.29978347D+05 0.29978347D+05 0.11673650D+01  1  2 15  1  7  1        1 0.487504698523D-04 0.100000000000D+01
0.151642085655D-03 0.000000000000D+00 0.000000000000D+00 0.103882419596D-04 0.000000000000D+00  7 1 -1 24 -11 11 -24 21 2 0.42519387D+00 0.20464529D-01 0.42462646D+05 0.42462646D+05 0.42462646D+05 0.11535901D+01  1  2 12  1  7  1        1 0.468138714356D-03 0.100000000000D+01
-.244078414499D-03 0.000000000000D+00 0.000000000000D+00 0.103882419596D-04 0.000000000000D+00  7 1 -1 24 -11 11 -24 21 2 0.34958661D+00 0.20464529D-01 0.29978347D+05 0.29978347D+05 0.29978347D+05 0.11673650D+01  1  2  4  1  7  1        1 -.168984412426D-02 0.100000000000D+01
-.244554065575D-03 0.000000000000D+00 -.679504364625D-04 0.103882419596D-04 0.000000000000D+00  7 1 -1 24 -11 11 -24 21 2 0.42430638D+00 0.20464529D-01 0.29978347D+05 0.29978347D+05 0.29978347D+05 0.11673650D+01  1  2  5  1  7  1        1 -.796598228446D-03 0.100000000000D+01
0.254187861961D-03 0.000000000000D+00 0.666952686693D-04 0.103882419596D-04 0.000000000000D+00  7 1 -1 24 -11 11 -24 21 2 0.34958661D+00 0.20464529D-01 0.29978347D+05 0.29978347D+05 0.29978347D+05 0.11673650D+01  1  2  6  1  7  1        1 0.175983552611D-02 0.100000000000D+01
0.426920564038D-05 0.000000000000D+00 0.000000000000D+00 0.103882419596D-04 0.000000000000D+00  7 21 -1 24 -11 11 -24 -1 2 0.42519387D+00 0.20464529D-01 0.42462646D+05 0.42462646D+05 0.42462646D+05 0.11535901D+01  1  2 12  3  7  1        1 0.403030281946D-05 0.100000000000D+01
-.608771210040D-05 0.000000000000D+00 -.189726441004D-05 0.103882419596D-04 0.000000000000D+00  7 21 -1 24 -11 11 -24 -1 2 0.42430638D+00 0.20464529D-01 0.29978347D+05 0.29978347D+05 0.29978347D+05 0.11673650D+01  1  2  5  3  7  1        1 -.623184119542D-05 0.100000000000D+01
  </mgrwgt>
  </event>
  <event>
  8     66 0.27727860E-05 0.38478084E+03 0.75467711E-02 0.91365217E-01
        3 -1    0    0  501    0 0.00000000E+00 0.00000000E+00 0.13928877E+03 0.13928966E+03 0.50000000E+00 0.0000E+00 0.9000E+01
       -3 -1    0    0    0  501 0.00000000E+00 0.00000000E+00 -.14011382E+04 0.14011383E+04 0.50000000E+00 0.0000E+00 0.9000E+01
       25  2    1    2    0    0 0.35274467E+03 0.69269707E+02 -.45858100E+03 0.65536079E+03 0.29995689E+03 0.0000E+00 0.0000E+00
       23  2    1    2    0    0 -.35274467E+03 -.69269707E+02 -.80326845E+03 0.88506718E+03 0.94215778E+02 0.0000E+00 0.0000E+00
       24  1    3    3    0    0 0.23715316E+03 0.56455884E+02 -.11015758E+03 0.27933993E+03 0.80419002E+02 0.0000E+00 0.9000E+01
      -11  1    4    4    0    0 -.15884911E+02 -.27856743E+02 -.62337047E+02 0.70101612E+02 0.51099893E-03 0.0000E+00 0.9000E+01
       11  1    4    4    0    0 -.33685976E+03 -.41412964E+02 -.74093140E+03 0.81496557E+03 0.51099893E-03 0.0000E+00 0.9000E+01
      -24  1    3    3    0    0 0.11559151E+03 0.12813823E+02 -.34842343E+03 0.37602087E+03 0.80419002E+02 0.0000E+00 0.9000E+01
#aMCatNLO 1  0  0  2  1 0.45115747D+03 0.00000000D+00  -5  7  0 0.00000000D+00 0.00000000D+00 0.00000000D+00 0.00000000D+00 0.00000000D+00
  <mgrwgt>
 0.7746315702D-04    5    2    0
 0.441773215217943D+03 0.000000000000000D+00 0.000000000000000D+00 0.441773215217943D+03
 0.441773215217943D+03 0.000000000000000D+00 0.000000000000000D+00 -.441773215217943D+03
 0.329694908720136D+03 0.237153158146830D+03 0.564558841840786D+02 0.206887963892506D+03
 0.331918206487176D+02 -.158849107577435D+02 -.278567428241017D+02 -.856553836177345D+01
 0.362688206168245D+03 -.336859759886069D+03 -.414129644762241D+02 -.127879644339240D+03
 0.157971494898787D+03 0.115591512496982D+03 0.128138231162473D+02 -.704427811914929D+02
 0.000000000000000D+00 -.000000000000000D+00 0.000000000000000D+00 -.000000000000000D+00
 0.625579467841715D+03 0.000000000000000D+00 0.000000000000000D+00 0.625579467841715D+03
 0.888834789805364D+03 0.000000000000000D+00 0.000000000000000D+00 -.888834789805364D+03
 0.396511766274384D+03 0.312625573664420D+03 -.101079107272801D+03 0.206887963892506D+03
 0.465921344952986D+02 -.759321085797130D+01 -.451641638721161D+02 -.856553836177345D+01
 0.351988265501483D+03 -.262585642767949D+03 -.196446725161188D+03 -.127879644339240D+03
 0.196975050075263D+03 0.152480010015980D+03 -.641842310954660D+02 -.704427811914929D+02
 0.522347041300650D+03 -.194926730054479D+03 0.406874227401571D+03 -.263255321963650D+03
0.159516195831D-03 0.000000000000D+00 0.000000000000D+00 0.657716538655D-06 0.000000000000D+00  7 3 -3 24 -11 11 -24 21 0 0.21429117D-01 0.21555980D+00 0.14805630D+06 0.14805630D+06 0.14805630D+06 0.11079992D+01  1  2  2  2  7  2       -3 0.767837364209D-04 0.100000000000D+01
-.865644827839D-05 0.000000000000D+00 -.612584193568D-06 0.657716538655D-06 0.000000000000D+00  7 3 -3 24 -11 11 -24 21 2 0.21429117D-01 0.21555980D+00 0.14805630D+06 0.14805630D+06 0.14805630D+06 0.11079992D+01  1  2  3  2  7  2       -3 -.511544088179D-05 0.100000000000D+01
0.978589898367D-05 0.000000000000D+00 0.000000000000D+00 0.657716538655D-06 0.000000000000D+00  7 3 -3 24 -11 11 -24 21 2 0.21429117D-01 0.21555980D+00 0.14805630D+06 0.14805630D+06 0.14805630D+06 0.11079992D+01  1  2 15  2  7  2       -3 0.578287839496D-05 0.100000000000D+01
-.272124029835D-04 0.000000000000D+00 -.394391525494D-04 0.657716538655D-06 0.000000000000D+00  7 3 -3 24 -11 11 -24 21 2 0.21429117D-01 0.48730191D+00 0.14805630D+06 0.14805630D+06 0.14805630D+06 0.11079992D+01  1  2  5  2  7  2       -3 -.240204465860D-08 0.100000000000D+01
0.828288856242D-07 0.000000000000D+00 -.349468994698D-05 0.657716538655D-06 0.000000000000D+00  7 3 21 24 -11 11 -24 3 2 0.21429117D-01 0.48730191D+00 0.14805630D+06 0.14805630D+06 0.14805630D+06 0.11079992D+01  1  2  5  4  7  2       -3 0.143851263618D-07 0.100000000000D+01
  </mgrwgt>
  </event>
  <event>
  8     66 0.27727860E-05 0.31828548E+03 0.75467711E-02 0.92192601E-01
        1 -1    0    0  501    0 0.00000000E+00 0.00000000E+00 0.69735660E+03 0.69735668E+03 0.32000000E+00 0.0000E+00 0.9000E+01
       -1 -1    0    0    0  501 0.00000000E+00 0.00000000E+00 -.44474869E+03 0.44474881E+03 0.32000000E+00 0.0000E+00 0.9000E+01
       25  2    1    2    0    0 -.40319312E+03 -.29234581E+03 0.15664173E+02 0.58244742E+03 0.30161047E+03 0.0000E+00 0.0000E+00
       23  2    1    2    0    0 0.40319312E+03 0.29234581E+03 0.23694374E+03 0.55965806E+03 0.95100189E+02 0.0000E+00 0.0000E+00
       24  1    3    3    0    0 -.25435804E+03 -.31358601E+03 0.83291923E+01 0.41178974E+03 0.80419002E+02 0.0000E+00 0.9000E+01
      -11  1    4    4    0    0 0.29144340E+03 0.16738950E+03 0.12753335E+03 0.35947636E+03 0.51099893E-03 0.0000E+00 0.9000E+01
       11  1    4    4    0    0 0.11174972E+03 0.12495631E+03 0.10941039E+03 0.20018170E+03 0.51099893E-03 0.0000E+00 0.9000E+01
      -24  1    3    3    0    0 -.14883508E+03 0.21240203E+02 0.73349812E+01 0.17065768E+03 0.80419002E+02 0.0000E+00 0.9000E+01
#aMCatNLO 1  0  0  1  2 0.15032140D+03 0.00000000D+00  -5  7  0 0.00000000D+00 0.00000000D+00 0.00000000D+00 0.00000000D+00 0.00000000D+00
  <mgrwgt>
 0.5601643237D-03    9    2    0
 0.556909817025959D+03 0.000000000000000D+00 0.000000000000000D+00 0.556909817025959D+03
 0.556909817025959D+03 0.000000000000000D+00 0.000000000000000D+00 -.556909817025959D+03
 0.420358276515223D+03 -.254358039881494D+03 -.313586012790513D+03 -.848508385949790D+02
 0.339681555060318D+03 0.291443395324868D+03 0.167389496577271D+03 0.492449246655556D+02
 0.180451738984525D+03 0.111749722294392D+03 0.124956313036962D+03 0.667888426451165D+02
 0.173328063491852D+03 -.148835077737767D+03 0.212402031762799D+02 -.311829287156931D+02
 0.000000000000000D+00 -.000000000000000D+00 0.000000000000000D+00 0.000000000000000D+00
 0.645695416759442D+03 0.000000000000000D+00 0.000000000000000D+00 0.645695416759442D+03
 0.629421864353596D+03 0.000000000000000D+00 0.000000000000000D+00 -.629421864353596D+03
 0.429699027932530D+03 -.213888925633337D+03 -.353872719113718D+03 -.848508385949790D+02
 0.354698623961967D+03 0.324501108786627D+03 0.134480785361503D+03 0.492449246655556D+02
 0.180878426023395D+03 0.128951752854568D+03 0.107831817820905D+03 0.667888426451165D+02
 0.158641490975388D+03 -.133030832828217D+03 0.550719332024953D+01 -.311829287156931D+02
 0.151199712219758D+03 -.106533103179641D+03 0.106052922611061D+03 0.162735524058462D+02
0.467539026952D-04 0.000000000000D+00 0.000000000000D+00 0.481562369849D-07 0.000000000000D+00  7 1 -1 24 -11 11 -24 21 0 0.10728565D+00 0.68422890D-01 0.29481382D+06 0.29481382D+06 0.29481382D+06 0.10851126D+01  1  2  2  1  7  1        1 0.341707911812D-03 0.100000000000D+01
-.259540898249D-05 0.000000000000D+00 -.179547296935D-06 0.481562369849D-07 0.000000000000D+00  7 1 -1 24 -11 11 -24 21 2 0.10728565D+00 0.68422890D-01 0.29481382D+06 0.29481382D+06 0.29481382D+06 0.10851126D+01  1  2  3  1  7  1        1 -.223353417594D-04 0.100000000000D+01
0.277712430580D-05 0.000000000000D+00 0.000000000000D+00 0.481562369849D-07 0.000000000000D+00  7 1 -1 24 -11 11 -24 21 2 0.10728565D+00 0.68422890D-01 0.29481382D+06 0.29481382D+06 0.29481382D+06 0.10851126D+01  1  2 15  1  7  1        1 0.238991314652D-04 0.100000000000D+01
0.348258789511D-04 0.000000000000D+00 0.000000000000D+00 0.481562369849D-07 0.000000000000D+00  7 1 -1 24 -11 11 -24 21 2 0.13039475D+00 0.68422890D-01 0.38841916D+06 0.38841916D+06 0.38841916D+06 0.10763486D+01  1  2 12  1  7  1        1 0.214552839566D-03 0.100000000000D+01
-.315259292706D-04 0.000000000000D+00 0.000000000000D+00 0.481562369849D-07 0.000000000000D+00  7 1 -1 24 -11 11 -24 21 2 0.10728565D+00 0.68422890D-01 0.29481382D+06 0.29481382D+06 0.29481382D+06 0.10851126D+01  1  2  4  1  7  1        1 -.271303062173D-03 0.100000000000D+01
-.892879443165D-04 0.000000000000D+00 -.281582669123D-04 0.481562369849D-07 0.000000000000D+00  7 1 -1 24 -11 11 -24 21 2 0.13656962D+00 0.68422890D-01 0.29481382D+06 0.29481382D+06 0.29481382D+06 0.10851126D+01  1  2  5  1  7  1        1 -.523566993585D-03 0.100000000000D+01
0.941296328855D-04 0.000000000000D+00 0.273576710929D-04 0.481562369849D-07 0.000000000000D+00  7 1 -1 24 -11 11 -24 21 2 0.10728565D+00 0.68422890D-01 0.29481382D+06 0.29481382D+06 0.29481382D+06 0.10851126D+01  1  2  6  1  7  1        1 0.810052494374D-03 0.100000000000D+01
0.977671276999D-06 0.000000000000D+00 0.000000000000D+00 0.481562369849D-07 0.000000000000D+00  7 21 -1 24 -11 11 -24 -1 2 0.13039475D+00 0.68422890D-01 0.38841916D+06 0.38841916D+06 0.38841916D+06 0.10763486D+01  1  2 12  3  7  1        1 0.969031131191D-05 0.100000000000D+01
-.249870624481D-05 0.000000000000D+00 -.928435256124D-06 0.481562369849D-07 0.000000000000D+00  7 21 -1 24 -11 11 -24 -1 2 0.13656962D+00 0.68422890D-01 0.29481382D+06 0.29481382D+06 0.29481382D+06 0.10851126D+01  1  2  5  3  7  1        1 -.225329673502D-04 0.100000000000D+01
  </mgrwgt>
  </event>
  <event>
  8     66 0.27727860E-05 0.11228488E+03 0.75467711E-02 0.10425241E+00
        1 -1    0    0  501    0 0.00000000E+00 0.00000000E+00 0.11378236E+04 0.11378237E+04 0.32000000E+00 0.0000E+00 0.9000E+01
       -1 -1    0    0    0  501 0.00000000E+00 0.00000000E+00 -.40890773E+02 0.40892025E+02 0.32000000E+00 0.0000E+00 0.9000E+01
       25  2    1    2    0    0 -.73478521E+02 -.14020817E+02 0.71831986E+03 0.78200825E+03 0.29992966E+03 0.0000E+00 0.0000E+00
       23  2    1    2    0    0 0.73478521E+02 0.14020817E+02 0.37861301E+03 0.39670747E+03 0.91833145E+02 0.0000E+00 0.0000E+00
       24  1    3    3    0    0 0.88875927E+02 -.25606329E+02 0.22295401E+03 0.25442155E+03 0.80419002E+02 0.0000E+00 0.9000E+01
      -11  1    4    4    0    0 0.27881851E+02 -.98783436E+01 0.23219804E+02 0.37605034E+02 0.51099893E-03 0.0000E+00 0.9000E+01
       11  1    4    4    0    0 0.45596670E+02 0.23899161E+02 0.35539321E+03 0.35910243E+03 0.51099893E-03 0.0000E+00 0.9000E+01
      -24  1    3    3    0    0 -.16235445E+03 0.11585512E+02 0.49536585E+03 0.52758670E+03 0.80419002E+02 0.0000E+00 0.9000E+01
#aMCatNLO 1  0  0  1  2 0.78678700D+02 0.00000000D+00  -5  7  0 0.00000000D+00 0.00000000D+00 0.00000000D+00 0.00000000D+00 0.00000000D+00
  <mgrwgt>
 0.1016783271D-02    7    2    0
 0.215701769490318D+03 0.000000000000000D+00 0.000000000000000D+00 0.215701769490318D+03
 0.215701769490318D+03 0.000000000000000D+00 0.000000000000000D+00 -.215701769490318D+03
 0.128244397872502D+03 0.888759265872012D+02 -.256063292808020D+02 -.377464595073452D+02
 0.437063601506048D+02 0.278818510046312D+02 -.987834358249746D+01 -.321755595170628D+02
 0.775079196777861D+02 0.455966701079931D+02 0.238991605297947D+02 0.579417933258205D+02
 0.181944861279743D+03 -.162354447699826D+03 0.115855123335048D+02 0.119802256985874D+02
 0.000000000000000D+00 0.000000000000000D+00 0.000000000000000D+00 0.000000000000000D+00
 0.765266165813352D+03 0.000000000000000D+00 0.000000000000000D+00 0.765266165813352D+03
 0.222094120143964D+03 0.000000000000000D+00 0.000000000000000D+00 -.222094120143964D+03
 0.116885196482262D+03 0.681658730027568D+02 -.335194235445482D+02 -.377464595073452D+02
 0.403202074060060D+02 0.207827705317290D+02 -.125908277747252D+02 -.321755595170628D+02
 0.694625727206410D+02 0.331797002969204D+02 0.191547665964583D+02 0.579417933258205D+02
 0.211851522731931D+03 -.195624784705479D+03 -.112673449091136D+01 0.119802256985874D+02
 0.548840786616476D+03 0.734964408740732D+02 0.280822192137265D+02 0.543172045669388D+03
0.600054425357D-05 0.000000000000D+00 0.000000000000D+00 0.796248093104D-06 0.000000000000D+00  7 1 -1 24 -11 11 -24 21 0 0.17504989D+00 0.62909880D-02 0.37089750D+05 0.37089750D+05 0.37089750D+05 0.11588830D+01  1  2  2  1  7  1        1 0.101547233473D-02 0.100000000000D+01
-.328156019496D-06 0.000000000000D+00 -.230436699133D-07 0.796248093104D-06 0.000000000000D+00  7 1 -1 24 -11 11 -24 21 2 0.17504989D+00 0.62909880D-02 0.37089750D+05 0.37089750D+05 0.37089750D+05 0.11588830D+01  1  2  3  1  7  1        1 -.745825136752D-04 0.100000000000D+01
0.379013239907D-06 0.000000000000D+00 0.000000000000D+00 0.796248093104D-06 0.000000000000D+00  7 1 -1 24 -11 11 -24 21 2 0.17504989D+00 0.62909880D-02 0.37089750D+05 0.37089750D+05 0.37089750D+05 0.11588830D+01  1  2 15  1  7  1        1 0.861412208494D-04 0.100000000000D+01
0.411858198202D-04 0.000000000000D+00 0.000000000000D+00 0.796248093104D-06 0.000000000000D+00  7 1 -1 24 -11 11 -24 21 2 0.61501717D+00 0.62909880D-02 0.53690650D+05 0.53690650D+05 0.53690650D+05 0.11445848D+01  1  2 12  1  7  1        1 0.796310407528D-04 0.100000000000D+01
-.491196052315D-04 0.000000000000D+00 -.185736657708D-05 0.796248093104D-06 0.000000000000D+00  7 1 -1 24 -11 11 -24 21 2 0.62268726D+00 0.62909880D-02 0.37089750D+05 0.37089750D+05 0.37089750D+05 0.11588830D+01  1  2  5  1  7  1        1 -.897703419193D-04 0.100000000000D+01
0.605855739034D-05 0.000000000000D+00 0.000000000000D+00 0.796248093104D-06 0.000000000000D+00  7 21 -1 24 -11 11 -24 -1 2 0.61501717D+00 0.62909880D-02 0.53690650D+05 0.53690650D+05 0.53690650D+05 0.11445848D+01  1  2 12  3  7  1        1 0.103168120666D-05 0.100000000000D+01
-.725662862916D-05 0.000000000000D+00 -.276480882980D-06 0.796248093104D-06 0.000000000000D+00  7 21 -1 24 -11 11 -24 -1 2 0.62268726D+00 0.62909880D-02 0.37089750D+05 0.37089750D+05 0.37089750D+05 0.11588830D+01  1  2  5  3  7  1        1 -.114015094019D-05 0.100000000000D+01
  </mgrwgt>
  </event>
  <event>
  8     66 0.27727860E-05 0.11355510E+03 0.75467711E-02 0.10318601E+00
        1 -1    0    0  501    0 0.00000000E+00 0.00000000E+00 0.81697476E+03 0.81697482E+03 0.32000000E+00 0.0000E+00 0.9000E+01
       -1 -1    0    0    0  501 0.00000000E+00 0.00000000E+00 -.13418789E+03 0.13418827E+03 0.32000000E+00 0.0000E+00 0.9000E+01
       25  2    1    2    0    0 -.27950259E+02 0.99783023E+02 0.72509941E+02 0.32572706E+03 0.30017088E+03 0.0000E+00 0.0000E+00
       23  2    1    2    0    0 0.27950259E+02 -.99783023E+02 0.61027693E+03 0.62543603E+03 0.89411565E+02 0.0000E+00 0.0000E+00
       24  1    3    3    0    0 -.13464260E+03 0.79105314E+02 0.73797965E+02 0.19052463E+03 0.80419002E+02 0.0000E+00 0.9000E+01
      -11  1    4    4    0    0 0.39126451E+02 -.80331698E+02 0.58438804E+03 0.59117970E+03 0.51099893E-03 0.0000E+00 0.9000E+01
       11  1    4    4    0    0 -.11176192E+02 -.19451325E+02 0.25888893E+02 0.34256330E+02 0.51099893E-03 0.0000E+00 0.9000E+01
      -24  1    3    3    0    0 0.10669234E+03 0.20677709E+02 -.12880234E+01 0.13520243E+03 0.80419002E+02 0.0000E+00 0.9000E+01
#aMCatNLO 1  0  0  2  1 0.61485804D+02 0.00000000D+00  -5  7  0 0.00000000D+00 0.00000000D+00 0.00000000D+00 0.00000000D+00 0.00000000D+00
  <mgrwgt>
 0.5982664954D-03    9    2    0
 0.331101690525679D+03 0.000000000000000D+00 0.000000000000000D+00 0.331101690525679D+03
 0.331101690525679D+03 0.000000000000000D+00 0.000000000000000D+00 -.331101690525679D+03
 0.197570293255369D+03 -.134642597027613D+03 0.791053138724622D+02 -.904462558950956D+02
 0.246594683535150D+03 0.391264514266323D+02 -.803316977828480D+02 0.229836631279449D+03
 0.225108485693106D+02 -.111761920912758D+02 -.194513253336448D+02 0.186466522841065D+01
 0.195527555691528D+03 0.106692337692256D+03 0.206777092440307D+02 -.141255040612764D+03
 0.000000000000000D+00 -.000000000000000D+00 0.000000000000000D+00 -.000000000000000D+00
 0.344608085276915D+03 0.000000000000000D+00 0.000000000000000D+00 0.344608085276915D+03
 0.410750447540821D+03 0.000000000000000D+00 0.000000000000000D+00 -.410750447540821D+03
 0.185967991577362D+03 -.126097691431677D+03 0.635273558957693D+02 -.904462558950956D+02
 0.255942137597172D+03 0.503225428335963D+02 -.100742952124131D+03 0.229836631279449D+03
 0.236920976007231D+02 -.101468298896661D+02 -.213279243129360D+02 0.186466522841065D+01
 0.199449517025586D+03 0.115492089718052D+03 0.463514847795801D+01 -.141255040612764D+03
 0.903067890168934D+02 -.295701112303050D+02 0.539083720633393D+02 -.661423622639052D+02
0.116151788078D-04 0.000000000000D+00 0.000000000000D+00 0.108553589710D-05 0.000000000000D+00  7 1 -1 24 -11 11 -24 21 0 0.12568846D+00 0.20644325D-01 0.44655083D+05 0.44655083D+05 0.44655083D+05 0.11516393D+01  1  2  2  2  7  2       -1 0.555684381852D-03 0.100000000000D+01
-.487071468552D-06 0.000000000000D+00 -.446053449687D-07 0.108553589710D-05 0.000000000000D+00  7 1 -1 24 -11 11 -24 21 2 0.12568846D+00 0.20644325D-01 0.44655083D+05 0.44655083D+05 0.44655083D+05 0.11516393D+01  1  2  3  2  7  2       -1 -.309049435073D-04 0.100000000000D+01
0.697948756905D-06 0.000000000000D+00 0.000000000000D+00 0.108553589710D-05 0.000000000000D+00  7 1 -1 24 -11 11 -24 21 2 0.12568846D+00 0.20644325D-01 0.44655083D+05 0.44655083D+05 0.44655083D+05 0.11516393D+01  1  2 15  2  7  2       -1 0.442852195125D-04 0.100000000000D+01
0.218494018148D-04 0.000000000000D+00 0.000000000000D+00 0.108553589710D-05 0.000000000000D+00  7 1 -1 24 -11 11 -24 21 2 0.12568846D+00 0.25959782D-01 0.62754545D+05 0.62754545D+05 0.62754545D+05 0.11387158D+01  1  2 12  2  7  2       -1 0.932655451477D-03 0.100000000000D+01
-.235704777227D-04 0.000000000000D+00 0.000000000000D+00 0.108553589710D-05 0.000000000000D+00  7 1 -1 24 -11 11 -24 21 2 0.12568846D+00 0.20644325D-01 0.44655083D+05 0.44655083D+05 0.44655083D+05 0.11516393D+01  1  2  4  2  7  2       -1 -.149555933675D-02 0.100000000000D+01
-.300254412446D-04 0.000000000000D+00 -.688920701040D-05 0.108553589710D-05 0.000000000000D+00  7 1 -1 24 -11 11 -24 21 2 0.12568846D+00 0.26518169D-01 0.44655083D+05 0.44655083D+05 0.44655083D+05 0.11516393D+01  1  2  5  2  7  2       -1 -.127315755665D-02 0.100000000000D+01
0.309845136322D-04 0.000000000000D+00 0.667874888961D-05 0.108553589710D-05 0.000000000000D+00  7 1 -1 24 -11 11 -24 21 2 0.12568846D+00 0.20644325D-01 0.44655083D+05 0.44655083D+05 0.44655083D+05 0.11516393D+01  1  2  6  2  7  2       -1 0.196598385500D-02 0.100000000000D+01
0.693038816176D-06 0.000000000000D+00 0.000000000000D+00 0.108553589710D-05 0.000000000000D+00  7 1 21 24 -11 11 -24 1 2 0.12568846D+00 0.25959782D-01 0.62754545D+05 0.62754545D+05 0.62754545D+05 0.11387158D+01  1  2 12  4  7  2       -1 0.339333688475D-03 0.100000000000D+01
-.901575997285D-06 0.000000000000D+00 -.233421040887D-06 0.108553589710D-05 0.000000000000D+00  7 1 21 24 -11 11 -24 1 2 0.12568846D+00 0.26518169D-01 0.44655083D+05 0.44655083D+05 0.44655083D+05 0.11516393D+01  1  2  5  4  7  2       -1 -.440054264022D-03 0.100000000000D+01
  </mgrwgt>
  </event>
  <event>
  8     66 0.27727860E-05 0.11649188E+03 0.75467711E-02 0.10086781E+00
        1 -1    0    0  501    0 0.00000000E+00 0.00000000E+00 0.23135683E+04 0.23135683E+04 0.32000000E+00 0.0000E+00 0.9000E+01
       -1 -1    0    0    0  501 0.00000000E+00 0.00000000E+00 -.31193216E+02 0.31194857E+02 0.32000000E+00 0.0000E+00 0.9000E+01
       25  2    1    2    0    0 0.15566996E+03 -.53330480E+02 0.13646294E+04 0.14069637E+04 0.30042703E+03 0.0000E+00 0.0000E+00
       23  2    1    2    0    0 -.15566996E+03 0.53330480E+02 0.91774573E+03 0.93779944E+03 0.10066428E+03 0.0000E+00 0.0000E+00
       24  1    3    3    0    0 0.88522872E+01 -.26023970E+02 0.10098825E+03 0.13199035E+03 0.80419002E+02 0.0000E+00 0.9000E+01
      -11  1    4    4    0    0 0.12147458E+02 0.25879488E+01 0.24033724E+02 0.27053245E+02 0.51099893E-03 0.0000E+00 0.9000E+01
       11  1    4    4    0    0 -.16781742E+03 0.50742531E+02 0.89371201E+03 0.91074620E+03 0.51099893E-03 0.0000E+00 0.9000E+01
      -24  1    3    3    0    0 0.14681767E+03 -.27306510E+02 0.12636411E+04 0.12749734E+04 0.80419002E+02 0.0000E+00 0.9000E+01
#aMCatNLO 1  0  0  2  1 0.13875632D+03 0.00000000D+00  -5  7  0 0.00000000D+00 0.00000000D+00 0.00000000D+00 0.00000000D+00 0.00000000D+00
  <mgrwgt>
 0.1036861572D-02    9    2    0
 0.268643976467152D+03 0.000000000000000D+00 0.000000000000000D+00 0.268643976467152D+03
 0.268643976467152D+03 0.000000000000000D+00 0.000000000000000D+00 -.268643976467152D+03
 0.147021813561467D+03 0.885228730179177D+01 -.260239697572915D+02 -.119969111508465D+03
 0.159681258618510D+02 0.121474578627225D+02 0.258794880001116D+01 -.100360765253068D+02
 0.178113315723973D+03 -.167817415655923D+03 0.507425310753670D+02 0.314143881178675D+02
 0.196184697787013D+03 0.146817670491409D+03 -.273065101180866D+02 0.985907999159039D+02
 0.000000000000000D+00 0.000000000000000D+00 -.000000000000000D+00 -.000000000000000D+00
 0.327750062531360D+03 0.000000000000000D+00 0.000000000000000D+00 0.327750062531360D+03
 0.373165386360504D+03 0.000000000000000D+00 0.000000000000000D+00 -.373165386360504D+03
 0.144940473993537D+03 0.538616380727950D+01 0.109053459555950D+02 -.119969111508465D+03
 0.168642912894599D+02 0.117576773420163D+02 0.674080946140575D+01 -.100360765253068D+02
 0.201054097543216D+03 -.172318822637232D+03 0.987021262335073D+02 0.314143881178675D+02
 0.192057040693218D+03 0.142208534761703D+03 0.218008655410223D+02 0.985907999159039D+02
 0.145999545372434D+03 0.129664467262334D+02 -.138149147191530D+03 -.454153238291445D+02
0.223932230986D-04 0.000000000000D+00 0.000000000000D+00 0.182438401235D-07 0.000000000000D+00  7 1 -1 24 -11 11 -24 21 0 0.35593371D+00 0.47990843D-02 0.48916293D+05 0.48916293D+05 0.48916293D+05 0.11481334D+01  1  2  2  2  7  2       -1 0.952692122310D-03 0.100000000000D+01
-.118687272669D-05 0.000000000000D+00 -.859958729698D-07 0.182438401235D-07 0.000000000000D+00  7 1 -1 24 -11 11 -24 21 2 0.35593371D+00 0.47990843D-02 0.48916293D+05 0.48916293D+05 0.48916293D+05 0.11481334D+01  1  2  3  2  7  2       -1 -.665617626917D-04 0.100000000000D+01
0.145291759454D-05 0.000000000000D+00 0.000000000000D+00 0.182438401235D-07 0.000000000000D+00  7 1 -1 24 -11 11 -24 21 2 0.35593371D+00 0.47990843D-02 0.48916293D+05 0.48916293D+05 0.48916293D+05 0.11481334D+01  1  2 15  2  7  2       -1 0.814819937839D-04 0.100000000000D+01
0.341817700039D-05 0.000000000000D+00 0.000000000000D+00 0.182438401235D-07 0.000000000000D+00  7 1 -1 24 -11 11 -24 21 2 0.35593371D+00 0.70275999D-02 0.89116556D+05 0.89116556D+05 0.89116556D+05 0.11258518D+01  1  2 12  2  7  2       -1 0.102833005819D-03 0.100000000000D+01
-.951654774805D-05 0.000000000000D+00 0.000000000000D+00 0.182438401235D-07 0.000000000000D+00  7 1 -1 24 -11 11 -24 21 2 0.35593371D+00 0.47990843D-02 0.48916293D+05 0.48916293D+05 0.48916293D+05 0.11481334D+01  1  2  4  2  7  2       -1 -.533703554395D-03 0.100000000000D+01
-.872890626886D-05 0.000000000000D+00 -.768004168614D-05 0.182438401235D-07 0.000000000000D+00  7 1 -1 24 -11 11 -24 21 2 0.35593371D+00 0.86388287D-02 0.48916293D+05 0.48916293D+05 0.48916293D+05 0.11481334D+01  1  2  5  2  7  2       -1 -.203693544159D-03 0.100000000000D+01
0.122286040131D-04 0.000000000000D+00 0.652059988988D-05 0.182438401235D-07 0.000000000000D+00  7 1 -1 24 -11 11 -24 21 2 0.35593371D+00 0.47990843D-02 0.48916293D+05 0.48916293D+05 0.48916293D+05 0.11481334D+01  1  2  6  2  7  2       -1 0.685800103131D-03 0.100000000000D+01
0.157146549371D-06 0.000000000000D+00 0.000000000000D+00 0.182438401235D-07 0.000000000000D+00  7 1 21 24 -11 11 -24 1 2 0.35593371D+00 0.70275999D-02 0.89116556D+05 0.89116556D+05 0.89116556D+05 0.11258518D+01  1  2 12  4  7  2       -1 0.705305662754D-04 0.100000000000D+01
-.154434342719D-06 0.000000000000D+00 -.495137426910D-06 0.182438401235D-07 0.000000000000D+00  7 1 21 24 -11 11 -24 1 2 0.35593371D+00 0.86388287D-02 0.48916293D+05 0.48916293D+05 0.48916293D+05 0.11481334D+01  1  2  5  4  7  2       -1 -.525173577894D-04 0.100000000000D+01
  </mgrwgt>
  </event>
  <event>
  8     66 0.27727860E-05 0.34482422E+03 0.75467711E-02 0.93128718E-01
        1 -1    0    0  501    0 0.00000000E+00 0.00000000E+00 0.48492372E+03 0.48492383E+03 0.32000000E+00 0.0000E+00 0.9000E+01
       -1 -1    0    0    0  501 0.00000000E+00 0.00000000E+00 -.34246738E+03 0.34246753E+03 0.32000000E+00 0.0000E+00 0.9000E+01
       25  2    1    2    0    0 -.12626288E+03 0.28025907E+03 -.82156247E+02 0.43588151E+03 0.29791874E+03 0.0000E+00 0.0000E+00
       23  2    1    2    0    0 0.12626288E+03 -.28025907E+03 0.22461259E+03 0.39150985E+03 0.91332825E+02 0.0000E+00 0.0000E+00
       24  1    3    3    0    0 0.10253389E+02 0.75783652E+02 -.13199380E+03 0.17244672E+03 0.80419002E+02 0.0000E+00 0.9000E+01
      -13  1    4    4    0    0 0.11653674E+03 -.15281191E+03 0.12236975E+03 0.22783033E+03 0.10565837E+00 0.0000E+00 0.9000E+01
       13  1    4    4    0    0 0.97261439E+01 -.12744716E+03 0.10224284E+03 0.16367952E+03 0.10565837E+00 0.0000E+00 0.9000E+01
      -24  1    3    3    0    0 -.13651627E+03 0.20447542E+03 0.49837549E+02 0.26343479E+03 0.80419002E+02 0.0000E+00 0.9000E+01
#aMCatNLO 1  0  0  1  2 0.35743212D+03 0.00000000D+00  -5  7  0 0.00000000D+00 0.00000000D+00 0.00000000D+00 0.00000000D+00 0.00000000D+00
  <mgrwgt>
 0.5508670524D-03    3    2    0
 0.407517682697672D+03 0.000000000000000D+00 0.000000000000000D+00 0.407517682697672D+03
 0.407517682697672D+03 0.000000000000000D+00 0.000000000000000D+00 -.407517682697672D+03
 0.198131623713588D+03 0.102533891236980D+02 0.757836517180109D+02 -.164136012211743D+03
 0.209895879467778D+03 0.116536882060922D+03 -.152811945689784D+03 0.844034631491709D+02
 0.148290267107747D+03 0.972600119636426D+01 -.127447123727616D+03 0.751840333659564D+02
 0.258717595106230D+03 -.136516272380984D+03 0.204475417699389D+03 0.454851569661544D+01
 0.000000000000000D+00 -.000000000000000D+00 -.000000000000000D+00 -.000000000000000D+00
 0.568612914521663D+03 0.000000000000000D+00 0.000000000000000D+00 0.568612914521663D+03
 0.703330866822240D+03 0.000000000000000D+00 0.000000000000000D+00 -.703330866822240D+03
 0.236941371334222D+03 0.890986707429766D+02 0.121633851630344D+03 -.164136012211743D+03
 0.239684099980363D+03 0.198011164522611D+03 -.105432926148443D+03 0.844034631491709D+02
 0.137513840565946D+03 0.615203106891948D+02 -.973276366030128D+02 0.751840333659564D+02
 0.275827185176606D+03 -.396444043973502D+02 0.260808459090223D+03 0.454851569661544D+01
 0.381977284286765D+03 -.308985741557432D+03 -.179681747969112D+03 -.134717952300577D+03
0.263090470137D-04 0.000000000000D+00 0.000000000000D+00 0.920299316003D-07 0.000000000000D+00  7 1 -1 24 -13 13 -24 21 0 0.74603669D-01 0.52687309D-01 0.11890375D+06 0.11890375D+06 0.11890375D+06 0.11156031D+01  1  2  2  1  7  1        1 0.544519575972D-03 0.100000000000D+01
-.141202252140D-05 0.000000000000D+00 -.101033667864D-06 0.920299316003D-07 0.000000000000D+00  7 1 -1 24 -13 13 -24 21 2 0.74603669D-01 0.52687309D-01 0.11890375D+06 0.11890375D+06 0.11890375D+06 0.11156031D+01  1  2  3  1  7  1        1 -.363721894576D-04 0.100000000000D+01
0.165844100264D-05 0.000000000000D+00 0.000000000000D+00 0.920299316003D-07 0.000000000000D+00  7 1 -1 24 -13 13 -24 21 2 0.74603669D-01 0.52687309D-01 0.11890375D+06 0.11890375D+06 0.11890375D+06 0.11156031D+01  1  2 15  1  7  1        1 0.427196658964D-04 0.100000000000D+01
  </mgrwgt>
  </event>
  <event>
  8     66 0.27727860E-05 0.29396651E+03 0.75467711E-02 0.97340204E-01
        3 -1    0    0  501    0 0.00000000E+00 0.00000000E+00 0.74751700E+03 0.74751717E+03 0.50000000E+00 0.0000E+00 0.9000E+01
       -3 -1    0    0    0  501 0.00000000E+00 0.00000000E+00 -.37959110E+03 0.37959143E+03 0.50000000E+00 0.0000E+00 0.9000E+01
       25  2    1    2    0    0 0.16061577E+03 -.20075694E+03 -.23903952E+03 0.46195300E+03 0.30026639E+03 0.0000E+00 0.0000E+00
       23  2    1    2    0    0 -.16061577E+03 0.20075694E+03 0.60696542E+03 0.66515560E+03 0.89017814E+02 0.0000E+00 0.0000E+00
       24  1    3    3    0    0 0.11078697E+03 -.16587163E+03 -.28004668E+03 0.35310127E+03 0.80419002E+02 0.0000E+00 0.9000E+01
      -11  1    4    4    0    0 -.12524515E+02 0.79926255E+02 0.17516680E+03 0.19294682E+03 0.51099893E-03 0.0000E+00 0.9000E+01
       11  1    4    4    0    0 -.14809126E+03 0.12083068E+03 0.43179862E+03 0.47220877E+03 0.51099893E-03 0.0000E+00 0.9000E+01
      -24  1    3    3    0    0 0.49828803E+02 -.34885313E+02 0.41007160E+02 0.10885172E+03 0.80419002E+02 0.0000E+00 0.9000E+01
#aMCatNLO 1  0  0  1  2 0.17528319D+03 0.00000000D+00  -5  7  0 0.00000000D+00 0.00000000D+00 0.00000000D+00 0.00000000D+00 0.00000000D+00
  <mgrwgt>
 0.4287419981D-04    4    2    0
 0.532682906900694D+03 0.000000000000000D+00 0.000000000000000D+00 0.532682906900694D+03
 0.532682906900694D+03 0.000000000000000D+00 0.000000000000000D+00 -.532682906900694D+03
 0.470279692786288D+03 0.110786968267304D+03 -.165871626528140D+03 -.418220784595700D+03
 0.143634815319692D+03 -.125245147947920D+02 0.799262549663146D+02 0.118683994153115D+03
 0.350453023290436D+03 -.148091256650386D+03 0.120830684181966D+03 0.293745207615774D+03
 0.100998282404973D+03 0.498288031778743D+02 -.348853126201406D+02 0.579158282681138D+01
 0.000000000000000D+00 0.000000000000000D+00 0.000000000000000D+00 -.000000000000000D+00
 0.602055004436418D+03 0.000000000000000D+00 0.000000000000000D+00 0.602055004436418D+03
 0.663313314101175D+03 0.000000000000000D+00 0.000000000000000D+00 -.663313314101175D+03
 0.482632994916246D+03 0.550846201388616D+02 -.220282663375421D+03 -.418220784595700D+03
 0.137851098521056D+03 -.289787257297026D+02 0.638534912938043D+02 0.118683994153115D+03
 0.358702804943294D+03 -.189544839262270D+03 0.803380929944990D+02 0.293745207615774D+03
 0.100502184332592D+03 0.380501278688902D+02 -.463909305659312D+02 0.579158282681138D+01
 0.185679235824405D+03 0.125388816984221D+03 0.122482009653049D+03 -.612583096647564D+02
0.865989289565D-04 0.000000000000D+00 0.000000000000D+00 0.187008675823D-05 0.000000000000D+00  7 3 -3 24 -11 11 -24 21 0 0.11500265D+00 0.58398669D-01 0.86416308D+05 0.86416308D+05 0.86416308D+05 0.11269625D+01  1  2  2  1  7  1        3 0.662445530921D-04 0.100000000000D+01
-.274392300227D-05 0.000000000000D+00 -.332562689214D-06 0.187008675823D-05 0.000000000000D+00  7 3 -3 24 -11 11 -24 21 2 0.11500265D+00 0.58398669D-01 0.86416308D+05 0.86416308D+05 0.86416308D+05 0.11269625D+01  1  2  3  1  7  1        3 -.266580592337D-05 0.100000000000D+01
0.528806270047D-05 0.000000000000D+00 0.000000000000D+00 0.187008675823D-05 0.000000000000D+00  7 3 -3 24 -11 11 -24 21 2 0.11500265D+00 0.58398669D-01 0.86416308D+05 0.86416308D+05 0.86416308D+05 0.11269625D+01  1  2 15  1  7  1        3 0.513751619794D-05 0.100000000000D+01
-.265993229275D-04 0.000000000000D+00 0.000000000000D+00 0.187008675823D-05 0.000000000000D+00  7 3 -3 24 -11 11 -24 21 2 0.11500265D+00 0.58398669D-01 0.86416308D+05 0.86416308D+05 0.86416308D+05 0.11269625D+01  1  2  4  1  7  1        3 -.258420635561D-04 0.100000000000D+01
  </mgrwgt>
  </event>
  <event>
  9     66 0.27727860E-05 0.21263031E+03 0.75467711E-02 0.10271349E+00
        3 -1    0    0  501    0 0.00000000E+00 0.00000000E+00 0.21022674E+03 0.21022733E+03 0.50000000E+00 0.0000E+00 0.9000E+01
       -3 -1    0    0    0  502 0.00000000E+00 0.00000000E+00 -.44986961E+03 0.44986989E+03 0.50000000E+00 0.0000E+00 0.9000E+01
       25  2    1    2    0    0 0.21050709E+02 -.59416322E+02 -.44322483E+02 0.31104541E+03 0.30134918E+03 0.0000E+00 0.0000E+00
       23  2    1    2    0    0 0.58961536E+02 0.82584359E+02 -.22378001E+03 0.26102211E+03 0.88081836E+02 0.0000E+00 0.0000E+00
       24  1    3    3    0    0 -.11411594E+03 -.48395944E+02 -.41020632E+02 0.15334446E+03 0.80419002E+02 0.0000E+00 0.9000E+01
      -11  1    4    4    0    0 0.65026012E+02 0.95720936E+02 -.17234045E+03 0.20758639E+03 0.51099893E-03 0.0000E+00 0.9000E+01
       11  1    4    4    0    0 -.60644758E+01 -.13136578E+02 -.51439553E+02 0.53435711E+02 0.51099893E-03 0.0000E+00 0.9000E+01
      -24  1    3    3    0    0 0.13516665E+03 -.11020378E+02 -.33018510E+01 0.15770095E+03 0.80419002E+02 0.0000E+00 0.9000E+01
       21  1    1    2  501  502 -.80012244E+02 -.23168037E+02 0.28459616E+02 0.88029708E+02 0.75000000E+00 0.0000E+00 0.9000E+01
#aMCatNLO 2  0  0  2  1 0.83298963D+02 0.00000000D+00  -5  7  0 0.00000000D+00 0.00000000D+00 0.00000000D+00 0.00000000D+00 0.00000000D+00
  <mgrwgt>
 0.1695543650D-04    1    2    0
 0.249220573609094D+03 0.000000000000000D+00 0.000000000000000D+00 0.249220573609094D+03
 0.249220573609094D+03 0.000000000000000D+00 0.000000000000000D+00 -.249220573609094D+03
 0.174499158072284D+03 -.140127211907559D+03 -.559276682091251D+02 0.349170535021132D+02
 0.130663340000999D+03 0.431677403153603D+02 0.893917396504883D+02 -.849621768703079D+02
 0.352445680234905D+02 -.115201794568312D+02 -.147163103680289D+02 -.298813528742709D+02
 0.158034081121415D+03 0.108479651049030D+03 -.187477610733342D+02 0.799264762424655D+02
 0.000000000000000D+00 -.000000000000000D+00 -.000000000000000D+00 0.000000000000000D+00
 0.349509309917259D+03 0.000000000000000D+00 0.000000000000000D+00 0.349509309917259D+03
 0.270591043888699D+03 0.000000000000000D+00 0.000000000000000D+00 -.270591043888699D+03
 0.151825660648768D+03 -.114115937796997D+03 -.483959439675162D+02 0.349170535021132D+02
 0.143559922575990D+03 0.650260117099124D+02 0.957209364380906D+02 -.849621768703079D+02
 0.332000420711634D+02 -.606447577624640D+01 -.131365778454529D+02 -.298813528742709D+02
 0.176768007765884D+03 0.135166646359309D+03 -.110203776064661D+02 0.799264762424655D+02
 0.114746720744153D+03 -.800122444959785D+02 -.231680370186554D+02 0.789182660285602D+02
0.169798952924D-05 0.000000000000D+00 0.000000000000D+00 0.238955326815D-07 0.254764761465D-10  7 3 -3 24 -11 11 -24 21 2 0.32342502D-01 0.69210477D-01 0.67316674D+05 0.67316674D+05 0.67316674D+05 0.11361055D+01  1  2  1  2  7  2       -3 0.169554365025D-04 0.100000000000D+01
  </mgrwgt>
  </event>
  <event>
  8     66 0.27727860E-05 0.33523633E+03 0.75467711E-02 0.87434344E-01
        1 -1    0    0  501    0 0.00000000E+00 0.00000000E+00 0.14473727E+04 0.14473728E+04 0.32000000E+00 0.0000E+00 0.9000E+01
       -1 -1    0    0    0  501 0.00000000E+00 0.00000000E+00 -.20800280E+03 0.20800305E+03 0.32000000E+00 0.0000E+00 0.9000E+01
       25  2    1    2    0    0 0.25575269E+03 0.15965649E+03 0.12697070E+04 0.13390245E+04 0.29988555E+03 0.0000E+00 0.0000E+00
       23  2    1    2    0    0 -.25575269E+03 -.15965649E+03 -.30337023E+02 0.31635127E+03 0.90874425E+02 0.0000E+00 0.0000E+00
       24  1    3    3    0    0 0.54254080E+02 0.12118074E+02 0.98460328E+02 0.13875159E+03 0.80419002E+02 0.0000E+00 0.9000E+01
      -11  1    4    4    0    0 -.20455036E+03 -.15909532E+03 -.49185134E+01 0.25918403E+03 0.51099893E-03 0.0000E+00 0.9000E+01
       11  1    4    4    0    0 -.51202327E+02 -.56117581E+00 -.25418509E+02 0.57167244E+02 0.51099893E-03 0.0000E+00 0.9000E+01
      -24  1    3    3    0    0 0.20149861E+03 0.14753842E+03 0.11712466E+04 0.12002729E+04 0.80419002E+02 0.0000E+00 0.9000E+01
#aMCatNLO 1  0  0  2  1 0.88603271D+03 0.00000000D+00  -5  7  0 0.00000000D+00 0.00000000D+00 0.00000000D+00 0.00000000D+00 0.00000000D+00
  <mgrwgt>
 0.9654926584D-03    5    2    0
 0.548687357421311D+03 0.000000000000000D+00 0.000000000000000D+00 0.548687357421311D+03
 0.548687357421311D+03 0.000000000000000D+00 0.000000000000000D+00 -.548687357421311D+03
 0.981043787718787D+02 0.542540802207176D+02 0.121180743419892D+02 -.817925629208989D+01
 0.396530761311095D+03 -.204550359916438D+03 -.159095315148636D+03 -.300140759680802D+03
 0.114943608940080D+03 -.512023270204276D+02 -.561175800948895D+00 -.102907920130492D+03
 0.487795965819567D+03 0.201498606716148D+03 0.147538416607596D+03 0.411227936103384D+03
 0.000000000000000D+00 -.000000000000000D+00 0.000000000000000D+00 -.000000000000000D+00
 0.114313855284205D+04 0.000000000000000D+00 0.000000000000000D+00 0.114313855284205D+04
 0.115337350368487D+04 0.000000000000000D+00 0.000000000000000D+00 -.115337350368487D+04
 0.131852812127492D+03 0.819979708566530D+02 -.642446935820919D+02 -.817925629208989D+01
 0.573984817513100D+03 -.874595310797222D+02 -.481378152326310D+03 -.300140759680802D+03
 0.134042013423648D+03 -.211626929052131D+02 -.832427880724890D+02 -.102907920130492D+03
 0.570540589200438D+03 0.329184866596304D+03 -.203907469561409D+03 0.411227936103384D+03
 0.886091824262235D+03 -.302560613468022D+03 0.832773103542300D+03 -.102349508428186D+02
0.106815863502D-03 0.000000000000D+00 0.000000000000D+00 0.108440706099D-04 0.000000000000D+00  7 1 -1 24 -11 11 -24 21 0 0.22267275D+00 0.32000453D-01 0.11238340D+06 0.11238340D+06 0.11238340D+06 0.11175849D+01  1  2  2  2  7  2       -1 0.854269511966D-03 0.100000000000D+01
-.418276512995D-05 0.000000000000D+00 -.410201041109D-06 0.108440706099D-04 0.000000000000D+00  7 1 -1 24 -11 11 -24 21 2 0.22267275D+00 0.32000453D-01 0.11238340D+06 0.11238340D+06 0.11238340D+06 0.11175849D+01  1  2  3  2  7  2       -1 -.417814697413D-04 0.100000000000D+01
0.616195300512D-05 0.000000000000D+00 0.000000000000D+00 0.108440706099D-04 0.000000000000D+00  7 1 -1 24 -11 11 -24 21 2 0.22267275D+00 0.32000453D-01 0.11238340D+06 0.11238340D+06 0.11238340D+06 0.11175849D+01  1  2 15  2  7  2       -1 0.615514964459D-04 0.100000000000D+01
0.966881675634D-04 0.000000000000D+00 -.417289816804D-04 0.108440706099D-04 0.000000000000D+00  7 1 -1 24 -11 11 -24 21 2 0.22267275D+00 0.14912539D+00 0.11238340D+06 0.11238340D+06 0.11238340D+06 0.11175849D+01  1  2  5  2  7  2       -1 0.423090357758D-04 0.100000000000D+01
0.174145235825D-04 0.000000000000D+00 -.778891158510D-05 0.108440706099D-04 0.000000000000D+00  7 1 21 24 -11 11 -24 1 2 0.22267275D+00 0.14912539D+00 0.11238340D+06 0.11238340D+06 0.11238340D+06 0.11175849D+01  1  2  5  4  7  2       -1 0.491440839711D-04 0.100000000000D+01
  </mgrwgt>
  </event>
  <event>
  8     66 0.27727860E-05 0.20241997E+03 0.75467711E-02 0.99390149E-01
        1 -1    0    0  501    0 0.00000000E+00 0.00000000E+00 0.10397112E+04 0.10397113E+04 0.32000000E+00 0.0000E+00 0.9000E+01
       -1 -1    0    0    0  501 0.00000000E+00 0.00000000E+00 -.72516520E+02 0.72517226E+02 0.32000000E+00 0.0000E+00 0.9000E+01
       25  2    1    2    0    0 -.57239097E+02 0.12585901E+03 0.84400106E+03 0.90553688E+03 0.29756082E+03 0.0000E+00 0.0000E+00
       23  2    1    2    0    0 0.57239097E+02 -.12585901E+03 0.12319364E+03 0.20669162E+03 0.91803861E+02 0.0000E+00 0.0000E+00
       24  1    3    3    0    0 0.26091950E+02 0.11543830E+03 0.72565706E+03 0.73962976E+03 0.80419002E+02 0.0000E+00 0.9000E+01
      -13  1    4    4    0    0 0.51638121E+02 -.59088869E+02 0.15705203E+02 0.80029085E+02 0.10565837E+00 0.0000E+00 0.9000E+01
       13  1    4    4    0    0 0.56009755E+01 -.66770136E+02 0.10748844E+03 0.12666253E+03 0.10565837E+00 0.0000E+00 0.9000E+01
      -24  1    3    3    0    0 -.83331047E+02 0.10420703E+02 0.11834400E+03 0.16590712E+03 0.80419002E+02 0.0000E+00 0.9000E+01
#aMCatNLO 1  0  0  2  1 0.21060674D+03 0.00000000D+00  -5  7  0 0.00000000D+00 0.00000000D+00 0.00000000D+00 0.00000000D+00 0.00000000D+00
  <mgrwgt>
 0.1352635612D-02    3    2    0
 0.274584520951471D+03 0.000000000000000D+00 0.000000000000000D+00 0.274584520951471D+03
 0.274584520951471D+03 0.000000000000000D+00 0.000000000000000D+00 -.274584520951471D+03
 0.219942527849426D+03 0.260919487463857D+02 0.115438302164993D+03 0.167035050831568D+03
 0.134422526023042D+03 0.516381823032882D+02 -.590888602141510D+02 -.109139453129563D+03
 0.672204373735792D+02 0.560091504945062D+01 -.667701466194604D+02 -.538186507819346D+01
 0.127583550656896D+03 -.833310460991245D+02 0.104207046686182D+02 -.525137326238111D+02
 0.000000000000000D+00 -.000000000000000D+00 -.000000000000000D+00 0.000000000000000D+00
 0.449694579310884D+03 0.000000000000000D+00 0.000000000000000D+00 0.449694579310884D+03
 0.365344079988133D+03 0.000000000000000D+00 0.000000000000000D+00 -.365344079988133D+03
 0.280922693015032D+03 0.496154003074440D+02 0.205153472655168D+03 0.167035050831568D+03
 0.127071527465224D+03 0.639194157459285D+02 -.122499450457621D+02 -.109139453129563D+03
 0.477697498477325D+02 0.110015018468908D+02 -.461730601748240D+02 -.538186507819346D+01
 0.132404231917245D+03 -.711205556216777D+02 0.569898160130724D+02 -.525137326238111D+02
 0.226870457053783D+03 -.534157622785856D+02 -.203720283447655D+03 0.843504993227505D+02
0.158396565845D-04 0.000000000000D+00 0.000000000000D+00 0.755595798565D-07 0.000000000000D+00  7 1 -1 24 -13 13 -24 21 0 0.15995563D+00 0.11156446D-01 0.40973842D+05 0.40973842D+05 0.40973842D+05 0.11549792D+01  1  2  2  2  7  2       -1 0.132875358783D-02 0.100000000000D+01
-.780506586437D-06 0.000000000000D+00 -.608284519617D-07 0.755595798565D-07 0.000000000000D+00  7 1 -1 24 -13 13 -24 21 2 0.15995563D+00 0.11156446D-01 0.40973842D+05 0.40973842D+05 0.40973842D+05 0.11549792D+01  1  2  3  2  7  2       -1 -.873420938674D-04 0.100000000000D+01
0.993921176441D-06 0.000000000000D+00 0.000000000000D+00 0.755595798565D-07 0.000000000000D+00  7 1 -1 24 -13 13 -24 21 2 0.15995563D+00 0.11156446D-01 0.40973842D+05 0.40973842D+05 0.40973842D+05 0.11549792D+01  1  2 15  2  7  2       -1 0.111224118026D-03 0.100000000000D+01
  </mgrwgt>
  </event>
  <event>
  7     66 0.27727860E-05 0.11685848E+03 0.75467711E-02 0.10663759E+00
        1 -1    0    0  501    0 0.00000000E+00 0.00000000E+00 0.68333153E+03 0.68333161E+03 0.32000000E+00 0.0000E+00 0.9000E+01
       -1 -1    0    0    0  501 0.00000000E+00 0.00000000E+00 -.77709571E+02 0.77710229E+02 0.32000000E+00 0.0000E+00 0.9000E+01
       25  2    1    2    0    0 0.31716529E+02 -.11334972E+02 0.51657911E+03 0.59832353E+03 0.30000442E+03 0.0000E+00 0.0000E+00
       24  1    3    3    0    0 -.65162328E+02 -.52540471E+02 0.41627622E+03 0.43215707E+03 0.80419002E+02 0.0000E+00 0.9000E+01
      -13  1    1    2    0    0 0.29849467E+02 -.43328198E+02 0.45616095E+02 0.69635930E+02 0.10565837E+00 0.0000E+00 0.9000E+01
       13  1    1    2    0    0 -.61565995E+02 0.54663171E+02 0.43426758E+02 0.93082374E+02 0.10565837E+00 0.0000E+00 0.9000E+01
      -24  1    3    3    0    0 0.96878857E+02 0.41205499E+02 0.10030289E+03 0.16616646E+03 0.80419002E+02 0.0000E+00 0.9000E+01
#aMCatNLO 1  0  0  1  2 0.84657710D+01 0.00000000D+00  -5  7  0 0.00000000D+00 0.00000000D+00 0.00000000D+00 0.00000000D+00 0.00000000D+00
  <mgrwgt>
 0.4876716964D-03   11    2    0
 0.230438015508043D+03 0.000000000000000D+00 0.000000000000000D+00 0.230438015508043D+03
 0.230438015508043D+03 0.000000000000000D+00 0.000000000000000D+00 -.230438015508043D+03
 0.166605536667301D+03 -.651607062373558D+02 -.525410385687447D+02 0.119514478296964D+03
 0.550439719879958D+02 0.298465887035840D+02 -.433257485202240D+02 -.161833096162889D+02
 0.966418510984321D+02 -.615661033914105D+02 0.546617880006702D+02 -.506097938100863D+02
 0.142584671262357D+03 0.968802209251823D+02 0.412049990882985D+02 -.527213748705890D+02
 0.000000000000000D+00 -.000000000000000D+00 -.000000000000000D+00 0.000000000000000D+00
 0.236999007734973D+03 0.000000000000000D+00 0.000000000000000D+00 0.236999007734973D+03
 0.233224051304032D+03 0.000000000000000D+00 0.000000000000000D+00 -.233224051304032D+03
 0.165100464840843D+03 -.629403530342538D+02 -.504554157015851D+02 0.119514478296964D+03
 0.549079889334712D+02 0.305825783676520D+02 -.426344184781258D+02 -.161833096162889D+02
 0.965213066514038D+02 -.602731197429955D+02 0.558763138068484D+02 -.506097938100863D+02
 0.144424017348423D+03 0.988013820081222D+02 0.430095847193047D+02 -.527213748705890D+02
 0.926928126486347D+01 -.617048759852497D+01 -.579606434644226D+01 0.377495643094054D+01
0.127671688166D-05 0.000000000000D+00 0.000000000000D+00 0.107840005773D-08 0.000000000000D+00  7 1 -1 24 -13 13 -24 21 0 0.10512798D+00 0.11955375D-01 0.36767576D+05 0.36767576D+05 0.36767576D+05 0.11592269D+01  1  2  2  1  7  1        1 0.187727950650D-03 0.100000000000D+01
-.680154766633D-07 0.000000000000D+00 -.490292899285D-08 0.107840005773D-08 0.000000000000D+00  7 1 -1 24 -13 13 -24 21 2 0.10512798D+00 0.11955375D-01 0.36767576D+05 0.36767576D+05 0.36767576D+05 0.11592269D+01  1  2  3  1  7  1        1 -.134393726249D-04 0.100000000000D+01
0.781576178808D-07 0.000000000000D+00 0.000000000000D+00 0.107840005773D-08 0.000000000000D+00  7 1 -1 24 -13 13 -24 21 2 0.10512798D+00 0.11955375D-01 0.36767576D+05 0.36767576D+05 0.36767576D+05 0.11592269D+01  1  2 15  1  7  1        1 0.154433873246D-04 0.100000000000D+01
0.256090746946D-05 0.000000000000D+00 0.000000000000D+00 0.107840005773D-08 0.000000000000D+00  7 1 -1 24 -13 13 -24 21 2 0.10874362D+00 0.11955375D-01 0.38315377D+05 0.38315377D+05 0.38315377D+05 0.11576042D+01  1  2 12  1  7  1        1 0.480118898303D-03 0.100000000000D+01
-.245584371396D-05 0.000000000000D+00 0.000000000000D+00 0.107840005773D-08 0.000000000000D+00  7 1 -1 24 -13 13 -24 21 2 0.10512798D+00 0.11955375D-01 0.36767576D+05 0.36767576D+05 0.36767576D+05 0.11592269D+01  1  2  4  1  7  1        1 -.485257185565D-03 0.100000000000D+01
-.321544970134D-04 0.000000000000D+00 -.445640937398D-05 0.107840005773D-08 0.000000000000D+00  7 1 -1 24 -13 13 -24 21 2 0.10906036D+00 0.11955375D-01 0.36767576D+05 0.36767576D+05 0.36767576D+05 0.11592269D+01  1  2  5  1  7  1        1 -.601826966173D-02 0.100000000000D+01
0.322993712576D-04 0.000000000000D+00 0.445340615823D-05 0.107840005773D-08 0.000000000000D+00  7 1 -1 24 -13 13 -24 21 2 0.10512798D+00 0.11955375D-01 0.36767576D+05 0.36767576D+05 0.36767576D+05 0.11592269D+01  1  2  6  1  7  1        1 0.638212517470D-02 0.100000000000D+01
0.113936606807D-07 0.000000000000D+00 0.000000000000D+00 0.107840005773D-08 0.107580060151D-09  7 1 -1 24 -13 13 -24 21 2 0.10812117D+00 0.12099918D-01 0.38315377D+05 0.38315377D+05 0.38315377D+05 0.11576042D+01  1  2 11  1  7  1        1 0.211504710294D-05 0.100000000000D+01
0.522903542199D-07 0.000000000000D+00 0.000000000000D+00 0.107840005773D-08 0.000000000000D+00  7 21 -1 24 -13 13 -24 -1 2 0.10874362D+00 0.11955375D-01 0.38315377D+05 0.38315377D+05 0.38315377D+05 0.11576042D+01  1  2 12  3  7  1        1 0.212842389056D-04 0.100000000000D+01
-.207547548784D-06 0.000000000000D+00 -.290629737273D-07 0.107840005773D-08 0.000000000000D+00  7 21 -1 24 -13 13 -24 -1 2 0.10906036D+00 0.11955375D-01 0.36767576D+05 0.36767576D+05 0.36767576D+05 0.11592269D+01  1  2  5  3  7  1        1 -.842069072957D-04 0.100000000000D+01
0.742737878538D-10 0.000000000000D+00 0.000000000000D+00 0.107840005773D-08 0.547878447907D-12  7 21 -1 24 -13 13 -24 -1 2 0.10812117D+00 0.12099918D-01 0.38315377D+05 0.38315377D+05 0.38315377D+05 0.11576042D+01  1  2 11  3  7  1        1 0.301266560746D-07 0.100000000000D+01
  </mgrwgt>
  </event>
  <event>
  8     66 0.27727860E-05 0.13186721E+03 0.75467711E-02 0.10727552E+00
        1 -1    0    0  501    0 0.00000000E+00 0.00000000E+00 0.50755124E+03 0.50755134E+03 0.32000000E+00 0.0000E+00 0.9000E+01
       -1 -1    0    0    0  501 0.00000000E+00 0.00000000E+00 -.83256301E+02 0.83256916E+02 0.32000000E+00 0.0000E+00 0.9000E+01
       25  2    1    2    0    0 -.13562812E+02 -.62119592E+00 0.23700301E+03 0.38377965E+03 0.30154943E+03 0.0000E+00 0.0000E+00
       23  2    1    2    0    0 0.13562812E+02 0.62119592E+00 0.18729193E+03 0.20702861E+03 0.87167896E+02 0.0000E+00 0.0000E+00
       24  1    3    3    0    0 0.55531998E+02 -.89338688E+02 0.31503501E+02 0.13610617E+03 0.80419002E+02 0.0000E+00 0.9000E+01
      -13  1    4    4    0    0 -.20031105E+01 0.35112753E+02 0.33223753E+02 0.48381265E+02 0.10565837E+00 0.0000E+00 0.9000E+01
       13  1    4    4    0    0 0.15565923E+02 -.34491557E+02 0.15406817E+03 0.15864734E+03 0.10565837E+00 0.0000E+00 0.9000E+01
      -24  1    3    3    0    0 -.69094810E+02 0.88717492E+02 0.20549951E+03 0.24767348E+03 0.80419002E+02 0.0000E+00 0.9000E+01
#aMCatNLO 1  0  0  1  2 0.31124192D+02 0.00000000D+00  -5  7  0 0.00000000D+00 0.00000000D+00 0.00000000D+00 0.00000000D+00 0.00000000D+00
  <mgrwgt>
 0.1398812851D-02    9    2    0
 0.205565197240541D+03 0.000000000000000D+00 0.000000000000000D+00 0.205565197240541D+03
 0.205565197240541D+03 0.000000000000000D+00 0.000000000000000D+00 -.205565197240541D+03
 0.163077187669286D+03 0.555318647873595D+02 -.893386943056571D+02 -.951932921835978D+02
 0.352374626737609D+02 -.200298173234703D+01 0.351124887221685D+02 -.218631553078875D+01
 0.689803555426516D+02 0.155660443125227D+02 -.344912813396013D+02 0.576744243734056D+02
 0.143835388595384D+03 -.690949273675352D+02 0.887174869230898D+02 0.397051833409809D+02
 0.000000000000000D+00 -.000000000000000D+00 -.000000000000000D+00 0.000000000000000D+00
 0.253410838071069D+03 0.000000000000000D+00 0.000000000000000D+00 0.253410838071069D+03
 0.211278084333826D+03 0.000000000000000D+00 0.000000000000000D+00 -.211278084333826D+03
 0.161089373786697D+03 0.634378590940023D+02 -.799777815986253D+02 -.951932921835978D+02
 0.372712311985305D+02 -.234590451143661D+00 0.372063121899279D+02 -.218631553078875D+01
 0.679432463177571D+02 0.189054301266897D+02 -.305373575333000D+02 0.576744243734056D+02
 0.146002972099863D+03 -.620261525401400D+02 0.970871089514427D+02 0.397051833409809D+02
 0.523820990020465D+02 -.200825462294083D+02 -.237782820094453D+02 0.421327537372431D+02
0.509350528831D-05 0.000000000000D+00 0.000000000000D+00 0.561871431910D-08 0.000000000000D+00  7 1 -1 24 -13 13 -24 21 0 0.78084861D-01 0.12808717D-01 0.29526797D+05 0.29526797D+05 0.29526797D+05 0.11679771D+01  1  2  2  1  7  1        1 0.102248957461D-02 0.100000000000D+01
-.271919555701D-06 0.000000000000D+00 -.195604014578D-07 0.561871431910D-08 0.000000000000D+00  7 1 -1 24 -13 13 -24 21 2 0.78084861D-01 0.12808717D-01 0.29526797D+05 0.29526797D+05 0.29526797D+05 0.11679771D+01  1  2  3  1  7  1        1 -.744648349480D-04 0.100000000000D+01
0.301351509920D-06 0.000000000000D+00 0.000000000000D+00 0.561871431910D-08 0.000000000000D+00  7 1 -1 24 -13 13 -24 21 2 0.78084861D-01 0.12808717D-01 0.29526797D+05 0.29526797D+05 0.29526797D+05 0.11679771D+01  1  2 15  1  7  1        1 0.825247393101D-04 0.100000000000D+01
0.150938837603D-04 0.000000000000D+00 0.000000000000D+00 0.561871431910D-08 0.000000000000D+00  7 1 -1 24 -13 13 -24 21 2 0.97169807D-01 0.12808717D-01 0.35100284D+05 0.35100284D+05 0.35100284D+05 0.11610616D+01  1  2 12  1  7  1        1 0.301656764969D-02 0.100000000000D+01
-.153441692778D-04 0.000000000000D+00 0.000000000000D+00 0.561871431910D-08 0.000000000000D+00  7 1 -1 24 -13 13 -24 21 2 0.78084861D-01 0.12808717D-01 0.29526797D+05 0.29526797D+05 0.29526797D+05 0.11679771D+01  1  2  4  1  7  1        1 -.420198183150D-02 0.100000000000D+01
-.209537705061D-04 0.000000000000D+00 -.335557797911D-05 0.561871431910D-08 0.000000000000D+00  7 1 -1 24 -13 13 -24 21 2 0.97813127D-01 0.12808717D-01 0.29526797D+05 0.29526797D+05 0.29526797D+05 0.11679771D+01  1  2  5  1  7  1        1 -.419353318890D-02 0.100000000000D+01
0.212515591909D-04 0.000000000000D+00 0.327220517780D-05 0.561871431910D-08 0.000000000000D+00  7 1 -1 24 -13 13 -24 21 2 0.78084861D-01 0.12808717D-01 0.29526797D+05 0.29526797D+05 0.29526797D+05 0.11679771D+01  1  2  6  1  7  1        1 0.581971327315D-02 0.100000000000D+01
0.462269022315D-06 0.000000000000D+00 0.000000000000D+00 0.561871431910D-08 0.000000000000D+00  7 21 -1 24 -13 13 -24 -1 2 0.97169807D-01 0.12808717D-01 0.35100284D+05 0.35100284D+05 0.35100284D+05 0.11610616D+01  1  2 12  3  7  1        1 0.227753498745D-03 0.100000000000D+01
-.608946693630D-06 0.000000000000D+00 -.105093696505D-06 0.561871431910D-08 0.000000000000D+00  7 21 -1 24 -13 13 -24 -1 2 0.97813127D-01 0.12808717D-01 0.29526797D+05 0.29526797D+05 0.29526797D+05 0.11679771D+01  1  2  5  3  7  1        1 -.300256029447D-03 0.100000000000D+01
  </mgrwgt>
  </event>
  <event>
  8     66 0.27727860E-05 0.19935606E+03 0.75467711E-02 0.94015165E-01
        1 -1    0    0  501    0 0.00000000E+00 0.00000000E+00 0.47022703E+03 0.47022714E+03 0.32000000E+00 0.0000E+00 0.9000E+01
       -1 -1    0    0    0  501 0.00000000E+00 0.00000000E+00 -.10952426E+03 0.10952473E+03 0.32000000E+00 0.0000E+00 0.9000E+01
       25  2    1    2    0    0 -.37145286E+02 -.83712948E+02 0.31970714E+03 0.44376775E+03 0.29381887E+03 0.0000E+00 0.0000E+00
       23  2    1    2    0    0 0.37145286E+02 0.83712948E+02 0.40995630E+02 0.13598413E+03 0.91779145E+02 0.0000E+00 0.0000E+00
       24  1    3    3    0    0 0.83013118E+02 -.67600261E+02 0.61385379E+02 0.14729682E+03 0.80419002E+02 0.0000E+00 0.9000E+01
      -13  1    4    4    0    0 0.55017865E+02 0.29871837E+02 -.52063012E+01 0.62820449E+02 0.10565837E+00 0.0000E+00 0.9000E+01
       13  1    4    4    0    0 -.17872579E+02 0.53841111E+02 0.46201931E+02 0.73163679E+02 0.10565837E+00 0.0000E+00 0.9000E+01
      -24  1    3    3    0    0 -.12015840E+03 -.16112687E+02 0.25832176E+03 0.29647092E+03 0.80419002E+02 0.0000E+00 0.9000E+01
#aMCatNLO 1  0  0  2  1 0.45592900D+03 0.00000000D+00  -5  7  0 0.00000000D+00 0.00000000D+00 0.00000000D+00 0.00000000D+00 0.00000000D+00
  <mgrwgt>
 0.1171382719D-02    3    2    0
 0.226939280037928D+03 0.000000000000000D+00 0.000000000000000D+00 0.226939280037928D+03
 0.226939280037928D+03 0.000000000000000D+00 0.000000000000000D+00 -.226939280037928D+03
 0.139362680183249D+03 0.830131136377214D+02 -.676002713288165D+02 -.386492814154294D+02
 0.843798751323944D+02 0.550179498821350D+02 0.298718288245488D+02 -.565743966896882D+02
 0.567367515593075D+02 -.178726542365534D+02 0.538411415094339D+02 0.871027556571892D+00
 0.173399253200904D+03 -.120158409283303D+03 -.161126990051662D+02 0.943526505485458D+02
 0.000000000000000D+00 0.000000000000000D+00 -.000000000000000D+00 0.000000000000000D+00
 0.643624459266791D+03 0.000000000000000D+00 0.000000000000000D+00 0.643624459266791D+03
 0.483078089539167D+03 0.000000000000000D+00 0.000000000000000D+00 -.483078089539167D+03
 0.925340673052701D+02 -.308740106714185D+01 -.243318445335995D+02 -.386492814154294D+02
 0.836930672701605D+02 -.738554221314458D+01 0.612316986086722D+02 -.565743966896882D+02
 0.120746220250801D+03 -.837699787557586D+02 0.869567805010651D+02 0.871027556571892D+00
 0.346359371049816D+03 -.313138628087339D+03 0.808664015132163D+02 0.943526505485458D+02
 0.483369822929911D+03 0.407381550123384D+03 -.204723036089354D+03 0.160546369727624D+03
0.796556178688D-05 0.000000000000D+00 0.000000000000D+00 0.440834521012D-08 0.000000000000D+00  7 1 -1 24 -13 13 -24 21 0 0.72342665D-01 0.16849931D-01 0.39742838D+05 0.39742838D+05 0.39742838D+05 0.11561706D+01  1  2  2  2  7  2       -1 0.116270588789D-02 0.100000000000D+01
-.433495368869D-06 0.000000000000D+00 -.305898546422D-07 0.440834521012D-08 0.000000000000D+00  7 1 -1 24 -13 13 -24 21 2 0.72342665D-01 0.16849931D-01 0.39742838D+05 0.39742838D+05 0.39742838D+05 0.11561706D+01  1  2  3  2  7  2       -1 -.845827421547D-04 0.100000000000D+01
0.477965032460D-06 0.000000000000D+00 0.000000000000D+00 0.440834521012D-08 0.000000000000D+00  7 1 -1 24 -13 13 -24 21 2 0.72342665D-01 0.16849931D-01 0.39742838D+05 0.39742838D+05 0.39742838D+05 0.11561706D+01  1  2 15  2  7  2       -1 0.932595732337D-04 0.100000000000D+01
  </mgrwgt>
  </event>
  <event>
  8     66 0.27727860E-05 0.66610218E+02 0.75467711E-02 0.10052317E+00
        1 -1    0    0  501    0 0.00000000E+00 0.00000000E+00 0.18154951E+04 0.18154951E+04 0.32000000E+00 0.0000E+00 0.9000E+01
       -1 -1    0    0    0  501 0.00000000E+00 0.00000000E+00 -.62153312E+02 0.62154135E+02 0.32000000E+00 0.0000E+00 0.9000E+01
       25  2    1    2    0    0 0.15857300E+03 -.70777708E+01 0.16086988E+04 0.16444262E+04 0.30171194E+03 0.0000E+00 0.0000E+00
       23  2    1    2    0    0 -.15857300E+03 0.70777708E+01 0.14464300E+03 0.23322311E+03 0.90972149E+02 0.0000E+00 0.0000E+00
       24  1    3    3    0    0 -.61988419E+02 0.86610088E+01 0.60456995E+03 0.61309837E+03 0.80419002E+02 0.0000E+00 0.9000E+01
      -13  1    4    4    0    0 -.46167352E+01 0.23677423E+02 0.48458696E+01 0.24605451E+02 0.10565837E+00 0.0000E+00 0.9000E+01
       13  1    4    4    0    0 -.15395626E+03 -.16599653E+02 0.13979713E+03 0.20861766E+03 0.10565837E+00 0.0000E+00 0.9000E+01
      -24  1    3    3    0    0 0.22056142E+03 -.15738780E+02 0.10041289E+04 0.10313278E+04 0.80419002E+02 0.0000E+00 0.9000E+01
#aMCatNLO 1  0  0  2  1 0.99364312D+02 0.00000000D+00  -5  7  0 0.00000000D+00 0.00000000D+00 0.00000000D+00 0.00000000D+00 0.00000000D+00
  <mgrwgt>
 0.4435708845D-03    9    2    0
 0.335916408165062D+03 0.000000000000000D+00 0.000000000000000D+00 0.335916408165062D+03
 0.335916408165062D+03 0.000000000000000D+00 0.000000000000000D+00 -.335916408165062D+03
 0.135697382831151D+03 -.619884191139124D+02 0.866100874975150D+01 0.896046124708320D+02
 0.561208005617822D+02 -.461653417809603D+01 0.236774775262848D+02 -.506715790741721D+02
 0.218207248078928D+03 -.153956463052825D+03 -.165997066984362D+02 -.153740887001372D+03
 0.261807384858263D+03 0.220561416344833D+03 -.157387795776001D+02 0.114807853604712D+03
 0.000000000000000D+00 -.000000000000000D+00 0.000000000000000D+00 -.000000000000000D+00
 0.348757009945913D+03 0.000000000000000D+00 0.000000000000000D+00 0.348757009945913D+03
 0.608260899531354D+03 0.000000000000000D+00 0.000000000000000D+00 -.608260899531354D+03
 0.127951864580665D+03 -.426223863740397D+02 0.766872212512849D+01 0.896046124708320D+02
 0.558701977955224D+02 0.360962751987734D+01 0.232559812738243D+02 -.506715790741721D+02
 0.197966173411189D+03 -.123386953808395D+03 -.181660427442327D+02 -.153740887001372D+03
 0.297352839095094D+03 0.261633846136377D+03 -.178432696024985D+02 0.114807853604712D+03
 0.277876834594797D+03 -.992341334738197D+02 0.508460894777844D+01 -.259503889585440D+03
0.185702972010D-04 0.000000000000D+00 0.000000000000D+00 0.229164439399D-06 0.000000000000D+00  7 1 -1 24 -13 13 -24 21 0 0.27930701D+00 0.95621135D-02 0.66607811D+05 0.66607811D+05 0.66607811D+05 0.11364981D+01  1  2  2  2  7  2       -1 0.591233713881D-03 0.100000000000D+01
-.944540230815D-06 0.000000000000D+00 -.713148309234D-07 0.229164439399D-06 0.000000000000D+00  7 1 -1 24 -13 13 -24 21 2 0.27930701D+00 0.95621135D-02 0.66607811D+05 0.66607811D+05 0.66607811D+05 0.11364981D+01  1  2  3  2  7  2       -1 -.388416999591D-04 0.100000000000D+01
0.113424452731D-05 0.000000000000D+00 0.000000000000D+00 0.229164439399D-06 0.000000000000D+00  7 1 -1 24 -13 13 -24 21 2 0.27930701D+00 0.95621135D-02 0.66607811D+05 0.66607811D+05 0.66607811D+05 0.11364981D+01  1  2 15  2  7  2       -1 0.466427836240D-04 0.100000000000D+01
0.450603650829D-04 0.000000000000D+00 0.000000000000D+00 0.229164439399D-06 0.000000000000D+00  7 1 -1 24 -13 13 -24 21 2 0.27930701D+00 0.17361852D-01 0.94018701D+05 0.94018701D+05 0.94018701D+05 0.11239268D+01  1  2 12  2  7  2       -1 0.710691253596D-03 0.100000000000D+01
-.476376755184D-04 0.000000000000D+00 0.000000000000D+00 0.229164439399D-06 0.000000000000D+00  7 1 -1 24 -13 13 -24 21 2 0.27930701D+00 0.95621135D-02 0.66607811D+05 0.66607811D+05 0.66607811D+05 0.11364981D+01  1  2  4  2  7  2       -1 -.195897245969D-02 0.100000000000D+01
-.518614638263D-04 0.000000000000D+00 -.617698029974D-05 0.229164439399D-06 0.000000000000D+00  7 1 -1 24 -13 13 -24 21 2 0.27930701D+00 0.17904916D-01 0.66607811D+05 0.66607811D+05 0.66607811D+05 0.11364981D+01  1  2  5  2  7  2       -1 -.806150642978D-03 0.100000000000D+01
0.471878082875D-04 0.000000000000D+00 0.513350593008D-05 0.229164439399D-06 0.000000000000D+00  7 1 -1 24 -13 13 -24 21 2 0.27930701D+00 0.95621135D-02 0.66607811D+05 0.66607811D+05 0.66607811D+05 0.11364981D+01  1  2  6  2  7  2       -1 0.194047286863D-02 0.100000000000D+01
0.294223637949D-05 0.000000000000D+00 0.000000000000D+00 0.229164439399D-06 0.000000000000D+00  7 1 21 24 -13 13 -24 1 2 0.27930701D+00 0.17361852D-01 0.94018701D+05 0.94018701D+05 0.94018701D+05 0.11239268D+01  1  2 12  4  7  2       -1 0.581514573195D-03 0.100000000000D+01
-.319508974088D-05 0.000000000000D+00 -.421844879818D-06 0.229164439399D-06 0.000000000000D+00  7 1 21 24 -13 13 -24 1 2 0.27930701D+00 0.17904916D-01 0.66607811D+05 0.66607811D+05 0.66607811D+05 0.11364981D+01  1  2  5  4  7  2       -1 -.623019505758D-03 0.100000000000D+01
  </mgrwgt>
  </event>
  <event>
  8     66 0.27727860E-05 0.57097297E+03 0.75467711E-02 0.85948462E-01
        1 -1    0    0  501    0 0.00000000E+00 0.00000000E+00 0.21869243E+04 0.21869243E+04 0.32000000E+00 0.0000E+00 0.9000E+01
       -1 -1    0    0    0  501 0.00000000E+00 0.00000000E+00 -.40020161E+03 0.40020174E+03 0.32000000E+00 0.0000E+00 0.9000E+01
       25  2    1    2    0    0 0.77805663E+03 0.43269308E+03 0.66019722E+03 0.11483767E+04 0.30052148E+03 0.0000E+00 0.0000E+00
       23  2    1    2    0    0 -.77805663E+03 -.43269308E+03 0.11265255E+04 0.14387494E+04 0.91349965E+02 0.0000E+00 0.0000E+00
       24  1    3    3    0    0 0.32956510E+03 0.56741666E+02 0.18699266E+03 0.39149232E+03 0.80419002E+02 0.0000E+00 0.9000E+01
      -11  1    4    4    0    0 -.17287924E+03 -.79638096E+02 0.18786042E+03 0.26743409E+03 0.51099893E-03 0.0000E+00 0.9000E+01
       11  1    4    4    0    0 -.60517739E+03 -.35305498E+03 0.93866507E+03 0.11713153E+04 0.51099893E-03 0.0000E+00 0.9000E+01
      -24  1    3    3    0    0 0.44849153E+03 0.37595141E+03 0.47320456E+03 0.75688433E+03 0.80419002E+02 0.0000E+00 0.9000E+01
#aMCatNLO 1  0  0  1  2 0.44794841D+03 0.00000000D+00  -5  7  0 0.00000000D+00 0.00000000D+00 0.00000000D+00 0.00000000D+00 0.00000000D+00
  <mgrwgt>
 0.1123882462D-02    8    2    0
 0.935527034256738D+03 0.000000000000000D+00 0.000000000000000D+00 0.935527034256738D+03
 0.935527034256738D+03 0.000000000000000D+00 0.000000000000000D+00 -.935527034256738D+03
 0.362755940141321D+03 0.329565098234430D+03 0.567416657176378D+02 -.115290439979912D+03
 0.190390673151889D+03 -.172879239220949D+03 -.796380960701453D+02 0.437615401207333D+01
 0.723232039088466D+03 -.605177391081979D+03 -.353054979607177D+03 0.179379734256260D+03
 0.594675416131799D+03 0.448491532068499D+03 0.375951409959684D+03 -.684654482884208D+02
 0.000000000000000D+00 0.000000000000000D+00 0.000000000000000D+00 0.000000000000000D+00
 0.172344019267061D+04 0.000000000000000D+00 0.000000000000000D+00 0.172344019267061D+04
 0.102784219228994D+04 0.000000000000000D+00 0.000000000000000D+00 -.102784219228994D+04
 0.293679713160011D+03 0.252128678245059D+03 0.540351924491180D+02 -.115290439979912D+03
 0.237800635346903D+03 -.223390819196770D+03 -.814035217054474D+02 0.437615401207333D+01
 0.891419309621426D+03 -.795649708279087D+03 -.359712160233008D+03 0.179379734256260D+03
 0.501028901301091D+03 0.319236792046096D+03 0.371433839303033D+03 -.684654482884208D+02
 0.827353825531118D+03 0.447675057184701D+03 0.156466501863045D+02 0.695598000380678D+03
0.765126458460D-03 0.000000000000D+00 0.000000000000D+00 0.165859220083D-04 0.000000000000D+00  7 1 -1 24 -11 11 -24 21 0 0.33644991D+00 0.61569490D-01 0.83324281D+06 0.83324281D+06 0.83324281D+06 0.10531790D+01  1  2  2  1  7  1        1 0.548217091858D-03 0.100000000000D+01
-.424758259700D-04 0.000000000000D+00 -.293828706291D-05 0.165859220083D-04 0.000000000000D+00  7 1 -1 24 -11 11 -24 21 2 0.33644991D+00 0.61569490D-01 0.83324281D+06 0.83324281D+06 0.83324281D+06 0.10531790D+01  1  2  3  1  7  1        1 -.337571337227D-04 0.100000000000D+01
0.485619819675D-04 0.000000000000D+00 0.000000000000D+00 0.165859220083D-04 0.000000000000D+00  7 1 -1 24 -11 11 -24 21 2 0.33644991D+00 0.61569490D-01 0.83324281D+06 0.83324281D+06 0.83324281D+06 0.10531790D+01  1  2 15  1  7  1        1 0.385940304086D-04 0.100000000000D+01
0.468173409449D-03 0.000000000000D+00 0.000000000000D+00 0.165859220083D-04 0.000000000000D+00  7 1 -1 24 -11 11 -24 21 2 0.62386379D+00 0.61569490D-01 0.13517850D+07 0.13517850D+07 0.13517850D+07 0.10392595D+01  1  2 12  1  7  1        1 0.117981093044D-04 0.100000000000D+01
-.726983235782D-03 0.000000000000D+00 -.184440694593D-03 0.165859220083D-04 0.000000000000D+00  7 1 -1 24 -11 11 -24 21 2 0.62901214D+00 0.61569490D-01 0.83324281D+06 0.83324281D+06 0.83324281D+06 0.10531790D+01  1  2  5  1  7  1        1 -.183319240764D-04 0.100000000000D+01
0.726498577492D-03 0.000000000000D+00 0.153416580446D-03 0.165859220083D-04 0.000000000000D+00  7 1 -1 24 -11 11 -24 21 2 0.33644991D+00 0.61569490D-01 0.83324281D+06 0.83324281D+06 0.83324281D+06 0.10531790D+01  1  2  6  1  7  1        1 0.577375697110D-03 0.100000000000D+01
0.315229460435D-04 0.000000000000D+00 0.000000000000D+00 0.165859220083D-04 0.000000000000D+00  7 21 -1 24 -11 11 -24 -1 2 0.62386379D+00 0.61569490D-01 0.13517850D+07 0.13517850D+07 0.13517850D+07 0.10392595D+01  1  2 12  3  7  1        1 0.590896126085D-07 0.100000000000D+01
-.392038494134D-04 0.000000000000D+00 -.125675471212D-04 0.165859220083D-04 0.000000000000D+00  7 21 -1 24 -11 11 -24 -1 2 0.62901214D+00 0.61569490D-01 0.83324281D+06 0.83324281D+06 0.83324281D+06 0.10531790D+01  1  2  5  3  7  1        1 -.724986065513D-07 0.100000000000D+01
  </mgrwgt>
  </event>
  <event>
  8     66 0.27727860E-05 0.62519656E+03 0.75467711E-02 0.87210836E-01
        1 -1    0    0  501    0 0.00000000E+00 0.00000000E+00 0.20014380E+04 0.20014380E+04 0.32000000E+00 0.0000E+00 0.9000E+01
       -1 -1    0    0    0  501 0.00000000E+00 0.00000000E+00 -.21217316E+03 0.21217340E+03 0.32000000E+00 0.0000E+00 0.9000E+01
       25  2    1    2    0    0 -.60772974E+03 -.38884375E+02 0.10600095E+04 0.12585647E+04 0.29919472E+03 0.0000E+00 0.0000E+00
       23  2    1    2    0    0 0.60772974E+03 0.38884375E+02 0.72925530E+03 0.95504671E+03 0.97229104E+02 0.0000E+00 0.0000E+00
       24  1    3    3    0    0 -.23286867E+03 0.39860433E+02 0.22349073E+03 0.33501044E+03 0.80419002E+02 0.0000E+00 0.9000E+01
      -13  1    4    4    0    0 0.49857958E+03 0.22771859E+02 0.53510553E+03 0.73173636E+03 0.10565837E+00 0.0000E+00 0.9000E+01
       13  1    4    4    0    0 0.10915015E+03 0.16112516E+02 0.19414976E+03 0.22331035E+03 0.10565837E+00 0.0000E+00 0.9000E+01
      -24  1    3    3    0    0 -.37486107E+03 -.78744808E+02 0.83651880E+03 0.92355427E+03 0.80419002E+02 0.0000E+00 0.9000E+01
#aMCatNLO 1  0  0  2  2 0.63092269D+03 0.00000000D+00  -5  7  0 0.00000000D+00 0.00000000D+00 0.00000000D+00 0.00000000D+00 0.00000000D+00
  <mgrwgt>
 0.1039332603D-02    3    2    0
 0.651653062478933D+03 0.000000000000000D+00 0.000000000000000D+00 0.651653062478933D+03
 0.651653062478933D+03 0.000000000000000D+00 0.000000000000000D+00 -.651653062478933D+03
 0.262178480623298D+03 -.232868665230903D+03 0.398604333098295D+02 -.803347394188884D+02
 0.508196075976110D+03 0.498580044787000D+03 0.227718673301566D+02 -.957216414193094D+02
 0.112741262151134D+03 0.109149691368054D+03 0.161125074044675D+02 0.231802538991763D+02
 0.420190306207325D+03 -.374861070924151D+03 -.787448080444537D+02 0.152876126939022D+03
 0.000000000000000D+00 0.000000000000000D+00 -.000000000000000D+00 0.000000000000000D+00
 0.141096501891220D+04 0.000000000000000D+00 0.000000000000000D+00 0.141096501891220D+04
 0.868856021405546D+03 0.000000000000000D+00 0.000000000000000D+00 -.868856021405546D+03
 0.382267402703493D+03 -.333640758312415D+03 0.147957173704149D+03 -.803347394188884D+02
 0.408094265900385D+03 0.355299595628717D+03 0.176466695358750D+03 -.957216414193094D+02
 0.949319554167840D+02 0.766758012358718D+02 0.509467711760135D+02 0.231802538991763D+02
 0.562694737629497D+03 -.528554942959834D+03 0.861203453686099D+02 0.152876126939022D+03
 0.831832678667587D+03 0.430220304407661D+03 -.461490985607522D+03 0.542108997506655D+03
0.328547664047D-03 0.000000000000D+00 0.000000000000D+00 0.201870810587D-06 0.000000000000D+00  7 1 -1 24 -13 13 -24 21 0 0.30791356D+00 0.32642045D-01 0.39087074D+06 0.39087074D+06 0.39087074D+06 0.10761512D+01  1  2  2  2  7  2       -1 0.103139400980D-02 0.100000000000D+01
-.182145258903D-04 0.000000000000D+00 -.126170953853D-05 0.201870810587D-06 0.000000000000D+00  7 1 -1 24 -13 13 -24 21 2 0.30791356D+00 0.32642045D-01 0.39087074D+06 0.39087074D+06 0.39087074D+06 0.10761512D+01  1  2  3  2  7  2       -1 -.662202285784D-04 0.100000000000D+01
0.203981142181D-04 0.000000000000D+00 0.000000000000D+00 0.201870810587D-06 0.000000000000D+00  7 1 -1 24 -13 13 -24 21 2 0.30791356D+00 0.32642045D-01 0.39087074D+06 0.39087074D+06 0.39087074D+06 0.10761512D+01  1  2 15  2  7  2       -1 0.741588221522D-04 0.100000000000D+01
  </mgrwgt>
  </event>
  <event>
  8     66 0.27727860E-05 0.25530986E+03 0.75467711E-02 0.93550052E-01
        1 -1    0    0  501    0 0.00000000E+00 0.00000000E+00 0.13850025E+04 0.13850026E+04 0.32000000E+00 0.0000E+00 0.9000E+01
       -1 -1    0    0    0  501 0.00000000E+00 0.00000000E+00 -.16782479E+03 0.16782510E+03 0.32000000E+00 0.0000E+00 0.9000E+01
       25  2    1    2    0    0 -.11652188E+03 0.40955165E+03 0.75953763E+03 0.92111884E+03 0.30042072E+03 0.0000E+00 0.0000E+00
       23  2    1    2    0    0 0.11652188E+03 -.40955165E+03 0.45764012E+03 0.63170884E+03 0.91168423E+02 0.0000E+00 0.0000E+00
       24  1    3    3    0    0 0.64949622E+02 0.16215638E+03 0.38474589E+03 0.43012761E+03 0.80419002E+02 0.0000E+00 0.9000E+01
      -13  1    4    4    0    0 -.66309454E+01 -.11375842E+03 0.10087393E+03 0.15218577E+03 0.10565837E+00 0.0000E+00 0.9000E+01
       13  1    4    4    0    0 0.12315282E+03 -.29579323E+03 0.35676619E+03 0.47952308E+03 0.10565837E+00 0.0000E+00 0.9000E+01
      -24  1    3    3    0    0 -.18147150E+03 0.24739526E+03 0.37479174E+03 0.49099123E+03 0.80419002E+02 0.0000E+00 0.9000E+01
#aMCatNLO 1  0  0  1  2 0.14692493D+03 0.00000000D+00  -5  7  0 0.00000000D+00 0.00000000D+00 0.00000000D+00 0.00000000D+00 0.00000000D+00
  <mgrwgt>
 0.5604271242D-03    9    2    0
 0.482118276607061D+03 0.000000000000000D+00 0.000000000000000D+00 0.482118276607061D+03
 0.482118276607061D+03 0.000000000000000D+00 0.000000000000000D+00 -.482118276607061D+03
 0.207013437481555D+03 0.649496221858828D+02 0.162156381839071D+03 0.766433412002077D+02
 0.117747563504187D+03 -.663111965858111D+01 -.113758172268050D+03 -.296579703533245D+02
 0.321880659769580D+03 0.123152998492602D+03 -.295793473915796D+03 -.307687972596721D+02
 0.317594892458802D+03 -.181471501019904D+03 0.247395264344775D+03 -.162165735872111D+02
 0.000000000000000D+00 0.000000000000000D+00 0.000000000000000D+00 0.000000000000000D+00
 0.618264656685189D+03 0.000000000000000D+00 0.000000000000000D+00 0.618264656685189D+03
 0.529011500928960D+03 0.000000000000000D+00 0.000000000000000D+00 -.529011500928960D+03
 0.188562501909791D+03 0.389227784204769D+02 0.147307218905960D+03 0.766433412002077D+02
 0.128574087316556D+03 -.228378058685984D+02 -.123004615144778D+03 -.296579703533245D+02
 0.331631941827007D+03 0.801552610502058D+02 -.320325085001344D+03 -.307687972596721D+02
 0.326597587957542D+03 -.223856022860244D+03 0.223213512753145D+03 -.162165735872111D+02
 0.171910038603253D+03 0.127615789258160D+03 0.728089684870161D+02 0.892531557562290D+02
0.303241649701D-04 0.000000000000D+00 0.000000000000D+00 0.165308739661D-05 0.000000000000D+00  7 1 -1 24 -13 13 -24 21 0 0.21307734D+00 0.25819225D-01 0.22270912D+06 0.22270912D+06 0.22270912D+06 0.10942560D+01  1  2  2  1  7  1        1 0.373222570093D-03 0.100000000000D+01
-.168373966162D-05 0.000000000000D+00 -.116452778021D-06 0.165308739661D-05 0.000000000000D+00  7 1 -1 24 -13 13 -24 21 2 0.21307734D+00 0.25819225D-01 0.22270912D+06 0.22270912D+06 0.22270912D+06 0.10942560D+01  1  2  3  1  7  1        1 -.248137194016D-04 0.100000000000D+01
0.197130247281D-05 0.000000000000D+00 0.000000000000D+00 0.165308739661D-05 0.000000000000D+00  7 1 -1 24 -13 13 -24 21 2 0.21307734D+00 0.25819225D-01 0.22270912D+06 0.22270912D+06 0.22270912D+06 0.10942560D+01  1  2 15  1  7  1        1 0.290516090646D-04 0.100000000000D+01
0.256447703451D-04 0.000000000000D+00 0.000000000000D+00 0.165308739661D-05 0.000000000000D+00  7 1 -1 24 -13 13 -24 21 2 0.28137454D+00 0.25819225D-01 0.30289143D+06 0.30289143D+06 0.30289143D+06 0.10842438D+01  1  2 12  1  7  1        1 0.185228775367D-03 0.100000000000D+01
-.274488967489D-04 0.000000000000D+00 0.000000000000D+00 0.165308739661D-05 0.000000000000D+00  7 1 -1 24 -13 13 -24 21 2 0.21307734D+00 0.25819225D-01 0.22270912D+06 0.22270912D+06 0.22270912D+06 0.10942560D+01  1  2  4  1  7  1        1 -.404521694972D-03 0.100000000000D+01
-.488169299897D-04 0.000000000000D+00 -.138230848807D-04 0.165308739661D-05 0.000000000000D+00  7 1 -1 24 -13 13 -24 21 2 0.28525379D+00 0.25819225D-01 0.22270912D+06 0.22270912D+06 0.22270912D+06 0.10942560D+01  1  2  5  1  7  1        1 -.350132841751D-03 0.100000000000D+01
0.512224001873D-04 0.000000000000D+00 0.132550516668D-04 0.165308739661D-05 0.000000000000D+00  7 1 -1 24 -13 13 -24 21 2 0.21307734D+00 0.25819225D-01 0.22270912D+06 0.22270912D+06 0.22270912D+06 0.10942560D+01  1  2  6  1  7  1        1 0.754878140781D-03 0.100000000000D+01
0.938143113457D-06 0.000000000000D+00 0.000000000000D+00 0.165308739661D-05 0.000000000000D+00  7 21 -1 24 -13 13 -24 -1 2 0.28137454D+00 0.25819225D-01 0.30289143D+06 0.30289143D+06 0.30289143D+06 0.10842438D+01  1  2 12  3  7  1        1 0.392970515712D-05 0.100000000000D+01
-.155252183049D-05 0.000000000000D+00 -.523632232881D-06 0.165308739661D-05 0.000000000000D+00  7 21 -1 24 -13 13 -24 -1 2 0.28525379D+00 0.25819225D-01 0.22270912D+06 0.22270912D+06 0.22270912D+06 0.10942560D+01  1  2  5  3  7  1        1 -.641542018650D-05 0.100000000000D+01
  </mgrwgt>
  </event>
  <event>
  8     66 0.27727860E-05 0.15114227E+03 0.75467711E-02 0.99322734E-01
        1 -1    0    0  501    0 0.00000000E+00 0.00000000E+00 0.15090866E+04 0.15090866E+04 0.32000000E+00 0.0000E+00 0.9000E+01
       -1 -1    0    0    0  501 0.00000000E+00 0.00000000E+00 -.50206867E+02 0.50207887E+02 0.32000000E+00 0.0000E+00 0.9000E+01
       25  2    1    2    0    0 -.95846470E+01 0.30674873E+02 0.42603682E+03 0.52205238E+03 0.29999752E+03 0.0000E+00 0.0000E+00
       23  2    1    2    0    0 0.95846470E+01 -.30674873E+02 0.10328429E+04 0.10372421E+04 0.89855149E+02 0.0000E+00 0.0000E+00
       24  1    3    3    0    0 -.63402300E+02 0.87012898E+02 0.75654848E+02 0.15421403E+03 0.80419002E+02 0.0000E+00 0.9000E+01
      -13  1    4    4    0    0 0.24947984E+02 -.31926398E+02 0.10014461E+04 0.10022654E+04 0.10565837E+00 0.0000E+00 0.9000E+01
       13  1    4    4    0    0 -.15363337E+02 0.12515247E+01 0.31396802E+02 0.34976689E+02 0.10565837E+00 0.0000E+00 0.9000E+01
      -24  1    3    3    0    0 0.53817653E+02 -.56338025E+02 0.35038197E+03 0.36783835E+03 0.80419002E+02 0.0000E+00 0.9000E+01
#aMCatNLO 1  0  0  1  1 0.27067996D+03 0.00000000D+00  -5  7  0 0.00000000D+00 0.00000000D+00 0.00000000D+00 0.00000000D+00 0.00000000D+00
  <mgrwgt>
 0.9481157125D-03    3    2    0
 0.275258664354986D+03 0.000000000000000D+00 0.000000000000000D+00 0.275258664354986D+03
 0.275258664354986D+03 0.000000000000000D+00 0.000000000000000D+00 -.275258664354986D+03
 0.236311858196497D+03 -.634023001413860D+02 0.870128981607873D+02 -.194383595656508D+03
 0.184985477342103D+03 0.249480394065161D+02 -.319264440076442D+02 0.180493557586645D+03
 0.158662988060599D+02 -.153633922856486D+02 0.125157032315975D+01 -.376021103219450D+01
 0.113353694365312D+03 0.538176530205185D+02 -.563380244763029D+02 0.176502491020577D+02
 0.000000000000000D+00 0.000000000000000D+00 0.000000000000000D+00 -.000000000000000D+00
 0.333745871608711D+03 0.000000000000000D+00 0.000000000000000D+00 0.333745871608711D+03
 0.984775947832481D+03 0.000000000000000D+00 0.000000000000000D+00 -.984775947832481D+03
 0.221402350799908D+03 -.662637460569257D+02 -.193886225272830D+02 -.194383595656508D+03
 0.221498838305141D+03 0.224068622661121D+02 -.126418920908347D+03 0.180493557586645D+03
 0.172683603952434D+02 -.155705369042137D+02 -.645100490217550D+01 -.376021103219450D+01
 0.153293547413099D+03 0.521506812597997D+02 -.118323585454868D+03 0.176502491020577D+02
 0.705058722527800D+03 0.727673943522760D+01 0.270582133792674D+03 -.651030076223770D+03
0.129445889266D-04 0.000000000000D+00 0.000000000000D+00 0.103764701622D-05 0.000000000000D+00  7 1 -1 24 -13 13 -24 21 0 0.23216725D+00 0.77242145D-02 0.22843986D+05 0.22843986D+05 0.22843986D+05 0.11784784D+01  1  2  2  1  7  1        1 0.913641552511D-03 0.100000000000D+01
-.404904406767D-06 0.000000000000D+00 -.497106298669D-07 0.103764701622D-05 0.000000000000D+00  7 1 -1 24 -13 13 -24 21 2 0.23216725D+00 0.77242145D-02 0.22843986D+05 0.22843986D+05 0.22843986D+05 0.11784784D+01  1  2  3  1  7  1        1 -.396902076040D-04 0.100000000000D+01
0.756596679074D-06 0.000000000000D+00 0.000000000000D+00 0.103764701622D-05 0.000000000000D+00  7 1 -1 24 -13 13 -24 21 2 0.23216725D+00 0.77242145D-02 0.22843986D+05 0.22843986D+05 0.22843986D+05 0.11784784D+01  1  2 15  1  7  1        1 0.741643675966D-04 0.100000000000D+01
  </mgrwgt>
  </event>
  <event>
  8     66 0.27727860E-05 0.21255108E+03 0.75467711E-02 0.10469845E+00
        1 -1    0    0  501    0 0.00000000E+00 0.00000000E+00 0.71228352E+03 0.71228359E+03 0.32000000E+00 0.0000E+00 0.9000E+01
       -1 -1    0    0    0  501 0.00000000E+00 0.00000000E+00 -.40470623E+03 0.40470636E+03 0.32000000E+00 0.0000E+00 0.9000E+01
       25  2    1    2    0    0 0.11322711E+03 -.75770737E+01 0.66126851E+03 0.73480700E+03 0.29964560E+03 0.0000E+00 0.0000E+00
       23  2    1    2    0    0 -.11322711E+03 0.75770737E+01 -.35369123E+03 0.38218295E+03 0.89936286E+02 0.0000E+00 0.0000E+00
       24  1    3    3    0    0 0.16352198E+03 -.62711966E+02 0.29425563E+03 0.35174682E+03 0.80419002E+02 0.0000E+00 0.9000E+01
      -13  1    4    4    0    0 -.77887171E+02 0.26894126E+02 -.12330703E+03 0.14830489E+03 0.10565837E+00 0.0000E+00 0.9000E+01
       13  1    4    4    0    0 -.35339940E+02 -.19317053E+02 -.23038419E+03 0.23387806E+03 0.10565837E+00 0.0000E+00 0.9000E+01
      -24  1    3    3    0    0 -.50294873E+02 0.55134892E+02 0.36701288E+03 0.38306018E+03 0.80419002E+02 0.0000E+00 0.9000E+01
#aMCatNLO 1  0  0  2  1 0.33814099D+02 0.00000000D+00  -5  7  0 0.00000000D+00 0.00000000D+00 0.00000000D+00 0.00000000D+00 0.00000000D+00
  <mgrwgt>
 0.6000501650D-03    4    2    0
 0.536903799403789D+03 0.000000000000000D+00 0.000000000000000D+00 0.536903799403789D+03
 0.536903799403789D+03 0.000000000000000D+00 0.000000000000000D+00 -.536903799403789D+03
 0.281606601579132D+03 0.163521983686333D+03 -.627119661149608D+02 0.205335901039882D+03
 0.189588283820983D+03 -.778872297994208D+02 0.268941901441894D+02 -.170745422582411D+03
 0.309273807999415D+03 -.353398809121281D+02 -.193171164587816D+02 -.306640229166516D+03
 0.293338905408049D+03 -.502948729747840D+02 0.551348924295530D+02 0.272049750709045D+03
 0.000000000000000D+00 -.000000000000000D+00 -.000000000000000D+00 0.000000000000000D+00
 0.606317371874101D+03 0.000000000000000D+00 0.000000000000000D+00 0.606317371874101D+03
 0.541303830342994D+03 0.000000000000000D+00 0.000000000000000D+00 -.541303830342994D+03
 0.286456355280882D+03 0.172318088168321D+03 -.611037786114017D+02 0.205335901039882D+03
 0.187421903273760D+03 -.720494596079093D+02 0.279615068285084D+02 -.170745422582411D+03
 0.308223005675799D+03 -.257783236502267D+02 -.175689815958269D+02 -.306640229166516D+03
 0.292238604050514D+03 -.412275664495157D+02 0.567926636707583D+02 0.272049750709045D+03
 0.732813339361390D+02 -.332627384606694D+02 -.608141029203806D+01 0.650135415311066D+02
0.746778861132D-04 0.000000000000D+00 0.000000000000D+00 0.302575825440D-05 0.000000000000D+00  7 1 -1 24 -13 13 -24 21 0 0.10958210D+00 0.62262512D-01 0.45177960D+05 0.45177960D+05 0.45177960D+05 0.11511897D+01  1  2  2  2  7  2       -1 0.674222592289D-03 0.100000000000D+01
0.182545112083D-06 0.000000000000D+00 -.286782745814D-06 0.302575825440D-05 0.000000000000D+00  7 1 -1 24 -13 13 -24 21 2 0.10958210D+00 0.62262512D-01 0.45177960D+05 0.45177960D+05 0.45177960D+05 0.11511897D+01  1  2  3  2  7  2       -1 0.218411386777D-05 0.100000000000D+01
0.423362770489D-05 0.000000000000D+00 0.000000000000D+00 0.302575825440D-05 0.000000000000D+00  7 1 -1 24 -13 13 -24 21 2 0.10958210D+00 0.62262512D-01 0.45177960D+05 0.45177960D+05 0.45177960D+05 0.11511897D+01  1  2 15  2  7  2       -1 0.506544649469D-04 0.100000000000D+01
-.106153981687D-04 0.000000000000D+00 0.000000000000D+00 0.302575825440D-05 0.000000000000D+00  7 1 -1 24 -13 13 -24 21 2 0.10958210D+00 0.62262512D-01 0.45177960D+05 0.45177960D+05 0.45177960D+05 0.11511897D+01  1  2  4  2  7  2       -1 -.127011006143D-03 0.100000000000D+01
  </mgrwgt>
  </event>
  <event>
  8     66 0.27727860E-05 0.13740820E+03 0.75467711E-02 0.10368206E+00
        1 -1    0    0  501    0 0.00000000E+00 0.00000000E+00 0.49085129E+03 0.49085139E+03 0.32000000E+00 0.0000E+00 0.9000E+01
       -1 -1    0    0    0  501 0.00000000E+00 0.00000000E+00 -.26251869E+03 0.26251888E+03 0.32000000E+00 0.0000E+00 0.9000E+01
       25  2    1    2    0    0 0.92692174E+02 0.11328619E+03 0.39388581E+03 0.51642598E+03 0.30020687E+03 0.0000E+00 0.0000E+00
       23  2    1    2    0    0 -.92692174E+02 -.11328619E+03 -.16555320E+03 0.23694430E+03 0.85493482E+02 0.0000E+00 0.0000E+00
       24  1    3    3    0    0 -.37531161E+02 0.98914242E+02 0.54094767E+02 0.14347848E+03 0.80419002E+02 0.0000E+00 0.9000E+01
      -11  1    4    4    0    0 -.87619703E+02 -.40595688E+02 -.97920163E+02 0.13752665E+03 0.51099893E-03 0.0000E+00 0.9000E+01
       11  1    4    4    0    0 -.50724717E+01 -.72690504E+02 -.67633040E+02 0.99417641E+02 0.51099893E-03 0.0000E+00 0.9000E+01
      -24  1    3    3    0    0 0.13022334E+03 0.14371949E+02 0.33979104E+03 0.37294750E+03 0.80419002E+02 0.0000E+00 0.9000E+01
#aMCatNLO 1  0  0  2  1 0.26272752D+02 0.00000000D+00  -5  7  0 0.00000000D+00 0.00000000D+00 0.00000000D+00 0.00000000D+00 0.00000000D+00
  <mgrwgt>
 0.1228861634D-02    9    2    0
 0.358967615773018D+03 0.000000000000000D+00 0.000000000000000D+00 0.358967615773018D+03
 0.358967615773018D+03 0.000000000000000D+00 0.000000000000000D+00 -.358967615773018D+03
 0.133355798071043D+03 -.375311612132300D+02 0.989142423607965D+02 0.111327229809466D+02
 0.175457135570018D+03 -.876197028068117D+02 -.405956879237075D+02 -.146492266773651D+03
 0.125834643703356D+03 -.507247169229706D+01 -.726905036173281D+02 -.102590049569832D+03
 0.283287654201618D+03 0.130223335712339D+03 0.143719491802391D+02 0.237949593362537D+03
 0.000000000000000D+00 -.000000000000000D+00 -.000000000000000D+00 -.000000000000000D+00
 0.369466888497870D+03 0.000000000000000D+00 0.000000000000000D+00 0.369466888497870D+03
 0.376028691191105D+03 0.000000000000000D+00 0.000000000000000D+00 -.376028691191105D+03
 0.133367530282233D+03 -.329360070765752D+02 0.100553289832273D+03 0.111327229809466D+02
 0.172055418897259D+03 -.816326983626982D+02 -.384601807776982D+02 -.146492266773651D+03
 0.124850353102750D+03 -.753628615529691D+00 -.711500136546061D+02 -.102590049569832D+03
 0.288142492498973D+03 0.140068029907751D+03 0.178834573143693D+02 0.237949593362537D+03
 0.270797849077597D+02 -.247456958529479D+02 -.882655271433764D+01 -.656180269323474D+01
0.222772119626D-04 0.000000000000D+00 0.000000000000D+00 0.107970663509D-06 0.000000000000D+00  7 1 -1 24 -11 11 -24 21 0 0.75515606D-01 0.40387513D-01 0.51995724D+05 0.51995724D+05 0.51995724D+05 0.11458033D+01  1  2  2  2  7  2       -1 0.736082013330D-03 0.100000000000D+01
-.927774920125D-06 0.000000000000D+00 -.855503596609D-07 0.107970663509D-06 0.000000000000D+00  7 1 -1 24 -11 11 -24 21 2 0.75515606D-01 0.40387513D-01 0.51995724D+05 0.51995724D+05 0.51995724D+05 0.11458033D+01  1  2  3  2  7  2       -1 -.402465000724D-04 0.100000000000D+01
0.134343209133D-05 0.000000000000D+00 0.000000000000D+00 0.107970663509D-06 0.000000000000D+00  7 1 -1 24 -11 11 -24 21 2 0.75515606D-01 0.40387513D-01 0.51995724D+05 0.51995724D+05 0.51995724D+05 0.11458033D+01  1  2 15  2  7  2       -1 0.582775397224D-04 0.100000000000D+01
0.553156819218D-04 0.000000000000D+00 0.000000000000D+00 0.107970663509D-06 0.000000000000D+00  7 1 -1 24 -11 11 -24 21 2 0.75515606D-01 0.42874902D-01 0.58338518D+05 0.58338518D+05 0.58338518D+05 0.11414496D+01  1  2 12  2  7  2       -1 0.214386753371D-02 0.100000000000D+01
-.494634574339D-04 0.000000000000D+00 0.000000000000D+00 0.107970663509D-06 0.000000000000D+00  7 1 -1 24 -11 11 -24 21 2 0.75515606D-01 0.40387513D-01 0.51995724D+05 0.51995724D+05 0.51995724D+05 0.11458033D+01  1  2  4  2  7  2       -1 -.214570473939D-02 0.100000000000D+01
-.197758317752D-03 0.000000000000D+00 -.399229859311D-04 0.107970663509D-06 0.000000000000D+00  7 1 -1 24 -11 11 -24 21 2 0.75515606D-01 0.43419015D-01 0.51995724D+05 0.51995724D+05 0.51995724D+05 0.11458033D+01  1  2  5  2  7  2       -1 -.756929606797D-02 0.100000000000D+01
0.200227489911D-03 0.000000000000D+00 0.398186473137D-04 0.107970663509D-06 0.000000000000D+00  7 1 -1 24 -11 11 -24 21 2 0.75515606D-01 0.40387513D-01 0.51995724D+05 0.51995724D+05 0.51995724D+05 0.11458033D+01  1  2  6  2  7  2       -1 0.868578737409D-02 0.100000000000D+01
0.649656094732D-06 0.000000000000D+00 0.000000000000D+00 0.107970663509D-06 0.000000000000D+00  7 1 21 24 -11 11 -24 1 2 0.75515606D-01 0.42874902D-01 0.58338518D+05 0.58338518D+05 0.58338518D+05 0.11414496D+01  1  2 12  4  7  2       -1 0.249888563423D-03 0.100000000000D+01
-.234385868203D-05 0.000000000000D+00 -.487610168255D-06 0.107970663509D-06 0.000000000000D+00  7 1 21 24 -11 11 -24 1 2 0.75515606D-01 0.43419015D-01 0.51995724D+05 0.51995724D+05 0.51995724D+05 0.11458033D+01  1  2  5  4  7  2       -1 -.889794082512D-03 0.100000000000D+01
  </mgrwgt>
  </event>
  <event>
  8     66 0.27727860E-05 0.14619031E+03 0.75467711E-02 0.98713881E-01
        1 -1    0    0  501    0 0.00000000E+00 0.00000000E+00 0.33299156E+03 0.33299172E+03 0.32000000E+00 0.0000E+00 0.9000E+01
       -1 -1    0    0    0  501 0.00000000E+00 0.00000000E+00 -.33961286E+03 0.33961301E+03 0.32000000E+00 0.0000E+00 0.9000E+01
       25  2    1    2    0    0 0.22505761E+03 -.64095129E+02 -.11835125E+03 0.39839227E+03 0.29991709E+03 0.0000E+00 0.0000E+00
       23  2    1    2    0    0 -.22505761E+03 0.64095129E+02 0.11172996E+03 0.27421246E+03 0.89161507E+02 0.0000E+00 0.0000E+00
       24  1    3    3    0    0 0.21171591E+03 -.51482451E+02 -.18129333E+03 0.29463292E+03 0.80419002E+02 0.0000E+00 0.9000E+01
      -11  1    4    4    0    0 -.19722413E+03 0.30993755E+02 0.11575871E+03 0.23077705E+03 0.51099893E-03 0.0000E+00 0.9000E+01
       11  1    4    4    0    0 -.27833488E+02 0.33101374E+02 -.40287479E+01 0.43435410E+02 0.51099893E-03 0.0000E+00 0.9000E+01
      -24  1    3    3    0    0 0.13341708E+02 -.12612677E+02 0.62942080E+02 0.10375935E+03 0.80419002E+02 0.0000E+00 0.9000E+01
#aMCatNLO 1  0  0  2  1 0.14202572D+03 0.00000000D+00  -5  7  0 0.00000000D+00 0.00000000D+00 0.00000000D+00 0.00000000D+00 0.00000000D+00
  <mgrwgt>
 0.6600925839D-03    9    2    0
 0.336286066502446D+03 0.000000000000000D+00 0.000000000000000D+00 0.336286066502446D+03
 0.336286066502446D+03 0.000000000000000D+00 0.000000000000000D+00 -.336286066502446D+03
 0.292862410043356D+03 0.211715905549304D+03 -.514824511636603D+02 -.178401535367978D+03
 0.231927846286072D+03 -.197224125640211D+03 0.309937546326105D+02 0.118036254270133D+03
 0.433978526327386D+02 -.278334880026295D+02 0.331013739847270D+02 -.360133295650491D+01
 0.104384024042725D+03 0.133417080935361D+02 -.126126774536772D+02 0.639666140543496D+02
 0.000000000000000D+00 0.000000000000000D+00 -.000000000000000D+00 -.000000000000000D+00
 0.390953248612273D+03 0.000000000000000D+00 0.000000000000000D+00 0.390953248612273D+03
 0.450426039398296D+03 0.000000000000000D+00 0.000000000000000D+00 -.450426039398296D+03
 0.254428799305495D+03 0.154569775145671D+03 -.504764772089931D+02 -.178401535367978D+03
 0.278798675043232D+03 -.250552306122413D+03 0.319325191690012D+02 0.118036254270133D+03
 0.503545574559525D+02 -.376227690308367D+02 0.332736999441531D+02 -.360133295650491D+01
 0.103822200761546D+03 -.839841831497889D+01 -.122299743592828D+02 0.639666140543496D+02
 0.153975055444344D+03 0.142003718322558D+03 -.249976754487843D+01 -.594727907860226D+02
0.160350415306D-04 0.000000000000D+00 0.000000000000D+00 0.593517693910D-06 0.000000000000D+00  7 1 -1 24 -11 11 -24 21 0 0.51229494D-01 0.52248155D-01 0.77738798D+05 0.77738798D+05 0.77738798D+05 0.11308085D+01  1  2  2  2  7  2       -1 0.561895938841D-03 0.100000000000D+01
-.852794619058D-06 0.000000000000D+00 -.615787816009D-07 0.593517693910D-06 0.000000000000D+00  7 1 -1 24 -11 11 -24 21 2 0.51229494D-01 0.52248155D-01 0.77738798D+05 0.77738798D+05 0.77738798D+05 0.11308085D+01  1  2  3  2  7  2       -1 -.382127581196D-04 0.100000000000D+01
0.102551645941D-05 0.000000000000D+00 0.000000000000D+00 0.593517693910D-06 0.000000000000D+00  7 1 -1 24 -11 11 -24 21 2 0.51229494D-01 0.52248155D-01 0.77738798D+05 0.77738798D+05 0.77738798D+05 0.11308085D+01  1  2 15  2  7  2       -1 0.459522275765D-04 0.100000000000D+01
0.591504422444D-05 0.000000000000D+00 0.000000000000D+00 0.593517693910D-06 0.000000000000D+00  7 1 -1 24 -11 11 -24 21 2 0.51229494D-01 0.73078491D-01 0.12531917D+06 0.12531917D+06 0.12531917D+06 0.11137662D+01  1  2 12  2  7  2       -1 0.135695169980D-03 0.100000000000D+01
-.949811764760D-05 0.000000000000D+00 0.000000000000D+00 0.593517693910D-06 0.000000000000D+00  7 1 -1 24 -11 11 -24 21 2 0.51229494D-01 0.52248155D-01 0.77738798D+05 0.77738798D+05 0.77738798D+05 0.11308085D+01  1  2  4  2  7  2       -1 -.425599862087D-03 0.100000000000D+01
-.130366545894D-04 0.000000000000D+00 -.630841925574D-05 0.593517693910D-06 0.000000000000D+00  7 1 -1 24 -11 11 -24 21 2 0.51229494D-01 0.79274064D-01 0.77738798D+05 0.77738798D+05 0.77738798D+05 0.11308085D+01  1  2  5  2  7  2       -1 -.265214704606D-03 0.100000000000D+01
0.148669838902D-04 0.000000000000D+00 0.579726531659D-05 0.593517693910D-06 0.000000000000D+00  7 1 -1 24 -11 11 -24 21 2 0.51229494D-01 0.52248155D-01 0.77738798D+05 0.77738798D+05 0.77738798D+05 0.11308085D+01  1  2  6  2  7  2       -1 0.666172659477D-03 0.100000000000D+01
0.247861814528D-06 0.000000000000D+00 0.000000000000D+00 0.593517693910D-06 0.000000000000D+00  7 1 21 24 -11 11 -24 1 2 0.51229494D-01 0.73078491D-01 0.12531917D+06 0.12531917D+06 0.12531917D+06 0.11137662D+01  1  2 12  4  7  2       -1 0.456312902738D-04 0.100000000000D+01
-.412190146783D-06 0.000000000000D+00 -.309586112044D-06 0.593517693910D-06 0.000000000000D+00  7 1 21 24 -11 11 -24 1 2 0.51229494D-01 0.79274064D-01 0.77738798D+05 0.77738798D+05 0.77738798D+05 0.11308085D+01  1  2  5  4  7  2       -1 -.662273774354D-04 0.100000000000D+01
  </mgrwgt>
  </event>
  <event>
  7     66 0.27727860E-05 0.15162521E+03 0.75467711E-02 0.10054705E+00
        1 -1    0    0  501    0 0.00000000E+00 0.00000000E+00 0.15374935E+04 0.15374935E+04 0.32000000E+00 0.0000E+00 0.9000E+01
       -1 -1    0    0    0  501 0.00000000E+00 0.00000000E+00 -.75178590E+02 0.75179271E+02 0.32000000E+00 0.0000E+00 0.9000E+01
       23  2    1    2    0    0 0.22458100E+03 0.36866628E+02 0.86331030E+03 0.89743926E+03 0.91086726E+02 0.0000E+00 0.0000E+00
       24  1    1    2    0    0 -.21939611E+03 -.85006031E+02 0.56160294E+03 0.61418707E+03 0.80419002E+02 0.0000E+00 0.9000E+01
      -13  1    3    3    0    0 0.46641932E+02 -.12442912E+02 0.87234897E+02 0.99700723E+02 0.10565837E+00 0.0000E+00 0.9000E+01
       13  1    3    3    0    0 0.17793907E+03 0.49309540E+02 0.77607540E+03 0.79773854E+03 0.10565837E+00 0.0000E+00 0.9000E+01
      -24  1    1    2    0    0 -.51848909E+01 0.48139404E+02 0.37401653E+02 0.10104645E+03 0.80419002E+02 0.0000E+00 0.9000E+01
#aMCatNLO 1  0  0  1  2 0.37734669D+02 0.00000000D+00  -5  7  0 0.00000000D+00 0.00000000D+00 0.00000000D+00 0.00000000D+00 0.00000000D+00
  <mgrwgt>
 0.7070439895D-03    9    2    0
 0.339981128534848D+03 0.000000000000000D+00 0.000000000000000D+00 0.339981128534848D+03
 0.339981128534848D+03 0.000000000000000D+00 0.000000000000000D+00 -.339981128534848D+03
 0.248899603571044D+03 -.219396031820745D+03 -.850058719123162D+02 0.110986334829910D+02
 0.488551041747554D+02 0.466418108067333D+02 -.124429859434293D+02 -.751896198997630D+01
 0.222990279649403D+03 0.177939497288747D+03 0.493096640092034D+02 0.125023026511304D+03
 0.159217269674495D+03 -.518527627473520D+01 0.481391938465421D+02 -.128602698004319D+03
 0.000000000000000D+00 -.000000000000000D+00 0.000000000000000D+00 0.000000000000000D+00
 0.459520580725877D+03 0.000000000000000D+00 0.000000000000000D+00 0.459520580725877D+03
 0.343495236887201D+03 0.000000000000000D+00 0.000000000000000D+00 -.343495236887201D+03
 0.253200804693207D+03 -.218493576775509D+03 -.988979715948313D+02 0.110986334829910D+02
 0.497871436995129D+02 0.468191064089721D+02 -.151722168259812D+02 -.751896198997630D+01
 0.221242828410179D+03 0.178737943979948D+03 0.370186351276072D+02 0.125023026511304D+03
 0.156777722640027D+03 -.461731960632835D+01 0.393962534701651D+02 -.128602698004319D+03
 0.122007318170151D+03 -.244615400708216D+01 0.376552998230402D+02 0.116025343838676D+03
0.147231988724D-04 0.000000000000D+00 0.000000000000D+00 0.399505106752D-08 0.000000000000D+00  7 1 -1 24 -13 13 -24 21 0 0.23653751D+00 0.11565992D-01 0.82782781D+05 0.82782781D+05 0.82782781D+05 0.11285189D+01  1  2  2  1  7  1        1 0.529145409662D-03 0.100000000000D+01
-.790251873952D-06 0.000000000000D+00 -.565409603773D-07 0.399505106752D-08 0.000000000000D+00  7 1 -1 24 -13 13 -24 21 2 0.23653751D+00 0.11565992D-01 0.82782781D+05 0.82782781D+05 0.82782781D+05 0.11285189D+01  1  2  3  1  7  1        1 -.361706269953D-04 0.100000000000D+01
0.944646181166D-06 0.000000000000D+00 0.000000000000D+00 0.399505106752D-08 0.000000000000D+00  7 1 -1 24 -13 13 -24 21 2 0.23653751D+00 0.11565992D-01 0.82782781D+05 0.82782781D+05 0.82782781D+05 0.11285189D+01  1  2 15  1  7  1        1 0.432374104862D-04 0.100000000000D+01
0.978879203280D-04 0.000000000000D+00 0.000000000000D+00 0.399505106752D-08 0.000000000000D+00  7 1 -1 24 -13 13 -24 21 2 0.32061455D+00 0.11565992D-01 0.93669293D+05 0.93669293D+05 0.93669293D+05 0.11240603D+01  1  2 12  1  7  1        1 0.194522961343D-02 0.100000000000D+01
-.950650115146D-04 0.000000000000D+00 0.000000000000D+00 0.399505106752D-08 0.000000000000D+00  7 1 -1 24 -13 13 -24 21 2 0.23653751D+00 0.11565992D-01 0.82782781D+05 0.82782781D+05 0.82782781D+05 0.11285189D+01  1  2  4  1  7  1        1 -.435122166128D-02 0.100000000000D+01
-.105048834135D-03 0.000000000000D+00 -.630098232851D-05 0.399505106752D-08 0.000000000000D+00  7 1 -1 24 -13 13 -24 21 2 0.32070117D+00 0.11565992D-01 0.82782781D+05 0.82782781D+05 0.82782781D+05 0.11285189D+01  1  2  5  1  7  1        1 -.211099667977D-02 0.100000000000D+01
0.102463953824D-03 0.000000000000D+00 0.601991584280D-05 0.399505106752D-08 0.000000000000D+00  7 1 -1 24 -13 13 -24 21 2 0.23653751D+00 0.11565992D-01 0.82782781D+05 0.82782781D+05 0.82782781D+05 0.11285189D+01  1  2  6  1  7  1        1 0.468987872903D-02 0.100000000000D+01
0.382145900538D-05 0.000000000000D+00 0.000000000000D+00 0.399505106752D-08 0.000000000000D+00  7 21 -1 24 -13 13 -24 -1 2 0.32061455D+00 0.11565992D-01 0.93669293D+05 0.93669293D+05 0.93669293D+05 0.11240603D+01  1  2 12  3  7  1        1 0.379881895404D-04 0.100000000000D+01
-.395914543261D-05 0.000000000000D+00 -.246142560918D-06 0.399505106752D-08 0.000000000000D+00  7 21 -1 24 -13 13 -24 -1 2 0.32070117D+00 0.11565992D-01 0.82782781D+05 0.82782781D+05 0.82782781D+05 0.11285189D+01  1  2  5  3  7  1        1 -.400463946337D-04 0.100000000000D+01
  </mgrwgt>
  </event>
  <event>
  8     66 0.27727860E-05 0.14734987E+03 0.75467711E-02 0.10171135E+00
        3 -1    0    0  501    0 0.00000000E+00 0.00000000E+00 0.78891968E+03 0.78891984E+03 0.50000000E+00 0.0000E+00 0.9000E+01
       -3 -1    0    0    0  501 0.00000000E+00 0.00000000E+00 -.15086809E+03 0.15086891E+03 0.50000000E+00 0.0000E+00 0.9000E+01
       25  2    1    2    0    0 0.30719784E+02 0.24015040E+03 0.20589925E+03 0.43721076E+03 0.30023795E+03 0.0000E+00 0.0000E+00
       23  2    1    2    0    0 -.30719784E+02 -.24015040E+03 0.43215234E+03 0.50257799E+03 0.84929787E+02 0.0000E+00 0.0000E+00
       24  1    3    3    0    0 0.30293827E+02 0.56518481E+02 -.48169842E+02 0.11357642E+03 0.80419002E+02 0.0000E+00 0.9000E+01
      -11  1    4    4    0    0 -.13090959E+02 -.22520247E+02 0.11171277E+02 0.28343115E+02 0.51099893E-03 0.0000E+00 0.9000E+01
       11  1    4    4    0    0 -.17628825E+02 -.21763016E+03 0.42098107E+03 0.47423488E+03 0.51099893E-03 0.0000E+00 0.9000E+01
      -24  1    3    3    0    0 0.42595676E+00 0.18363192E+03 0.25406910E+03 0.32363434E+03 0.80419002E+02 0.0000E+00 0.9000E+01
#aMCatNLO 1  0  0  2  1 0.11591659D+02 0.00000000D+00  -5  7  0 0.00000000D+00 0.00000000D+00 0.00000000D+00 0.00000000D+00 0.00000000D+00
  <mgrwgt>
 0.7096833301D-04    9    2    0
 0.344997487355641D+03 0.000000000000000D+00 0.000000000000000D+00 0.344997487355641D+03
 0.344997487355641D+03 0.000000000000000D+00 0.000000000000000D+00 -.344997487355641D+03
 0.199237235627298D+03 0.302938274656837D+02 0.565184806145571D+02 -.170634713562447D+03
 0.282736687688292D+02 -.130909590723029D+02 -.225202467461740D+02 -.109938902445039D+02
 0.256629352247042D+03 -.176288251500090D+02 -.217630156313008D+03 0.134851637074758D+03
 0.205854718068114D+03 0.425956756628219D+00 0.183631922444625D+03 0.467769667321929D+02
 0.000000000000000D+00 0.000000000000000D+00 -.000000000000000D+00 -.000000000000000D+00
 0.345293867755264D+03 0.000000000000000D+00 0.000000000000000D+00 0.345293867755264D+03
 0.480660394705935D+03 0.000000000000000D+00 0.000000000000000D+00 -.480660394705935D+03
 0.200067527658483D+03 0.295005780475199D+02 0.597771703188729D+02 -.170634713562447D+03
 0.279620770540963D+02 -.132026756776520D+02 -.220613119605738D+02 -.109938902445039D+02
 0.253183240310519D+03 -.186416068135460D+02 -.213469622306784D+03 0.134851637074758D+03
 0.208879490591860D+03 -.397944433542824D+00 0.187016530443455D+03 0.467769667321929D+02
 0.135861926846240D+03 0.274164887722099D+01 -.112627664949700D+02 -.135366526950672D+03
0.211961003869D-04 0.000000000000D+00 0.000000000000D+00 0.127814177462D-06 0.000000000000D+00  7 3 -3 24 -11 11 -24 21 0 0.12137233D+00 0.23210551D-01 0.74998455D+05 0.74998455D+05 0.74998455D+05 0.11321220D+01  1  2  2  2  7  2       -3 0.860771637339D-04 0.100000000000D+01
-.110121102897D-05 0.000000000000D+00 -.813986065471D-07 0.127814177462D-06 0.000000000000D+00  7 3 -3 24 -11 11 -24 21 2 0.12137233D+00 0.23210551D-01 0.74998455D+05 0.74998455D+05 0.74998455D+05 0.11321220D+01  1  2  3  2  7  2       -3 -.573177286196D-05 0.100000000000D+01
0.134010638558D-05 0.000000000000D+00 0.000000000000D+00 0.127814177462D-06 0.000000000000D+00  7 3 -3 24 -11 11 -24 21 2 0.12137233D+00 0.23210551D-01 0.74998455D+05 0.74998455D+05 0.74998455D+05 0.11321220D+01  1  2 15  2  7  2       -3 0.697521656702D-05 0.100000000000D+01
0.198530470198D-02 0.000000000000D+00 0.000000000000D+00 0.127814177462D-06 0.000000000000D+00  7 3 -3 24 -11 11 -24 21 2 0.12137233D+00 0.32344647D-01 0.78291711D+05 0.78291711D+05 0.78291711D+05 0.11305497D+01  1  2 12  2  7  2       -3 0.558105689699D-02 0.100000000000D+01
-.188362211890D-02 0.000000000000D+00 0.000000000000D+00 0.127814177462D-06 0.000000000000D+00  7 3 -3 24 -11 11 -24 21 2 0.12137233D+00 0.23210551D-01 0.74998455D+05 0.74998455D+05 0.74998455D+05 0.11321220D+01  1  2  4  2  7  2       -3 -.980420088365D-02 0.100000000000D+01
-.199353611136D-02 0.000000000000D+00 -.100611915071D-04 0.127814177462D-06 0.000000000000D+00  7 3 -3 24 -11 11 -24 21 2 0.12137233D+00 0.32349263D-01 0.74998455D+05 0.74998455D+05 0.74998455D+05 0.11321220D+01  1  2  5  2  7  2       -3 -.562025950556D-02 0.100000000000D+01
0.189217354126D-02 0.000000000000D+00 0.953112042510D-05 0.127814177462D-06 0.000000000000D+00  7 3 -3 24 -11 11 -24 21 2 0.12137233D+00 0.23210551D-01 0.74998455D+05 0.74998455D+05 0.74998455D+05 0.11321220D+01  1  2  6  2  7  2       -3 0.984871079987D-02 0.100000000000D+01
0.825317772137D-04 0.000000000000D+00 0.000000000000D+00 0.127814177462D-06 0.000000000000D+00  7 3 21 24 -11 11 -24 3 2 0.12137233D+00 0.32344647D-01 0.78291711D+05 0.78291711D+05 0.78291711D+05 0.11305497D+01  1  2 12  4  7  2       -3 0.378163275265D-02 0.100000000000D+01
-.826364324055D-04 0.000000000000D+00 -.418386748240D-06 0.127814177462D-06 0.000000000000D+00  7 3 21 24 -11 11 -24 3 2 0.12137233D+00 0.32349263D-01 0.74998455D+05 0.74998455D+05 0.74998455D+05 0.11321220D+01  1  2  5  4  7  2       -3 -.380329233472D-02 0.100000000000D+01
  </mgrwgt>
  </event>
  <event>
  8     66 0.27727860E-05 0.14135081E+03 0.75467711E-02 0.99758126E-01
        1 -1    0    0  501    0 0.00000000E+00 0.00000000E+00 0.10330328E+04 0.10330328E+04 0.32000000E+00 0.0000E+00 0.9000E+01
       -1 -1    0    0    0  501 0.00000000E+00 0.00000000E+00 -.21641795E+03 0.21641818E+03 0.32000000E+00 0.0000E+00 0.9000E+01
       25  2    1    2    0    0 0.19458316E+03 0.63606792E+02 -.38525375E+02 0.36516749E+03 0.29992443E+03 0.0000E+00 0.0000E+00
       23  2    1    2    0    0 -.19458316E+03 -.63606792E+02 0.85514021E+03 0.88428352E+03 0.93723702E+02 0.0000E+00 0.0000E+00
       24  1    3    3    0    0 -.46477961E+02 -.97903671E+01 0.16897847E+02 0.94914727E+02 0.80419002E+02 0.0000E+00 0.9000E+01
      -11  1    4    4    0    0 -.90525639E+02 0.18157375E+02 0.38025109E+03 0.39129972E+03 0.51099893E-03 0.0000E+00 0.9000E+01
       11  1    4    4    0    0 -.10405753E+03 -.81764167E+02 0.47488912E+03 0.49298380E+03 0.51099893E-03 0.0000E+00 0.9000E+01
      -24  1    3    3    0    0 0.24106113E+03 0.73397159E+02 -.55423222E+02 0.27025277E+03 0.80419002E+02 0.0000E+00 0.9000E+01
#aMCatNLO 1  0  0  2  1 0.68388380D+02 0.00000000D+00  -5  7  0 0.00000000D+00 0.00000000D+00 0.00000000D+00 0.00000000D+00 0.00000000D+00
  <mgrwgt>
 0.5279700154D-03    9    2    0
 0.472828734090130D+03 0.000000000000000D+00 0.000000000000000D+00 0.472828734090130D+03
 0.472828734090130D+03 0.000000000000000D+00 0.000000000000000D+00 -.472828734090130D+03
 0.110814192612305D+03 -.464779613321859D+02 -.979036712102979D+01 -.596365420860889D+02
 0.188642462105116D+03 -.905256389924496D+02 0.181573751251359D+02 0.164503486050156D+03
 0.241268760352886D+03 -.104057525019842D+03 -.817641672425857D+02 0.201735636822277D+03
 0.404932053109953D+03 0.241061125344478D+03 0.733971592384796D+02 -.306602580786344D+03
 0.000000000000000D+00 -.000000000000000D+00 -.000000000000000D+00 -.000000000000000D+00
 0.485393618201043D+03 0.000000000000000D+00 0.000000000000000D+00 0.485393618201043D+03
 0.577261801925563D+03 0.000000000000000D+00 0.000000000000000D+00 -.577261801925563D+03
 0.108947967317800D+03 -.428782068936276D+02 -.271769201920744D+01 -.596365420860889D+02
 0.187335834786775D+03 -.843670285043264D+02 0.302576035725564D+02 0.164503486050156D+03
 0.233215668708461D+03 -.962853615587461D+02 -.664936847869532D+02 0.201735636822277D+03
 0.418627639679956D+03 0.254551221457844D+03 0.999020413160503D+02 -.306602580786344D+03
 0.114528309633614D+03 -.310206245011443D+02 -.609482680824461D+02 -.918681837245199D+02
0.322800308810D-04 0.000000000000D+00 0.000000000000D+00 0.114005294015D-05 0.000000000000D+00  7 1 -1 24 -11 11 -24 21 0 0.15892814D+00 0.33295091D-01 0.84848044D+05 0.84848044D+05 0.84848044D+05 0.11276253D+01  1  2  2  2  7  2       -1 0.473312219303D-03 0.100000000000D+01
-.128165867008D-05 0.000000000000D+00 -.123963818110D-06 0.114005294015D-05 0.000000000000D+00  7 1 -1 24 -11 11 -24 21 2 0.15892814D+00 0.33295091D-01 0.84848044D+05 0.84848044D+05 0.84848044D+05 0.11276253D+01  1  2  3  2  7  2       -1 -.238954796798D-04 0.100000000000D+01
0.197451560292D-05 0.000000000000D+00 0.000000000000D+00 0.114005294015D-05 0.000000000000D+00  7 1 -1 24 -11 11 -24 21 2 0.15892814D+00 0.33295091D-01 0.84848044D+05 0.84848044D+05 0.84848044D+05 0.11276253D+01  1  2 15  2  7  2       -1 0.368132316103D-04 0.100000000000D+01
0.926439834645D-04 0.000000000000D+00 0.000000000000D+00 0.114005294015D-05 0.000000000000D+00  7 1 -1 24 -11 11 -24 21 2 0.15892814D+00 0.41024361D-01 0.10602867D+06 0.10602867D+06 0.10602867D+06 0.11196417D+01  1  2 12  2  7  2       -1 0.118333187190D-02 0.100000000000D+01
-.963068235223D-04 0.000000000000D+00 0.000000000000D+00 0.114005294015D-05 0.000000000000D+00  7 1 -1 24 -11 11 -24 21 2 0.15892814D+00 0.33295091D-01 0.84848044D+05 0.84848044D+05 0.84848044D+05 0.11276253D+01  1  2  4  2  7  2       -1 -.179556210887D-02 0.100000000000D+01
-.119730582827D-03 0.000000000000D+00 -.211017660777D-04 0.114005294015D-05 0.000000000000D+00  7 1 -1 24 -11 11 -24 21 2 0.15892814D+00 0.41461407D-01 0.84848044D+05 0.84848044D+05 0.84848044D+05 0.11276253D+01  1  2  5  2  7  2       -1 -.153400847459D-02 0.100000000000D+01
0.121912271062D-03 0.000000000000D+00 0.206040845559D-04 0.114005294015D-05 0.000000000000D+00  7 1 -1 24 -11 11 -24 21 2 0.15892814D+00 0.33295091D-01 0.84848044D+05 0.84848044D+05 0.84848044D+05 0.11276253D+01  1  2  6  2  7  2       -1 0.227295477641D-02 0.100000000000D+01
0.273939144534D-05 0.000000000000D+00 0.000000000000D+00 0.114005294015D-05 0.000000000000D+00  7 1 21 24 -11 11 -24 1 2 0.15892814D+00 0.41024361D-01 0.10602867D+06 0.10602867D+06 0.10602867D+06 0.11196417D+01  1  2 12  4  7  2       -1 0.346112688944D-03 0.100000000000D+01
-.339114811729D-05 0.000000000000D+00 -.647803740976D-06 0.114005294015D-05 0.000000000000D+00  7 1 21 24 -11 11 -24 1 2 0.15892814D+00 0.41461407D-01 0.84848044D+05 0.84848044D+05 0.84848044D+05 0.11276253D+01  1  2  5  4  7  2       -1 -.431088709595D-03 0.100000000000D+01
  </mgrwgt>
  </event>
  <event>
  9     66 0.27727860E-05 0.22424316E+03 0.75467711E-02 0.10122278E+00
        1 -1    0    0  501    0 0.00000000E+00 0.00000000E+00 0.23635044E+04 0.23635044E+04 0.32000000E+00 0.0000E+00 0.9000E+01
       -1 -1    0    0    0  502 0.00000000E+00 0.00000000E+00 -.40460945E+03 0.40460958E+03 0.32000000E+00 0.0000E+00 0.9000E+01
       25  2    1    2    0    0 0.51193405E+02 -.10126060E+03 -.24325233E+03 0.40419308E+03 0.30220172E+03 0.0000E+00 0.0000E+00
       23  2    1    2    0    0 -.14884405E+03 0.47292859E+02 0.22392209E+04 0.22463489E+04 0.87074793E+02 0.0000E+00 0.0000E+00
       24  1    3    3    0    0 0.19468172E+02 0.66788541E+02 -.17201991E+03 0.20223200E+03 0.80419002E+02 0.0000E+00 0.9000E+01
      -13  1    4    4    0    0 -.37277250E+02 0.50081410E+02 0.57202544E+03 0.57542233E+03 0.10565837E+00 0.0000E+00 0.9000E+01
       13  1    4    4    0    0 -.11156680E+03 -.27885511E+01 0.16671955E+04 0.16709266E+04 0.10565837E+00 0.0000E+00 0.9000E+01
      -24  1    3    3    0    0 0.31725233E+02 -.16804914E+03 -.71232423E+02 0.20196108E+03 0.80419002E+02 0.0000E+00 0.9000E+01
       21  1    1    2  501  502 0.97650646E+02 0.53967737E+02 -.37073606E+02 0.11757202E+03 0.75000000E+00 0.0000E+00 0.9000E+01
#aMCatNLO 2  0  0  2  1 0.11157135D+03 0.00000000D+00  -5  7  0 0.00000000D+00 0.00000000D+00 0.00000000D+00 0.00000000D+00 0.00000000D+00
  <mgrwgt>
 0.1030942933D-02    2    2    0
 0.870206028016165D+03 0.000000000000000D+00 0.000000000000000D+00 0.870206028016165D+03
 0.870206028016165D+03 0.000000000000000D+00 0.000000000000000D+00 -.870206028016165D+03
 0.508429163553664D+03 0.478480921120341D+02 0.824730252880747D+02 -.492891223880664D+03
 0.219774295030697D+03 -.249562910398178D+02 0.568907444092004D+02 0.210811212923656D+03
 0.626373103496091D+03 -.763170132968678D+02 0.166926263885120D+02 0.621482368606724D+03
 0.385835493951877D+03 0.534252122246515D+02 -.156056396085787D+03 -.339402357649716D+03
 0.000000000000000D+00 0.000000000000000D+00 0.000000000000000D+00 -.000000000000000D+00
 0.887098493756391D+03 0.000000000000000D+00 0.000000000000000D+00 0.887098493756391D+03
 0.107800325871824D+04 0.000000000000000D+00 0.000000000000000D+00 -.107800325871824D+04
 0.504230793801340D+03 0.194681720054178D+02 0.667885406589120D+02 -.492891223880664D+03
 0.219861565669411D+03 -.372771402173256D+02 0.500814874128143D+02 0.210811212923656D+03
 0.631423222907405D+03 -.111566910357044D+03 -.278862889842637D+01 0.621482368606724D+03
 0.388469019041331D+03 0.317252328215594D+02 -.168049135745459D+03 -.339402357649716D+03
 0.221117151055145D+03 0.976506457473929D+02 0.539677365721593D+02 -.190904764961849D+03
-.213366823348D-02 0.000000000000D+00 0.000000000000D+00 0.171251472137D-06 0.000000000000D+00  7 1 -1 24 -13 13 -24 21 2 0.35669171D+00 0.62655730D-01 0.84367337D+05 0.84367337D+05 0.84367337D+05 0.11278311D+01  1  2 13  2  7  2       -1 -.179500222620D-02 0.100000000000D+01
0.355686356936D-02 0.000000000000D+00 0.000000000000D+00 0.171251472137D-06 0.954680779864D-10  7 1 -1 24 -13 13 -24 21 2 0.36361582D+00 0.62247575D-01 0.84367337D+05 0.84367337D+05 0.84367337D+05 0.11278311D+01  1  2  1  2  7  2       -1 0.282594515948D-02 0.100000000000D+01
  </mgrwgt>
  </event>
  <event>
  8     66 0.27727860E-05 0.31190934E+03 0.75467711E-02 0.86522310E-01
        1 -1    0    0  501    0 0.00000000E+00 0.00000000E+00 0.66841509E+03 0.66841517E+03 0.32000000E+00 0.0000E+00 0.9000E+01
       -1 -1    0    0    0  501 0.00000000E+00 0.00000000E+00 -.20580221E+03 0.20580246E+03 0.32000000E+00 0.0000E+00 0.9000E+01
       25  2    1    2    0    0 0.25422523E+03 0.11165602E+03 0.11505271E+03 0.42409959E+03 0.29920863E+03 0.0000E+00 0.0000E+00
       23  2    1    2    0    0 -.25422523E+03 -.11165602E+03 0.34756017E+03 0.45011803E+03 0.68634112E+02 0.0000E+00 0.0000E+00
       24  1    3    3    0    0 0.81903483E+02 0.10546166E+03 -.58576504E+02 0.16651956E+03 0.80419002E+02 0.0000E+00 0.9000E+01
      -13  1    4    4    0    0 -.62255062E+01 -.22768307E+01 -.27610931E+01 0.71816213E+01 0.10565837E+00 0.0000E+00 0.9000E+01
       13  1    4    4    0    0 -.24799972E+03 -.10937919E+03 0.35032126E+03 0.44293641E+03 0.10565837E+00 0.0000E+00 0.9000E+01
      -24  1    3    3    0    0 0.17232174E+03 0.61943629E+01 0.17362921E+03 0.25758003E+03 0.80419002E+02 0.0000E+00 0.9000E+01
#aMCatNLO 1  0  0  1  2 0.10242828D+04 0.00000000D+00  -5  7  0 0.00000000D+00 0.00000000D+00 0.00000000D+00 0.00000000D+00 0.00000000D+00
  <mgrwgt>
 0.1579291033D-02    5    2    0
 0.370892769173458D+03 0.000000000000000D+00 0.000000000000000D+00 0.370892769173458D+03
 0.370892769173458D+03 0.000000000000000D+00 0.000000000000000D+00 -.370892769173458D+03
 0.232779653683719D+03 0.819034829256997D+02 0.105461656421416D+03 -.172883804111989D+03
 0.101850211103497D+02 -.622493331528230D+01 -.227657693674923D+01 -.773317901574887D+01
 0.303538147512083D+03 -.248000293026313D+03 -.109379442512926D+03 0.136628691018732D+03
 0.195282716040763D+03 0.172321743415895D+03 0.619436302825835D+01 0.439882921090061D+02
 0.000000000000000D+00 0.000000000000000D+00 0.000000000000000D+00 0.000000000000000D+00
 0.165352267206029D+04 0.000000000000000D+00 0.000000000000000D+00 0.165352267206029D+04
 0.889184547655663D+03 0.000000000000000D+00 0.000000000000000D+00 -.889184547655663D+03
 0.223354403477960D+03 -.114713362019702D+03 -.192875205386605D+02 -.172883804111989D+03
 0.263066128950894D+02 -.219546729223132D+02 -.122567598163918D+02 -.773317901574887D+01
 0.887575838971145D+03 -.761430654815020D+03 -.435140010368858D+03 0.136628691018732D+03
 0.127437459458815D+03 0.332130280926233D+02 -.820671374010196D+02 0.439882921090061D+02
 0.127803290491295D+04 0.864885661664411D+03 0.548751428124930D+03 0.764338124404628D+03
0.486394621944D-04 0.000000000000D+00 0.000000000000D+00 0.353995681584D-08 0.000000000000D+00  7 1 -1 24 -13 13 -24 21 0 0.10283312D+00 0.31661904D-01 0.97287435D+05 0.97287435D+05 0.97287435D+05 0.11227034D+01  1  2  2  1  7  1        1 0.155429788242D-02 0.100000000000D+01
-.260363348467D-05 0.000000000000D+00 -.186788341891D-06 0.353995681584D-08 0.000000000000D+00  7 1 -1 24 -13 13 -24 21 2 0.10283312D+00 0.31661904D-01 0.97287435D+05 0.97287435D+05 0.97287435D+05 0.11227034D+01  1  2  3  1  7  1        1 -.104871009718D-03 0.100000000000D+01
0.309067395158D-05 0.000000000000D+00 0.000000000000D+00 0.353995681584D-08 0.000000000000D+00  7 1 -1 24 -13 13 -24 21 2 0.10283312D+00 0.31661904D-01 0.97287435D+05 0.97287435D+05 0.97287435D+05 0.11227034D+01  1  2 15  1  7  1        1 0.124488373621D-03 0.100000000000D+01
0.349423438047D-04 0.000000000000D+00 -.224958482953D-04 0.353995681584D-08 0.000000000000D+00  7 1 -1 24 -13 13 -24 21 2 0.60981064D+00 0.31661904D-01 0.97287435D+05 0.97287435D+05 0.97287435D+05 0.11227034D+01  1  2  5  1  7  1        1 0.529261060143D-05 0.100000000000D+01
0.623654673450D-05 0.000000000000D+00 -.490735394522D-05 0.353995681584D-08 0.000000000000D+00  7 21 -1 24 -13 13 -24 -1 2 0.60981064D+00 0.31661904D-01 0.97287435D+05 0.97287435D+05 0.97287435D+05 0.11227034D+01  1  2  5  3  7  1        1 0.831764925829D-07 0.100000000000D+01
  </mgrwgt>
  </event>
  <event>
  8     66 0.27727860E-05 0.23384347E+03 0.75467711E-02 0.94310707E-01
        1 -1    0    0  501    0 0.00000000E+00 0.00000000E+00 0.15780877E+04 0.15780877E+04 0.32000000E+00 0.0000E+00 0.9000E+01
       -1 -1    0    0    0  501 0.00000000E+00 0.00000000E+00 -.41678969E+02 0.41680197E+02 0.32000000E+00 0.0000E+00 0.9000E+01
       25  2    1    2    0    0 -.11659633E+03 -.89343047E+02 0.89566682E+03 0.95613249E+03 0.30065496E+03 0.0000E+00 0.0000E+00
       23  2    1    2    0    0 0.11659633E+03 0.89343047E+02 0.64074193E+03 0.66363545E+03 0.91021518E+02 0.0000E+00 0.0000E+00
       24  1    3    3    0    0 0.36058437E+02 -.87542482E+02 0.17193334E+03 0.21211362E+03 0.80419002E+02 0.0000E+00 0.9000E+01
      -11  1    4    4    0    0 0.13831294E+02 -.17741675E+02 0.55941220E+02 0.60295040E+02 0.51099893E-03 0.0000E+00 0.9000E+01
       11  1    4    4    0    0 0.10276503E+03 0.10708472E+03 0.58480071E+03 0.60334041E+03 0.51099893E-03 0.0000E+00 0.9000E+01
      -24  1    3    3    0    0 -.15265476E+03 -.18005647E+01 0.72373348E+03 0.74401888E+03 0.80419002E+02 0.0000E+00 0.9000E+01
#aMCatNLO 1  0  0  1  2 0.40973375D+03 0.00000000D+00  -5  7  0 0.00000000D+00 0.00000000D+00 0.00000000D+00 0.00000000D+00 0.00000000D+00
  <mgrwgt>
 0.1073032833D-02    3    2    0
 0.256464598199412D+03 0.000000000000000D+00 0.000000000000000D+00 0.256464598199412D+03
 0.256464598199412D+03 0.000000000000000D+00 0.000000000000000D+00 -.256464598199412D+03
 0.154826340346591D+03 0.360584366934528D+02 -.875424823399061D+02 -.924125675421869D+02
 0.228401758903623D+02 0.138312936594543D+02 -.177416754291240D+02 -.394992447728332D+01
 0.153585609535742D+03 0.102765032038273D+03 0.107084722481955D+03 0.395063268047132D+02
 0.181677070626129D+03 -.152654762391180D+03 -.180056471292441D+01 0.568561652147570D+02
 0.000000000000000D+00 -.000000000000000D+00 0.000000000000000D+00 -.000000000000000D+00
 0.401851637768294D+03 0.000000000000000D+00 0.000000000000000D+00 0.401851637768294D+03
 0.898440683897737D+03 0.000000000000000D+00 0.000000000000000D+00 -.898440683897737D+03
 0.231719480614983D+03 0.171171300200634D+03 -.968865578395290D+02 -.924125675421869D+02
 0.412327995949194D+02 0.362273013816602D+02 -.192905285998312D+02 -.394992447728332D+01
 0.272564178704987D+03 0.251721029102092D+03 0.967832896904575D+02 0.395063268047132D+02
 0.110972767822513D+03 -.503622124954188D+02 -.887486751773574D+01 0.568561652147570D+02
 0.643803094928628D+03 -.408757418188967D+03 0.282686642666385D+02 -.496589046129443D+03
0.127800754402D-04 0.000000000000D+00 0.000000000000D+00 0.471140624108D-06 0.000000000000D+00  7 1 -1 24 -11 11 -24 21 0 0.24278282D+00 0.64122461D-02 0.54682768D+05 0.54682768D+05 0.54682768D+05 0.11438911D+01  1  2  2  1  7  1        1 0.106456739889D-02 0.100000000000D+01
-.702643650637D-06 0.000000000000D+00 -.490788547615D-07 0.471140624108D-06 0.000000000000D+00  7 1 -1 24 -11 11 -24 21 2 0.24278282D+00 0.64122461D-02 0.54682768D+05 0.54682768D+05 0.54682768D+05 0.11438911D+01  1  2  3  1  7  1        1 -.765850913837D-04 0.100000000000D+01
0.780311294205D-06 0.000000000000D+00 0.000000000000D+00 0.471140624108D-06 0.000000000000D+00  7 1 -1 24 -11 11 -24 21 2 0.24278282D+00 0.64122461D-02 0.54682768D+05 0.54682768D+05 0.54682768D+05 0.11438911D+01  1  2 15  1  7  1        1 0.850505255691D-04 0.100000000000D+01
  </mgrwgt>
  </event>
  <event>
  8     66 0.27727860E-05 0.17692014E+03 0.75467711E-02 0.10179406E+00
        1 -1    0    0  501    0 0.00000000E+00 0.00000000E+00 0.89554582E+03 0.89554588E+03 0.32000000E+00 0.0000E+00 0.9000E+01
       -1 -1    0    0    0  501 0.00000000E+00 0.00000000E+00 -.53964853E+02 0.53965802E+02 0.32000000E+00 0.0000E+00 0.9000E+01
       25  2    1    2    0    0 -.46484769E+02 -.64441163E+02 0.51139117E+03 0.59740140E+03 0.29841917E+03 0.0000E+00 0.0000E+00
       23  2    1    2    0    0 0.46484769E+02 0.64441163E+02 0.33018979E+03 0.35211028E+03 0.92966954E+02 0.0000E+00 0.0000E+00
       24  1    3    3    0    0 0.55938245E+01 0.52345414E+02 0.39549163E+03 0.40700391E+03 0.80419002E+02 0.0000E+00 0.9000E+01
      -13  1    4    4    0    0 0.23462813E+02 -.12337525E+02 0.17932320E+03 0.18127201E+03 0.10565837E+00 0.0000E+00 0.9000E+01
       13  1    4    4    0    0 0.23021956E+02 0.76778688E+02 0.15086659E+03 0.17083827E+03 0.10565837E+00 0.0000E+00 0.9000E+01
      -24  1    3    3    0    0 -.52078593E+02 -.11678658E+03 0.11589954E+03 0.19039749E+03 0.80419002E+02 0.0000E+00 0.9000E+01
#aMCatNLO 1  0  0  2  1 0.16611407D+03 0.00000000D+00  -5  7  0 0.00000000D+00 0.00000000D+00 0.00000000D+00 0.00000000D+00 0.00000000D+00
  <mgrwgt>
 0.8746036478D-03    3    2    0
 0.219837386124509D+03 0.000000000000000D+00 0.000000000000000D+00 0.219837386124509D+03
 0.219837386124509D+03 0.000000000000000D+00 0.000000000000000D+00 -.219837386124509D+03
 0.121946327828648D+03 0.559381334425134D+01 0.523453931237997D+02 0.750490505436686D+02
 0.482285459149378D+02 0.234628203591167D+02 -.123376232574186D+02 0.402898467882802D+02
 0.801649633756720D+02 0.230219688676199D+02 0.767788141930003D+02 -.119331202873164D+01
 0.189334935129760D+03 -.520786025709879D+02 -.116786584059381D+03 -.114145585303217D+03
 0.000000000000000D+00 -.000000000000000D+00 -.000000000000000D+00 0.000000000000000D+00
 0.360634980948013D+03 0.000000000000000D+00 0.000000000000000D+00 0.360634980948013D+03
 0.289914790225982D+03 0.000000000000000D+00 0.000000000000000D+00 -.289914790225982D+03
 0.134891700463745D+03 0.521372965618963D+02 0.581196801379794D+02 0.750490505436686D+02
 0.597790568409168D+02 0.430356619654313D+02 -.990937342941489D+01 0.402898467882802D+02
 0.978987964684733D+02 0.552901951621378D+02 0.807820813999637D+02 -.119331202873164D+01
 0.177438731409586D+03 0.143871155578479D+02 -.108540700714450D+03 -.114145585303217D+03
 0.180541485991273D+03 -.164850269247313D+03 -.204516873940782D+02 0.707201907220307D+02
0.511092515623D-05 0.000000000000D+00 0.000000000000D+00 0.176346729012D-07 0.000000000000D+00  7 1 -1 24 -13 13 -24 21 0 0.13777636D+00 0.83023625D-02 0.31300734D+05 0.31300734D+05 0.31300734D+05 0.11656295D+01  1  2  2  2  7  2       -1 0.861460121559D-03 0.100000000000D+01
-.267655315929D-06 0.000000000000D+00 -.196272983374D-07 0.176346729012D-07 0.000000000000D+00  7 1 -1 24 -13 13 -24 21 2 0.13777636D+00 0.83023625D-02 0.31300734D+05 0.31300734D+05 0.31300734D+05 0.11656295D+01  1  2  3  2  7  2       -1 -.612960648014D-04 0.100000000000D+01
0.325047820245D-06 0.000000000000D+00 0.000000000000D+00 0.176346729012D-07 0.000000000000D+00  7 1 -1 24 -13 13 -24 21 2 0.13777636D+00 0.83023625D-02 0.31300734D+05 0.31300734D+05 0.31300734D+05 0.11656295D+01  1  2 15  2  7  2       -1 0.744395910245D-04 0.100000000000D+01
  </mgrwgt>
  </event>
  <event>
  8     66 0.27727860E-05 0.13836188E+03 0.75467711E-02 0.10566210E+00
        1 -1    0    0  501    0 0.00000000E+00 0.00000000E+00 0.14931835E+04 0.14931836E+04 0.32000000E+00 0.0000E+00 0.9000E+01
       -1 -1    0    0    0  501 0.00000000E+00 0.00000000E+00 -.39065337E+02 0.39066648E+02 0.32000000E+00 0.0000E+00 0.9000E+01
       25  2    1    2    0    0 -.37424855E+02 -.57863392E+02 0.13216267E+04 0.13572145E+04 0.30097403E+03 0.0000E+00 0.0000E+00
       23  2    1    2    0    0 0.37424855E+02 0.57863392E+02 0.13249155E+03 0.17503573E+03 0.91294605E+02 0.0000E+00 0.0000E+00
       24  1    3    3    0    0 0.65258596E+02 -.11097765E+03 0.46666861E+03 0.49073570E+03 0.80419002E+02 0.0000E+00 0.9000E+01
      -11  1    4    4    0    0 0.53058850E+01 -.15841247E+02 -.34875686E+01 0.17066360E+02 0.51099893E-03 0.0000E+00 0.9000E+01
       11  1    4    4    0    0 0.32118970E+02 0.73704638E+02 0.13597911E+03 0.15796937E+03 0.51099893E-03 0.0000E+00 0.9000E+01
      -24  1    3    3    0    0 -.10268345E+03 0.53114254E+02 0.85495804E+03 0.86647879E+03 0.80419002E+02 0.0000E+00 0.9000E+01
#aMCatNLO 1  0  0  1  2 0.27444449D+02 0.00000000D+00  -5  7  0 0.00000000D+00 0.00000000D+00 0.00000000D+00 0.00000000D+00 0.00000000D+00
  <mgrwgt>
 0.9864273181D-03    9    2    0
 0.241521734559034D+03 0.000000000000000D+00 0.000000000000000D+00 0.241521734559034D+03
 0.241521734559034D+03 0.000000000000000D+00 0.000000000000000D+00 -.241521734559034D+03
 0.151826021832635D+03 0.652585959464722D+02 -.110977645703604D+03 0.303360517103071D+01
 0.646344957774134D+02 0.530588498832723D+01 -.158412467620783D+02 -.624381336197204D+02
 0.917492892866889D+02 0.321189701434022D+02 0.737046383086049D+02 -.442032819294847D+02
 0.174833662221331D+03 -.102683451078202D+03 0.531142541570774D+02 0.103607810378174D+03
 0.000000000000000D+00 -.000000000000000D+00 0.000000000000000D+00 0.000000000000000D+00
 0.286537966746388D+03 0.000000000000000D+00 0.000000000000000D+00 0.286537966746388D+03
 0.246130671371130D+03 0.000000000000000D+00 0.000000000000000D+00 -.246130671371130D+03
 0.159114200895987D+03 0.675137027399180D+02 -.119510711463074D+03 0.303360517103071D+01
 0.656859138552351D+02 0.625103913566864D+01 -.194176017779652D+02 -.624381336197204D+02
 0.883149352692132D+02 0.334248933606984D+02 0.687631744620168D+02 -.442032819294847D+02
 0.170707428616209D+03 -.100177400061307D+03 0.436316442044589D+02 0.103607810378174D+03
 0.488461594808739D+02 -.701223517497761D+01 0.265334945745638D+02 0.404072953752583D+02
0.579010399145D-05 0.000000000000D+00 0.000000000000D+00 0.229430216944D-06 0.000000000000D+00  7 1 -1 24 -11 11 -24 21 0 0.22972065D+00 0.60101553D-02 0.37971958D+05 0.37971958D+05 0.37971958D+05 0.11579579D+01  1  2  2  1  7  1        1 0.605182235300D-03 0.100000000000D+01
-.303651026919D-06 0.000000000000D+00 -.222355238965D-07 0.229430216944D-06 0.000000000000D+00  7 1 -1 24 -11 11 -24 21 2 0.22972065D+00 0.60101553D-02 0.37971958D+05 0.37971958D+05 0.37971958D+05 0.11579579D+01  1  2  3  1  7  1        1 -.425559326971D-04 0.100000000000D+01
0.345531834296D-06 0.000000000000D+00 0.000000000000D+00 0.229430216944D-06 0.000000000000D+00  7 1 -1 24 -11 11 -24 21 2 0.22972065D+00 0.60101553D-02 0.37971958D+05 0.37971958D+05 0.37971958D+05 0.11579579D+01  1  2 15  1  7  1        1 0.484254232043D-04 0.100000000000D+01
0.204804564948D-04 0.000000000000D+00 0.000000000000D+00 0.229430216944D-06 0.000000000000D+00  7 1 -1 24 -11 11 -24 21 2 0.27445868D+00 0.60101553D-02 0.43901897D+05 0.43901897D+05 0.43901897D+05 0.11522973D+01  1  2 12  1  7  1        1 0.183990990194D-02 0.100000000000D+01
-.207567811215D-04 0.000000000000D+00 0.000000000000D+00 0.229430216944D-06 0.000000000000D+00  7 1 -1 24 -11 11 -24 21 2 0.22972065D+00 0.60101553D-02 0.37971958D+05 0.37971958D+05 0.37971958D+05 0.11579579D+01  1  2  4  1  7  1        1 -.290901100969D-02 0.100000000000D+01
-.287124096586D-04 0.000000000000D+00 -.390469566004D-05 0.229430216944D-06 0.000000000000D+00  7 1 -1 24 -11 11 -24 21 2 0.27448562D+00 0.60101553D-02 0.37971958D+05 0.37971958D+05 0.37971958D+05 0.11579579D+01  1  2  5  1  7  1        1 -.260943206396D-02 0.100000000000D+01
0.290077212244D-04 0.000000000000D+00 0.384362008530D-05 0.229430216944D-06 0.000000000000D+00  7 1 -1 24 -11 11 -24 21 2 0.22972065D+00 0.60101553D-02 0.37971958D+05 0.37971958D+05 0.37971958D+05 0.11579579D+01  1  2  6  1  7  1        1 0.406535964869D-02 0.100000000000D+01
0.535293072447D-06 0.000000000000D+00 0.000000000000D+00 0.229430216944D-06 0.000000000000D+00  7 21 -1 24 -11 11 -24 -1 2 0.27445868D+00 0.60101553D-02 0.43901897D+05 0.43901897D+05 0.43901897D+05 0.11522973D+01  1  2 12  3  7  1        1 0.318411477110D-04 0.100000000000D+01
-.714035254653D-06 0.000000000000D+00 -.102100305039D-06 0.229430216944D-06 0.000000000000D+00  7 21 -1 24 -11 11 -24 -1 2 0.27448562D+00 0.60101553D-02 0.37971958D+05 0.37971958D+05 0.37971958D+05 0.11579579D+01  1  2  5  3  7  1        1 -.432920323658D-04 0.100000000000D+01
  </mgrwgt>
  </event>
  <event>
  8     66 0.27727860E-05 0.30577835E+03 0.75467711E-02 0.98668579E-01
        1 -1    0    0  501    0 0.00000000E+00 0.00000000E+00 0.32283822E+03 0.32283838E+03 0.32000000E+00 0.0000E+00 0.9000E+01
       -1 -1    0    0    0  501 0.00000000E+00 0.00000000E+00 -.75096715E+03 0.75096721E+03 0.32000000E+00 0.0000E+00 0.9000E+01
       25  2    1    2    0    0 -.25345704E+03 0.89042467E+02 -.61491954E+03 0.73507949E+03 0.30007797E+03 0.0000E+00 0.0000E+00
       23  2    1    2    0    0 0.25345704E+03 -.89042467E+02 0.18679061E+03 0.33872611E+03 0.87610549E+02 0.0000E+00 0.0000E+00
       24  1    3    3    0    0 -.49230889E+02 -.17638250E+02 -.39528110E+03 0.40675441E+03 0.80419002E+02 0.0000E+00 0.9000E+01
      -13  1    4    4    0    0 0.21235696E+03 -.58156861E+02 0.18450694E+03 0.28726385E+03 0.10565837E+00 0.0000E+00 0.9000E+01
       13  1    4    4    0    0 0.41100087E+02 -.30885606E+02 0.22836779E+01 0.51462259E+02 0.10565837E+00 0.0000E+00 0.9000E+01
      -24  1    3    3    0    0 -.20422615E+03 0.10668072E+03 -.21963843E+03 0.32832508E+03 0.80419002E+02 0.0000E+00 0.9000E+01
#aMCatNLO 1  0  0  1  2 0.97207476D+02 0.00000000D+00  -5  7  0 0.00000000D+00 0.00000000D+00 0.00000000D+00 0.00000000D+00 0.00000000D+00
  <mgrwgt>
 0.8181021749D-03    4    2    0
 0.492383002182552D+03 0.000000000000000D+00 0.000000000000000D+00 0.492383002182552D+03
 0.492383002182552D+03 0.000000000000000D+00 0.000000000000000D+00 -.492383002182552D+03
 0.271682707320364D+03 -.492308886717449D+02 -.176382499518176D+02 -.254183967318515D+03
 0.393452619138912D+03 0.212357204664683D+03 -.581569007077736D+02 0.326078450735921D+03
 0.571076667290694D+02 0.410998374344258D+02 -.308855664260931D+02 0.248630398109648D+02
 0.262523011176758D+03 -.204226153427363D+03 0.106680717085684D+03 -.967575232283710D+02
 0.000000000000000D+00 0.000000000000000D+00 0.000000000000000D+00 -.000000000000000D+00
 0.502582401017491D+03 0.000000000000000D+00 0.000000000000000D+00 0.502582401017491D+03
 0.797391804254236D+03 0.000000000000000D+00 0.000000000000000D+00 -.797391804254236D+03
 0.278161207623076D+03 -.750579466499323D+02 -.257537739928304D+02 -.254183967318515D+03
 0.377087781260769D+03 0.176163675819855D+03 -.695298357790992D+02 0.326078450735921D+03
 0.544287220523728D+02 0.358607928593262D+02 -.325318086050151D+02 0.248630398109648D+02
 0.279874398272937D+03 -.229703436998860D+03 0.986751011344286D+02 -.967575232283710D+02
 0.310422096062572D+03 0.927369149696111D+02 0.291403172425161D+02 -.294809403236744D+03
0.115072518469D-03 0.000000000000D+00 0.000000000000D+00 0.866748830330D-06 0.000000000000D+00  7 1 -1 24 -13 13 -24 21 0 0.49667436D-01 0.11553342D+00 0.93500398D+05 0.93500398D+05 0.93500398D+05 0.11241250D+01  1  2  2  1  7  1        1 0.837497933909D-03 0.100000000000D+01
-.462884071873D-05 0.000000000000D+00 -.441908770211D-06 0.866748830330D-06 0.000000000000D+00  7 1 -1 24 -13 13 -24 21 2 0.49667436D-01 0.11553342D+00 0.93500398D+05 0.93500398D+05 0.93500398D+05 0.11241250D+01  1  2  3  1  7  1        1 -.425709754816D-04 0.100000000000D+01
0.653816507007D-05 0.000000000000D+00 0.000000000000D+00 0.866748830330D-06 0.000000000000D+00  7 1 -1 24 -13 13 -24 21 2 0.49667436D-01 0.11553342D+00 0.93500398D+05 0.93500398D+05 0.93500398D+05 0.11241250D+01  1  2 15  1  7  1        1 0.601308365971D-04 0.100000000000D+01
-.401827012893D-05 0.000000000000D+00 0.000000000000D+00 0.866748830330D-06 0.000000000000D+00  7 1 -1 24 -13 13 -24 21 2 0.49667436D-01 0.11553342D+00 0.93500398D+05 0.93500398D+05 0.93500398D+05 0.11241250D+01  1  2  4  1  7  1        1 -.369556201070D-04 0.100000000000D+01
  </mgrwgt>
  </event>
  <event>
  8     66 0.27727860E-05 0.33413215E+03 0.75467711E-02 0.92643998E-01
        1 -1    0    0  501    0 0.00000000E+00 0.00000000E+00 0.87388604E+03 0.87388610E+03 0.32000000E+00 0.0000E+00 0.9000E+01
       -1 -1    0    0    0  501 0.00000000E+00 0.00000000E+00 -.16880609E+03 0.16880639E+03 0.32000000E+00 0.0000E+00 0.9000E+01
       25  2    1    2    0    0 -.15559410E+03 0.21529812E+03 0.16419443E+03 0.43277948E+03 0.29962555E+03 0.0000E+00 0.0000E+00
       23  2    1    2    0    0 0.15559410E+03 -.21529812E+03 0.54088552E+03 0.60991300E+03 0.94201476E+02 0.0000E+00 0.0000E+00
       24  1    3    3    0    0 -.14142000E+03 0.25710254E+03 0.97966513E+02 0.31963415E+03 0.80419002E+02 0.0000E+00 0.9000E+01
      -11  1    4    4    0    0 0.11306065E+03 -.10594337E+03 0.22721797E+03 0.27501766E+03 0.51099893E-03 0.0000E+00 0.9000E+01
       11  1    4    4    0    0 0.42533446E+02 -.10935475E+03 0.31366755E+03 0.33489534E+03 0.51099893E-03 0.0000E+00 0.9000E+01
      -24  1    3    3    0    0 -.14174100E+02 -.41804424E+02 0.66227916E+02 0.11314534E+03 0.80419002E+02 0.0000E+00 0.9000E+01
#aMCatNLO 1  0  0  2  2 0.41093211D+03 0.00000000D+00  -5  7  0 0.00000000D+00 0.00000000D+00 0.00000000D+00 0.00000000D+00 0.00000000D+00
  <mgrwgt>
 0.8078522399D-03    3    2    0
 0.384080032120473D+03 0.000000000000000D+00 0.000000000000000D+00 0.384080032120473D+03
 0.384080032120473D+03 0.000000000000000D+00 0.000000000000000D+00 -.384080032120473D+03
 0.343946412198015D+03 -.141419997052137D+03 0.257102543394540D+03 -.160407559433303D+03
 0.164746934115646D+03 0.113060650918614D+03 -.105943371984806D+03 0.559896726803561D+02
 0.166673792604018D+03 0.425334463701565D+02 -.109354747113957D+03 0.118374821497338D+03
 0.927929253232660D+02 -.141741002366344D+02 -.418044242957768D+02 -.139569347443914D+02
 0.000000000000000D+00 -.000000000000000D+00 -.000000000000000D+00 0.000000000000000D+00
 0.103188925643951D+04 0.000000000000000D+00 0.000000000000000D+00 0.103188925643951D+04
 0.506380906261388D+03 0.000000000000000D+00 0.000000000000000D+00 -.506380906261388D+03
 0.372778698574012D+03 0.245790838258394D+02 0.325825145854486D+03 -.160407559433303D+03
 0.221043272289361D+03 0.202412647538314D+03 -.689521928154956D+02 0.559896726803561D+02
 0.187670725708260D+03 0.124602378335758D+03 -.753787120904247D+02 0.118374821497338D+03
 0.896761060974942D+02 0.280871391831955D+02 -.243085300971307D+02 -.139569347443914D+02
 0.667101360031769D+03 -.379681248883107D+03 -.157185710851435D+03 0.525508350178121D+03
0.273998743576D-04 0.000000000000D+00 0.000000000000D+00 0.352237310347D-06 0.000000000000D+00  7 1 -1 24 -11 11 -24 21 0 0.13444403D+00 0.25970195D-01 0.11164429D+06 0.11164429D+06 0.11164429D+06 0.11178175D+01  1  2  2  2  7  2       -1 0.801161508250D-03 0.100000000000D+01
-.148629416055D-05 0.000000000000D+00 -.105222732086D-06 0.352237310347D-06 0.000000000000D+00  7 1 -1 24 -11 11 -24 21 2 0.13444403D+00 0.25970195D-01 0.11164429D+06 0.11164429D+06 0.11164429D+06 0.11178175D+01  1  2  3  2  7  2       -1 -.543022839515D-04 0.100000000000D+01
0.166942449319D-05 0.000000000000D+00 0.000000000000D+00 0.352237310347D-06 0.000000000000D+00  7 1 -1 24 -11 11 -24 21 2 0.13444403D+00 0.25970195D-01 0.11164429D+06 0.11164429D+06 0.11164429D+06 0.11178175D+01  1  2 15  2  7  2       -1 0.609930155623D-04 0.100000000000D+01
  </mgrwgt>
  </event>
  <event>
  9     66 0.27727860E-05 0.20803844E+03 0.75467711E-02 0.10511925E+00
        1 -1    0    0  501    0 0.00000000E+00 0.00000000E+00 0.12199439E+04 0.12199440E+04 0.32000000E+00 0.0000E+00 0.9000E+01
       21 -1    0    0  502  501 0.00000000E+00 0.00000000E+00 -.15549852E+03 0.15550033E+03 0.75000000E+00 0.0000E+00 0.9000E+01
       25  2    1    2    0    0 -.72362594E+02 0.13678185E+02 0.10908362E+02 0.30914322E+03 0.30004516E+03 0.0000E+00 0.0000E+00
       23  2    1    2    0    0 0.71684225E+02 -.30145624E+02 0.10233934E+04 0.10319444E+04 0.10736810E+03 0.0000E+00 0.0000E+00
       24  1    3    3    0    0 -.52085696E+02 -.10468722E+03 -.52503532E+02 0.15131481E+03 0.80419002E+02 0.0000E+00 0.9000E+01
      -11  1    4    4    0    0 0.27765499E+02 -.68705693E+02 0.56245657E+03 0.56731719E+03 0.51099893E-03 0.0000E+00 0.9000E+01
       11  1    4    4    0    0 0.43918726E+02 0.38560069E+02 0.46093680E+03 0.46462724E+03 0.51099893E-03 0.0000E+00 0.9000E+01
      -24  1    3    3    0    0 -.20276898E+02 0.11836541E+03 0.63411893E+02 0.15782841E+03 0.80419002E+02 0.0000E+00 0.9000E+01
        1  1    1    2  502    0 0.67836880E+00 0.16467439E+02 0.30143655E+02 0.34356645E+02 0.32000000E+00 0.0000E+00 0.9000E+01
#aMCatNLO 2  0  0  2  2 0.16481406D+02 0.00000000D+00  -5  7  0 0.00000000D+00 0.00000000D+00 0.00000000D+00 0.00000000D+00 0.00000000D+00
  <mgrwgt>
 0.1046349889D-03    1    2    0
 0.426750613628233D+03 0.000000000000000D+00 0.000000000000000D+00 0.426750613628233D+03
 0.426750613628233D+03 0.000000000000000D+00 0.000000000000000D+00 -.426750613628233D+03
 0.299321948229906D+03 -.518470180923436D+02 -.988933073036585D+02 -.265816502917431D+03
 0.208505485854611D+03 0.279317077066130D+02 -.646709697965255D+02 0.196244803757034D+03
 0.172258556502979D+03 0.440553037646475D+02 0.418754915688224D+02 0.161178732171972D+03
 0.173415236668970D+03 -.201399933789170D+02 0.121688785531362D+03 -.916070330115746D+02
 0.000000000000000D+00 0.000000000000000D+00 0.000000000000000D+00 0.000000000000000D+00
 0.438418654407601D+03 0.000000000000000D+00 0.000000000000000D+00 0.438418654407601D+03
 0.432690229802807D+03 0.000000000000000D+00 0.000000000000000D+00 -.432690229802807D+03
 0.301327004306474D+03 -.520856958580143D+02 -.104687222876896D+03 -.265816502917431D+03
 0.209769917327660D+03 0.277654990780206D+02 -.687056931772396D+02 0.196244803757034D+03
 0.171447709684764D+03 0.439187264122451D+02 0.385600690081480D+02 0.161178732171972D+03
 0.171115711944753D+03 -.202768984324800D+02 0.118365408007425D+03 -.916070330115746D+02
 0.174485409467584D+02 0.678368800228526D+00 0.164674390385626D+02 0.572842460479387D+01
0.354977634270D-06 0.000000000000D+00 0.000000000000D+00 0.347765498986D-07 0.232511335180D-11  7 1 21 24 -11 11 -24 1 2 0.18768319D+00 0.23922911D-01 0.47409158D+05 0.47409158D+05 0.47409158D+05 0.11493335D+01  1  2  1  4  7  2       -1 0.104634988851D-03 0.100000000000D+01
  </mgrwgt>
  </event>
  <event>
  8     66 0.27727860E-05 0.13751416E+03 0.75467711E-02 0.10171994E+00
        1 -1    0    0  501    0 0.00000000E+00 0.00000000E+00 0.10879289E+04 0.10879290E+04 0.32000000E+00 0.0000E+00 0.9000E+01
       -1 -1    0    0    0  501 0.00000000E+00 0.00000000E+00 -.14933421E+03 0.14933455E+03 0.32000000E+00 0.0000E+00 0.9000E+01
       25  2    1    2    0    0 0.12210662E+02 0.68040273E+01 0.10543248E+04 0.10926564E+04 0.28653414E+03 0.0000E+00 0.0000E+00
       23  2    1    2    0    0 -.12210662E+02 -.68040273E+01 -.11573007E+03 0.14460715E+03 0.85570927E+02 0.0000E+00 0.0000E+00
       24  1    3    3    0    0 0.19555072E+02 0.50089311E+02 0.94533155E+03 0.95026853E+03 0.80419002E+02 0.0000E+00 0.9000E+01
      -11  1    4    4    0    0 -.49085174E+02 0.43615238E+00 -.63381064E+02 0.80166725E+02 0.51099893E-03 0.0000E+00 0.9000E+01
       11  1    4    4    0    0 0.36874512E+02 -.72401797E+01 -.52349004E+02 0.64440423E+02 0.51099893E-03 0.0000E+00 0.9000E+01
      -24  1    3    3    0    0 -.73444094E+01 -.43285284E+02 0.10899325E+03 0.14238785E+03 0.80419002E+02 0.0000E+00 0.9000E+01
#aMCatNLO 1  0  0  2  2 0.19837215D+03 0.00000000D+00  -5  7  0 0.00000000D+00 0.00000000D+00 0.00000000D+00 0.00000000D+00 0.00000000D+00
  <mgrwgt>
 0.3578736761D-02    7    2    0
 0.403069780420124D+03 0.000000000000000D+00 0.000000000000000D+00 0.403069780420124D+03
 0.403069780420124D+03 0.000000000000000D+00 0.000000000000000D+00 -.403069780420124D+03
 0.357815712062521D+03 0.195550715536651D+02 0.500893113694542D+02 0.344490243559238D+03
 0.196835021273333D+03 -.490851743079415D+02 0.436152380772756D+00 -.190616056600522D+03
 0.159853567279638D+03 0.368745122016486D+02 -.724017967882607D+01 -.155373785176698D+03
 0.916352602247543D+02 -.734440944737218D+01 -.432852840714009D+02 0.149959821798160D+01
 0.000000000000000D+00 0.000000000000000D+00 -.000000000000000D+00 -.000000000000000D+00
 0.512821940505134D+03 0.000000000000000D+00 0.000000000000000D+00 0.512821940505134D+03
 0.515760199935642D+03 0.000000000000000D+00 0.000000000000000D+00 -.515760199935642D+03
 0.378950895900501D+03 -.571416773355094D+01 0.135758557479928D+03 0.344490243559238D+03
 0.206227142973584D+03 -.629091915284529D+02 0.473031403434284D+02 -.190616056600522D+03
 0.160346316039415D+03 0.258924625486411D+02 0.299918043879408D+02 -.155373785176698D+03
 0.846638773481942D+02 -.133910259000063D+02 -.227856929626799D+02 0.149959821798160D+01
 0.198393908179083D+03 0.561219226133691D+02 -.190267809248618D+03 -.293825943050798D+01
0.142723430601D-03 0.000000000000D+00 0.000000000000D+00 0.291812074805D-09 0.000000000000D+00  7 1 -1 24 -11 11 -24 21 0 0.16737371D+00 0.22974524D-01 0.18910143D+05 0.18910143D+05 0.18910143D+05 0.11864015D+01  1  2  2  2  7  2       -1 0.363224314804D-02 0.100000000000D+01
0.321978071589D-05 0.000000000000D+00 -.548095553449D-06 0.291812074805D-09 0.000000000000D+00  7 1 -1 24 -11 11 -24 21 2 0.16737371D+00 0.22974524D-01 0.18910143D+05 0.18910143D+05 0.18910143D+05 0.11864015D+01  1  2  3  2  7  2       -1 0.115337180339D-03 0.100000000000D+01
0.864312629457D-05 0.000000000000D+00 0.000000000000D+00 0.291812074805D-09 0.000000000000D+00  7 1 -1 24 -11 11 -24 21 2 0.16737371D+00 0.22974524D-01 0.18910143D+05 0.18910143D+05 0.18910143D+05 0.11864015D+01  1  2 15  2  7  2       -1 0.309609226246D-03 0.100000000000D+01
-.476451273521D-04 0.000000000000D+00 0.000000000000D+00 0.291812074805D-09 0.000000000000D+00  7 1 -1 24 -11 11 -24 21 2 0.16737371D+00 0.22974524D-01 0.18910143D+05 0.18910143D+05 0.18910143D+05 0.11864015D+01  1  2  4  2  7  2       -1 -.170671705019D-02 0.100000000000D+01
0.281131125541D-04 0.000000000000D+00 -.525356398579D-04 0.291812074805D-09 0.000000000000D+00  7 1 -1 24 -11 11 -24 21 2 0.16737371D+00 0.37509351D-01 0.18910143D+05 0.18910143D+05 0.18910143D+05 0.11864015D+01  1  2  5  2  7  2       -1 0.453239601661D-03 0.100000000000D+01
0.300783546938D-05 0.000000000000D+00 0.467992035182D-04 0.291812074805D-09 0.000000000000D+00  7 1 -1 24 -11 11 -24 21 2 0.16737371D+00 0.22974524D-01 0.18910143D+05 0.18910143D+05 0.18910143D+05 0.11864015D+01  1  2  6  2  7  2       -1 0.107744996499D-03 0.100000000000D+01
0.387729869456D-05 0.000000000000D+00 -.291622682150D-05 0.291812074805D-09 0.000000000000D+00  7 1 21 24 -11 11 -24 1 2 0.16737371D+00 0.37509351D-01 0.18910143D+05 0.18910143D+05 0.18910143D+05 0.11864015D+01  1  2  5  4  7  2       -1 0.667279658690D-03 0.100000000000D+01
  </mgrwgt>
  </event>
  <event>
  8     66 0.27727860E-05 0.20911049E+03 0.75467711E-02 0.10400730E+00
        1 -1    0    0  501    0 0.00000000E+00 0.00000000E+00 0.16194180E+04 0.16194180E+04 0.32000000E+00 0.0000E+00 0.9000E+01
       -1 -1    0    0    0  501 0.00000000E+00 0.00000000E+00 -.13435517E+03 0.13435555E+03 0.32000000E+00 0.0000E+00 0.9000E+01
       25  2    1    2    0    0 0.60504106E+02 -.42485269E+02 0.46510385E+02 0.31059850E+03 0.29806453E+03 0.0000E+00 0.0000E+00
       23  2    1    2    0    0 -.60504106E+02 0.42485269E+02 0.14385524E+04 0.14431751E+04 0.88631004E+02 0.0000E+00 0.0000E+00
       24  1    3    3    0    0 -.16842078E+02 0.95312498E+02 -.50709336E+01 0.12594069E+03 0.80419002E+02 0.0000E+00 0.9000E+01
      -13  1    4    4    0    0 0.23077572E+02 0.57911380E+01 0.25488506E+03 0.25599320E+03 0.10565837E+00 0.0000E+00 0.9000E+01
       13  1    4    4    0    0 -.83581678E+02 0.36694131E+02 0.11836674E+04 0.11871819E+04 0.10565837E+00 0.0000E+00 0.9000E+01
      -24  1    3    3    0    0 0.77346184E+02 -.13779777E+03 0.51581319E+02 0.18465781E+03 0.80419002E+02 0.0000E+00 0.9000E+01
#aMCatNLO 1  0  0  2  1 0.62838768D+02 0.00000000D+00  -5  7  0 0.00000000D+00 0.00000000D+00 0.00000000D+00 0.00000000D+00 0.00000000D+00
  <mgrwgt>
 0.6241415943D-03    4    2    0
 0.466452080182562D+03 0.000000000000000D+00 0.000000000000000D+00 0.466452080182562D+03
 0.466452080182562D+03 0.000000000000000D+00 0.000000000000000D+00 -.466452080182562D+03
 0.244829128796685D+03 -.168420783799788D+02 0.953124976502912D+02 -.210014186521956D+03
 0.754990923056378D+02 0.230777234305525D+02 0.579109409296693D+01 0.716519005291873D+02
 0.347547129651418D+03 -.835818293568166D+02 0.366941745030675D+02 0.335345527311527D+03
 0.265028809611383D+03 0.773461843062429D+02 -.137797766246326D+03 -.196983241318758D+03
 0.000000000000000D+00 -.000000000000000D+00 0.000000000000000D+00 0.000000000000000D+00
 0.537703964350923D+03 0.000000000000000D+00 0.000000000000000D+00 0.537703964350923D+03
 0.481572440545513D+03 0.000000000000000D+00 0.000000000000000D+00 -.481572440545513D+03
 0.243616090761536D+03 -.491887872487979D+00 0.936770154808756D+02 -.210014186521956D+03
 0.771781035829687D+02 0.281884321425469D+02 0.527987846109314D+01 0.716519005291873D+02
 0.342486695237976D+03 -.604836720982433D+02 0.343837045225834D+02 0.335345527311527D+03
 0.271737229587124D+03 0.953138634797326D+02 -.139595043097660D+03 -.196983241318758D+03
 0.842582857268319D+02 -.625267356515482D+02 0.625444463310798D+01 0.561315238054094D+02
0.623531929227D-04 0.000000000000D+00 0.000000000000D+00 0.140903704957D-06 0.000000000000D+00  7 1 -1 24 -13 13 -24 21 0 0.24914126D+00 0.20670058D-01 0.43727197D+05 0.43727197D+05 0.43727197D+05 0.11524517D+01  1  2  2  2  7  2       -1 0.812087273639D-03 0.100000000000D+01
-.753043380786D-06 0.000000000000D+00 -.239452678796D-06 0.140903704957D-06 0.000000000000D+00  7 1 -1 24 -13 13 -24 21 2 0.24914126D+00 0.20670058D-01 0.43727197D+05 0.43727197D+05 0.43727197D+05 0.11524517D+01  1  2  3  2  7  2       -1 -.130259524663D-04 0.100000000000D+01
0.345434145706D-05 0.000000000000D+00 0.000000000000D+00 0.140903704957D-06 0.000000000000D+00  7 1 -1 24 -13 13 -24 21 2 0.24914126D+00 0.20670058D-01 0.43727197D+05 0.43727197D+05 0.43727197D+05 0.11524517D+01  1  2 15  2  7  2       -1 0.597523180868D-04 0.100000000000D+01
-.135666263617D-04 0.000000000000D+00 0.000000000000D+00 0.140903704957D-06 0.000000000000D+00  7 1 -1 24 -13 13 -24 21 2 0.24914126D+00 0.20670058D-01 0.43727197D+05 0.43727197D+05 0.43727197D+05 0.11524517D+01  1  2  4  2  7  2       -1 -.234672044963D-03 0.100000000000D+01
  </mgrwgt>
  </event>
  <event>
  8     66 0.27727860E-05 0.13016980E+03 0.75467711E-02 0.97244119E-01
        1 -1    0    0  501    0 0.00000000E+00 0.00000000E+00 0.91554122E+03 0.91554128E+03 0.32000000E+00 0.0000E+00 0.9000E+01
       -1 -1    0    0    0  501 0.00000000E+00 0.00000000E+00 -.16999246E+03 0.16999276E+03 0.32000000E+00 0.0000E+00 0.9000E+01
       25  2    1    2    0    0 -.26797228E+03 -.13227022E+03 0.61446823E+03 0.74645461E+03 0.30053073E+03 0.0000E+00 0.0000E+00
       23  2    1    2    0    0 0.26797228E+03 0.13227022E+03 0.13108053E+03 0.33907943E+03 0.92131412E+02 0.0000E+00 0.0000E+00
       24  1    3    3    0    0 -.10559392E+03 -.15731091E+03 0.17401820E+03 0.26952986E+03 0.80419002E+02 0.0000E+00 0.9000E+01
      -11  1    4    4    0    0 0.27088883E+03 0.12778175E+03 0.11283276E+03 0.32006275E+03 0.51099893E-03 0.0000E+00 0.9000E+01
       11  1    4    4    0    0 -.29165527E+01 0.44884722E+01 0.18247770E+02 0.19016671E+02 0.51099893E-03 0.0000E+00 0.9000E+01
      -24  1    3    3    0    0 -.16237836E+03 0.25040684E+02 0.44045003E+03 0.47692475E+03 0.80419002E+02 0.0000E+00 0.9000E+01
#aMCatNLO 1  0  0  1  2 0.10190999D+03 0.00000000D+00  -5  7  0 0.00000000D+00 0.00000000D+00 0.00000000D+00 0.00000000D+00 0.00000000D+00
  <mgrwgt>
 0.7347615213D-03    9    2    0
 0.394506393941824D+03 0.000000000000000D+00 0.000000000000000D+00 0.394506393941824D+03
 0.394506393941824D+03 0.000000000000000D+00 0.000000000000000D+00 -.394506393941824D+03
 0.206390552557812D+03 -.105593920324900D+03 -.157310905490429D+03 -.152658846762496D+02
 0.333729300762211D+03 0.270888831563182D+03 0.127781749029032D+03 -.147194808796541D+03
 0.892082011097966D+01 -.291655271558493D+01 0.448847222505846D+01 0.713641147878630D+01
 0.239972114452644D+03 -.162378358522697D+03 0.250406842363391D+02 0.155324281994004D+03
 0.000000000000000D+00 -.000000000000000D+00 0.000000000000000D+00 0.000000000000000D+00
 0.709546239986485D+03 0.000000000000000D+00 0.000000000000000D+00 0.709546239986485D+03
 0.406111656722275D+03 0.000000000000000D+00 0.000000000000000D+00 -.406111656722275D+03
 0.222614634364459D+03 -.962640246697920D+02 -.183276430012908D+03 -.152658846762496D+02
 0.332800696772835D+03 0.285384356367007D+03 0.874400433258330D+02 -.147194808796541D+03
 0.832195414047832D+01 -.254156124817445D+01 0.344485389290315D+01 0.713641147878630D+01
 0.231829698494143D+03 -.152117732733382D+03 -.351510463816548D+01 0.155324281994004D+03
 0.320090912936844D+03 -.344610377156582D+02 0.959066374323371D+02 0.303434583264210D+03
0.273636994100D-04 0.000000000000D+00 0.000000000000D+00 0.202462787985D-05 0.000000000000D+00  7 1 -1 24 -11 11 -24 21 0 0.14085252D+00 0.26152713D-01 0.12027577D+06 0.12027577D+06 0.12027577D+06 0.11152013D+01  1  2  2  1  7  1        1 0.731416618494D-03 0.100000000000D+01
-.148951192955D-05 0.000000000000D+00 -.105083810762D-06 0.202462787985D-05 0.000000000000D+00  7 1 -1 24 -11 11 -24 21 2 0.14085252D+00 0.26152713D-01 0.12027577D+06 0.12027577D+06 0.12027577D+06 0.11152013D+01  1  2  3  1  7  1        1 -.495154261700D-04 0.100000000000D+01
0.169849957607D-05 0.000000000000D+00 0.000000000000D+00 0.202462787985D-05 0.000000000000D+00  7 1 -1 24 -11 11 -24 21 2 0.14085252D+00 0.26152713D-01 0.12027577D+06 0.12027577D+06 0.12027577D+06 0.11152013D+01  1  2 15  1  7  1        1 0.564627437284D-04 0.100000000000D+01
0.915141322687D-04 0.000000000000D+00 0.000000000000D+00 0.202462787985D-05 0.000000000000D+00  7 1 -1 24 -11 11 -24 21 2 0.25389177D+00 0.26152713D-01 0.15954584D+06 0.15954584D+06 0.15954584D+06 0.11054436D+01  1  2 12  1  7  1        1 0.906235206713D-03 0.100000000000D+01
-.855241149319D-04 0.000000000000D+00 0.000000000000D+00 0.202462787985D-05 0.000000000000D+00  7 1 -1 24 -11 11 -24 21 2 0.14085252D+00 0.26152713D-01 0.12027577D+06 0.12027577D+06 0.12027577D+06 0.11152013D+01  1  2  4  1  7  1        1 -.284305410023D-02 0.100000000000D+01
-.967587770814D-04 0.000000000000D+00 -.870636296466D-05 0.202462787985D-05 0.000000000000D+00  7 1 -1 24 -11 11 -24 21 2 0.25558581D+00 0.26152713D-01 0.12027577D+06 0.12027577D+06 0.12027577D+06 0.11152013D+01  1  2  5  1  7  1        1 -.969584980905D-03 0.100000000000D+01
0.873262925900D-04 0.000000000000D+00 0.736062054633D-05 0.202462787985D-05 0.000000000000D+00  7 1 -1 24 -11 11 -24 21 2 0.14085252D+00 0.26152713D-01 0.12027577D+06 0.12027577D+06 0.12027577D+06 0.11152013D+01  1  2  6  1  7  1        1 0.290296338528D-02 0.100000000000D+01
0.591177861881D-05 0.000000000000D+00 0.000000000000D+00 0.202462787985D-05 0.000000000000D+00  7 21 -1 24 -11 11 -24 -1 2 0.25389177D+00 0.26152713D-01 0.15954584D+06 0.15954584D+06 0.15954584D+06 0.11054436D+01  1  2 12  3  7  1        1 0.407271024227D-04 0.100000000000D+01
-.584369813372D-05 0.000000000000D+00 -.567966293761D-06 0.202462787985D-05 0.000000000000D+00  7 21 -1 24 -11 11 -24 -1 2 0.25558581D+00 0.26152713D-01 0.12027577D+06 0.12027577D+06 0.12027577D+06 0.11152013D+01  1  2  5  3  7  1        1 -.408890279857D-04 0.100000000000D+01
  </mgrwgt>
  </event>
  <event>
  8     66 0.27727860E-05 0.21273797E+03 0.75467711E-02 0.95098597E-01
        1 -1    0    0  501    0 0.00000000E+00 0.00000000E+00 0.32614369E+03 0.32614384E+03 0.32000000E+00 0.0000E+00 0.9000E+01
       -1 -1    0    0    0  501 0.00000000E+00 0.00000000E+00 -.46013000E+03 0.46013011E+03 0.32000000E+00 0.0000E+00 0.9000E+01
       25  2    1    2    0    0 -.15692105E+03 0.22526711E+03 -.24504357E+03 0.47469230E+03 0.29986155E+03 0.0000E+00 0.0000E+00
       23  2    1    2    0    0 0.15692105E+03 -.22526711E+03 0.11105725E+03 0.31158165E+03 0.96850014E+02 0.0000E+00 0.0000E+00
       24  1    3    3    0    0 0.61644868E+01 0.16382898E+03 -.21222496E+03 0.27997247E+03 0.80419002E+02 0.0000E+00 0.9000E+01
      -13  1    4    4    0    0 -.12554757E+02 -.66952447E+01 0.86565042E+01 0.16655163E+02 0.10565837E+00 0.0000E+00 0.9000E+01
       13  1    4    4    0    0 0.16947581E+03 -.21857187E+03 0.10240075E+03 0.29492649E+03 0.10565837E+00 0.0000E+00 0.9000E+01
      -24  1    3    3    0    0 -.16308554E+03 0.61438133E+02 -.32818604E+02 0.19471983E+03 0.80419002E+02 0.0000E+00 0.9000E+01
#aMCatNLO 1  0  0  1  2 0.24359312D+03 0.00000000D+00  -5  7  0 0.00000000D+00 0.00000000D+00 0.00000000D+00 0.00000000D+00 0.00000000D+00
  <mgrwgt>
 0.8421259148D-03    9    2    0
 0.387386886214443D+03 0.000000000000000D+00 0.000000000000000D+00 0.387386886214443D+03
 0.387386886214443D+03 0.000000000000000D+00 0.000000000000000D+00 -.387386886214443D+03
 0.247426836841482D+03 0.616448564987768D+01 0.163828978856275D+03 -.166957744470251D+03
 0.183990426781271D+02 -.125549678185839D+02 -.669499414411660D+01 0.116651021408348D+02
 0.317013299612543D+03 0.169476018519607D+03 -.218572118718378D+03 0.154924304732773D+03
 0.191934593296734D+03 -.163085536350900D+03 0.614381340062204D+02 0.368337596642434D+00
 0.000000000000000D+00 -.000000000000000D+00 -.000000000000000D+00 0.000000000000000D+00
 0.580967757226274D+03 0.000000000000000D+00 0.000000000000000D+00 0.580967757226274D+03
 0.490906136618518D+03 0.000000000000000D+00 0.000000000000000D+00 -.490906136618518D+03
 0.293934759387855D+03 0.698591933565699D+02 0.217198599182872D+03 -.166957744470251D+03
 0.149094670058938D+02 -.863600532984012D+01 -.341130625812199D+01 0.116651021408348D+02
 0.329019495724966D+03 0.245485972595714D+03 -.154883587345187D+03 0.154924304732773D+03
 0.174301289661718D+03 -.119995506176579D+03 0.975431517237838D+02 0.368337596642434D+00
 0.259708882064358D+03 -.186713654445865D+03 -.156446857303346D+03 0.900616206077559D+02
0.419279752606D-04 0.000000000000D+00 0.000000000000D+00 0.254506088212D-06 0.000000000000D+00  7 1 -1 24 -13 13 -24 21 0 0.50175972D-01 0.70789252D-01 0.11067205D+06 0.11067205D+06 0.11067205D+06 0.11181260D+01  1  2  2  1  7  1        1 0.850454475844D-03 0.100000000000D+01
-.226367393068D-05 0.000000000000D+00 -.161014464890D-06 0.254506088212D-06 0.000000000000D+00  7 1 -1 24 -13 13 -24 21 2 0.50175972D-01 0.70789252D-01 0.11067205D+06 0.11067205D+06 0.11067205D+06 0.11181260D+01  1  2  3  1  7  1        1 -.574040547789D-04 0.100000000000D+01
0.268374921839D-05 0.000000000000D+00 0.000000000000D+00 0.254506088212D-06 0.000000000000D+00  7 1 -1 24 -13 13 -24 21 2 0.50175972D-01 0.70789252D-01 0.11067205D+06 0.11067205D+06 0.11067205D+06 0.11181260D+01  1  2 15  1  7  1        1 0.680566600417D-04 0.100000000000D+01
0.305464573563D-05 0.000000000000D+00 0.000000000000D+00 0.254506088212D-06 0.000000000000D+00  7 1 -1 24 -13 13 -24 21 2 0.79247609D-01 0.70789252D-01 0.23009126D+06 0.23009126D+06 0.23009126D+06 0.10931808D+01  1  2 12  1  7  1        1 0.391357440594D-04 0.100000000000D+01
-.186238683991D-04 0.000000000000D+00 0.000000000000D+00 0.254506088212D-06 0.000000000000D+00  7 1 -1 24 -13 13 -24 21 2 0.50175972D-01 0.70789252D-01 0.11067205D+06 0.11067205D+06 0.11067205D+06 0.11181260D+01  1  2  4  1  7  1        1 -.472278956473D-03 0.100000000000D+01
-.176715973894D-04 0.000000000000D+00 -.146913238152D-04 0.254506088212D-06 0.000000000000D+00  7 1 -1 24 -13 13 -24 21 2 0.91564063D-01 0.70789252D-01 0.11067205D+06 0.11067205D+06 0.11067205D+06 0.11181260D+01  1  2  5  1  7  1        1 -.197367965913D-03 0.100000000000D+01
0.242889056193D-04 0.000000000000D+00 0.123828697309D-04 0.254506088212D-06 0.000000000000D+00  7 1 -1 24 -13 13 -24 21 2 0.50175972D-01 0.70789252D-01 0.11067205D+06 0.11067205D+06 0.11067205D+06 0.11181260D+01  1  2  6  1  7  1        1 0.615937503098D-03 0.100000000000D+01
0.160620249247D-06 0.000000000000D+00 0.000000000000D+00 0.254506088212D-06 0.000000000000D+00  7 21 -1 24 -13 13 -24 -1 2 0.79247609D-01 0.70789252D-01 0.23009126D+06 0.23009126D+06 0.23009126D+06 0.10931808D+01  1  2 12  3  7  1        1 0.585092600892D-05 0.100000000000D+01
-.365532958054D-06 0.000000000000D+00 -.966394070263D-06 0.254506088212D-06 0.000000000000D+00  7 21 -1 24 -13 13 -24 -1 2 0.91564063D-01 0.70789252D-01 0.11067205D+06 0.11067205D+06 0.11067205D+06 0.11181260D+01  1  2  5  3  7  1        1 -.102584171313D-04 0.100000000000D+01
  </mgrwgt>
  </event>
  <event>
  8     66 0.27727860E-05 0.20873463E+03 0.75467711E-02 0.92312771E-01
        1 -1    0    0  501    0 0.00000000E+00 0.00000000E+00 0.13798169E+03 0.13798206E+03 0.32000000E+00 0.0000E+00 0.9000E+01
       -1 -1    0    0    0  501 0.00000000E+00 0.00000000E+00 -.38410095E+03 0.38410108E+03 0.32000000E+00 0.0000E+00 0.9000E+01
       25  2    1    2    0    0 -.63122057E+02 -.37713552E+02 -.83436100E+02 0.32116891E+03 0.30129916E+03 0.0000E+00 0.0000E+00
       23  2    1    2    0    0 0.63122057E+02 0.37713552E+02 -.16268316E+03 0.20091422E+03 0.92162953E+02 0.0000E+00 0.0000E+00
       24  1    3    3    0    0 0.74760612E+02 0.55781381E+02 -.51282228E+02 0.13340837E+03 0.80419002E+02 0.0000E+00 0.9000E+01
      -11  1    4    4    0    0 0.81986741E+02 0.22305538E+02 -.15237894E+03 0.17446692E+03 0.51099893E-03 0.0000E+00 0.9000E+01
       11  1    4    4    0    0 -.18864685E+02 0.15408014E+02 -.10304213E+02 0.26447307E+02 0.51099893E-03 0.0000E+00 0.9000E+01
      -24  1    3    3    0    0 -.13788267E+03 -.93494933E+02 -.32153872E+02 0.18776054E+03 0.80419002E+02 0.0000E+00 0.9000E+01
#aMCatNLO 1  0  0  2  1 0.57039021D+03 0.00000000D+00  -5  7  0 0.00000000D+00 0.00000000D+00 0.00000000D+00 0.00000000D+00 0.00000000D+00
  <mgrwgt>
 0.4726026754D-03    5    2    0
 0.230215179287967D+03 0.000000000000000D+00 0.000000000000000D+00 0.230215179287967D+03
 0.230215179287967D+03 0.000000000000000D+00 0.000000000000000D+00 -.230215179287967D+03
 0.123859598058844D+03 0.747606123540477D+02 0.557813806226424D+02 0.131633009996588D+02
 0.116375565626644D+03 0.819867413860720D+02 0.223055377796573D+02 -.795230123685899D+02
 0.244806352986417D+02 -.188646846872258D+02 0.154080142393585D+02 0.245321696479846D+01
 0.195714559591805D+03 -.137882669052894D+03 -.934949326416582D+02 0.639064944041327D+02
 0.000000000000000D+00 0.000000000000000D+00 0.000000000000000D+00 -.000000000000000D+00
 0.455495825791508D+03 0.000000000000000D+00 0.000000000000000D+00 0.455495825791508D+03
 0.128063360973535D+04 0.000000000000000D+00 0.000000000000000D+00 -.128063360973535D+04
 0.963632065502128D+02 -.295926319817786D+02 0.420672706679652D+02 0.131633009996588D+02
 0.809761757719767D+02 -.115289802342676D+02 0.100156957440319D+02 -.795230123685899D+02
 0.596583675732217D+02 -.587342065582557D+02 0.101683591595404D+02 0.245321696479846D+01
 0.496037793833217D+03 -.465671621177952D+03 -.136572977411447D+03 0.639064944041327D+02
 0.100309389179823D+04 0.565527439952254D+03 0.743216518399098D+02 -.825137783943838D+03
0.532514124963D-05 0.000000000000D+00 0.000000000000D+00 0.106122213848D-06 0.000000000000D+00  7 1 -1 24 -11 11 -24 21 0 0.21227991D-01 0.59092492D-01 0.43570147D+05 0.43570147D+05 0.43570147D+05 0.11525911D+01  1  2  2  2  7  2       -1 0.467558580708D-03 0.100000000000D+01
-.292390100298D-06 0.000000000000D+00 -.204499445405D-07 0.106122213848D-06 0.000000000000D+00  7 1 -1 24 -11 11 -24 21 2 0.21227991D-01 0.59092492D-01 0.43570147D+05 0.43570147D+05 0.43570147D+05 0.11525911D+01  1  2  3  2  7  2       -1 -.341050033067D-04 0.100000000000D+01
0.330788952192D-06 0.000000000000D+00 0.000000000000D+00 0.106122213848D-06 0.000000000000D+00  7 1 -1 24 -11 11 -24 21 2 0.21227991D-01 0.59092492D-01 0.43570147D+05 0.43570147D+05 0.43570147D+05 0.11525911D+01  1  2 15  2  7  2       -1 0.385839270783D-04 0.100000000000D+01
0.291937843427D-05 0.000000000000D+00 -.285854579876D-05 0.106122213848D-06 0.000000000000D+00  7 1 -1 24 -11 11 -24 21 2 0.21227991D-01 0.44109297D+00 0.43570147D+05 0.43570147D+05 0.43570147D+05 0.11525911D+01  1  2  5  2  7  2       -1 0.144236922702D-06 0.100000000000D+01
0.410865575312D-06 0.000000000000D+00 -.700361844088D-06 0.106122213848D-06 0.000000000000D+00  7 1 21 24 -11 11 -24 1 2 0.21227991D-01 0.44109297D+00 0.43570147D+05 0.43570147D+05 0.43570147D+05 0.11525911D+01  1  2  5  4  7  2       -1 0.420933951631D-06 0.100000000000D+01
  </mgrwgt>
  </event>
  <event>
  8     66 0.27727860E-05 0.20696708E+03 0.75467711E-02 0.96100653E-01
        1 -1    0    0  501    0 0.00000000E+00 0.00000000E+00 0.13714119E+03 0.13714156E+03 0.32000000E+00 0.0000E+00 0.9000E+01
       -1 -1    0    0    0  501 0.00000000E+00 0.00000000E+00 -.88105773E+03 0.88105778E+03 0.32000000E+00 0.0000E+00 0.9000E+01
       25  2    1    2    0    0 -.36043275E+02 -.82667497E+02 -.56367172E+02 0.31831941E+03 0.30002826E+03 0.0000E+00 0.0000E+00
       23  2    1    2    0    0 0.36043275E+02 0.82667497E+02 -.68754937E+03 0.69987993E+03 0.94735178E+02 0.0000E+00 0.0000E+00
       24  1    3    3    0    0 -.25839806E+02 0.80998816E+02 -.67924453E+02 0.13531242E+03 0.80419002E+02 0.0000E+00 0.9000E+01
      -11  1    4    4    0    0 0.33286051E+00 -.12558089E+02 -.26373026E+03 0.26402929E+03 0.51099893E-03 0.0000E+00 0.9000E+01
       11  1    4    4    0    0 0.35710414E+02 0.95225585E+02 -.42381911E+03 0.43585065E+03 0.51099893E-03 0.0000E+00 0.9000E+01
      -24  1    3    3    0    0 -.10203469E+02 -.16366631E+03 0.11557281E+02 0.18300699E+03 0.80419002E+02 0.0000E+00 0.9000E+01
#aMCatNLO 1  0  0  2  1 0.35920700D+03 0.00000000D+00  -5  7  0 0.00000000D+00 0.00000000D+00 0.00000000D+00 0.00000000D+00 0.00000000D+00
  <mgrwgt>
 0.4628686069D-03    5    2    0
 0.347605410815165D+03 0.000000000000000D+00 0.000000000000000D+00 0.347605410815165D+03
 0.347605410815165D+03 0.000000000000000D+00 0.000000000000000D+00 -.347605410815165D+03
 0.125494152617054D+03 -.258398056254988D+02 0.809988155425404D+02 0.453107350706622D+02
 0.104487940601646D+03 0.332860521774654D+00 -.125580885402048D+02 -.103730002155897D+03
 0.184831407273973D+03 0.357104141657742D+02 0.952255852183172D+02 -.154335683996979D+03
 0.280397321137657D+03 -.102034690620500D+02 -.163666312220653D+03 0.212754951082214D+03
 0.000000000000000D+00 0.000000000000000D+00 -.000000000000000D+00 -.000000000000000D+00
 0.526913962105759D+03 0.000000000000000D+00 0.000000000000000D+00 0.526913962105759D+03
 0.629060897298059D+03 0.000000000000000D+00 0.000000000000000D+00 -.629060897298059D+03
 0.185163630873089D+03 -.510142462604882D+02 0.152193423673842D+03 0.453107350706622D+02
 0.111436441047939D+03 -.171647713302751D+02 0.369261109697155D+02 -.103730002155897D+03
 0.248281701976024D+03 0.612693018878375D+00 0.194483739136620D+03 -.154335683996979D+03
 0.237644745169924D+03 -.521834867463687D+02 -.449446710245350D+02 0.212754951082214D+03
 0.373448340336841D+03 0.119749811318254D+03 -.338658602755642D+03 -.102146935192300D+03
0.290415916656D-04 0.000000000000D+00 0.000000000000D+00 0.346468492581D-06 0.000000000000D+00  7 1 -1 24 -11 11 -24 21 0 0.21098677D-01 0.13554738D+00 0.42835373D+05 0.42835373D+05 0.42835373D+05 0.11532507D+01  1  2  2  2  7  2       -1 0.441153968410D-03 0.100000000000D+01
-.108602109211D-05 0.000000000000D+00 -.111527358823D-06 0.346468492581D-06 0.000000000000D+00  7 1 -1 24 -11 11 -24 21 2 0.21098677D-01 0.13554738D+00 0.42835373D+05 0.42835373D+05 0.42835373D+05 0.11532507D+01  1  2  3  2  7  2       -1 -.219409526255D-04 0.100000000000D+01
0.172379969371D-05 0.000000000000D+00 0.000000000000D+00 0.346468492581D-06 0.000000000000D+00  7 1 -1 24 -11 11 -24 21 2 0.21098677D-01 0.13554738D+00 0.42835373D+05 0.42835373D+05 0.42835373D+05 0.11532507D+01  1  2 15  2  7  2       -1 0.348260339418D-04 0.100000000000D+01
0.355265352617D-05 0.000000000000D+00 -.790010989932D-05 0.346468492581D-06 0.000000000000D+00  7 1 -1 24 -11 11 -24 21 2 0.21098677D-01 0.31106379D+00 0.42835373D+05 0.42835373D+05 0.42835373D+05 0.11532507D+01  1  2  5  2  7  2       -1 0.263929468499D-05 0.100000000000D+01
0.820870421302D-06 0.000000000000D+00 -.714020287054D-06 0.346468492581D-06 0.000000000000D+00  7 1 21 24 -11 11 -24 1 2 0.21098677D-01 0.31106379D+00 0.42835373D+05 0.42835373D+05 0.42835373D+05 0.11532507D+01  1  2  5  4  7  2       -1 0.619026251948D-05 0.100000000000D+01
  </mgrwgt>
  </event>
  <event>
  9     66 0.27727860E-05 0.39651240E+03 0.75467711E-02 0.89480674E-01
        1 -1    0    0  502    0 0.00000000E+00 0.00000000E+00 0.13022959E+04 0.13022959E+04 0.32000000E+00 0.0000E+00 0.9000E+01
       -1 -1    0    0    0  501 0.00000000E+00 0.00000000E+00 -.65866502E+03 0.65866510E+03 0.32000000E+00 0.0000E+00 0.9000E+01
       25  2    1    2    0    0 -.31546385E+02 0.36618990E+03 0.32811621E+03 0.57591112E+03 0.29819986E+03 0.0000E+00 0.0000E+00
       23  2    1    2    0    0 -.52756751E+03 -.11739997E+03 0.50421757E+03 0.74464832E+03 0.90307977E+02 0.0000E+00 0.0000E+00
       24  1    3    3    0    0 -.68407259E+02 0.23677107E+02 0.27403338E+02 0.11161683E+03 0.80419002E+02 0.0000E+00 0.9000E+01
      -11  1    4    4    0    0 -.12599201E+03 -.74657502E+01 0.16417305E+03 0.20708094E+03 0.51099893E-03 0.0000E+00 0.9000E+01
       11  1    4    4    0    0 -.40157550E+03 -.10993422E+03 0.34004452E+03 0.53756738E+03 0.51099893E-03 0.0000E+00 0.9000E+01
      -24  1    3    3    0    0 0.36860874E+02 0.34251280E+03 0.30071287E+03 0.46429429E+03 0.80419002E+02 0.0000E+00 0.9000E+01
       21  1    1    2  502  501 0.55911390E+03 -.24878994E+03 -.18870295E+03 0.64040155E+03 0.75000000E+00 0.0000E+00 0.9000E+01
#aMCatNLO 2  0  0  1  1 0.61196796D+03 0.00000000D+00  -5  7  0 0.00000000D+00 0.00000000D+00 0.00000000D+00 0.00000000D+00 0.00000000D+00
  <mgrwgt>
 0.7634600608D-05    1    2    0
 0.411276347310432D+03 0.000000000000000D+00 0.000000000000000D+00 0.411276347310432D+03
 0.411276347310432D+03 0.000000000000000D+00 0.000000000000000D+00 -.411276347310432D+03
 0.978051181541749D+02 -.204191722145801D+01 -.585360137106024D+01 -.553189940963411D+02
 0.829484002839725D+02 -.605131450778521D+02 -.366020000457469D+02 0.433461644797794D+02
 0.279232233172084D+03 -.191100552723451D+03 -.203589641059802D+03 0.157379928890633D+01
 0.362566943010631D+03 0.253655615022761D+03 0.246045242476609D+03 0.103990303276554D+02
 0.000000000000000D+00 0.000000000000000D+00 -.000000000000000D+00 -.000000000000000D+00
 0.620166988263455D+03 0.000000000000000D+00 0.000000000000000D+00 0.620166988263455D+03
 0.138313794166768D+04 0.000000000000000D+00 0.000000000000000D+00 -.138313794166768D+04
 0.121521872902982D+03 -.684072594823662D+02 0.236771067016027D+02 -.553189940963411D+02
 0.133448917429142D+03 -.125992008327432D+03 -.746575016472821D+01 0.433461644797794D+02
 0.416354288468792D+03 -.401575503199297D+03 -.109934216294946D+03 0.157379928890633D+01
 0.353905489097973D+03 0.368608742195113D+02 0.342512795935163D+03 0.103990303276554D+02
 0.978074362032248D+03 0.559113896789584D+03 -.248789936177091D+03 -.762970953404226D+03
0.658713371869D-05 0.000000000000D+00 0.000000000000D+00 0.224175875422D-06 0.780131439400D-11  7 1 -1 24 -11 11 -24 21 2 0.20035318D+00 0.10133307D+00 0.65325641D+06 0.65325641D+06 0.65325641D+06 0.10603996D+01  1  2  1  1  7  1        1 0.763460060771D-05 0.100000000000D+01
  </mgrwgt>
  </event>
  <event>
  8     66 0.27727860E-05 0.21831409E+03 0.75467711E-02 0.87485852E-01
        1 -1    0    0  501    0 0.00000000E+00 0.00000000E+00 0.71565343E+03 0.71565350E+03 0.32000000E+00 0.0000E+00 0.9000E+01
       -1 -1    0    0    0  501 0.00000000E+00 0.00000000E+00 -.70541203E+02 0.70541928E+02 0.32000000E+00 0.0000E+00 0.9000E+01
       25  2    1    2    0    0 0.58361190E+02 -.73362789E+02 0.50230106E+03 0.59277413E+03 0.30047742E+03 0.0000E+00 0.0000E+00
       23  2    1    2    0    0 -.58361190E+02 0.73362789E+02 0.14281116E+03 0.19342130E+03 0.90711875E+02 0.0000E+00 0.0000E+00
       24  1    3    3    0    0 0.57134684E+02 0.89035410E+02 0.23149461E+03 0.26692442E+03 0.80419002E+02 0.0000E+00 0.9000E+01
      -13  1    4    4    0    0 0.90435403E+01 -.11188724E+02 0.46301443E+02 0.48485132E+02 0.10565837E+00 0.0000E+00 0.9000E+01
       13  1    4    4    0    0 -.67404731E+02 0.84551513E+02 0.96509717E+02 0.14493617E+03 0.10565837E+00 0.0000E+00 0.9000E+01
      -24  1    3    3    0    0 0.12265062E+01 -.16239820E+03 0.27080646E+03 0.32584971E+03 0.80419002E+02 0.0000E+00 0.9000E+01
#aMCatNLO 1  0  0  1  1 0.94088372D+03 0.00000000D+00  -5  7  0 0.00000000D+00 0.00000000D+00 0.00000000D+00 0.00000000D+00 0.00000000D+00
  <mgrwgt>
 0.1710017954D-02    3    2    0
 0.224685039115814D+03 0.000000000000000D+00 0.000000000000000D+00 0.224685039115814D+03
 0.224685039115814D+03 0.000000000000000D+00 0.000000000000000D+00 -.224685039115814D+03
 0.134665733539366D+03 0.571346865016982D+02 0.890353901837624D+02 0.218167533905229D+02
 0.183570323989460D+02 0.904364173779298D+01 -.111888514618910D+02 0.114018764060194D+02
 0.115024617416506D+03 -.674048453770487D+02 0.845516571159741D+02 -.392207433694520D+02
 0.181322694876810D+03 0.122651713755749D+01 -.162398195837846D+03 0.600211357290968D+01
 0.000000000000000D+00 -.000000000000000D+00 -.000000000000000D+00 -.000000000000000D+00
 0.574811438989320D+03 0.000000000000000D+00 0.000000000000000D+00 0.574811438989320D+03
 0.466055289700545D+04 0.000000000000000D+00 0.000000000000000D+00 -.466055289700545D+04
 0.508084437643748D+03 0.904211644449713D+02 0.492981360817329D+03 0.218167533905229D+02
 0.208015398507053D+02 0.110715695547219D+02 0.134209396905467D+02 0.114018764060194D+02
 0.431739514802699D+03 -.390892524091202D+02 0.428173764116525D+03 -.392207433694520D+02
 0.820612469046971D+02 0.148665349264050D+02 0.312938670077526D+01 0.600211357290968D+01
 0.419267759679292D+04 -.772700165169780D+02 -.937705451325176D+03 -.408574145801613D+04
0.106145855102D-04 0.000000000000D+00 0.000000000000D+00 0.329085093012D-06 0.000000000000D+00  7 1 -1 24 -13 13 -24 21 0 0.11010059D+00 0.10852554D-01 0.47661044D+05 0.47661044D+05 0.47661044D+05 0.11491300D+01  1  2  2  1  7  1        1 0.169204523637D-02 0.100000000000D+01
-.589105950225D-06 0.000000000000D+00 -.407628032437D-07 0.329085093012D-06 0.000000000000D+00  7 1 -1 24 -13 13 -24 21 2 0.11010059D+00 0.10852554D-01 0.47661044D+05 0.47661044D+05 0.47661044D+05 0.11491300D+01  1  2  3  1  7  1        1 -.124005423940D-03 0.100000000000D+01
0.674487979283D-06 0.000000000000D+00 0.000000000000D+00 0.329085093012D-06 0.000000000000D+00  7 1 -1 24 -13 13 -24 21 2 0.11010059D+00 0.10852554D-01 0.47661044D+05 0.47661044D+05 0.47661044D+05 0.11491300D+01  1  2 15  1  7  1        1 0.141978141252D-03 0.100000000000D+01
  </mgrwgt>
  </event>
  <event>
  8     66 0.27727860E-05 0.96085629E+02 0.75467711E-02 0.10320108E+00
        1 -1    0    0  501    0 0.00000000E+00 0.00000000E+00 0.29724381E+03 0.29724399E+03 0.32000000E+00 0.0000E+00 0.9000E+01
       -1 -1    0    0    0  501 0.00000000E+00 0.00000000E+00 -.24679057E+03 0.24679078E+03 0.32000000E+00 0.0000E+00 0.9000E+01
       25  2    1    2    0    0 0.12637464E+03 0.90612838E+02 0.10705746E+03 0.35418296E+03 0.29967154E+03 0.0000E+00 0.0000E+00
       23  2    1    2    0    0 -.12637464E+03 -.90612838E+02 -.56604209E+02 0.18985181E+03 0.93050722E+02 0.0000E+00 0.0000E+00
       24  1    3    3    0    0 0.14737670E+03 0.14819200E+03 0.11686317E+03 0.25259647E+03 0.80419002E+02 0.0000E+00 0.9000E+01
      -13  1    4    4    0    0 -.22090675E+02 -.29184017E+02 0.24601821E+02 0.44101763E+02 0.10565837E+00 0.0000E+00 0.9000E+01
       13  1    4    4    0    0 -.10428396E+03 -.61428821E+02 -.81206030E+02 0.14575004E+03 0.10565837E+00 0.0000E+00 0.9000E+01
      -24  1    3    3    0    0 -.21002064E+02 -.57579161E+02 -.98057112E+01 0.10158649E+03 0.80419002E+02 0.0000E+00 0.9000E+01
#aMCatNLO 1  0  0  2  1 0.18212226D+02 0.00000000D+00  -5  7  0 0.00000000D+00 0.00000000D+00 0.00000000D+00 0.00000000D+00 0.00000000D+00
  <mgrwgt>
 0.3929651920D-03    9    2    0
 0.270845108885156D+03 0.000000000000000D+00 0.000000000000000D+00 0.270845108885156D+03
 0.270845108885156D+03 0.000000000000000D+00 0.000000000000000D+00 -.270845108885156D+03
 0.242805080683855D+03 0.147376705028257D+03 0.148192002747916D+03 0.938420395563646D+02
 0.420010708929128D+02 -.220905719789172D+02 -.291839738866864D+02 0.206007828486437D+02
 0.153944586042081D+03 -.104284071404785D+03 -.614288697126148D+02 -.951328649244836D+02
 0.102939480151463D+03 -.210020616445549D+02 -.575791591486151D+02 -.193099574805246D+02
 0.000000000000000D+00 -.000000000000000D+00 -.000000000000000D+00 -.000000000000000D+00
 0.275654192073867D+03 0.000000000000000D+00 0.000000000000000D+00 0.275654192073867D+03
 0.288807519128103D+03 0.000000000000000D+00 0.000000000000000D+00 -.288807519128103D+03
 0.249925763114552D+03 0.153830750824378D+03 0.153380060068871D+03 0.938420395563646D+02
 0.408311906602514D+02 -.210055917788973D+02 -.283118171577726D+02 0.206007828486437D+02
 0.150004905012284D+03 -.100302782310216D+03 -.582285273713298D+02 -.951328649244836D+02
 0.101234430142397D+03 -.183276851893461D+02 -.554293729856823D+02 -.193099574805246D+02
 0.224654222724854D+02 -.141946915459186D+02 -.114103425540864D+02 -.131533270542367D+02
0.424329967382D-05 0.000000000000D+00 0.000000000000D+00 0.354040944724D-06 0.000000000000D+00  7 1 -1 24 -13 13 -24 21 0 0.45729847D-01 0.37967809D-01 0.58245757D+05 0.58245757D+05 0.58245757D+05 0.11415094D+01  1  2  2  2  7  2       -1 0.302681366809D-03 0.100000000000D+01
-.231926227454D-06 0.000000000000D+00 -.162953880339D-07 0.354040944724D-06 0.000000000000D+00  7 1 -1 24 -13 13 -24 21 2 0.45729847D-01 0.37967809D-01 0.58245757D+05 0.58245757D+05 0.58245757D+05 0.11415094D+01  1  2  3  2  7  2       -1 -.215571256544D-04 0.100000000000D+01
0.261336140328D-06 0.000000000000D+00 0.000000000000D+00 0.354040944724D-06 0.000000000000D+00  7 1 -1 24 -13 13 -24 21 2 0.45729847D-01 0.37967809D-01 0.58245757D+05 0.58245757D+05 0.58245757D+05 0.11415094D+01  1  2 15  2  7  2       -1 0.242907241536D-04 0.100000000000D+01
0.168276550157D-04 0.000000000000D+00 0.000000000000D+00 0.354040944724D-06 0.000000000000D+00  7 1 -1 24 -13 13 -24 21 2 0.45729847D-01 0.40808016D-01 0.62614913D+05 0.62614913D+05 0.62614913D+05 0.11387990D+01  1  2 12  2  7  2       -1 0.137498707597D-02 0.100000000000D+01
-.168508353380D-04 0.000000000000D+00 0.000000000000D+00 0.354040944724D-06 0.000000000000D+00  7 1 -1 24 -13 13 -24 21 2 0.45729847D-01 0.37967809D-01 0.58245757D+05 0.58245757D+05 0.58245757D+05 0.11415094D+01  1  2  4  2  7  2       -1 -.156625483349D-02 0.100000000000D+01
-.453870551749D-04 0.000000000000D+00 -.701024473661D-05 0.354040944724D-06 0.000000000000D+00  7 1 -1 24 -13 13 -24 21 2 0.45729847D-01 0.41089210D-01 0.58245757D+05 0.58245757D+05 0.58245757D+05 0.11415094D+01  1  2  5  2  7  2       -1 -.368362429692D-02 0.100000000000D+01
0.458196557678D-04 0.000000000000D+00 0.698842221105D-05 0.354040944724D-06 0.000000000000D+00  7 1 -1 24 -13 13 -24 21 2 0.45729847D-01 0.37967809D-01 0.58245757D+05 0.58245757D+05 0.58245757D+05 0.11415094D+01  1  2  6  2  7  2       -1 0.425885458350D-02 0.100000000000D+01
0.220194544049D-06 0.000000000000D+00 0.000000000000D+00 0.354040944724D-06 0.000000000000D+00  7 1 21 24 -13 13 -24 1 2 0.45729847D-01 0.40808016D-01 0.62614913D+05 0.62614913D+05 0.62614913D+05 0.11387990D+01  1  2 12  4  7  2       -1 0.181024044949D-03 0.100000000000D+01
-.584699239352D-06 0.000000000000D+00 -.926009368820D-07 0.354040944724D-06 0.000000000000D+00  7 1 21 24 -13 13 -24 1 2 0.45729847D-01 0.41089210D-01 0.58245757D+05 0.58245757D+05 0.58245757D+05 0.11415094D+01  1  2  5  4  7  2       -1 -.477436347305D-03 0.100000000000D+01
  </mgrwgt>
  </event>
  <event>
  8     66 0.27727860E-05 0.10763900E+03 0.75467711E-02 0.10767678E+00
        1 -1    0    0  501    0 0.00000000E+00 0.00000000E+00 0.17102548E+04 0.17102548E+04 0.32000000E+00 0.0000E+00 0.9000E+01
       -1 -1    0    0    0  501 0.00000000E+00 0.00000000E+00 -.34037822E+02 0.34039327E+02 0.32000000E+00 0.0000E+00 0.9000E+01
       25  2    1    2    0    0 -.96427276E+01 0.58456392E+02 0.14852674E+04 0.15172216E+04 0.30402645E+03 0.0000E+00 0.0000E+00
       23  2    1    2    0    0 0.96427276E+01 -.58456392E+02 0.19094958E+03 0.22707253E+03 0.10765714E+03 0.0000E+00 0.0000E+00
       24  1    3    3    0    0 0.31037273E+02 0.10127299E+03 0.30486748E+03 0.33261228E+03 0.80419002E+02 0.0000E+00 0.9000E+01
      -11  1    4    4    0    0 0.83580786E+01 -.90367563E+02 0.14667948E+03 0.17248485E+03 0.51099893E-03 0.0000E+00 0.9000E+01
       11  1    4    4    0    0 0.12846490E+01 0.31911171E+02 0.44270099E+02 0.54587680E+02 0.51099893E-03 0.0000E+00 0.9000E+01
      -24  1    3    3    0    0 -.40680000E+02 -.42816597E+02 0.11803999E+04 0.11846093E+04 0.80419002E+02 0.0000E+00 0.9000E+01
#aMCatNLO 1  0  0  2  1 0.99234287D+01 0.00000000D+00  -5  7  0 0.00000000D+00 0.00000000D+00 0.00000000D+00 0.00000000D+00 0.00000000D+00
  <mgrwgt>
 0.7119206335D-03    8    2    0
 0.241277198380053D+03 0.000000000000000D+00 0.000000000000000D+00 0.241277198380053D+03
 0.241277198380053D+03 0.000000000000000D+00 0.000000000000000D+00 -.241277198380053D+03
 0.143299087492683D+03 0.310372719296224D+02 0.101272989499250D+03 -.533655494763843D+02
 0.113971987100881D+03 0.835807882530627D+01 -.903675627756720D+02 -.689453403795954D+02
 0.435405400882403D+02 0.128464917820953D+01 0.319111684550901D+02 -.295940135077257D+02
 0.181742782078302D+03 -.406799999331382D+02 -.428165951786685D+02 0.151904903363705D+03
 0.000000000000000D+00 -.000000000000000D+00 -.000000000000000D+00 0.000000000000000D+00
 0.246629274919030D+03 0.000000000000000D+00 0.000000000000000D+00 0.246629274919030D+03
 0.245972298022708D+03 0.000000000000000D+00 0.000000000000000D+00 -.245972298022708D+03
 0.144882776661840D+03 0.336422222299141D+02 0.102684575430737D+03 -.533655494763843D+02
 0.113261822337188D+03 0.104121039176512D+02 -.892545154661127D+02 -.689453403795954D+02
 0.438856232395699D+02 0.207491684853042D+01 0.323394033912457D+02 -.295940135077257D+02
 0.180626198282803D+03 -.374044531287706D+02 -.410416224329487D+02 0.151904903363705D+03
 0.994515242033686D+01 -.872478986732507D+01 -.472784092292179D+01 0.656976896321344D+00
0.425536387114D-05 0.000000000000D+00 0.000000000000D+00 0.131066747489D-09 0.000000000000D+00  7 1 -1 24 -11 11 -24 21 0 0.26311624D+00 0.52367061D-02 0.31587642D+05 0.31587642D+05 0.31587642D+05 0.11652637D+01  1  2  2  2  7  2       -1 0.395102191435D-03 0.100000000000D+01
-.209549699102D-06 0.000000000000D+00 -.163417177282D-07 0.131066747489D-09 0.000000000000D+00  7 1 -1 24 -11 11 -24 21 2 0.26311624D+00 0.52367061D-02 0.31587642D+05 0.31587642D+05 0.31587642D+05 0.11652637D+01  1  2  3  2  7  2       -1 -.264185022974D-04 0.100000000000D+01
0.260714117373D-06 0.000000000000D+00 0.000000000000D+00 0.131066747489D-09 0.000000000000D+00  7 1 -1 24 -11 11 -24 21 2 0.26311624D+00 0.52367061D-02 0.31587642D+05 0.31587642D+05 0.31587642D+05 0.11652637D+01  1  2 15  2  7  2       -1 0.328689401050D-04 0.100000000000D+01
0.501580487442D-05 0.000000000000D+00 0.000000000000D+00 0.131066747489D-09 0.000000000000D+00  7 1 -1 24 -11 11 -24 21 2 0.26311624D+00 0.53954968D-02 0.33235729D+05 0.33235729D+05 0.33235729D+05 0.11632310D+01  1  2 12  2  7  2       -1 0.602783773457D-03 0.100000000000D+01
-.360544188459D-05 0.000000000000D+00 0.000000000000D+00 0.131066747489D-09 0.000000000000D+00  7 1 -1 24 -11 11 -24 21 2 0.26311624D+00 0.52367061D-02 0.31587642D+05 0.31587642D+05 0.31587642D+05 0.11652637D+01  1  2  4  2  7  2       -1 -.454547895414D-03 0.100000000000D+01
0.500123513768D-13 0.000000000000D+00 0.000000000000D+00 0.131066747489D-09 0.960801822611D-11  7 1 -1 24 -11 11 -24 21 2 0.26895275D+00 0.53386090D-02 0.33235729D+05 0.33235729D+05 0.33235729D+05 0.11632310D+01  1  2 11  2  7  2       -1 0.577157731960D-11 0.100000000000D+01
0.854919291096D-07 0.000000000000D+00 0.000000000000D+00 0.131066747489D-09 0.000000000000D+00  7 1 21 24 -11 11 -24 1 2 0.26311624D+00 0.53954968D-02 0.33235729D+05 0.33235729D+05 0.33235729D+05 0.11632310D+01  1  2 12  4  7  2       -1 0.162132119734D-03 0.100000000000D+01
0.391955483976D-15 0.000000000000D+00 0.000000000000D+00 0.131066747489D-09 0.340005013559D-13  7 1 21 24 -11 11 -24 1 2 0.26895275D+00 0.53386090D-02 0.33235729D+05 0.33235729D+05 0.33235729D+05 0.11632310D+01  1  2 11  4  7  2       -1 0.714911675793D-12 0.100000000000D+01
  </mgrwgt>
  </event>
  <event>
  8     66 0.27727860E-05 0.55865646E+03 0.75467711E-02 0.86921141E-01
        1 -1    0    0  501    0 0.00000000E+00 0.00000000E+00 0.60289472E+03 0.60289480E+03 0.32000000E+00 0.0000E+00 0.9000E+01
       -1 -1    0    0    0  501 0.00000000E+00 0.00000000E+00 -.89417408E+03 0.89417414E+03 0.32000000E+00 0.0000E+00 0.9000E+01
       25  2    1    2    0    0 0.41059401E+03 0.33390451E+03 -.61988645E+03 0.86773091E+03 0.29768785E+03 0.0000E+00 0.0000E+00
       23  2    1    2    0    0 -.41059401E+03 -.33390451E+03 0.32860708E+03 0.62933804E+03 0.89465553E+02 0.0000E+00 0.0000E+00
       24  1    3    3    0    0 0.12255871E+03 0.22566344E+03 -.17551208E+03 0.32127299E+03 0.80419002E+02 0.0000E+00 0.9000E+01
      -11  1    4    4    0    0 -.42480227E+02 -.47875070E+02 0.75158636E+02 0.98718856E+02 0.51099893E-03 0.0000E+00 0.9000E+01
       11  1    4    4    0    0 -.36811378E+03 -.28602944E+03 0.25344844E+03 0.53061918E+03 0.51099893E-03 0.0000E+00 0.9000E+01
      -24  1    3    3    0    0 0.28803530E+03 0.10824107E+03 -.44437436E+03 0.54645792E+03 0.80419002E+02 0.0000E+00 0.9000E+01
#aMCatNLO 1  0  0  2  2 0.74172230D+03 0.00000000D+00  -5  7  0 0.00000000D+00 0.00000000D+00 0.00000000D+00 0.00000000D+00 0.00000000D+00
  <mgrwgt>
 0.1677505348D-02    5    2    0
 0.734229485513044D+03 0.000000000000000D+00 0.000000000000000D+00 0.734229485513044D+03
 0.734229485513044D+03 0.000000000000000D+00 0.000000000000000D+00 -.734229485513044D+03
 0.292718266558284D+03 0.122558706996005D+03 0.225663443064546D+03 -.115204780396638D+03
 0.115550449309442D+03 -.424802269467658D+02 -.478750702558144D+02 0.962045440827305D+02
 0.591230543648793D+03 -.368113784812128D+03 -.286029443688424D+03 0.363638494273954D+03
 0.468959711509569D+03 0.288035304762889D+03 0.108241070879693D+03 -.344638257960046D+03
 0.000000000000000D+00 -.000000000000000D+00 0.000000000000000D+00 -.000000000000000D+00
 0.108239047219279D+04 0.000000000000000D+00 0.000000000000000D+00 0.108239047219279D+04
 0.135194539207910D+04 0.000000000000000D+00 0.000000000000000D+00 -.135194539207910D+04
 0.271779660912440D+03 0.201291392382862D+03 0.116647340551088D+03 -.115204780396638D+03
 0.136495204764018D+03 -.732645539227352D+01 -.965502442917170D+02 0.962045440827305D+02
 0.670631051744129D+03 -.192117120950187D+03 -.529720742357159D+03 0.363638494273954D+03
 0.566245664246669D+03 0.432419358616524D+03 -.916782731497457D+02 -.344638257960046D+03
 0.789184282604633D+03 -.434267174656925D+03 0.601301919247534D+03 -.269554919886306D+03
0.875033508727D-03 0.000000000000D+00 0.000000000000D+00 0.393792990421D-06 0.000000000000D+00  7 1 -1 24 -11 11 -24 21 0 0.92753044D-01 0.13756525D+00 0.31209704D+06 0.31209704D+06 0.31209704D+06 0.10832840D+01  1  2  2  2  7  2       -1 0.165009162605D-02 0.100000000000D+01
-.441985763179D-04 0.000000000000D+00 -.336035907513D-05 0.393792990421D-06 0.000000000000D+00  7 1 -1 24 -11 11 -24 21 2 0.92753044D-01 0.13756525D+00 0.31209704D+06 0.31209704D+06 0.31209704D+06 0.10832840D+01  1  2  3  2  7  2       -1 -.978084275933D-04 0.100000000000D+01
0.538040662862D-04 0.000000000000D+00 0.000000000000D+00 0.393792990421D-06 0.000000000000D+00  7 1 -1 24 -11 11 -24 21 2 0.92753044D-01 0.13756525D+00 0.31209704D+06 0.31209704D+06 0.31209704D+06 0.10832840D+01  1  2 15  2  7  2       -1 0.119064720179D-03 0.100000000000D+01
-.335173833875D-04 0.000000000000D+00 -.237620452047D-03 0.393792990421D-06 0.000000000000D+00  7 1 -1 24 -11 11 -24 21 2 0.92753044D-01 0.31374903D+00 0.31209704D+06 0.31209704D+06 0.31209704D+06 0.10832840D+01  1  2  5  2  7  2       -1 -.247823870105D-05 0.100000000000D+01
0.120277275155D-04 0.000000000000D+00 -.213026628612D-04 0.393792990421D-06 0.000000000000D+00  7 1 21 24 -11 11 -24 1 2 0.92753044D-01 0.31374903D+00 0.31209704D+06 0.31209704D+06 0.31209704D+06 0.10832840D+01  1  2  5  4  7  2       -1 0.863566808251D-05 0.100000000000D+01
  </mgrwgt>
  </event>
  <event>
  8     66 -.27727860E-05 0.58059228E+03 0.75467711E-02 0.92709203E-01
        1 -1    0    0  501    0 0.00000000E+00 0.00000000E+00 0.62387358E+03 0.62387367E+03 0.32000000E+00 0.0000E+00 0.9000E+01
       -1 -1    0    0    0  502 0.00000000E+00 0.00000000E+00 -.82137788E+03 0.82137794E+03 0.32000000E+00 0.0000E+00 0.9000E+01
       25  2    1    2    0    0 -.32955933E+03 -.34397735E+03 0.28135341E+03 0.62976987E+03 0.30086639E+03 0.0000E+00 0.0000E+00
       24  1    3    3    0    0 -.20900662E+03 -.32155439E+03 0.28259907E+03 0.48312570E+03 0.80419002E+02 0.0000E+00 0.9000E+01
      -11  1    1    2    0    0 0.31772992E+03 0.75927255E+02 -.24284100E+03 0.40704914E+03 0.51099893E-03 0.0000E+00 0.9000E+01
       11  1    1    2    0    0 0.72708540E+01 0.29537318E+03 -.23971588E+03 0.38047587E+03 0.51099893E-03 0.0000E+00 0.9000E+01
      -24  1    3    3    0    0 -.12055272E+03 -.22422959E+02 -.12456646E+01 0.14664417E+03 0.80419002E+02 0.0000E+00 0.9000E+01
       21  1    1    2  501  502 0.45585563E+01 -.27323094E+02 0.36991784E+01 0.27956722E+02 0.75000000E+00 0.0000E+00 0.9000E+01
#aMCatNLO 2  0  0  2  1 0.27700756D+02 0.00000000D+00  -5  7  0 0.00000000D+00 0.00000000D+00 0.00000000D+00 0.00000000D+00 0.00000000D+00
  <mgrwgt>
 -.1760180087D-02    3    2    0
 0.701333483289225D+03 0.000000000000000D+00 0.000000000000000D+00 0.701333483289225D+03
 0.701333483289225D+03 0.000000000000000D+00 0.000000000000000D+00 -.701333483289225D+03
 0.534285482783632D+03 -.207279645602763D+03 -.331905541003883D+03 0.354778270936484D+03
 0.376013726495524D+03 0.318952416793046D+03 0.685998299101725D+02 -.186948500050739D+03
 0.344327964820661D+03 0.839899497376476D+01 0.288611395479741D+03 -.187602416402897D+03
 0.148039792478633D+03 -.120071766164048D+03 -.253056843860300D+02 0.197726455171521D+02
 0.000000000000000D+00 0.000000000000000D+00 -.000000000000000D+00 0.000000000000000D+00
 0.719725181680185D+03 0.000000000000000D+00 0.000000000000000D+00 0.719725181680185D+03
 0.711978779039438D+03 0.000000000000000D+00 0.000000000000000D+00 -.711978779039438D+03
 0.528597986269505D+03 -.209006620670500D+03 -.321554390610705D+03 0.354778270936484D+03
 0.376386756279757D+03 0.317729915067750D+03 0.759272658708096D+02 -.186948500050739D+03
 0.349989780878919D+03 0.727086618935633D+01 0.295373178512072D+03 -.187602416402897D+03
 0.147965942524571D+03 -.120552716841278D+03 -.224229602027374D+02 0.197726455171521D+02
 0.287634947668722D+02 0.455855625467213D+01 -.273230935694388D+02 0.774640264074665D+01
-.127621941228D-02 0.000000000000D+00 0.000000000000D+00 0.142578033747D-09 0.000000000000D+00  7 1 -1 24 -11 11 -24 21 2 0.93527257D-01 0.12796404D+00 0.35303243D+06 0.35303243D+06 0.35303243D+06 0.10793601D+01  1  2 13  2  7  2       -1 -.332941723205D-02 0.100000000000D+01
-.165470579451D-02 0.000000000000D+00 0.000000000000D+00 0.142578033747D-09 0.000000000000D+00  7 1 -1 24 -11 11 -24 21 2 0.93527257D-01 0.12447560D+00 0.33708739D+06 0.33708739D+06 0.33708739D+06 0.10808264D+01  1  2  8  2  7  2       -1 -.465484724460D-02 0.100000000000D+01
0.239989243545D-02 0.000000000000D+00 0.000000000000D+00 0.142578033747D-09 0.115556002385D-11  7 1 -1 24 -11 11 -24 21 2 0.95979906D-01 0.12636497D+00 0.35303243D+06 0.35303243D+06 0.35303243D+06 0.10793601D+01  1  2  1  2  7  2       -1 0.622408439007D-02 0.100000000000D+01
  </mgrwgt>
  </event>
  <event>
  8     66 0.27727860E-05 0.25553722E+03 0.75467711E-02 0.79959394E-01
        1 -1    0    0  501    0 0.00000000E+00 0.00000000E+00 0.17728184E+04 0.17728185E+04 0.32000000E+00 0.0000E+00 0.9000E+01
       -1 -1    0    0    0  501 0.00000000E+00 0.00000000E+00 -.73588196E+03 0.73588203E+03 0.32000000E+00 0.0000E+00 0.9000E+01
       25  2    1    2    0    0 -.20376811E+03 -.67967955E+02 -.68108527E+03 0.77469757E+03 0.30023006E+03 0.0000E+00 0.0000E+00
       23  2    1    2    0    0 0.20376811E+03 0.67967955E+02 0.17180217E+04 0.17340029E+04 0.95007167E+02 0.0000E+00 0.0000E+00
       24  1    3    3    0    0 -.13072884E+03 -.77899880E+02 -.63209827E+03 0.65511362E+03 0.80419002E+02 0.0000E+00 0.9000E+01
      -13  1    4    4    0    0 0.21147680E+03 0.68043781E+02 0.16992396E+04 0.17137000E+04 0.10565837E+00 0.0000E+00 0.9000E+01
       13  1    4    4    0    0 -.77086864E+01 -.75825984E-01 0.18782114E+02 0.20302921E+02 0.10565837E+00 0.0000E+00 0.9000E+01
      -24  1    3    3    0    0 -.73039269E+02 0.99319253E+01 -.48987004E+02 0.11958395E+03 0.80419002E+02 0.0000E+00 0.9000E+01
#aMCatNLO 1  0  0  2  1 0.23031575D+04 0.00000000D+00  -5  7  0 0.00000000D+00 0.00000000D+00 0.00000000D+00 0.00000000D+00 0.00000000D+00
  <mgrwgt>
 0.1589983950D-02    5    2    0
 0.114218441361885D+04 0.000000000000000D+00 0.000000000000000D+00 0.114218441361885D+04
 0.114218441361885D+04 0.000000000000000D+00 0.000000000000000D+00 -.114218441361885D+04
 0.100637409689542D+04 -.130728841755391D+03 -.778998798011132D+02 -.991545856533104D+03
 0.111066110976777D+04 0.211477067897467D+03 0.680438647830777D+02 0.108821669853456D+04
 0.137696627193433D+02 -.770895743872187D+01 -.759102325550418D-01 0.114091991063808D+02
 0.153563957855175D+03 -.730392687033549D+02 0.993192525059059D+01 -.108080041107835D+03
 0.000000000000000D+00 0.000000000000000D+00 -.000000000000000D+00 -.000000000000000D+00
 0.178434543394684D+04 0.000000000000000D+00 0.000000000000000D+00 0.178434543394684D+04
 0.978798035540840D+04 0.000000000000000D+00 0.000000000000000D+00 -.978798035540840D+04
 0.151731549477512D+04 -.109041290789720D+04 0.351590101415691D+03 -.991545856533104D+03
 0.141059267173384D+04 -.747280732108056D+03 0.497119311634343D+03 0.108821669853456D+04
 0.266165467908417D+02 -.230666313328135D+02 0.679715071012038D+01 0.114091991063808D+02
 0.289373467775174D+03 -.241475193263293D+03 0.853125058267747D+02 -.108080041107835D+03
 0.832842760828027D+04 0.210223546460136D+04 -.940819069586928D+03 -.800363492146155D+04
0.292918468668D-02 0.000000000000D+00 0.000000000000D+00 0.610857648892D-05 0.000000000000D+00  7 1 -1 24 -13 13 -24 21 0 0.27274131D+00 0.11321262D+00 0.65299270D+05 0.65299270D+05 0.65299270D+05 0.11372350D+01  1  2  2  2  7  2       -1 0.132565302623D-02 0.100000000000D+01
0.280866644649D-03 0.000000000000D+00 -.112488404689D-04 0.610857648892D-05 0.000000000000D+00  7 1 -1 24 -13 13 -24 21 2 0.27274131D+00 0.11321262D+00 0.65299270D+05 0.65299270D+05 0.65299270D+05 0.11372350D+01  1  2  3  2  7  2       -1 0.164393153597D-03 0.100000000000D+01
0.170737337063D-03 0.000000000000D+00 0.000000000000D+00 0.610857648892D-05 0.000000000000D+00  7 1 -1 24 -13 13 -24 21 2 0.27274131D+00 0.11321262D+00 0.65299270D+05 0.65299270D+05 0.65299270D+05 0.11372350D+01  1  2 15  2  7  2       -1 0.999337223249D-04 0.100000000000D+01
0.213268965108D-02 0.000000000000D+00 -.166633338602D-02 0.610857648892D-05 0.000000000000D+00  7 1 -1 24 -13 13 -24 21 2 0.27274131D+00 0.97390023D+00 0.65299270D+05 0.65299270D+05 0.65299270D+05 0.11372350D+01  1  2  5  2  7  2       -1 0.404684638179D-08 0.100000000000D+01
0.332422946555D-03 0.000000000000D+00 -.432919262470D-03 0.610857648892D-05 0.000000000000D+00  7 1 21 24 -13 13 -24 1 2 0.27274131D+00 0.97390023D+00 0.65299270D+05 0.65299270D+05 0.65299270D+05 0.11372350D+01  1  2  5  4  7  2       -1 0.121366214056D-11 0.100000000000D+01
  </mgrwgt>
  </event>
  <event>
  8     66 0.27727860E-05 0.24720559E+03 0.75467711E-02 0.96509223E-01
        1 -1    0    0  501    0 0.00000000E+00 0.00000000E+00 0.12671708E+04 0.12671708E+04 0.32000000E+00 0.0000E+00 0.9000E+01
       -1 -1    0    0    0  501 0.00000000E+00 0.00000000E+00 -.35413865E+03 0.35413879E+03 0.32000000E+00 0.0000E+00 0.9000E+01
       25  2    1    2    0    0 0.35828914E+03 0.81459289E+02 -.14442427E+03 0.49803975E+03 0.30360912E+03 0.0000E+00 0.0000E+00
       23  2    1    2    0    0 -.35828914E+03 -.81459289E+02 0.10574564E+04 0.11232699E+04 0.92273698E+02 0.0000E+00 0.0000E+00
       24  1    3    3    0    0 0.20274084E+03 -.53858030E+02 0.15208971E+02 0.22517341E+03 0.80419002E+02 0.0000E+00 0.9000E+01
      -11  1    4    4    0    0 -.33895095E+03 -.56524809E+02 0.91594847E+03 0.97828646E+03 0.51099893E-03 0.0000E+00 0.9000E+01
       11  1    4    4    0    0 -.19338188E+02 -.24934480E+02 0.14150793E+03 0.14498341E+03 0.51099893E-03 0.0000E+00 0.9000E+01
      -24  1    3    3    0    0 0.15554830E+03 0.13531732E+03 -.15963324E+03 0.27286633E+03 0.80419002E+02 0.0000E+00 0.9000E+01
#aMCatNLO 1  0  0  1  2 0.29410907D+02 0.00000000D+00  -5  7  0 0.00000000D+00 0.00000000D+00 0.00000000D+00 0.00000000D+00 0.00000000D+00
  <mgrwgt>
 0.9132608627D-03    9    2    0
 0.669891257777111D+03 0.000000000000000D+00 0.000000000000000D+00 0.669891257777111D+03
 0.669891257777111D+03 0.000000000000000D+00 0.000000000000000D+00 -.669891257777111D+03
 0.262124288880316D+03 0.202740843249249D+03 -.538580298686111D+02 -.135045880958643D+03
 0.559654160760314D+03 -.338950951034788D+03 -.565248088772948D+02 0.441735190391629D+03
 0.790140961660000D+02 -.193381878994038D+02 -.249344803110628D+02 0.724398617703986D+02
 0.438989969747592D+03 0.155548295684943D+03 0.135317319056969D+03 -.379129171203385D+03
 0.000000000000000D+00 -.000000000000000D+00 -.000000000000000D+00 0.000000000000000D+00
 0.692611464391582D+03 0.000000000000000D+00 0.000000000000000D+00 0.692611464391582D+03
 0.679638713210702D+03 0.000000000000000D+00 0.000000000000000D+00 -.679638713210702D+03
 0.266465291059713D+03 0.208500561569572D+03 -.531663544588496D+02 -.135045880958643D+03
 0.552253470406397D+03 -.326835171615784D+03 -.550698442022600D+02 0.441735190391629D+03
 0.785463853914215D+02 -.176213474117648D+02 -.247283076682804D+02 0.724398617703986D+02
 0.442840143953027D+03 0.165157060696675D+03 0.136471220360326D+03 -.379129171203385D+03
 0.321448867917259D+02 -.292011032386979D+02 -.350671403093605D+01 0.129727511808798D+02
0.825534888483D-04 0.000000000000D+00 0.000000000000D+00 0.205897437941D-06 0.000000000000D+00  7 1 -1 24 -11 11 -24 21 0 0.19494936D+00 0.54482883D-01 0.16856963D+06 0.16856963D+06 0.16856963D+06 0.11035740D+01  1  2  2  1  7  1        1 0.338460843904D-03 0.100000000000D+01
-.324982583965D-05 0.000000000000D+00 -.317027134010D-06 0.205897437941D-06 0.000000000000D+00  7 1 -1 24 -11 11 -24 21 2 0.19494936D+00 0.54482883D-01 0.16856963D+06 0.16856963D+06 0.16856963D+06 0.11035740D+01  1  2  3  1  7  1        1 -.162269158984D-04 0.100000000000D+01
0.487538066866D-05 0.000000000000D+00 0.000000000000D+00 0.205897437941D-06 0.000000000000D+00  7 1 -1 24 -11 11 -24 21 2 0.19494936D+00 0.54482883D-01 0.16856963D+06 0.16856963D+06 0.16856963D+06 0.11035740D+01  1  2 15  1  7  1        1 0.243435790058D-04 0.100000000000D+01
0.192533504710D-03 0.000000000000D+00 0.000000000000D+00 0.205897437941D-06 0.000000000000D+00  7 1 -1 24 -11 11 -24 21 2 0.20294475D+00 0.54482883D-01 0.18052659D+06 0.18052659D+06 0.18052659D+06 0.11012587D+01  1  2 12  1  7  1        1 0.878767656504D-03 0.100000000000D+01
-.183664678065D-03 0.000000000000D+00 0.000000000000D+00 0.205897437941D-06 0.000000000000D+00  7 1 -1 24 -11 11 -24 21 2 0.19494936D+00 0.54482883D-01 0.16856963D+06 0.16856963D+06 0.16856963D+06 0.11035740D+01  1  2  4  1  7  1        1 -.917068000414D-03 0.100000000000D+01
-.145648730500D-02 0.000000000000D+00 -.229641489642D-03 0.205897437941D-06 0.000000000000D+00  7 1 -1 24 -11 11 -24 21 2 0.20322269D+00 0.54482883D-01 0.16856963D+06 0.16856963D+06 0.16856963D+06 0.11035740D+01  1  2  5  1  7  1        1 -.667773303905D-02 0.100000000000D+01
0.146496448290D-02 0.000000000000D+00 0.229443286070D-03 0.205897437941D-06 0.000000000000D+00  7 1 -1 24 -11 11 -24 21 2 0.19494936D+00 0.54482883D-01 0.16856963D+06 0.16856963D+06 0.16856963D+06 0.11035740D+01  1  2  6  1  7  1        1 0.731480904855D-02 0.100000000000D+01
0.315212820632D-05 0.000000000000D+00 0.000000000000D+00 0.205897437941D-06 0.000000000000D+00  7 21 -1 24 -11 11 -24 -1 2 0.20294475D+00 0.54482883D-01 0.18052659D+06 0.18052659D+06 0.18052659D+06 0.11012587D+01  1  2 12  3  7  1        1 0.135950913944D-04 0.100000000000D+01
-.105339515656D-04 0.000000000000D+00 -.168312199562D-05 0.205897437941D-06 0.000000000000D+00  7 21 -1 24 -11 11 -24 -1 2 0.20322269D+00 0.54482883D-01 0.16856963D+06 0.16856963D+06 0.16856963D+06 0.11035740D+01  1  2  5  3  7  1        1 -.456874012853D-04 0.100000000000D+01
  </mgrwgt>
  </event>
  <event>
  8     66 0.27727860E-05 0.36874057E+03 0.75467711E-02 0.89931445E-01
        1 -1    0    0  501    0 0.00000000E+00 0.00000000E+00 0.55587662E+03 0.55587671E+03 0.32000000E+00 0.0000E+00 0.9000E+01
       -1 -1    0    0    0  501 0.00000000E+00 0.00000000E+00 -.38585864E+03 0.38585877E+03 0.32000000E+00 0.0000E+00 0.9000E+01
       25  2    1    2    0    0 0.26621369E+03 0.16161472E+03 0.36177939E+03 0.56455299E+03 0.30140787E+03 0.0000E+00 0.0000E+00
       23  2    1    2    0    0 -.26621369E+03 -.16161472E+03 -.19176141E+03 0.37718249E+03 0.92223330E+02 0.0000E+00 0.0000E+00
       24  1    3    3    0    0 0.69469098E+02 -.46777427E+02 0.18480975E+03 0.21825660E+03 0.80419002E+02 0.0000E+00 0.9000E+01
      -11  1    4    4    0    0 -.92758829E+02 -.99342165E+01 -.69523045E+02 0.11634579E+03 0.51099893E-03 0.0000E+00 0.9000E+01
       11  1    4    4    0    0 -.17345486E+03 -.15168050E+03 -.12223837E+03 0.26083670E+03 0.51099893E-03 0.0000E+00 0.9000E+01
      -24  1    3    3    0    0 0.19674459E+03 0.20839215E+03 0.17696964E+03 0.34629639E+03 0.80419002E+02 0.0000E+00 0.9000E+01
#aMCatNLO 1  0  0  2  2 0.60638909D+03 0.00000000D+00  -5  7  0 0.00000000D+00 0.00000000D+00 0.00000000D+00 0.00000000D+00 0.00000000D+00
  <mgrwgt>
 0.5833724804D-03    3    2    0
 0.463130542653474D+03 0.000000000000000D+00 0.000000000000000D+00 0.463130542653474D+03
 0.463130542653474D+03 0.000000000000000D+00 0.000000000000000D+00 -.463130542653474D+03
 0.187980479609589D+03 0.694690984271102D+02 -.467774274095772D+02 0.147835589113538D+03
 0.131050659432005D+03 -.927588288752371D+02 -.993421644722253D+01 -.920401344351342D+02
 0.287631528144471D+03 -.173454860737214D+03 -.151680503603677D+03 -.172157869689110D+03
 0.319598418120882D+03 0.196744591185341D+03 0.208392147460477D+03 0.116362415010705D+03
 0.000000000000000D+00 0.000000000000000D+00 -.000000000000000D+00 0.000000000000000D+00
 0.128868571256502D+04 0.000000000000000D+00 0.000000000000000D+00 0.128868571256502D+04
 0.678596755402239D+03 0.000000000000000D+00 0.000000000000000D+00 -.678596755402239D+03
 0.170502367301243D+03 -.273231992157607D+02 -.138660629829820D+01 0.147835589113538D+03
 0.208855354725676D+03 -.184535281713817D+03 0.331044204533508D+02 -.920401344351342D+02
 0.404437032191132D+03 -.360317096011580D+03 -.640513171875489D+02 -.172157869689110D+03
 0.323303855717276D+03 0.231575178264311D+02 0.289795936666271D+03 0.116362415010705D+03
 0.860183858031931D+03 0.549018059114728D+03 -.257462433633775D+03 0.610088957162780D+03
0.420498564750D-04 0.000000000000D+00 0.000000000000D+00 0.278815415285D-06 0.000000000000D+00  7 1 -1 24 -11 11 -24 21 0 0.85519497D-01 0.59362884D-01 0.13596961D+06 0.13596961D+06 0.13596961D+06 0.11109333D+01  1  2  2  2  7  2       -1 0.575471659648D-03 0.100000000000D+01
-.218855906947D-05 0.000000000000D+00 -.161482520846D-06 0.278815415285D-06 0.000000000000D+00  7 1 -1 24 -11 11 -24 21 2 0.85519497D-01 0.59362884D-01 0.13596961D+06 0.13596961D+06 0.13596961D+06 0.11109333D+01  1  2  3  2  7  2       -1 -.369652547201D-04 0.100000000000D+01
0.265633382455D-05 0.000000000000D+00 0.000000000000D+00 0.278815415285D-06 0.000000000000D+00  7 1 -1 24 -11 11 -24 21 2 0.85519497D-01 0.59362884D-01 0.13596961D+06 0.13596961D+06 0.13596961D+06 0.11109333D+01  1  2 15  2  7  2       -1 0.448660754995D-04 0.100000000000D+01
  </mgrwgt>
  </event>
  <event>
  8     66 0.27727860E-05 0.29465756E+03 0.75467711E-02 0.98441786E-01
        1 -1    0    0  501    0 0.00000000E+00 0.00000000E+00 0.38842441E+03 0.38842454E+03 0.32000000E+00 0.0000E+00 0.9000E+01
       -1 -1    0    0    0  501 0.00000000E+00 0.00000000E+00 -.25363199E+03 0.25363220E+03 0.32000000E+00 0.0000E+00 0.9000E+01
       25  2    1    2    0    0 0.17196203E+03 -.13912945E+03 0.11942380E+02 0.37300962E+03 0.30010933E+03 0.0000E+00 0.0000E+00
       23  2    1    2    0    0 -.17196203E+03 0.13912945E+03 0.12285004E+03 0.26904712E+03 0.91467356E+02 0.0000E+00 0.0000E+00
       24  1    3    3    0    0 0.12828337E+03 -.20030088E+03 0.50991062E+02 0.25621157E+03 0.80419002E+02 0.0000E+00 0.9000E+01
      -11  1    4    4    0    0 -.12394565E+03 0.65336227E+02 0.11387395E+03 0.18055089E+03 0.51099893E-03 0.0000E+00 0.9000E+01
       11  1    4    4    0    0 -.48016383E+02 0.73793228E+02 0.89760854E+01 0.88496235E+02 0.51099893E-03 0.0000E+00 0.9000E+01
      -24  1    3    3    0    0 0.43678659E+02 0.61171423E+02 -.39048682E+02 0.11679805E+03 0.80419002E+02 0.0000E+00 0.9000E+01
#aMCatNLO 1  0  0  2  2 0.12149889D+03 0.00000000D+00  -5  7  0 0.00000000D+00 0.00000000D+00 0.00000000D+00 0.00000000D+00 0.00000000D+00
  <mgrwgt>
 0.5107248030D-03    3    2    0
 0.313874122112987D+03 0.000000000000000D+00 0.000000000000000D+00 0.313874122112987D+03
 0.313874122112987D+03 0.000000000000000D+00 0.000000000000000D+00 -.313874122112987D+03
 0.251102504120910D+03 0.128283368857908D+03 -.200300877284035D+03 -.286137294545345D+01
 0.160214812862489D+03 -.123945645303380D+03 0.653362270028978D+02 0.777009698261023D+02
 0.885859834752010D+02 -.480163828118927D+02 0.737932277676041D+02 -.982155718655956D+01
 0.127844943767373D+03 0.436786592573648D+02 0.611714225135332D+02 -.650180396940893D+02
 0.000000000000000D+00 -.000000000000000D+00 -.000000000000000D+00 0.000000000000000D+00
 0.840109934473754D+03 0.000000000000000D+00 0.000000000000000D+00 0.840109934473754D+03
 0.326790515458681D+03 0.000000000000000D+00 0.000000000000000D+00 -.326790515458681D+03
 0.248449976865090D+03 0.164003634002150D+03 -.168388822755102D+03 -.286137294545345D+01
 0.153723244503588D+03 -.101497652199931D+03 0.853909935923854D+02 0.777009698261023D+02
 0.928149670954207D+02 -.350453931793103D+02 0.853813536333473D+02 -.982155718655956D+01
 0.144409839161026D+03 0.631461094315602D+02 0.785634079590375D+02 -.650180396940893D+02
 0.527502422307310D+03 -.906066980544696D+02 -.809469324296687D+02 0.513319419015073D+03
0.105876321901D-04 0.000000000000D+00 0.000000000000D+00 0.153594448549D-05 0.000000000000D+00  7 1 -1 24 -11 11 -24 21 0 0.59757627D-01 0.39020332D-01 0.86823077D+05 0.86823077D+05 0.86823077D+05 0.11267928D+01  1  2  2  2  7  2       -1 0.505554334240D-03 0.100000000000D+01
-.585347211618D-06 0.000000000000D+00 -.406592953976D-07 0.153594448549D-05 0.000000000000D+00  7 1 -1 24 -11 11 -24 21 2 0.59757627D-01 0.39020332D-01 0.86823077D+05 0.86823077D+05 0.86823077D+05 0.11267928D+01  1  2  3  2  7  2       -1 -.354871127206D-04 0.100000000000D+01
0.670632241953D-06 0.000000000000D+00 0.000000000000D+00 0.153594448549D-05 0.000000000000D+00  7 1 -1 24 -11 11 -24 21 2 0.59757627D-01 0.39020332D-01 0.86823077D+05 0.86823077D+05 0.86823077D+05 0.11267928D+01  1  2 15  2  7  2       -1 0.406575815036D-04 0.100000000000D+01
  </mgrwgt>
  </event>
  <event>
  9     66 0.27727860E-05 0.34063858E+03 0.75467711E-02 0.98299389E-01
       21 -1    0    0  501  502 0.00000000E+00 0.00000000E+00 0.34836683E+03 0.34836764E+03 0.75000000E+00 0.0000E+00 0.9000E+01
       -3 -1    0    0    0  501 0.00000000E+00 0.00000000E+00 -.61528572E+03 0.61528592E+03 0.50000000E+00 0.0000E+00 0.9000E+01
       25  2    1    2    0    0 0.21071626E+03 -.25967990E+03 -.18297340E+03 0.48496194E+03 0.29978963E+03 0.0000E+00 0.0000E+00
       23  2    1    2    0    0 -.20230418E+03 0.21420691E+03 0.71489241E+02 0.31652270E+03 0.90908314E+02 0.0000E+00 0.0000E+00
       24  1    3    3    0    0 0.10750849E+03 -.18356714E+03 -.23294939E+03 0.32555738E+03 0.80419002E+02 0.0000E+00 0.9000E+01
      -11  1    4    4    0    0 -.19583949E+03 0.22269096E+03 0.63709009E+02 0.30332030E+03 0.51099893E-03 0.0000E+00 0.9000E+01
       11  1    4    4    0    0 -.64646945E+01 -.84840422E+01 0.77802314E+01 0.13202396E+02 0.51099893E-03 0.0000E+00 0.9000E+01
      -24  1    3    3    0    0 0.10320778E+03 -.76112759E+02 0.49975997E+02 0.15940456E+03 0.80419002E+02 0.0000E+00 0.9000E+01
       -3  1    1    2    0  502 -.84120821E+01 0.45472985E+02 -.15543473E+03 0.16216892E+03 0.50000000E+00 0.0000E+00 0.9000E+01
#aMCatNLO 2  0  0  1  1 0.46244518D+02 0.00000000D+00  -5  7  0 0.00000000D+00 0.00000000D+00 0.00000000D+00 0.00000000D+00 0.00000000D+00
  <mgrwgt>
 0.2204486186D-04    1    2    0
 0.396172419616750D+03 0.000000000000000D+00 0.000000000000000D+00 0.396172419616750D+03
 0.396172419616750D+03 0.000000000000000D+00 0.000000000000000D+00 -.396172419616750D+03
 0.284860001765876D+03 0.104427528017422D+03 -.166912482831855D+03 -.189507570082993D+03
 0.330642584105030D+03 -.199265175936201D+03 0.241209119155321D+03 0.106939557316648D+03
 0.140311086318651D+02 -.661562010419470D+01 -.766818757028311D+01 0.971104934922743D+01
 0.162811144730730D+03 0.101453268022973D+03 -.666284487531834D+02 0.728569634171178D+02
 0.000000000000000D+00 -.000000000000000D+00 0.000000000000000D+00 -.000000000000000D+00
 0.400719268104757D+03 0.000000000000000D+00 0.000000000000000D+00 0.400719268104757D+03
 0.534901044837224D+03 0.000000000000000D+00 0.000000000000000D+00 -.534901044837224D+03
 0.296032607498123D+03 0.107508485855285D+03 -.183567140572900D+03 -.189507570082993D+03
 0.315246626825684D+03 -.195839486927471D+03 0.222690956632451D+03 0.106939557316648D+03
 0.144248302199093D+02 -.646469453475046D+01 -.848404219593740D+01 0.971104934922743D+01
 0.167989137975834D+03 0.103207777733578D+03 -.761127585916222D+02 0.728569634171178D+02
 0.141927110422430D+03 -.841208212664146D+01 0.454729847280087D+02 -.134181776732467D+03
0.870777084896D-06 0.000000000000D+00 0.000000000000D+00 0.349772307539D-05 0.280088071228D-10  7 21 -3 24 -11 11 -24 -3 2 0.53594916D-01 0.94659316D-01 0.13405043D+06 0.13405043D+06 0.13405043D+06 0.11114255D+01  1  2  1  3  7  1        3 0.220448618609D-04 0.100000000000D+01
  </mgrwgt>
  </event>
  <event>
  9     66 0.27727860E-05 0.24472899E+03 0.75467711E-02 0.98438503E-01
        1 -1    0    0  502    0 0.00000000E+00 0.00000000E+00 0.88877998E+02 0.88878574E+02 0.32000000E+00 0.0000E+00 0.9000E+01
       -1 -1    0    0    0  501 0.00000000E+00 0.00000000E+00 -.18537861E+04 0.18537861E+04 0.32000000E+00 0.0000E+00 0.9000E+01
       25  2    1    2    0    0 -.14028688E+03 -.11600713E+03 -.47353244E+03 0.58973174E+03 0.30068668E+03 0.0000E+00 0.0000E+00
       23  2    1    2    0    0 0.15851940E+03 -.80294153E+02 -.77724489E+03 0.80229912E+03 0.89435493E+02 0.0000E+00 0.0000E+00
       24  1    3    3    0    0 -.10187697E+03 0.66623555E+02 -.16455667E+03 0.21991755E+03 0.80419002E+02 0.0000E+00 0.9000E+01
      -11  1    4    4    0    0 0.10312148E+03 -.49862442E+02 -.65225919E+03 0.66224040E+03 0.51099893E-03 0.0000E+00 0.9000E+01
       11  1    4    4    0    0 0.55397919E+02 -.30431711E+02 -.12498570E+03 0.14005871E+03 0.51099893E-03 0.0000E+00 0.9000E+01
      -24  1    3    3    0    0 -.38409915E+02 -.18263069E+03 -.30897577E+03 0.36981419E+03 0.80419002E+02 0.0000E+00 0.9000E+01
       21  1    1    2  502  501 -.18232522E+02 0.19630129E+03 -.51413073E+03 0.55063381E+03 0.75000000E+00 0.0000E+00 0.9000E+01
#aMCatNLO 2  0  0  1  2 0.19714619D+03 0.00000000D+00  -5  7  0 0.00000000D+00 0.00000000D+00 0.00000000D+00 0.00000000D+00 0.00000000D+00
  <mgrwgt>
 0.5192302812D-04    1    2    0
 0.289153654933924D+03 0.000000000000000D+00 0.000000000000000D+00 0.289153654933924D+03
 0.289153654933924D+03 0.000000000000000D+00 0.000000000000000D+00 -.289153654933924D+03
 0.199278167697168D+03 -.107448878129999D+03 0.126613814162635D+03 0.752877999291014D+02
 0.163165568564673D+03 0.979596770104920D+02 0.571237842895163D+01 -.130362084893260D+03
 0.547337787632649D+02 0.535893705044236D+02 -.109598953035612D+02 0.196127549839912D+01
 0.161129794842742D+03 -.441001693849166D+02 -.121366297288025D+03 0.531130094657594D+02
 0.000000000000000D+00 -.000000000000000D+00 0.000000000000000D+00 -.000000000000000D+00
 0.384439640423953D+03 0.000000000000000D+00 0.000000000000000D+00 0.384439640423953D+03
 0.428573932593960D+03 0.000000000000000D+00 0.000000000000000D+00 -.428573932593960D+03
 0.164173940726240D+03 -.101876965045009D+03 0.666235546504836D+02 0.752877999291014D+02
 0.173535519453070D+03 0.103121482801616D+03 -.498624419671299D+02 -.130362084893260D+03
 0.632365796127680D+02 0.553979185035745D+02 -.304317108459687D+02 0.196127549839912D+01
 0.210041655729890D+03 -.384099147013175D+02 -.182630687086017D+03 0.531130094657594D+02
 0.202025877495945D+03 -.182325215588641D+02 0.196301285248632D+03 -.441342921700074D+02
0.269687348648D-04 0.000000000000D+00 0.000000000000D+00 0.351258011655D-06 0.629891675524D-10  7 1 -1 24 -11 11 -24 21 2 0.13673561D-01 0.28519741D+00 0.13104576D+06 0.13104576D+06 0.13104576D+06 0.11122116D+01  1  2  1  1  7  1        1 0.519230281249D-04 0.100000000000D+01
  </mgrwgt>
  </event>
  <event>
  8     66 0.27727860E-05 0.14130430E+03 0.75467711E-02 0.96920373E-01
        1 -1    0    0  501    0 0.00000000E+00 0.00000000E+00 0.43892108E+03 0.43892120E+03 0.32000000E+00 0.0000E+00 0.9000E+01
       -1 -1    0    0    0  501 0.00000000E+00 0.00000000E+00 -.58870261E+03 0.58870270E+03 0.32000000E+00 0.0000E+00 0.9000E+01
       25  2    1    2    0    0 0.36815727E+02 -.23896366E+03 -.47587959E+03 0.61165424E+03 0.29866453E+03 0.0000E+00 0.0000E+00
       23  2    1    2    0    0 -.36815727E+02 0.23896366E+03 0.32609806E+03 0.41596965E+03 0.90729128E+02 0.0000E+00 0.0000E+00
       24  1    3    3    0    0 0.98003483E+02 -.68336452E+02 -.70455563E+02 0.16033015E+03 0.80419002E+02 0.0000E+00 0.9000E+01
      -11  1    4    4    0    0 -.51236868E+02 0.23090195E+03 0.32090957E+03 0.39865258E+03 0.51099893E-03 0.0000E+00 0.9000E+01
       11  1    4    4    0    0 0.14421140E+02 0.80617104E+01 0.51884918E+01 0.17317070E+02 0.51099893E-03 0.0000E+00 0.9000E+01
      -24  1    3    3    0    0 -.61187755E+02 -.17062721E+03 -.40542403E+03 0.45132410E+03 0.80419002E+02 0.0000E+00 0.9000E+01
#aMCatNLO 1  0  0  2  1 0.18801738D+03 0.00000000D+00  -5  7  0 0.00000000D+00 0.00000000D+00 0.00000000D+00 0.00000000D+00 0.00000000D+00
  <mgrwgt>
 0.8606012909D-03    9    2    0
 0.508324787327303D+03 0.000000000000000D+00 0.000000000000000D+00 0.508324787327303D+03
 0.508324787327303D+03 0.000000000000000D+00 0.000000000000000D+00 -.508324787327303D+03
 0.151680726806566D+03 0.980034826658956D+02 -.683364519937180D+02 -.475948909491705D+02
 0.450235018017830D+03 -.512368676998754D+02 0.230901950315749D+03 0.383106570262381D+03
 0.182684137691164D+02 0.144211404259306D+02 0.806171035190583D+01 0.779579865422441D+01
 0.396465416061093D+03 -.611877553919509D+02 -.170627208673936D+03 -.343307477967435D+03
 0.000000000000000D+00 0.000000000000000D+00 -.000000000000000D+00 -.000000000000000D+00
 0.609632457097467D+03 0.000000000000000D+00 0.000000000000000D+00 0.609632457097467D+03
 0.612292950988921D+03 0.000000000000000D+00 0.000000000000000D+00 -.612292950988921D+03
 0.133120743394244D+03 0.818799031830938D+02 -.477946040649921D+02 -.475948909491705D+02
 0.497311258987344D+03 -.104880683864706D+03 0.299245528436840D+03 0.383106570262381D+03
 0.181042852234006D+02 0.123619582777614D+02 0.106851604729139D+02 0.779579865422441D+01
 0.385352919389102D+03 -.105449149351241D+03 -.114237073667316D+03 -.343307477967435D+03
 0.188036201092299D+03 0.116087971755092D+03 -.147899011177445D+03 -.266049389145387D+01
0.896123247116D-04 0.000000000000D+00 0.000000000000D+00 0.127502457708D-05 0.000000000000D+00  7 1 -1 24 -11 11 -24 21 0 0.67526336D-01 0.90569648D-01 0.88614785D+05 0.88614785D+05 0.88614785D+05 0.11260554D+01  1  2  2  2  7  2       -1 0.747825751736D-03 0.100000000000D+01
-.324531213004D-05 0.000000000000D+00 -.344134922359D-06 0.127502457708D-05 0.000000000000D+00  7 1 -1 24 -11 11 -24 21 2 0.67526336D-01 0.90569648D-01 0.88614785D+05 0.88614785D+05 0.88614785D+05 0.11260554D+01  1  2  3  2  7  2       -1 -.343406612215D-04 0.100000000000D+01
0.533835011159D-05 0.000000000000D+00 0.000000000000D+00 0.127502457708D-05 0.000000000000D+00  7 1 -1 24 -11 11 -24 21 2 0.67526336D-01 0.90569648D-01 0.88614785D+05 0.88614785D+05 0.88614785D+05 0.11260554D+01  1  2 15  2  7  2       -1 0.564883947423D-04 0.100000000000D+01
0.150507162243D-04 0.000000000000D+00 0.000000000000D+00 0.127502457708D-05 0.000000000000D+00  7 1 -1 24 -11 11 -24 21 2 0.67526336D-01 0.11643821D+00 0.16843041D+06 0.16843041D+06 0.16843041D+06 0.11036020D+01  1  2 12  2  7  2       -1 0.849307232890D-04 0.100000000000D+01
-.382286347310D-04 0.000000000000D+00 0.000000000000D+00 0.127502457708D-05 0.000000000000D+00  7 1 -1 24 -11 11 -24 21 2 0.67526336D-01 0.90569648D-01 0.88614785D+05 0.88614785D+05 0.88614785D+05 0.11260554D+01  1  2  4  2  7  2       -1 -.404520903277D-03 0.100000000000D+01
-.552646941537D-04 0.000000000000D+00 -.396328829364D-04 0.127502457708D-05 0.000000000000D+00  7 1 -1 24 -11 11 -24 21 2 0.67526336D-01 0.12618707D+00 0.88614785D+05 0.88614785D+05 0.88614785D+05 0.11260554D+01  1  2  5  2  7  2       -1 -.273947437097D-03 0.100000000000D+01
0.667861128730D-04 0.000000000000D+00 0.375488977179D-04 0.127502457708D-05 0.000000000000D+00  7 1 -1 24 -11 11 -24 21 2 0.67526336D-01 0.90569648D-01 0.88614785D+05 0.88614785D+05 0.88614785D+05 0.11260554D+01  1  2  6  2  7  2       -1 0.706705298156D-03 0.100000000000D+01
0.511229217569D-06 0.000000000000D+00 0.000000000000D+00 0.127502457708D-05 0.000000000000D+00  7 1 21 24 -11 11 -24 1 2 0.67526336D-01 0.11643821D+00 0.16843041D+06 0.16843041D+06 0.16843041D+06 0.11036020D+01  1  2 12  4  7  2       -1 0.194188081296D-04 0.100000000000D+01
-.126122956937D-05 0.000000000000D+00 -.164689372170D-05 0.127502457708D-05 0.000000000000D+00  7 1 21 24 -11 11 -24 1 2 0.67526336D-01 0.12618707D+00 0.88614785D+05 0.88614785D+05 0.88614785D+05 0.11260554D+01  1  2  5  4  7  2       -1 -.419586835739D-04 0.100000000000D+01
  </mgrwgt>
  </event>
  <event>
  8     66 0.27727860E-05 0.48325213E+03 0.75467711E-02 0.93925587E-01
        1 -1    0    0  501    0 0.00000000E+00 0.00000000E+00 0.60226419E+03 0.60226428E+03 0.32000000E+00 0.0000E+00 0.9000E+01
       -1 -1    0    0    0  501 0.00000000E+00 0.00000000E+00 -.42385214E+03 0.42385226E+03 0.32000000E+00 0.0000E+00 0.9000E+01
       25  2    1    2    0    0 0.27293205E+03 0.36562911E+03 0.10661226E+03 0.55679245E+03 0.30079081E+03 0.0000E+00 0.0000E+00
       23  2    1    2    0    0 -.27293205E+03 -.36562911E+03 0.71799799E+02 0.46932408E+03 0.83266651E+02 0.0000E+00 0.0000E+00
       24  1    3    3    0    0 0.23989802E+03 0.33079314E+03 0.21205723E+01 0.41646954E+03 0.80419002E+02 0.0000E+00 0.9000E+01
      -11  1    4    4    0    0 -.14181853E+03 -.19861747E+03 0.80020562E+02 0.25683591E+03 0.51099893E-03 0.0000E+00 0.9000E+01
       11  1    4    4    0    0 -.13111351E+03 -.16701164E+03 -.82207629E+01 0.21248817E+03 0.51099893E-03 0.0000E+00 0.9000E+01
      -24  1    3    3    0    0 0.33034022E+02 0.34835971E+02 0.10449168E+03 0.14032291E+03 0.80419002E+02 0.0000E+00 0.9000E+01
#aMCatNLO 1  0  0  2  1 0.92677510D+02 0.00000000D+00  -5  7  0 0.00000000D+00 0.00000000D+00 0.00000000D+00 0.00000000D+00 0.00000000D+00
  <mgrwgt>
 0.9865376709D-03    4    2    0
 0.505243575573493D+03 0.000000000000000D+00 0.000000000000000D+00 0.505243575573493D+03
 0.505243575573493D+03 0.000000000000000D+00 0.000000000000000D+00 -.505243575573493D+03
 0.422536738656350D+03 0.239898024385488D+03 0.330793141427882D+03 -.713786735670214D+02
 0.246679972411751D+03 -.141818532385672D+03 -.198617468692259D+03 0.359111931201939D+02
 0.217226226807018D+03 -.131113513793236D+03 -.167011643908598D+03 -.458649202828544D+02
 0.124044213271868D+03 0.330340217934203D+02 0.348359711729753D+02 0.813324007296819D+02
 0.000000000000000D+00 0.000000000000000D+00 -.000000000000000D+00 0.000000000000000D+00
 0.574039809036110D+03 0.000000000000000D+00 0.000000000000000D+00 0.574039809036110D+03
 0.539568965836060D+03 0.000000000000000D+00 0.000000000000000D+00 -.539568965836060D+03
 0.445714748371610D+03 0.226817944390435D+03 0.368311180965100D+03 -.713786735670214D+02
 0.234796272635615D+03 -.149071900672428D+03 -.177812385064067D+03 0.359111931201939D+02
 0.207632863967007D+03 -.137513953040362D+03 -.148653045733351D+03 -.458649202828544D+02
 0.126584356249421D+03 0.292583395315844D+02 0.456658893717258D+02 0.813324007296819D+02
 0.988805336485175D+02 0.305095697907707D+02 -.875116395394078D+02 0.344708432000502D+02
0.201703225412D-03 0.000000000000D+00 0.000000000000D+00 0.524485682358D-07 0.000000000000D+00  7 1 -1 24 -11 11 -24 21 0 0.92656046D-01 0.65208037D-01 0.23353262D+06 0.23353262D+06 0.23353262D+06 0.10926923D+01  1  2  2  2  7  2       -1 0.202796444047D-02 0.100000000000D+01
-.111787521857D-04 0.000000000000D+00 -.774593495260D-06 0.524485682358D-07 0.000000000000D+00  7 1 -1 24 -11 11 -24 21 2 0.92656046D-01 0.65208037D-01 0.23353262D+06 0.23353262D+06 0.23353262D+06 0.10926923D+01  1  2  3  2  7  2       -1 -.134195088779D-03 0.100000000000D+01
0.125154442216D-04 0.000000000000D+00 0.000000000000D+00 0.524485682358D-07 0.000000000000D+00  7 1 -1 24 -11 11 -24 21 2 0.92656046D-01 0.65208037D-01 0.23353262D+06 0.23353262D+06 0.23353262D+06 0.10926923D+01  1  2 15  2  7  2       -1 0.150241379406D-03 0.100000000000D+01
-.880898801200D-04 0.000000000000D+00 0.000000000000D+00 0.524485682358D-07 0.000000000000D+00  7 1 -1 24 -11 11 -24 21 2 0.92656046D-01 0.65208037D-01 0.23353262D+06 0.23353262D+06 0.23353262D+06 0.10926923D+01  1  2  4  2  7  2       -1 -.105747306022D-02 0.100000000000D+01
  </mgrwgt>
  </event>
  <event>
  8     66 0.27727860E-05 0.19890956E+03 0.75467711E-02 0.91531956E-01
        1 -1    0    0  501    0 0.00000000E+00 0.00000000E+00 0.12935972E+04 0.12935972E+04 0.32000000E+00 0.0000E+00 0.9000E+01
       -1 -1    0    0    0  501 0.00000000E+00 0.00000000E+00 -.36192768E+02 0.36194183E+02 0.32000000E+00 0.0000E+00 0.9000E+01
       25  2    1    2    0    0 0.32721153E+02 -.78406761E+02 0.10159175E+04 0.10629306E+04 0.30085665E+03 0.0000E+00 0.0000E+00
       23  2    1    2    0    0 -.32721153E+02 0.78406761E+02 0.24148692E+03 0.26686084E+03 0.75368986E+02 0.0000E+00 0.0000E+00
       24  1    3    3    0    0 0.10485195E+03 0.50411135E+02 0.39095018E+03 0.41574568E+03 0.80419002E+02 0.0000E+00 0.9000E+01
      -11  1    4    4    0    0 -.21048241E+02 0.71875270E+02 0.24215105E+03 0.25346837E+03 0.51099893E-03 0.0000E+00 0.9000E+01
       11  1    4    4    0    0 -.11672912E+02 0.65314908E+01 -.66413370E+00 0.13392473E+02 0.51099893E-03 0.0000E+00 0.9000E+01
      -24  1    3    3    0    0 -.72130801E+02 -.12881790E+03 0.62496733E+03 0.64718489E+03 0.80419002E+02 0.0000E+00 0.9000E+01
#aMCatNLO 1  0  0  2  1 0.60427957D+03 0.00000000D+00  -5  7  0 0.00000000D+00 0.00000000D+00 0.00000000D+00 0.00000000D+00 0.00000000D+00
  <mgrwgt>
 0.2316834404D-02    3    2    0
 0.216378904161039D+03 0.000000000000000D+00 0.000000000000000D+00 0.216378904161039D+03
 0.216378904161039D+03 0.000000000000000D+00 0.000000000000000D+00 -.216378904161039D+03
 0.141586251545077D+03 0.104851954706146D+03 0.504111348276074D+02 -.665099630945621D+01
 0.752805805052402D+02 -.210482408675691D+02 0.718752703887377D+02 0.762121146095457D+01
 0.430824811353781D+02 -.116729126708769D+02 0.653149183856270D+01 -.409534236043958D+02
 0.172808495136383D+03 -.721308011676998D+02 -.128817897054908D+03 0.399832084528974D+02
 0.000000000000000D+00 -.000000000000000D+00 -.000000000000000D+00 0.000000000000000D+00
 0.817262254944147D+03 0.000000000000000D+00 0.000000000000000D+00 0.817262254944147D+03
 0.576480397695349D+03 0.000000000000000D+00 0.000000000000000D+00 -.576480397695349D+03
 0.399506359816833D+03 0.378743456502526D+03 0.982205374875179D+02 -.665099630945621D+01
 0.117598986049479D+03 0.765839814918172D+02 0.889175597651783D+02 0.762121146095457D+01
 0.595054924550693D+02 0.402553036139721D+02 0.155958731190705D+02 -.409534236043958D+02
 0.166647608905756D+03 0.996958698637850D+02 -.988245221265996D+02 0.399832084528974D+02
 0.650484205412358D+03 -.595278611472100D+03 -.103909448245167D+03 0.240781857248798D+03
0.144192411610D-04 0.000000000000D+00 0.000000000000D+00 0.711934910735D-09 0.000000000000D+00  7 1 -1 24 -11 11 -24 21 0 0.19901507D+00 0.55682300D-02 0.39565013D+05 0.39565013D+05 0.39565013D+05 0.11563461D+01  1  2  2  2  7  2       -1 0.228642444251D-02 0.100000000000D+01
-.794166910551D-06 0.000000000000D+00 -.553736827316D-07 0.711934910735D-09 0.000000000000D+00  7 1 -1 24 -11 11 -24 21 2 0.19901507D+00 0.55682300D-02 0.39565013D+05 0.39565013D+05 0.39565013D+05 0.11563461D+01  1  2  3  2  7  2       -1 -.168384411781D-03 0.100000000000D+01
0.937592212474D-06 0.000000000000D+00 0.000000000000D+00 0.711934910735D-09 0.000000000000D+00  7 1 -1 24 -11 11 -24 21 2 0.19901507D+00 0.55682300D-02 0.39565013D+05 0.39565013D+05 0.39565013D+05 0.11563461D+01  1  2 15  2  7  2       -1 0.198794373185D-03 0.100000000000D+01
  </mgrwgt>
  </event>
  <event>
  8     66 0.27727860E-05 0.17668151E+03 0.75467711E-02 0.90623377E-01
        1 -1    0    0  501    0 0.00000000E+00 0.00000000E+00 0.11589445E+04 0.11589445E+04 0.32000000E+00 0.0000E+00 0.9000E+01
       -1 -1    0    0    0  501 0.00000000E+00 0.00000000E+00 -.73667477E+02 0.73668172E+02 0.32000000E+00 0.0000E+00 0.9000E+01
       25  2    1    2    0    0 -.62725509E+02 0.14136877E+02 0.10792067E+04 0.11220850E+04 0.30042195E+03 0.0000E+00 0.0000E+00
       23  2    1    2    0    0 0.62725509E+02 -.14136877E+02 0.60703033E+01 0.11052768E+03 0.89694919E+02 0.0000E+00 0.0000E+00
       24  1    3    3    0    0 -.13202666E+03 0.47809354E+02 0.36518460E+03 0.39942932E+03 0.80419002E+02 0.0000E+00 0.9000E+01
      -11  1    4    4    0    0 0.37787687E+02 -.31987127E+02 0.40829945E+02 0.64172969E+02 0.51099893E-03 0.0000E+00 0.9000E+01
       11  1    4    4    0    0 0.24937822E+02 0.17850250E+02 -.34759642E+02 0.46354710E+02 0.51099893E-03 0.0000E+00 0.9000E+01
      -24  1    3    3    0    0 0.69301148E+02 -.33672478E+02 0.71402211E+03 0.72265571E+03 0.80419002E+02 0.0000E+00 0.9000E+01
#aMCatNLO 1  0  0  1  1 0.67439996D+03 0.00000000D+00  -5  7  0 0.00000000D+00 0.00000000D+00 0.00000000D+00 0.00000000D+00 0.00000000D+00
  <mgrwgt>
 0.7981955833D-03    3    2    0
 0.292193382143035D+03 0.000000000000000D+00 0.000000000000000D+00 0.292193382143035D+03
 0.292193382143035D+03 0.000000000000000D+00 0.000000000000000D+00 -.292193382143035D+03
 0.164300781231689D+03 -.132026657297866D+03 0.478093543004628D+02 0.284738153941036D+02
 0.595301233336448D+02 0.377876865105855D+02 -.319871267055152D+02 -.330567702206672D+02
 0.162326135278016D+03 0.249378224074935D+02 0.178502500978333D+02 -.159402784728856D+03
 0.198229724442719D+03 0.693011483797869D+02 -.336724776927809D+02 0.163985739555419D+03
 0.000000000000000D+00 -.000000000000000D+00 -.000000000000000D+00 -.000000000000000D+00
 0.573824659514035D+03 0.000000000000000D+00 0.000000000000000D+00 0.573824659514035D+03
 0.133700166003782D+04 0.000000000000000D+00 0.000000000000000D+00 -.133700166003782D+04
 0.300429873158906D+03 -.124230852489577D+03 0.259897729614018D+03 0.284738153941036D+02
 0.556162423473267D+02 0.397192539308793D+02 0.205620335227067D+02 -.330567702206672D+02
 0.269517970093983D+03 0.321819590300385D+02 0.214930244352107D+03 -.159402784728856D+03
 0.266805342416708D+03 0.771020596732319D+02 0.178554821845656D+03 0.163985739555419D+03
 0.101845689153493D+04 -.247724201445728D+02 -.673944829334488D+03 -.763177000523782D+03
0.114730599119D-04 0.000000000000D+00 0.000000000000D+00 0.496137413608D-06 0.000000000000D+00  7 1 -1 24 -11 11 -24 21 0 0.17829921D+00 0.11333515D-01 0.31216356D+05 0.31216356D+05 0.31216356D+05 0.11657378D+01  1  2  2  1  7  1        1 0.774529641474D-03 0.100000000000D+01
-.441263980526D-06 0.000000000000D+00 -.440595709877D-07 0.496137413608D-06 0.000000000000D+00  7 1 -1 24 -11 11 -24 21 2 0.17829921D+00 0.11333515D-01 0.31216356D+05 0.31216356D+05 0.31216356D+05 0.11657378D+01  1  2  3  1  7  1        1 -.404817257428D-04 0.100000000000D+01
0.699230445201D-06 0.000000000000D+00 0.000000000000D+00 0.496137413608D-06 0.000000000000D+00  7 1 -1 24 -11 11 -24 21 2 0.17829921D+00 0.11333515D-01 0.31216356D+05 0.31216356D+05 0.31216356D+05 0.11657378D+01  1  2 15  1  7  1        1 0.641476675253D-04 0.100000000000D+01
  </mgrwgt>
  </event>
  <event>
  8     66 0.27727860E-05 0.21850218E+03 0.75467711E-02 0.94941060E-01
        3 -1    0    0  501    0 0.00000000E+00 0.00000000E+00 0.10561825E+04 0.10561826E+04 0.50000000E+00 0.0000E+00 0.9000E+01
       -3 -1    0    0    0  501 0.00000000E+00 0.00000000E+00 -.82758699E+03 0.82758714E+03 0.50000000E+00 0.0000E+00 0.9000E+01
       25  2    1    2    0    0 -.28419679E+03 -.11654376E+03 0.97844861E+03 0.10685267E+04 0.30006238E+03 0.0000E+00 0.0000E+00
       23  2    1    2    0    0 0.28419679E+03 0.11654376E+03 -.74985313E+03 0.81524299E+03 0.89393294E+02 0.0000E+00 0.0000E+00
       24  1    3    3    0    0 -.24290640E+03 0.26365288E+02 0.52643598E+03 0.58591868E+03 0.80419002E+02 0.0000E+00 0.9000E+01
      -11  1    4    4    0    0 0.22285889E+03 0.71544068E+02 -.46748726E+03 0.52280874E+03 0.51099893E-03 0.0000E+00 0.9000E+01
       11  1    4    4    0    0 0.61337903E+02 0.44999694E+02 -.28236587E+03 0.29243426E+03 0.51099893E-03 0.0000E+00 0.9000E+01
      -24  1    3    3    0    0 -.41290390E+02 -.14290905E+03 0.45201264E+03 0.48260805E+03 0.80419002E+02 0.0000E+00 0.9000E+01
#aMCatNLO 1  0  0  2  1 0.20752464D+03 0.00000000D+00  -5  7  0 0.00000000D+00 0.00000000D+00 0.00000000D+00 0.00000000D+00 0.00000000D+00
  <mgrwgt>
 0.3568724507D-04    6    2    0
 0.934924127236637D+03 0.000000000000000D+00 0.000000000000000D+00 0.934924127236637D+03
 0.934924127236637D+03 0.000000000000000D+00 0.000000000000000D+00 -.934924127236637D+03
 0.525922351474850D+03 -.242906403938711D+03 0.263652879113653D+02 0.458724813309004D+03
 0.583853125530039D+03 0.222858890569985D+03 0.715440675204788D+02 -.534883009159700D+03
 0.329131716485275D+03 0.613379034260465D+02 0.449996942662283D+02 -.320219262249769D+03
 0.430941060983110D+03 -.412903900573207D+02 -.142909049698072D+03 0.396377458100466D+03
 0.000000000000000D+00 0.000000000000000D+00 -.000000000000000D+00 0.000000000000000D+00
 0.105181370732102D+04 0.000000000000000D+00 0.000000000000000D+00 0.105181370732102D+04
 0.103753089578488D+04 0.000000000000000D+00 0.000000000000000D+00 -.103753089578488D+04
 0.532122283968068D+03 -.243003350650789D+03 0.848989185333460D+02 0.458724813309004D+03
 0.595337282571561D+03 0.222750843490353D+03 0.136779780144179D+03 -.534883009159700D+03
 0.336135569007593D+03 0.612769461905753D+02 0.818039161766074D+02 -.320219262249769D+03
 0.417733907754847D+03 -.413681526063533D+02 -.959582638104493D+02 0.396377458100466D+03
 0.208015559803831D+03 0.343713576213731D+00 -.207524351043683D+03 0.142828115361490D+02
0.117808034664D-02 0.000000000000D+00 0.000000000000D+00 0.111870019798D-04 0.000000000000D+00  7 3 -3 24 -11 11 -24 21 0 0.16248963D+00 0.12732110D+00 0.13559470D+06 0.13559470D+06 0.13559470D+06 0.11110289D+01  1  2  2  2  7  2       -3 0.499909667169D-04 0.100000000000D+01
0.363630956099D-05 0.000000000000D+00 -.452413872678D-05 0.111870019798D-04 0.000000000000D+00  7 3 -3 24 -11 11 -24 21 2 0.16248963D+00 0.12732110D+00 0.13559470D+06 0.13559470D+06 0.13559470D+06 0.11110289D+01  1  2  3  2  7  2       -3 0.190470695945D-06 0.100000000000D+01
0.699295826473D-04 0.000000000000D+00 0.000000000000D+00 0.111870019798D-04 0.000000000000D+00  7 3 -3 24 -11 11 -24 21 2 0.16248963D+00 0.12732110D+00 0.13559470D+06 0.13559470D+06 0.13559470D+06 0.11110289D+01  1  2 15  2  7  2       -3 0.366292694573D-05 0.100000000000D+01
0.421235477677D-03 0.000000000000D+00 0.000000000000D+00 0.111870019798D-04 0.000000000000D+00  7 3 -3 24 -11 11 -24 21 2 0.16248963D+00 0.14838119D+00 0.23651812D+06 0.23651812D+06 0.23651812D+06 0.10922749D+01  1  2 12  2  7  2       -3 0.128464306380D-04 0.100000000000D+01
-.680324327493D-03 0.000000000000D+00 0.000000000000D+00 0.111870019798D-04 0.000000000000D+00  7 3 -3 24 -11 11 -24 21 2 0.16248963D+00 0.12732110D+00 0.13559470D+06 0.13559470D+06 0.13559470D+06 0.11110289D+01  1  2  4  2  7  2       -3 -.356355381609D-04 0.100000000000D+01
0.976750454476D-05 0.000000000000D+00 0.000000000000D+00 0.111870019798D-04 0.000000000000D+00  7 3 21 24 -11 11 -24 3 2 0.16248963D+00 0.14838119D+00 0.23651812D+06 0.23651812D+06 0.23651812D+06 0.10922749D+01  1  2 12  4  7  2       -3 0.463198823799D-05 0.100000000000D+01
  </mgrwgt>
  </event>
  <event>
  8     66 0.27727860E-05 0.26677758E+03 0.75467711E-02 0.10015687E+00
        1 -1    0    0  501    0 0.00000000E+00 0.00000000E+00 0.26144502E+03 0.26144522E+03 0.32000000E+00 0.0000E+00 0.9000E+01
       -1 -1    0    0    0  501 0.00000000E+00 0.00000000E+00 -.44145248E+03 0.44145259E+03 0.32000000E+00 0.0000E+00 0.9000E+01
       25  2    1    2    0    0 -.66188587E+02 -.23877720E+03 -.20128634E+03 0.43811065E+03 0.30004879E+03 0.0000E+00 0.0000E+00
       23  2    1    2    0    0 0.66188587E+02 0.23877720E+03 0.21278888E+02 0.26478716E+03 0.90906370E+02 0.0000E+00 0.0000E+00
       24  1    3    3    0    0 0.89890384E+02 -.77064159E+02 -.11732652E+03 0.18507268E+03 0.80419002E+02 0.0000E+00 0.9000E+01
      -11  1    4    4    0    0 0.21342850E+02 0.81697848E+02 -.35843337E+02 0.91732221E+02 0.51099893E-03 0.0000E+00 0.9000E+01
       11  1    4    4    0    0 0.44845737E+02 0.15707935E+03 0.57122224E+02 0.17305494E+03 0.51099893E-03 0.0000E+00 0.9000E+01
      -24  1    3    3    0    0 -.15607897E+03 -.16171304E+03 -.83959815E+02 0.25303798E+03 0.80419002E+02 0.0000E+00 0.9000E+01
#aMCatNLO 1  0  0  2  1 0.14904052D+01 0.00000000D+00  -5  7  0 0.00000000D+00 0.00000000D+00 0.00000000D+00 0.00000000D+00 0.00000000D+00
  <mgrwgt>
 0.4371980121D-03    7    2    0
 0.339728808316461D+03 0.000000000000000D+00 0.000000000000000D+00 0.339728808316461D+03
 0.339728808316461D+03 0.000000000000000D+00 0.000000000000000D+00 -.339728808316461D+03
 0.160374285713675D+03 0.898903840747435D+02 -.770641592840168D+02 -.723431390564706D+02
 0.854009263427465D+02 0.213428504442550D+02 0.816978478003930D+02 -.127774261843764D+02
 0.194158339907791D+03 0.448457368661708D+02 0.157079351544868D+03 0.104939974075294D+03
 0.239524064668708D+03 -.156078971385169D+03 -.161713040061244D+03 -.198194088344471D+02
 0.000000000000000D+00 -.000000000000000D+00 0.000000000000000D+00 0.000000000000000D+00
 0.340750135653430D+03 0.000000000000000D+00 0.000000000000000D+00 0.340750135653430D+03
 0.340273791657782D+03 0.000000000000000D+00 0.000000000000000D+00 -.340273791657782D+03
 0.160567521665032D+03 0.899353595261677D+02 -.774132701649724D+02 -.723431390564706D+02
 0.852293764461092D+02 0.213667618659462D+02 0.815122412700041D+02 -.127774261843764D+02
 0.193829643178545D+03 0.449001078900925D+02 0.156657309843035D+03 0.104939974075294D+03
 0.239832709959473D+03 -.156011796318424D+03 -.162234469996625D+03 -.198194088344471D+02
 0.156467606205359D+01 -.190432963782824D+00 0.147818904855832D+01 0.476343995648798D+00
0.142411289488D-04 0.000000000000D+00 0.000000000000D+00 0.379322331462D-05 0.000000000000D+00  7 1 -1 24 -11 11 -24 21 0 0.40222335D-01 0.67915790D-01 0.99108048D+05 0.99108048D+05 0.99108048D+05 0.11220415D+01  1  2  2  2  7  2       -1 0.419018177572D-03 0.100000000000D+01
-.785593485501D-06 0.000000000000D+00 -.546896849388D-07 0.379322331462D-05 0.000000000000D+00  7 1 -1 24 -11 11 -24 21 2 0.40222335D-01 0.67915790D-01 0.99108048D+05 0.99108048D+05 0.99108048D+05 0.11220415D+01  1  2  3  2  7  2       -1 -.291007480015D-04 0.100000000000D+01
0.903995540001D-06 0.000000000000D+00 0.000000000000D+00 0.379322331462D-05 0.000000000000D+00  7 1 -1 24 -11 11 -24 21 2 0.40222335D-01 0.67915790D-01 0.99108048D+05 0.99108048D+05 0.99108048D+05 0.11220415D+01  1  2 15  2  7  2       -1 0.334867165901D-04 0.100000000000D+01
-.248514683444D-03 0.000000000000D+00 0.000000000000D+00 0.379322331462D-05 0.000000000000D+00  7 1 -1 24 -11 11 -24 21 2 0.40222335D-01 0.67915790D-01 0.99108048D+05 0.99108048D+05 0.99108048D+05 0.11220415D+01  1  2  4  2  7  2       -1 -.920573211341D-02 0.100000000000D+01
0.248516048643D-03 0.000000000000D+00 0.000000000000D+00 0.379322331462D-05 0.114628192977D-04  7 1 -1 24 -11 11 -24 21 2 0.40343256D-01 0.68024738D-01 0.99565772D+05 0.99565772D+05 0.99565772D+05 0.11218772D+01  1  2 11  2  7  2       -1 0.913829171638D-02 0.100000000000D+01
0.484198400900D-10 0.000000000000D+00 0.000000000000D+00 0.379322331462D-05 0.000000000000D+00  7 1 21 24 -11 11 -24 1 2 0.40222335D-01 0.68126591D-01 0.99565772D+05 0.99565772D+05 0.99565772D+05 0.11218772D+01  1  2 12  4  7  2       -1 0.147912872788D-07 0.100000000000D+01
0.266001631505D-06 0.000000000000D+00 0.000000000000D+00 0.379322331462D-05 0.344372041146D-08  7 1 21 24 -11 11 -24 1 2 0.40343256D-01 0.68024738D-01 0.99565772D+05 0.99565772D+05 0.99565772D+05 0.11218772D+01  1  2 11  4  7  2       -1 0.812194716901D-04 0.100000000000D+01
  </mgrwgt>
  </event>
  <event>
  8     66 0.27727860E-05 0.12072711E+03 0.75467711E-02 0.10011686E+00
        1 -1    0    0  501    0 0.00000000E+00 0.00000000E+00 0.14004263E+04 0.14004264E+04 0.32000000E+00 0.0000E+00 0.9000E+01
       -1 -1    0    0    0  501 0.00000000E+00 0.00000000E+00 -.66948604E+02 0.66949368E+02 0.32000000E+00 0.0000E+00 0.9000E+01
       25  2    1    2    0    0 -.17082818E+03 0.84954641E+02 0.10850743E+04 0.11418573E+04 0.30008714E+03 0.0000E+00 0.0000E+00
       23  2    1    2    0    0 0.17082818E+03 -.84954641E+02 0.24840338E+03 0.32551840E+03 0.88647783E+02 0.0000E+00 0.0000E+00
       24  1    3    3    0    0 -.20955492E+03 0.66114564E+02 0.53024707E+03 0.57958051E+03 0.80419002E+02 0.0000E+00 0.9000E+01
      -13  1    4    4    0    0 0.15725744E+03 -.97167513E+02 0.24505219E+03 0.30695605E+03 0.10565837E+00 0.0000E+00 0.9000E+01
       13  1    4    4    0    0 0.13570737E+02 0.12212872E+02 0.33511910E+01 0.18562349E+02 0.10565837E+00 0.0000E+00 0.9000E+01
      -24  1    3    3    0    0 0.38726738E+02 0.18840077E+02 0.55482728E+03 0.56227683E+03 0.80419002E+02 0.0000E+00 0.9000E+01
#aMCatNLO 1  0  0  2  1 0.10220893D+03 0.00000000D+00  -5  7  0 0.00000000D+00 0.00000000D+00 0.00000000D+00 0.00000000D+00 0.00000000D+00
  <mgrwgt>
 0.1115236357D-02    9    2    0
 0.306197935245683D+03 0.000000000000000D+00 0.000000000000000D+00 0.306197935245683D+03
 0.306197935245683D+03 0.000000000000000D+00 0.000000000000000D+00 -.306197935245683D+03
 0.234145476135726D+03 -.209554916633912D+03 0.661145639846482D+02 0.851406977477333D+01
 0.201909204563696D+03 0.157257646014620D+03 -.971676679568466D+02 -.812145551075222D+02
 0.371802926771950D+02 0.135705331866438D+02 0.122130263810611D+02 -.323891460092356D+02
 0.139160897114750D+03 0.387267374326478D+02 0.188400775911373D+02 0.105089631341984D+03
 0.000000000000000D+00 0.000000000000000D+00 0.000000000000000D+00 -.000000000000000D+00
 0.351800255435258D+03 0.000000000000000D+00 0.000000000000000D+00 0.351800255435258D+03
 0.373567460134569D+03 0.000000000000000D+00 0.000000000000000D+00 -.373567460134569D+03
 0.250312004844004D+03 -.234357241979439D+03 0.345409548552877D+02 0.851406977477333D+01
 0.201241768082269D+03 0.136617895408004D+03 -.123442277659855D+03 -.812145551075222D+02
 0.346925179670107D+02 0.989092681646237D+01 0.752885053611502D+01 -.323891460092356D+02
 0.134620336095949D+03 0.247102107276435D+02 0.996898398471362D+00 0.105089631341984D+03
 0.104501088580595D+03 0.631382090273295D+02 0.803755738699813D+02 -.217672046993109D+02
0.159788385729D-04 0.000000000000D+00 0.000000000000D+00 0.415229651756D-06 0.000000000000D+00  7 1 -1 24 -13 13 -24 21 0 0.21545027D+00 0.10299847D-01 0.69782515D+05 0.69782515D+05 0.69782515D+05 0.11347745D+01  1  2  2  2  7  2       -1 0.848263942176D-03 0.100000000000D+01
-.864179357564D-06 0.000000000000D+00 -.613629474446D-07 0.415229651756D-06 0.000000000000D+00  7 1 -1 24 -13 13 -24 21 2 0.21545027D+00 0.10299847D-01 0.69782515D+05 0.69782515D+05 0.69782515D+05 0.11347745D+01  1  2  3  2  7  2       -1 -.590756949027D-04 0.100000000000D+01
0.100619602694D-05 0.000000000000D+00 0.000000000000D+00 0.415229651756D-06 0.000000000000D+00  7 1 -1 24 -13 13 -24 21 2 0.21545027D+00 0.10299847D-01 0.69782515D+05 0.69782515D+05 0.69782515D+05 0.11347745D+01  1  2 15  2  7  2       -1 0.687840191731D-04 0.100000000000D+01
0.836732018335D-05 0.000000000000D+00 0.000000000000D+00 0.415229651756D-06 0.000000000000D+00  7 1 -1 24 -13 13 -24 21 2 0.21545027D+00 0.13192082D-01 0.10019386D+06 0.10019386D+06 0.10019386D+06 0.11216530D+01  1  2 12  2  7  2       -1 0.379007345055D-03 0.100000000000D+01
-.916793111108D-05 0.000000000000D+00 0.000000000000D+00 0.415229651756D-06 0.000000000000D+00  7 1 -1 24 -13 13 -24 21 2 0.21545027D+00 0.10299847D-01 0.69782515D+05 0.69782515D+05 0.69782515D+05 0.11347745D+01  1  2  4  2  7  2       -1 -.626723950841D-03 0.100000000000D+01
-.169468416899D-04 0.000000000000D+00 -.743797068335D-05 0.415229651756D-06 0.000000000000D+00  7 1 -1 24 -13 13 -24 21 2 0.21545027D+00 0.14575369D-01 0.69782515D+05 0.69782515D+05 0.69782515D+05 0.11347745D+01  1  2  5  2  7  2       -1 -.677523977529D-03 0.100000000000D+01
0.188109238715D-04 0.000000000000D+00 0.701111122573D-05 0.415229651756D-06 0.000000000000D+00  7 1 -1 24 -13 13 -24 21 2 0.21545027D+00 0.10299847D-01 0.69782515D+05 0.69782515D+05 0.69782515D+05 0.11347745D+01  1  2  6  2  7  2       -1 0.128592333263D-02 0.100000000000D+01
0.281073550018D-06 0.000000000000D+00 0.000000000000D+00 0.415229651756D-06 0.000000000000D+00  7 1 21 24 -13 13 -24 1 2 0.21545027D+00 0.13192082D-01 0.10019386D+06 0.10019386D+06 0.10019386D+06 0.11216530D+01  1  2 12  4  7  2       -1 0.169026144527D-03 0.100000000000D+01
-.519957666188D-06 0.000000000000D+00 -.319456962115D-06 0.415229651756D-06 0.000000000000D+00  7 1 21 24 -13 13 -24 1 2 0.21545027D+00 0.14575369D-01 0.69782515D+05 0.69782515D+05 0.69782515D+05 0.11347745D+01  1  2  5  4  7  2       -1 -.272444803570D-03 0.100000000000D+01
  </mgrwgt>
  </event>
  <event>
  8     66 0.27727860E-05 0.14097951E+03 0.75467711E-02 0.99099299E-01
        3 -1    0    0  501    0 0.00000000E+00 0.00000000E+00 0.16426101E+03 0.16426177E+03 0.50000000E+00 0.0000E+00 0.9000E+01
       -3 -1    0    0    0  501 0.00000000E+00 0.00000000E+00 -.83460866E+03 0.83460881E+03 0.50000000E+00 0.0000E+00 0.9000E+01
       25  2    1    2    0    0 0.11428887E+03 -.21360649E+03 -.14045623E+03 0.40934195E+03 0.29856860E+03 0.0000E+00 0.0000E+00
       23  2    1    2    0    0 -.11428887E+03 0.21360649E+03 -.52989142E+03 0.58952862E+03 0.89829830E+02 0.0000E+00 0.0000E+00
       24  1    3    3    0    0 0.22425471E+01 -.19295716E+03 -.16676820E+03 0.26742540E+03 0.80419002E+02 0.0000E+00 0.9000E+01
      -13  1    4    4    0    0 -.54940194E+02 0.15941306E+03 -.42616752E+03 0.45831181E+03 0.10565837E+00 0.0000E+00 0.9000E+01
       13  1    4    4    0    0 -.59348674E+02 0.54193424E+02 -.10372391E+03 0.13121681E+03 0.10565837E+00 0.0000E+00 0.9000E+01
      -24  1    3    3    0    0 0.11204632E+03 -.20649326E+02 0.26311973E+02 0.14191656E+03 0.80419002E+02 0.0000E+00 0.9000E+01
#aMCatNLO 1  0  0  1  2 0.79206983D+02 0.00000000D+00  -5  7  0 0.00000000D+00 0.00000000D+00 0.00000000D+00 0.00000000D+00 0.00000000D+00
  <mgrwgt>
 0.1049079749D-03    9    2    0
 0.370262223159466D+03 0.000000000000000D+00 0.000000000000000D+00 0.370262223159466D+03
 0.370262223159466D+03 0.000000000000000D+00 0.000000000000000D+00 -.370262223159466D+03
 0.209757681901875D+03 0.224254709721745D+01 -.192957162292771D+03 0.171339915056538D+02
 0.232421684503411D+03 -.549401884131923D+02 0.159413210087948D+03 -.159965132369470D+03
 0.830997339090597D+02 -.593486798159603D+02 0.541932782706960D+02 -.211279097436085D+02
 0.215245346004587D+03 0.112046321131935D+03 -.206493260658730D+02 0.163959050607425D+03
 0.000000000000000D+00 0.000000000000000D+00 -.000000000000000D+00 0.000000000000000D+00
 0.422185578916894D+03 0.000000000000000D+00 0.000000000000000D+00 0.422185578916894D+03
 0.403861727557338D+03 0.000000000000000D+00 0.000000000000000D+00 -.403861727557338D+03
 0.190345271662869D+03 0.819566000865089D+00 -.171667880329127D+03 0.171339915056538D+02
 0.251152312155734D+03 -.566600373915682D+02 0.185143945323564D+03 -.159965132369470D+03
 0.897807359455117D+02 -.599635356632860D+02 0.633921632975359D+02 -.211279097436085D+02
 0.213470095343168D+03 0.110521578654238D+03 0.216241234220991D+01 0.163959050607425D+03
 0.812988913669492D+02 0.528242839975108D+01 -.790306406341830D+02 0.183238513595566D+02
0.301118721345D-04 0.000000000000D+00 0.000000000000D+00 0.231727774802D-06 0.000000000000D+00  7 3 -3 24 -13 13 -24 21 0 0.25270994D-01 0.12840140D+00 0.89250578D+05 0.89250578D+05 0.89250578D+05 0.11257977D+01  1  2  2  1  7  1        3 0.767479884710D-04 0.100000000000D+01
-.157920193863D-05 0.000000000000D+00 -.115637517635D-06 0.231727774802D-06 0.000000000000D+00  7 3 -3 24 -13 13 -24 21 2 0.25270994D-01 0.12840140D+00 0.89250578D+05 0.89250578D+05 0.89250578D+05 0.11257977D+01  1  2  3  1  7  1        3 -.510137898703D-05 0.100000000000D+01
0.190319500375D-05 0.000000000000D+00 0.000000000000D+00 0.231727774802D-06 0.000000000000D+00  7 3 -3 24 -13 13 -24 21 2 0.25270994D-01 0.12840140D+00 0.89250578D+05 0.89250578D+05 0.89250578D+05 0.11257977D+01  1  2 15  1  7  1        3 0.614799080656D-05 0.100000000000D+01
0.307009995698D-04 0.000000000000D+00 0.000000000000D+00 0.231727774802D-06 0.000000000000D+00  7 3 -3 24 -13 13 -24 21 2 0.29828301D-01 0.12840140D+00 0.11777209D+06 0.11777209D+06 0.11777209D+06 0.11159384D+01  1  2 12  1  7  1        3 0.717460229948D-04 0.100000000000D+01
-.290015355476D-04 0.000000000000D+00 0.000000000000D+00 0.231727774802D-06 0.000000000000D+00  7 3 -3 24 -13 13 -24 21 2 0.25270994D-01 0.12840140D+00 0.89250578D+05 0.89250578D+05 0.89250578D+05 0.11257977D+01  1  2  4  1  7  1        3 -.936851838994D-04 0.100000000000D+01
-.696269407020D-04 0.000000000000D+00 -.218542847825D-04 0.231727774802D-06 0.000000000000D+00  7 3 -3 24 -13 13 -24 21 2 0.31319488D-01 0.12840140D+00 0.89250578D+05 0.89250578D+05 0.89250578D+05 0.11257977D+01  1  2  5  1  7  1        3 -.151649649534D-03 0.100000000000D+01
0.731202629728D-04 0.000000000000D+00 0.213606097305D-04 0.231727774802D-06 0.000000000000D+00  7 3 -3 24 -13 13 -24 21 2 0.25270994D-01 0.12840140D+00 0.89250578D+05 0.89250578D+05 0.89250578D+05 0.11257977D+01  1  2  6  1  7  1        3 0.236204226915D-03 0.100000000000D+01
0.758899568517D-06 0.000000000000D+00 0.000000000000D+00 0.231727774802D-06 0.000000000000D+00  7 21 -3 24 -13 13 -24 -3 2 0.29828301D-01 0.12840140D+00 0.11777209D+06 0.11777209D+06 0.11777209D+06 0.11159384D+01  1  2 12  3  7  1        3 0.285025695761D-04 0.100000000000D+01
-.181842402381D-05 0.000000000000D+00 -.659853833846D-06 0.231727774802D-06 0.000000000000D+00  7 21 -3 24 -13 13 -24 -3 2 0.31319488D-01 0.12840140D+00 0.89250578D+05 0.89250578D+05 0.89250578D+05 0.11257977D+01  1  2  5  3  7  1        3 -.640046114202D-04 0.100000000000D+01
  </mgrwgt>
  </event>
  <event>
  8     66 -.27727860E-05 0.20143713E+03 0.75467711E-02 0.10565952E+00
        3 -1    0    0  501    0 0.00000000E+00 0.00000000E+00 0.73492668E+03 0.73492685E+03 0.50000000E+00 0.0000E+00 0.9000E+01
       -3 -1    0    0    0  501 0.00000000E+00 0.00000000E+00 -.19730615E+03 0.19730678E+03 0.50000000E+00 0.0000E+00 0.9000E+01
       25  2    1    2    0    0 -.76267689E+02 0.38383286E+02 0.67827387E+03 0.74446942E+03 0.29476982E+03 0.0000E+00 0.0000E+00
       23  2    1    2    0    0 0.76267689E+02 -.38383286E+02 -.14065334E+03 0.18776421E+03 0.90454415E+02 0.0000E+00 0.0000E+00
       24  1    3    3    0    0 0.20139011E+02 -.80275836E+02 0.15380420E+03 0.19228296E+03 0.80419002E+02 0.0000E+00 0.9000E+01
      -13  1    4    4    0    0 -.15725549E+02 -.22185502E+01 -.37002040E-01 0.15881669E+02 0.10565837E+00 0.0000E+00 0.9000E+01
       13  1    4    4    0    0 0.91993239E+02 -.36164736E+02 -.14061633E+03 0.17188254E+03 0.10565837E+00 0.0000E+00 0.9000E+01
      -24  1    3    3    0    0 -.96406700E+02 0.11865912E+03 0.52446967E+03 0.55218646E+03 0.80419002E+02 0.0000E+00 0.9000E+01
#aMCatNLO 1  0  0  1  1 0.18201372D+02 0.00000000D+00  -5  7  0 0.00000000D+00 0.00000000D+00 0.00000000D+00 0.00000000D+00 0.00000000D+00
  <mgrwgt>
 -.8027733028D-05    4    2    0
 0.380796438527944D+03 0.000000000000000D+00 0.000000000000000D+00 0.380796438527944D+03
 0.380796438527944D+03 0.000000000000000D+00 0.000000000000000D+00 -.380796438527944D+03
 0.126792609904284D+03 0.201390106062392D+02 -.802758356478636D+02 0.525296148359043D+02
 0.194658031905455D+02 -.157256960959584D+02 -.221850393019528D+01 -.112560302266083D+02
 0.309657854922115D+03 0.919933854880568D+02 -.361647822251021D+02 -.293457514246990D+03
 0.305676609038943D+03 -.964066999983376D+02 0.118659121803161D+03 0.252183929637694D+03
 0.000000000000000D+00 0.000000000000000D+00 -.000000000000000D+00 -.000000000000000D+00
 0.387395736633069D+03 0.000000000000000D+00 0.000000000000000D+00 0.387395736633069D+03
 0.393665615507267D+03 0.000000000000000D+00 0.000000000000000D+00 -.393665615507267D+03
 0.125226858489393D+03 0.178324769137877D+02 -.783402352885331D+02 0.525296148359043D+02
 0.197251694834652D+02 -.160843798892729D+02 -.191750313341623D+01 -.112560302266083D+02
 0.307506553959288D+03 0.863449706574882D+02 -.314247371039417D+02 -.293457514246990D+03
 0.309351762125588D+03 -.102035565375074D+03 0.123382761384707D+03 0.252183929637694D+03
 0.192510080826016D+02 0.139424976930706D+02 -.117002858588160D+02 -.626987887419717D+01
0.417463028838D-04 0.000000000000D+00 0.000000000000D+00 0.407293136346D-07 0.000000000000D+00  7 3 -3 24 -13 13 -24 21 0 0.11306570D+00 0.30354854D-01 0.40576917D+05 0.40576917D+05 0.40576917D+05 0.11553590D+01  1  2  2  1  7  1        3 0.124009054735D-03 0.100000000000D+01
-.117579149648D-05 0.000000000000D+00 -.160316795128D-06 0.407293136346D-07 0.000000000000D+00  7 3 -3 24 -13 13 -24 21 2 0.11306570D+00 0.30354854D-01 0.40576917D+05 0.40576917D+05 0.40576917D+05 0.11553590D+01  1  2  3  1  7  1        3 -.466229332537D-05 0.100000000000D+01
0.242917485249D-05 0.000000000000D+00 0.000000000000D+00 0.407293136346D-07 0.000000000000D+00  7 3 -3 24 -13 13 -24 21 2 0.11306570D+00 0.30354854D-01 0.40576917D+05 0.40576917D+05 0.40576917D+05 0.11553590D+01  1  2 15  1  7  1        3 0.963225685404D-05 0.100000000000D+01
-.345519601380D-04 0.000000000000D+00 0.000000000000D+00 0.407293136346D-07 0.000000000000D+00  7 3 -3 24 -13 13 -24 21 2 0.11306570D+00 0.30354854D-01 0.40576917D+05 0.40576917D+05 0.40576917D+05 0.11553590D+01  1  2  4  1  7  1        3 -.137006751292D-03 0.100000000000D+01
  </mgrwgt>
  </event>
  <event>
  8     66 0.27727860E-05 0.61248811E+03 0.75467711E-02 0.89259468E-01
        1 -1    0    0  501    0 0.00000000E+00 0.00000000E+00 0.40602876E+03 0.40602888E+03 0.32000000E+00 0.0000E+00 0.9000E+01
       -1 -1    0    0    0  501 0.00000000E+00 0.00000000E+00 -.12405006E+04 0.12405006E+04 0.32000000E+00 0.0000E+00 0.9000E+01
       25  2    1    2    0    0 0.53835579E+03 0.22285767E+03 -.82889003E+03 0.10567878E+04 0.30041517E+03 0.0000E+00 0.0000E+00
       23  2    1    2    0    0 -.53835579E+03 -.22285767E+03 -.55817682E+01 0.58974168E+03 0.90948356E+02 0.0000E+00 0.0000E+00
       24  1    3    3    0    0 0.34547994E+03 0.24184801E+03 -.43907034E+03 0.61408211E+03 0.80419002E+02 0.0000E+00 0.9000E+01
      -11  1    4    4    0    0 -.33313802E+03 -.10561033E+03 -.36498923E+02 0.35137822E+03 0.51099893E-03 0.0000E+00 0.9000E+01
       11  1    4    4    0    0 -.20521777E+03 -.11724734E+03 0.30917155E+02 0.23836346E+03 0.51099893E-03 0.0000E+00 0.9000E+01
      -24  1    3    3    0    0 0.19287584E+03 -.18990346E+02 -.38981969E+03 0.44270569E+03 0.80419002E+02 0.0000E+00 0.9000E+01
#aMCatNLO 1  0  0  1  2 0.38460550D+03 0.00000000D+00  -5  7  0 0.00000000D+00 0.00000000D+00 0.00000000D+00 0.00000000D+00 0.00000000D+00
  <mgrwgt>
 0.2738573302D-03    4    2    0
 0.709703484774946D+03 0.000000000000000D+00 0.000000000000000D+00 0.709703484774946D+03
 0.709703484774946D+03 0.000000000000000D+00 0.000000000000000D+00 -.709703484774946D+03
 0.454212559959894D+03 0.345479942953398D+03 0.241848013091426D+03 -.148307050579518D+03
 0.386145259061498D+03 -.333138018084364D+03 -.105610328518210D+03 0.164236660075543D+03
 0.294680788013793D+03 -.205217767935006D+03 -.117247338498564D+03 0.175998568639654D+03
 0.284368362514707D+03 0.192875843065971D+03 -.189903460746517D+02 -.191928178135679D+03
 0.000000000000000D+00 -.000000000000000D+00 -.000000000000000D+00 -.000000000000000D+00
 0.893688123531602D+03 0.000000000000000D+00 0.000000000000000D+00 0.893688123531602D+03
 0.968768017653386D+03 0.000000000000000D+00 0.000000000000000D+00 -.968768017653386D+03
 0.584841731715341D+03 0.457272054490138D+03 0.323233541162115D+03 -.148307050579518D+03
 0.310249922446270D+03 -.258212686050705D+03 -.510641031217336D+02 0.164236660075543D+03
 0.241653631885702D+03 -.147513413339898D+03 -.752381188305211D+02 0.175998568639654D+03
 0.333845594298970D+03 0.259389637549470D+03 0.294322144585737D+02 -.191928178135679D+03
 0.391865260838705D+03 -.310935592649005D+03 -.226363533668434D+03 -.750798941217838D+02
0.322846181999D-03 0.000000000000D+00 0.000000000000D+00 0.738877330434D-05 0.000000000000D+00  7 1 -1 24 -11 11 -24 21 0 0.62465976D-01 0.19084625D+00 0.37514168D+06 0.37514168D+06 0.37514168D+06 0.10774421D+01  1  2  2  1  7  1        1 0.382187145282D-03 0.100000000000D+01
-.174626227754D-04 0.000000000000D+00 -.123981434623D-05 0.738877330434D-05 0.000000000000D+00  7 1 -1 24 -11 11 -24 21 2 0.62465976D-01 0.19084625D+00 0.37514168D+06 0.37514168D+06 0.37514168D+06 0.10774421D+01  1  2  3  1  7  1        1 -.239981523913D-04 0.100000000000D+01
0.204166719527D-04 0.000000000000D+00 0.000000000000D+00 0.738877330434D-05 0.000000000000D+00  7 1 -1 24 -11 11 -24 21 2 0.62465976D-01 0.19084625D+00 0.37514168D+06 0.37514168D+06 0.37514168D+06 0.10774421D+01  1  2 15  1  7  1        1 0.280577786707D-04 0.100000000000D+01
-.817818966509D-04 0.000000000000D+00 0.000000000000D+00 0.738877330434D-05 0.000000000000D+00  7 1 -1 24 -11 11 -24 21 2 0.62465976D-01 0.19084625D+00 0.37514168D+06 0.37514168D+06 0.37514168D+06 0.10774421D+01  1  2  4  1  7  1        1 -.112389441375D-03 0.100000000000D+01
  </mgrwgt>
  </event>
  <event>
  8     66 0.27727860E-05 0.36664217E+03 0.75467711E-02 0.92693917E-01
        1 -1    0    0  501    0 0.00000000E+00 0.00000000E+00 0.16494874E+04 0.16494874E+04 0.32000000E+00 0.0000E+00 0.9000E+01
       -1 -1    0    0    0  501 0.00000000E+00 0.00000000E+00 -.17512482E+03 0.17512511E+03 0.32000000E+00 0.0000E+00 0.9000E+01
       25  2    1    2    0    0 -.26880984E+02 -.48789516E+03 0.89225236E+03 0.10591356E+04 0.29477066E+03 0.0000E+00 0.0000E+00
       23  2    1    2    0    0 0.26880984E+02 0.48789516E+03 0.58211019E+03 0.76547688E+03 0.91314374E+02 0.0000E+00 0.0000E+00
       24  1    3    3    0    0 -.69860652E+02 -.22302586E+03 0.62448985E+03 0.67162180E+03 0.80419002E+02 0.0000E+00 0.9000E+01
      -11  1    4    4    0    0 -.20394784E+02 0.10986598E+03 0.92200860E+02 0.14487056E+03 0.51099893E-03 0.0000E+00 0.9000E+01
       11  1    4    4    0    0 0.47275768E+02 0.37802918E+03 0.48990933E+03 0.62060632E+03 0.51099893E-03 0.0000E+00 0.9000E+01
      -24  1    3    3    0    0 0.42979668E+02 -.26486929E+03 0.26776250E+03 0.38751383E+03 0.80419002E+02 0.0000E+00 0.9000E+01
#aMCatNLO 1  0  0  1  2 0.15488402D+03 0.00000000D+00  -5  7  0 0.00000000D+00 0.00000000D+00 0.00000000D+00 0.00000000D+00 0.00000000D+00
  <mgrwgt>
 0.1513028907D-02    9    2    0
 0.537462998881033D+03 0.000000000000000D+00 0.000000000000000D+00 0.537462998881033D+03
 0.537462998881033D+03 0.000000000000000D+00 0.000000000000000D+00 -.537462998881033D+03
 0.283484709832251D+03 -.698606518528191D+02 -.223025861475907D+03 0.138835583298857D+03
 0.119445563989812D+03 -.203947836975776D+02 0.109865979385168D+03 -.421990773419414D+02
 0.381479372640005D+03 0.472757679694032D+02 0.378029176973310D+03 -.196330045993130D+02
 0.290516351299998D+03 0.429796675809934D+02 -.264869294882571D+03 -.770035013576030D+02
 0.000000000000000D+00 -.000000000000000D+00 0.000000000000000D+00 0.000000000000000D+00
 0.951101547790576D+03 0.000000000000000D+00 0.000000000000000D+00 0.951101547790576D+03
 0.557709582876545D+03 0.000000000000000D+00 0.000000000000000D+00 -.557709582876545D+03
 0.313704691555337D+03 -.563029900610676D+02 -.263624869217053D+03 0.138835583298857D+03
 0.104733039773024D+03 -.153053804300353D+02 0.946255400062724D+02 -.421990773419414D+02
 0.335911802124328D+03 0.635623043634569D+02 0.329258435580357D+03 -.196330045993130D+02
 0.331677612032984D+03 0.571049941593585D+02 -.307168199510075D+03 -.770035013576030D+02
 0.422783985181448D+03 -.490589280317125D+02 0.146909093140498D+03 0.393391964914031D+03
0.181801876849D-03 0.000000000000D+00 0.000000000000D+00 0.645389150882D-07 0.000000000000D+00  7 1 -1 24 -11 11 -24 21 0 0.25376731D+00 0.26942305D-01 0.26010127D+06 0.26010127D+06 0.26010127D+06 0.10891673D+01  1  2  2  1  7  1        1 0.137764412869D-02 0.100000000000D+01
-.100663254495D-04 0.000000000000D+00 -.698167076635D-06 0.645389150882D-07 0.000000000000D+00  7 1 -1 24 -11 11 -24 21 2 0.25376731D+00 0.26942305D-01 0.26010127D+06 0.26010127D+06 0.26010127D+06 0.10891673D+01  1  2  3  1  7  1        1 -.904896400909D-04 0.100000000000D+01
0.108657172415D-04 0.000000000000D+00 0.000000000000D+00 0.645389150882D-07 0.000000000000D+00  7 1 -1 24 -11 11 -24 21 2 0.25376731D+00 0.26942305D-01 0.26010127D+06 0.26010127D+06 0.26010127D+06 0.10891673D+01  1  2 15  1  7  1        1 0.976756461372D-04 0.100000000000D+01
0.409971409480D-03 0.000000000000D+00 0.000000000000D+00 0.645389150882D-07 0.000000000000D+00  7 1 -1 24 -11 11 -24 21 2 0.45053664D+00 0.26942305D-01 0.35402621D+06 0.35402621D+06 0.35402621D+06 0.10792711D+01  1  2 12  1  7  1        1 0.472390149675D-03 0.100000000000D+01
-.392010219939D-03 0.000000000000D+00 0.000000000000D+00 0.645389150882D-07 0.000000000000D+00  7 1 -1 24 -11 11 -24 21 2 0.25376731D+00 0.26942305D-01 0.26010127D+06 0.26010127D+06 0.26010127D+06 0.10891673D+01  1  2  4  1  7  1        1 -.352391385437D-02 0.100000000000D+01
-.445673189392D-03 0.000000000000D+00 -.508636012669D-04 0.645389150882D-07 0.000000000000D+00  7 1 -1 24 -11 11 -24 21 2 0.45271565D+00 0.26942305D-01 0.26010127D+06 0.26010127D+06 0.26010127D+06 0.10891673D+01  1  2  5  1  7  1        1 -.520891370512D-03 0.100000000000D+01
0.411673956579D-03 0.000000000000D+00 0.433892782010D-04 0.645389150882D-07 0.000000000000D+00  7 1 -1 24 -11 11 -24 21 2 0.25376731D+00 0.26942305D-01 0.26010127D+06 0.26010127D+06 0.26010127D+06 0.10891673D+01  1  2  6  1  7  1        1 0.370067790401D-02 0.100000000000D+01
0.258944997799D-04 0.000000000000D+00 0.000000000000D+00 0.645389150882D-07 0.000000000000D+00  7 21 -1 24 -11 11 -24 -1 2 0.45053664D+00 0.26942305D-01 0.35402621D+06 0.35402621D+06 0.35402621D+06 0.10792711D+01  1  2 12  3  7  1        1 0.699095547270D-05 0.100000000000D+01
-.256855962949D-04 0.000000000000D+00 -.323578742905D-05 0.645389150882D-07 0.000000000000D+00  7 21 -1 24 -11 11 -24 -1 2 0.45271565D+00 0.26942305D-01 0.26010127D+06 0.26010127D+06 0.26010127D+06 0.10891673D+01  1  2  5  3  7  1        1 -.705501178306D-05 0.100000000000D+01
  </mgrwgt>
  </event>
  <event>
  8     66 0.27727860E-05 0.47055929E+03 0.75467711E-02 0.89741487E-01
        1 -1    0    0  501    0 0.00000000E+00 0.00000000E+00 0.61183844E+03 0.61183852E+03 0.32000000E+00 0.0000E+00 0.9000E+01
       -1 -1    0    0    0  501 0.00000000E+00 0.00000000E+00 -.19197337E+04 0.19197337E+04 0.32000000E+00 0.0000E+00 0.9000E+01
       25  2    1    2    0    0 0.42455168E+03 -.52171840E+02 0.46869542E+03 0.70187097E+03 0.29996906E+03 0.0000E+00 0.0000E+00
       23  2    1    2    0    0 -.42455168E+03 0.52171840E+02 -.17765906E+04 0.18297012E+04 0.92554162E+02 0.0000E+00 0.0000E+00
       24  1    3    3    0    0 0.89028650E+02 -.11074123E+03 0.21336165E+03 0.26866360E+03 0.80419002E+02 0.0000E+00 0.9000E+01
      -13  1    4    4    0    0 -.64895499E+01 0.21837265E+01 -.12837884E+03 0.12856135E+03 0.10565837E+00 0.0000E+00 0.9000E+01
       13  1    4    4    0    0 -.41806213E+03 0.49988113E+02 -.16482118E+04 0.17011399E+04 0.10565837E+00 0.0000E+00 0.9000E+01
      -24  1    3    3    0    0 0.33552303E+03 0.58569393E+02 0.25533378E+03 0.43320737E+03 0.80419002E+02 0.0000E+00 0.9000E+01
#aMCatNLO 1  0  0  1  2 0.52927442D+03 0.00000000D+00  -5  7  0 0.00000000D+00 0.00000000D+00 0.00000000D+00 0.00000000D+00 0.00000000D+00
  <mgrwgt>
 0.6995616278D-03    4    2    0
 0.108377441703344D+04 0.000000000000000D+00 0.000000000000000D+00 0.108377441703344D+04
 0.108377441703344D+04 0.000000000000000D+00 0.000000000000000D+00 -.108377441703344D+04
 0.442525658830931D+03 0.890286501987365D+02 -.110741232546375D+03 0.411305265742222D+03
 0.726874856774713D+02 -.648901355753429D+01 0.218366420316275D+01 -.723643205441089D+02
 0.992306463536461D+03 -.418062664050412D+03 0.499881754991383D+02 -.898552674479119D+03
 0.660029226022009D+03 0.335523027409210D+03 0.585693928440739D+02 0.559611729281006D+03
 0.000000000000000D+00 -.000000000000000D+00 -.000000000000000D+00 -.000000000000000D+00
 0.126726895632897D+04 0.000000000000000D+00 0.000000000000000D+00 0.126726895632897D+04
 0.157741422566730D+04 0.000000000000000D+00 0.000000000000000D+00 -.157741422566730D+04
 0.444445330773435D+03 0.146490380491964D+03 -.208082408669576D+02 0.411305265742222D+03
 0.744192876282240D+02 0.304118509729346D+01 0.170993180123005D+02 -.723643205441089D+02
 0.976783395325162D+03 -.290496698850688D+03 0.249640863093821D+03 -.898552674479119D+03
 0.735584684916943D+03 0.425936796386728D+03 0.200075412444711D+03 0.559611729281006D+03
 0.613450483352504D+03 -.284971663125297D+03 -.446007352683875D+03 -.310145269338329D+03
0.843960267672D-02 0.000000000000D+00 0.000000000000D+00 0.255271152474D-04 0.000000000000D+00  7 1 -1 24 -13 13 -24 21 0 0.94128999D-01 0.29534365D+00 0.22142604D+06 0.22142604D+06 0.22142604D+06 0.10944469D+01  1  2  2  1  7  1        1 0.786574274943D-03 0.100000000000D+01
-.720794019416D-04 0.000000000000D+00 -.324102964770D-04 0.255271152474D-04 0.000000000000D+00  7 1 -1 24 -13 13 -24 21 2 0.94128999D-01 0.29534365D+00 0.22142604D+06 0.22142604D+06 0.22142604D+06 0.10944469D+01  1  2  3  1  7  1        1 -.804670849532D-05 0.100000000000D+01
0.503797578444D-03 0.000000000000D+00 0.000000000000D+00 0.255271152474D-04 0.000000000000D+00  7 1 -1 24 -13 13 -24 21 2 0.94128999D-01 0.29534365D+00 0.22142604D+06 0.22142604D+06 0.22142604D+06 0.10944469D+01  1  2 15  1  7  1        1 0.562423125773D-04 0.100000000000D+01
-.121114489087D-02 0.000000000000D+00 0.000000000000D+00 0.255271152474D-04 0.000000000000D+00  7 1 -1 24 -13 13 -24 21 2 0.94128999D-01 0.29534365D+00 0.22142604D+06 0.22142604D+06 0.22142604D+06 0.10944469D+01  1  2  4  1  7  1        1 -.135208251177D-03 0.100000000000D+01
  </mgrwgt>
  </event>
  <event>
  8     66 0.27727860E-05 0.22356825E+03 0.75467711E-02 0.10153402E+00
        3 -1    0    0  501    0 0.00000000E+00 0.00000000E+00 0.63345477E+03 0.63345497E+03 0.50000000E+00 0.0000E+00 0.9000E+01
       -3 -1    0    0    0  501 0.00000000E+00 0.00000000E+00 -.14201302E+03 0.14201390E+03 0.50000000E+00 0.0000E+00 0.9000E+01
       25  2    1    2    0    0 -.67838532E+01 -.17383259E+03 0.13734404E+03 0.37308677E+03 0.30011091E+03 0.0000E+00 0.0000E+00
       23  2    1    2    0    0 0.67838532E+01 0.17383259E+03 0.35409771E+03 0.40238210E+03 0.79135196E+02 0.0000E+00 0.0000E+00
       24  1    3    3    0    0 -.55611538E+02 -.57518428E+02 0.18419290E+03 0.21632211E+03 0.80419002E+02 0.0000E+00 0.9000E+01
      -11  1    4    4    0    0 0.25093087E+02 0.30028838E+02 0.12759917E+03 0.13346514E+03 0.51099893E-03 0.0000E+00 0.9000E+01
       11  1    4    4    0    0 -.18309234E+02 0.14380375E+03 0.22649854E+03 0.26891697E+03 0.51099893E-03 0.0000E+00 0.9000E+01
      -24  1    3    3    0    0 0.48827685E+02 -.11631416E+03 -.46848857E+02 0.15676466E+03 0.80419002E+02 0.0000E+00 0.9000E+01
#aMCatNLO 1  0  0  2  2 0.10814755D+03 0.00000000D+00  -5  7  0 0.00000000D+00 0.00000000D+00 0.00000000D+00 0.00000000D+00 0.00000000D+00
  <mgrwgt>
 0.2170887204D-03    4    2    0
 0.299932063880613D+03 0.000000000000000D+00 0.000000000000000D+00 0.299932063880613D+03
 0.299932063880613D+03 0.000000000000000D+00 0.000000000000000D+00 -.299932063880613D+03
 0.128747450084559D+03 -.556115378466073D+02 -.575184280446028D+02 0.608906991462463D+02
 0.679995620173859D+02 0.250930868991426D+02 0.300288375438530D+02 0.556106675035759D+02
 0.162079867598318D+03 -.183092336603865D+02 0.143803754458033D+03 0.724923144011231D+02
 0.241037248060964D+03 0.488276846078512D+02 -.116314163957283D+03 -.188993681050945D+03
 0.000000000000000D+00 -.000000000000000D+00 -.000000000000000D+00 0.000000000000000D+00
 0.432465045030336D+03 0.000000000000000D+00 0.000000000000000D+00 0.432465045030336D+03
 0.327665123217640D+03 0.000000000000000D+00 0.000000000000000D+00 -.327665123217640D+03
 0.116425000811067D+03 -.394539014290741D+02 -.426998510418075D+02 0.608906991462463D+02
 0.760891514939670D+02 0.345889867699551D+02 0.387377674770562D+02 0.556106675035759D+02
 0.179783683863906D+03 0.422065070775903D+01 0.164466481217447D+03 0.724923144011231D+02
 0.237237122152294D+03 0.803474714089400D+02 -.874065703121644D+02 -.188993681050945D+03
 0.150595209926742D+03 -.797032074575800D+02 -.730978273405309D+02 0.104799921812697D+03
0.324876747464D-04 0.000000000000D+00 0.000000000000D+00 0.145928695933D-07 0.000000000000D+00  7 3 -3 24 -11 11 -24 21 0 0.97454663D-01 0.21848240D-01 0.49982763D+05 0.49982763D+05 0.49982763D+05 0.11473086D+01  1  2  2  2  7  2       -3 0.251075106077D-03 0.100000000000D+01
-.161539785616D-05 0.000000000000D+00 -.124761225227D-06 0.145928695933D-07 0.000000000000D+00  7 3 -3 24 -11 11 -24 21 2 0.97454663D-01 0.21848240D-01 0.49982763D+05 0.49982763D+05 0.49982763D+05 0.11473086D+01  1  2  3  2  7  2       -3 -.164333080372D-04 0.100000000000D+01
0.199828461345D-05 0.000000000000D+00 0.000000000000D+00 0.145928695933D-07 0.000000000000D+00  7 3 -3 24 -11 11 -24 21 2 0.97454663D-01 0.21848240D-01 0.49982763D+05 0.49982763D+05 0.49982763D+05 0.11473086D+01  1  2 15  2  7  2       -3 0.203283831742D-04 0.100000000000D+01
-.372375606841D-05 0.000000000000D+00 0.000000000000D+00 0.145928695933D-07 0.000000000000D+00  7 3 -3 24 -11 11 -24 21 2 0.97454663D-01 0.21848240D-01 0.49982763D+05 0.49982763D+05 0.49982763D+05 0.11473086D+01  1  2  4  2  7  2       -3 -.378814607771D-04 0.100000000000D+01
  </mgrwgt>
  </event>
  <event>
  8     66 0.27727860E-05 0.44937909E+03 0.75467711E-02 0.79715785E-01
        1 -1    0    0  501    0 0.00000000E+00 0.00000000E+00 0.83916785E+03 0.83916791E+03 0.32000000E+00 0.0000E+00 0.9000E+01
       -1 -1    0    0    0  501 0.00000000E+00 0.00000000E+00 -.32316149E+03 0.32316165E+03 0.32000000E+00 0.0000E+00 0.9000E+01
       25  2    1    2    0    0 0.22678065E+03 0.32914443E+03 -.40487256E+01 0.49983411E+03 0.30008703E+03 0.0000E+00 0.0000E+00
       23  2    1    2    0    0 -.22678065E+03 -.32914443E+03 0.52005509E+03 0.66249545E+03 0.93152590E+02 0.0000E+00 0.0000E+00
       24  1    3    3    0    0 0.26013609E+03 0.26992703E+03 0.40435563E+02 0.38553033E+03 0.80419002E+02 0.0000E+00 0.9000E+01
      -13  1    4    4    0    0 -.14430836E+03 -.27742721E+03 0.40810551E+03 0.51414091E+03 0.10565837E+00 0.0000E+00 0.9000E+01
       13  1    4    4    0    0 -.82472285E+02 -.51717225E+02 0.11194958E+03 0.14835453E+03 0.10565837E+00 0.0000E+00 0.9000E+01
      -24  1    3    3    0    0 -.33355443E+02 0.59217406E+02 -.44484288E+02 0.11430378E+03 0.80419002E+02 0.0000E+00 0.9000E+01
#aMCatNLO 1  0  0  1  2 0.23121983D+04 0.00000000D+00  -5  7  0 0.00000000D+00 0.00000000D+00 0.00000000D+00 0.00000000D+00 0.00000000D+00
  <mgrwgt>
 0.7290020057D-03    3    2    0
 0.520756047695562D+03 0.000000000000000D+00 0.000000000000000D+00 0.520756047695562D+03
 0.520756047695562D+03 0.000000000000000D+00 0.000000000000000D+00 -.520756047695562D+03
 0.410219233113261D+03 0.260136088762922D+03 0.269927028348573D+03 -.145880834764886D+03
 0.371590973705589D+03 -.144308440557415D+03 -.277427500205275D+03 0.200720970138168D+03
 0.110099361877340D+03 -.824722053851753D+02 -.517169344558820D+02 0.514350417049408D+02
 0.149602526694933D+03 -.333554428203317D+02 0.592174063125843D+02 -.106275177078223D+03
 0.000000000000000D+00 -.000000000000000D+00 0.000000000000000D+00 -.000000000000000D+00
 0.151543269327696D+04 0.000000000000000D+00 0.000000000000000D+00 0.151543269327696D+04
 0.666908496367507D+04 0.000000000000000D+00 0.000000000000000D+00 -.666908496367507D+04
 0.701079754495402D+03 0.564763917789614D+03 -.380533974068267D+03 -.145880834764886D+03
 0.132666238762452D+04 0.321214555834850D+03 -.127144224878844D+04 0.200720970138168D+03
 0.294400636746746D+03 0.284088066521967D+02 -.288477228055003D+03 0.514350417049408D+02
 0.213800494611772D+03 0.662601193971926D+02 -.153488171714728D+03 -.106275177078223D+03
 0.564857438347359D+04 -.980647399673853D+03 0.209394162262644D+04 -.515365227039811D+04
0.718263089904D-04 0.000000000000D+00 0.000000000000D+00 0.124241318816D-05 0.000000000000D+00  7 1 -1 24 -13 13 -24 21 0 0.12910276D+00 0.49717169D-01 0.20194157D+06 0.20194157D+06 0.20194157D+06 0.10975033D+01  1  2  2  1  7  1        1 0.723953438477D-03 0.100000000000D+01
-.388491786373D-05 0.000000000000D+00 -.275831938825D-06 0.124241318816D-05 0.000000000000D+00  7 1 -1 24 -13 13 -24 21 2 0.12910276D+00 0.49717169D-01 0.20194157D+06 0.20194157D+06 0.20194157D+06 0.10975033D+01  1  2  3  1  7  1        1 -.471650810458D-04 0.100000000000D+01
0.430076086899D-05 0.000000000000D+00 0.000000000000D+00 0.124241318816D-05 0.000000000000D+00  7 1 -1 24 -13 13 -24 21 2 0.12910276D+00 0.49717169D-01 0.20194157D+06 0.20194157D+06 0.20194157D+06 0.10975033D+01  1  2 15  1  7  1        1 0.522136482827D-04 0.100000000000D+01
  </mgrwgt>
  </event>
  <event>
  8     66 0.27727860E-05 0.12035737E+03 0.75467711E-02 0.98198258E-01
        1 -1    0    0  501    0 0.00000000E+00 0.00000000E+00 0.52398181E+03 0.52398191E+03 0.32000000E+00 0.0000E+00 0.9000E+01
       -1 -1    0    0    0  501 0.00000000E+00 0.00000000E+00 -.17920593E+03 0.17920622E+03 0.32000000E+00 0.0000E+00 0.9000E+01
       25  2    1    2    0    0 -.78892000E+02 -.16523217E+03 0.35277627E+03 0.49825867E+03 0.30047462E+03 0.0000E+00 0.0000E+00
       23  2    1    2    0    0 0.78892000E+02 0.16523217E+03 -.80003899E+01 0.20492945E+03 0.91686727E+02 0.0000E+00 0.0000E+00
       24  1    3    3    0    0 -.10302902E+03 0.28088575E+02 0.18820804E+03 0.23085369E+03 0.80419002E+02 0.0000E+00 0.9000E+01
      -13  1    4    4    0    0 0.73922476E+02 0.11646524E+03 -.43234237E+02 0.14456104E+03 0.10565837E+00 0.0000E+00 0.9000E+01
       13  1    4    4    0    0 0.49695240E+01 0.48766931E+02 0.35233847E+02 0.60368410E+02 0.10565837E+00 0.0000E+00 0.9000E+01
      -24  1    3    3    0    0 0.24137020E+02 -.19332074E+03 0.16456823E+03 0.26740498E+03 0.80419002E+02 0.0000E+00 0.9000E+01
#aMCatNLO 1  0  0  2  1 0.17618650D+03 0.00000000D+00  -5  7  0 0.00000000D+00 0.00000000D+00 0.00000000D+00 0.00000000D+00 0.00000000D+00
  <mgrwgt>
 0.3386340058D-03    7    2    0
 0.306432346394153D+03 0.000000000000000D+00 0.000000000000000D+00 0.306432346394153D+03
 0.306432346394153D+03 0.000000000000000D+00 0.000000000000000D+00 -.306432346394153D+03
 0.158997550447835D+03 -.103029019870421D+03 0.280885743554355D+02 0.860758859917276D+02
 0.190188542362021D+03 0.739225676939055D+02 0.116465326860967D+03 -.130931139422593D+03
 0.494439539605556D+02 0.496943267235580D+01 0.487668413511639D+02 0.646564047862837D+01
 0.214234646017894D+03 0.241370195041594D+02 -.193320742567566D+03 0.383896129522370D+02
 0.000000000000000D+00 -.000000000000000D+00 -.000000000000000D+00 -.000000000000000D+00
 0.351399657798594D+03 0.000000000000000D+00 0.000000000000000D+00 0.351399657798594D+03
 0.557214143774816D+03 0.000000000000000D+00 0.000000000000000D+00 -.557214143774816D+03
 0.138454024805367D+03 -.622351150283662D+02 0.376833297172602D+02 0.860758859917276D+02
 0.226244086249299D+03 0.131034092520211D+03 0.129897998020318D+03 -.130931139422593D+03
 0.560470208782904D+02 0.194369599853587D+02 0.521696140397857D+02 0.646564047862837D+01
 0.216941951089471D+03 0.832706013570912D+02 -.179412482160918D+03 0.383896129522370D+02
 0.270926718550983D+03 -.171506538834294D+03 -.403384596164457D+02 -.205814485976222D+03
0.763183969523D-05 0.000000000000D+00 0.000000000000D+00 0.159631795980D-05 0.000000000000D+00  7 1 -1 24 -13 13 -24 21 0 0.80612615D-01 0.27570173D-01 0.70600225D+05 0.70600225D+05 0.70600225D+05 0.11343445D+01  1  2  2  2  7  2       -1 0.436281469483D-03 0.100000000000D+01
-.413507898192D-06 0.000000000000D+00 -.293082739392D-07 0.159631795980D-05 0.000000000000D+00  7 1 -1 24 -13 13 -24 21 2 0.80612615D-01 0.27570173D-01 0.70600225D+05 0.70600225D+05 0.70600225D+05 0.11343445D+01  1  2  3  2  7  2       -1 -.304166445476D-04 0.100000000000D+01
0.479964171285D-06 0.000000000000D+00 0.000000000000D+00 0.159631795980D-05 0.000000000000D+00  7 1 -1 24 -13 13 -24 21 2 0.80612615D-01 0.27570173D-01 0.70600225D+05 0.70600225D+05 0.70600225D+05 0.11343445D+01  1  2 15  2  7  2       -1 0.353050078546D-04 0.100000000000D+01
0.173048514009D-05 0.000000000000D+00 0.000000000000D+00 0.159631795980D-05 0.000000000000D+00  7 1 -1 24 -13 13 -24 21 2 0.80612615D-01 0.50712177D-01 0.13628348D+06 0.13628348D+06 0.13628348D+06 0.11108536D+01  1  2 12  2  7  2       -1 0.424161642766D-04 0.100000000000D+01
-.544193057255D-05 0.000000000000D+00 -.239844443067D-05 0.159631795980D-05 0.000000000000D+00  7 1 -1 24 -13 13 -24 21 2 0.80612615D-01 0.56019186D-01 0.70600225D+05 0.70600225D+05 0.70600225D+05 0.11343445D+01  1  2  5  2  7  2       -1 -.117793203320D-03 0.100000000000D+01
0.115158801676D-06 0.000000000000D+00 0.000000000000D+00 0.159631795980D-05 0.000000000000D+00  7 1 21 24 -13 13 -24 1 2 0.80612615D-01 0.50712177D-01 0.13628348D+06 0.13628348D+06 0.13628348D+06 0.11108536D+01  1  2 12  4  7  2       -1 0.258263698190D-04 0.100000000000D+01
-.271622708858D-06 0.000000000000D+00 -.183895287099D-06 0.159631795980D-05 0.000000000000D+00  7 1 21 24 -13 13 -24 1 2 0.80612615D-01 0.56019186D-01 0.70600225D+05 0.70600225D+05 0.70600225D+05 0.11343445D+01  1  2  5  4  7  2       -1 -.529851577261D-04 0.100000000000D+01
  </mgrwgt>
  </event>
  <event>
  8     66 0.27727860E-05 0.40218289E+03 0.75467711E-02 0.89673616E-01
        1 -1    0    0  501    0 0.00000000E+00 0.00000000E+00 0.81222839E+03 0.81222845E+03 0.32000000E+00 0.0000E+00 0.9000E+01
       -1 -1    0    0    0  501 0.00000000E+00 0.00000000E+00 -.47805110E+03 0.47805121E+03 0.32000000E+00 0.0000E+00 0.9000E+01
       25  2    1    2    0    0 0.10046615E+03 0.33004172E+03 0.66294511E+03 0.80519033E+03 0.29969030E+03 0.0000E+00 0.0000E+00
       23  2    1    2    0    0 -.10046615E+03 -.33004172E+03 -.32876782E+03 0.48508933E+03 0.90567082E+02 0.0000E+00 0.0000E+00
       24  1    3    3    0    0 -.47305998E+02 0.18987567E+02 0.20973748E+03 0.23033760E+03 0.80419002E+02 0.0000E+00 0.9000E+01
      -13  1    4    4    0    0 -.27292297E+01 0.54401732E+01 -.13539715E+01 0.62360710E+01 0.10565837E+00 0.0000E+00 0.9000E+01
       13  1    4    4    0    0 -.97736922E+02 -.33548189E+03 -.32741385E+03 0.47885326E+03 0.10565837E+00 0.0000E+00 0.9000E+01
      -24  1    3    3    0    0 0.14777215E+03 0.31105415E+03 0.45320763E+03 0.57485273E+03 0.80419002E+02 0.0000E+00 0.9000E+01
#aMCatNLO 1  0  0  2  2 0.59227659D+03 0.00000000D+00  -5  7  0 0.00000000D+00 0.00000000D+00 0.00000000D+00 0.00000000D+00 0.00000000D+00
  <mgrwgt>
 0.1205490931D-02    3    2    0
 0.623126622215339D+03 0.000000000000000D+00 0.000000000000000D+00 0.623126622215339D+03
 0.623126622215339D+03 0.000000000000000D+00 0.000000000000000D+00 -.623126622215339D+03
 0.182234566702058D+03 -.473059977597940D+02 0.189875666693290D+02 0.155382869823686D+03
 0.681864931631742D+01 -.272910035754783D+01 0.544063721429719D+01 -.307334613080803D+01
 0.583565077395182D+03 -.977370515705195D+02 -.335482354687520D+03 -.467383416478230D+03
 0.473634951017120D+03 0.147772149687861D+03 0.311054150803894D+03 0.315073892785352D+03
 0.000000000000000D+00 -.000000000000000D+00 0.000000000000000D+00 0.000000000000000D+00
 0.114763809091316D+04 0.000000000000000D+00 0.000000000000000D+00 0.114763809091316D+04
 0.881512977581927D+03 0.000000000000000D+00 0.000000000000000D+00 -.881512977581927D+03
 0.177639476928845D+03 0.250054236943189D+02 -.178734540703878D+02 0.155382869823686D+03
 0.521970965814564D+01 -.310168331677357D+00 0.420757745996560D+01 -.307334613080803D+01
 0.677140271081397D+03 0.155583234781235D+03 -.464613329314100D+03 -.467383416478230D+03
 0.519833399289925D+03 0.347395072907228D+03 0.209295610244968D+03 0.315073892785352D+03
 0.649318211536770D+03 -.527673563051104D+03 0.268983595679555D+03 0.266125113331229D+03
0.231046090549D-03 0.000000000000D+00 0.000000000000D+00 0.102181356097D-04 0.000000000000D+00  7 1 -1 24 -13 13 -24 21 0 0.12495823D+00 0.73546337D-01 0.16175108D+06 0.16175108D+06 0.16175108D+06 0.11049762D+01  1  2  2  2  7  2       -1 0.118193501045D-02 0.100000000000D+01
-.984401460341D-05 0.000000000000D+00 -.887277823542D-06 0.102181356097D-04 0.000000000000D+00  7 1 -1 24 -13 13 -24 21 2 0.12495823D+00 0.73546337D-01 0.16175108D+06 0.16175108D+06 0.16175108D+06 0.11049762D+01  1  2  3  2  7  2       -1 -.614855547754D-04 0.100000000000D+01
0.136153854241D-04 0.000000000000D+00 0.000000000000D+00 0.102181356097D-04 0.000000000000D+00  7 1 -1 24 -13 13 -24 21 2 0.12495823D+00 0.73546337D-01 0.16175108D+06 0.16175108D+06 0.16175108D+06 0.11049762D+01  1  2 15  2  7  2       -1 0.850414754558D-04 0.100000000000D+01
  </mgrwgt>
  </event>
  <event>
  9     66 0.27727860E-05 0.25804676E+03 0.75467711E-02 0.97862908E-01
        1 -1    0    0  502    0 0.00000000E+00 0.00000000E+00 0.11391845E+04 0.11391846E+04 0.32000000E+00 0.0000E+00 0.9000E+01
       -1 -1    0    0    0  501 0.00000000E+00 0.00000000E+00 -.14900726E+03 0.14900761E+03 0.32000000E+00 0.0000E+00 0.9000E+01
       25  2    1    2    0    0 -.29658461E+02 0.10659897E+03 0.22776475E+03 0.39299755E+03 0.30054505E+03 0.0000E+00 0.0000E+00
       23  2    1    2    0    0 -.14219645E+03 -.21142686E+03 0.45728608E+03 0.52964614E+03 0.80581192E+02 0.0000E+00 0.0000E+00
       24  1    3    3    0    0 -.10074897E+03 0.13905816E+03 0.75958910E+02 0.20426576E+03 0.80419002E+02 0.0000E+00 0.9000E+01
      -11  1    4    4    0    0 -.11372541E+03 -.18419699E+03 0.43092753E+03 0.48224531E+03 0.51099893E-03 0.0000E+00 0.9000E+01
       11  1    4    4    0    0 -.28471039E+02 -.27229872E+02 0.26358549E+02 0.47400834E+02 0.51099893E-03 0.0000E+00 0.9000E+01
      -24  1    3    3    0    0 0.71090505E+02 -.32459194E+02 0.15180584E+03 0.18873179E+03 0.80419002E+02 0.0000E+00 0.9000E+01
       21  1    1    2  502  501 0.17185491E+03 0.10482789E+03 0.30512642E+03 0.36554848E+03 0.75000000E+00 0.0000E+00 0.9000E+01
#aMCatNLO 2  0  0  1  1 0.20130325D+03 0.00000000D+00  -5  7  0 0.00000000D+00 0.00000000D+00 0.00000000D+00 0.00000000D+00 0.00000000D+00
  <mgrwgt>
 0.1600164096D-03    1    2    0
 0.292170213547829D+03 0.000000000000000D+00 0.000000000000000D+00 0.292170213547829D+03
 0.292170213547829D+03 0.000000000000000D+00 0.000000000000000D+00 -.292170213547829D+03
 0.228790887455476D+03 -.364976762630240D+02 0.178250102223853D+03 -.113017144331642D+03
 0.189752527617387D+03 -.519770143889410D+02 -.146531761899959D+03 0.108778924736793D+03
 0.306838198105139D+02 -.181473483494352D+02 -.209326368517420D+02 -.131907263060617D+02
 0.135113192212281D+03 0.106622039001400D+03 -.107857034721516D+02 0.174289459009108D+02
 0.000000000000000D+00 0.000000000000000D+00 0.000000000000000D+00 0.000000000000000D+00
 0.437933681690694D+03 0.000000000000000D+00 0.000000000000000D+00 0.437933681690694D+03
 0.387607667967772D+03 0.000000000000000D+00 0.000000000000000D+00 -.387607667967772D+03
 0.220743330224599D+03 -.100748965446462D+03 0.139058163848313D+03 -.113017144331642D+03
 0.242270210273998D+03 -.113725412562792D+03 -.184196989271641D+03 0.108778924736793D+03
 0.415458929262886D+02 -.284710389121672D+02 -.272298714984678D+02 -.131907263060617D+02
 0.113483228822852D+03 0.710905045604261D+02 -.324591940105797D+02 0.174289459009108D+02
 0.207498687410728D+03 0.171854912360995D+03 0.104827890932376D+03 0.503260137229219D+02
0.579352997151D-05 0.000000000000D+00 0.000000000000D+00 0.111110467653D-07 0.201146310642D-11  7 1 -1 24 -11 11 -24 21 2 0.17525889D+00 0.22924186D-01 0.14399371D+06 0.14399371D+06 0.14399371D+06 0.11089552D+01  1  2  1  1  7  1        1 0.160016409599D-03 0.100000000000D+01
  </mgrwgt>
  </event>
  <event>
  8     66 0.27727860E-05 0.43164926E+03 0.75467711E-02 0.84405660E-01
        1 -1    0    0  501    0 0.00000000E+00 0.00000000E+00 0.94558057E+03 0.94558062E+03 0.32000000E+00 0.0000E+00 0.9000E+01
       -1 -1    0    0    0  501 0.00000000E+00 0.00000000E+00 -.23000533E+03 0.23000555E+03 0.32000000E+00 0.0000E+00 0.9000E+01
       25  2    1    2    0    0 0.27753379E+03 -.27575070E+03 0.22873318E+03 0.54415093E+03 0.30119414E+03 0.0000E+00 0.0000E+00
       23  2    1    2    0    0 -.27753379E+03 0.27575070E+03 0.48684206E+03 0.63143525E+03 0.92907601E+02 0.0000E+00 0.0000E+00
       24  1    3    3    0    0 0.27674999E+02 -.63275878E+01 -.26826330E+02 0.89402527E+02 0.80419002E+02 0.0000E+00 0.9000E+01
      -13  1    4    4    0    0 0.62739879E+01 0.16576816E+00 0.10638001E+02 0.12351868E+02 0.10565837E+00 0.0000E+00 0.9000E+01
       13  1    4    4    0    0 -.28380778E+03 0.27558493E+03 0.47620406E+03 0.61908338E+03 0.10565837E+00 0.0000E+00 0.9000E+01
      -24  1    3    3    0    0 0.24985879E+03 -.26942311E+03 0.25555951E+03 0.45474840E+03 0.80419002E+02 0.0000E+00 0.9000E+01
#aMCatNLO 1  0  0  1  1 0.12430897D+04 0.00000000D+00  -5  7  0 0.00000000D+00 0.00000000D+00 0.00000000D+00 0.00000000D+00 0.00000000D+00
  <mgrwgt>
 0.1595919931D-02    3    2    0
 0.466356873929154D+03 0.000000000000000D+00 0.000000000000000D+00 0.466356873929154D+03
 0.466356873929154D+03 0.000000000000000D+00 0.000000000000000D+00 -.466356873929154D+03
 0.133263429844216D+03 0.276749992818746D+02 -.632758819568650D+01 -.102401083108763D+03
 0.740624117576649D+01 0.627436300385806D+01 0.165411992673636D+00 0.393159205947360D+01
 0.414946730659782D+03 -.283808154583003D+03 0.275585290998965D+03 0.125245630911610D+03
 0.377097346178544D+03 0.249858792297270D+03 -.269423114795953D+03 -.267761398623202D+02
 0.000000000000000D+00 0.000000000000000D+00 0.000000000000000D+00 -.000000000000000D+00
 0.878685278765887D+03 0.000000000000000D+00 0.000000000000000D+00 0.878685278765887D+03
 0.457807431166359D+04 0.000000000000000D+00 0.000000000000000D+00 -.457807431166359D+04
 0.221063080484169D+03 -.162714063756517D+02 -.177907079992590D+03 -.102401083108763D+03
 0.100519776260396D+02 0.410905517856729D+01 -.828857669396705D+01 0.393159205947360D+01
 0.429435393321199D+03 -.388535174065799D+03 -.133299315407638D+03 0.125245630911610D+03
 0.893549620726002D+03 0.922630002033043D+02 -.884722716941737D+03 -.267761398623202D+02
 0.390265951827207D+04 0.308434525059579D+03 0.120421768903593D+04 -.369938903289771D+04
0.105144150212D-03 0.000000000000D+00 0.000000000000D+00 0.478001813508D-06 0.000000000000D+00  7 1 -1 24 -13 13 -24 21 0 0.14547396D+00 0.35385457D-01 0.18632108D+06 0.18632108D+06 0.18632108D+06 0.11001963D+01  1  2  2  1  7  1        1 0.158538968455D-02 0.100000000000D+01
-.579886232333D-05 0.000000000000D+00 -.403781221906D-06 0.478001813508D-06 0.000000000000D+00  7 1 -1 24 -13 13 -24 21 2 0.14547396D+00 0.35385457D-01 0.18632108D+06 0.18632108D+06 0.18632108D+06 0.11001963D+01  1  2  3  1  7  1        1 -.105836157701D-03 0.100000000000D+01
0.637582440788D-05 0.000000000000D+00 0.000000000000D+00 0.478001813508D-06 0.000000000000D+00  7 1 -1 24 -13 13 -24 21 2 0.14547396D+00 0.35385457D-01 0.18632108D+06 0.18632108D+06 0.18632108D+06 0.11001963D+01  1  2 15  1  7  1        1 0.116366404284D-03 0.100000000000D+01
  </mgrwgt>
  </event>
  <event>
  8     66 0.27727860E-05 0.11083753E+03 0.75467711E-02 0.10061632E+00
        1 -1    0    0  501    0 0.00000000E+00 0.00000000E+00 0.36582507E+03 0.36582521E+03 0.32000000E+00 0.0000E+00 0.9000E+01
       -1 -1    0    0    0  501 0.00000000E+00 0.00000000E+00 -.14035062E+03 0.14035099E+03 0.32000000E+00 0.0000E+00 0.9000E+01
       25  2    1    2    0    0 0.88598700E+01 0.42077314E+02 0.25740278E+03 0.39734050E+03 0.29962358E+03 0.0000E+00 0.0000E+00
       23  2    1    2    0    0 -.88598700E+01 -.42077314E+02 -.31928329E+02 0.10883570E+03 0.94745941E+02 0.0000E+00 0.0000E+00
       24  1    3    3    0    0 0.79868525E+02 -.79712807E+02 0.96952580E+02 0.16911573E+03 0.80419002E+02 0.0000E+00 0.9000E+01
      -11  1    4    4    0    0 -.14019843E+02 -.70485674E+02 -.99558373E+01 0.72552774E+02 0.51099893E-03 0.0000E+00 0.9000E+01
       11  1    4    4    0    0 0.51599728E+01 0.28408360E+02 -.21972491E+02 0.36282925E+02 0.51099893E-03 0.0000E+00 0.9000E+01
      -24  1    3    3    0    0 -.71008655E+02 0.12179012E+03 0.16045020E+03 0.22822477E+03 0.80419002E+02 0.0000E+00 0.9000E+01
#aMCatNLO 1  0  0  1  2 0.17163831D+03 0.00000000D+00  -5  7  0 0.00000000D+00 0.00000000D+00 0.00000000D+00 0.00000000D+00 0.00000000D+00
  <mgrwgt>
 0.3470261293D-03    7    2    0
 0.226591934117025D+03 0.000000000000000D+00 0.000000000000000D+00 0.226591934117025D+03
 0.226591934117025D+03 0.000000000000000D+00 0.000000000000000D+00 -.226591934117025D+03
 0.140653793488399D+03 0.798685248258978D+02 -.797128066472093D+02 0.241487239179661D+02
 0.859899855037266D+02 -.140198426638038D+02 -.704856734551353D+02 -.472174909984565D+02
 0.514576745290934D+02 0.515997245412745D+01 0.284083584203950D+02 -.425938038225413D+02
 0.175082414712832D+03 -.710086546162214D+02 0.121790121681950D+03 0.656625709030317D+02
 0.000000000000000D+00 0.000000000000000D+00 -.000000000000000D+00 0.000000000000000D+00
 0.394007400180680D+03 0.000000000000000D+00 0.000000000000000D+00 0.394007400180680D+03
 0.290845676095535D+03 0.000000000000000D+00 0.000000000000000D+00 -.290845676095535D+03
 0.116701905118883D+03 0.740391318561127D+02 -.329721820802528D+02 0.241487239179661D+02
 0.661174361780528D+02 -.174652450364825D+02 -.428601111336076D+02 -.472174909984565D+02
 0.654594403758637D+02 0.251166969120886D+01 0.496427006276893D+02 -.425938038225413D+02
 0.236319328629509D+03 -.803273619282237D+02 0.196508398898336D+03 0.656625709030317D+02
 0.200254965973906D+03 0.212418054173847D+02 -.170318806312165D+03 0.103161724085145D+03
0.295047884507D-05 0.000000000000D+00 0.000000000000D+00 0.550611777785D-07 0.000000000000D+00  7 1 -1 24 -11 11 -24 21 0 0.56280819D-01 0.21592442D-01 0.40322230D+05 0.40322230D+05 0.40322230D+05 0.11556049D+01  1  2  2  1  7  1        1 0.406149348193D-03 0.100000000000D+01
-.161006174440D-06 0.000000000000D+00 -.113306156440D-07 0.550611777785D-07 0.000000000000D+00  7 1 -1 24 -11 11 -24 21 2 0.56280819D-01 0.21592442D-01 0.40322230D+05 0.40322230D+05 0.40322230D+05 0.11556049D+01  1  2  3  1  7  1        1 -.295974638497D-04 0.100000000000D+01
0.183447324200D-06 0.000000000000D+00 0.000000000000D+00 0.550611777785D-07 0.000000000000D+00  7 1 -1 24 -11 11 -24 21 2 0.56280819D-01 0.21592442D-01 0.40322230D+05 0.40322230D+05 0.40322230D+05 0.11556049D+01  1  2 15  1  7  1        1 0.337227784289D-04 0.100000000000D+01
0.534542814192D-07 0.000000000000D+00 0.000000000000D+00 0.550611777785D-07 0.000000000000D+00  7 1 -1 24 -11 11 -24 21 2 0.10101717D+00 0.21592442D-01 0.92664337D+05 0.92664337D+05 0.92664337D+05 0.11244474D+01  1  2 12  1  7  1        1 0.416128788638D-05 0.100000000000D+01
-.100060027664D-05 0.000000000000D+00 -.961870033920D-06 0.550611777785D-07 0.000000000000D+00  7 1 -1 24 -11 11 -24 21 2 0.11840443D+00 0.21592442D-01 0.40322230D+05 0.40322230D+05 0.40322230D+05 0.11556049D+01  1  2  5  1  7  1        1 -.653345978705D-04 0.100000000000D+01
0.343145695768D-08 0.000000000000D+00 0.000000000000D+00 0.550611777785D-07 0.000000000000D+00  7 21 -1 24 -11 11 -24 -1 2 0.10101717D+00 0.21592442D-01 0.92664337D+05 0.92664337D+05 0.92664337D+05 0.11244474D+01  1  2 12  3  7  1        1 0.607782516270D-06 0.100000000000D+01
-.208656046474D-07 0.000000000000D+00 -.773739809468D-07 0.550611777785D-07 0.000000000000D+00  7 21 -1 24 -11 11 -24 -1 2 0.11840443D+00 0.21592442D-01 0.40322230D+05 0.40322230D+05 0.40322230D+05 0.11556049D+01  1  2  5  3  7  1        1 -.268300601064D-05 0.100000000000D+01
  </mgrwgt>
  </event>
  <event>
  8     66 0.27727860E-05 0.30826456E+03 0.75467711E-02 0.98674283E-01
        1 -1    0    0  501    0 0.00000000E+00 0.00000000E+00 0.92873887E+03 0.92873893E+03 0.32000000E+00 0.0000E+00 0.9000E+01
       -1 -1    0    0    0  501 0.00000000E+00 0.00000000E+00 -.17138875E+03 0.17138905E+03 0.32000000E+00 0.0000E+00 0.9000E+01
       25  2    1    2    0    0 -.27774268E+03 -.40007478E+02 0.17696769E+03 0.44808128E+03 0.30119376E+03 0.0000E+00 0.0000E+00
       23  2    1    2    0    0 0.27774268E+03 0.40007478E+02 0.58038244E+03 0.65204669E+03 0.97875057E+02 0.0000E+00 0.0000E+00
       24  1    3    3    0    0 -.14457581E+03 -.65043271E+02 -.37773987E+02 0.18173300E+03 0.80419002E+02 0.0000E+00 0.9000E+01
      -13  1    4    4    0    0 0.22418744E+03 0.24982864E+02 0.36066511E+03 0.42539803E+03 0.10565837E+00 0.0000E+00 0.9000E+01
       13  1    4    4    0    0 0.53555236E+02 0.15024613E+02 0.21971732E+03 0.22664866E+03 0.10565837E+00 0.0000E+00 0.9000E+01
      -24  1    3    3    0    0 -.13316686E+03 0.25035793E+02 0.21474168E+03 0.26634828E+03 0.80419002E+02 0.0000E+00 0.9000E+01
#aMCatNLO 1  0  0  2  2 0.89324979D+02 0.00000000D+00  -5  7  0 0.00000000D+00 0.00000000D+00 0.00000000D+00 0.00000000D+00 0.00000000D+00
  <mgrwgt>
 0.6909634354D-03    4    2    0
 0.398968154450170D+03 0.000000000000000D+00 0.000000000000000D+00 0.398968154450170D+03
 0.398968154450170D+03 0.000000000000000D+00 0.000000000000000D+00 -.398968154450170D+03
 0.286410945412788D+03 -.144575816298850D+03 -.650432708115061D+02 -.224568964822699D+03
 0.244183197949158D+03 0.224187636277218D+03 0.249828766163231D+02 0.934943515785040D+02
 0.103942455564885D+03 0.535550422355371D+02 0.150246013323586D+02 0.878074761897395D+02
 0.163399709973509D+03 -.133166862213905D+03 0.250357928628243D+02 0.432671370544551D+02
 0.000000000000000D+00 0.000000000000000D+00 -.000000000000000D+00 0.000000000000000D+00
 0.497761412109451D+03 0.000000000000000D+00 0.000000000000000D+00 0.497761412109451D+03
 0.422173780487690D+03 0.000000000000000D+00 0.000000000000000D+00 -.422173780487690D+03
 0.282901591159421D+03 -.148365724394037D+03 -.335035250332804D+02 -.224568964822699D+03
 0.245491028615506D+03 0.220927879647871D+03 0.521106836254349D+02 0.934943515785040D+02
 0.105546373140980D+03 0.521604771122326D+02 0.266302203488358D+02 0.878074761897395D+02
 0.168981491849686D+03 -.135379520686283D+03 0.434496129239167D+02 0.432671370544551D+02
 0.117014707831548D+03 0.106568883202174D+02 -.886869918649069D+02 0.755876316217604D+02
0.337707483318D-04 0.000000000000D+00 0.000000000000D+00 0.267369414770D-07 0.000000000000D+00  7 1 -1 24 -13 13 -24 21 0 0.14288293D+00 0.26367527D-01 0.95027042D+05 0.95027042D+05 0.95027042D+05 0.11235445D+01  1  2  2  2  7  2       -1 0.873720607519D-03 0.100000000000D+01
-.172440204682D-05 0.000000000000D+00 -.129688565636D-06 0.267369414770D-07 0.000000000000D+00  7 1 -1 24 -13 13 -24 21 2 0.14288293D+00 0.26367527D-01 0.95027042D+05 0.95027042D+05 0.95027042D+05 0.11235445D+01  1  2  3  2  7  2       -1 -.563184853631D-04 0.100000000000D+01
0.206885882918D-05 0.000000000000D+00 0.000000000000D+00 0.267369414770D-07 0.000000000000D+00  7 1 -1 24 -13 13 -24 21 2 0.14288293D+00 0.26367527D-01 0.95027042D+05 0.95027042D+05 0.95027042D+05 0.11235445D+01  1  2 15  2  7  2       -1 0.675683468968D-04 0.100000000000D+01
-.594025432061D-05 0.000000000000D+00 0.000000000000D+00 0.267369414770D-07 0.000000000000D+00  7 1 -1 24 -13 13 -24 21 2 0.14288293D+00 0.26367527D-01 0.95027042D+05 0.95027042D+05 0.95027042D+05 0.11235445D+01  1  2  4  2  7  2       -1 -.194007033699D-03 0.100000000000D+01
  </mgrwgt>
  </event>
  <event>
  8     66 0.27727860E-05 0.46364504E+03 0.75467711E-02 0.87447008E-01
        1 -1    0    0  501    0 0.00000000E+00 0.00000000E+00 0.29726749E+04 0.29726749E+04 0.32000000E+00 0.0000E+00 0.9000E+01
       -1 -1    0    0    0  501 0.00000000E+00 0.00000000E+00 -.16942546E+03 0.16942576E+03 0.32000000E+00 0.0000E+00 0.9000E+01
       25  2    1    2    0    0 0.42706346E+03 0.65744540E+02 0.30892410E+03 0.60893347E+03 0.29775885E+03 0.0000E+00 0.0000E+00
       23  2    1    2    0    0 -.42706346E+03 -.65744540E+02 0.24943254E+04 0.25331672E+04 0.92583061E+02 0.0000E+00 0.0000E+00
       24  1    3    3    0    0 0.78741605E+02 0.64254446E+02 -.98333396E+01 0.12997225E+03 0.80419002E+02 0.0000E+00 0.9000E+01
      -13  1    4    4    0    0 -.35365573E+03 -.86177433E+02 0.21405075E+04 0.21712373E+04 0.10565837E+00 0.0000E+00 0.9000E+01
       13  1    4    4    0    0 -.73407737E+02 0.20432893E+02 0.35381786E+03 0.36192995E+03 0.10565837E+00 0.0000E+00 0.9000E+01
      -24  1    3    3    0    0 0.34832186E+03 0.14900941E+01 0.31875744E+03 0.47896123E+03 0.80419002E+02 0.0000E+00 0.9000E+01
#aMCatNLO 1  0  0  1  2 0.78601407D+03 0.00000000D+00  -5  7  0 0.00000000D+00 0.00000000D+00 0.00000000D+00 0.00000000D+00 0.00000000D+00
  <mgrwgt>
 0.1140093555D-02    5    2    0
 0.709681134416892D+03 0.000000000000000D+00 0.000000000000000D+00 0.709681134416892D+03
 0.709681134416892D+03 0.000000000000000D+00 0.000000000000000D+00 -.709681134416892D+03
 0.307145819723177D+03 0.787416050590367D+02 0.642544456922913D+02 -.278464476119585D+03
 0.579042116424504D+03 -.353656092011535D+03 -.861775713660930D+02 0.450322736900925D+03
 0.102426098354569D+03 -.734073717636148D+02 0.204330315335106D+02 0.684467283166172D+02
 0.430748234331535D+03 0.348321858716113D+03 0.149009414029111D+01 -.240304989097957D+03
 0.000000000000000D+00 0.000000000000000D+00 0.000000000000000D+00 0.000000000000000D+00
 0.146138855901962D+04 0.000000000000000D+00 0.000000000000000D+00 0.146138855901962D+04
 0.104880090649607D+04 0.000000000000000D+00 0.000000000000000D+00 -.104880090649607D+04
 0.303926903397606D+03 0.306614441506261D+02 -.861496258641337D+02 -.278464476119585D+03
 0.766993140094274D+03 -.459564258540881D+03 -.417478863960208D+03 0.450322736900925D+03
 0.118683059133581D+03 -.908045872964247D+02 -.339888339603208D+02 0.684467283166172D+02
 0.432866424846373D+03 0.280371301924645D+03 -.211072430877697D+03 -.240304989097957D+03
 0.887719938043852D+03 0.239336099762035D+03 0.748689754662360D+03 0.412587652523550D+03
0.111786739317D-02 0.000000000000D+00 0.000000000000D+00 0.370348016743D-06 0.000000000000D+00  7 1 -1 24 -13 13 -24 21 0 0.45733463D+00 0.26065480D-01 0.21496672D+06 0.21496672D+06 0.21496672D+06 0.10954264D+01  1  2  2  1  7  1        1 0.111956261601D-02 0.100000000000D+01
-.484201726454D-04 0.000000000000D+00 -.429290513103D-05 0.370348016743D-06 0.000000000000D+00  7 1 -1 24 -13 13 -24 21 2 0.45733463D+00 0.26065480D-01 0.21496672D+06 0.21496672D+06 0.21496672D+06 0.10954264D+01  1  2  3  1  7  1        1 -.581903302537D-04 0.100000000000D+01
0.655054732705D-04 0.000000000000D+00 0.000000000000D+00 0.370348016743D-06 0.000000000000D+00  7 1 -1 24 -13 13 -24 21 2 0.45733463D+00 0.26065480D-01 0.21496672D+06 0.21496672D+06 0.21496672D+06 0.10954264D+01  1  2 15  1  7  1        1 0.787230799640D-04 0.100000000000D+01
-.623651100805D-04 0.000000000000D+00 -.210239544892D-03 0.370348016743D-06 0.000000000000D+00  7 1 -1 24 -13 13 -24 21 2 0.95134775D+00 0.26065480D-01 0.21496672D+06 0.21496672D+06 0.21496672D+06 0.10954264D+01  1  2  5  1  7  1        1 -.181241889339D-08 0.100000000000D+01
0.801567139780D-05 0.000000000000D+00 -.166520824435D-04 0.370348016743D-06 0.000000000000D+00  7 21 -1 24 -13 13 -24 -1 2 0.95134775D+00 0.26065480D-01 0.21496672D+06 0.21496672D+06 0.21496672D+06 0.10954264D+01  1  2  5  3  7  1        1 0.209581104041D-11 0.100000000000D+01
  </mgrwgt>
  </event>
  <event>
  8     66 0.27727860E-05 0.20711052E+03 0.75467711E-02 0.97336211E-01
        1 -1    0    0  501    0 0.00000000E+00 0.00000000E+00 0.30839098E+03 0.30839115E+03 0.32000000E+00 0.0000E+00 0.9000E+01
       -1 -1    0    0    0  501 0.00000000E+00 0.00000000E+00 -.20326728E+03 0.20326753E+03 0.32000000E+00 0.0000E+00 0.9000E+01
       25  2    1    2    0    0 0.13489060E+03 0.30504151E+02 0.33241388E+02 0.33116616E+03 0.29906532E+03 0.0000E+00 0.0000E+00
       23  2    1    2    0    0 -.13489060E+03 -.30504151E+02 0.71882318E+02 0.18049251E+03 0.91019244E+02 0.0000E+00 0.0000E+00
       24  1    3    3    0    0 0.22009343E-01 0.57779737E+02 -.86767364E+02 0.13165975E+03 0.80419002E+02 0.0000E+00 0.9000E+01
      -11  1    4    4    0    0 -.60890223E+02 -.50566892E+02 0.59537001E+01 0.79373020E+02 0.51099893E-03 0.0000E+00 0.9000E+01
       11  1    4    4    0    0 -.74000373E+02 0.20062740E+02 0.65928618E+02 0.10111949E+03 0.51099893E-03 0.0000E+00 0.9000E+01
      -24  1    3    3    0    0 0.13486859E+03 -.27275585E+02 0.12000875E+03 0.19950641E+03 0.80419002E+02 0.0000E+00 0.9000E+01
#aMCatNLO 1  0  0  2  2 0.29476518D+03 0.00000000D+00  -5  7  0 0.00000000D+00 0.00000000D+00 0.00000000D+00 0.00000000D+00 0.00000000D+00
  <mgrwgt>
 0.4380193146D-03    5    2    0
 0.250371527464588D+03 0.000000000000000D+00 0.000000000000000D+00 0.250371527464588D+03
 0.250371527464588D+03 0.000000000000000D+00 0.000000000000000D+00 -.250371527464588D+03
 0.152745324323013D+03 0.220093522793974D-01 0.577797369055075D+02 -.116298837771022D+03
 0.798533678441402D+02 -.608902229223588D+02 -.505668916526510D+02 -.105797248123982D+02
 0.894830265642606D+02 -.740003727745648D+02 0.200627402296305D+02 0.461372227903238D+02
 0.178661336197763D+03 0.134868586344644D+03 -.272755854824871D+02 0.807413397930964D+02
 0.000000000000000D+00 0.000000000000000D+00 0.000000000000000D+00 -.000000000000000D+00
 0.358216673897662D+03 0.000000000000000D+00 0.000000000000000D+00 0.358216673897662D+03
 0.611442886713629D+03 0.000000000000000D+00 0.000000000000000D+00 -.611442886713629D+03
 0.158293344737847D+03 -.703713393762400D+02 0.105840427733418D+02 -.116298837771022D+03
 0.139009000892723D+03 -.110422504849109D+03 -.837761432326375D+02 -.105797248123982D+02
 0.133440164090358D+03 -.124451687869262D+03 -.137626833193727D+02 0.461372227903238D+02
 0.150316967987504D+03 0.604151926217590D+02 -.771933640896494D+02 0.807413397930964D+02
 0.388600082902860D+03 0.244830339472853D+03 0.164148147868318D+03 -.253226212815968D+03
0.448800900381D-05 0.000000000000D+00 0.000000000000D+00 0.211495031044D-06 0.000000000000D+00  7 1 -1 24 -11 11 -24 21 0 0.47444799D-01 0.31271921D-01 0.42894769D+05 0.42894769D+05 0.42894769D+05 0.11531969D+01  1  2  2  2  7  2       -1 0.422984407739D-03 0.100000000000D+01
-.238425286354D-06 0.000000000000D+00 -.172351362945D-07 0.211495031044D-06 0.000000000000D+00  7 1 -1 24 -11 11 -24 21 2 0.47444799D-01 0.31271921D-01 0.42894769D+05 0.42894769D+05 0.42894769D+05 0.11531969D+01  1  2  3  2  7  2       -1 -.298833919101D-04 0.100000000000D+01
0.285674271262D-06 0.000000000000D+00 0.000000000000D+00 0.211495031044D-06 0.000000000000D+00  7 1 -1 24 -11 11 -24 21 2 0.47444799D-01 0.31271921D-01 0.42894769D+05 0.42894769D+05 0.42894769D+05 0.11531969D+01  1  2 15  2  7  2       -1 0.358054145065D-04 0.100000000000D+01
0.105825373549D-06 0.000000000000D+00 -.145468436125D-05 0.211495031044D-06 0.000000000000D+00  7 1 -1 24 -11 11 -24 21 2 0.47444799D-01 0.10197926D+00 0.42894769D+05 0.42894769D+05 0.42894769D+05 0.11531969D+01  1  2  5  2  7  2       -1 0.148359967758D-05 0.100000000000D+01
0.741506015642D-07 0.000000000000D+00 -.198707769720D-06 0.211495031044D-06 0.000000000000D+00  7 1 21 24 -11 11 -24 1 2 0.47444799D-01 0.10197926D+00 0.42894769D+05 0.42894769D+05 0.42894769D+05 0.11531969D+01  1  2  5  4  7  2       -1 0.762928455056D-05 0.100000000000D+01
  </mgrwgt>
  </event>
  <event>
  7     66 0.27727860E-05 0.12911388E+03 0.75467711E-02 0.10262540E+00
        1 -1    0    0  501    0 0.00000000E+00 0.00000000E+00 0.24662131E+04 0.24662132E+04 0.32000000E+00 0.0000E+00 0.9000E+01
       -1 -1    0    0    0  501 0.00000000E+00 0.00000000E+00 -.52414219E+02 0.52415196E+02 0.32000000E+00 0.0000E+00 0.9000E+01
       23  2    1    2    0    0 -.81609092E+02 0.16736783E+03 0.22332646E+03 0.30485886E+03 0.91608841E+02 0.0000E+00 0.0000E+00
       24  1    1    2    0    0 -.32467524E+02 -.69958986E+02 0.14369503E+04 0.14412640E+04 0.80419002E+02 0.0000E+00 0.9000E+01
      -13  1    3    3    0    0 -.37196540E+02 0.14275453E+03 0.12165486E+03 0.19121285E+03 0.10565837E+00 0.0000E+00 0.9000E+01
       13  1    3    3    0    0 -.44412552E+02 0.24613303E+02 0.10167160E+03 0.11364600E+03 0.10565837E+00 0.0000E+00 0.9000E+01
      -24  1    1    2    0    0 0.11407662E+03 -.97408847E+02 0.75352215E+03 0.77250554E+03 0.80419002E+02 0.0000E+00 0.9000E+01
#aMCatNLO 1  0  0  2  1 0.41065310D+02 0.00000000D+00  -5  7  0 0.00000000D+00 0.00000000D+00 0.00000000D+00 0.00000000D+00 0.00000000D+00
  <mgrwgt>
 0.1724154906D-02    9    2    0
 0.359535661868116D+03 0.000000000000000D+00 0.000000000000000D+00 0.359535661868116D+03
 0.359535661868116D+03 0.000000000000000D+00 0.000000000000000D+00 -.359535661868116D+03
 0.224594100237371D+03 -.324675242965337D+02 -.699589855787573D+02 0.195004856631595D+03
 0.261370361379040D+03 -.371965303046189D+02 0.142754687107735D+03 -.215759086134235D+03
 0.567635787182677D+02 -.444125612930664D+02 0.246131456803575D+02 -.253736345053699D+02
 0.176343283401554D+03 0.114076615894219D+03 -.974088472093349D+02 0.461278640080103D+02
 0.000000000000000D+00 -.000000000000000D+00 -.000000000000000D+00 -.000000000000000D+00
 0.363210309799097D+03 0.000000000000000D+00 0.000000000000000D+00 0.363210309799097D+03
 0.496610144218589D+03 0.000000000000000D+00 0.000000000000000D+00 -.496610144218589D+03
 0.220591859468886D+03 -.256870027732244D+02 -.592185468260552D+02 0.195004856631595D+03
 0.267555982479112D+03 -.291405788969378D+02 0.155515424226775D+03 -.215759086134235D+03
 0.566906797376266D+02 -.426845664527105D+02 0.273503131215382D+02 -.253736345053699D+02
 0.175404443084747D+03 0.119434001899360D+03 -.889226745653884D+02 0.461278640080103D+02
 0.139577489247315D+03 -.219218537764871D+02 -.347245159568694D+02 -.133399834419492D+03
0.110589900556D-03 0.000000000000D+00 0.000000000000D+00 0.577756770100D-09 0.000000000000D+00  7 1 -1 24 -13 13 -24 21 0 0.37941748D+00 0.80638028D-02 0.57582392D+05 0.57582392D+05 0.57582392D+05 0.11419405D+01  1  2  2  2  7  2       -1 0.170780766731D-02 0.100000000000D+01
-.492267259939D-05 0.000000000000D+00 -.424694337123D-06 0.577756770100D-09 0.000000000000D+00  7 1 -1 24 -13 13 -24 21 2 0.37941748D+00 0.80638028D-02 0.57582392D+05 0.57582392D+05 0.57582392D+05 0.11419405D+01  1  2  3  2  7  2       -1 -.991314323383D-04 0.100000000000D+01
0.681721014125D-05 0.000000000000D+00 0.000000000000D+00 0.577756770100D-09 0.000000000000D+00  7 1 -1 24 -13 13 -24 21 2 0.37941748D+00 0.80638028D-02 0.57582392D+05 0.57582392D+05 0.57582392D+05 0.11419405D+01  1  2 15  2  7  2       -1 0.137283110385D-03 0.100000000000D+01
0.889210010989D-03 0.000000000000D+00 0.000000000000D+00 0.577756770100D-09 0.000000000000D+00  7 1 -1 24 -13 13 -24 21 2 0.37941748D+00 0.11167683D-01 0.68208140D+05 0.68208140D+05 0.68208140D+05 0.11356182D+01  1  2 12  2  7  2       -1 0.107145393663D-01 0.100000000000D+01
-.862520272321D-03 0.000000000000D+00 0.000000000000D+00 0.577756770100D-09 0.000000000000D+00  7 1 -1 24 -13 13 -24 21 2 0.37941748D+00 0.80638028D-02 0.57582392D+05 0.57582392D+05 0.57582392D+05 0.11419405D+01  1  2  4  2  7  2       -1 -.173691969737D-01 0.100000000000D+01
-.922169934889D-03 0.000000000000D+00 -.533032108026D-04 0.577756770100D-09 0.000000000000D+00  7 1 -1 24 -13 13 -24 21 2 0.37941748D+00 0.11239218D-01 0.57582392D+05 0.57582392D+05 0.57582392D+05 0.11419405D+01  1  2  5  2  7  2       -1 -.112037561088D-01 0.100000000000D+01
0.893000751642D-03 0.000000000000D+00 0.504943028095D-04 0.577756770100D-09 0.000000000000D+00  7 1 -1 24 -13 13 -24 21 2 0.37941748D+00 0.80638028D-02 0.57582392D+05 0.57582392D+05 0.57582392D+05 0.11419405D+01  1  2  6  2  7  2       -1 0.179830045168D-01 0.100000000000D+01
0.364666621345D-04 0.000000000000D+00 0.000000000000D+00 0.577756770100D-09 0.000000000000D+00  7 1 21 24 -13 13 -24 1 2 0.37941748D+00 0.11167683D-01 0.68208140D+05 0.68208140D+05 0.68208140D+05 0.11356182D+01  1  2 12  4  7  2       -1 0.607602061469D-02 0.100000000000D+01
-.369563566163D-04 0.000000000000D+00 -.221676338883D-05 0.577756770100D-09 0.000000000000D+00  7 1 21 24 -13 13 -24 1 2 0.37941748D+00 0.11239218D-01 0.57582392D+05 0.57582392D+05 0.57582392D+05 0.11419405D+01  1  2  5  4  7  2       -1 -.622241585449D-02 0.100000000000D+01
  </mgrwgt>
  </event>
  <event>
  8     66 0.27727860E-05 0.17047882E+03 0.75467711E-02 0.10262673E+00
        1 -1    0    0  501    0 0.00000000E+00 0.00000000E+00 0.45410345E+03 0.45410356E+03 0.32000000E+00 0.0000E+00 0.9000E+01
       -1 -1    0    0    0  501 0.00000000E+00 0.00000000E+00 -.20466569E+03 0.20466594E+03 0.32000000E+00 0.0000E+00 0.9000E+01
       25  2    1    2    0    0 -.32245374E+02 0.15656392E+03 -.11294778E+02 0.33981787E+03 0.29966078E+03 0.0000E+00 0.0000E+00
       23  2    1    2    0    0 0.32245374E+02 -.15656392E+03 0.26073254E+03 0.31895163E+03 0.90535420E+02 0.0000E+00 0.0000E+00
       24  1    3    3    0    0 0.13598728E+02 0.20583938E+03 -.51821696E+02 0.22739278E+03 0.80419002E+02 0.0000E+00 0.9000E+01
      -13  1    4    4    0    0 0.29773787E+02 -.13173843E+03 0.13571181E+03 0.19146592E+03 0.10565837E+00 0.0000E+00 0.9000E+01
       13  1    4    4    0    0 0.24715875E+01 -.24825495E+02 0.12502073E+03 0.12748571E+03 0.10565837E+00 0.0000E+00 0.9000E+01
      -24  1    3    3    0    0 -.45844102E+02 -.49275455E+02 0.40526918E+02 0.11242508E+03 0.80419002E+02 0.0000E+00 0.9000E+01
#aMCatNLO 1  0  0  2  1 0.35915234D+02 0.00000000D+00  -5  7  0 0.00000000D+00 0.00000000D+00 0.00000000D+00 0.00000000D+00 0.00000000D+00
  <mgrwgt>
 0.5307935890D-03    9    2    0
 0.304859827484900D+03 0.000000000000000D+00 0.000000000000000D+00 0.304859827484900D+03
 0.304859827484900D+03 0.000000000000000D+00 0.000000000000000D+00 -.304859827484900D+03
 0.266886129227904D+03 0.135987280606438D+02 0.205839376709997D+03 -.149017501021376D+03
 0.151348755744451D+03 0.297738239418578D+02 -.131738571272040D+03 0.683001765186165D+02
 0.865951352600993D+02 0.247155049737022D+01 -.248253503937304D+02 0.829235242056340D+02
 0.104889634737346D+03 -.458441024998718D+02 -.492754550442261D+02 -.220619970287482D+01
 0.000000000000000D+00 -.000000000000000D+00 -.000000000000000D+00 -.000000000000000D+00
 0.316200550170513D+03 0.000000000000000D+00 0.000000000000000D+00 0.316200550170513D+03
 0.335213216778465D+03 0.000000000000000D+00 0.000000000000000D+00 -.335213216778465D+03
 0.277291226725068D+03 0.236485107383281D+02 0.218306529434018D+03 -.149017501021376D+03
 0.146670251786050D+03 0.352775925693777D+02 -.124910928701288D+03 0.683001765186165D+02
 0.856981161134588D+02 0.565343543652512D+01 -.208780963327253D+02 0.829235242056340D+02
 0.101116928922499D+03 -.420396053588021D+02 -.445558259321318D+02 -.220619970287482D+01
 0.406372434019019D+02 -.225399333854289D+02 -.279616784678734D+02 -.190126666079516D+02
0.704350802552D-05 0.000000000000D+00 0.000000000000D+00 0.122861842229D-05 0.000000000000D+00  7 1 -1 24 -13 13 -24 21 0 0.69862097D-01 0.31487057D-01 0.59118233D+05 0.59118233D+05 0.59118233D+05 0.11409507D+01  1  2  2  2  7  2       -1 0.393510174184D-03 0.100000000000D+01
-.366961466442D-06 0.000000000000D+00 -.270489254163D-07 0.122861842229D-05 0.000000000000D+00  7 1 -1 24 -13 13 -24 21 2 0.69862097D-01 0.31487057D-01 0.59118233D+05 0.59118233D+05 0.59118233D+05 0.11409507D+01  1  2  3  2  7  2       -1 -.266883142651D-04 0.100000000000D+01
0.447917485081D-06 0.000000000000D+00 0.000000000000D+00 0.122861842229D-05 0.000000000000D+00  7 1 -1 24 -13 13 -24 21 2 0.69862097D-01 0.31487057D-01 0.59118233D+05 0.59118233D+05 0.59118233D+05 0.11409507D+01  1  2 15  2  7  2       -1 0.325760705139D-04 0.100000000000D+01
0.152446265330D-04 0.000000000000D+00 0.000000000000D+00 0.122861842229D-05 0.000000000000D+00  7 1 -1 24 -13 13 -24 21 2 0.69862097D-01 0.35165584D-01 0.68194512D+05 0.68194512D+05 0.68194512D+05 0.11356256D+01  1  2 12  2  7  2       -1 0.911333814814D-03 0.100000000000D+01
-.149356133268D-04 0.000000000000D+00 0.000000000000D+00 0.122861842229D-05 0.000000000000D+00  7 1 -1 24 -13 13 -24 21 2 0.69862097D-01 0.31487057D-01 0.59118233D+05 0.59118233D+05 0.59118233D+05 0.11409507D+01  1  2  4  2  7  2       -1 -.108623487385D-02 0.100000000000D+01
-.356507351615D-04 0.000000000000D+00 -.747822764698D-05 0.122861842229D-05 0.000000000000D+00  7 1 -1 24 -13 13 -24 21 2 0.69862097D-01 0.35764331D-01 0.59118233D+05 0.59118233D+05 0.59118233D+05 0.11409507D+01  1  2  5  2  7  2       -1 -.209357761804D-02 0.100000000000D+01
0.363681056063D-04 0.000000000000D+00 0.741797070638D-05 0.122861842229D-05 0.000000000000D+00  7 1 -1 24 -13 13 -24 21 2 0.69862097D-01 0.31487057D-01 0.59118233D+05 0.59118233D+05 0.59118233D+05 0.11409507D+01  1  2  6  2  7  2       -1 0.264497371089D-02 0.100000000000D+01
0.269730570875D-06 0.000000000000D+00 0.000000000000D+00 0.122861842229D-05 0.000000000000D+00  7 1 21 24 -13 13 -24 1 2 0.69862097D-01 0.35165584D-01 0.68194512D+05 0.68194512D+05 0.68194512D+05 0.11356256D+01  1  2 12  4  7  2       -1 0.169422644470D-03 0.100000000000D+01
-.672457468501D-06 0.000000000000D+00 -.149151065406D-06 0.122861842229D-05 0.000000000000D+00  7 1 21 24 -13 13 -24 1 2 0.69862097D-01 0.35764331D-01 0.59118233D+05 0.59118233D+05 0.59118233D+05 0.11409507D+01  1  2  5  4  7  2       -1 -.414522019760D-03 0.100000000000D+01
  </mgrwgt>
  </event>
  <event>
  8     66 0.27727860E-05 0.42005367E+03 0.75467711E-02 0.88219877E-01
        1 -1    0    0  501    0 0.00000000E+00 0.00000000E+00 0.32532286E+03 0.32532301E+03 0.32000000E+00 0.0000E+00 0.9000E+01
       -1 -1    0    0    0  501 0.00000000E+00 0.00000000E+00 -.62579915E+03 0.62579923E+03 0.32000000E+00 0.0000E+00 0.9000E+01
       25  2    1    2    0    0 -.36827371E+03 -.54864453E+02 -.29348925E+02 0.48010200E+03 0.30166361E+03 0.0000E+00 0.0000E+00
       23  2    1    2    0    0 0.36827371E+03 0.54864453E+02 -.27112737E+03 0.47102025E+03 0.98561624E+02 0.0000E+00 0.0000E+00
       24  1    3    3    0    0 -.30505569E+03 -.12176679E+03 0.38431386E+02 0.34033853E+03 0.80419002E+02 0.0000E+00 0.9000E+01
      -13  1    4    4    0    0 0.18402454E+03 -.10227670E+02 -.17115436E+03 0.25152229E+03 0.10565837E+00 0.0000E+00 0.9000E+01
       13  1    4    4    0    0 0.18424917E+03 0.65092124E+02 -.99973007E+02 0.21949796E+03 0.10565837E+00 0.0000E+00 0.9000E+01
      -24  1    3    3    0    0 -.63218016E+02 0.66902339E+02 -.67780310E+02 0.13976347E+03 0.80419002E+02 0.0000E+00 0.9000E+01
#aMCatNLO 1  0  0  2  2 0.74556222D+03 0.00000000D+00  -5  7  0 0.00000000D+00 0.00000000D+00 0.00000000D+00 0.00000000D+00 0.00000000D+00
  <mgrwgt>
 0.3209164767D-03    5    2    0
 0.451206028687072D+03 0.000000000000000D+00 0.000000000000000D+00 0.451206028687072D+03
 0.451206028687072D+03 0.000000000000000D+00 0.000000000000000D+00 -.451206028687072D+03
 0.371505747929555D+03 -.305055692611187D+03 -.121766793130300D+03 0.153828402080367D+03
 0.208109615993065D+03 0.184024540827082D+03 -.102277491840134D+02 -.966435398192323D+02
 0.198057926572691D+03 0.184249168518300D+03 0.650922030001524D+02 -.322829875813214D+02
 0.124738766878832D+03 -.632180167341945D+02 0.669023393141609D+02 -.249018746798130D+02
 0.000000000000000D+00 -.000000000000000D+00 -.000000000000000D+00 -.000000000000000D+00
 0.799088247731907D+03 0.000000000000000D+00 0.000000000000000D+00 0.799088247731907D+03
 0.123523493579414D+04 0.000000000000000D+00 0.000000000000000D+00 -.123523493579414D+04
 0.210767317685053D+03 -.107464722446693D+03 -.523813172098418D+02 0.153828402080367D+03
 0.410600165125849D+03 0.393980097971921D+03 0.634996394841621D+02 -.966435398192323D+02
 0.418354472854798D+03 0.393425122579888D+03 0.138545828495267D+03 -.322829875813214D+02
 0.130837973402018D+03 0.235104600677820D+02 0.973576614058123D+02 -.249018746798130D+02
 0.863763254458327D+03 -.703450958172898D+03 -.247021812175400D+03 -.436146688062231D+03
0.296165192590D-04 0.000000000000D+00 0.000000000000D+00 0.104236912078D-07 0.000000000000D+00  7 1 -1 24 -13 13 -24 21 0 0.50049689D-01 0.96276810D-01 0.17644508D+06 0.17644508D+06 0.17644508D+06 0.11020296D+01  1  2  2  2  7  2       -1 0.316566791476D-03 0.100000000000D+01
-.163512312028D-05 0.000000000000D+00 -.113735232163D-06 0.104236912078D-07 0.000000000000D+00  7 1 -1 24 -13 13 -24 21 2 0.50049689D-01 0.96276810D-01 0.17644508D+06 0.17644508D+06 0.17644508D+06 0.11020296D+01  1  2  3  2  7  2       -1 -.212260089975D-04 0.100000000000D+01
0.186719132325D-05 0.000000000000D+00 0.000000000000D+00 0.104236912078D-07 0.000000000000D+00  7 1 -1 24 -13 13 -24 21 2 0.50049689D-01 0.96276810D-01 0.17644508D+06 0.17644508D+06 0.17644508D+06 0.11020296D+01  1  2 15  2  7  2       -1 0.242385538653D-04 0.100000000000D+01
0.504293605087D-05 0.000000000000D+00 -.947898736118D-05 0.104236912078D-07 0.000000000000D+00  7 1 -1 24 -13 13 -24 21 2 0.50049689D-01 0.35698308D+00 0.17644508D+06 0.17644508D+06 0.17644508D+06 0.11020296D+01  1  2  5  2  7  2       -1 0.368351147919D-06 0.100000000000D+01
0.100434709597D-05 0.000000000000D+00 -.146667647797D-05 0.104236912078D-07 0.000000000000D+00  7 1 21 24 -13 13 -24 1 2 0.50049689D-01 0.35698308D+00 0.17644508D+06 0.17644508D+06 0.17644508D+06 0.11020296D+01  1  2  5  4  7  2       -1 0.968789232484D-06 0.100000000000D+01
  </mgrwgt>
  </event>
  <event>
  8     66 0.27727860E-05 0.26913014E+03 0.75467711E-02 0.10141634E+00
        1 -1    0    0  501    0 0.00000000E+00 0.00000000E+00 0.13020122E+04 0.13020123E+04 0.32000000E+00 0.0000E+00 0.9000E+01
       -1 -1    0    0    0  501 0.00000000E+00 0.00000000E+00 -.12063506E+03 0.12063549E+03 0.32000000E+00 0.0000E+00 0.9000E+01
       25  2    1    2    0    0 0.17485738E+03 0.65020028E+02 0.11748925E+04 0.12268368E+04 0.29992234E+03 0.0000E+00 0.0000E+00
       23  2    1    2    0    0 -.17485738E+03 -.65020028E+02 0.64846909E+01 0.19581100E+03 0.59137029E+02 0.0000E+00 0.0000E+00
       24  1    3    3    0    0 0.22198329E+03 0.14492162E+02 0.93682899E+03 0.96623102E+03 0.80419002E+02 0.0000E+00 0.9000E+01
      -11  1    4    4    0    0 -.64384648E+02 0.55146813E+01 0.32073199E+01 0.64699935E+02 0.51099893E-03 0.0000E+00 0.9000E+01
       11  1    4    4    0    0 -.11047273E+03 -.70534709E+02 0.32773710E+01 0.13111106E+03 0.51099893E-03 0.0000E+00 0.9000E+01
      -24  1    3    3    0    0 -.47125910E+02 0.50527866E+02 0.23806347E+03 0.26060574E+03 0.80419002E+02 0.0000E+00 0.9000E+01
#aMCatNLO 1  0  0  2  2 0.31669170D+02 0.00000000D+00  -5  7  0 0.00000000D+00 0.00000000D+00 0.00000000D+00 0.00000000D+00 0.00000000D+00
  <mgrwgt>
 0.5302128307D-03    4    2    0
 0.396318884859539D+03 0.000000000000000D+00 0.000000000000000D+00 0.396318884859539D+03
 0.396318884859539D+03 0.000000000000000D+00 0.000000000000000D+00 -.396318884859539D+03
 0.337932435473088D+03 0.221983287144212D+03 0.144921620266110D+02 0.241338999042523D+03
 0.111344886136917D+03 -.643846484183338D+02 0.551468130628580D+01 -.906746326542366D+02
 0.230436968126744D+03 -.110472729138875D+03 -.705347093919860D+02 -.189530544153292D+03
 0.112923479982328D+03 -.471259095870034D+02 0.505278660590892D+02 0.388661777650054D+02
 0.000000000000000D+00 0.000000000000000D+00 0.000000000000000D+00 0.000000000000000D+00
 0.435175584808162D+03 0.000000000000000D+00 0.000000000000000D+00 0.435175584808162D+03
 0.403140817810300D+03 0.000000000000000D+00 0.000000000000000D+00 -.403140817810300D+03
 0.329552424752241D+03 0.209239059936079D+03 0.105871641117908D+02 0.241338999042523D+03
 0.113828732681347D+03 -.686838676673348D+02 0.419734429333693D+01 -.906746326542366D+02
 0.235666626254477D+03 -.119372002310878D+03 -.732615630970040D+02 -.189530544153292D+03
 0.114222391172816D+03 -.514627848689584D+02 0.491989907450912D+02 0.388661777650054D+02
 0.450462277575802D+02 0.302795949110924D+02 0.927806394678503D+01 0.320347669978619D+02
0.339513108911D-04 0.000000000000D+00 0.000000000000D+00 0.281182783816D-08 0.000000000000D+00  7 1 -1 24 -11 11 -24 21 0 0.20030961D+00 0.18559276D-01 0.72431033D+05 0.72431033D+05 0.72431033D+05 0.11334014D+01  1  2  2  2  7  2       -1 0.838413110297D-03 0.100000000000D+01
-.154267223245D-05 0.000000000000D+00 -.130381973407D-06 0.281182783816D-08 0.000000000000D+00  7 1 -1 24 -11 11 -24 21 2 0.20030961D+00 0.18559276D-01 0.72431033D+05 0.72431033D+05 0.72431033D+05 0.11334014D+01  1  2  3  2  7  2       -1 -.489375963662D-04 0.100000000000D+01
0.196870671804D-05 0.000000000000D+00 0.000000000000D+00 0.281182783816D-08 0.000000000000D+00  7 1 -1 24 -11 11 -24 21 2 0.20030961D+00 0.18559276D-01 0.72431033D+05 0.72431033D+05 0.72431033D+05 0.11334014D+01  1  2 15  2  7  2       -1 0.624525240713D-04 0.100000000000D+01
-.101415098813D-04 0.000000000000D+00 0.000000000000D+00 0.281182783816D-08 0.000000000000D+00  7 1 -1 24 -11 11 -24 21 2 0.20030961D+00 0.18559276D-01 0.72431033D+05 0.72431033D+05 0.72431033D+05 0.11334014D+01  1  2  4  2  7  2       -1 -.321715207336D-03 0.100000000000D+01
  </mgrwgt>
  </event>
  <event>
  8     66 0.27727860E-05 0.13034249E+03 0.75467711E-02 0.96852225E-01
        1 -1    0    0  501    0 0.00000000E+00 0.00000000E+00 0.61688004E+03 0.61688012E+03 0.32000000E+00 0.0000E+00 0.9000E+01
       -1 -1    0    0    0  501 0.00000000E+00 0.00000000E+00 -.27078442E+03 0.27078461E+03 0.32000000E+00 0.0000E+00 0.9000E+01
       25  2    1    2    0    0 0.16199292E+03 -.28118267E+03 0.62338720E+02 0.44661750E+03 0.30045911E+03 0.0000E+00 0.0000E+00
       23  2    1    2    0    0 -.16199292E+03 0.28118267E+03 0.28375690E+03 0.44104722E+03 0.93269895E+02 0.0000E+00 0.0000E+00
       24  1    3    3    0    0 -.16269430E+02 -.54413267E+02 0.10524041E+03 0.14411197E+03 0.80419002E+02 0.0000E+00 0.9000E+01
      -13  1    4    4    0    0 -.63913042E+02 0.63712082E+02 0.36159858E+02 0.97219611E+02 0.10565837E+00 0.0000E+00 0.9000E+01
       13  1    4    4    0    0 -.98079877E+02 0.21747059E+03 0.24759704E+03 0.34382761E+03 0.10565837E+00 0.0000E+00 0.9000E+01
      -24  1    3    3    0    0 0.17826235E+03 -.22676941E+03 -.42901694E+02 0.30250554E+03 0.80419002E+02 0.0000E+00 0.9000E+01
#aMCatNLO 1  0  0  2  1 0.95857936D+02 0.00000000D+00  -5  7  0 0.00000000D+00 0.00000000D+00 0.00000000D+00 0.00000000D+00 0.00000000D+00
  <mgrwgt>
 0.5900087996D-03    9    2    0
 0.408707256596659D+03 0.000000000000000D+00 0.000000000000000D+00 0.408707256596659D+03
 0.408707256596659D+03 0.000000000000000D+00 0.000000000000000D+00 -.408707256596659D+03
 0.111938142471922D+03 -.162694300883509D+02 -.544132675466012D+02 0.532675674796217D+02
 0.902644405976204D+02 -.639129975870393D+02 0.637118847192662D+02 -.189571130697163D+01
 0.268543773477491D+03 -.980799211543034D+02 0.217470788116268D+03 0.123298595515054D+03
 0.346668156646285D+03 0.178262348829694D+03 -.226769405288933D+03 -.174670451687704D+03
 0.000000000000000D+00 0.000000000000000D+00 -.000000000000000D+00 -.000000000000000D+00
 0.426563748410824D+03 0.000000000000000D+00 0.000000000000000D+00 0.426563748410824D+03
 0.564086306393619D+03 0.000000000000000D+00 0.000000000000000D+00 -.564086306393619D+03
 0.110243616864232D+03 -.264529973113220D+02 -.463599427629958D+02 0.532675674796217D+02
 0.101396387714707D+03 -.726976563050212D+02 0.706589307022748D+02 -.189571130697163D+01
 0.295224825575319D+03 -.123919915597629D+03 0.237905461261966D+03 0.123298595515054D+03
 0.316151105493612D+03 0.147882426855679D+03 -.202744486201106D+03 -.174670451687704D+03
 0.167634119156574D+03 0.751881423582934D+02 -.594599630001393D+02 -.137522557982796D+03
0.216348010172D-04 0.000000000000D+00 0.000000000000D+00 0.790243257885D-06 0.000000000000D+00  7 1 -1 24 -13 13 -24 21 0 0.94904642D-01 0.41659162D-01 0.13202646D+06 0.13202646D+06 0.13202646D+06 0.11119529D+01  1  2  2  2  7  2       -1 0.483476425785D-03 0.100000000000D+01
-.118171593048D-05 0.000000000000D+00 -.830833324800D-07 0.790243257885D-06 0.000000000000D+00  7 1 -1 24 -13 13 -24 21 2 0.94904642D-01 0.41659162D-01 0.13202646D+06 0.13202646D+06 0.13202646D+06 0.11119529D+01  1  2  3  2  7  2       -1 -.326518845665D-04 0.100000000000D+01
0.136304922677D-05 0.000000000000D+00 0.000000000000D+00 0.790243257885D-06 0.000000000000D+00  7 1 -1 24 -13 13 -24 21 2 0.94904642D-01 0.41659162D-01 0.13202646D+06 0.13202646D+06 0.13202646D+06 0.11119529D+01  1  2 15  2  7  2       -1 0.376622882566D-04 0.100000000000D+01
0.412260458695D-04 0.000000000000D+00 0.000000000000D+00 0.790243257885D-06 0.000000000000D+00  7 1 -1 24 -13 13 -24 21 2 0.94904642D-01 0.58145565D-01 0.17037073D+06 0.17037073D+06 0.17037073D+06 0.11032139D+01  1  2 12  2  7  2       -1 0.610793515575D-03 0.100000000000D+01
-.425060037206D-04 0.000000000000D+00 0.000000000000D+00 0.790243257885D-06 0.000000000000D+00  7 1 -1 24 -13 13 -24 21 2 0.94904642D-01 0.41659162D-01 0.13202646D+06 0.13202646D+06 0.13202646D+06 0.11119529D+01  1  2  4  2  7  2       -1 -.117447949298D-02 0.100000000000D+01
-.523734876762D-04 0.000000000000D+00 -.965779747765D-05 0.790243257885D-06 0.000000000000D+00  7 1 -1 24 -13 13 -24 21 2 0.94904642D-01 0.59230370D-01 0.13202646D+06 0.13202646D+06 0.13202646D+06 0.11119529D+01  1  2  5  2  7  2       -1 -.767130220961D-03 0.100000000000D+01
0.530235226377D-04 0.000000000000D+00 0.908915195712D-05 0.790243257885D-06 0.000000000000D+00  7 1 -1 24 -13 13 -24 21 2 0.94904642D-01 0.41659162D-01 0.13202646D+06 0.13202646D+06 0.13202646D+06 0.11119529D+01  1  2  6  2  7  2       -1 0.146508809421D-02 0.100000000000D+01
0.171972077536D-05 0.000000000000D+00 0.000000000000D+00 0.790243257885D-06 0.000000000000D+00  7 1 21 24 -13 13 -24 1 2 0.94904642D-01 0.58145565D-01 0.17037073D+06 0.17037073D+06 0.17037073D+06 0.11032139D+01  1  2 12  4  7  2       -1 0.220629091784D-03 0.100000000000D+01
-.199608217049D-05 0.000000000000D+00 -.418848778403D-06 0.790243257885D-06 0.000000000000D+00  7 1 21 24 -13 13 -24 1 2 0.94904642D-01 0.59230370D-01 0.13202646D+06 0.13202646D+06 0.13202646D+06 0.11119529D+01  1  2  5  4  7  2       -1 -.253379017482D-03 0.100000000000D+01
  </mgrwgt>
  </event>
  <event>
  8     66 0.27727860E-05 0.14310619E+03 0.75467711E-02 0.10643671E+00
        3 -1    0    0  501    0 0.00000000E+00 0.00000000E+00 0.94748602E+02 0.94749921E+02 0.50000000E+00 0.0000E+00 0.9000E+01
       -3 -1    0    0    0  501 0.00000000E+00 0.00000000E+00 -.45880683E+03 0.45880710E+03 0.50000000E+00 0.0000E+00 0.9000E+01
       25  2    1    2    0    0 -.25551359E+02 0.34185049E+02 -.33026050E+03 0.44871930E+03 0.30075824E+03 0.0000E+00 0.0000E+00
       23  2    1    2    0    0 0.25551359E+02 -.34185049E+02 -.33797723E+02 0.10483772E+03 0.89594489E+02 0.0000E+00 0.0000E+00
       24  1    3    3    0    0 0.19411914E+01 0.59261961E+02 -.34474538E+03 0.35893222E+03 0.80419002E+02 0.0000E+00 0.9000E+01
      -11  1    4    4    0    0 -.32967259E+02 -.13395168E+02 -.35505449E+01 0.35761391E+02 0.51099893E-03 0.0000E+00 0.9000E+01
       11  1    4    4    0    0 0.58518618E+02 -.20789881E+02 -.30247178E+02 0.69076331E+02 0.51099893E-03 0.0000E+00 0.9000E+01
      -24  1    3    3    0    0 -.27492550E+02 -.25076912E+02 0.14484874E+02 0.89787078E+02 0.80419002E+02 0.0000E+00 0.9000E+01
#aMCatNLO 1  0  0  1  2 0.92546109D+02 0.00000000D+00  -5  7  0 0.00000000D+00 0.00000000D+00 0.00000000D+00 0.00000000D+00 0.00000000D+00
  <mgrwgt>
 0.5838122840D-03    4    2    0
 0.208498790883608D+03 0.000000000000000D+00 0.000000000000000D+00 0.208498790883608D+03
 0.208498790883608D+03 0.000000000000000D+00 0.000000000000000D+00 -.208498790883608D+03
 0.175497566081709D+03 0.194119112819922D+01 0.592619614073427D+02 -.144279005587755D+03
 0.443728319272389D+02 -.329672582636357D+02 -.133951679858211D+02 0.265080661394484D+02
 0.652904369282073D+02 0.585186175470235D+02 -.207898813035885D+02 0.201542400016500D+02
 0.131836746830061D+03 -.274925504115870D+02 -.250769121179331D+02 0.976166994466570D+02
 0.000000000000000D+00 0.000000000000000D+00 -.000000000000000D+00 -.000000000000000D+00
 0.230906305970364D+03 0.000000000000000D+00 0.000000000000000D+00 0.230906305970364D+03
 0.337094483087765D+03 0.000000000000000D+00 0.000000000000000D+00 -.337094483087765D+03
 0.180131456057933D+03 -.369765597791514D+02 0.616151611268502D+02 -.144279005587755D+03
 0.525762880620904D+02 -.435767458688122D+02 -.127536549827687D+02 0.265080661394484D+02
 0.536369481882431D+02 0.455039700860882D+02 -.200029379669226D+02 0.201542400016500D+02
 0.140799037030099D+03 -.573280555704818D+02 -.232728792348813D+02 0.976166994466570D+02
 0.140857059719763D+03 0.923773911323572D+02 -.558568894227757D+01 -.106188177117401D+03
0.222381790140D-04 0.000000000000D+00 0.000000000000D+00 0.495309003627D-07 0.000000000000D+00  7 3 -3 24 -11 11 -24 21 0 0.14576830D-01 0.70585788D-01 0.20479383D+05 0.20479383D+05 0.20479383D+05 0.11830394D+01  1  2  2  1  7  1        3 0.652254718699D-03 0.100000000000D+01
-.102269758520D-05 0.000000000000D+00 -.854004628609D-07 0.495309003627D-07 0.000000000000D+00  7 3 -3 24 -11 11 -24 21 2 0.14576830D-01 0.70585788D-01 0.20479383D+05 0.20479383D+05 0.20479383D+05 0.11830394D+01  1  2  3  1  7  1        3 -.419820509241D-04 0.100000000000D+01
0.143693557409D-05 0.000000000000D+00 0.000000000000D+00 0.495309003627D-07 0.000000000000D+00  7 3 -3 24 -11 11 -24 21 2 0.14576830D-01 0.70585788D-01 0.20479383D+05 0.20479383D+05 0.20479383D+05 0.11830394D+01  1  2 15  1  7  1        3 0.589866479782D-04 0.100000000000D+01
-.208151986639D-05 0.000000000000D+00 0.000000000000D+00 0.495309003627D-07 0.000000000000D+00  7 3 -3 24 -11 11 -24 21 2 0.14576830D-01 0.70585788D-01 0.20479383D+05 0.20479383D+05 0.20479383D+05 0.11830394D+01  1  2  4  1  7  1        3 -.854470317474D-04 0.100000000000D+01
  </mgrwgt>
  </event>
  <event>
  9     66 0.27727860E-05 0.24260676E+03 0.75467711E-02 0.10246575E+00
        1 -1    0    0  502    0 0.00000000E+00 0.00000000E+00 0.10085242E+03 0.10085292E+03 0.32000000E+00 0.0000E+00 0.9000E+01
       -1 -1    0    0    0  501 0.00000000E+00 0.00000000E+00 -.10237242E+04 0.10237243E+04 0.32000000E+00 0.0000E+00 0.9000E+01
       25  2    1    2    0    0 0.16557635E+03 -.72458730E+01 -.73154433E+03 0.80809989E+03 0.30066640E+03 0.0000E+00 0.0000E+00
       23  2    1    2    0    0 -.14180210E+03 0.43434952E+02 -.70080342E+02 0.18772836E+03 0.91303082E+02 0.0000E+00 0.0000E+00
       24  1    3    3    0    0 0.21053884E+03 -.14438340E+01 -.35576433E+03 0.42114625E+03 0.80419002E+02 0.0000E+00 0.9000E+01
      -13  1    4    4    0    0 -.90625329E+02 0.65569132E+02 -.21779870E+02 0.11395892E+03 0.10565837E+00 0.0000E+00 0.9000E+01
       13  1    4    4    0    0 -.51176767E+02 -.22134180E+02 -.48300472E+02 0.73769440E+02 0.10565837E+00 0.0000E+00 0.9000E+01
      -24  1    3    3    0    0 -.44962495E+02 -.58020390E+01 -.37578001E+03 0.38695364E+03 0.80419002E+02 0.0000E+00 0.9000E+01
       21  1    1    2  502  501 -.23774249E+02 -.36189079E+02 -.12124714E+03 0.12874897E+03 0.75000000E+00 0.0000E+00 0.9000E+01
#aMCatNLO 2  0  0  1  2 0.43299704D+02 0.00000000D+00  -5  7  0 0.00000000D+00 0.00000000D+00 0.00000000D+00 0.00000000D+00 0.00000000D+00
  <mgrwgt>
 0.1826912187D-03    1    2    0
 0.294617084499971D+03 0.000000000000000D+00 0.000000000000000D+00 0.294617084499971D+03
 0.294617084499971D+03 0.000000000000000D+00 0.000000000000000D+00 -.294617084499971D+03
 0.219346938022471D+03 0.201543592395985D+03 -.151363675814052D+02 -.282300195895255D+02
 0.162594053287190D+03 -.971754845435114D+02 0.555987082278207D+02 0.117909011578797D+03
 0.623868556455585D+02 -.536183098373001D+02 -.258508852325603D+02 0.186796236638758D+02
 0.144906322044723D+03 -.507497980151730D+02 -.146114554138552D+02 -.108358615653148D+03
 0.000000000000000D+00 -.000000000000000D+00 -.000000000000000D+00 -.000000000000000D+00
 0.306820206999055D+03 0.000000000000000D+00 0.000000000000000D+00 0.306820206999055D+03
 0.336495475585241D+03 0.000000000000000D+00 0.000000000000000D+00 -.336495475585241D+03
 0.227140567509396D+03 0.210538839150306D+03 -.144383424826648D+01 -.282300195895255D+02
 0.162526372019852D+03 -.906253831089304D+02 0.655692498569709D+02 0.117909011578797D+03
 0.588040099919316D+02 -.511767146587734D+02 -.221342975411835D+02 0.186796236638758D+02
 0.142352010644012D+03 -.449624925413232D+02 -.580203914390402D+01 -.108358615653148D+03
 0.524927224191040D+02 -.237742488412790D+02 -.361890789236169D+02 -.296752685861859D+02
0.959271190120D-05 0.000000000000D+00 0.000000000000D+00 0.552643417597D-06 0.205160688757D-08  7 1 -1 24 -13 13 -24 21 2 0.15515667D-01 0.15749473D+00 0.69857972D+05 0.69857972D+05 0.69857972D+05 0.11347346D+01  1  2  1  1  7  1        1 0.182691218705D-03 0.100000000000D+01
  </mgrwgt>
  </event>
  <event>
  8     66 0.27727860E-05 0.39754028E+03 0.75467711E-02 0.95605039E-01
        1 -1    0    0  501    0 0.00000000E+00 0.00000000E+00 0.43349120E+03 0.43349132E+03 0.32000000E+00 0.0000E+00 0.9000E+01
       -1 -1    0    0    0  501 0.00000000E+00 0.00000000E+00 -.43999821E+03 0.43999833E+03 0.32000000E+00 0.0000E+00 0.9000E+01
       25  2    1    2    0    0 -.26224295E+03 0.23802267E+03 0.13212211E+03 0.48256043E+03 0.29997028E+03 0.0000E+00 0.0000E+00
       23  2    1    2    0    0 0.26224295E+03 -.23802267E+03 -.13862912E+03 0.39092921E+03 0.90451447E+02 0.0000E+00 0.0000E+00
       24  1    3    3    0    0 -.11088667E+03 -.87886562E+01 0.11920510E+03 0.18179705E+03 0.80419002E+02 0.0000E+00 0.9000E+01
      -13  1    4    4    0    0 0.11637360E+03 -.74365300E+02 -.94392422E+02 0.16728106E+03 0.10565837E+00 0.0000E+00 0.9000E+01
       13  1    4    4    0    0 0.14586935E+03 -.16365737E+03 -.44236697E+02 0.22364816E+03 0.10565837E+00 0.0000E+00 0.9000E+01
      -24  1    3    3    0    0 -.15135627E+03 0.24681132E+03 0.12917013E+02 0.30076339E+03 0.80419002E+02 0.0000E+00 0.9000E+01
#aMCatNLO 1  0  0  1  2 0.11627896D+03 0.00000000D+00  -5  7  0 0.00000000D+00 0.00000000D+00 0.00000000D+00 0.00000000D+00 0.00000000D+00
  <mgrwgt>
 0.6492049527D-03    4    2    0
 0.436732705436211D+03 0.000000000000000D+00 0.000000000000000D+00 0.436732705436211D+03
 0.436732705436211D+03 0.000000000000000D+00 0.000000000000000D+00 -.436732705436211D+03
 0.182690128157802D+03 -.110886674888561D+03 -.878865617534441D+01 0.120562729841083D+03
 0.166582431246820D+03 0.116373555088563D+03 -.743651780531239D+02 -.931489257548251D+02
 0.223324891607117D+03 0.145869391473300D+03 -.163657488094137D+03 -.425717562857947D+02
 0.300867959860683D+03 -.151356271673302D+03 0.246811322322606D+03 0.151579521995371D+02
 0.000000000000000D+00 -.000000000000000D+00 0.000000000000000D+00 -.000000000000000D+00
 0.454255415747431D+03 0.000000000000000D+00 0.000000000000000D+00 0.454255415747431D+03
 0.687859908969931D+03 0.000000000000000D+00 0.000000000000000D+00 -.687859908969931D+03
 0.170032464133520D+03 -.879389264041696D+02 -.132361739598094D+02 0.120562729841083D+03
 0.185144725817401D+03 0.139256541639005D+03 -.788001442858239D+02 -.931489257548251D+02
 0.248504359899206D+03 0.176566089750577D+03 -.169606834785182D+03 -.425717562857947D+02
 0.277489613924048D+03 -.113728956532987D+03 0.239518748352569D+03 0.151579521995371D+02
 0.260944160943188D+03 -.114154748452426D+03 0.221244046782467D+02 -.233604493222499D+03
0.462087963104D-04 0.000000000000D+00 0.000000000000D+00 0.359317677182D-05 0.000000000000D+00  7 1 -1 24 -13 13 -24 21 0 0.66690972D-01 0.67692050D-01 0.15803827D+06 0.15803827D+06 0.15803827D+06 0.11057673D+01  1  2  2  1  7  1        1 0.692979048731D-03 0.100000000000D+01
-.253956093163D-05 0.000000000000D+00 -.177453944888D-06 0.359317677182D-05 0.000000000000D+00  7 1 -1 24 -13 13 -24 21 2 0.66690972D-01 0.67692050D-01 0.15803827D+06 0.15803827D+06 0.15803827D+06 0.11057673D+01  1  2  3  1  7  1        1 -.465673522581D-04 0.100000000000D+01
0.281310337051D-05 0.000000000000D+00 0.000000000000D+00 0.359317677182D-05 0.000000000000D+00  7 1 -1 24 -13 13 -24 21 2 0.66690972D-01 0.67692050D-01 0.15803827D+06 0.15803827D+06 0.15803827D+06 0.11057673D+01  1  2 15  1  7  1        1 0.515832378588D-04 0.100000000000D+01
-.266077251981D-05 0.000000000000D+00 0.000000000000D+00 0.359317677182D-05 0.000000000000D+00  7 1 -1 24 -13 13 -24 21 2 0.66690972D-01 0.67692050D-01 0.15803827D+06 0.15803827D+06 0.15803827D+06 0.11057673D+01  1  2  4  1  7  1        1 -.487899816325D-04 0.100000000000D+01
  </mgrwgt>
  </event>
  <event>
  9     66 0.27727860E-05 0.18422580E+03 0.75467711E-02 0.10307375E+00
        1 -1    0    0  501    0 0.00000000E+00 0.00000000E+00 0.16655859E+04 0.16655860E+04 0.32000000E+00 0.0000E+00 0.9000E+01
       21 -1    0    0  502  501 0.00000000E+00 0.00000000E+00 -.73481982E+02 0.73485809E+02 0.75000000E+00 0.0000E+00 0.9000E+01
       25  2    1    2    0    0 0.82429870E+02 -.11868740E+02 0.10451825E+04 0.10908725E+04 0.30109953E+03 0.0000E+00 0.0000E+00
       23  2    1    2    0    0 -.99583516E+00 -.74996893E+02 0.50971587E+03 0.52345351E+03 0.92562292E+02 0.0000E+00 0.0000E+00
       24  1    3    3    0    0 0.46951722E+02 0.92427154E+02 0.23373742E+03 0.26804410E+03 0.80419002E+02 0.0000E+00 0.9000E+01
      -11  1    4    4    0    0 0.39311481E+02 -.66630855E+02 0.35701744E+03 0.36530332E+03 0.51099893E-03 0.0000E+00 0.9000E+01
       11  1    4    4    0    0 -.40307316E+02 -.83660379E+01 0.15269843E+03 0.15815018E+03 0.51099893E-03 0.0000E+00 0.9000E+01
      -24  1    3    3    0    0 0.35478148E+02 -.10429589E+03 0.81144504E+03 0.82282842E+03 0.80419002E+02 0.0000E+00 0.9000E+01
        1  1    1    2  502    0 -.81434035E+02 0.86865633E+02 0.37205613E+02 0.12474574E+03 0.32000000E+00 0.0000E+00 0.9000E+01
#aMCatNLO 2  0  0  2  1 0.11906780D+03 0.00000000D+00  -5  7  0 0.00000000D+00 0.00000000D+00 0.00000000D+00 0.00000000D+00 0.00000000D+00
  <mgrwgt>
 0.1795806642D-02    2    2    0
 0.208663933877151D+03 0.000000000000000D+00 0.000000000000000D+00 0.208663933877151D+03
 0.208663933877151D+03 0.000000000000000D+00 0.000000000000000D+00 -.208663933877151D+03
 0.176067611028721D+03 0.148405859600861D+02 0.126680085882540D+03 -.909092984691009D+02
 0.613513089024524D+02 0.258178741409432D+02 -.522372371373332D+02 0.192013420141555D+02
 0.489569277203517D+02 -.489304807775698D+02 0.832284388154140D+00 0.137699868875947D+01
 0.130952020102776D+03 0.827202067654060D+01 -.752751331333611D+02 0.703309577661859D+02
 0.000000000000000D+00 -.000000000000000D+00 0.000000000000000D+00 -.000000000000000D+00
 0.228079023424768D+03 0.000000000000000D+00 0.000000000000000D+00 0.228079023424768D+03
 0.536629052362989D+03 0.000000000000000D+00 0.000000000000000D+00 -.536629052362989D+03
 0.159621301840074D+03 0.469517232249843D+02 0.924271561004113D+02 -.909092984691009D+02
 0.797104437769773D+02 0.393114782770045D+02 -.666308561227807D+02 0.192013420141555D+02
 0.411893971355271D+02 -.403073153991391D+02 -.836604065933486D+01 0.137699868875947D+01
 0.153460065918355D+03 0.354781486834855D+02 -.104295892646733D+03 0.703309577661859D+02
 0.330726867116824D+03 -.814340347863351D+02 0.868656333284373D+02 -.308550028938220D+03
-.714612972009D-06 0.000000000000D+00 0.000000000000D+00 0.281838971502D-07 0.000000000000D+00  7 1 21 24 -11 11 -24 1 2 0.23443157D+00 0.11163903D-01 0.63805768D+05 0.63805768D+05 0.63805768D+05 0.11380962D+01  1  2 13  4  7  2       -1 -.499186509230D-03 0.100000000000D+01
0.415526506508D-05 0.000000000000D+00 0.000000000000D+00 0.281838971502D-07 0.331708760503D-11  7 1 21 24 -11 11 -24 1 2 0.25624420D+00 0.11305213D-01 0.63805768D+05 0.63805768D+05 0.63805768D+05 0.11380962D+01  1  2  1  4  7  2       -1 0.229499315106D-02 0.100000000000D+01
  </mgrwgt>
  </event>
  <event>
  8     66 0.27727860E-05 0.24083650E+03 0.75467711E-02 0.98916931E-01
        1 -1    0    0  501    0 0.00000000E+00 0.00000000E+00 0.21093278E+03 0.21093302E+03 0.32000000E+00 0.0000E+00 0.9000E+01
       -1 -1    0    0    0  501 0.00000000E+00 0.00000000E+00 -.34990825E+03 0.34990839E+03 0.32000000E+00 0.0000E+00 0.9000E+01
       25  2    1    2    0    0 0.90080929E+02 0.14374857E+03 -.84005182E+02 0.36372157E+03 0.31057734E+03 0.0000E+00 0.0000E+00
       23  2    1    2    0    0 -.90080929E+02 -.14374857E+03 -.54970284E+02 0.19711984E+03 0.84001629E+02 0.0000E+00 0.0000E+00
       24  1    3    3    0    0 -.27058122E+02 -.26682625E+02 0.52422865E+02 0.10324474E+03 0.80419002E+02 0.0000E+00 0.9000E+01
      -13  1    4    4    0    0 -.71796825E+02 -.97326009E+02 -.76147280E+02 0.14291800E+03 0.10565837E+00 0.0000E+00 0.9000E+01
       13  1    4    4    0    0 -.18284105E+02 -.46422565E+02 0.21176997E+02 0.54201839E+02 0.10565837E+00 0.0000E+00 0.9000E+01
      -24  1    3    3    0    0 0.11713905E+03 0.17043120E+03 -.13642805E+03 0.26047683E+03 0.80419002E+02 0.0000E+00 0.9000E+01
#aMCatNLO 1  0  0  1  1 0.17965082D+03 0.00000000D+00  -5  7  0 0.00000000D+00 0.00000000D+00 0.00000000D+00 0.00000000D+00 0.00000000D+00
  <mgrwgt>
 0.1358452874D-02    3    2    0
 0.271674858240867D+03 0.000000000000000D+00 0.000000000000000D+00 0.271674858240867D+03
 0.271674858240867D+03 0.000000000000000D+00 0.000000000000000D+00 -.271674858240867D+03
 0.119976531096478D+03 -.270577835638515D+02 -.266821489733582D+02 0.805176461053652D+02
 0.128042736793393D+03 -.717971100126711D+02 -.973264107074356D+02 -.420438725402176D+02
 0.613633123299942D+02 -.182841171886043D+02 -.464226386223880D+02 0.357223428973657D+02
 0.233967136261870D+03 0.117139010765127D+03 0.170431198303182D+03 -.741961164625134D+02
 0.000000000000000D+00 0.000000000000000D+00 0.000000000000000D+00 -.000000000000000D+00
 0.310243614728941D+03 0.000000000000000D+00 0.000000000000000D+00 0.310243614728941D+03
 0.620879717682829D+03 0.000000000000000D+00 0.000000000000000D+00 -.620879717682829D+03
 0.138603028802442D+03 -.493228810832067D+02 -.618687781206559D+02 0.805176461053652D+02
 0.174746287858352D+03 -.978688813634186D+02 -.138528913815020D+03 -.420438725402176D+02
 0.808334060046706D+02 -.305280230947448D+02 -.657722855780889D+02 0.357223428973657D+02
 0.178096345534659D+03 0.816581181147134D+02 0.114358997836964D+03 -.741961164625134D+02
 0.358844264211647D+03 0.960616674266566D+02 0.151810979676801D+03 -.310636102953889D+03
0.222655449099D-04 0.000000000000D+00 0.000000000000D+00 0.128989421012D-09 0.000000000000D+00  7 1 -1 24 -13 13 -24 21 0 0.32451227D-01 0.53832068D-01 0.58002221D+05 0.58002221D+05 0.58002221D+05 0.11416670D+01  1  2  2  1  7  1        1 0.134110926976D-02 0.100000000000D+01
-.121514100163D-05 0.000000000000D+00 -.855055551065D-07 0.128989421012D-09 0.000000000000D+00  7 1 -1 24 -13 13 -24 21 2 0.32451227D-01 0.53832068D-01 0.58002221D+05 0.58002221D+05 0.58002221D+05 0.11416670D+01  1  2  3  1  7  1        1 -.953973790999D-04 0.100000000000D+01
0.143605822559D-05 0.000000000000D+00 0.000000000000D+00 0.128989421012D-09 0.000000000000D+00  7 1 -1 24 -13 13 -24 21 2 0.32451227D-01 0.53832068D-01 0.58002221D+05 0.58002221D+05 0.58002221D+05 0.11416670D+01  1  2 15  1  7  1        1 0.112740982958D-03 0.100000000000D+01
  </mgrwgt>
  </event>
  <event>
  8     66 0.27727860E-05 0.22957630E+03 0.75467711E-02 0.90987917E-01
        1 -1    0    0  501    0 0.00000000E+00 0.00000000E+00 0.16333786E+03 0.16333818E+03 0.32000000E+00 0.0000E+00 0.9000E+01
       -1 -1    0    0    0  501 0.00000000E+00 0.00000000E+00 -.40826650E+03 0.40826662E+03 0.32000000E+00 0.0000E+00 0.9000E+01
       25  2    1    2    0    0 0.10459370E+03 0.46680992E+02 -.45567449E+02 0.32396788E+03 0.29959946E+03 0.0000E+00 0.0000E+00
       23  2    1    2    0    0 -.10459370E+03 -.46680992E+02 -.19936118E+03 0.24763692E+03 0.91979383E+02 0.0000E+00 0.0000E+00
       24  1    3    3    0    0 -.74986681E+02 0.34349994E+02 -.52721627E+02 0.12668745E+03 0.80419002E+02 0.0000E+00 0.9000E+01
      -11  1    4    4    0    0 -.10964107E+03 -.65233048E+02 -.17612775E+03 0.21747988E+03 0.51099893E-03 0.0000E+00 0.9000E+01
       11  1    4    4    0    0 0.50473672E+01 0.18552057E+02 -.23233433E+02 0.30157041E+02 0.51099893E-03 0.0000E+00 0.9000E+01
      -24  1    3    3    0    0 0.17958038E+03 0.12330997E+02 0.71541789E+01 0.19728042E+03 0.80419002E+02 0.0000E+00 0.9000E+01
#aMCatNLO 1  0  0  1  1 0.63650944D+03 0.00000000D+00  -5  7  0 0.00000000D+00 0.00000000D+00 0.00000000D+00 0.00000000D+00 0.00000000D+00
  <mgrwgt>
 0.7478904432D-03    3    2    0
 0.258235362930921D+03 0.000000000000000D+00 0.000000000000000D+00 0.258235362930921D+03
 0.258235362930921D+03 0.000000000000000D+00 0.000000000000000D+00 -.258235362930921D+03
 0.115209084055811D+03 -.749866814158876D+02 0.343499943104982D+02 0.172991205245946D+01
 0.157170214768860D+03 -.109641068619870D+03 -.652330484552754D+02 -.917930382524411D+02
 0.223582400635672D+02 0.504736722035113D+01 0.185520566811967D+02 -.114121065443979D+02
 0.221733186973604D+03 0.179580382815407D+03 0.123309974635805D+02 0.101475232744380D+03
 0.000000000000000D+00 0.000000000000000D+00 0.000000000000000D+00 -.000000000000000D+00
 0.599386721869807D+03 0.000000000000000D+00 0.000000000000000D+00 0.599386721869807D+03
 0.944212154672027D+03 0.000000000000000D+00 0.000000000000000D+00 -.944212154672027D+03
 0.260826752678849D+03 -.247778535037651D+03 -.128912349101850D+02 0.172991205245946D+01
 0.400985821240358D+03 -.366118794013533D+03 -.135353964235505D+03 -.917930382524411D+02
 0.234546159601465D+02 -.160040527208558D+02 0.127966062127948D+02 -.114121065443979D+02
 0.134419505182079D+03 0.159250131986379D+02 -.324123203908883D+02 0.101475232744380D+03
 0.723912181480402D+03 0.613976368573401D+03 0.167860913323784D+03 -.344825432802219D+03
0.117135070545D-04 0.000000000000D+00 0.000000000000D+00 0.778013489042D-06 0.000000000000D+00  7 1 -1 24 -11 11 -24 21 0 0.25128936D-01 0.62810264D-01 0.52705279D+05 0.52705279D+05 0.52705279D+05 0.11452879D+01  1  2  2  1  7  1        1 0.739036172617D-03 0.100000000000D+01
-.639801346701D-06 0.000000000000D+00 -.449829513264D-07 0.778013489042D-06 0.000000000000D+00  7 1 -1 24 -11 11 -24 21 2 0.25128936D-01 0.62810264D-01 0.52705279D+05 0.52705279D+05 0.52705279D+05 0.11452879D+01  1  2  3  1  7  1        1 -.529484528714D-04 0.100000000000D+01
0.746791710864D-06 0.000000000000D+00 0.000000000000D+00 0.778013489042D-06 0.000000000000D+00  7 1 -1 24 -11 11 -24 21 2 0.25128936D-01 0.62810264D-01 0.52705279D+05 0.52705279D+05 0.52705279D+05 0.11452879D+01  1  2 15  1  7  1        1 0.618027234725D-04 0.100000000000D+01
  </mgrwgt>
  </event>
  <event>
  8     66 0.27727860E-05 0.28702713E+03 0.75467711E-02 0.99808074E-01
        1 -1    0    0  501    0 0.00000000E+00 0.00000000E+00 0.21439281E+03 0.21439305E+03 0.32000000E+00 0.0000E+00 0.9000E+01
       -1 -1    0    0    0  501 0.00000000E+00 0.00000000E+00 -.42616620E+03 0.42616632E+03 0.32000000E+00 0.0000E+00 0.9000E+01
       25  2    1    2    0    0 -.66872439E+02 -.20080950E+03 -.80607726E+02 0.37578653E+03 0.29986919E+03 0.0000E+00 0.0000E+00
       23  2    1    2    0    0 0.66872439E+02 0.20080950E+03 -.13116566E+03 0.26477284E+03 0.90021389E+02 0.0000E+00 0.0000E+00
       24  1    3    3    0    0 0.69865746E+02 -.14118114E+03 0.21134295E+02 0.17812134E+03 0.80419002E+02 0.0000E+00 0.9000E+01
      -11  1    4    4    0    0 0.11204814E+02 -.65775551E+01 0.29987948E+00 0.12996231E+02 0.51099893E-03 0.0000E+00 0.9000E+01
       11  1    4    4    0    0 0.55667625E+02 0.20738705E+03 -.13146554E+03 0.25177661E+03 0.51099893E-03 0.0000E+00 0.9000E+01
      -24  1    3    3    0    0 -.13673819E+03 -.59628358E+02 -.10174202E+03 0.19766519E+03 0.80419002E+02 0.0000E+00 0.9000E+01
#aMCatNLO 1  0  0  2  2 0.71962209D+02 0.00000000D+00  -5  7  0 0.00000000D+00 0.00000000D+00 0.00000000D+00 0.00000000D+00 0.00000000D+00
  <mgrwgt>
 0.3629393923D-03    4    2    0
 0.302269889229101D+03 0.000000000000000D+00 0.000000000000000D+00 0.302269889229101D+03
 0.302269889229101D+03 0.000000000000000D+00 0.000000000000000D+00 -.302269889229101D+03
 0.196137589393149D+03 0.698657463922718D+02 -.141181141113200D+03 0.847903349068178D+02
 0.138756198100231D+02 0.112048142940404D+02 -.657755509076868D+01 0.487039328763861D+01
 0.220724874833190D+03 0.556676247093806D+02 0.207387054296314D+03 -.510998594874838D+02
 0.173801694421840D+03 -.136738185395693D+03 -.596283580923457D+02 -.385608687069727D+02
 0.000000000000000D+00 0.000000000000000D+00 -.000000000000000D+00 0.000000000000000D+00
 0.349927878787253D+03 0.000000000000000D+00 0.000000000000000D+00 0.349927878787253D+03
 0.332842513712454D+03 0.000000000000000D+00 0.000000000000000D+00 -.332842513712454D+03
 0.178876342178280D+03 0.579500819926835D+02 -.122400641093670D+03 0.847903349068178D+02
 0.125978985273529D+02 0.103636467175115D+02 -.525177524688728D+01 0.487039328763861D+01
 0.239578118033988D+03 0.410419921038178D+02 0.230438785548824D+03 -.510998594874838D+02
 0.177755413276587D+03 -.147908534441316D+03 -.420225634480508D+02 -.385608687069727D+02
 0.739626204834989D+02 0.385528136273035D+02 -.607638057602165D+02 0.170853650747994D+02
0.195890947094D-04 0.000000000000D+00 0.000000000000D+00 0.931777298513D-06 0.000000000000D+00  7 1 -1 24 -11 11 -24 21 0 0.32983537D-01 0.65564058D-01 0.82384573D+05 0.82384573D+05 0.82384573D+05 0.11286940D+01  1  2  2  2  7  2       -1 0.799730065925D-03 0.100000000000D+01
-.108474032739D-05 0.000000000000D+00 -.752272816113D-07 0.931777298513D-06 0.000000000000D+00  7 1 -1 24 -11 11 -24 21 2 0.32983537D-01 0.65564058D-01 0.82384573D+05 0.82384573D+05 0.82384573D+05 0.11286940D+01  1  2  3  2  7  2       -1 -.564166456853D-04 0.100000000000D+01
0.124172876458D-05 0.000000000000D+00 0.000000000000D+00 0.931777298513D-06 0.000000000000D+00  7 1 -1 24 -11 11 -24 21 2 0.32983537D-01 0.65564058D-01 0.82384573D+05 0.82384573D+05 0.82384573D+05 0.11286940D+01  1  2 15  2  7  2       -1 0.645815131783D-04 0.100000000000D+01
-.855529805895D-05 0.000000000000D+00 0.000000000000D+00 0.931777298513D-06 0.000000000000D+00  7 1 -1 24 -11 11 -24 21 2 0.32983537D-01 0.65564058D-01 0.82384573D+05 0.82384573D+05 0.82384573D+05 0.11286940D+01  1  2  4  2  7  2       -1 -.444955541096D-03 0.100000000000D+01
  </mgrwgt>
  </event>
  <event>
  8     66 0.27727860E-05 0.16521019E+03 0.75467711E-02 0.93662694E-01
        1 -1    0    0  501    0 0.00000000E+00 0.00000000E+00 0.12210064E+04 0.12210065E+04 0.32000000E+00 0.0000E+00 0.9000E+01
       -1 -1    0    0    0  501 0.00000000E+00 0.00000000E+00 -.72393580E+03 0.72393587E+03 0.32000000E+00 0.0000E+00 0.9000E+01
       25  2    1    2    0    0 0.83733816E+02 0.32419858E+02 -.68648414E+03 0.75450165E+03 0.29991641E+03 0.0000E+00 0.0000E+00
       23  2    1    2    0    0 -.83733816E+02 -.32419858E+02 0.11835548E+04 0.11904407E+04 0.91020720E+02 0.0000E+00 0.0000E+00
       24  1    3    3    0    0 -.81045291E+01 -.48081128E+02 -.60870287E+02 0.11202627E+03 0.80419002E+02 0.0000E+00 0.9000E+01
      -11  1    4    4    0    0 -.32781201E+02 -.85263649E+01 0.93421758E+03 0.93483142E+03 0.51099893E-03 0.0000E+00 0.9000E+01
       11  1    4    4    0    0 -.50952615E+02 -.23893493E+02 0.24933718E+03 0.25560926E+03 0.51099893E-03 0.0000E+00 0.9000E+01
      -24  1    3    3    0    0 0.91838345E+02 0.80500986E+02 -.62561386E+03 0.64247537E+03 0.80419002E+02 0.0000E+00 0.9000E+01
#aMCatNLO 1  0  0  1  2 0.48739773D+03 0.00000000D+00  -5  7  0 0.00000000D+00 0.00000000D+00 0.00000000D+00 0.00000000D+00 0.00000000D+00
  <mgrwgt>
 0.1161984926D-02    4    2    0
 0.940175712007399D+03 0.000000000000000D+00 0.000000000000000D+00 0.940175712007399D+03
 0.940175712007399D+03 0.000000000000000D+00 0.000000000000000D+00 -.940175712007399D+03
 0.131965477531645D+03 -.810452913109086D+01 -.480811281160554D+02 -.925753370635797D+02
 0.719983022591570D+03 -.327812010079480D+02 -.852636487876064D+01 0.719185822150662D+03
 0.198477311411139D+03 -.509526150302703D+02 -.238934928753373D+02 0.190331750280366D+03
 0.829925612480443D+03 0.918383451693091D+02 0.805009858701533D+02 -.816942235367449D+03
 0.000000000000000D+00 -.000000000000000D+00 0.000000000000000D+00 -.000000000000000D+00
 0.108243755069133D+04 0.000000000000000D+00 0.000000000000000D+00 0.108243755069133D+04
 0.150536370181500D+04 0.000000000000000D+00 0.000000000000000D+00 -.150536370181500D+04
 0.146875559657057D+03 0.627180821772136D+01 -.805958153966318D+02 -.925753370635797D+02
 0.742362045057594D+03 0.426136053837268D+02 -.179045356811532D+03 0.719185822150662D+03
 0.205360091339211D+03 -.301317817894362D+02 -.709835732846344D+02 0.190331750280366D+03
 0.847895040052991D+03 0.178342526744639D+03 -.115143867484407D+03 -.816942235367449D+03
 0.645308516399472D+03 -.197096158556651D+03 0.445768612977205D+03 -.422926151123666D+03
0.893010338128D-03 0.000000000000D+00 0.000000000000D+00 0.341213869300D-04 0.000000000000D+00  7 1 -1 24 -11 11 -24 21 0 0.18784715D+00 0.11137475D+00 0.27294407D+05 0.27294407D+05 0.27294407D+05 0.11711636D+01  1  2  2  1  7  1        1 0.103130997901D-02 0.100000000000D+01
0.132773198289D-03 0.000000000000D+00 -.342939483343D-05 0.341213869300D-04 0.000000000000D+00  7 1 -1 24 -11 11 -24 21 2 0.18784715D+00 0.11137475D+00 0.27294407D+05 0.27294407D+05 0.27294407D+05 0.11711636D+01  1  2  3  1  7  1        1 0.210318904987D-03 0.100000000000D+01
0.518387297089D-04 0.000000000000D+00 0.000000000000D+00 0.341213869300D-04 0.000000000000D+00  7 1 -1 24 -11 11 -24 21 2 0.18784715D+00 0.11137475D+00 0.27294407D+05 0.27294407D+05 0.27294407D+05 0.11711636D+01  1  2 15  1  7  1        1 0.821149524813D-04 0.100000000000D+01
-.102117534051D-03 0.000000000000D+00 0.000000000000D+00 0.341213869300D-04 0.000000000000D+00  7 1 -1 24 -11 11 -24 21 2 0.18784715D+00 0.11137475D+00 0.27294407D+05 0.27294407D+05 0.27294407D+05 0.11711636D+01  1  2  4  1  7  1        1 -.161758910822D-03 0.100000000000D+01
  </mgrwgt>
  </event>
  <event>
  8     66 0.27727860E-05 0.15158367E+03 0.75467711E-02 0.96784011E-01
        1 -1    0    0  501    0 0.00000000E+00 0.00000000E+00 0.12409800E+04 0.12409800E+04 0.32000000E+00 0.0000E+00 0.9000E+01
       -1 -1    0    0    0  501 0.00000000E+00 0.00000000E+00 -.20476780E+03 0.20476805E+03 0.32000000E+00 0.0000E+00 0.9000E+01
       25  2    1    2    0    0 0.27206192E+03 -.21395040E+03 0.13590829E+03 0.47709923E+03 0.29893168E+03 0.0000E+00 0.0000E+00
       23  2    1    2    0    0 -.27206192E+03 0.21395040E+03 0.90030388E+03 0.96864884E+03 0.89112467E+02 0.0000E+00 0.0000E+00
       24  1    3    3    0    0 0.26359666E+03 -.11646805E+03 0.17237967E+03 0.34529693E+03 0.80419002E+02 0.0000E+00 0.9000E+01
      -11  1    4    4    0    0 -.22393291E+03 0.18250917E+03 0.82357699E+03 0.87277409E+03 0.51099893E-03 0.0000E+00 0.9000E+01
       11  1    4    4    0    0 -.48129010E+02 0.31441224E+02 0.76726888E+02 0.95874749E+02 0.51099893E-03 0.0000E+00 0.9000E+01
      -24  1    3    3    0    0 0.84652596E+01 -.97482349E+02 -.36471374E+02 0.13180230E+03 0.80419002E+02 0.0000E+00 0.9000E+01
#aMCatNLO 1  0  0  1  2 0.57377827D+02 0.00000000D+00  -5  7  0 0.00000000D+00 0.00000000D+00 0.00000000D+00 0.00000000D+00 0.00000000D+00
  <mgrwgt>
 0.9752773725D-03    9    2    0
 0.504096174713583D+03 0.000000000000000D+00 0.000000000000000D+00 0.504096174713583D+03
 0.504096174713583D+03 0.000000000000000D+00 0.000000000000000D+00 -.504096174713583D+03
 0.317985418081563D+03 0.263596662546239D+03 -.116468047603879D+03 -.107700991360157D+03
 0.405092291070298D+03 -.223932912050599D+03 0.182509172457690D+03 0.283979254795013D+03
 0.586251206785492D+02 -.481290100896179D+02 0.314412238792766D+02 0.114870624330645D+02
 0.226489519596756D+03 0.846525959397776D+01 -.974823487330869D+02 -.187765325867920D+03
 0.000000000000000D+00 -.000000000000000D+00 0.000000000000000D+00 0.000000000000000D+00
 0.573301525294812D+03 0.000000000000000D+00 0.000000000000000D+00 0.573301525294812D+03
 0.516946652280461D+03 0.000000000000000D+00 0.000000000000000D+00 -.516946652280461D+03
 0.330268235189364D+03 0.270505474285790D+03 -.133555891154924D+03 -.107700991360157D+03
 0.391341168674063D+03 -.215444862953321D+03 0.161515337266389D+03 0.283979254795013D+03
 0.560343676480290D+02 -.469070180267818D+02 0.284188214781774D+02 0.114870624330645D+02
 0.232179989595076D+03 0.133535641545296D+02 -.109572790144651D+03 -.187765325867920D+03
 0.804244164687407D+02 -.215071574602164D+02 0.531945225550081D+02 0.563548730143512D+02
0.521080887621D-04 0.000000000000D+00 0.000000000000D+00 0.444535811260D-06 0.000000000000D+00  7 1 -1 24 -11 11 -24 21 0 0.19092002D+00 0.31502761D-01 0.14908177D+06 0.14908177D+06 0.14908177D+06 0.11077624D+01  1  2  2  1  7  1        1 0.585338366981D-03 0.100000000000D+01
-.264464552860D-05 0.000000000000D+00 -.200108781221D-06 0.444535811260D-06 0.000000000000D+00  7 1 -1 24 -11 11 -24 21 2 0.19092002D+00 0.31502761D-01 0.14908177D+06 0.14908177D+06 0.14908177D+06 0.11077624D+01  1  2  3  1  7  1        1 -.364554579644D-04 0.100000000000D+01
0.314137829331D-05 0.000000000000D+00 0.000000000000D+00 0.444535811260D-06 0.000000000000D+00  7 1 -1 24 -11 11 -24 21 2 0.19092002D+00 0.31502761D-01 0.14908177D+06 0.14908177D+06 0.14908177D+06 0.11077624D+01  1  2 15  1  7  1        1 0.433027349350D-04 0.100000000000D+01
0.149934877900D-03 0.000000000000D+00 0.000000000000D+00 0.444535811260D-06 0.000000000000D+00  7 1 -1 24 -11 11 -24 21 2 0.21934150D+00 0.31502761D-01 0.17233815D+06 0.17233815D+06 0.17233815D+06 0.11028253D+01  1  2 12  1  7  1        1 0.152376816975D-02 0.100000000000D+01
-.152508771459D-03 0.000000000000D+00 0.000000000000D+00 0.444535811260D-06 0.000000000000D+00  7 1 -1 24 -11 11 -24 21 2 0.19092002D+00 0.31502761D-01 0.14908177D+06 0.14908177D+06 0.14908177D+06 0.11077624D+01  1  2  4  1  7  1        1 -.210227686357D-02 0.100000000000D+01
-.262945580586D-03 0.000000000000D+00 -.457125294295D-04 0.444535811260D-06 0.000000000000D+00  7 1 -1 24 -11 11 -24 21 2 0.21967605D+00 0.31502761D-01 0.14908177D+06 0.14908177D+06 0.14908177D+06 0.11077624D+01  1  2  5  1  7  1        1 -.270159847100D-02 0.100000000000D+01
0.267171454228D-03 0.000000000000D+00 0.452662891574D-04 0.444535811260D-06 0.000000000000D+00  7 1 -1 24 -11 11 -24 21 2 0.19092002D+00 0.31502761D-01 0.14908177D+06 0.14908177D+06 0.14908177D+06 0.11077624D+01  1  2  6  1  7  1        1 0.368285942806D-02 0.100000000000D+01
0.321004559659D-05 0.000000000000D+00 0.000000000000D+00 0.444535811260D-06 0.000000000000D+00  7 21 -1 24 -11 11 -24 -1 2 0.21934150D+00 0.31502761D-01 0.17233815D+06 0.17233815D+06 0.17233815D+06 0.11028253D+01  1  2 12  3  7  1        1 0.277900733156D-04 0.100000000000D+01
-.539897592182D-05 0.000000000000D+00 -.987491727877D-06 0.444535811260D-06 0.000000000000D+00  7 21 -1 24 -11 11 -24 -1 2 0.21967605D+00 0.31502761D-01 0.14908177D+06 0.14908177D+06 0.14908177D+06 0.11077624D+01  1  2  5  3  7  1        1 -.474506080255D-04 0.100000000000D+01
  </mgrwgt>
  </event>
  <event>
  8     66 0.27727860E-05 0.10586921E+03 0.75467711E-02 0.10008922E+00
        1 -1    0    0  501    0 0.00000000E+00 0.00000000E+00 0.12331671E+04 0.12331672E+04 0.32000000E+00 0.0000E+00 0.9000E+01
       -1 -1    0    0    0  501 0.00000000E+00 0.00000000E+00 -.15942625E+03 0.15942657E+03 0.32000000E+00 0.0000E+00 0.9000E+01
       25  2    1    2    0    0 0.43068783E+02 0.13380309E+03 0.11575714E+04 0.12040330E+04 0.29994315E+03 0.0000E+00 0.0000E+00
       23  2    1    2    0    0 -.43068783E+02 -.13380309E+03 -.83830500E+02 0.18856070E+03 0.93645069E+02 0.0000E+00 0.0000E+00
       24  1    3    3    0    0 -.61169685E+02 0.14354004E+03 0.42772271E+03 0.46234122E+03 0.80419002E+02 0.0000E+00 0.9000E+01
      -11  1    4    4    0    0 0.27072333E+02 -.35396669E+02 -.40394843E+02 0.60146311E+02 0.51099893E-03 0.0000E+00 0.9000E+01
       11  1    4    4    0    0 -.70141116E+02 -.98406418E+02 -.43435657E+02 0.12841439E+03 0.51099893E-03 0.0000E+00 0.9000E+01
      -24  1    3    3    0    0 0.10423847E+03 -.97369538E+01 0.72984865E+03 0.74169181E+03 0.80419002E+02 0.0000E+00 0.9000E+01
#aMCatNLO 1  0  0  2  1 0.15675664D+03 0.00000000D+00  -5  7  0 0.00000000D+00 0.00000000D+00 0.00000000D+00 0.00000000D+00 0.00000000D+00
  <mgrwgt>
 0.5017169453D-03    9    2    0
 0.443395381750307D+03 0.000000000000000D+00 0.000000000000000D+00 0.443395381750307D+03
 0.443395381750307D+03 0.000000000000000D+00 0.000000000000000D+00 -.443395381750307D+03
 0.208155231554011D+03 -.611696847740354D+02 0.143540040943782D+03 0.111874531415491D+03
 0.143362981805084D+03 0.270723325093380D+02 -.353966688425953D+02 -.136261180089548D+03
 0.254251310452357D+03 -.701411157071932D+02 -.984064183208458D+02 -.223696512237795D+03
 0.281021239689162D+03 0.104238467971891D+03 -.973695378034122D+01 0.248083160911852D+03
 0.000000000000000D+00 -.000000000000000D+00 -.000000000000000D+00 -.000000000000000D+00
 0.515757171170579D+03 0.000000000000000D+00 0.000000000000000D+00 0.515757171170579D+03
 0.544075886158222D+03 0.000000000000000D+00 0.000000000000000D+00 -.544075886158222D+03
 0.225296405480592D+03 -.384920434946854D+02 0.174050872380095D+03 0.111874531415491D+03
 0.143418531164600D+03 0.420763784535838D+02 -.152100052020325D+02 -.136261180089548D+03
 0.236835657724899D+03 -.444480668183311D+02 -.638386132269868D+02 -.223696512237795D+03
 0.294988412607764D+03 0.134374564256123D+03 0.308085924936432D+02 0.248083160911852D+03
 0.159294050350947D+03 -.935108323966900D+02 -.125810846444719D+03 -.283187149876435D+02
0.299685902605D-04 0.000000000000D+00 0.000000000000D+00 0.109865013726D-05 0.000000000000D+00  7 1 -1 24 -11 11 -24 21 0 0.18971805D+00 0.24527144D-01 0.55922187D+05 0.55922187D+05 0.55922187D+05 0.11430437D+01  1  2  2  2  7  2       -1 0.530659431620D-03 0.100000000000D+01
-.865033857595D-06 0.000000000000D+00 -.115087277511D-06 0.109865013726D-05 0.000000000000D+00  7 1 -1 24 -11 11 -24 21 2 0.18971805D+00 0.24527144D-01 0.55922187D+05 0.55922187D+05 0.55922187D+05 0.11430437D+01  1  2  3  2  7  2       -1 -.200128228859D-04 0.100000000000D+01
0.180936988605D-05 0.000000000000D+00 0.000000000000D+00 0.109865013726D-05 0.000000000000D+00  7 1 -1 24 -11 11 -24 21 2 0.18971805D+00 0.24527144D-01 0.55922187D+05 0.55922187D+05 0.55922187D+05 0.11430437D+01  1  2 15  2  7  2       -1 0.418603257512D-04 0.100000000000D+01
0.472009420829D-05 0.000000000000D+00 0.000000000000D+00 0.109865013726D-05 0.000000000000D+00  7 1 -1 24 -11 11 -24 21 2 0.18971805D+00 0.31713980D-01 0.10063021D+06 0.10063021D+06 0.10063021D+06 0.11214982D+01  1  2 12  2  7  2       -1 0.676290344836D-04 0.100000000000D+01
-.158895533361D-04 0.000000000000D+00 0.000000000000D+00 0.109865013726D-05 0.000000000000D+00  7 1 -1 24 -11 11 -24 21 2 0.18971805D+00 0.24527144D-01 0.55922187D+05 0.55922187D+05 0.55922187D+05 0.11430437D+01  1  2  4  2  7  2       -1 -.367609676615D-03 0.100000000000D+01
-.164258874638D-04 0.000000000000D+00 -.134823111005D-04 0.109865013726D-05 0.000000000000D+00  7 1 -1 24 -11 11 -24 21 2 0.18971805D+00 0.35045335D-01 0.55922187D+05 0.55922187D+05 0.55922187D+05 0.11430437D+01  1  2  5  2  7  2       -1 -.210744215803D-03 0.100000000000D+01
0.207190414508D-04 0.000000000000D+00 0.126671316258D-04 0.109865013726D-05 0.000000000000D+00  7 1 -1 24 -11 11 -24 21 2 0.18971805D+00 0.24527144D-01 0.55922187D+05 0.55922187D+05 0.55922187D+05 0.11430437D+01  1  2  6  2  7  2       -1 0.479341361359D-03 0.100000000000D+01
0.163013491477D-06 0.000000000000D+00 0.000000000000D+00 0.109865013726D-05 0.000000000000D+00  7 1 21 24 -11 11 -24 1 2 0.18971805D+00 0.31713980D-01 0.10063021D+06 0.10063021D+06 0.10063021D+06 0.11214982D+01  1  2 12  4  7  2       -1 0.250279186117D-04 0.100000000000D+01
-.327416953703D-06 0.000000000000D+00 -.590640456451D-06 0.109865013726D-05 0.000000000000D+00  7 1 21 24 -11 11 -24 1 2 0.18971805D+00 0.35045335D-01 0.55922187D+05 0.55922187D+05 0.55922187D+05 0.11430437D+01  1  2  5  4  7  2       -1 -.444344111760D-04 0.100000000000D+01
  </mgrwgt>
  </event>
  <event>
  8     66 0.27727860E-05 0.21619884E+03 0.75467711E-02 0.94359271E-01
        1 -1    0    0  501    0 0.00000000E+00 0.00000000E+00 0.93932441E+03 0.93932446E+03 0.32000000E+00 0.0000E+00 0.9000E+01
       -1 -1    0    0    0  501 0.00000000E+00 0.00000000E+00 -.22968293E+03 0.22968315E+03 0.32000000E+00 0.0000E+00 0.9000E+01
       25  2    1    2    0    0 -.40025945E+03 -.59293704E+02 0.30377927E+03 0.58865522E+03 0.30084839E+03 0.0000E+00 0.0000E+00
       23  2    1    2    0    0 0.40025945E+03 0.59293704E+02 0.40586221E+03 0.58035239E+03 0.91440622E+02 0.0000E+00 0.0000E+00
       24  1    3    3    0    0 -.32688003E+03 0.24518297E+02 0.11791380E+03 0.35752284E+03 0.80419002E+02 0.0000E+00 0.9000E+01
      -13  1    4    4    0    0 0.13272006E+03 -.35615200E+01 0.83940557E+02 0.15707746E+03 0.10565837E+00 0.0000E+00 0.9000E+01
       13  1    4    4    0    0 0.26753939E+03 0.62855224E+02 0.32192165E+03 0.42327493E+03 0.10565837E+00 0.0000E+00 0.9000E+01
      -24  1    3    3    0    0 -.73379429E+02 -.83812002E+02 0.18586547E+03 0.23113239E+03 0.80419002E+02 0.0000E+00 0.9000E+01
#aMCatNLO 1  0  0  2  1 0.13073559D+03 0.00000000D+00  -5  7  0 0.00000000D+00 0.00000000D+00 0.00000000D+00 0.00000000D+00 0.00000000D+00
  <mgrwgt>
 0.7450046099D-03    9    2    0
 0.464485673712397D+03 0.000000000000000D+00 0.000000000000000D+00 0.464485673712397D+03
 0.464485673712397D+03 0.000000000000000D+00 0.000000000000000D+00 -.464485673712397D+03
 0.359828526128757D+03 -.326880025029810D+03 0.245182972423869D+02 -.124730327500843D+03
 0.133542174386159D+03 0.132719883872806D+03 -.356160860414332D+01 -.143617446267168D+02
 0.286728806711683D+03 0.267539570346274D+03 0.628553128072680D+02 0.817630512464961D+02
 0.148871840198197D+03 -.733794291892698D+02 -.838120014455117D+02 0.573290208810640D+02
 0.000000000000000D+00 0.000000000000000D+00 -.000000000000000D+00 -.000000000000000D+00
 0.513778211628529D+03 0.000000000000000D+00 0.000000000000000D+00 0.513778211628529D+03
 0.564621477272911D+03 0.000000000000000D+00 0.000000000000000D+00 -.564621477272911D+03
 0.398959688071641D+03 -.365220896420188D+03 0.612997469115288D+02 -.124730327500843D+03
 0.121032613768950D+03 0.119856453696609D+03 0.877863282597280D+01 -.143617446267168D+02
 0.268507712697232D+03 0.239483979097625D+03 0.897698110966614D+02 0.817630512464961D+02
 0.149625541562231D+03 -.884622276701361D+02 -.693426591203129D+02 0.573290208810640D+02
 0.140274132801387D+03 0.943426912960891D+02 -.905055317138501D+02 -.508432656443814D+02
0.348614604927D-04 0.000000000000D+00 0.000000000000D+00 0.169058819985D-05 0.000000000000D+00  7 1 -1 24 -13 13 -24 21 0 0.14451147D+00 0.35335856D-01 0.19470205D+06 0.19470205D+06 0.19470205D+06 0.10987220D+01  1  2  2  2  7  2       -1 0.532265748531D-03 0.100000000000D+01
-.193054637879D-05 0.000000000000D+00 -.133877187525D-06 0.169058819985D-05 0.000000000000D+00  7 1 -1 24 -13 13 -24 21 2 0.14451147D+00 0.35335856D-01 0.19470205D+06 0.19470205D+06 0.19470205D+06 0.10987220D+01  1  2  3  2  7  2       -1 -.355826927987D-04 0.100000000000D+01
0.221252844458D-05 0.000000000000D+00 0.000000000000D+00 0.169058819985D-05 0.000000000000D+00  7 1 -1 24 -13 13 -24 21 2 0.14451147D+00 0.35335856D-01 0.19470205D+06 0.19470205D+06 0.19470205D+06 0.10987220D+01  1  2 15  2  7  2       -1 0.407800200070D-04 0.100000000000D+01
0.279200322232D-04 0.000000000000D+00 0.000000000000D+00 0.169058819985D-05 0.000000000000D+00  7 1 -1 24 -13 13 -24 21 2 0.14451147D+00 0.44510342D-01 0.26206051D+06 0.26206051D+06 0.26206051D+06 0.10889231D+01  1  2 12  2  7  2       -1 0.334753561364D-03 0.100000000000D+01
-.285000068336D-04 0.000000000000D+00 0.000000000000D+00 0.169058819985D-05 0.000000000000D+00  7 1 -1 24 -13 13 -24 21 2 0.14451147D+00 0.35335856D-01 0.19470205D+06 0.19470205D+06 0.19470205D+06 0.10987220D+01  1  2  4  2  7  2       -1 -.525295325231D-03 0.100000000000D+01
-.569019898284D-04 0.000000000000D+00 -.182264612411D-04 0.169058819985D-05 0.000000000000D+00  7 1 -1 24 -13 13 -24 21 2 0.14451147D+00 0.47111115D-01 0.19470205D+06 0.19470205D+06 0.19470205D+06 0.10987220D+01  1  2  5  2  7  2       -1 -.633603552842D-03 0.100000000000D+01
0.603591173763D-04 0.000000000000D+00 0.174977521182D-04 0.169058819985D-05 0.000000000000D+00  7 1 -1 24 -13 13 -24 21 2 0.14451147D+00 0.35335856D-01 0.19470205D+06 0.19470205D+06 0.19470205D+06 0.10987220D+01  1  2  6  2  7  2       -1 0.111250366984D-02 0.100000000000D+01
0.890545801277D-06 0.000000000000D+00 0.000000000000D+00 0.169058819985D-05 0.000000000000D+00  7 1 21 24 -13 13 -24 1 2 0.14451147D+00 0.44510342D-01 0.26206051D+06 0.26206051D+06 0.26206051D+06 0.10889231D+01  1  2 12  4  7  2       -1 0.100269784255D-03 0.100000000000D+01
-.175083472245D-05 0.000000000000D+00 -.683369467594D-06 0.169058819985D-05 0.000000000000D+00  7 1 21 24 -13 13 -24 1 2 0.14451147D+00 0.47111115D-01 0.19470205D+06 0.19470205D+06 0.19470205D+06 0.10987220D+01  1  2  5  4  7  2       -1 -.181086603184D-03 0.100000000000D+01
  </mgrwgt>
  </event>
  <event>
  8     66 0.27727860E-05 0.35793371E+03 0.75467711E-02 0.86200478E-01
        1 -1    0    0  501    0 0.00000000E+00 0.00000000E+00 0.52421757E+03 0.52421767E+03 0.32000000E+00 0.0000E+00 0.9000E+01
       -1 -1    0    0    0  501 0.00000000E+00 0.00000000E+00 -.55134178E+03 0.55134187E+03 0.32000000E+00 0.0000E+00 0.9000E+01
       25  2    1    2    0    0 0.21669620E+03 0.25684794E+03 0.34476607E+03 0.56619775E+03 0.29797340E+03 0.0000E+00 0.0000E+00
       23  2    1    2    0    0 -.21669620E+03 -.25684794E+03 -.37189028E+03 0.50936179E+03 0.90658368E+02 0.0000E+00 0.0000E+00
       24  1    3    3    0    0 0.73836344E+02 0.63461601E+02 -.13828933E+02 0.12703399E+03 0.80419002E+02 0.0000E+00 0.9000E+01
      -13  1    4    4    0    0 -.60159414E+02 -.73637397E+02 -.50506661E+02 0.10766873E+03 0.10565837E+00 0.0000E+00 0.9000E+01
       13  1    4    4    0    0 -.15653679E+03 -.18321054E+03 -.32138362E+03 0.40169306E+03 0.10565837E+00 0.0000E+00 0.9000E+01
      -24  1    3    3    0    0 0.14285986E+03 0.19338634E+03 0.35859500E+03 0.43916376E+03 0.80419002E+02 0.0000E+00 0.9000E+01
#aMCatNLO 1  0  0  2  1 0.10434012D+04 0.00000000D+00  -5  7  0 0.00000000D+00 0.00000000D+00 0.00000000D+00 0.00000000D+00 0.00000000D+00
  <mgrwgt>
 0.1284936972D-02    5    2    0
 0.537608734272647D+03 0.000000000000000D+00 0.000000000000000D+00 0.537608734272647D+03
 0.537608734272647D+03 0.000000000000000D+00 0.000000000000000D+00 -.537608734272647D+03
 0.126725551199123D+03 0.738363444155588D+02 0.634616005105214D+02 -.106286817781413D+02
 0.106428475394600D+03 -.601592828556435D+02 -.736372480124237D+02 -.478062419174570D+02
 0.393713788648231D+03 -.156536917951608D+03 -.183210690950631D+03 -.311352827851856D+03
 0.448349653303340D+03 0.142859856391693D+03 0.193386338452533D+03 0.369787751547455D+03
 0.000000000000000D+00 -.000000000000000D+00 -.000000000000000D+00 -.000000000000000D+00
 0.108162389477499D+04 0.000000000000000D+00 0.000000000000000D+00 0.108162389477499D+04
 0.156770346669663D+04 0.000000000000000D+00 0.000000000000000D+00 -.156770346669663D+04
 0.239714666359465D+03 0.770714411358752D+02 0.211997474981089D+03 -.106286817781413D+02
 0.755899090470404D+02 -.585523438507830D+02 0.143572452339612D+00 -.478062419174570D+02
 0.367564370760109D+03 -.149816016809373D+03 0.125372023786413D+03 -.311352827851856D+03
 0.815389600156981D+03 0.154016706863628D+03 0.705640742093420D+03 0.369787751547455D+03
 0.115106881514802D+04 -.227197873393473D+02 -.104315381331326D+04 -.486079571921648D+03
0.168408844646D-03 0.000000000000D+00 0.000000000000D+00 0.534879683430D-06 0.000000000000D+00  7 1 -1 24 -13 13 -24 21 0 0.80648872D-01 0.84821827D-01 0.12811654D+06 0.12811654D+06 0.12811654D+06 0.11129973D+01  1  2  2  2  7  2       -1 0.124722532500D-02 0.100000000000D+01
-.747369851440D-05 0.000000000000D+00 -.646734306508D-06 0.534879683430D-06 0.000000000000D+00  7 1 -1 24 -13 13 -24 21 2 0.80648872D-01 0.84821827D-01 0.12811654D+06 0.12811654D+06 0.12811654D+06 0.11129973D+01  1  2  3  2  7  2       -1 -.685652131514D-04 0.100000000000D+01
0.103589136160D-04 0.000000000000D+00 0.000000000000D+00 0.534879683430D-06 0.000000000000D+00  7 1 -1 24 -13 13 -24 21 2 0.80648872D-01 0.84821827D-01 0.12811654D+06 0.12811654D+06 0.12811654D+06 0.11129973D+01  1  2 15  2  7  2       -1 0.950347567177D-04 0.100000000000D+01
0.981630911885D-04 0.000000000000D+00 -.593439244853D-04 0.534879683430D-06 0.000000000000D+00  7 1 -1 24 -13 13 -24 21 2 0.80648872D-01 0.36633086D+00 0.12811654D+06 0.12811654D+06 0.12811654D+06 0.11129973D+01  1  2  5  2  7  2       -1 0.323855235946D-05 0.100000000000D+01
0.172102513050D-04 0.000000000000D+00 -.104549875195D-04 0.534879683430D-06 0.000000000000D+00  7 1 21 24 -13 13 -24 1 2 0.80648872D-01 0.36633086D+00 0.12811654D+06 0.12811654D+06 0.12811654D+06 0.11129973D+01  1  2  5  4  7  2       -1 0.800355112141D-05 0.100000000000D+01
  </mgrwgt>
  </event>
  <event>
  8     66 0.27727860E-05 0.60610701E+03 0.75467711E-02 0.85854149E-01
        1 -1    0    0  501    0 0.00000000E+00 0.00000000E+00 0.19918453E+04 0.19918453E+04 0.32000000E+00 0.0000E+00 0.9000E+01
       -1 -1    0    0    0  501 0.00000000E+00 0.00000000E+00 -.53637390E+03 0.53637400E+03 0.32000000E+00 0.0000E+00 0.9000E+01
       25  2    1    2    0    0 -.69394071E+03 0.70917859E+03 0.97051291E+03 0.14200515E+04 0.30027131E+03 0.0000E+00 0.0000E+00
       23  2    1    2    0    0 0.69394071E+03 -.70917859E+03 0.48495845E+03 0.11081678E+04 0.91450769E+02 0.0000E+00 0.0000E+00
       24  1    3    3    0    0 -.52535490E+03 0.57141564E+03 0.60650376E+03 0.98834591E+03 0.80419002E+02 0.0000E+00 0.9000E+01
      -13  1    4    4    0    0 0.13402581E+03 -.13314461E+03 0.13351648E+03 0.23133756E+03 0.10565837E+00 0.0000E+00 0.9000E+01
       13  1    4    4    0    0 0.55991491E+03 -.57603397E+03 0.35144197E+03 0.87683026E+03 0.10565837E+00 0.0000E+00 0.9000E+01
      -24  1    3    3    0    0 -.16858581E+03 0.13776295E+03 0.36400915E+03 0.43170555E+03 0.80419002E+02 0.0000E+00 0.9000E+01
#aMCatNLO 1  0  0  1  2 0.31885822D+03 0.00000000D+00  -5  7  0 0.00000000D+00 0.00000000D+00 0.00000000D+00 0.00000000D+00 0.00000000D+00
  <mgrwgt>
 0.1167246561D-02    9    2    0
 0.103362177215747D+04 0.000000000000000D+00 0.000000000000000D+00 0.103362177215747D+04
 0.103362177215747D+04 0.000000000000000D+00 0.000000000000000D+00 -.103362177215747D+04
 0.781720345825034D+03 -.525354903139370D+03 0.571415643619599D+03 0.458897711550391D+02
 0.188918676580699D+03 0.134025238744871D+03 -.133144023433850D+03 0.413236287829761D+00
 0.824918388553286D+03 0.559915474093142D+03 -.576034565412631D+03 -.187534501077226D+03
 0.271686133355926D+03 -.168585809698643D+03 0.137762945226882D+03 0.141231493634357D+03
 0.000000000000000D+00 0.000000000000000D+00 0.000000000000000D+00 0.000000000000000D+00
 0.121027444167507D+04 0.000000000000000D+00 0.000000000000000D+00 0.121027444167507D+04
 0.120042570077409D+04 0.000000000000000D+00 0.000000000000000D+00 -.120042570077409D+04
 0.766848783114306D+03 -.594778650245120D+03 0.475102437717859D+03 0.458897711550391D+02
 0.195724450165890D+03 0.116781341357151D+03 -.157066890016117D+03 0.413236287829761D+00
 0.856250209863239D+03 0.484547173487449D+03 -.680594790945303D+03 -.187534501077226D+03
 0.272866409326793D+03 -.192998590053428D+03 0.103894517794366D+03 0.141231493634357D+03
 0.319010289978935D+03 0.186448725453948D+03 0.258664725449196D+03 0.984874090098075D+01
0.123403151845D-02 0.000000000000D+00 0.000000000000D+00 0.291274395225D-04 0.000000000000D+00  7 1 -1 24 -13 13 -24 21 0 0.30643774D+00 0.82519071D-01 0.10047075D+07 0.10047075D+07 0.10047075D+07 0.10477282D+01  1  2  2  1  7  1        1 0.658528836401D-03 0.100000000000D+01
-.684786388107D-04 0.000000000000D+00 -.473900595883D-05 0.291274395225D-04 0.000000000000D+00  7 1 -1 24 -13 13 -24 21 2 0.30643774D+00 0.82519071D-01 0.10047075D+07 0.10047075D+07 0.10047075D+07 0.10477282D+01  1  2  3  1  7  1        1 -.401144590427D-04 0.100000000000D+01
0.752778378518D-04 0.000000000000D+00 0.000000000000D+00 0.291274395225D-04 0.000000000000D+00  7 1 -1 24 -13 13 -24 21 2 0.30643774D+00 0.82519071D-01 0.10047075D+07 0.10047075D+07 0.10047075D+07 0.10477282D+01  1  2 15  1  7  1        1 0.440973973165D-04 0.100000000000D+01
0.677554832786D-03 0.000000000000D+00 0.000000000000D+00 0.291274395225D-04 0.000000000000D+00  7 1 -1 24 -13 13 -24 21 2 0.37967600D+00 0.82519071D-01 0.13794397D+07 0.13794397D+07 0.13794397D+07 0.10386891D+01  1  2 12  1  7  1        1 0.179466697238D-03 0.100000000000D+01
-.615274635415D-03 0.000000000000D+00 0.000000000000D+00 0.291274395225D-04 0.000000000000D+00  7 1 -1 24 -13 13 -24 21 2 0.30643774D+00 0.82519071D-01 0.10047075D+07 0.10047075D+07 0.10047075D+07 0.10477282D+01  1  2  4  1  7  1        1 -.360424938215D-03 0.100000000000D+01
-.194316609338D-02 0.000000000000D+00 -.606454419154D-03 0.291274395225D-04 0.000000000000D+00  7 1 -1 24 -13 13 -24 21 2 0.38473507D+00 0.82519071D-01 0.10047075D+07 0.10047075D+07 0.10047075D+07 0.10477282D+01  1  2  5  1  7  1        1 -.508668457404D-03 0.100000000000D+01
0.204339997399D-02 0.000000000000D+00 0.591086644550D-03 0.291274395225D-04 0.000000000000D+00  7 1 -1 24 -13 13 -24 21 2 0.30643774D+00 0.82519071D-01 0.10047075D+07 0.10047075D+07 0.10047075D+07 0.10477282D+01  1  2  6  1  7  1        1 0.119701393001D-02 0.100000000000D+01
0.204374559710D-04 0.000000000000D+00 0.000000000000D+00 0.291274395225D-04 0.000000000000D+00  7 21 -1 24 -13 13 -24 -1 2 0.37967600D+00 0.82519071D-01 0.13794397D+07 0.13794397D+07 0.13794397D+07 0.10386891D+01  1  2 12  3  7  1        1 0.175220139525D-05 0.100000000000D+01
-.526237813175D-04 0.000000000000D+00 -.191374301360D-04 0.291274395225D-04 0.000000000000D+00  7 21 -1 24 -13 13 -24 -1 2 0.38473507D+00 0.82519071D-01 0.10047075D+07 0.10047075D+07 0.10047075D+07 0.10477282D+01  1  2  5  3  7  1        1 -.440464673994D-05 0.100000000000D+01
  </mgrwgt>
  </event>
  <event>
  9     66 -.27727860E-05 0.42281962E+03 0.75467711E-02 0.96480455E-01
        1 -1    0    0  501    0 0.00000000E+00 0.00000000E+00 0.19558812E+04 0.19558813E+04 0.32000000E+00 0.0000E+00 0.9000E+01
       -1 -1    0    0    0  502 0.00000000E+00 0.00000000E+00 -.99412968E+02 0.99413483E+02 0.32000000E+00 0.0000E+00 0.9000E+01
       25  2    1    2    0    0 -.36916223E+03 -.38802577E+02 0.12660552E+04 0.13521599E+04 0.29606428E+03 0.0000E+00 0.0000E+00
       23  2    1    2    0    0 0.36294600E+03 0.38210620E+02 0.58205916E+03 0.69267822E+03 0.88433040E+02 0.0000E+00 0.0000E+00
       24  1    3    3    0    0 -.36179129E+03 0.19783643E+02 0.92103259E+03 0.99300180E+03 0.80419002E+02 0.0000E+00 0.9000E+01
      -11  1    4    4    0    0 0.17131840E+03 0.60662694E+02 0.25931899E+03 0.31666432E+03 0.51099893E-03 0.0000E+00 0.9000E+01
       11  1    4    4    0    0 0.19162760E+03 -.22452074E+02 0.32274017E+03 0.37601390E+03 0.51099893E-03 0.0000E+00 0.9000E+01
      -24  1    3    3    0    0 -.73709407E+01 -.58586220E+02 0.34502263E+03 0.35915806E+03 0.80419002E+02 0.0000E+00 0.9000E+01
       21  1    1    2  501  502 0.62162345E+01 0.59195711E+00 0.83538876E+01 0.10456669E+02 0.75000000E+00 0.0000E+00 0.9000E+01
#aMCatNLO 2  0  0  2  1 0.62443562D+01 0.00000000D+00  -5  7  0 0.00000000D+00 0.00000000D+00 0.00000000D+00 0.00000000D+00 0.00000000D+00
  <mgrwgt>
 -.1026014936D-03    3    2    0
 0.437549141580441D+03 0.000000000000000D+00 0.000000000000000D+00 0.437549141580441D+03
 0.437549141580441D+03 0.000000000000000D+00 0.000000000000000D+00 -.437549141580441D+03
 0.372663344183247D+03 -.359135076278244D+03 0.200365882105784D+02 0.550571000232519D+02
 0.193551947191826D+03 0.172688783095287D+03 0.607931923943683D+02 -.628102556380525D+02
 0.198383084909122D+03 0.193031994406818D+03 -.223183370112637D+02 -.399548413391628D+02
 0.110499906876688D+03 -.658570122386104D+01 -.585114435936830D+02 0.477079969539634D+02
 0.000000000000000D+00 0.000000000000000D+00 0.000000000000000D+00 -.000000000000000D+00
 0.439653818182368D+03 0.000000000000000D+00 0.000000000000000D+00 0.439653818182368D+03
 0.442216512885591D+03 0.000000000000000D+00 0.000000000000000D+00 -.442216512885591D+03
 0.375210383102385D+03 -.361791291815071D+03 0.197836431751082D+02 0.550571000232519D+02
 0.192289061705278D+03 0.171318395494833D+03 0.606626936696229D+02 -.628102556380525D+02
 0.197032035517037D+03 0.191627602531489D+03 -.224520738815568D+02 -.399548413391628D+02
 0.110589081184444D+03 -.737094074182181D+01 -.585862200698272D+02 0.477079969539634D+02
 0.674976955881467D+01 0.621623453057073D+01 0.591957106652846D+00 -.256269470322247D+01
-.693283362350D-05 0.000000000000D+00 0.000000000000D+00 0.332817654517D-08 0.000000000000D+00  7 1 -1 24 -11 11 -24 21 2 0.29945026D+00 0.15329734D-01 0.18140886D+06 0.18140886D+06 0.18140886D+06 0.11010945D+01  1  2 13  2  7  2       -1 -.102492530078D-03 0.100000000000D+01
-.200584448168D-03 0.000000000000D+00 0.000000000000D+00 0.332817654517D-08 0.000000000000D+00  7 1 -1 24 -11 11 -24 21 2 0.29945026D+00 0.15132207D-01 0.17877643D+06 0.17877643D+06 0.17877643D+06 0.11015869D+01  1  2  8  2  7  2       -1 -.303113924376D-02 0.100000000000D+01
0.207191025231D-03 0.000000000000D+00 0.000000000000D+00 0.332817654517D-08 0.552111490715D-09  7 1 -1 24 -11 11 -24 21 2 0.30089066D+00 0.15293623D-01 0.18140886D+06 0.18140886D+06 0.18140886D+06 0.11010945D+01  1  2  1  2  7  2       -1 0.303103028026D-02 0.100000000000D+01
  </mgrwgt>
  </event>
  <event>
  9     66 0.27727860E-05 0.26343012E+03 0.75467711E-02 0.98116539E-01
        1 -1    0    0  501    0 0.00000000E+00 0.00000000E+00 0.18369840E+04 0.18369841E+04 0.32000000E+00 0.0000E+00 0.9000E+01
       21 -1    0    0  502  501 0.00000000E+00 0.00000000E+00 -.12799213E+03 0.12799432E+03 0.75000000E+00 0.0000E+00 0.9000E+01
       25  2    1    2    0    0 -.20099610E+03 0.13347056E+03 0.29202299E+03 0.48269431E+03 0.29916976E+03 0.0000E+00 0.0000E+00
       23  2    1    2    0    0 0.14388684E+03 0.44117987E+02 0.11032915E+04 0.11173282E+04 0.92305949E+02 0.0000E+00 0.0000E+00
       24  1    3    3    0    0 0.51421233E+02 0.37339045E+02 0.80140086E+02 0.13010764E+03 0.80419002E+02 0.0000E+00 0.9000E+01
      -11  1    4    4    0    0 0.66981745E+02 0.64368085E+02 0.71219661E+03 0.71822964E+03 0.51099893E-03 0.0000E+00 0.9000E+01
       11  1    4    4    0    0 0.76905093E+02 -.20250098E+02 0.39109487E+03 0.39909855E+03 0.51099893E-03 0.0000E+00 0.9000E+01
      -24  1    3    3    0    0 -.25241734E+03 0.96131515E+02 0.21188291E+03 0.35258667E+03 0.80419002E+02 0.0000E+00 0.9000E+01
        1  1    1    2  502    0 0.57109266E+02 -.17758855E+03 0.31367744E+03 0.36495588E+03 0.32000000E+00 0.0000E+00 0.9000E+01
#aMCatNLO 2  0  0  2  1 0.18654533D+03 0.00000000D+00  -5  7  0 0.00000000D+00 0.00000000D+00 0.00000000D+00 0.00000000D+00 0.00000000D+00
  <mgrwgt>
 0.8200106577D-04    1    2    0
 0.380253328591178D+03 0.000000000000000D+00 0.000000000000000D+00 0.380253328591178D+03
 0.380253328591178D+03 0.000000000000000D+00 0.000000000000000D+00 -.380253328591178D+03
 0.121840044522368D+03 0.604817889953971D+02 0.916409134737116D+01 -.680863651881593D+02
 0.194396185774875D+03 0.815187529766110D+02 0.191634050716741D+02 0.175434699711936D+03
 0.132614903038235D+03 0.861994883710507D+02 -.491522058479182D+02 0.879796645406964D+02
 0.311655523846877D+03 -.228200030343059D+03 0.208247094288730D+02 -.195327999064473D+03
 0.000000000000000D+00 0.000000000000000D+00 -.000000000000000D+00 -.000000000000000D+00
 0.480230921240598D+03 0.000000000000000D+00 0.000000000000000D+00 0.480230921240598D+03
 0.489601014995306D+03 0.000000000000000D+00 0.000000000000000D+00 -.489601014995306D+03
 0.123050057264211D+03 0.514212333236495D+02 0.373390449435249D+02 -.680863651881593D+02
 0.198512313069905D+03 0.669817451444675D+02 0.643680852189090D+02 0.175434699711936D+03
 0.118595451819859D+03 0.769050930937158D+02 -.202500981703755D+02 0.879796645406964D+02
 0.342893603951744D+03 -.252417337490416D+03 0.961315150840933D+02 -.195327999064473D+03
 0.186780510130185D+03 0.571092659285835D+02 -.177588547076152D+03 -.937009375470852D+01
0.565587945105D-06 0.000000000000D+00 0.000000000000D+00 0.544531401345D-06 0.477097323088D-11  7 1 21 24 -11 11 -24 1 2 0.28261302D+00 0.19691262D-01 0.13811854D+06 0.13811854D+06 0.13811854D+06 0.11103913D+01  1  2  1  4  7  2       -1 0.820010657682D-04 0.100000000000D+01
  </mgrwgt>
  </event>
  <event>
  8     66 0.27727860E-05 0.26865506E+03 0.75467711E-02 0.87633702E-01
        1 -1    0    0  501    0 0.00000000E+00 0.00000000E+00 0.17659524E+04 0.17659524E+04 0.32000000E+00 0.0000E+00 0.9000E+01
       -1 -1    0    0    0  501 0.00000000E+00 0.00000000E+00 -.56134498E+02 0.56135410E+02 0.32000000E+00 0.0000E+00 0.9000E+01
       25  2    1    2    0    0 0.61592790E+02 0.21750368E+03 0.88103714E+03 0.95811329E+03 0.30108653E+03 0.0000E+00 0.0000E+00
       23  2    1    2    0    0 -.61592790E+02 -.21750368E+03 0.82878073E+03 0.86397452E+03 0.92048654E+02 0.0000E+00 0.0000E+00
       24  1    3    3    0    0 0.83502220E+02 0.77316294E+02 0.13344752E+03 0.19294011E+03 0.80419002E+02 0.0000E+00 0.9000E+01
      -13  1    4    4    0    0 -.71535932E+02 -.21146030E+03 0.81866923E+03 0.84855888E+03 0.10565837E+00 0.0000E+00 0.9000E+01
       13  1    4    4    0    0 0.99431421E+01 -.60433814E+01 0.10111498E+02 0.15415645E+02 0.10565837E+00 0.0000E+00 0.9000E+01
      -24  1    3    3    0    0 -.21909429E+02 0.14018739E+03 0.74758963E+03 0.76517318E+03 0.80419002E+02 0.0000E+00 0.9000E+01
#aMCatNLO 1  0  0  2  2 0.90400027D+03 0.00000000D+00  -5  7  0 0.00000000D+00 0.00000000D+00 0.00000000D+00 0.00000000D+00 0.00000000D+00
  <mgrwgt>
 0.1095693698D-02    3    2    0
 0.314851880211347D+03 0.000000000000000D+00 0.000000000000000D+00 0.314851880211347D+03
 0.314851880211347D+03 0.000000000000000D+00 0.000000000000000D+00 -.314851880211347D+03
 0.195937961168093D+03 0.835022190647967D+02 0.773162960195656D+02 -.137746282902328D+03
 0.232448481490871D+03 -.715360401995352D+02 -.211460571570142D+03 0.648021463472564D+02
 0.171503797457409D+02 0.994324923028667D+01 -.604311105137943D+01 -.125995289192977D+02
 0.184166938017988D+03 -.219094280955482D+02 0.140187386601956D+03 0.855436654743698D+02
 0.000000000000000D+00 0.000000000000000D+00 -.000000000000000D+00 0.000000000000000D+00
 0.101150924080623D+04 0.000000000000000D+00 0.000000000000000D+00 0.101150924080623D+04
 0.994353985512873D+03 0.000000000000000D+00 0.000000000000000D+00 -.994353985512873D+03
 0.291022081722432D+03 -.139462944920996D+03 0.199506101751907D+03 -.137746282902328D+03
 0.350848146468396D+03 -.338610988553226D+03 -.650976354417344D+02 0.648021463472564D+02
 0.133182128439433D+02 -.400745338352615D+01 0.160218031045891D+01 -.125995289192977D+02
 0.446511751633918D+03 -.310679275875842D+03 0.298439603992651D+03 0.855436654743698D+02
 0.904163033650417D+03 0.792760662733590D+03 -.434450250613282D+03 0.171552552933587D+02
0.271508509662D-04 0.000000000000D+00 0.000000000000D+00 0.297098385981D-06 0.000000000000D+00  7 1 -1 24 -13 13 -24 21 0 0.27168505D+00 0.86361489D-02 0.72175539D+05 0.72175539D+05 0.72175539D+05 0.11335314D+01  1  2  2  2  7  2       -1 0.108503156102D-02 0.100000000000D+01
-.146220587890D-05 0.000000000000D+00 -.104266416693D-06 0.297098385981D-06 0.000000000000D+00  7 1 -1 24 -13 13 -24 21 2 0.27168505D+00 0.86361489D-02 0.72175539D+05 0.72175539D+05 0.72175539D+05 0.11335314D+01  1  2  3  2  7  2       -1 -.750817798767D-04 0.100000000000D+01
0.166984933060D-05 0.000000000000D+00 0.000000000000D+00 0.297098385981D-06 0.000000000000D+00  7 1 -1 24 -13 13 -24 21 2 0.27168505D+00 0.86361489D-02 0.72175539D+05 0.72175539D+05 0.72175539D+05 0.11335314D+01  1  2 15  2  7  2       -1 0.857439172393D-04 0.100000000000D+01
  </mgrwgt>
  </event>
  <event>
  8     66 0.27727860E-05 0.10688916E+03 0.75467711E-02 0.10614178E+00
        1 -1    0    0  501    0 0.00000000E+00 0.00000000E+00 0.38738157E+03 0.38738171E+03 0.32000000E+00 0.0000E+00 0.9000E+01
       -1 -1    0    0    0  501 0.00000000E+00 0.00000000E+00 -.19730230E+03 0.19730256E+03 0.32000000E+00 0.0000E+00 0.9000E+01
       25  2    1    2    0    0 0.14242205E+02 0.61812284E+02 -.49742143E+02 0.31074493E+03 0.30010753E+03 0.0000E+00 0.0000E+00
       23  2    1    2    0    0 -.14242205E+02 -.61812284E+02 0.23982141E+03 0.27393934E+03 0.11621038E+03 0.0000E+00 0.0000E+00
       24  1    3    3    0    0 0.97090525E+02 -.12793195E+02 -.10302381E+03 0.16331368E+03 0.80419002E+02 0.0000E+00 0.9000E+01
      -11  1    4    4    0    0 -.10736928E+02 -.95444630E+02 0.19873513E+03 0.22072746E+03 0.51099893E-03 0.0000E+00 0.9000E+01
       11  1    4    4    0    0 -.35052768E+01 0.33632346E+02 0.41086279E+02 0.53211878E+02 0.51099893E-03 0.0000E+00 0.9000E+01
      -24  1    3    3    0    0 -.82848320E+02 0.74605479E+02 0.53281670E+02 0.14743125E+03 0.80419002E+02 0.0000E+00 0.9000E+01
#aMCatNLO 1  0  0  1  2 0.11480198D+02 0.00000000D+00  -5  7  0 0.00000000D+00 0.00000000D+00 0.00000000D+00 0.00000000D+00 0.00000000D+00
  <mgrwgt>
 0.4984355613D-03    9    2    0
 0.276462279401823D+03 0.000000000000000D+00 0.000000000000000D+00 0.276462279401823D+03
 0.276462279401823D+03 0.000000000000000D+00 0.000000000000000D+00 -.276462279401823D+03
 0.208110909175758D+03 0.970905254970049D+02 -.127931935115147D+02 -.165083913880434D+03
 0.165086620038798D+03 -.107369290135132D+02 -.954446244899114D+02 0.134270749335710D+03
 0.421440775963965D+02 -.350527683330365D+01 0.336323378928354D+02 0.251535714886602D+02
 0.137582951992694D+03 -.828483196501880D+02 0.746054801085907D+02 0.565959305606360D+01
 0.000000000000000D+00 0.000000000000000D+00 0.000000000000000D+00 0.000000000000000D+00
 0.284585534602697D+03 0.000000000000000D+00 0.000000000000000D+00 0.284585534602697D+03
 0.280607933847472D+03 0.000000000000000D+00 0.000000000000000D+00 -.280607933847472D+03
 0.206403843337285D+03 0.931296620126277D+02 -.144740464750918D+02 -.165083913880434D+03
 0.166101550922558D+03 -.139015718274677D+02 -.967875890413227D+02 0.134270749335710D+03
 0.419473696158570D+02 -.430880611806888D+01 0.332913479584572D+02 0.251535714886602D+02
 0.138590961942133D+03 -.854872780091129D+02 0.734855977910478D+02 0.565959305606360D+01
 0.121497426323355D+02 0.105679939420217D+02 0.448468976690946D+01 0.397760075522424D+01
0.310465661403D-05 0.000000000000D+00 0.000000000000D+00 0.515615925653D-08 0.000000000000D+00  7 1 -1 24 -11 11 -24 21 0 0.59597195D-01 0.30354231D-01 0.38817994D+05 0.38817994D+05 0.38817994D+05 0.11570928D+01  1  2  2  1  7  1        1 0.228196148700D-03 0.100000000000D+01
-.148415501405D-06 0.000000000000D+00 -.119226988727D-07 0.515615925653D-08 0.000000000000D+00  7 1 -1 24 -11 11 -24 21 2 0.59597195D-01 0.30354231D-01 0.38817994D+05 0.38817994D+05 0.38817994D+05 0.11570928D+01  1  2  3  1  7  1        1 -.146052964896D-04 0.100000000000D+01
0.183493733075D-06 0.000000000000D+00 0.000000000000D+00 0.515615925653D-08 0.000000000000D+00  7 1 -1 24 -11 11 -24 21 2 0.59597195D-01 0.30354231D-01 0.38817994D+05 0.38817994D+05 0.38817994D+05 0.11570928D+01  1  2 15  1  7  1        1 0.180572807434D-04 0.100000000000D+01
0.641248824055D-05 0.000000000000D+00 0.000000000000D+00 0.515615925653D-08 0.000000000000D+00  7 1 -1 24 -11 11 -24 21 2 0.61785170D-01 0.30354231D-01 0.41046743D+05 0.41046743D+05 0.41046743D+05 0.11549099D+01  1  2 12  1  7  1        1 0.599388212726D-03 0.100000000000D+01
-.593873518751D-05 0.000000000000D+00 0.000000000000D+00 0.515615925653D-08 0.000000000000D+00  7 1 -1 24 -11 11 -24 21 2 0.59597195D-01 0.30354231D-01 0.38817994D+05 0.38817994D+05 0.38817994D+05 0.11570928D+01  1  2  4  1  7  1        1 -.584420005764D-03 0.100000000000D+01
-.653905981509D-04 0.000000000000D+00 -.101113459659D-04 0.515615925653D-08 0.000000000000D+00  7 1 -1 24 -11 11 -24 21 2 0.62120389D-01 0.30354231D-01 0.38817994D+05 0.38817994D+05 0.38817994D+05 0.11570928D+01  1  2  5  1  7  1        1 -.609263129222D-02 0.100000000000D+01
0.657620151868D-04 0.000000000000D+00 0.101026594262D-04 0.515615925653D-08 0.000000000000D+00  7 1 -1 24 -11 11 -24 21 2 0.59597195D-01 0.30354231D-01 0.38817994D+05 0.38817994D+05 0.38817994D+05 0.11570928D+01  1  2  6  1  7  1        1 0.647151894824D-02 0.100000000000D+01
0.113930456342D-06 0.000000000000D+00 0.000000000000D+00 0.515615925653D-08 0.000000000000D+00  7 21 -1 24 -11 11 -24 -1 2 0.61785170D-01 0.30354231D-01 0.41046743D+05 0.41046743D+05 0.41046743D+05 0.11549099D+01  1  2 12  3  7  1        1 0.407532181180D-04 0.100000000000D+01
-.472034762896D-06 0.000000000000D+00 -.739473772404D-07 0.515615925653D-08 0.000000000000D+00  7 21 -1 24 -11 11 -24 -1 2 0.62120389D-01 0.30354231D-01 0.38817994D+05 0.38817994D+05 0.38817994D+05 0.11570928D+01  1  2  5  3  7  1        1 -.167821652778D-03 0.100000000000D+01
  </mgrwgt>
  </event>
  <event>
  8     66 0.27727860E-05 0.30463937E+03 0.75467711E-02 0.98166629E-01
        1 -1    0    0  501    0 0.00000000E+00 0.00000000E+00 0.74093157E+03 0.74093164E+03 0.32000000E+00 0.0000E+00 0.9000E+01
       -1 -1    0    0    0  501 0.00000000E+00 0.00000000E+00 -.15361430E+03 0.15361463E+03 0.32000000E+00 0.0000E+00 0.9000E+01
       25  2    1    2    0    0 0.18741802E+03 0.13409199E+03 0.50990685E+03 0.63514775E+03 0.30050207E+03 0.0000E+00 0.0000E+00
       23  2    1    2    0    0 -.18741802E+03 -.13409199E+03 0.77410427E+02 0.25939853E+03 0.90493351E+02 0.0000E+00 0.0000E+00
       24  1    3    3    0    0 0.17528177E+03 -.27672690E+02 0.30273167E+03 0.36000438E+03 0.80419002E+02 0.0000E+00 0.9000E+01
      -13  1    4    4    0    0 -.18335376E+03 -.13657760E+03 0.90176587E+02 0.24577199E+03 0.10565837E+00 0.0000E+00 0.9000E+01
       13  1    4    4    0    0 -.40642559E+01 0.24856152E+01 -.12766160E+02 0.13626535E+02 0.10565837E+00 0.0000E+00 0.9000E+01
      -24  1    3    3    0    0 0.12136247E+02 0.16176468E+03 0.20717518E+03 0.27514337E+03 0.80419002E+02 0.0000E+00 0.9000E+01
#aMCatNLO 1  0  0  1  2 0.11909290D+03 0.00000000D+00  -5  7  0 0.00000000D+00 0.00000000D+00 0.00000000D+00 0.00000000D+00 0.00000000D+00
  <mgrwgt>
 0.1210436907D-02    4    2    0
 0.337369032121121D+03 0.000000000000000D+00 0.000000000000000D+00 0.337369032121121D+03
 0.337369032121121D+03 0.000000000000000D+00 0.000000000000000D+00 -.337369032121121D+03
 0.213773387348754D+03 0.175281772706977D+03 -.276726901366102D+02 0.879907242923529D+02
 0.247343913796548D+03 -.183354008523039D+03 -.136577791553337D+03 -.943759826711271D+02
 0.291774726514093D+02 -.406401168569704D+01 0.248580454580333D+01 -.287859252952258D+02
 0.184443290445529D+03 0.121362475017587D+02 0.161764677144144D+03 0.351711836740000D+02
 0.000000000000000D+00 -.000000000000000D+00 0.000000000000000D+00 -.000000000000000D+00
 0.357651040816941D+03 0.000000000000000D+00 0.000000000000000D+00 0.357651040816941D+03
 0.577913778241844D+03 0.000000000000000D+00 0.000000000000000D+00 -.577913778241844D+03
 0.229429492838027D+03 0.184838876964725D+03 -.652908740213406D+02 0.879907242923529D+02
 0.266562517855230D+03 -.172272272447783D+03 -.180197153045922D+03 -.943759826711271D+02
 0.290266048065830D+02 -.280891506661007D+01 -.245444243032890D+01 -.287859252952258D+02
 0.160148935899609D+03 0.195669389092736D+02 0.132516370521143D+03 0.351711836740000D+02
 0.250397267659336D+03 -.293246283596047D+02 0.115426098976448D+03 -.220262737424902D+03
0.290983401483D-04 0.000000000000D+00 0.000000000000D+00 0.137990809002D-05 0.000000000000D+00  7 1 -1 24 -13 13 -24 21 0 0.11398950D+00 0.23633000D-01 0.92805143D+05 0.92805143D+05 0.92805143D+05 0.11243929D+01  1  2  2  1  7  1        1 0.129146349090D-02 0.100000000000D+01
-.159610565821D-05 0.000000000000D+00 -.111745287938D-06 0.137990809002D-05 0.000000000000D+00  7 1 -1 24 -13 13 -24 21 2 0.11398950D+00 0.23633000D-01 0.92805143D+05 0.92805143D+05 0.92805143D+05 0.11243929D+01  1  2  3  1  7  1        1 -.895595147272D-04 0.100000000000D+01
0.186811120919D-05 0.000000000000D+00 0.000000000000D+00 0.137990809002D-05 0.000000000000D+00  7 1 -1 24 -13 13 -24 21 2 0.11398950D+00 0.23633000D-01 0.92805143D+05 0.92805143D+05 0.92805143D+05 0.11243929D+01  1  2 15  1  7  1        1 0.104822091502D-03 0.100000000000D+01
-.171603959857D-05 0.000000000000D+00 0.000000000000D+00 0.137990809002D-05 0.000000000000D+00  7 1 -1 24 -13 13 -24 21 2 0.11398950D+00 0.23633000D-01 0.92805143D+05 0.92805143D+05 0.92805143D+05 0.11243929D+01  1  2  4  1  7  1        1 -.962891603764D-04 0.100000000000D+01
  </mgrwgt>
  </event>
  <event>
  8     66 0.27727860E-05 0.13985666E+03 0.75467711E-02 0.10007569E+00
        3 -1    0    0  501    0 0.00000000E+00 0.00000000E+00 0.33050700E+03 0.33050737E+03 0.50000000E+00 0.0000E+00 0.9000E+01
       -3 -1    0    0    0  501 0.00000000E+00 0.00000000E+00 -.34090536E+03 0.34090573E+03 0.50000000E+00 0.0000E+00 0.9000E+01
       25  2    1    2    0    0 -.12092462E+03 0.40058960E+02 -.23640395E+03 0.40234615E+03 0.29961328E+03 0.0000E+00 0.0000E+00
       23  2    1    2    0    0 0.12092462E+03 -.40058960E+02 0.22600558E+03 0.26906695E+03 0.71351387E+02 0.0000E+00 0.0000E+00
       24  1    3    3    0    0 -.71637812E+02 0.13774866E+03 -.71960223E+02 0.18908241E+03 0.80419002E+02 0.0000E+00 0.9000E+01
      -13  1    4    4    0    0 0.12845139E+02 -.34445165E+02 0.71930204E+02 0.80780149E+02 0.10565837E+00 0.0000E+00 0.9000E+01
       13  1    4    4    0    0 0.10807948E+03 -.56137943E+01 0.15407537E+03 0.18828680E+03 0.10565837E+00 0.0000E+00 0.9000E+01
      -24  1    3    3    0    0 -.49286810E+02 -.97689702E+02 -.16444372E+03 0.21326374E+03 0.80419002E+02 0.0000E+00 0.9000E+01
#aMCatNLO 1  0  0  2  1 0.14763475D+03 0.00000000D+00  -5  7  0 0.00000000D+00 0.00000000D+00 0.00000000D+00 0.00000000D+00 0.00000000D+00
  <mgrwgt>
 0.1678243931D-03    9    2    0
 0.335666289338005D+03 0.000000000000000D+00 0.000000000000000D+00 0.335666289338005D+03
 0.335666289338005D+03 0.000000000000000D+00 0.000000000000000D+00 -.335666289338005D+03
 0.187990492713466D+03 -.716378123056915D+02 0.137748661830418D+03 -.690401289705111D+02
 0.819037373596271D+02 0.128449311554334D+02 -.344452278600011D+02 0.731898641531706D+02
 0.190696123904543D+03 0.108079691672412D+03 -.561373183736378D+01 0.157010438936624D+03
 0.210742224698373D+03 -.492868105221542D+02 -.976897021330536D+02 -.161160174119283D+03
 0.000000000000000D+00 -.000000000000000D+00 -.000000000000000D+00 -.000000000000000D+00
 0.385288253333032D+03 0.000000000000000D+00 0.000000000000000D+00 0.385288253333032D+03
 0.474669393637314D+03 0.000000000000000D+00 0.000000000000000D+00 -.474669393637314D+03
 0.178335804679943D+03 -.318880002530449D+02 0.139832254176457D+03 -.690401289705111D+02
 0.862852343872535D+02 0.310949996431091D+02 -.334886018773365D+02 0.731898641531706D+02
 0.218923795737782D+03 0.152527264600316D+03 -.328389383385575D+01 0.157010438936624D+03
 0.203829480486870D+03 -.430192278486688D+01 -.953316993416779D+02 -.161160174119283D+03
 0.172583331678498D+03 -.147432341205514D+03 -.772805912358658D+01 -.893811403042812D+02
0.319579637270D-04 0.000000000000D+00 0.000000000000D+00 0.598540897174D-08 0.000000000000D+00  7 3 -3 24 -13 13 -24 21 0 0.50847287D-01 0.52447037D-01 0.51900670D+05 0.51900670D+05 0.51900670D+05 0.11458729D+01  1  2  2  2  7  2       -3 0.187348891058D-03 0.100000000000D+01
-.145117946222D-05 0.000000000000D+00 -.122726995437D-06 0.598540897174D-08 0.000000000000D+00  7 3 -3 24 -13 13 -24 21 2 0.50847287D-01 0.52447037D-01 0.51900670D+05 0.51900670D+05 0.51900670D+05 0.11458729D+01  1  2  3  2  7  2       -3 -.111703312478D-04 0.100000000000D+01
0.196663621041D-05 0.000000000000D+00 0.000000000000D+00 0.598540897174D-08 0.000000000000D+00  7 3 -3 24 -13 13 -24 21 2 0.50847287D-01 0.52447037D-01 0.51900670D+05 0.51900670D+05 0.51900670D+05 0.11458729D+01  1  2 15  2  7  2       -3 0.151380159975D-04 0.100000000000D+01
0.648312865190D-05 0.000000000000D+00 0.000000000000D+00 0.598540897174D-08 0.000000000000D+00  7 3 -3 24 -13 13 -24 21 2 0.50847287D-01 0.76771386D-01 0.10084472D+06 0.10084472D+06 0.10084472D+06 0.11214224D+01  1  2 12  2  7  2       -3 0.206970794141D-04 0.100000000000D+01
-.213623867697D-04 0.000000000000D+00 0.000000000000D+00 0.598540897174D-08 0.000000000000D+00  7 3 -3 24 -13 13 -24 21 2 0.50847287D-01 0.52447037D-01 0.51900670D+05 0.51900670D+05 0.51900670D+05 0.11458729D+01  1  2  4  2  7  2       -3 -.164435166480D-03 0.100000000000D+01
-.209965060004D-04 0.000000000000D+00 -.118888088491D-04 0.598540897174D-08 0.000000000000D+00  7 3 -3 24 -13 13 -24 21 2 0.50847287D-01 0.82765801D-01 0.51900670D+05 0.51900670D+05 0.51900670D+05 0.11458729D+01  1  2  5  2  7  2       -3 -.587860754488D-04 0.100000000000D+01
0.249200215005D-04 0.000000000000D+00 0.107505244746D-04 0.598540897174D-08 0.000000000000D+00  7 3 -3 24 -13 13 -24 21 2 0.50847287D-01 0.52447037D-01 0.51900670D+05 0.51900670D+05 0.51900670D+05 0.11458729D+01  1  2  6  2  7  2       -3 0.191819759107D-03 0.100000000000D+01
0.297831041272D-06 0.000000000000D+00 0.000000000000D+00 0.598540897174D-08 0.000000000000D+00  7 3 21 24 -13 13 -24 3 2 0.50847287D-01 0.76771386D-01 0.10084472D+06 0.10084472D+06 0.10084472D+06 0.11214224D+01  1  2 12  4  7  2       -3 0.145712610620D-04 0.100000000000D+01
-.621305404655D-06 0.000000000000D+00 -.624275247815D-06 0.598540897174D-08 0.000000000000D+00  7 3 21 24 -13 13 -24 3 2 0.50847287D-01 0.82765801D-01 0.51900670D+05 0.51900670D+05 0.51900670D+05 0.11458729D+01  1  2  5  4  7  2       -3 -.273590403592D-04 0.100000000000D+01
  </mgrwgt>
  </event>
  <event>
  8     66 0.27727860E-05 0.46864504E+03 0.75467711E-02 0.83001107E-01
        1 -1    0    0  501    0 0.00000000E+00 0.00000000E+00 0.33320048E+04 0.33320048E+04 0.32000000E+00 0.0000E+00 0.9000E+01
       -1 -1    0    0    0  501 0.00000000E+00 0.00000000E+00 -.87871307E+03 0.87871312E+03 0.32000000E+00 0.0000E+00 0.9000E+01
       25  2    1    2    0    0 0.46647102E+03 0.14568240E+04 0.21384802E+04 0.26463387E+04 0.30013205E+03 0.0000E+00 0.0000E+00
       23  2    1    2    0    0 -.46647102E+03 -.14568240E+04 0.31481152E+03 0.15643793E+04 0.90802397E+02 0.0000E+00 0.0000E+00
       24  1    3    3    0    0 0.87330917E+01 0.18776441E+03 0.22913380E+03 0.30708510E+03 0.80419002E+02 0.0000E+00 0.9000E+01
      -13  1    4    4    0    0 -.36225833E+03 -.10360432E+04 0.25494528E+03 0.11267713E+04 0.10565837E+00 0.0000E+00 0.9000E+01
       13  1    4    4    0    0 -.10421269E+03 -.42078080E+03 0.59866240E+02 0.43760798E+03 0.10565837E+00 0.0000E+00 0.9000E+01
      -24  1    3    3    0    0 0.45773793E+03 0.12690596E+04 0.19093464E+04 0.23392536E+04 0.80419002E+02 0.0000E+00 0.9000E+01
#aMCatNLO 1  0  0  2  1 0.13678731D+03 0.00000000D+00  -5  7  0 0.00000000D+00 0.00000000D+00 0.00000000D+00 0.00000000D+00 0.00000000D+00
  <mgrwgt>
 0.5125405052D-03    9    2    0
 0.171110383652756D+04 0.000000000000000D+00 0.000000000000000D+00 0.171110383652756D+04
 0.171110383652756D+04 0.000000000000000D+00 0.000000000000000D+00 -.171110383652756D+04
 0.213580453959343D+03 0.873309166048504D+01 0.187764413380456D+03 0.617871551137557D+02
 0.120362783924761D+04 -.362258679523886D+03 -.103604399516639D+04 -.494066255274680D+03
 0.495519655113494D+03 -.104212343071242D+03 -.420779969551508D+03 -.240049439448690D+03
 0.150947972473468D+04 0.457737930934643D+03 0.126905955133744D+04 0.672328539609614D+03
 0.000000000000000D+00 0.000000000000000D+00 0.000000000000000D+00 -.000000000000000D+00
 0.177968948182550D+04 0.000000000000000D+00 0.000000000000000D+00 0.177968948182550D+04
 0.178205864910950D+04 0.000000000000000D+00 0.000000000000000D+00 -.178205864910950D+04
 0.206274492687964D+03 0.751881757817637D+01 0.179465220097046D+03 0.617871551137557D+02
 0.124766009458660D+04 -.369348117031052D+03 -.108449813991003D+04 -.494066255274680D+03
 0.513159957141875D+03 -.107129573224883D+03 -.440718348579765D+03 -.240049439448690D+03
 0.145784576521434D+04 0.449156046964973D+03 0.121040498986918D+04 0.672328539609614D+03
 0.136807821304229D+03 0.198028257127858D+02 0.135346278523568D+03 -.236916728400209D+01
0.133947574786D-01 0.000000000000D+00 0.000000000000D+00 0.718428327550D-04 0.000000000000D+00  7 1 -1 24 -13 13 -24 21 0 0.51261613D+00 0.13518663D+00 0.23823518D+07 0.23823518D+07 0.23823518D+07 0.10236534D+01  1  2  2  2  7  2       -1 0.218433464060D-03 0.100000000000D+01
-.734536721397D-03 0.000000000000D+00 -.514393956384D-04 0.718428327550D-04 0.000000000000D+00  7 1 -1 24 -13 13 -24 21 2 0.51261613D+00 0.13518663D+00 0.23823518D+07 0.23823518D+07 0.23823518D+07 0.10236534D+01  1  2  3  2  7  2       -1 -.125517322071D-04 0.100000000000D+01
0.815919959308D-03 0.000000000000D+00 0.000000000000D+00 0.718428327550D-04 0.000000000000D+00  7 1 -1 24 -13 13 -24 21 2 0.51261613D+00 0.13518663D+00 0.23823518D+07 0.23823518D+07 0.23823518D+07 0.10236534D+01  1  2 15  2  7  2       -1 0.139424055100D-04 0.100000000000D+01
0.203130218954D-01 0.000000000000D+00 0.000000000000D+00 0.718428327550D-04 0.000000000000D+00  7 1 -1 24 -13 13 -24 21 2 0.51261613D+00 0.14339325D+00 0.26023605D+07 0.26023605D+07 0.26023605D+07 0.10212848D+01  1  2 12  2  7  2       -1 0.290491156648D-03 0.100000000000D+01
-.158183478140D-01 0.000000000000D+00 0.000000000000D+00 0.718428327550D-04 0.000000000000D+00  7 1 -1 24 -13 13 -24 21 2 0.51261613D+00 0.13518663D+00 0.23823518D+07 0.23823518D+07 0.23823518D+07 0.10236534D+01  1  2  4  2  7  2       -1 -.270303253652D-03 0.100000000000D+01
-.819443794253D-01 0.000000000000D+00 -.169074634668D-01 0.718428327550D-04 0.000000000000D+00  7 1 -1 24 -13 13 -24 21 2 0.51261613D+00 0.14847413D+00 0.23823518D+07 0.23823518D+07 0.23823518D+07 0.10236534D+01  1  2  5  2  7  2       -1 -.107472958843D-02 0.100000000000D+01
0.832374729768D-01 0.000000000000D+00 0.168334272436D-01 0.718428327550D-04 0.000000000000D+00  7 1 -1 24 -13 13 -24 21 2 0.51261613D+00 0.13518663D+00 0.23823518D+07 0.23823518D+07 0.23823518D+07 0.10236534D+01  1  2  6  2  7  2       -1 0.142235839267D-02 0.100000000000D+01
0.224649671633D-03 0.000000000000D+00 0.000000000000D+00 0.718428327550D-04 0.000000000000D+00  7 1 21 24 -13 13 -24 1 2 0.51261613D+00 0.14339325D+00 0.26023605D+07 0.26023605D+07 0.26023605D+07 0.10212848D+01  1  2 12  4  7  2       -1 0.191400747764D-04 0.100000000000D+01
-.120911449308D-02 0.000000000000D+00 -.259671730262D-03 0.718428327550D-04 0.000000000000D+00  7 1 21 24 -13 13 -24 1 2 0.51261613D+00 0.14847413D+00 0.23823518D+07 0.23823518D+07 0.23823518D+07 0.10236534D+01  1  2  5  4  7  2       -1 -.942404142052D-04 0.100000000000D+01
  </mgrwgt>
  </event>
  <event>
  8     66 0.27727860E-05 0.37018576E+03 0.75467711E-02 0.79726834E-01
        1 -1    0    0  501    0 0.00000000E+00 0.00000000E+00 0.84760514E+03 0.84760520E+03 0.32000000E+00 0.0000E+00 0.9000E+01
       -1 -1    0    0    0  501 0.00000000E+00 0.00000000E+00 -.18404237E+03 0.18404264E+03 0.32000000E+00 0.0000E+00 0.9000E+01
       25  2    1    2    0    0 -.23607200E+03 0.20079842E+03 0.22429582E+03 0.48602538E+03 0.29977001E+03 0.0000E+00 0.0000E+00
       23  2    1    2    0    0 0.23607200E+03 -.20079842E+03 0.43926696E+03 0.54562247E+03 0.93265315E+02 0.0000E+00 0.0000E+00
       24  1    3    3    0    0 -.27803547E+03 0.16307650E+03 0.16108461E+03 0.36920608E+03 0.80419002E+02 0.0000E+00 0.9000E+01
      -13  1    4    4    0    0 0.13613027E+03 -.11561338E+03 0.32812928E+03 0.37358632E+03 0.10565837E+00 0.0000E+00 0.9000E+01
       13  1    4    4    0    0 0.99941731E+02 -.85185037E+02 0.11113768E+03 0.17203615E+03 0.10565837E+00 0.0000E+00 0.9000E+01
      -24  1    3    3    0    0 0.41963462E+02 0.37721920E+02 0.63211207E+02 0.11681930E+03 0.80419002E+02 0.0000E+00 0.9000E+01
#aMCatNLO 1  0  0  1  2 0.23447988D+04 0.00000000D+00  -5  7  0 0.00000000D+00 0.00000000D+00 0.00000000D+00 0.00000000D+00 0.00000000D+00
  <mgrwgt>
 0.9901642589D-03    3    2    0
 0.394962567596722D+03 0.000000000000000D+00 0.000000000000000D+00 0.394962567596722D+03
 0.394962567596722D+03 0.000000000000000D+00 0.000000000000000D+00 -.394962567596722D+03
 0.346869465263358D+03 -.278035465957701D+03 0.163076497807878D+03 -.997674571697548D+02
 0.212267242077481D+03 0.136130319873039D+03 -.115613419921433D+03 0.114714668654511D+03
 0.131321063046629D+03 0.999416839468331D+02 -.851849979220039D+02 0.630506618756371D+00
 0.994673648059761D+02 0.419634621378291D+02 0.377219200355586D+02 -.155777181035126D+02
 0.000000000000000D+00 0.000000000000000D+00 -.000000000000000D+00 -.000000000000000D+00
 0.193417361610775D+04 0.000000000000000D+00 0.000000000000000D+00 0.193417361610775D+04
 0.320909757108321D+04 0.000000000000000D+00 0.000000000000000D+00 -.320909757108321D+04
 0.185149378242512D+04 -.887255842401919D+03 0.161999553549325D+04 -.997674571697548D+02
 0.192374852136248D+03 0.239940706788852D+02 0.152554623339268D+03 0.114714668654511D+03
 0.636002399204131D+02 0.459242099486477D+02 0.439949988058910D+02 0.630506618756371D+00
 0.366811423688682D+03 -.872538268399399D+02 0.346738386964323D+03 -.155777181035126D+02
 0.266899088902050D+04 0.904591388614326D+03 -.216328354460273D+04 -.127492395497546D+04
0.369824578744D-04 0.000000000000D+00 0.000000000000D+00 0.991507446002D-06 0.000000000000D+00  7 1 -1 24 -13 13 -24 21 0 0.13040082D+00 0.28314236D-01 0.13703750D+06 0.13703750D+06 0.13703750D+06 0.11106628D+01  1  2  2  1  7  1        1 0.981110966948D-03 0.100000000000D+01
-.204409600827D-05 0.000000000000D+00 -.142022375942D-06 0.991507446002D-06 0.000000000000D+00  7 1 -1 24 -13 13 -24 21 2 0.13040082D+00 0.28314236D-01 0.13703750D+06 0.13703750D+06 0.13703750D+06 0.11106628D+01  1  2  3  1  7  1        1 -.668941449009D-04 0.100000000000D+01
0.232073902434D-05 0.000000000000D+00 0.000000000000D+00 0.991507446002D-06 0.000000000000D+00  7 1 -1 24 -13 13 -24 21 2 0.13040082D+00 0.28314236D-01 0.13703750D+06 0.13703750D+06 0.13703750D+06 0.11106628D+01  1  2 15  1  7  1        1 0.759474368834D-04 0.100000000000D+01
  </mgrwgt>
  </event>
  <event>
  8     66 0.27727860E-05 0.24650527E+03 0.75467711E-02 0.99230254E-01
        3 -1    0    0  501    0 0.00000000E+00 0.00000000E+00 0.56175407E+02 0.56177632E+02 0.50000000E+00 0.0000E+00 0.9000E+01
       -3 -1    0    0    0  501 0.00000000E+00 0.00000000E+00 -.14259742E+04 0.14259743E+04 0.50000000E+00 0.0000E+00 0.9000E+01
       25  2    1    2    0    0 0.11618062E+03 -.11904157E+03 -.10949331E+04 0.11474763E+04 0.30025765E+03 0.0000E+00 0.0000E+00
       23  2    1    2    0    0 -.11618062E+03 0.11904157E+03 -.27486577E+03 0.33467565E+03 0.93743072E+02 0.0000E+00 0.0000E+00
       24  1    3    3    0    0 0.14140338E+03 -.15873199E+03 -.55785866E+03 0.60238216E+03 0.80419002E+02 0.0000E+00 0.9000E+01
      -13  1    4    4    0    0 -.83531287E+02 0.11104073E+03 -.14622721E+03 0.20171744E+03 0.10565837E+00 0.0000E+00 0.9000E+01
       13  1    4    4    0    0 -.32649330E+02 0.80008414E+01 -.12863856E+03 0.13295820E+03 0.10565837E+00 0.0000E+00 0.9000E+01
      -24  1    3    3    0    0 -.25222761E+02 0.39690420E+02 -.53707439E+03 0.54509415E+03 0.80419002E+02 0.0000E+00 0.9000E+01
#aMCatNLO 1  0  0  2  2 0.15456254D+03 0.00000000D+00  -5  7  0 0.00000000D+00 0.00000000D+00 0.00000000D+00 0.00000000D+00 0.00000000D+00
  <mgrwgt>
 0.2632665233D-03    4    2    0
 0.283030735867114D+03 0.000000000000000D+00 0.000000000000000D+00 0.283030735867114D+03
 0.283030735867114D+03 0.000000000000000D+00 0.000000000000000D+00 -.283030735867114D+03
 0.227303498743866D+03 0.141403382164245D+03 -.158731993783481D+03 -.298366366500350D+01
 0.174317008895347D+03 -.835313623491784D+02 0.111040859332439D+03 0.105256157316445D+03
 0.368426457607581D+02 -.326492617522209D+02 0.800071665444915D+01 -.150796149388137D+02
 0.127598318334257D+03 -.252227580628456D+02 0.396904177965922D+02 -.871928787126278D+02
 0.000000000000000D+00 -.000000000000000D+00 -.000000000000000D+00 0.000000000000000D+00
 0.432512809987840D+03 0.000000000000000D+00 0.000000000000000D+00 0.432512809987840D+03
 0.336321390263163D+03 0.000000000000000D+00 0.000000000000000D+00 -.336321390263163D+03
 0.201237383358539D+03 0.153324629389884D+03 -.102527675679349D+03 -.298366366500350D+01
 0.205625681477159D+03 -.729620306175495D+02 0.160871390614010D+03 0.105256157316445D+03
 0.384786820355446D+02 -.305539560123858D+02 0.178793164433891D+02 -.150796149388137D+02
 0.141442001649767D+03 -.177385335649172D+02 0.749757974622036D+02 -.871928787126278D+02
 0.182050451729993D+03 -.320701091950318D+02 -.151198828840254D+03 0.961914197246771D+02
0.152415915694D-03 0.000000000000D+00 0.000000000000D+00 0.270122676183D-06 0.000000000000D+00  7 3 -3 24 -13 13 -24 21 0 0.86425483D-02 0.21938083D+00 0.60764849D+05 0.60764849D+05 0.60764849D+05 0.11399204D+01  1  2  2  2  7  2       -3 0.315951639317D-03 0.100000000000D+01
-.827099764966D-05 0.000000000000D+00 -.585317248296D-06 0.270122676183D-06 0.000000000000D+00  7 3 -3 24 -13 13 -24 21 2 0.86425483D-02 0.21938083D+00 0.60764849D+05 0.60764849D+05 0.60764849D+05 0.11399204D+01  1  2  3  2  7  2       -3 -.222790805067D-04 0.100000000000D+01
0.997024617637D-05 0.000000000000D+00 0.000000000000D+00 0.270122676183D-06 0.000000000000D+00  7 3 -3 24 -13 13 -24 21 2 0.86425483D-02 0.21938083D+00 0.60764849D+05 0.60764849D+05 0.60764849D+05 0.11399204D+01  1  2 15  2  7  2       -3 0.268562423354D-04 0.100000000000D+01
-.212583353768D-04 0.000000000000D+00 0.000000000000D+00 0.270122676183D-06 0.000000000000D+00  7 3 -3 24 -13 13 -24 21 2 0.86425483D-02 0.21938083D+00 0.60764849D+05 0.60764849D+05 0.60764849D+05 0.11399204D+01  1  2  4  2  7  2       -3 -.572622778241D-04 0.100000000000D+01
  </mgrwgt>
  </event>
  <event>
  8     66 0.27727860E-05 0.11322544E+03 0.75467711E-02 0.98746533E-01
        1 -1    0    0  501    0 0.00000000E+00 0.00000000E+00 0.91159717E+03 0.91159723E+03 0.32000000E+00 0.0000E+00 0.9000E+01
       -1 -1    0    0    0  501 0.00000000E+00 0.00000000E+00 -.11989438E+03 0.11989480E+03 0.32000000E+00 0.0000E+00 0.9000E+01
       25  2    1    2    0    0 0.22847194E+03 -.10656665E+03 0.51140849E+03 0.64406303E+03 0.29953743E+03 0.0000E+00 0.0000E+00
       23  2    1    2    0    0 -.22847194E+03 0.10656665E+03 0.28029430E+03 0.38742900E+03 0.89333390E+02 0.0000E+00 0.0000E+00
       24  1    3    3    0    0 -.44619078E+02 -.24719799E+02 0.12923016E+03 0.16052907E+03 0.80419002E+02 0.0000E+00 0.9000E+01
      -13  1    4    4    0    0 -.19041791E+03 0.70036639E+02 0.16820251E+03 0.26354546E+03 0.10565837E+00 0.0000E+00 0.9000E+01
       13  1    4    4    0    0 -.38054024E+02 0.36530010E+02 0.11209179E+03 0.12388354E+03 0.10565837E+00 0.0000E+00 0.9000E+01
      -24  1    3    3    0    0 0.27309101E+03 -.81846850E+02 0.38217833E+03 0.48353397E+03 0.80419002E+02 0.0000E+00 0.9000E+01
#aMCatNLO 1  0  0  2  1 0.55896953D+02 0.00000000D+00  -5  7  0 0.00000000D+00 0.00000000D+00 0.00000000D+00 0.00000000D+00 0.00000000D+00
  <mgrwgt>
 0.6839891354D-03    9    2    0
 0.330598887650580D+03 0.000000000000000D+00 0.000000000000000D+00 0.330598887650580D+03
 0.330598887650580D+03 0.000000000000000D+00 0.000000000000000D+00 -.330598887650580D+03
 0.956938684664864D+02 -.446190775696872D+02 -.247197992890144D+02 0.938988539076675D+01
 0.209738726912256D+03 -.190418124493037D+03 0.700366860713839D+02 -.531613961015567D+02
 0.590464171725322D+02 -.380538115632851D+02 0.365299628655696D+02 0.265320300666724D+02
 0.296718762749885D+03 0.273091013626009D+03 -.818468496479390D+02 0.172394806441176D+02
 0.000000000000000D+00 0.000000000000000D+00 0.000000000000000D+00 -.000000000000000D+00
 0.357473481212190D+03 0.000000000000000D+00 0.000000000000000D+00 0.357473481212190D+03
 0.362177347205855D+03 0.000000000000000D+00 0.000000000000000D+00 -.362177347205855D+03
 0.100099926890178D+03 -.527676334295120D+02 -.260803819689303D+02 0.938988539076675D+01
 0.225389692119573D+03 -.208527320559333D+03 0.670129529168402D+02 -.531613961015567D+02
 0.619215357176371D+02 -.430882618101818D+02 0.356893493965501D+02 0.265320300666724D+02
 0.276145148438501D+03 0.249249535034244D+03 -.858277148949299D+02 0.172394806441176D+02
 0.560945252521559D+02 0.551336807647824D+02 0.920579455046991D+01 -.470386599366442D+01
0.967091098227D-05 0.000000000000D+00 0.000000000000D+00 0.499067641730D-06 0.000000000000D+00  7 1 -1 24 -13 13 -24 21 0 0.14024576D+00 0.18445326D-01 0.10468102D+06 0.10468102D+06 0.10468102D+06 0.11200953D+01  1  2  2  2  7  2       -1 0.459328311028D-03 0.100000000000D+01
-.536968920360D-06 0.000000000000D+00 -.371388445813D-07 0.499067641730D-06 0.000000000000D+00  7 1 -1 24 -13 13 -24 21 2 0.14024576D+00 0.18445326D-01 0.10468102D+06 0.10468102D+06 0.10468102D+06 0.11200953D+01  1  2  3  2  7  2       -1 -.319974168237D-04 0.100000000000D+01
0.623348466175D-06 0.000000000000D+00 0.000000000000D+00 0.499067641730D-06 0.000000000000D+00  7 1 -1 24 -13 13 -24 21 2 0.14024576D+00 0.18445326D-01 0.10468102D+06 0.10468102D+06 0.10468102D+06 0.11200953D+01  1  2 15  2  7  2       -1 0.371446836909D-04 0.100000000000D+01
0.106421908248D-04 0.000000000000D+00 0.000000000000D+00 0.499067641730D-06 0.000000000000D+00  7 1 -1 24 -13 13 -24 21 2 0.14024576D+00 0.20892221D-01 0.12465909D+06 0.12465909D+06 0.12465909D+06 0.11139504D+01  1  2 12  2  7  2       -1 0.512323896307D-03 0.100000000000D+01
-.890687277133D-05 0.000000000000D+00 0.000000000000D+00 0.499067641730D-06 0.000000000000D+00  7 1 -1 24 -13 13 -24 21 2 0.14024576D+00 0.18445326D-01 0.10468102D+06 0.10468102D+06 0.10468102D+06 0.11200953D+01  1  2  4  2  7  2       -1 -.530751240628D-03 0.100000000000D+01
-.312742131141D-04 0.000000000000D+00 -.804876981147D-05 0.499067641730D-06 0.000000000000D+00  7 1 -1 24 -13 13 -24 21 2 0.14024576D+00 0.21843653D-01 0.10468102D+06 0.10468102D+06 0.10468102D+06 0.11200953D+01  1  2  5  2  7  2       -1 -.142054439795D-02 0.100000000000D+01
0.322862680324D-04 0.000000000000D+00 0.793504942477D-05 0.499067641730D-06 0.000000000000D+00  7 1 -1 24 -13 13 -24 21 2 0.14024576D+00 0.18445326D-01 0.10468102D+06 0.10468102D+06 0.10468102D+06 0.11200953D+01  1  2  6  2  7  2       -1 0.192390497241D-02 0.100000000000D+01
0.208343585331D-06 0.000000000000D+00 0.000000000000D+00 0.499067641730D-06 0.000000000000D+00  7 1 21 24 -13 13 -24 1 2 0.14024576D+00 0.20892221D-01 0.12465909D+06 0.12465909D+06 0.12465909D+06 0.11139504D+01  1  2 12  4  7  2       -1 0.119515388159D-03 0.100000000000D+01
-.716079812146D-06 0.000000000000D+00 -.202091802114D-06 0.499067641730D-06 0.000000000000D+00  7 1 21 24 -13 13 -24 1 2 0.14024576D+00 0.21843653D-01 0.10468102D+06 0.10468102D+06 0.10468102D+06 0.11200953D+01  1  2  5  4  7  2       -1 -.384935060762D-03 0.100000000000D+01
  </mgrwgt>
  </event>
  <event>
  8     66 0.27727860E-05 0.19437699E+03 0.75467711E-02 0.10490142E+00
        1 -1    0    0  501    0 0.00000000E+00 0.00000000E+00 0.52620140E+03 0.52620149E+03 0.32000000E+00 0.0000E+00 0.9000E+01
       -1 -1    0    0    0  501 0.00000000E+00 0.00000000E+00 -.14482970E+03 0.14483006E+03 0.32000000E+00 0.0000E+00 0.9000E+01
       25  2    1    2    0    0 0.68411749E+02 -.48067568E+02 0.43472366E+03 0.53481414E+03 0.30008474E+03 0.0000E+00 0.0000E+00
       23  2    1    2    0    0 -.68411749E+02 0.48067568E+02 -.53351964E+02 0.13621741E+03 0.93370726E+02 0.0000E+00 0.0000E+00
       24  1    3    3    0    0 0.11637192E+03 0.59477894E+02 0.30772686E+03 0.34386492E+03 0.80419002E+02 0.0000E+00 0.9000E+01
      -11  1    4    4    0    0 -.24436256E+02 0.41617867E+02 0.18536402E+02 0.51698894E+02 0.51099893E-03 0.0000E+00 0.9000E+01
       11  1    4    4    0    0 -.43975493E+02 0.64497013E+01 -.71888365E+02 0.84518517E+02 0.51099893E-03 0.0000E+00 0.9000E+01
      -24  1    3    3    0    0 -.47960171E+02 -.10754546E+03 0.12699679E+03 0.19094922E+03 0.80419002E+02 0.0000E+00 0.9000E+01
#aMCatNLO 1  0  0  1  2 0.47405771D+02 0.00000000D+00  -5  7  0 0.00000000D+00 0.00000000D+00 0.00000000D+00 0.00000000D+00 0.00000000D+00
  <mgrwgt>
 0.3820930500D-03    4    2    0
 0.276061124082029D+03 0.000000000000000D+00 0.000000000000000D+00 0.276061124082029D+03
 0.276061124082029D+03 0.000000000000000D+00 0.000000000000000D+00 -.276061124082029D+03
 0.205363750308256D+03 0.116371919923584D+03 0.594778942678527D+02 0.136480805731292D+03
 0.500293735450478D+02 -.244362558013687D+02 0.416178669520945D+02 -.131818348524691D+02
 0.152377085902267D+03 -.439754927879728D+02 0.644970135436131D+01 -.145750930338579D+03
 0.144352038408486D+03 -.479601713342422D+02 -.107545462574309D+03 0.224519594597568D+02
 0.000000000000000D+00 0.000000000000000D+00 0.000000000000000D+00 -.000000000000000D+00
 0.289839044193990D+03 0.000000000000000D+00 0.000000000000000D+00 0.289839044193990D+03
 0.321099513805099D+03 0.000000000000000D+00 0.000000000000000D+00 -.321099513805099D+03
 0.194913308517693D+03 0.100713213674213D+03 0.524768533859714D+02 0.136480805731292D+03
 0.506703278927545D+02 -.283755948402805D+02 0.398565800858746D+02 -.131818348524691D+02
 0.156158636110278D+03 -.560453082617911D+02 0.105326117448617D+01 -.145750930338579D+03
 0.152411392149791D+03 -.595694586571217D+02 -.112735999638011D+03 0.224519594597568D+02
 0.567848933285730D+02 0.432771480849804D+02 0.193493049916787D+02 -.312604696111094D+02
0.814859318837D-05 0.000000000000D+00 0.000000000000D+00 0.432095590395D-06 0.000000000000D+00  7 1 -1 24 -11 11 -24 21 0 0.80954096D-01 0.22281528D-01 0.37782412D+05 0.37782412D+05 0.37782412D+05 0.11581547D+01  1  2  2  1  7  1        1 0.656001263921D-03 0.100000000000D+01
-.384956177510D-06 0.000000000000D+00 -.312927434172D-07 0.432095590395D-06 0.000000000000D+00  7 1 -1 24 -11 11 -24 21 2 0.80954096D-01 0.22281528D-01 0.37782412D+05 0.37782412D+05 0.37782412D+05 0.11581547D+01  1  2  3  1  7  1        1 -.415687006112D-04 0.100000000000D+01
0.488480891567D-06 0.000000000000D+00 0.000000000000D+00 0.432095590395D-06 0.000000000000D+00  7 1 -1 24 -11 11 -24 21 2 0.80954096D-01 0.22281528D-01 0.37782412D+05 0.37782412D+05 0.37782412D+05 0.11581547D+01  1  2 15  1  7  1        1 0.527476038110D-04 0.100000000000D+01
-.264011251887D-05 0.000000000000D+00 0.000000000000D+00 0.432095590395D-06 0.000000000000D+00  7 1 -1 24 -11 11 -24 21 2 0.80954096D-01 0.22281528D-01 0.37782412D+05 0.37782412D+05 0.37782412D+05 0.11581547D+01  1  2  4  1  7  1        1 -.285087117154D-03 0.100000000000D+01
  </mgrwgt>
  </event>
  <event>
  8     66 0.27727860E-05 0.17061655E+03 0.75467711E-02 0.97522406E-01
        1 -1    0    0  501    0 0.00000000E+00 0.00000000E+00 0.60398171E+03 0.60398179E+03 0.32000000E+00 0.0000E+00 0.9000E+01
       -1 -1    0    0    0  501 0.00000000E+00 0.00000000E+00 -.23132339E+03 0.23132361E+03 0.32000000E+00 0.0000E+00 0.9000E+01
       25  2    1    2    0    0 0.24284997E+03 0.13382279E+03 0.35691135E+03 0.54299763E+03 0.30095858E+03 0.0000E+00 0.0000E+00
       23  2    1    2    0    0 -.24284997E+03 -.13382279E+03 0.15746972E+02 0.29230777E+03 0.91165877E+02 0.0000E+00 0.0000E+00
       24  1    3    3    0    0 0.20527289E+03 0.19925760E+03 0.28208420E+03 0.40973072E+03 0.80419002E+02 0.0000E+00 0.9000E+01
      -13  1    4    4    0    0 -.22747110E+03 -.13439015E+03 0.36241617E+02 0.26667824E+03 0.10565837E+00 0.0000E+00 0.9000E+01
       13  1    4    4    0    0 -.15378870E+02 0.56735648E+00 -.20494645E+02 0.25629537E+02 0.10565837E+00 0.0000E+00 0.9000E+01
      -24  1    3    3    0    0 0.37577087E+02 -.65434813E+02 0.74827147E+02 0.13326691E+03 0.80419002E+02 0.0000E+00 0.9000E+01
#aMCatNLO 1  0  0  2  1 0.85939864D+02 0.00000000D+00  -5  7  0 0.00000000D+00 0.00000000D+00 0.00000000D+00 0.00000000D+00 0.00000000D+00
  <mgrwgt>
 0.3564866275D-03    7    2    0
 0.373784997494951D+03 0.000000000000000D+00 0.000000000000000D+00 0.373784997494951D+03
 0.373784997494951D+03 0.000000000000000D+00 0.000000000000000D+00 -.373784997494951D+03
 0.317200078763482D+03 0.205272887968116D+03 0.199257603557354D+03 0.110941979894890D+03
 0.279909941079485D+03 -.227471389400477D+03 -.134390328654689D+03 -.924423154373697D+02
 0.388535511287480D+02 -.153785856673757D+02 0.567537621472269D+00 -.356759784621758D+02
 0.111606424018187D+03 0.375770870997367D+02 -.654348125241381D+02 0.171763140046551D+02
 0.000000000000000D+00 0.000000000000000D+00 -.000000000000000D+00 -.000000000000000D+00
 0.376710877566236D+03 0.000000000000000D+00 0.000000000000000D+00 0.376710877566236D+03
 0.435475233836092D+04 0.000000000000000D+00 0.000000000000000D+00 -.435475233836092D+04
 0.306129328285138D+03 0.172224235881761D+03 0.212787780085899D+03 0.110941979894890D+03
 0.300100305093154D+03 -.258223278554946D+03 -.121800450926574D+03 -.924423154373697D+02
 0.407702654417162D+02 -.196002055394183D+02 0.229587625252737D+01 -.356759784621758D+02
 0.105493661027320D+03 0.260665357003427D+02 -.607223724534284D+02 0.171763140046551D+02
 0.397896965607983D+04 0.795327125122606D+02 -.325608329584233D+02 -.397804146079469D+04
0.119442715552D-04 0.000000000000D+00 0.000000000000D+00 0.103247558949D-05 0.000000000000D+00  7 1 -1 24 -13 13 -24 21 0 0.92920286D-01 0.35588237D-01 0.11800479D+06 0.11800479D+06 0.11800479D+06 0.11158692D+01  1  2  2  2  7  2       -1 0.361999874988D-03 0.100000000000D+01
-.657817961942D-06 0.000000000000D+00 -.458691477709D-07 0.103247558949D-05 0.000000000000D+00  7 1 -1 24 -13 13 -24 21 2 0.92920286D-01 0.35588237D-01 0.11800479D+06 0.11800479D+06 0.11800479D+06 0.11158692D+01  1  2  3  2  7  2       -1 -.248245301118D-04 0.100000000000D+01
0.768120883075D-06 0.000000000000D+00 0.000000000000D+00 0.103247558949D-05 0.000000000000D+00  7 1 -1 24 -13 13 -24 21 2 0.92920286D-01 0.35588237D-01 0.11800479D+06 0.11800479D+06 0.11800479D+06 0.11158692D+01  1  2 15  2  7  2       -1 0.289871075200D-04 0.100000000000D+01
0.341266583381D-02 0.000000000000D+00 0.000000000000D+00 0.103247558949D-05 0.000000000000D+00  7 1 -1 24 -13 13 -24 21 2 0.92920286D-01 0.41216232D+00 0.15232896D+06 0.15232896D+06 0.15232896D+06 0.11070243D+01  1  2 12  2  7  2       -1 0.360828514101D-04 0.100000000000D+01
-.353348653306D-02 0.000000000000D+00 -.961964945060D-05 0.103247558949D-05 0.000000000000D+00  7 1 -1 24 -13 13 -24 21 2 0.92920286D-01 0.41478404D+00 0.11800479D+06 0.11800479D+06 0.11800479D+06 0.11158692D+01  1  2  5  2  7  2       -1 -.369623425424D-04 0.100000000000D+01
0.977478373056D-03 0.000000000000D+00 0.000000000000D+00 0.103247558949D-05 0.000000000000D+00  7 1 21 24 -13 13 -24 1 2 0.92920286D-01 0.41216232D+00 0.15232896D+06 0.15232896D+06 0.15232896D+06 0.11070243D+01  1  2 12  4  7  2       -1 0.176228480169D-03 0.100000000000D+01
-.101564669172D-02 0.000000000000D+00 -.276018499921D-05 0.103247558949D-05 0.000000000000D+00  7 1 21 24 -13 13 -24 1 2 0.92920286D-01 0.41478404D+00 0.11800479D+06 0.11800479D+06 0.11800479D+06 0.11158692D+01  1  2  5  4  7  2       -1 -.185024813945D-03 0.100000000000D+01
  </mgrwgt>
  </event>
  <event>
  8     66 0.27727860E-05 0.28780427E+03 0.75467711E-02 0.94599719E-01
        1 -1    0    0  501    0 0.00000000E+00 0.00000000E+00 0.93144275E+03 0.93144280E+03 0.32000000E+00 0.0000E+00 0.9000E+01
       -1 -1    0    0    0  501 0.00000000E+00 0.00000000E+00 -.11834375E+03 0.11834418E+03 0.32000000E+00 0.0000E+00 0.9000E+01
       25  2    1    2    0    0 -.40469140E+02 -.19311011E+03 0.73529092E+03 0.81748843E+03 0.29783440E+03 0.0000E+00 0.0000E+00
       23  2    1    2    0    0 0.40469140E+02 0.19311011E+03 0.77808074E+02 0.23229855E+03 0.94758933E+02 0.0000E+00 0.0000E+00
       24  1    3    3    0    0 -.56627168E+02 -.24228960E+03 0.52855873E+03 0.58970538E+03 0.80419002E+02 0.0000E+00 0.9000E+01
      -13  1    4    4    0    0 0.23138676E+02 0.19887189E+03 0.75101528E+02 0.21383563E+03 0.10565837E+00 0.0000E+00 0.9000E+01
       13  1    4    4    0    0 0.17330463E+02 -.57617757E+01 0.27065458E+01 0.18462924E+02 0.10565837E+00 0.0000E+00 0.9000E+01
      -24  1    3    3    0    0 0.16158029E+02 0.49179489E+02 0.20673219E+03 0.22778305E+03 0.80419002E+02 0.0000E+00 0.9000E+01
#aMCatNLO 1  0  0  2  1 0.34679706D+03 0.00000000D+00  -5  7  0 0.00000000D+00 0.00000000D+00 0.00000000D+00 0.00000000D+00 0.00000000D+00
  <mgrwgt>
 0.2232874741D-02    3    2    0
 0.332010065624446D+03 0.000000000000000D+00 0.000000000000000D+00 0.332010065624446D+03
 0.332010065624446D+03 0.000000000000000D+00 0.000000000000000D+00 -.332010065624446D+03
 0.285073375656698D+03 -.566271688469155D+02 -.242289601792051D+03 0.113528525779941D+03
 0.246102576335789D+03 0.231386874543675D+02 0.198872138277587D+03 -.143111676109612D+03
 0.258746123373277D+02 0.173304528368903D+02 -.576202397239133D+01 -.183289401716765D+02
 0.106969566919078D+03 0.161580285556577D+02 0.491794874868555D+02 0.479120905013475D+02
 0.000000000000000D+00 -.000000000000000D+00 0.000000000000000D+00 0.000000000000000D+00
 0.853064262294683D+03 0.000000000000000D+00 0.000000000000000D+00 0.853064262294683D+03
 0.437399325203889D+03 0.000000000000000D+00 0.000000000000000D+00 -.437399325203889D+03
 0.409938254039669D+03 0.388108418988842D+02 -.383649773303796D+03 0.113528525779941D+03
 0.198324700269806D+03 0.841668104210889D+02 0.108478951514782D+03 -.143111676109612D+03
 0.367496443366999D+02 0.259299268975109D+02 -.184993297756102D+02 -.183289401716765D+02
 0.104114181902729D+03 0.451437494091639D+02 0.624663044987505D+01 0.479120905013475D+02
 0.541336806949668D+03 -.194051328626648D+03 0.287423521114750D+03 0.415664937090794D+03
0.471779802332D-04 0.000000000000D+00 0.000000000000D+00 0.233005831877D-07 0.000000000000D+00  7 1 -1 24 -13 13 -24 21 0 0.14329892D+00 0.18206768D-01 0.82831296D+05 0.82831296D+05 0.82831296D+05 0.11284976D+01  1  2  2  2  7  2       -1 0.221376735161D-02 0.100000000000D+01
-.255593807033D-05 0.000000000000D+00 -.181175866343D-06 0.233005831877D-07 0.000000000000D+00  7 1 -1 24 -13 13 -24 21 2 0.14329892D+00 0.18206768D-01 0.82831296D+05 0.82831296D+05 0.82831296D+05 0.11284976D+01  1  2  3  2  7  2       -1 -.152736993281D-03 0.100000000000D+01
0.287568577910D-05 0.000000000000D+00 0.000000000000D+00 0.233005831877D-07 0.000000000000D+00  7 1 -1 24 -13 13 -24 21 2 0.14329892D+00 0.18206768D-01 0.82831296D+05 0.82831296D+05 0.82831296D+05 0.11284976D+01  1  2 15  2  7  2       -1 0.171844382545D-03 0.100000000000D+01
  </mgrwgt>
  </event>
  <event>
  8     66 0.27727860E-05 0.43993438E+03 0.75467711E-02 0.85151801E-01
        1 -1    0    0  501    0 0.00000000E+00 0.00000000E+00 0.26878396E+04 0.26878396E+04 0.32000000E+00 0.0000E+00 0.9000E+01
       -1 -1    0    0    0  501 0.00000000E+00 0.00000000E+00 -.38170940E+03 0.38170954E+03 0.32000000E+00 0.0000E+00 0.9000E+01
       25  2    1    2    0    0 -.16260204E+03 0.89077576E+03 0.57563011E+03 0.11143195E+04 0.30072753E+03 0.0000E+00 0.0000E+00
       23  2    1    2    0    0 0.16260204E+03 -.89077576E+03 0.17305000E+04 0.19552296E+04 0.91496183E+02 0.0000E+00 0.0000E+00
       24  1    3    3    0    0 -.12924018E+03 0.71501860E+03 0.33574122E+03 0.80445261E+03 0.80419002E+02 0.0000E+00 0.9000E+01
      -11  1    4    4    0    0 0.57325739E+02 -.14031934E+03 0.31842796E+03 0.35266432E+03 0.51099893E-03 0.0000E+00 0.9000E+01
       11  1    4    4    0    0 0.10527630E+03 -.75045642E+03 0.14120721E+04 0.16025653E+04 0.51099893E-03 0.0000E+00 0.9000E+01
      -24  1    3    3    0    0 -.33361857E+02 0.17575716E+03 0.23988889E+03 0.30986689E+03 0.80419002E+02 0.0000E+00 0.9000E+01
#aMCatNLO 1  0  0  2  1 0.60981960D+03 0.00000000D+00  -5  7  0 0.00000000D+00 0.00000000D+00 0.00000000D+00 0.00000000D+00 0.00000000D+00
  <mgrwgt>
 0.5006364080D-03    9    2    0
 0.101290367944463D+04 0.000000000000000D+00 0.000000000000000D+00 0.101290367944463D+04
 0.101290367944463D+04 0.000000000000000D+00 0.000000000000000D+00 -.101290367944463D+04
 0.836725093081639D+03 -.129240178355724D+03 0.715018601459078D+03 -.407046731106138D+03
 0.171874252533172D+03 0.573257392753790D+02 -.140319336343021D+03 0.810247008548757D+02
 0.820774416728696D+03 0.105276296323804D+03 -.750456423733556D+03 0.315281938375347D+03
 0.196433596545762D+03 -.333618572434584D+02 0.175757158617499D+03 0.107400918759150D+02
 0.000000000000000D+00 0.000000000000000D+00 -.000000000000000D+00 -.000000000000000D+00
 0.121508867701295D+04 0.000000000000000D+00 0.000000000000000D+00 0.121508867701295D+04
 0.164888546950919D+04 0.000000000000000D+00 0.000000000000000D+00 -.164888546950919D+04
 0.109250562378637D+04 -.184727506799225D+03 0.993624692214327D+03 -.407046731106138D+03
 0.134695993862898D+03 0.485083574018415D+02 -.960465922157944D+02 0.810247008548757D+02
 0.629410647116889D+03 0.635669796319709D+02 -.541030776517245D+03 0.315281938375347D+03
 0.258990581162581D+03 -.464604828814738D+02 0.241526352875785D+03 0.107400918759150D+02
 0.748371300593406D+03 0.119112652646886D+03 -.598073676357072D+03 -.433796792496237D+03
0.141079739948D-02 0.000000000000D+00 0.000000000000D+00 0.973428357687D-05 0.000000000000D+00  7 1 -1 24 -11 11 -24 21 0 0.41351379D+00 0.58724535D-01 0.84324149D+06 0.84324149D+06 0.84324149D+06 0.10528289D+01  1  2  2  2  7  2       -1 0.494372912482D-03 0.100000000000D+01
-.774610657682D-04 0.000000000000D+00 -.541783348549D-05 0.973428357687D-05 0.000000000000D+00  7 1 -1 24 -11 11 -24 21 2 0.41351379D+00 0.58724535D-01 0.84324149D+06 0.84324149D+06 0.84324149D+06 0.10528289D+01  1  2  3  2  7  2       -1 -.300877085694D-04 0.100000000000D+01
0.901548300068D-04 0.000000000000D+00 0.000000000000D+00 0.973428357687D-05 0.000000000000D+00  7 1 -1 24 -11 11 -24 21 2 0.41351379D+00 0.58724535D-01 0.84324149D+06 0.84324149D+06 0.84324149D+06 0.10528289D+01  1  2 15  2  7  2       -1 0.350182665894D-04 0.100000000000D+01
0.205564553595D-03 0.000000000000D+00 0.000000000000D+00 0.973428357687D-05 0.000000000000D+00  7 1 -1 24 -11 11 -24 21 2 0.41351379D+00 0.98440839D-01 0.16062847D+07 0.16062847D+07 0.16062847D+07 0.10344318D+01  1  2 12  2  7  2       -1 0.252906594767D-04 0.100000000000D+01
-.735375271246D-03 0.000000000000D+00 0.000000000000D+00 0.973428357687D-05 0.000000000000D+00  7 1 -1 24 -11 11 -24 21 2 0.41351379D+00 0.58724535D-01 0.84324149D+06 0.84324149D+06 0.84324149D+06 0.10528289D+01  1  2  4  2  7  2       -1 -.285637134359D-03 0.100000000000D+01
-.660360209433D-03 0.000000000000D+00 -.433521251607D-03 0.973428357687D-05 0.000000000000D+00  7 1 -1 24 -11 11 -24 21 2 0.41351379D+00 0.11628899D+00 0.84324149D+06 0.84324149D+06 0.84324149D+06 0.10528289D+01  1  2  5  2  7  2       -1 -.600735845129D-04 0.100000000000D+01
0.837904813520D-03 0.000000000000D+00 0.348877705160D-03 0.973428357687D-05 0.000000000000D+00  7 1 -1 24 -11 11 -24 21 2 0.41351379D+00 0.58724535D-01 0.84324149D+06 0.84324149D+06 0.84324149D+06 0.10528289D+01  1  2  6  2  7  2       -1 0.325462031643D-03 0.100000000000D+01
0.118966246783D-04 0.000000000000D+00 0.000000000000D+00 0.973428357687D-05 0.000000000000D+00  7 1 21 24 -11 11 -24 1 2 0.41351379D+00 0.98440839D-01 0.16062847D+07 0.16062847D+07 0.16062847D+07 0.10344318D+01  1  2 12  4  7  2       -1 0.978007174830D-05 0.100000000000D+01
-.230444357567D-04 0.000000000000D+00 -.320643570085D-04 0.973428357687D-05 0.000000000000D+00  7 1 21 24 -11 11 -24 1 2 0.41351379D+00 0.11628899D+00 0.84324149D+06 0.84324149D+06 0.84324149D+06 0.10528289D+01  1  2  5  4  7  2       -1 -.134891065422D-04 0.100000000000D+01
  </mgrwgt>
  </event>
  <event>
  9     66 0.27727860E-05 0.23602368E+03 0.75467711E-02 0.98364010E-01
        1 -1    0    0  501    0 0.00000000E+00 0.00000000E+00 0.22741489E+04 0.22741489E+04 0.32000000E+00 0.0000E+00 0.9000E+01
       21 -1    0    0  502  501 0.00000000E+00 0.00000000E+00 -.24141214E+03 0.24141330E+03 0.75000000E+00 0.0000E+00 0.9000E+01
       25  2    1    2    0    0 0.77409070E+02 -.40688504E+02 -.85989415E+02 0.32459453E+03 0.30053238E+03 0.0000E+00 0.0000E+00
       23  2    1    2    0    0 -.11992053E+03 -.15535978E+03 0.35346886E+03 0.41434854E+03 0.90702147E+02 0.0000E+00 0.0000E+00
       24  1    3    3    0    0 0.21291318E+02 -.14646027E+03 -.53675149E+02 0.17678283E+03 0.80419002E+02 0.0000E+00 0.9000E+01
      -11  1    4    4    0    0 -.13849190E+02 0.11100144E+02 0.42095534E+02 0.45684213E+02 0.51099893E-03 0.0000E+00 0.9000E+01
       11  1    4    4    0    0 -.10607134E+03 -.16645993E+03 0.31137333E+03 0.36866433E+03 0.51099893E-03 0.0000E+00 0.9000E+01
      -24  1    3    3    0    0 0.56117752E+02 0.10577177E+03 -.32314266E+02 0.14781170E+03 0.80419002E+02 0.0000E+00 0.9000E+01
        1  1    1    2  502    0 0.42511457E+02 0.19604828E+03 0.17652573E+04 0.17766192E+04 0.32000000E+00 0.0000E+00 0.9000E+01
#aMCatNLO 2  0  0  2  1 0.20060447D+03 0.00000000D+00  -5  7  0 0.00000000D+00 0.00000000D+00 0.00000000D+00 0.00000000D+00 0.00000000D+00
  <mgrwgt>
 0.3504855403D-04    1    2    0
 0.329488029303531D+03 0.000000000000000D+00 0.000000000000000D+00 0.329488029303531D+03
 0.329488029303531D+03 0.000000000000000D+00 0.000000000000000D+00 -.329488029303531D+03
 0.177823284029935D+03 0.335390214206298D+02 -.899780619291292D+02 -.126225935538005D+03
 0.365502758446281D+02 -.116661714233949D+02 0.211674799352698D+02 0.274182585484257D+02
 0.230649580229099D+03 -.901359972143562D+02 -.929715936658102D+02 0.190869100792330D+03
 0.213952918503401D+03 0.682631472171213D+02 0.161782175659670D+03 -.920614238027508D+02
 0.000000000000000D+00 0.000000000000000D+00 0.000000000000000D+00 0.000000000000000D+00
 0.155651356412932D+04 0.000000000000000D+00 0.000000000000000D+00 0.155651356412932D+04
 0.352716864637419D+03 0.000000000000000D+00 0.000000000000000D+00 -.352716864637419D+03
 0.210485474411030D+03 0.212913184483654D+02 -.146460274272417D+03 -.126225935538005D+03
 0.326615090330874D+02 -.138491903868762D+02 0.111001439683542D+02 0.274182585484257D+02
 0.274574304861847D+03 -.106071337184361D+03 -.166459925150216D+03 0.190869100792330D+03
 0.171112218275416D+03 0.561177517870094D+02 0.105771770669423D+03 -.920614238027508D+02
 0.122039692218536D+04 0.425114573358627D+02 0.196048284784855D+03 0.120379669949190D+04
0.159427203176D-05 0.000000000000D+00 0.000000000000D+00 0.189298337486D-05 0.812661721757D-11  7 1 21 24 -11 11 -24 1 2 0.34986914D+00 0.37140418D-01 0.13264515D+06 0.13264515D+06 0.13264515D+06 0.11117907D+01  1  2  1  4  7  2       -1 0.350485540264D-04 0.100000000000D+01
  </mgrwgt>
  </event>
  <event>
  8     66 0.27727860E-05 0.22716464E+03 0.75467711E-02 0.90451822E-01
        1 -1    0    0  501    0 0.00000000E+00 0.00000000E+00 0.90540025E+03 0.90540031E+03 0.32000000E+00 0.0000E+00 0.9000E+01
       -1 -1    0    0    0  501 0.00000000E+00 0.00000000E+00 -.29594837E+03 0.29594854E+03 0.32000000E+00 0.0000E+00 0.9000E+01
       25  2    1    2    0    0 0.10453446E+03 0.13240971E+03 0.83643312E+03 0.90346558E+03 0.29693417E+03 0.0000E+00 0.0000E+00
       23  2    1    2    0    0 -.10453446E+03 -.13240971E+03 -.22698123E+03 0.29788327E+03 0.93563782E+02 0.0000E+00 0.0000E+00
       24  1    3    3    0    0 -.11334132E+02 0.72143112E+02 0.88927482E+02 0.14038662E+03 0.80419002E+02 0.0000E+00 0.9000E+01
      -13  1    4    4    0    0 -.10767281E+03 -.14428862E+03 -.21761224E+03 0.28243183E+03 0.10565837E+00 0.0000E+00 0.9000E+01
       13  1    4    4    0    0 0.31383539E+01 0.11878916E+02 -.93689948E+01 0.15451444E+02 0.10565837E+00 0.0000E+00 0.9000E+01
      -24  1    3    3    0    0 0.11586859E+03 0.60266596E+02 0.74750564E+03 0.76307895E+03 0.80419002E+02 0.0000E+00 0.9000E+01
#aMCatNLO 1  0  0  2  2 0.68118822D+03 0.00000000D+00  -5  7  0 0.00000000D+00 0.00000000D+00 0.00000000D+00 0.00000000D+00 0.00000000D+00
  <mgrwgt>
 0.1894613934D-02    5    2    0
 0.517640669475615D+03 0.000000000000000D+00 0.000000000000000D+00 0.517640669475615D+03
 0.517640669475615D+03 0.000000000000000D+00 0.000000000000000D+00 -.517640669475615D+03
 0.110555732835228D+03 -.113341317145459D+02 0.721431120892053D+02 0.205490375620233D+02
 0.455841222325362D+03 -.107672953387386D+03 -.144288822876677D+03 -.418782151807811D+03
 0.234447916232253D+02 0.313849511476239D+01 0.118791144248153D+02 -.199673419150676D+02
 0.445439592167414D+03 0.115868589987170D+03 0.602665963626565D+02 0.418200456160855D+03
 0.000000000000000D+00 0.000000000000000D+00 0.000000000000000D+00 -.000000000000000D+00
 0.933138734623600D+03 0.000000000000000D+00 0.000000000000000D+00 0.933138734623600D+03
 0.989675679196145D+03 0.000000000000000D+00 0.000000000000000D+00 -.989675679196145D+03
 0.135228256317044D+03 -.846048336284515D+02 0.651093275510825D+02 0.205490375620233D+02
 0.625258858519646D+03 -.429959860829590D+03 -.175227473758854D+03 -.418782151807811D+03
 0.252621052974911D+02 -.113815252402582D+02 0.104852326685523D+02 -.199673419150676D+02
 0.453534784712788D+03 -.152124796497499D+03 0.345399731839957D+02 0.418200456160855D+03
 0.683530408972777D+03 0.678071016195799D+03 0.650929403552237D+02 -.565369445725451D+02
0.142974543340D-03 0.000000000000D+00 0.000000000000D+00 0.110439112870D-06 0.000000000000D+00  7 1 -1 24 -13 13 -24 21 0 0.13929236D+00 0.45530535D-01 0.51603776D+05 0.51603776D+05 0.51603776D+05 0.11460913D+01  1  2  2  2  7  2       -1 0.155467706576D-02 0.100000000000D+01
-.139203944515D-05 0.000000000000D+00 -.549059892488D-06 0.110439112870D-06 0.000000000000D+00  7 1 -1 24 -13 13 -24 21 2 0.13929236D+00 0.45530535D-01 0.51603776D+05 0.51603776D+05 0.51603776D+05 0.11460913D+01  1  2  3  2  7  2       -1 -.198825203090D-04 0.100000000000D+01
0.811310332304D-05 0.000000000000D+00 0.000000000000D+00 0.110439112870D-06 0.000000000000D+00  7 1 -1 24 -13 13 -24 21 2 0.13929236D+00 0.45530535D-01 0.51603776D+05 0.51603776D+05 0.51603776D+05 0.11460913D+01  1  2 15  2  7  2       -1 0.115879576654D-03 0.100000000000D+01
0.974555613253D-04 0.000000000000D+00 -.454493787782D-04 0.110439112870D-06 0.000000000000D+00  7 1 -1 24 -13 13 -24 21 2 0.13929236D+00 0.14668345D+00 0.51603776D+05 0.51603776D+05 0.51603776D+05 0.11460913D+01  1  2  5  2  7  2       -1 0.120510077395D-03 0.100000000000D+01
0.150764008417D-04 0.000000000000D+00 -.613091598248D-05 0.110439112870D-06 0.000000000000D+00  7 1 21 24 -13 13 -24 1 2 0.13929236D+00 0.14668345D+00 0.51603776D+05 0.51603776D+05 0.51603776D+05 0.11460913D+01  1  2  5  4  7  2       -1 0.123429734180D-03 0.100000000000D+01
  </mgrwgt>
  </event>
  <event>
  8     66 0.27727860E-05 0.24132303E+03 0.75467711E-02 0.97273795E-01
        1 -1    0    0  501    0 0.00000000E+00 0.00000000E+00 0.90270202E+03 0.90270208E+03 0.32000000E+00 0.0000E+00 0.9000E+01
       -1 -1    0    0    0  501 0.00000000E+00 0.00000000E+00 -.38270955E+03 0.38270968E+03 0.32000000E+00 0.0000E+00 0.9000E+01
       25  2    1    2    0    0 -.53390896E+02 0.16831448E+03 -.28961255E+03 0.45130025E+03 0.29768462E+03 0.0000E+00 0.0000E+00
       23  2    1    2    0    0 0.53390896E+02 -.16831448E+03 0.80960502E+03 0.83411151E+03 0.95401129E+02 0.0000E+00 0.0000E+00
       24  1    3    3    0    0 -.34767162E+02 0.19301270E+03 -.29693230E+03 0.36482690E+03 0.80419002E+02 0.0000E+00 0.9000E+01
      -11  1    4    4    0    0 0.33857454E+02 -.31275081E+02 0.87902161E+02 0.99253453E+02 0.51099893E-03 0.0000E+00 0.9000E+01
       11  1    4    4    0    0 0.19533442E+02 -.13703940E+03 0.72170286E+03 0.73485806E+03 0.51099893E-03 0.0000E+00 0.9000E+01
      -24  1    3    3    0    0 -.18623733E+02 -.24698222E+02 0.73197535E+01 0.86473351E+02 0.80419002E+02 0.0000E+00 0.9000E+01
#aMCatNLO 1  0  0  1  2 0.25572645D+03 0.00000000D+00  -5  7  0 0.00000000D+00 0.00000000D+00 0.00000000D+00 0.00000000D+00 0.00000000D+00
  <mgrwgt>
 0.1842090724D-02    4    2    0
 0.587769348747221D+03 0.000000000000000D+00 0.000000000000000D+00 0.587769348747221D+03
 0.587769348747221D+03 0.000000000000000D+00 0.000000000000000D+00 -.587769348747221D+03
 0.530272079318441D+03 -.347671624999924D+02 0.193012700874212D+03 -.486064402999514D+03
 0.696472974997504D+02 0.338574540774752D+02 -.312750812987448D+02 0.522138692510648D+02
 0.484301488689833D+03 0.195334417885077D+02 -.137039397614367D+03 0.464097597602676D+03
 0.913178319864170D+02 -.186237333659904D+02 -.246982219610998D+02 -.302470638542270D+02
 0.000000000000000D+00 0.000000000000000D+00 0.000000000000000D+00 -.000000000000000D+00
 0.660748133096480D+03 0.000000000000000D+00 0.000000000000000D+00 0.660748133096480D+03
 0.877533266770242D+03 0.000000000000000D+00 0.000000000000000D+00 -.877533266770242D+03
 0.515575366872339D+03 -.107577135883226D+03 0.107327997014127D+03 -.486064402999514D+03
 0.716914808645664D+02 0.240177085885835D+02 -.428547542349863D+02 0.522138692510648D+02
 0.515594348254178D+03 -.500774651741304D+02 -.218959355435683D+03 0.464097597602676D+03
 0.100171324788787D+03 -.319548558530812D+02 -.403866397609054D+02 -.302470638542270D+02
 0.335248879086852D+03 0.165591748321854D+03 0.194872752417447D+03 -.216785133673762D+03
0.298228041674D-03 0.000000000000D+00 0.000000000000D+00 0.863205059866D-07 0.000000000000D+00  7 1 -1 24 -11 11 -24 21 0 0.13887725D+00 0.58878407D-01 0.58236803D+05 0.58236803D+05 0.58236803D+05 0.11415152D+01  1  2  2  1  7  1        1 0.204524377792D-02 0.100000000000D+01
-.604621951205D-06 0.000000000000D+00 -.114527420528D-05 0.863205059866D-07 0.000000000000D+00  7 1 -1 24 -11 11 -24 21 2 0.13887725D+00 0.58878407D-01 0.58236803D+05 0.58236803D+05 0.58236803D+05 0.11415152D+01  1  2  3  1  7  1        1 -.540311138628D-05 0.100000000000D+01
0.170786989278D-04 0.000000000000D+00 0.000000000000D+00 0.863205059866D-07 0.000000000000D+00  7 1 -1 24 -11 11 -24 21 2 0.13887725D+00 0.58878407D-01 0.58236803D+05 0.58236803D+05 0.58236803D+05 0.11415152D+01  1  2 15  1  7  1        1 0.152621175026D-03 0.100000000000D+01
-.392074220759D-04 0.000000000000D+00 0.000000000000D+00 0.863205059866D-07 0.000000000000D+00  7 1 -1 24 -11 11 -24 21 2 0.13887725D+00 0.58878407D-01 0.58236803D+05 0.58236803D+05 0.58236803D+05 0.11415152D+01  1  2  4  1  7  1        1 -.350371117395D-03 0.100000000000D+01
  </mgrwgt>
  </event>
  <event>
  7     66 0.27727860E-05 0.30916570E+03 0.75467711E-02 0.96177762E-01
        1 -1    0    0  501    0 0.00000000E+00 0.00000000E+00 0.21604497E+03 0.21604521E+03 0.32000000E+00 0.0000E+00 0.9000E+01
       -1 -1    0    0    0  501 0.00000000E+00 0.00000000E+00 -.70446812E+03 0.70446819E+03 0.32000000E+00 0.0000E+00 0.9000E+01
       25  2    1    2    0    0 -.17218293E+03 -.13227458E+03 -.51195374E+03 0.63179215E+03 0.29986858E+03 0.0000E+00 0.0000E+00
       24  1    3    3    0    0 0.18324479E+02 0.71243396E+01 -.28055790E+02 0.87412162E+02 0.80419002E+02 0.0000E+00 0.9000E+01
      -13  1    1    2    0    0 0.15324966E+03 0.71911530E+00 -.25644369E+01 0.15327284E+03 0.10565837E+00 0.0000E+00 0.9000E+01
       13  1    1    2    0    0 0.18933265E+02 0.13155547E+03 0.26095034E+02 0.13544841E+03 0.10565837E+00 0.0000E+00 0.9000E+01
      -24  1    3    3    0    0 -.19050741E+03 -.13939892E+03 -.48389795E+03 0.54437999E+03 0.80419002E+02 0.0000E+00 0.9000E+01
#aMCatNLO 1  0  0  1  2 0.23414866D+03 0.00000000D+00  -5  7  0 0.00000000D+00 0.00000000D+00 0.00000000D+00 0.00000000D+00 0.00000000D+00
  <mgrwgt>
 0.1221161331D-02    3    2    0
 0.390124260611296D+03 0.000000000000000D+00 0.000000000000000D+00 0.390124260611296D+03
 0.390124260611296D+03 0.000000000000000D+00 0.000000000000000D+00 -.390124260611296D+03
 0.855635380801500D+02 0.183241603751415D+02 0.712409478549422D+01 0.216188694074440D+02
 0.179220359839603D+03 0.153247654856005D+03 0.722518060082834D+00 0.929223957387262D+02
 0.176131979993446D+03 0.189368562617454D+02 0.131553279779376D+03 0.115575102987724D+03
 0.339332643309392D+03 -.190508671492892D+03 -.139399892624953D+03 -.230116368133894D+03
 0.000000000000000D+00 -.000000000000000D+00 -.000000000000000D+00 -.000000000000000D+00
 0.452850005820362D+03 0.000000000000000D+00 0.000000000000000D+00 0.452850005820362D+03
 0.708302666972611D+03 0.000000000000000D+00 0.000000000000000D+00 -.708302666972611D+03
 0.949504157372419D+02 0.389031157905436D+02 0.238230468587871D+02 0.216188694074440D+02
 0.222963863407804D+03 0.199097468811989D+03 0.379277031807686D+02 0.929223957387262D+02
 0.213180373208996D+03 0.633192510284287D+02 0.167567716282412D+03 0.115575102987724D+03
 0.283530016150613D+03 -.119501069986846D+03 -.817802267841160D+02 -.230116368133894D+03
 0.346528004288317D+03 -.181818765644116D+03 -.147538239537852D+03 -.255452661152249D+03
0.844497267074D-04 0.000000000000D+00 0.000000000000D+00 0.878696020184D-09 0.000000000000D+00  7 1 -1 24 -13 13 -24 21 0 0.33237712D-01 0.10837973D+00 0.95583429D+05 0.95583429D+05 0.95583429D+05 0.11233354D+01  1  2  2  1  7  1        1 0.120397916371D-02 0.100000000000D+01
-.438306166101D-05 0.000000000000D+00 -.324309186680D-06 0.878696020184D-09 0.000000000000D+00  7 1 -1 24 -13 13 -24 21 2 0.33237712D-01 0.10837973D+00 0.95583429D+05 0.95583429D+05 0.95583429D+05 0.11233354D+01  1  2  3  1  7  1        1 -.788528191519D-04 0.100000000000D+01
0.533813847395D-05 0.000000000000D+00 0.000000000000D+00 0.878696020184D-09 0.000000000000D+00  7 1 -1 24 -13 13 -24 21 2 0.33237712D-01 0.10837973D+00 0.95583429D+05 0.95583429D+05 0.95583429D+05 0.11233354D+01  1  2 15  1  7  1        1 0.960349865571D-04 0.100000000000D+01
  </mgrwgt>
  </event>
  <event>
  8     66 0.27727860E-05 0.18385532E+03 0.75467711E-02 0.89808819E-01
        1 -1    0    0  501    0 0.00000000E+00 0.00000000E+00 0.57470856E+03 0.57470865E+03 0.32000000E+00 0.0000E+00 0.9000E+01
       -1 -1    0    0    0  501 0.00000000E+00 0.00000000E+00 -.83555727E+02 0.83556340E+02 0.32000000E+00 0.0000E+00 0.9000E+01
       25  2    1    2    0    0 0.65300209E+02 0.39134549E+02 0.28623629E+03 0.42156451E+03 0.29998299E+03 0.0000E+00 0.0000E+00
       23  2    1    2    0    0 -.65300209E+02 -.39134549E+02 0.20491655E+03 0.23670048E+03 0.90778278E+02 0.0000E+00 0.0000E+00
       24  1    3    3    0    0 -.28731652E+02 0.11590290E+03 0.21679529E+03 0.26024297E+03 0.80419002E+02 0.0000E+00 0.9000E+01
      -13  1    4    4    0    0 -.43921101E+02 -.16287953E+02 0.19952431E+03 0.20494956E+03 0.10565837E+00 0.0000E+00 0.9000E+01
       13  1    4    4    0    0 -.21379109E+02 -.22846596E+02 0.53922305E+01 0.31750914E+02 0.10565837E+00 0.0000E+00 0.9000E+01
      -24  1    3    3    0    0 0.94031861E+02 -.76768355E+02 0.69441002E+02 0.16132154E+03 0.80419002E+02 0.0000E+00 0.9000E+01
#aMCatNLO 1  0  0  2  2 0.75038096D+03 0.00000000D+00  -5  7  0 0.00000000D+00 0.00000000D+00 0.00000000D+00 0.00000000D+00 0.00000000D+00
  <mgrwgt>
 0.8020640277D-03    3    2    0
 0.219135626597458D+03 0.000000000000000D+00 0.000000000000000D+00 0.219135626597458D+03
 0.219135626597458D+03 0.000000000000000D+00 0.000000000000000D+00 -.219135626597458D+03
 0.147920304969702D+03 -.287316361954023D+02 0.115902913320775D+03 0.339736432142767D+02
 0.842268735089651D+02 -.439211531531921D+02 -.162879634144232D+02 0.699985769469598D+02
 0.416456093222420D+02 -.213790891957480D+02 -.228466051474058D+02 -.274831576464494D+02
 0.164478465394008D+03 0.940318785443425D+02 -.767683447589460D+02 -.764890625147871D+02
 0.000000000000000D+00 -.000000000000000D+00 -.000000000000000D+00 0.000000000000000D+00
 0.107267939193206D+04 0.000000000000000D+00 0.000000000000000D+00 0.107267939193206D+04
 0.655074326885692D+03 0.000000000000000D+00 0.000000000000000D+00 -.655074326885692D+03
 0.447137713255490D+03 0.127775943665044D+03 0.419504491570990D+03 0.339736432142767D+02
 0.107759383864654D+03 0.657359456506970D+01 0.816643856940374D+02 0.699985769469598D+02
 0.310333901435695D+02 -.226361815815218D+01 0.142345840268513D+02 -.274831576464494D+02
 0.283065070728189D+03 0.211741334724066D+03 0.151570606638833D+03 -.764890625147871D+02
 0.858758160825850D+03 -.343827254796027D+03 -.666974067930712D+03 0.417605065046369D+03
0.469798494603D-05 0.000000000000D+00 0.000000000000D+00 0.687827772299D-06 0.000000000000D+00  7 1 -1 24 -13 13 -24 21 0 0.88416756D-01 0.12854781D-01 0.33802779D+05 0.33802779D+05 0.33802779D+05 0.11625573D+01  1  2  2  2  7  2       -1 0.791379110321D-03 0.100000000000D+01
-.251220462018D-06 0.000000000000D+00 -.180414992006D-07 0.687827772299D-06 0.000000000000D+00  7 1 -1 24 -13 13 -24 21 2 0.88416756D-01 0.12854781D-01 0.33802779D+05 0.33802779D+05 0.33802779D+05 0.11625573D+01  1  2  3  2  7  2       -1 -.571948183950D-04 0.100000000000D+01
0.298152508622D-06 0.000000000000D+00 0.000000000000D+00 0.687827772299D-06 0.000000000000D+00  7 1 -1 24 -13 13 -24 21 2 0.88416756D-01 0.12854781D-01 0.33802779D+05 0.33802779D+05 0.33802779D+05 0.11625573D+01  1  2 15  2  7  2       -1 0.678797357813D-04 0.100000000000D+01
  </mgrwgt>
  </event>
  <event>
  8     66 0.27727860E-05 0.47850451E+03 0.75467711E-02 0.86795526E-01
        1 -1    0    0  501    0 0.00000000E+00 0.00000000E+00 0.65753868E+03 0.65753875E+03 0.32000000E+00 0.0000E+00 0.9000E+01
       -1 -1    0    0    0  501 0.00000000E+00 0.00000000E+00 -.39664456E+03 0.39664468E+03 0.32000000E+00 0.0000E+00 0.9000E+01
       25  2    1    2    0    0 0.26037946E+03 0.34645975E+03 -.22903782E+02 0.52810122E+03 0.30088950E+03 0.0000E+00 0.0000E+00
       23  2    1    2    0    0 -.26037946E+03 -.34645975E+03 0.28379790E+03 0.52608222E+03 0.91593852E+02 0.0000E+00 0.0000E+00
       24  1    3    3    0    0 0.80695220E+02 -.11952934E+02 0.22273970E+02 0.11669592E+03 0.80419002E+02 0.0000E+00 0.9000E+01
      -13  1    4    4    0    0 -.21096506E+03 -.27317504E+03 0.17841431E+03 0.38853897E+03 0.10565837E+00 0.0000E+00 0.9000E+01
       13  1    4    4    0    0 -.49414399E+02 -.73284711E+02 0.10538359E+03 0.13754325E+03 0.10565837E+00 0.0000E+00 0.9000E+01
      -24  1    3    3    0    0 0.17968424E+03 0.35841268E+03 -.45177752E+02 0.41140530E+03 0.80419002E+02 0.0000E+00 0.9000E+01
#aMCatNLO 1  0  0  2  2 0.84800499D+03 0.00000000D+00  -5  7  0 0.00000000D+00 0.00000000D+00 0.00000000D+00 0.00000000D+00 0.00000000D+00
  <mgrwgt>
 0.6916629215D-03    5    2    0
 0.510694865242025D+03 0.000000000000000D+00 0.000000000000000D+00 0.510694865242025D+03
 0.510694865242025D+03 0.000000000000000D+00 0.000000000000000D+00 -.510694865242025D+03
 0.114753214106737D+03 0.806952199909504D+02 -.119529337597411D+02 -.681858039502499D+01
 0.355441633683188D+03 -.210965271772056D+03 -.273175305941067D+03 0.848979462974267D+02
 0.115040834161346D+03 -.494141843216954D+02 -.732844447718049D+02 0.736343810108297D+02
 0.436154048532780D+03 0.179684236102801D+03 0.358412684472613D+03 -.151713746913231D+03
 0.000000000000000D+00 -.000000000000000D+00 0.000000000000000D+00 -.000000000000000D+00
 0.105854586971850D+04 0.000000000000000D+00 0.000000000000000D+00 0.105854586971850D+04
 0.111915759332549D+04 0.000000000000000D+00 0.000000000000000D+00 -.111915759332549D+04
 0.206253838435614D+03 0.168223392910511D+03 -.879080596653466D+02 -.681858039502499D+01
 0.478340047223625D+03 0.163798490456404D+02 -.470460667896500D+03 0.848979462974267D+02
 0.158414580454947D+03 0.251482049677647D+02 -.137988133623033D+03 0.736343810108297D+02
 0.484526634870469D+03 0.430723885924784D+03 0.140565703626213D+03 -.151713746913231D+03
 0.850168362059343D+03 -.640475332848700D+03 0.555791157558667D+03 -.606117236069884D+02
0.668401642694D-04 0.000000000000D+00 0.000000000000D+00 0.202993059503D-05 0.000000000000D+00  7 1 -1 24 -13 13 -24 21 0 0.10115981D+00 0.61022255D-01 0.22896657D+06 0.22896657D+06 0.22896657D+06 0.10933421D+01  1  2  2  2  7  2       -1 0.670555395636D-03 0.100000000000D+01
-.369420443595D-05 0.000000000000D+00 -.256683830214D-06 0.202993059503D-05 0.000000000000D+00  7 1 -1 24 -13 13 -24 21 2 0.10115981D+00 0.61022255D-01 0.22896657D+06 0.22896657D+06 0.22896657D+06 0.10933421D+01  1  2  3  2  7  2       -1 -.443027056561D-04 0.100000000000D+01
0.402705346096D-05 0.000000000000D+00 0.000000000000D+00 0.202993059503D-05 0.000000000000D+00  7 1 -1 24 -13 13 -24 21 2 0.10115981D+00 0.61022255D-01 0.22896657D+06 0.22896657D+06 0.22896657D+06 0.10933421D+01  1  2 15  2  7  2       -1 0.482943938905D-04 0.100000000000D+01
0.232673305113D-04 0.000000000000D+00 -.226090821587D-04 0.202993059503D-05 0.000000000000D+00  7 1 -1 24 -13 13 -24 21 2 0.10115981D+00 0.23398520D+00 0.22896657D+06 0.22896657D+06 0.22896657D+06 0.10933421D+01  1  2  5  2  7  2       -1 0.766801209899D-05 0.100000000000D+01
0.412840707481D-05 0.000000000000D+00 -.360561798354D-05 0.202993059503D-05 0.000000000000D+00  7 1 21 24 -13 13 -24 1 2 0.10115981D+00 0.23398520D+00 0.22896657D+06 0.22896657D+06 0.22896657D+06 0.10933421D+01  1  2  5  4  7  2       -1 0.944782548704D-05 0.100000000000D+01
  </mgrwgt>
  </event>
  <event>
  9     66 0.27727860E-05 0.19345769E+03 0.75467711E-02 0.10324802E+00
        1 -1    0    0  501    0 0.00000000E+00 0.00000000E+00 0.18356804E+03 0.18356832E+03 0.32000000E+00 0.0000E+00 0.9000E+01
       21 -1    0    0  502  501 0.00000000E+00 0.00000000E+00 -.56637149E+03 0.56637198E+03 0.75000000E+00 0.0000E+00 0.9000E+01
       25  2    1    2    0    0 -.17185817E+03 0.17467373E+02 -.31371057E+03 0.47014571E+03 0.30460191E+03 0.0000E+00 0.0000E+00
       23  2    1    2    0    0 0.11029919E+03 -.86447983E+02 -.24636983E+01 0.16583240E+03 0.88629286E+02 0.0000E+00 0.0000E+00
       24  1    3    3    0    0 -.63387201E+02 -.40329373E+02 -.30358539E+03 0.32291748E+03 0.80419002E+02 0.0000E+00 0.9000E+01
      -13  1    4    4    0    0 0.68074556E+01 -.31380150E+02 0.30258328E+02 0.44120662E+02 0.10565837E+00 0.0000E+00 0.9000E+01
       13  1    4    4    0    0 0.10349173E+03 -.55067833E+02 -.32722026E+02 0.12171174E+03 0.10565837E+00 0.0000E+00 0.9000E+01
      -24  1    3    3    0    0 -.10847097E+03 0.57796745E+02 -.10125183E+02 0.14722823E+03 0.80419002E+02 0.0000E+00 0.9000E+01
        1  1    1    2  502    0 0.61558986E+02 0.68980610E+02 -.66629177E+02 0.11396220E+03 0.32000000E+00 0.0000E+00 0.9000E+01
#aMCatNLO 2  0  0  2  1 0.92454493D+02 0.00000000D+00  -5  7  0 0.00000000D+00 0.00000000D+00 0.00000000D+00 0.00000000D+00 0.00000000D+00
  <mgrwgt>
 0.3429671800D-04    2    2    0
 0.272008341288314D+03 0.000000000000000D+00 0.000000000000000D+00 0.272008341288314D+03
 0.272008341288314D+03 0.000000000000000D+00 0.000000000000000D+00 -.272008341288314D+03
 0.188778291584546D+03 -.416473071916726D+02 -.159683566105108D+02 -.164865220134664D+03
 0.659558552998838D+02 0.143428744495394D+02 -.229361107757378D+02 0.601530682787424D+02
 0.127996912955131D+03 0.117508997734442D+03 -.393609040270759D+02 0.320244346033078D+02
 0.161285622737068D+03 -.902045649923092D+02 0.782653714133245D+02 0.726877172526140D+02
 0.000000000000000D+00 0.000000000000000D+00 0.000000000000000D+00 -.000000000000000D+00
 0.316744451137979D+03 0.000000000000000D+00 0.000000000000000D+00 0.316744451137979D+03
 0.328238800845189D+03 0.000000000000000D+00 0.000000000000000D+00 -.328238800845189D+03
 0.198222488419695D+03 -.633872630701569D+02 -.403293073502288D+02 -.164865220134664D+03
 0.681868341077944D+02 0.680734403248914D+01 -.313801336759447D+02 0.601530682787424D+02
 0.121526190424897D+03 0.103491916791906D+03 -.550679008703273D+02 0.320244346033078D+02
 0.163881471439517D+03 -.108470983681327D+03 0.577967316257606D+02 0.726877172526140D+02
 0.931662675912636D+02 0.615589859270891D+02 0.689806102707401D+02 -.114943497072100D+02
-.123478404762D-06 0.000000000000D+00 0.000000000000D+00 0.330464732178D-08 0.000000000000D+00  7 1 21 24 -13 13 -24 1 2 0.24252554D-01 0.92008883D-01 0.62182328D+05 0.62182328D+05 0.62182328D+05 0.11390579D+01  1  2 13  4  7  2       -1 -.373797816131D-04 0.100000000000D+01
0.252051022306D-06 0.000000000000D+00 0.000000000000D+00 0.330464732178D-08 0.791348589345D-13  7 1 21 24 -13 13 -24 1 2 0.28241273D-01 0.87134060D-01 0.62182328D+05 0.62182328D+05 0.62182328D+05 0.11390579D+01  1  2  1  4  7  2       -1 0.716764996153D-04 0.100000000000D+01
  </mgrwgt>
  </event>
  <event>
  8     66 0.27727860E-05 0.16236686E+03 0.75467711E-02 0.97460544E-01
        1 -1    0    0  501    0 0.00000000E+00 0.00000000E+00 0.15750477E+04 0.15750478E+04 0.32000000E+00 0.0000E+00 0.9000E+01
       -1 -1    0    0    0  501 0.00000000E+00 0.00000000E+00 -.94108096E+02 0.94108640E+02 0.32000000E+00 0.0000E+00 0.9000E+01
       25  2    1    2    0    0 0.27803000E+03 0.16999081E+02 0.11836439E+04 0.12524513E+04 0.30005273E+03 0.0000E+00 0.0000E+00
       23  2    1    2    0    0 -.27803000E+03 -.16999081E+02 0.29729574E+03 0.41670515E+03 0.87571526E+02 0.0000E+00 0.0000E+00
       24  1    3    3    0    0 0.13742272E+03 -.70841930E+02 0.27691871E+03 0.32719225E+03 0.80419002E+02 0.0000E+00 0.9000E+01
      -13  1    4    4    0    0 -.15121577E+03 -.44711851E+02 0.12636775E+03 0.20207468E+03 0.10565837E+00 0.0000E+00 0.9000E+01
       13  1    4    4    0    0 -.12681423E+03 0.27712770E+02 0.17092799E+03 0.21463046E+03 0.10565837E+00 0.0000E+00 0.9000E+01
      -24  1    3    3    0    0 0.14060728E+03 0.87841011E+02 0.90672518E+03 0.92525900E+03 0.80419002E+02 0.0000E+00 0.9000E+01
#aMCatNLO 1  0  0  1  2 0.12753925D+03 0.00000000D+00  -5  7  0 0.00000000D+00 0.00000000D+00 0.00000000D+00 0.00000000D+00 0.00000000D+00
  <mgrwgt>
 0.5634901343D-03    9    2    0
 0.385000290023876D+03 0.000000000000000D+00 0.000000000000000D+00 0.385000290023876D+03
 0.385000290023876D+03 0.000000000000000D+00 0.000000000000000D+00 -.385000290023876D+03
 0.176668894754255D+03 0.137422719071860D+03 -.708419298722032D+02 -.290017184697371D+02
 0.195001543829834D+03 -.151215801155893D+03 -.447119560255537D+02 -.114718021972003D+03
 0.136516405865661D+03 -.126814195923016D+03 0.277128748156725D+02 -.422715667124806D+02
 0.261813735598003D+03 0.140607278007049D+03 0.878410110820844D+02 0.185991307154221D+03
 0.000000000000000D+00 -.000000000000000D+00 0.000000000000000D+00 0.000000000000000D+00
 0.510391390440781D+03 0.000000000000000D+00 0.000000000000000D+00 0.510391390440781D+03
 0.424092784728802D+03 0.000000000000000D+00 0.000000000000000D+00 -.424092784728802D+03
 0.202989957342121D+03 0.158225607101573D+03 -.941342892389730D+02 -.290017184697371D+02
 0.186497765249018D+03 -.130312067800650D+03 -.681172288281573D+02 -.114718021972003D+03
 0.120960930915146D+03 -.112706077074571D+03 0.119164443518966D+02 -.422715667124806D+02
 0.270042956907397D+03 0.169749638736820D+03 0.552111984356704D+02 0.185991307154221D+03
 0.153992564755900D+03 -.849571009631711D+02 0.951238752795633D+02 0.862986057119794D+02
0.175455657924D-04 0.000000000000D+00 0.000000000000D+00 0.274546452046D-06 0.000000000000D+00  7 1 -1 24 -13 13 -24 21 0 0.24231508D+00 0.14478213D-01 0.10433932D+06 0.10433932D+06 0.10433932D+06 0.11202113D+01  1  2  2  1  7  1        1 0.417850905069D-03 0.100000000000D+01
-.938232877397D-06 0.000000000000D+00 -.673795924964D-07 0.274546452046D-06 0.000000000000D+00  7 1 -1 24 -13 13 -24 21 2 0.24231508D+00 0.14478213D-01 0.10433932D+06 0.10433932D+06 0.10433932D+06 0.11202113D+01  1  2  3  1  7  1        1 -.280391292909D-04 0.100000000000D+01
0.109233625870D-05 0.000000000000D+00 0.000000000000D+00 0.274546452046D-06 0.000000000000D+00  7 1 -1 24 -13 13 -24 21 2 0.24231508D+00 0.14478213D-01 0.10433932D+06 0.10433932D+06 0.10433932D+06 0.11202113D+01  1  2 15  1  7  1        1 0.326445153700D-04 0.100000000000D+01
0.123914819076D-04 0.000000000000D+00 0.000000000000D+00 0.274546452046D-06 0.000000000000D+00  7 1 -1 24 -13 13 -24 21 2 0.33045890D+00 0.14478213D-01 0.15390090D+06 0.15390090D+06 0.15390090D+06 0.11066731D+01  1  2 12  1  7  1        1 0.149837033358D-03 0.100000000000D+01
-.150206351040D-04 0.000000000000D+00 0.000000000000D+00 0.274546452046D-06 0.000000000000D+00  7 1 -1 24 -13 13 -24 21 2 0.24231508D+00 0.14478213D-01 0.10433932D+06 0.10433932D+06 0.10433932D+06 0.11202113D+01  1  2  4  1  7  1        1 -.448892316460D-03 0.100000000000D+01
-.224981005980D-04 0.000000000000D+00 -.715569852694D-05 0.274546452046D-06 0.000000000000D+00  7 1 -1 24 -13 13 -24 21 2 0.33408743D+00 0.14478213D-01 0.10433932D+06 0.10433932D+06 0.10433932D+06 0.11202113D+01  1  2  5  1  7  1        1 -.272965115327D-03 0.100000000000D+01
0.239065050109D-04 0.000000000000D+00 0.680187878994D-05 0.274546452046D-06 0.000000000000D+00  7 1 -1 24 -13 13 -24 21 2 0.24231508D+00 0.14478213D-01 0.10433932D+06 0.10433932D+06 0.10433932D+06 0.11202113D+01  1  2  6  1  7  1        1 0.714446915094D-03 0.100000000000D+01
0.490746366337D-06 0.000000000000D+00 0.000000000000D+00 0.274546452046D-06 0.000000000000D+00  7 21 -1 24 -13 13 -24 -1 2 0.33045890D+00 0.14478213D-01 0.15390090D+06 0.15390090D+06 0.15390090D+06 0.11066731D+01  1  2 12  3  7  1        1 0.275002563258D-05 0.100000000000D+01
-.735395850823D-06 0.000000000000D+00 -.290545828257D-06 0.274546452046D-06 0.000000000000D+00  7 21 -1 24 -13 13 -24 -1 2 0.33408743D+00 0.14478213D-01 0.10433932D+06 0.10433932D+06 0.10433932D+06 0.11202113D+01  1  2  5  3  7  1        1 -.414269913997D-05 0.100000000000D+01
  </mgrwgt>
  </event>
  <event>
  8     66 0.27727860E-05 0.34905335E+03 0.75467711E-02 0.94183682E-01
        1 -1    0    0  501    0 0.00000000E+00 0.00000000E+00 0.91151363E+03 0.91151368E+03 0.32000000E+00 0.0000E+00 0.9000E+01
       -1 -1    0    0    0  501 0.00000000E+00 0.00000000E+00 -.14059762E+03 0.14059798E+03 0.32000000E+00 0.0000E+00 0.9000E+01
       25  2    1    2    0    0 -.25249996E+03 0.13101835E+03 0.40392809E+03 0.57802013E+03 0.30004555E+03 0.0000E+00 0.0000E+00
       23  2    1    2    0    0 0.25249996E+03 -.13101835E+03 0.36698792E+03 0.47409153E+03 0.95711043E+02 0.0000E+00 0.0000E+00
       24  1    3    3    0    0 -.19933281E+03 -.23168881E+02 0.29605211E+03 0.36658482E+03 0.80419002E+02 0.0000E+00 0.9000E+01
      -13  1    4    4    0    0 0.14128189E+02 -.44166770E+02 0.60332264E+02 0.76094038E+02 0.10565837E+00 0.0000E+00 0.9000E+01
       13  1    4    4    0    0 0.23837177E+03 -.86851579E+02 0.30665566E+03 0.39799749E+03 0.10565837E+00 0.0000E+00 0.9000E+01
      -24  1    3    3    0    0 -.53167156E+02 0.15418723E+03 0.10787598E+03 0.21143531E+03 0.80419002E+02 0.0000E+00 0.9000E+01
#aMCatNLO 1  0  0  2  1 0.28820551D+03 0.00000000D+00  -5  7  0 0.00000000D+00 0.00000000D+00 0.00000000D+00 0.00000000D+00 0.00000000D+00
  <mgrwgt>
 0.8876035066D-03    3    2    0
 0.357990032649057D+03 0.000000000000000D+00 0.000000000000000D+00 0.357990032649057D+03
 0.357990032649057D+03 0.000000000000000D+00 0.000000000000000D+00 -.357990032649057D+03
 0.219917933098720D+03 -.199332807392964D+03 -.231688802333803D+02 0.403276112559753D+02
 0.468562398798526D+02 0.141279184447455D+02 -.441667156819461D+02 0.672386510624964D+01
 0.254661038394376D+03 0.238372045994278D+03 -.868516342696993D+02 0.220863258439711D+02
 0.194544853925166D+03 -.531671570460594D+02 0.154187230185026D+03 -.691378022061961D+02
 0.000000000000000D+00 0.000000000000000D+00 0.000000000000000D+00 0.000000000000000D+00
 0.874659516597032D+03 0.000000000000000D+00 0.000000000000000D+00 0.874659516597032D+03
 0.428391491980964D+03 0.000000000000000D+00 0.000000000000000D+00 -.428391491980964D+03
 0.273280041253856D+03 -.232017791233619D+03 -.112943319035694D+03 0.403276112559753D+02
 0.652701397195953D+02 0.669713183186458D+01 -.645765375525436D+02 0.672386510624964D+01
 0.274543273915367D+03 0.203300867084927D+03 -.183180132398137D+03 0.220863258439711D+02
 0.158716022186345D+03 -.765782954279582D+02 0.898848636853348D+02 -.691378022061961D+02
 0.531241531502832D+03 0.985980877447860D+02 0.270815125301039D+03 0.446268024616068D+03
0.239548477816D-04 0.000000000000D+00 0.000000000000D+00 0.152357600647D-06 0.000000000000D+00  7 1 -1 24 -13 13 -24 21 0 0.14023290D+00 0.21630435D-01 0.12183824D+06 0.12183824D+06 0.12183824D+06 0.11147498D+01  1  2  2  2  7  2       -1 0.879084774631D-03 0.100000000000D+01
-.132979076062D-05 0.000000000000D+00 -.919929229378D-07 0.152357600647D-06 0.000000000000D+00  7 1 -1 24 -13 13 -24 21 2 0.14023290D+00 0.21630435D-01 0.12183824D+06 0.12183824D+06 0.12183824D+06 0.11147498D+01  1  2  3  2  7  2       -1 -.606422662252D-04 0.100000000000D+01
0.151659332938D-05 0.000000000000D+00 0.000000000000D+00 0.152357600647D-06 0.000000000000D+00  7 1 -1 24 -13 13 -24 21 2 0.14023290D+00 0.21630435D-01 0.12183824D+06 0.12183824D+06 0.12183824D+06 0.11147498D+01  1  2 15  2  7  2       -1 0.691609982258D-04 0.100000000000D+01
  </mgrwgt>
  </event>
  <event>
  8     66 0.27727860E-05 0.19646461E+03 0.75467711E-02 0.91091683E-01
        1 -1    0    0  501    0 0.00000000E+00 0.00000000E+00 0.35167880E+03 0.35167895E+03 0.32000000E+00 0.0000E+00 0.9000E+01
       -1 -1    0    0    0  501 0.00000000E+00 0.00000000E+00 -.91030139E+03 0.91030145E+03 0.32000000E+00 0.0000E+00 0.9000E+01
       25  2    1    2    0    0 -.49536448E+03 -.16267224E+03 -.28482210E+03 0.66556527E+03 0.30000878E+03 0.0000E+00 0.0000E+00
       23  2    1    2    0    0 0.49536448E+03 0.16267224E+03 -.27380049E+03 0.59641513E+03 0.94319000E+02 0.0000E+00 0.0000E+00
       24  1    3    3    0    0 -.29216601E+03 -.20152638E+03 -.10184335E+03 0.37790626E+03 0.80419002E+02 0.0000E+00 0.9000E+01
      -13  1    4    4    0    0 0.62811381E+02 0.55962389E+02 -.49649423E+02 0.97683852E+02 0.10565837E+00 0.0000E+00 0.9000E+01
       13  1    4    4    0    0 0.43255310E+03 0.10670985E+03 -.22415106E+03 0.49873128E+03 0.10565837E+00 0.0000E+00 0.9000E+01
      -24  1    3    3    0    0 -.20319847E+03 0.38854143E+02 -.18297875E+03 0.28765900E+03 0.80419002E+02 0.0000E+00 0.9000E+01
#aMCatNLO 1  0  0  1  2 0.24097221D+03 0.00000000D+00  -5  7  0 0.00000000D+00 0.00000000D+00 0.00000000D+00 0.00000000D+00 0.00000000D+00
  <mgrwgt>
 0.5117448793D-03    9    2    0
 0.565803704472025D+03 0.000000000000000D+00 0.000000000000000D+00 0.565803704472025D+03
 0.565803704472025D+03 0.000000000000000D+00 0.000000000000000D+00 -.565803704472025D+03
 0.371169626645331D+03 -.292166011108661D+03 -.201526378835861D+03 0.729781910972219D+02
 0.844279590626768D+02 0.628109169694746D+02 0.559623248655155D+02 -.714752940457883D+01
 0.445537700834264D+03 0.432553566536206D+03 0.106709911442750D+03 -.377488296114446D+01
 0.230472122401778D+03 -.203198472397019D+03 0.388541425275955D+02 -.620557787314986D+02
 0.000000000000000D+00 -.000000000000000D+00 0.000000000000000D+00 0.000000000000000D+00
 0.712246854899182D+03 0.000000000000000D+00 0.000000000000000D+00 0.712246854899182D+03
 0.687022104067915D+03 0.000000000000000D+00 0.000000000000000D+00 -.687022104067915D+03
 0.421293312162498D+03 -.290682392801218D+03 -.284953977087552D+03 0.729781910972219D+02
 0.746436916419093D+02 0.631087247300943D+02 0.392158435875644D+02 -.714752940457883D+01
 0.434445293611694D+03 0.434201036489517D+03 0.140685220051556D+02 -.377488296114446D+01
 0.226597795189372D+03 -.202342763865665D+03 -.926450579063795D+01 -.620557787314986D+02
 0.242288866361625D+03 -.428460455272764D+01 0.240934117285470D+03 0.252247508312664D+02
0.999372631692D-04 0.000000000000D+00 0.000000000000D+00 0.761965976351D-06 0.000000000000D+00  7 1 -1 24 -13 13 -24 21 0 0.54104447D-01 0.14004638D+00 0.31110272D+06 0.31110272D+06 0.31110272D+06 0.10833861D+01  1  2  2  1  7  1        1 0.379811797576D-03 0.100000000000D+01
-.555068822096D-05 0.000000000000D+00 -.383785404656D-06 0.761965976351D-06 0.000000000000D+00  7 1 -1 24 -13 13 -24 21 2 0.54104447D-01 0.14004638D+00 0.31110272D+06 0.31110272D+06 0.31110272D+06 0.10833861D+01  1  2  3  1  7  1        1 -.247602130054D-04 0.100000000000D+01
0.626889981195D-05 0.000000000000D+00 0.000000000000D+00 0.761965976351D-06 0.000000000000D+00  7 1 -1 24 -13 13 -24 21 2 0.54104447D-01 0.14004638D+00 0.31110272D+06 0.31110272D+06 0.31110272D+06 0.10833861D+01  1  2 15  1  7  1        1 0.279639728399D-04 0.100000000000D+01
0.391013092001D-04 0.000000000000D+00 0.000000000000D+00 0.761965976351D-06 0.000000000000D+00  7 1 -1 24 -13 13 -24 21 2 0.72607359D-01 0.14004638D+00 0.47786882D+06 0.47786882D+06 0.47786882D+06 0.10699027D+01  1  2 12  1  7  1        1 0.111614454011D-03 0.100000000000D+01
-.454382844417D-04 0.000000000000D+00 0.000000000000D+00 0.761965976351D-06 0.000000000000D+00  7 1 -1 24 -13 13 -24 21 2 0.54104447D-01 0.14004638D+00 0.31110272D+06 0.31110272D+06 0.31110272D+06 0.10833861D+01  1  2  4  1  7  1        1 -.202688667890D-03 0.100000000000D+01
-.905620789100D-04 0.000000000000D+00 -.432585497220D-04 0.761965976351D-06 0.000000000000D+00  7 1 -1 24 -13 13 -24 21 2 0.81065164D-01 0.14004638D+00 0.31110272D+06 0.31110272D+06 0.31110272D+06 0.10833861D+01  1  2  5  1  7  1        1 -.231788048846D-03 0.100000000000D+01
0.102841525554D-03 0.000000000000D+00 0.399482774075D-04 0.761965976351D-06 0.000000000000D+00  7 1 -1 24 -13 13 -24 21 2 0.54104447D-01 0.14004638D+00 0.31110272D+06 0.31110272D+06 0.31110272D+06 0.10833861D+01  1  2  6  1  7  1        1 0.458749974264D-03 0.100000000000D+01
0.149010166925D-05 0.000000000000D+00 0.000000000000D+00 0.761965976351D-06 0.000000000000D+00  7 21 -1 24 -13 13 -24 -1 2 0.72607359D-01 0.14004638D+00 0.47786882D+06 0.47786882D+06 0.47786882D+06 0.10699027D+01  1  2 12  3  7  1        1 0.128799273068D-04 0.100000000000D+01
-.284684575066D-05 0.000000000000D+00 -.207547830730D-05 0.761965976351D-06 0.000000000000D+00  7 21 -1 24 -13 13 -24 -1 2 0.81065164D-01 0.14004638D+00 0.31110272D+06 0.31110272D+06 0.31110272D+06 0.10833861D+01  1  2  5  3  7  1        1 -.200383169767D-04 0.100000000000D+01
  </mgrwgt>
  </event>
  <event>
  8     66 0.27727860E-05 0.15801424E+03 0.75467711E-02 0.99349143E-01
        3 -1    0    0  501    0 0.00000000E+00 0.00000000E+00 0.91828298E+03 0.91828312E+03 0.50000000E+00 0.0000E+00 0.9000E+01
       -3 -1    0    0    0  501 0.00000000E+00 0.00000000E+00 -.18687644E+03 0.18687710E+03 0.50000000E+00 0.0000E+00 0.9000E+01
       25  2    1    2    0    0 0.20124244E+03 -.14862362E+03 0.77492248E+02 0.39906082E+03 0.30109298E+03 0.0000E+00 0.0000E+00
       23  2    1    2    0    0 -.20124244E+03 0.14862362E+03 0.65391430E+03 0.70609941E+03 0.91569422E+02 0.0000E+00 0.0000E+00
       24  1    3    3    0    0 -.28798183E+02 0.24738254E+02 -.42302120E+01 0.89030485E+02 0.80419002E+02 0.0000E+00 0.9000E+01
      -13  1    4    4    0    0 -.26610877E+02 0.69204078E+02 0.16496478E+03 0.18086108E+03 0.10565837E+00 0.0000E+00 0.9000E+01
       13  1    4    4    0    0 -.17463157E+03 0.79419542E+02 0.48894952E+03 0.52523832E+03 0.10565837E+00 0.0000E+00 0.9000E+01
      -24  1    3    3    0    0 0.23004063E+03 -.17336187E+03 0.81722460E+02 0.31003033E+03 0.80419002E+02 0.0000E+00 0.9000E+01
#aMCatNLO 1  0  0  2  1 0.18755406D+02 0.00000000D+00  -5  7  0 0.00000000D+00 0.00000000D+00 0.00000000D+00 0.00000000D+00 0.00000000D+00
  <mgrwgt>
 0.2143713222D-04    9    2    0
 0.414253419411256D+03 0.000000000000000D+00 0.000000000000000D+00 0.414253419411256D+03
 0.414253419411256D+03 0.000000000000000D+00 0.000000000000000D+00 -.414253419411256D+03
 0.122493804890010D+03 -.287981825531120D+02 0.247382531129950D+02 -.842389446551669D+02
 0.956225875746883D+02 -.266106801657916D+02 0.692040644659009D+02 0.603850015897351D+02
 0.268980050153127D+03 -.174631764896363D+03 0.794195562808947D+02 0.188537922311948D+03
 0.341410396204687D+03 0.230040627615267D+03 -.173361873859791D+03 -.164683979246516D+03
 0.000000000000000D+00 0.000000000000000D+00 0.000000000000000D+00 -.000000000000000D+00
 0.422391425257563D+03 0.000000000000000D+00 0.000000000000000D+00 0.422391425257563D+03
 0.425308588638578D+03 0.000000000000000D+00 0.000000000000000D+00 -.425308588638578D+03
 0.122283379666325D+03 -.299391395665463D+02 0.222138946078040D+02 -.842389446551669D+02
 0.944676236766221D+02 -.274967299016178D+02 0.672436863269189D+02 0.603850015897351D+02
 0.269038861149177D+03 -.177139582164232D+03 0.738710301093839D+02 0.188537922311948D+03
 0.342929235815180D+03 0.226850779247089D+03 -.180419388528324D+03 -.164683979246516D+03
 0.189809135888369D+02 0.772467238530717D+01 0.170907774842172D+02 -.291716338101582D+01
0.110722644179D-04 0.000000000000D+00 0.000000000000D+00 0.836355772419D-06 0.000000000000D+00  7 3 -3 24 -13 13 -24 21 0 0.14127437D+00 0.28750283D-01 0.10692328D+06 0.10692328D+06 0.10692328D+06 0.11193441D+01  1  2  2  2  7  2       -3 0.201895895242D-04 0.100000000000D+01
-.573278139948D-06 0.000000000000D+00 -.425204107588D-07 0.836355772419D-06 0.000000000000D+00  7 3 -3 24 -13 13 -24 21 2 0.14127437D+00 0.28750283D-01 0.10692328D+06 0.10692328D+06 0.10692328D+06 0.11193441D+01  1  2  3  2  7  2       -3 -.130973567914D-05 0.100000000000D+01
0.711937155728D-06 0.000000000000D+00 0.000000000000D+00 0.836355772419D-06 0.000000000000D+00  7 3 -3 24 -13 13 -24 21 2 0.14127437D+00 0.28750283D-01 0.10692328D+06 0.10692328D+06 0.10692328D+06 0.11193441D+01  1  2 15  2  7  2       -3 0.162652197805D-05 0.100000000000D+01
0.185533686299D-04 0.000000000000D+00 0.000000000000D+00 0.836355772419D-06 0.000000000000D+00  7 3 -3 24 -13 13 -24 21 2 0.14127437D+00 0.29793413D-01 0.11315399D+06 0.11315399D+06 0.11315399D+06 0.11173442D+01  1  2 12  2  7  2       -3 0.394782621675D-04 0.100000000000D+01
-.157213195551D-04 0.000000000000D+00 0.000000000000D+00 0.836355772419D-06 0.000000000000D+00  7 3 -3 24 -13 13 -24 21 2 0.14127437D+00 0.28750283D-01 0.10692328D+06 0.10692328D+06 0.10692328D+06 0.11193441D+01  1  2  4  2  7  2       -3 -.359175969038D-04 0.100000000000D+01
-.196877987933D-03 0.000000000000D+00 -.317246666578D-04 0.836355772419D-06 0.000000000000D+00  7 3 -3 24 -13 13 -24 21 2 0.14127437D+00 0.30077563D-01 0.10692328D+06 0.10692328D+06 0.10692328D+06 0.11193441D+01  1  2  5  2  7  2       -3 -.413300854029D-03 0.100000000000D+01
0.198140235448D-03 0.000000000000D+00 0.316923842741D-04 0.836355772419D-06 0.000000000000D+00  7 3 -3 24 -13 13 -24 21 2 0.14127437D+00 0.28750283D-01 0.10692328D+06 0.10692328D+06 0.10692328D+06 0.11193441D+01  1  2  6  2  7  2       -3 0.452679629233D-03 0.100000000000D+01
0.296766441297D-06 0.000000000000D+00 0.000000000000D+00 0.836355772419D-06 0.000000000000D+00  7 3 21 24 -13 13 -24 3 2 0.14127437D+00 0.29793413D-01 0.11315399D+06 0.11315399D+06 0.11315399D+06 0.11173442D+01  1  2 12  4  7  2       -3 0.102138865574D-04 0.100000000000D+01
-.153594831457D-05 0.000000000000D+00 -.251188845803D-06 0.836355772419D-06 0.000000000000D+00  7 3 21 24 -13 13 -24 3 2 0.14127437D+00 0.30077563D-01 0.10692328D+06 0.10692328D+06 0.10692328D+06 0.11193441D+01  1  2  5  4  7  2       -3 -.522225706315D-04 0.100000000000D+01
  </mgrwgt>
  </event>
  <event>
  8     66 0.27727860E-05 0.52415027E+03 0.75467711E-02 0.86564133E-01
        1 -1    0    0  501    0 0.00000000E+00 0.00000000E+00 0.96535671E+03 0.96535676E+03 0.32000000E+00 0.0000E+00 0.9000E+01
       -1 -1    0    0    0  501 0.00000000E+00 0.00000000E+00 -.40238501E+03 0.40238514E+03 0.32000000E+00 0.0000E+00 0.9000E+01
       25  2    1    2    0    0 -.21095945E+03 0.44570135E+03 0.63046894E+03 0.85483082E+03 0.30015173E+03 0.0000E+00 0.0000E+00
       23  2    1    2    0    0 0.21095945E+03 -.44570135E+03 -.67497244E+02 0.51291108E+03 0.12396901E+03 0.0000E+00 0.0000E+00
       24  1    3    3    0    0 0.94160293E+01 0.68122263E+02 0.24340426E+03 0.26540941E+03 0.80419002E+02 0.0000E+00 0.9000E+01
      -11  1    4    4    0    0 0.71544926E+02 -.23224574E+03 0.18823495E+02 0.24374389E+03 0.51099893E-03 0.0000E+00 0.9000E+01
       11  1    4    4    0    0 0.13941452E+03 -.21345561E+03 -.86320739E+02 0.26916719E+03 0.51099893E-03 0.0000E+00 0.9000E+01
      -24  1    3    3    0    0 -.22037548E+03 0.37757909E+03 0.38706469E+03 0.58942142E+03 0.80419002E+02 0.0000E+00 0.9000E+01
#aMCatNLO 1  0  0  2  1 0.84814396D+03 0.00000000D+00  -5  7  0 0.00000000D+00 0.00000000D+00 0.00000000D+00 0.00000000D+00 0.00000000D+00
  <mgrwgt>
 0.8452002691D-03    3    2    0
 0.623253715560118D+03 0.000000000000000D+00 0.000000000000000D+00 0.623253715560118D+03
 0.623253715560118D+03 0.000000000000000D+00 0.000000000000000D+00 -.623253715560118D+03
 0.181292025441200D+03 0.941602926981761D+01 0.681222632173942D+02 0.147208281632292D+03
 0.258948825623355D+03 0.715449256252579D+02 -.232245738598109D+03 -.894300554176830D+02
 0.334332045675448D+03 0.139414520131662D+03 -.213455613409538D+03 -.216282707228170D+03
 0.471934534380232D+03 -.220375475026738D+03 0.377579088790253D+03 0.158504481013561D+03
 0.000000000000000D+00 0.000000000000000D+00 0.000000000000000D+00 0.000000000000000D+00
 0.341617056806074D+04 0.000000000000000D+00 0.000000000000000D+00 0.341617056806074D+04
 0.821393824670290D+03 0.000000000000000D+00 0.000000000000000D+00 -.821393824670290D+03
 0.172919470073078D+03 0.928884749701080D+01 -.409556626979552D+02 0.147208281632292D+03
 0.471173664930212D+03 0.712827707435257D+02 -.457083859162500D+03 -.894300554176830D+02
 0.549513097732743D+03 0.139097170204715D+03 -.485631972150650D+03 -.216282707228170D+03
 0.314083707298698D+03 -.220657699614875D+03 0.135528109023247D+03 0.158504481013561D+03
 0.272987445269630D+04 0.988911169624153D+00 0.848143384987858D+03 0.259477674339045D+04
0.159491143707D-03 0.000000000000D+00 0.000000000000D+00 0.172772733118D-07 0.000000000000D+00  7 1 -1 24 -11 11 -24 21 0 0.14851643D+00 0.61905400D-01 0.27473351D+06 0.27473351D+06 0.27473351D+06 0.10873902D+01  1  2  2  2  7  2       -1 0.837681355920D-03 0.100000000000D+01
-.853753374149D-05 0.000000000000D+00 -.612487986819D-06 0.172772733118D-07 0.000000000000D+00  7 1 -1 24 -11 11 -24 21 2 0.14851643D+00 0.61905400D-01 0.27473351D+06 0.27473351D+06 0.27473351D+06 0.10873902D+01  1  2  3  2  7  2       -1 -.530207052605D-04 0.100000000000D+01
0.974824897192D-05 0.000000000000D+00 0.000000000000D+00 0.172772733118D-07 0.000000000000D+00  7 1 -1 24 -11 11 -24 21 2 0.14851643D+00 0.61905400D-01 0.27473351D+06 0.27473351D+06 0.27473351D+06 0.10873902D+01  1  2 15  2  7  2       -1 0.605396184890D-04 0.100000000000D+01
  </mgrwgt>
  </event>
  <event>
  8     66 0.27727860E-05 0.67859821E+03 0.75467711E-02 0.90432197E-01
        1 -1    0    0  501    0 0.00000000E+00 0.00000000E+00 0.20258445E+04 0.20258446E+04 0.32000000E+00 0.0000E+00 0.9000E+01
       -1 -1    0    0    0  501 0.00000000E+00 0.00000000E+00 -.25471666E+03 0.25471686E+03 0.32000000E+00 0.0000E+00 0.9000E+01
       25  2    1    2    0    0 -.64609602E+03 -.10876105E+02 0.12746086E+04 0.14602433E+04 0.30020858E+03 0.0000E+00 0.0000E+00
       23  2    1    2    0    0 0.64609602E+03 0.10876105E+02 0.49651932E+03 0.82031811E+03 0.93978713E+02 0.0000E+00 0.0000E+00
       24  1    3    3    0    0 -.48884943E+03 -.11058124E+03 0.85860508E+03 0.99743264E+03 0.80419002E+02 0.0000E+00 0.9000E+01
      -13  1    4    4    0    0 0.63247389E+03 0.14612394E+02 0.46307254E+03 0.78401079E+03 0.10565837E+00 0.0000E+00 0.9000E+01
       13  1    4    4    0    0 0.13622137E+02 -.37362893E+01 0.33446782E+02 0.36307312E+02 0.10565837E+00 0.0000E+00 0.9000E+01
      -24  1    3    3    0    0 -.15724660E+03 0.99705137E+02 0.41600348E+03 0.46281067E+03 0.80419002E+02 0.0000E+00 0.9000E+01
#aMCatNLO 1  0  0  2  1 0.11219278D+03 0.00000000D+00  -5  7  0 0.00000000D+00 0.00000000D+00 0.00000000D+00 0.00000000D+00 0.00000000D+00
  <mgrwgt>
 0.7981413566D-03    4    2    0
 0.718342955905303D+03 0.000000000000000D+00 0.000000000000000D+00 0.718342955905303D+03
 0.718342955905303D+03 0.000000000000000D+00 0.000000000000000D+00 -.718342955905303D+03
 0.524823828875177D+03 -.488849427128582D+03 -.110581242155260D+03 0.133307396194988D+03
 0.673651261346176D+03 0.632474667480966D+03 0.146124172779351D+02 -.231448253761896D+03
 0.163997796607727D+02 0.136213550976222D+02 -.373631252735499D+01 0.833375227159451D+01
 0.221811041928481D+03 -.157246595450007D+03 0.997051374046799D+02 0.898071052953135D+02
 0.000000000000000D+00 0.000000000000000D+00 -.000000000000000D+00 0.000000000000000D+00
 0.883532712673797D+03 0.000000000000000D+00 0.000000000000000D+00 0.883532712673797D+03
 0.739835174872441D+03 0.000000000000000D+00 0.000000000000000D+00 -.739835174872441D+03
 0.558981500176967D+03 -.528307112371227D+03 -.954664062558671D+02 0.133307396194988D+03
 0.629987754013540D+03 0.585013581472945D+03 0.327930713686848D+02 -.231448253761896D+03
 0.153520115796084D+02 0.124653798029179D+02 -.329349950434664D+01 0.833375227159451D+01
 0.236738632307970D+03 -.173940837699178D+03 0.106100107877713D+03 0.898071052953135D+02
 0.182307989468153D+03 0.104768988794542D+03 -.401332734861836D+02 0.143697537801357D+03
0.413164471253D-03 0.000000000000D+00 0.000000000000D+00 0.335321004718D-05 0.000000000000D+00  7 1 -1 24 -13 13 -24 21 0 0.31166841D+00 0.39187195D-01 0.46049552D+06 0.46049552D+06 0.46049552D+06 0.10710458D+01  1  2  2  2  7  2       -1 0.902235818365D-03 0.100000000000D+01
-.228631689764D-04 0.000000000000D+00 -.158666035831D-05 0.335321004718D-05 0.000000000000D+00  7 1 -1 24 -13 13 -24 21 2 0.31166841D+00 0.39187195D-01 0.46049552D+06 0.46049552D+06 0.46049552D+06 0.10710458D+01  1  2  3  2  7  2       -1 -.572729609508D-04 0.100000000000D+01
0.255704790811D-04 0.000000000000D+00 0.000000000000D+00 0.335321004718D-05 0.000000000000D+00  7 1 -1 24 -13 13 -24 21 2 0.31166841D+00 0.39187195D-01 0.46049552D+06 0.46049552D+06 0.46049552D+06 0.10710458D+01  1  2 15  2  7  2       -1 0.640548583363D-04 0.100000000000D+01
-.442614611121D-04 0.000000000000D+00 0.000000000000D+00 0.335321004718D-05 0.000000000000D+00  7 1 -1 24 -13 13 -24 21 2 0.31166841D+00 0.39187195D-01 0.46049552D+06 0.46049552D+06 0.46049552D+06 0.10710458D+01  1  2  4  2  7  2       -1 -.110876359113D-03 0.100000000000D+01
  </mgrwgt>
  </event>
  <event>
  8     66 0.27727860E-05 0.34257034E+03 0.75467711E-02 0.93333324E-01
        1 -1    0    0  501    0 0.00000000E+00 0.00000000E+00 0.12123018E+04 0.12123019E+04 0.32000000E+00 0.0000E+00 0.9000E+01
       -1 -1    0    0    0  501 0.00000000E+00 0.00000000E+00 -.11678214E+03 0.11678258E+03 0.32000000E+00 0.0000E+00 0.9000E+01
       25  2    1    2    0    0 0.20244942E+03 0.22229017E+03 0.50396853E+03 0.65935596E+03 0.30061157E+03 0.0000E+00 0.0000E+00
       23  2    1    2    0    0 -.20244942E+03 -.22229017E+03 0.59155114E+03 0.66972847E+03 0.90580268E+02 0.0000E+00 0.0000E+00
       24  1    3    3    0    0 0.20810589E+03 0.14504369E+03 0.47426512E+03 0.54382015E+03 0.80419002E+02 0.0000E+00 0.9000E+01
      -13  1    4    4    0    0 -.76761574E+02 -.13174089E+03 0.36197880E+03 0.39278068E+03 0.10565837E+00 0.0000E+00 0.9000E+01
       13  1    4    4    0    0 -.12568785E+03 -.90549284E+02 0.22957234E+03 0.27694779E+03 0.10565837E+00 0.0000E+00 0.9000E+01
      -24  1    3    3    0    0 -.56564707E+01 0.77246488E+02 0.29703403E+02 0.11553581E+03 0.80419002E+02 0.0000E+00 0.9000E+01
#aMCatNLO 1  0  0  1  1 0.35933522D+03 0.00000000D+00  -5  7  0 0.00000000D+00 0.00000000D+00 0.00000000D+00 0.00000000D+00 0.00000000D+00
  <mgrwgt>
 0.5689564181D-03    3    2    0
 0.376265229815395D+03 0.000000000000000D+00 0.000000000000000D+00 0.376265229815395D+03
 0.376265229815395D+03 0.000000000000000D+00 0.000000000000000D+00 -.376265229815395D+03
 0.270043724100032D+03 0.208105892919959D+03 0.145043686201106D+03 0.459419568218993D+02
 0.166749141483386D+03 -.767615078614603D+02 -.131740945639876D+03 0.675075576375888D+02
 0.154925252615235D+03 -.125687914693029D+03 -.905492283258412D+02 0.228456726906790D+01
 0.160812341432137D+03 -.565647036546913D+01 0.772464877646116D+02 -.115734081728556D+03
 0.000000000000000D+00 -.000000000000000D+00 0.000000000000000D+00 -.000000000000000D+00
 0.482157902072688D+03 0.000000000000000D+00 0.000000000000000D+00 0.482157902072688D+03
 0.912078257015901D+03 0.000000000000000D+00 0.000000000000000D+00 -.912078257015901D+03
 0.304133801411131D+03 0.286710216838781D+03 0.414335778089306D+02 0.459419568218993D+02
 0.212746619672736D+03 -.248089210562215D+02 -.200220806311456D+03 0.675075576375888D+02
 0.169853555601527D+03 -.812260235378289D+02 -.149155436384687D+03 0.228456726906790D+01
 0.147186816872212D+03 0.365083036467611D+02 0.216681609253595D+02 -.115734081728556D+03
 0.560315365530982D+03 -.217183575891492D+03 0.286274503961853D+03 -.429920354943212D+03
0.190001205397D-04 0.000000000000D+00 0.000000000000D+00 0.716929585674D-06 0.000000000000D+00  7 1 -1 24 -13 13 -24 21 0 0.18650801D+00 0.17966521D-01 0.11735444D+06 0.11735444D+06 0.11735444D+06 0.11160630D+01  1  2  2  1  7  1        1 0.563520722573D-03 0.100000000000D+01
-.104426608643D-05 0.000000000000D+00 -.729654657191D-07 0.716929585674D-06 0.000000000000D+00  7 1 -1 24 -13 13 -24 21 2 0.18650801D+00 0.17966521D-01 0.11735444D+06 0.11735444D+06 0.11735444D+06 0.11160630D+01  1  2  3  1  7  1        1 -.385782174732D-04 0.100000000000D+01
0.119140384596D-05 0.000000000000D+00 0.000000000000D+00 0.716929585674D-06 0.000000000000D+00  7 1 -1 24 -13 13 -24 21 2 0.18650801D+00 0.17966521D-01 0.11735444D+06 0.11735444D+06 0.11735444D+06 0.11160630D+01  1  2 15  1  7  1        1 0.440139129912D-04 0.100000000000D+01
  </mgrwgt>
  </event>
  <event>
  8     66 0.27727860E-05 0.14206676E+03 0.75467711E-02 0.10152353E+00
        1 -1    0    0  501    0 0.00000000E+00 0.00000000E+00 0.19839247E+04 0.19839248E+04 0.32000000E+00 0.0000E+00 0.9000E+01
       -1 -1    0    0    0  501 0.00000000E+00 0.00000000E+00 -.23629237E+03 0.23629259E+03 0.32000000E+00 0.0000E+00 0.9000E+01
       25  2    1    2    0    0 0.71534647E+02 0.13522720E+03 -.10984379E+03 0.35432395E+03 0.30012698E+03 0.0000E+00 0.0000E+00
       23  2    1    2    0    0 -.71534647E+02 -.13522720E+03 0.18574761E+04 0.18658934E+04 0.89089457E+02 0.0000E+00 0.0000E+00
       24  1    3    3    0    0 0.90738893E+01 0.19771820E+03 -.44776376E+02 0.21828184E+03 0.80419002E+02 0.0000E+00 0.9000E+01
      -11  1    4    4    0    0 -.92234273E+02 -.10521703E+03 0.14044389E+04 0.14113916E+04 0.51099893E-03 0.0000E+00 0.9000E+01
       11  1    4    4    0    0 0.20699627E+02 -.30010168E+02 0.45303727E+03 0.45450176E+03 0.51099893E-03 0.0000E+00 0.9000E+01
      -24  1    3    3    0    0 0.62460757E+02 -.62491004E+02 -.65067411E+02 0.13604211E+03 0.80419002E+02 0.0000E+00 0.9000E+01
#aMCatNLO 1  0  0  2  1 0.66511964D+02 0.00000000D+00  -5  7  0 0.00000000D+00 0.00000000D+00 0.00000000D+00 0.00000000D+00 0.00000000D+00
  <mgrwgt>
 0.3933208295D-03    9    2    0
 0.684679891536687D+03 0.000000000000000D+00 0.000000000000000D+00 0.684679891536687D+03
 0.684679891536687D+03 0.000000000000000D+00 0.000000000000000D+00 -.684679891536687D+03
 0.411057625827569D+03 0.907388933673220D+01 0.197718204497480D+03 -.351178490143154D+03
 0.495964151492306D+03 -.922342733238501D+02 -.105217032853933D+03 0.475817879432162D+03
 0.158723887146574D+03 0.206996266023504D+02 -.300101678761555D+02 0.154480379445050D+03
 0.303614118606924D+03 0.624607573847674D+02 -.624910037673915D+02 -.279119768734058D+03
 0.000000000000000D+00 0.000000000000000D+00 -.000000000000000D+00 -.000000000000000D+00
 0.695902525371861D+03 0.000000000000000D+00 0.000000000000000D+00 0.695902525371861D+03
 0.791671536316151D+03 0.000000000000000D+00 0.000000000000000D+00 -.791671536316151D+03
 0.420114955753495D+03 0.778222938512211D+00 0.216107432827341D+03 -.351178490143154D+03
 0.493732571904591D+03 -.102112118231937D+03 -.833205465799977D+02 0.475817879432162D+03
 0.157168872103500D+03 0.175468025000840D+02 -.230212173184392D+02 0.154480379445050D+03
 0.299957727207271D+03 0.564367007794497D+02 -.491373143747024D+02 -.279119768734058D+03
 0.116599934719155D+03 0.273503920138913D+02 -.606283545542018D+02 -.957690109442904D+02
0.155898744437D-03 0.000000000000D+00 0.000000000000D+00 0.391906670107D-05 0.000000000000D+00  7 1 -1 24 -11 11 -24 21 0 0.30521921D+00 0.36352692D-01 0.64894956D+05 0.64894956D+05 0.64894956D+05 0.11374660D+01  1  2  2  2  7  2       -1 0.458946045426D-03 0.100000000000D+01
0.163264339043D-05 0.000000000000D+00 -.598692227719D-06 0.391906670107D-05 0.000000000000D+00  7 1 -1 24 -11 11 -24 21 2 0.30521921D+00 0.36352692D-01 0.64894956D+05 0.64894956D+05 0.64894956D+05 0.11374660D+01  1  2  3  2  7  2       -1 0.621852232078D-05 0.100000000000D+01
0.925569533575D-05 0.000000000000D+00 0.000000000000D+00 0.391906670107D-05 0.000000000000D+00  7 1 -1 24 -11 11 -24 21 2 0.30521921D+00 0.36352692D-01 0.64894956D+05 0.64894956D+05 0.64894956D+05 0.11374660D+01  1  2 15  2  7  2       -1 0.352537169948D-04 0.100000000000D+01
0.675277154637D-03 0.000000000000D+00 0.000000000000D+00 0.391906670107D-05 0.000000000000D+00  7 1 -1 24 -11 11 -24 21 2 0.30521921D+00 0.42301168D-01 0.80566803D+05 0.80566803D+05 0.80566803D+05 0.11295053D+01  1  2 12  2  7  2       -1 0.193113680150D-02 0.100000000000D+01
-.717529109559D-03 0.000000000000D+00 0.000000000000D+00 0.391906670107D-05 0.000000000000D+00  7 1 -1 24 -11 11 -24 21 2 0.30521921D+00 0.36352692D-01 0.64894956D+05 0.64894956D+05 0.64894956D+05 0.11374660D+01  1  2  4  2  7  2       -1 -.273297329335D-02 0.100000000000D+01
-.816321400298D-03 0.000000000000D+00 -.136089486834D-03 0.391906670107D-05 0.000000000000D+00  7 1 -1 24 -11 11 -24 21 2 0.30521921D+00 0.42534558D-01 0.64894956D+05 0.64894956D+05 0.64894956D+05 0.11374660D+01  1  2  5  2  7  2       -1 -.237397919512D-02 0.100000000000D+01
0.829109541440D-03 0.000000000000D+00 0.134428288778D-03 0.391906670107D-05 0.000000000000D+00  7 1 -1 24 -11 11 -24 21 2 0.30521921D+00 0.36352692D-01 0.64894956D+05 0.64894956D+05 0.64894956D+05 0.11374660D+01  1  2  6  2  7  2       -1 0.315796837205D-02 0.100000000000D+01
0.155320351339D-04 0.000000000000D+00 0.000000000000D+00 0.391906670107D-05 0.000000000000D+00  7 1 21 24 -11 11 -24 1 2 0.30521921D+00 0.42301168D-01 0.80566803D+05 0.80566803D+05 0.80566803D+05 0.11295053D+01  1  2 12  4  7  2       -1 0.438538994915D-03 0.100000000000D+01
-.182978129937D-04 0.000000000000D+00 -.322140247071D-05 0.391906670107D-05 0.000000000000D+00  7 1 21 24 -11 11 -24 1 2 0.30521921D+00 0.42534558D-01 0.64894956D+05 0.64894956D+05 0.64894956D+05 0.11374660D+01  1  2  5  4  7  2       -1 -.527789135254D-03 0.100000000000D+01
  </mgrwgt>
  </event>
  <event>
  8     66 0.27727860E-05 0.25336309E+03 0.75467711E-02 0.91760764E-01
        1 -1    0    0  501    0 0.00000000E+00 0.00000000E+00 0.10599928E+04 0.10599928E+04 0.32000000E+00 0.0000E+00 0.9000E+01
       -1 -1    0    0    0  501 0.00000000E+00 0.00000000E+00 -.33804001E+03 0.33804016E+03 0.32000000E+00 0.0000E+00 0.9000E+01
       25  2    1    2    0    0 0.15695861E+03 -.50617642E+03 0.58391796E+03 0.84334856E+03 0.29904188E+03 0.0000E+00 0.0000E+00
       23  2    1    2    0    0 -.15695861E+03 0.50617642E+03 0.13803482E+03 0.55468443E+03 0.88151178E+02 0.0000E+00 0.0000E+00
       24  1    3    3    0    0 0.18858093E+03 -.36814602E+03 0.30431188E+03 0.51977610E+03 0.80419002E+02 0.0000E+00 0.9000E+01
      -11  1    4    4    0    0 -.94529263E+02 0.35027493E+03 0.53691272E+02 0.36675749E+03 0.51099893E-03 0.0000E+00 0.9000E+01
       11  1    4    4    0    0 -.62429343E+02 0.15590150E+03 0.84343552E+02 0.18792694E+03 0.51099893E-03 0.0000E+00 0.9000E+01
      -24  1    3    3    0    0 -.31622323E+02 -.13803040E+03 0.27960608E+03 0.32357247E+03 0.80419002E+02 0.0000E+00 0.9000E+01
#aMCatNLO 1  0  0  1  2 0.16978119D+03 0.00000000D+00  -5  7  0 0.00000000D+00 0.00000000D+00 0.00000000D+00 0.00000000D+00 0.00000000D+00
  <mgrwgt>
 0.8585497525D-03    9    2    0
 0.598598453399734D+03 0.000000000000000D+00 0.000000000000000D+00 0.598598453399734D+03
 0.598598453399734D+03 0.000000000000000D+00 0.000000000000000D+00 -.598598453399734D+03
 0.423460273149310D+03 0.188580929019981D+03 -.368146019145913D+03 0.419181199279764D+02
 0.395905224849788D+03 -.945292631320578D+02 0.350274925269090D+03 -.158469688593133D+03
 0.168590478795919D+03 -.624293433148995D+02 0.155901497305429D+03 -.148340746874607D+02
 0.209240930004451D+03 -.316223225730233D+02 -.138030403428606D+03 0.131385643352617D+03
 0.000000000000000D+00 0.000000000000000D+00 0.000000000000000D+00 0.000000000000000D+00
 0.695790994443346D+03 0.000000000000000D+00 0.000000000000000D+00 0.695790994443346D+03
 0.683602897407861D+03 0.000000000000000D+00 0.000000000000000D+00 -.683602897407861D+03
 0.476075350400250D+03 0.180498627425722D+03 -.431095859436720D+03 0.419181199279764D+02
 0.352303740183653D+03 -.101251899070661D+03 0.297914981293608D+03 -.158469688593133D+03
 0.149475567231051D+03 -.652871575510265D+02 0.133643116119458D+03 -.148340746874607D+02
 0.231321130378663D+03 -.355807599598092D+02 -.168861101639168D+03 0.131385643352617D+03
 0.170218103657590D+03 0.216211891557750D+02 0.168398863662822D+03 0.121880970354857D+02
0.837499507028D-04 0.000000000000D+00 0.000000000000D+00 0.412915740657D-06 0.000000000000D+00  7 1 -1 24 -11 11 -24 21 0 0.16307583D+00 0.52006170D-01 0.31079037D+06 0.31079037D+06 0.31079037D+06 0.10834183D+01  1  2  2  1  7  1        1 0.513402851177D-03 0.100000000000D+01
-.462413373234D-05 0.000000000000D+00 -.321621862567D-06 0.412915740657D-06 0.000000000000D+00  7 1 -1 24 -11 11 -24 21 2 0.16307583D+00 0.52006170D-01 0.31079037D+06 0.31079037D+06 0.31079037D+06 0.10834183D+01  1  2  3  1  7  1        1 -.332733430559D-04 0.100000000000D+01
0.517783329599D-05 0.000000000000D+00 0.000000000000D+00 0.412915740657D-06 0.000000000000D+00  7 1 -1 24 -11 11 -24 21 2 0.16307583D+00 0.52006170D-01 0.31079037D+06 0.31079037D+06 0.31079037D+06 0.10834183D+01  1  2 15  1  7  1        1 0.372575348197D-04 0.100000000000D+01
0.557470244721D-04 0.000000000000D+00 0.000000000000D+00 0.412915740657D-06 0.000000000000D+00  7 1 -1 24 -11 11 -24 21 2 0.19944823D+00 0.52006170D-01 0.42106045D+06 0.42106045D+06 0.42106045D+06 0.10738248D+01  1  2 12  1  7  1        1 0.263101095635D-03 0.100000000000D+01
-.508461498132D-04 0.000000000000D+00 0.000000000000D+00 0.412915740657D-06 0.000000000000D+00  7 1 -1 24 -11 11 -24 21 2 0.16307583D+00 0.52006170D-01 0.31079037D+06 0.31079037D+06 0.31079037D+06 0.10834183D+01  1  2  4  1  7  1        1 -.365867745989D-03 0.100000000000D+01
-.145680328487D-03 0.000000000000D+00 -.476232176257D-04 0.412915740657D-06 0.000000000000D+00  7 1 -1 24 -11 11 -24 21 2 0.20716210D+00 0.52006170D-01 0.31079037D+06 0.31079037D+06 0.31079037D+06 0.10834183D+01  1  2  5  1  7  1        1 -.654829467243D-03 0.100000000000D+01
0.153978216643D-03 0.000000000000D+00 0.462916014914D-04 0.412915740657D-06 0.000000000000D+00  7 1 -1 24 -11 11 -24 21 2 0.16307583D+00 0.52006170D-01 0.31079037D+06 0.31079037D+06 0.31079037D+06 0.10834183D+01  1  2  6  1  7  1        1 0.110796320393D-02 0.100000000000D+01
0.160348521346D-05 0.000000000000D+00 0.000000000000D+00 0.412915740657D-06 0.000000000000D+00  7 21 -1 24 -11 11 -24 -1 2 0.19944823D+00 0.52006170D-01 0.42106045D+06 0.42106045D+06 0.42106045D+06 0.10738248D+01  1  2 12  3  7  1        1 0.706749832663D-05 0.100000000000D+01
-.403045996807D-05 0.000000000000D+00 -.156030646332D-05 0.412915740657D-06 0.000000000000D+00  7 21 -1 24 -11 11 -24 -1 2 0.20716210D+00 0.52006170D-01 0.31079037D+06 0.31079037D+06 0.31079037D+06 0.10834183D+01  1  2  5  3  7  1        1 -.162718751504D-04 0.100000000000D+01
  </mgrwgt>
  </event>
  <event>
  8     66 0.27727860E-05 0.19479262E+03 0.75467711E-02 0.96239822E-01
        1 -1    0    0  501    0 0.00000000E+00 0.00000000E+00 0.51095992E+03 0.51096002E+03 0.32000000E+00 0.0000E+00 0.9000E+01
       -1 -1    0    0    0  501 0.00000000E+00 0.00000000E+00 -.63236861E+03 0.63236869E+03 0.32000000E+00 0.0000E+00 0.9000E+01
       25  2    1    2    0    0 0.27762831E+02 -.46179146E+01 0.46144472E+03 0.55297431E+03 0.30340938E+03 0.0000E+00 0.0000E+00
       23  2    1    2    0    0 -.27762831E+02 0.46179146E+01 -.58285341E+03 0.59035441E+03 0.89488148E+02 0.0000E+00 0.0000E+00
       24  1    3    3    0    0 -.75018178E+02 -.91658765E+02 0.17228535E+03 0.22400561E+03 0.80419002E+02 0.0000E+00 0.9000E+01
      -11  1    4    4    0    0 -.77604344E+01 -.39952912E+02 -.17967250E+03 0.18422450E+03 0.51099893E-03 0.0000E+00 0.9000E+01
       11  1    4    4    0    0 -.20002397E+02 0.44570826E+02 -.40318091E+03 0.40612991E+03 0.51099893E-03 0.0000E+00 0.9000E+01
      -24  1    3    3    0    0 0.10278101E+03 0.87040851E+02 0.28915937E+03 0.32896869E+03 0.80419002E+02 0.0000E+00 0.9000E+01
#aMCatNLO 1  0  0  2  1 0.34264185D+03 0.00000000D+00  -5  7  0 0.00000000D+00 0.00000000D+00 0.00000000D+00 0.00000000D+00 0.00000000D+00
  <mgrwgt>
 0.6822720450D-03    4    2    0
 0.568432158878267D+03 0.000000000000000D+00 0.000000000000000D+00 0.568432158878267D+03
 0.568432158878267D+03 0.000000000000000D+00 0.000000000000000D+00 -.568432158878267D+03
 0.243678143001286D+03 -.750181778278176D+02 -.916587650812798D+02 0.197187132443660D+03
 0.166084336163243D+03 -.776043436260936D+01 -.399529118675819D+02 -.161020331668364D+03
 0.365382494049861D+03 -.200023969073620D+02 0.445708264213784D+02 -.362101798543134D+03
 0.361719344542145D+03 0.102781009097789D+03 0.870408505274833D+02 0.325934997767838D+03
 0.000000000000000D+00 -.000000000000000D+00 -.000000000000000D+00 0.000000000000000D+00
 0.859235728335054D+03 0.000000000000000D+00 0.000000000000000D+00 0.859235728335054D+03
 0.704218146435896D+03 0.000000000000000D+00 0.000000000000000D+00 -.704218146435896D+03
 0.229155003159780D+03 -.568772961041721D+01 -.844374564355987D+02 0.197187132443660D+03
 0.169889897509549D+03 0.415027029600386D+02 -.348217706647167D+02 -.161020331668364D+03
 0.377012514947455D+03 0.888532938284393D+02 0.559089983336255D+02 -.362101798543134D+03
 0.411319489048985D+03 0.216129934099068D+03 0.988470279449972D+02 0.325934997767838D+03
 0.376076970105181D+03 -.340798201277129D+03 -.354967991783072D+02 0.155017581899157D+03
0.127579512706D-03 0.000000000000D+00 0.000000000000D+00 0.882641622569D-07 0.000000000000D+00  7 1 -1 24 -11 11 -24 21 0 0.78609232D-01 0.97287493D-01 0.37944163D+05 0.37944163D+05 0.37944163D+05 0.11579867D+01  1  2  2  2  7  2       -1 0.766708053013D-03 0.100000000000D+01
0.279608399776D-05 0.000000000000D+00 -.489938921247D-06 0.882641622569D-07 0.000000000000D+00  7 1 -1 24 -11 11 -24 21 2 0.78609232D-01 0.97287493D-01 0.37944163D+05 0.37944163D+05 0.37944163D+05 0.11579867D+01  1  2  3  2  7  2       -1 0.225323475213D-04 0.100000000000D+01
0.765194640005D-05 0.000000000000D+00 0.000000000000D+00 0.882641622569D-07 0.000000000000D+00  7 1 -1 24 -11 11 -24 21 2 0.78609232D-01 0.97287493D-01 0.37944163D+05 0.37944163D+05 0.37944163D+05 0.11579867D+01  1  2 15  2  7  2       -1 0.616634963894D-04 0.100000000000D+01
-.209258632357D-04 0.000000000000D+00 0.000000000000D+00 0.882641622569D-07 0.000000000000D+00  7 1 -1 24 -11 11 -24 21 2 0.78609232D-01 0.97287493D-01 0.37944163D+05 0.37944163D+05 0.37944163D+05 0.11579867D+01  1  2  4  2  7  2       -1 -.168631851900D-03 0.100000000000D+01
  </mgrwgt>
  </event>
  <event>
  8     66 0.27727860E-05 0.29336493E+03 0.75467711E-02 0.90080741E-01
        1 -1    0    0  501    0 0.00000000E+00 0.00000000E+00 0.14623335E+04 0.14623336E+04 0.32000000E+00 0.0000E+00 0.9000E+01
       -1 -1    0    0    0  501 0.00000000E+00 0.00000000E+00 -.69017228E+02 0.69017970E+02 0.32000000E+00 0.0000E+00 0.9000E+01
       25  2    1    2    0    0 -.87062566E+01 0.23266265E+03 0.72943347E+03 0.82232630E+03 0.29989938E+03 0.0000E+00 0.0000E+00
       23  2    1    2    0    0 0.87062566E+01 -.23266265E+03 0.66388283E+03 0.70902524E+03 0.88140058E+02 0.0000E+00 0.0000E+00
       24  1    3    3    0    0 0.71640526E+02 0.21088163E+03 0.61735296E+03 0.66120747E+03 0.80419002E+02 0.0000E+00 0.9000E+01
      -11  1    4    4    0    0 -.79536179E+01 -.12440476E+03 0.23088503E+03 0.26238846E+03 0.51099893E-03 0.0000E+00 0.9000E+01
       11  1    4    4    0    0 0.16659874E+02 -.10825789E+03 0.43299779E+03 0.44663678E+03 0.51099893E-03 0.0000E+00 0.9000E+01
      -24  1    3    3    0    0 -.80346782E+02 0.21781019E+02 0.11208051E+03 0.16111882E+03 0.80419002E+02 0.0000E+00 0.9000E+01
#aMCatNLO 1  0  0  2  2 0.66194153D+03 0.00000000D+00  -5  7  0 0.00000000D+00 0.00000000D+00 0.00000000D+00 0.00000000D+00 0.00000000D+00
  <mgrwgt>
 0.6732001762D-03    5    2    0
 0.317689787069805D+03 0.000000000000000D+00 0.000000000000000D+00 0.317689787069805D+03
 0.317689787069805D+03 0.000000000000000D+00 0.000000000000000D+00 -.317689787069805D+03
 0.239814338916193D+03 0.716405256190166D+02 0.210881630892980D+03 0.379509424967040D+02
 0.126086972061364D+03 -.795361786833558D+01 -.124404759392714D+03 -.189240673970658D+02
 0.126939917841943D+03 0.166598744770093D+02 -.108257890846201D+03 0.641593359820826D+02
 0.142538345320110D+03 -.803467822276903D+02 0.217810193459350D+02 -.831862110817208D+02
 0.000000000000000D+00 -.000000000000000D+00 -.000000000000000D+00 -.000000000000000D+00
 0.480558199526830D+03 0.000000000000000D+00 0.000000000000000D+00 0.480558199526830D+03
 0.548596760621709D+04 0.000000000000000D+00 0.000000000000000D+00 -.548596760621709D+04
 0.577669974269484D+03 0.158361766713366D+03 0.548376385364258D+03 0.379509424967040D+02
 0.544894213992929D+02 0.112024793199084D+02 -.498546003360578D+02 -.189240673970658D+02
 0.783954197670854D+02 0.384424763334165D+02 -.234861120696993D+02 0.641593359820826D+02
 0.206981990884333D+03 -.432685938704797D+02 0.166078932036578D+03 -.831862110817208D+02
 0.504898899942372D+04 -.164738128496211D+03 -.641114604995079D+03 -.500540940669026D+04
0.154942940656D-04 0.000000000000D+00 0.000000000000D+00 0.368087596141D-06 0.000000000000D+00  7 1 -1 24 -11 11 -24 21 0 0.22497445D+00 0.10618095D-01 0.86062984D+05 0.86062984D+05 0.86062984D+05 0.11271107D+01  1  2  2  2  7  2       -1 0.711632989287D-03 0.100000000000D+01
-.854153012474D-06 0.000000000000D+00 -.595021689532D-07 0.368087596141D-06 0.000000000000D+00  7 1 -1 24 -11 11 -24 21 2 0.22497445D+00 0.10618095D-01 0.86062984D+05 0.86062984D+05 0.86062984D+05 0.11271107D+01  1  2  3  2  7  2       -1 -.498371373166D-04 0.100000000000D+01
0.100811323435D-05 0.000000000000D+00 0.000000000000D+00 0.368087596141D-06 0.000000000000D+00  7 1 -1 24 -11 11 -24 21 2 0.22497445D+00 0.10618095D-01 0.86062984D+05 0.86062984D+05 0.86062984D+05 0.11271107D+01  1  2 15  2  7  2       -1 0.588202312199D-04 0.100000000000D+01
-.133422681153D-03 0.000000000000D+00 -.227728818801D-04 0.368087596141D-06 0.000000000000D+00  7 1 -1 24 -11 11 -24 21 2 0.22497445D+00 0.23093632D+00 0.86062984D+05 0.86062984D+05 0.86062984D+05 0.11271107D+01  1  2  5  2  7  2       -1 -.130665648112D-04 0.100000000000D+01
-.494765560091D-04 0.000000000000D+00 -.741676022046D-05 0.368087596141D-06 0.000000000000D+00  7 1 21 24 -11 11 -24 1 2 0.22497445D+00 0.23093632D+00 0.86062984D+05 0.86062984D+05 0.86062984D+05 0.11271107D+01  1  2  5  4  7  2       -1 -.343493421296D-04 0.100000000000D+01
  </mgrwgt>
  </event>
  <event>
  8     66 0.27727860E-05 0.33901469E+03 0.75467711E-02 0.87176907E-01
        1 -1    0    0  501    0 0.00000000E+00 0.00000000E+00 0.10950484E+04 0.10950484E+04 0.32000000E+00 0.0000E+00 0.9000E+01
       -1 -1    0    0    0  501 0.00000000E+00 0.00000000E+00 -.35465659E+03 0.35465673E+03 0.32000000E+00 0.0000E+00 0.9000E+01
       25  2    1    2    0    0 0.26915546E+03 0.27071396E+02 -.21155074E+03 0.45586173E+03 0.29979773E+03 0.0000E+00 0.0000E+00
       23  2    1    2    0    0 -.26915546E+03 -.27071396E+02 0.95194256E+03 0.99384345E+03 0.91392817E+02 0.0000E+00 0.0000E+00
       24  1    3    3    0    0 0.24158189E+03 -.73881203E+02 -.17911819E+03 0.31995435E+03 0.80419002E+02 0.0000E+00 0.9000E+01
      -11  1    4    4    0    0 -.23992600E+03 0.16782685E+01 0.73847773E+03 0.77647708E+03 0.51099893E-03 0.0000E+00 0.9000E+01
       11  1    4    4    0    0 -.29229456E+02 -.28749664E+02 0.21346483E+03 0.21736637E+03 0.51099893E-03 0.0000E+00 0.9000E+01
      -24  1    3    3    0    0 0.27573561E+02 0.10095260E+03 -.32432552E+02 0.13590738E+03 0.80419002E+02 0.0000E+00 0.9000E+01
#aMCatNLO 1  0  0  1  2 0.92714326D+03 0.00000000D+00  -5  7  0 0.00000000D+00 0.00000000D+00 0.00000000D+00 0.00000000D+00 0.00000000D+00
  <mgrwgt>
 0.8874822321D-03    3    2    0
 0.623190392358698D+03 0.000000000000000D+00 0.000000000000000D+00 0.623190392358698D+03
 0.623190392358698D+03 0.000000000000000D+00 0.000000000000000D+00 -.623190392358698D+03
 0.478551282361848D+03 0.241581894650508D+03 -.738812033180336D+02 -.398401643908693D+03
 0.464464780899146D+03 -.239925999661135D+03 0.167826846987968D+01 0.397693639372369D+03
 0.126020505751050D+03 -.292294558056859D+02 -.287496644663635D+02 0.119164858813852D+03
 0.177344215705353D+03 0.275735608163128D+02 0.100952599314517D+03 -.118456854277529D+03
 0.000000000000000D+00 0.000000000000000D+00 -.000000000000000D+00 -.000000000000000D+00
 0.122170373095091D+04 0.000000000000000D+00 0.000000000000000D+00 0.122170373095091D+04
 0.125961699905521D+04 0.000000000000000D+00 0.000000000000000D+00 -.125961699905521D+04
 0.478506567433316D+03 0.123558937102046D+03 0.220251307182291D+03 -.398401643908693D+03
 0.646498226884888D+03 -.376928313506291D+03 0.343110438554945D+03 0.397693639372369D+03
 0.145312445082674D+03 -.626898337176392D+02 0.546390690644937D+02 0.119164858813852D+03
 0.283085373278199D+03 -.292059346408242D+02 0.242456387142338D+03 -.118456854277529D+03
 0.927918117327050D+03 0.345265144762709D+03 -.860457201944067D+03 -.379132681043006D+02
0.155711618398D-03 0.000000000000D+00 0.000000000000D+00 0.111251830627D-04 0.000000000000D+00  7 1 -1 24 -11 11 -24 21 0 0.16846900D+00 0.54562566D-01 0.11493096D+06 0.11493096D+06 0.11493096D+06 0.11167960D+01  1  2  2  1  7  1        1 0.856672699553D-03 0.100000000000D+01
-.475219843076D-05 0.000000000000D+00 -.597973614460D-06 0.111251830627D-04 0.000000000000D+00  7 1 -1 24 -11 11 -24 21 2 0.16846900D+00 0.54562566D-01 0.11493096D+06 0.11493096D+06 0.11493096D+06 0.11167960D+01  1  2  3  1  7  1        1 -.326089003166D-04 0.100000000000D+01
0.924216929281D-05 0.000000000000D+00 0.000000000000D+00 0.111251830627D-04 0.000000000000D+00  7 1 -1 24 -11 11 -24 21 2 0.16846900D+00 0.54562566D-01 0.11493096D+06 0.11493096D+06 0.11493096D+06 0.11167960D+01  1  2 15  1  7  1        1 0.634184328726D-04 0.100000000000D+01
  </mgrwgt>
  </event>
  <event>
  7     66 0.27727860E-05 0.42457750E+03 0.75467711E-02 0.89286445E-01
        1 -1    0    0  501    0 0.00000000E+00 0.00000000E+00 0.78227867E+03 0.78227873E+03 0.32000000E+00 0.0000E+00 0.9000E+01
       -1 -1    0    0    0  501 0.00000000E+00 0.00000000E+00 -.23826808E+03 0.23826829E+03 0.32000000E+00 0.0000E+00 0.9000E+01
       23  2    1    2    0    0 -.20905055E+03 -.27139674E+03 0.25301339E+03 0.43553089E+03 0.91175983E+02 0.0000E+00 0.0000E+00
       24  1    1    2    0    0 -.87000002E+02 0.89592888E+02 0.11187126E+03 0.18595236E+03 0.80419002E+02 0.0000E+00 0.9000E+01
      -11  1    3    3    0    0 -.60938143E+02 -.57061062E+02 0.19646704E+02 0.85763717E+02 0.51099893E-03 0.0000E+00 0.9000E+01
       11  1    3    3    0    0 -.14811241E+03 -.21433568E+03 0.23336668E+03 0.34976718E+03 0.51099893E-03 0.0000E+00 0.9000E+01
      -24  1    1    2    0    0 0.29605056E+03 0.18180385E+03 0.17912595E+03 0.39906377E+03 0.80419002E+02 0.0000E+00 0.9000E+01
#aMCatNLO 1  0  0  1  2 0.60656902D+03 0.00000000D+00  -5  7  0 0.00000000D+00 0.00000000D+00 0.00000000D+00 0.00000000D+00 0.00000000D+00
  <mgrwgt>
 0.1005202351D-02    5    2    0
 0.431731602726734D+03 0.000000000000000D+00 0.000000000000000D+00 0.431731602726734D+03
 0.431731602726734D+03 0.000000000000000D+00 0.000000000000000D+00 -.431731602726734D+03
 0.149298751860333D+03 -.870000024820545D+02 0.895928881247881D+02 0.150670275192050D+02
 0.889880313750811D+02 -.609381432006851D+02 -.570610623133594D+02 -.308131075832366D+02
 0.266369086096361D+03 -.148112410997125D+03 -.214335679270499D+03 0.554564723732306D+02
 0.358807336121693D+03 0.296050556679864D+03 0.181803853459071D+03 -.397103923091990D+02
 0.000000000000000D+00 0.000000000000000D+00 -.000000000000000D+00 0.000000000000000D+00
 0.146027880105138D+04 0.000000000000000D+00 0.000000000000000D+00 0.146027880105138D+04
 0.626233241555300D+03 0.000000000000000D+00 0.000000000000000D+00 -.626233241555300D+03
 0.266486152089165D+03 -.147621991080615D+03 0.206224115301895D+03 0.150670275192050D+02
 0.929266336129685D+02 -.874615418187261D+02 -.603244050065996D+01 -.308131075832366D+02
 0.239912400259883D+03 -.221928920932940D+03 -.723193855333161D+02 0.554564723732306D+02
 0.455897387855072D+03 0.177265531011613D+03 0.410335507306556D+03 -.397103923091990D+02
 0.103128946878959D+04 0.279746922820668D+03 -.538207796574475D+03 0.834045559496079D+03
0.517554569782D-04 0.000000000000D+00 0.000000000000D+00 0.548236109179D-09 0.000000000000D+00  7 1 -1 24 -11 11 -24 21 0 0.12035059D+00 0.36656649D-01 0.18026606D+06 0.18026606D+06 0.18026606D+06 0.11013073D+01  1  2  2  1  7  1        1 0.100209184387D-02 0.100000000000D+01
-.287432706574D-05 0.000000000000D+00 -.198754582321D-06 0.548236109179D-09 0.000000000000D+00  7 1 -1 24 -11 11 -24 21 2 0.12035059D+00 0.36656649D-01 0.18026606D+06 0.18026606D+06 0.18026606D+06 0.11013073D+01  1  2  3  1  7  1        1 -.675001302204D-04 0.100000000000D+01
0.331102444345D-05 0.000000000000D+00 0.000000000000D+00 0.548236109179D-09 0.000000000000D+00  7 1 -1 24 -11 11 -24 21 2 0.12035059D+00 0.36656649D-01 0.18026606D+06 0.18026606D+06 0.18026606D+06 0.11013073D+01  1  2 15  1  7  1        1 0.777554453562D-04 0.100000000000D+01
-.100423215736D-04 0.000000000000D+00 -.176420301823D-04 0.548236109179D-09 0.000000000000D+00  7 1 -1 24 -11 11 -24 21 2 0.45733003D+00 0.36656649D-01 0.18026606D+06 0.18026606D+06 0.18026606D+06 0.11013073D+01  1  2  5  1  7  1        1 -.694523284934D-05 0.100000000000D+01
-.123782850436D-05 0.000000000000D+00 -.279098411655D-05 0.548236109179D-09 0.000000000000D+00  7 21 -1 24 -11 11 -24 -1 2 0.45733003D+00 0.36656649D-01 0.18026606D+06 0.18026606D+06 0.18026606D+06 0.11013073D+01  1  2  5  3  7  1        1 -.199574727328D-06 0.100000000000D+01
  </mgrwgt>
  </event>
  <event>
  8     66 0.27727860E-05 0.19152442E+03 0.75467711E-02 0.10273290E+00
        1 -1    0    0  501    0 0.00000000E+00 0.00000000E+00 0.58363326E+03 0.58363335E+03 0.32000000E+00 0.0000E+00 0.9000E+01
       -1 -1    0    0    0  501 0.00000000E+00 0.00000000E+00 -.13184203E+03 0.13184242E+03 0.32000000E+00 0.0000E+00 0.9000E+01
       25  2    1    2    0    0 -.11532024E+03 0.44747469E+02 0.11180477E+03 0.34264105E+03 0.29933508E+03 0.0000E+00 0.0000E+00
       23  2    1    2    0    0 0.11532024E+03 -.44747469E+02 0.33998647E+03 0.37283472E+03 0.90076829E+02 0.0000E+00 0.0000E+00
       24  1    3    3    0    0 -.25952973E+02 -.54822105E+02 -.54519677E+02 0.11453659E+03 0.80419002E+02 0.0000E+00 0.9000E+01
      -11  1    4    4    0    0 0.27077914E+02 0.43468910E+00 0.10990339E+02 0.29226528E+02 0.51099893E-03 0.0000E+00 0.9000E+01
       11  1    4    4    0    0 0.88242324E+02 -.45182158E+02 0.32899613E+03 0.34360819E+03 0.51099893E-03 0.0000E+00 0.9000E+01
      -24  1    3    3    0    0 -.89367265E+02 0.99569574E+02 0.16632444E+03 0.22810446E+03 0.80419002E+02 0.0000E+00 0.9000E+01
#aMCatNLO 1  0  0  2  1 0.10580229D+03 0.00000000D+00  -5  7  0 0.00000000D+00 0.00000000D+00 0.00000000D+00 0.00000000D+00 0.00000000D+00
  <mgrwgt>
 0.4156380833D-03    4    2    0
 0.277394240293318D+03 0.000000000000000D+00 0.000000000000000D+00 0.277394240293318D+03
 0.277394240293318D+03 0.000000000000000D+00 0.000000000000000D+00 -.277394240293318D+03
 0.192108655219139D+03 -.259529729490349D+02 -.548221052193456D+02 -.163583310365578D+03
 0.287416458792611D+02 0.270779144438182D+02 0.434689096024583D+00 -.962703498549291D+01
 0.175212301850879D+03 0.882423237556624D+02 -.451821578477166D+02 0.144468735823044D+03
 0.158725877637358D+03 -.893672652504457D+02 0.995695739710376D+02 0.287416095280268D+02
 0.000000000000000D+00 -.000000000000000D+00 0.000000000000000D+00 0.000000000000000D+00
 0.340329244674855D+03 0.000000000000000D+00 0.000000000000000D+00 0.340329244674855D+03
 0.330697571886924D+03 0.000000000000000D+00 0.000000000000000D+00 -.330697571886924D+03
 0.204317483483642D+03 -.159153027185940D+02 -.909154651966996D+02 -.163583310365578D+03
 0.305633719161128D+02 0.285795414898761D+02 -.496484727853487D+01 -.962703498549291D+01
 0.191180480670426D+03 0.975195372557537D+02 -.785410746838255D+02 0.144468735823044D+03
 0.138725688016052D+03 -.818356712558434D+02 0.724875392946981D+02 0.287416095280268D+02
 0.106239792475546D+03 -.283481047711924D+02 0.101933847864362D+03 0.963167278793168D+01
0.965208403392D-05 0.000000000000D+00 0.000000000000D+00 0.623882935667D-06 0.000000000000D+00  7 1 -1 24 -11 11 -24 21 0 0.89789769D-01 0.20283426D-01 0.36681605D+05 0.36681605D+05 0.36681605D+05 0.11593192D+01  1  2  2  2  7  2       -1 0.781571503436D-03 0.100000000000D+01
-.446766812806D-06 0.000000000000D+00 -.370665441423D-07 0.623882935667D-06 0.000000000000D+00  7 1 -1 24 -11 11 -24 21 2 0.89789769D-01 0.20283426D-01 0.36681605D+05 0.36681605D+05 0.36681605D+05 0.11593192D+01  1  2  3  2  7  2       -1 -.486222016300D-04 0.100000000000D+01
0.586678902669D-06 0.000000000000D+00 0.000000000000D+00 0.623882935667D-06 0.000000000000D+00  7 1 -1 24 -11 11 -24 21 2 0.89789769D-01 0.20283426D-01 0.36681605D+05 0.36681605D+05 0.36681605D+05 0.11593192D+01  1  2 15  2  7  2       -1 0.638490126840D-04 0.100000000000D+01
-.350230421398D-05 0.000000000000D+00 0.000000000000D+00 0.623882935667D-06 0.000000000000D+00  7 1 -1 24 -11 11 -24 21 2 0.89789769D-01 0.20283426D-01 0.36681605D+05 0.36681605D+05 0.36681605D+05 0.11593192D+01  1  2  4  2  7  2       -1 -.381160231200D-03 0.100000000000D+01
  </mgrwgt>
  </event>
  <event>
  8     66 0.27727860E-05 0.22741805E+03 0.75467711E-02 0.96563464E-01
        1 -1    0    0  501    0 0.00000000E+00 0.00000000E+00 0.18121826E+03 0.18121854E+03 0.32000000E+00 0.0000E+00 0.9000E+01
       -1 -1    0    0    0  501 0.00000000E+00 0.00000000E+00 -.31735236E+03 0.31735252E+03 0.32000000E+00 0.0000E+00 0.9000E+01
       25  2    1    2    0    0 -.11546123E+03 0.39312044E+02 -.58529575E+02 0.32796525E+03 0.29876205E+03 0.0000E+00 0.0000E+00
       23  2    1    2    0    0 0.11546123E+03 -.39312044E+02 -.77604523E+02 0.17060581E+03 0.90593306E+02 0.0000E+00 0.0000E+00
       24  1    3    3    0    0 0.66659970E+02 -.35612644E+01 0.25627226E+02 0.10761136E+03 0.80419002E+02 0.0000E+00 0.9000E+01
      -13  1    4    4    0    0 0.12512751E+03 -.47661118E+02 -.82101462E+02 0.15706412E+03 0.10565837E+00 0.0000E+00 0.9000E+01
       13  1    4    4    0    0 -.96662729E+01 0.83490743E+01 0.44969388E+01 0.13541695E+02 0.10565837E+00 0.0000E+00 0.9000E+01
      -24  1    3    3    0    0 -.18212120E+03 0.42873308E+02 -.84156801E+02 0.22035389E+03 0.80419002E+02 0.0000E+00 0.9000E+01
#aMCatNLO 1  0  0  1  2 0.30021628D+03 0.00000000D+00  -5  7  0 0.00000000D+00 0.00000000D+00 0.00000000D+00 0.00000000D+00 0.00000000D+00
  <mgrwgt>
 0.1106579152D-02    3    2    0
 0.239812745011458D+03 0.000000000000000D+00 0.000000000000000D+00 0.239812745011458D+03
 0.239812745011458D+03 0.000000000000000D+00 0.000000000000000D+00 -.239812745011458D+03
 0.119135972035387D+03 0.666599676639132D+02 -.356126354057301D+01 0.571833016840288D+02
 0.139965240312588D+03 0.125127693594281D+03 -.476611941190531D+02 -.407644375244155D+02
 0.153528122600863D+02 -.966645202971687D+01 0.834914824424360D+01 0.851823180280286D+01
 0.205171465414856D+03 -.182121209228478D+03 0.428733094153825D+02 -.249370959624162D+02
 0.000000000000000D+00 -.000000000000000D+00 0.000000000000000D+00 -.000000000000000D+00
 0.345696196995429D+03 0.000000000000000D+00 0.000000000000000D+00 0.345696196995429D+03
 0.641839800172201D+03 0.000000000000000D+00 0.000000000000000D+00 -.641839800172201D+03
 0.167989227407374D+03 0.117409667987358D+03 -.685434493016484D+02 0.571833016840288D+02
 0.236843851258352D+03 0.191729122216664D+03 -.132940641664744D+03 -.407644375244155D+02
 0.102693916905387D+02 -.513769880762424D+01 0.255033009815611D+01 0.851823180280286D+01
 0.150733573030701D+03 -.119214595389741D+03 -.376751320535537D+02 -.249370959624162D+02
 0.421699953780664D+03 -.184786496006657D+03 0.236608892921790D+03 -.296143603176772D+03
0.125532657479D-04 0.000000000000D+00 0.000000000000D+00 0.141579252947D-06 0.000000000000D+00  7 1 -1 24 -13 13 -24 21 0 0.27879766D-01 0.48823474D-01 0.51718968D+05 0.51718968D+05 0.51718968D+05 0.11460064D+01  1  2  2  1  7  1        1 0.109543655790D-02 0.100000000000D+01
-.695015629808D-06 0.000000000000D+00 -.482078458229D-07 0.141579252947D-06 0.000000000000D+00  7 1 -1 24 -13 13 -24 21 2 0.27879766D-01 0.48823474D-01 0.51718968D+05 0.51718968D+05 0.51718968D+05 0.11460064D+01  1  2  3  1  7  1        1 -.796524535163D-04 0.100000000000D+01
0.792241471714D-06 0.000000000000D+00 0.000000000000D+00 0.141579252947D-06 0.000000000000D+00  7 1 -1 24 -13 13 -24 21 2 0.27879766D-01 0.48823474D-01 0.51718968D+05 0.51718968D+05 0.51718968D+05 0.11460064D+01  1  2 15  1  7  1        1 0.907950473241D-04 0.100000000000D+01
  </mgrwgt>
  </event>
  <event>
  8     66 0.27727860E-05 0.33622826E+03 0.75467711E-02 0.89510775E-01
        1 -1    0    0  501    0 0.00000000E+00 0.00000000E+00 0.53979299E+03 0.53979309E+03 0.32000000E+00 0.0000E+00 0.9000E+01
       -1 -1    0    0    0  501 0.00000000E+00 0.00000000E+00 -.10116925E+04 0.10116926E+04 0.32000000E+00 0.0000E+00 0.9000E+01
       25  2    1    2    0    0 0.23129158E+03 0.54789268E+03 0.15356431E+03 0.68357380E+03 0.30001494E+03 0.0000E+00 0.0000E+00
       23  2    1    2    0    0 -.23129158E+03 -.54789268E+03 -.62546385E+03 0.86791186E+03 0.91563014E+02 0.0000E+00 0.0000E+00
       24  1    3    3    0    0 0.12637311E+03 0.98691670E+02 0.11643331E+03 0.21385542E+03 0.80419002E+02 0.0000E+00 0.9000E+01
      -11  1    4    4    0    0 -.14634528E+03 -.41777327E+03 -.50313255E+03 0.67014462E+03 0.51099893E-03 0.0000E+00 0.9000E+01
       11  1    4    4    0    0 -.84946300E+02 -.13011942E+03 -.12233129E+03 0.19776724E+03 0.51099893E-03 0.0000E+00 0.9000E+01
      -24  1    3    3    0    0 0.10491847E+03 0.44920101E+03 0.37131003E+02 0.46971839E+03 0.80419002E+02 0.0000E+00 0.9000E+01
#aMCatNLO 1  0  0  2  1 0.33089503D+03 0.00000000D+00  -5  7  0 0.00000000D+00 0.00000000D+00 0.00000000D+00 0.00000000D+00 0.00000000D+00
  <mgrwgt>
 0.1162040438D-02    8    2    0
 0.738988936886602D+03 0.000000000000000D+00 0.000000000000000D+00 0.738988936886602D+03
 0.738988936886602D+03 0.000000000000000D+00 0.000000000000000D+00 -.738988936886602D+03
 0.261667272328940D+03 0.126373110061770D+03 0.986916699032874D+02 0.190505477083242D+03
 0.542830692204450D+03 -.146345280534110D+03 -.417773268459218D+03 -.314187389029950D+03
 0.168544442797179D+03 -.849462995265883D+02 -.130119415027682D+03 -.652709217600355D+02
 0.504935466442633D+03 0.104918469998929D+03 0.449201013583613D+03 0.188952833706743D+03
 0.000000000000000D+00 0.000000000000000D+00 0.000000000000000D+00 -.000000000000000D+00
 0.798569026921926D+03 0.000000000000000D+00 0.000000000000000D+00 0.798569026921926D+03
 0.142028878339155D+04 0.000000000000000D+00 0.000000000000000D+00 -.142028878339155D+04
 0.234540180298136D+03 0.977706059686230D+02 0.518695674719398D+02 0.190505477083242D+03
 0.653166918481616D+03 -.215285249843179D+03 -.530627523949968D+03 -.314187389029950D+03
 0.207491120018460D+03 -.106621827912266D+03 -.165602105879598D+03 -.652709217600355D+02
 0.419367764413227D+03 0.516395706113934D+02 0.361983821815064D+03 0.188952833706743D+03
 0.704291827102040D+03 0.172496901175428D+03 0.282376240542561D+03 -.621719756469628D+03
0.318478134631D-03 0.000000000000D+00 0.000000000000D+00 0.181570839651D-04 0.000000000000D+00  7 1 -1 24 -11 11 -24 21 0 0.83045087D-01 0.15564502D+00 0.38793343D+06 0.38793343D+06 0.38793343D+06 0.10763879D+01  1  2  2  2  7  2       -1 0.491251619457D-03 0.100000000000D+01
-.170642710305D-04 0.000000000000D+00 -.122303989420D-05 0.181570839651D-04 0.000000000000D+00  7 1 -1 24 -11 11 -24 21 2 0.83045087D-01 0.15564502D+00 0.38793343D+06 0.38793343D+06 0.38793343D+06 0.10763879D+01  1  2  3  2  7  2       -1 -.304964822486D-04 0.100000000000D+01
0.201504761452D-04 0.000000000000D+00 0.000000000000D+00 0.181570839651D-04 0.000000000000D+00  7 1 -1 24 -11 11 -24 21 2 0.83045087D-01 0.15564502D+00 0.38793343D+06 0.38793343D+06 0.38793343D+06 0.10763879D+01  1  2 15  2  7  2       -1 0.360120064294D-04 0.100000000000D+01
0.240824978171D-03 0.000000000000D+00 0.000000000000D+00 0.181570839651D-04 0.000000000000D+00  7 1 -1 24 -11 11 -24 21 2 0.83045087D-01 0.30004295D+00 0.64938345D+06 0.64938345D+06 0.64938345D+06 0.10605779D+01  1  2 12  2  7  2       -1 0.251103382161D-04 0.100000000000D+01
-.398257118458D-03 0.000000000000D+00 -.879905519264D-04 0.181570839651D-04 0.000000000000D+00  7 1 -1 24 -11 11 -24 21 2 0.83045087D-01 0.30657979D+00 0.38793343D+06 0.38793343D+06 0.38793343D+06 0.10763879D+01  1  2  5  2  7  2       -1 -.389451041490D-04 0.100000000000D+01
0.383352512442D-03 0.000000000000D+00 0.710340438040D-04 0.181570839651D-04 0.000000000000D+00  7 1 -1 24 -11 11 -24 21 2 0.83045087D-01 0.15564502D+00 0.38793343D+06 0.38793343D+06 0.38793343D+06 0.10763879D+01  1  2  6  2  7  2       -1 0.685110021386D-03 0.100000000000D+01
0.171473283394D-04 0.000000000000D+00 0.000000000000D+00 0.181570839651D-04 0.000000000000D+00  7 1 21 24 -11 11 -24 1 2 0.83045087D-01 0.30004295D+00 0.64938345D+06 0.64938345D+06 0.64938345D+06 0.10605779D+01  1  2 12  4  7  2       -1 0.157409146580D-04 0.100000000000D+01
-.240246685109D-04 0.000000000000D+00 -.645943316665D-05 0.181570839651D-04 0.000000000000D+00  7 1 21 24 -11 11 -24 1 2 0.83045087D-01 0.30657979D+00 0.38793343D+06 0.38793343D+06 0.38793343D+06 0.10763879D+01  1  2  5  4  7  2       -1 -.217428752981D-04 0.100000000000D+01
  </mgrwgt>
  </event>
  <event>
  8     66 0.27727860E-05 0.26495004E+03 0.75467711E-02 0.10067409E+00
        3 -1    0    0  501    0 0.00000000E+00 0.00000000E+00 0.25430921E+03 0.25430970E+03 0.50000000E+00 0.0000E+00 0.9000E+01
       -3 -1    0    0    0  501 0.00000000E+00 0.00000000E+00 -.44017276E+03 0.44017304E+03 0.50000000E+00 0.0000E+00 0.9000E+01
       25  2    1    2    0    0 -.16441518E+03 -.17894268E+03 -.19946549E+03 0.43499021E+03 0.30062795E+03 0.0000E+00 0.0000E+00
       23  2    1    2    0    0 0.16441518E+03 0.17894268E+03 0.13601938E+02 0.25949253E+03 0.89991814E+02 0.0000E+00 0.0000E+00
       24  1    3    3    0    0 -.16945581E+03 -.30225766E+02 -.24379834E+02 0.19154754E+03 0.80419002E+02 0.0000E+00 0.9000E+01
      -13  1    4    4    0    0 0.45653408E+01 0.19923913E+02 -.23324679E+02 0.31013811E+02 0.10565837E+00 0.0000E+00 0.9000E+01
       13  1    4    4    0    0 0.15984984E+03 0.15901877E+03 0.36926616E+02 0.22847872E+03 0.10565837E+00 0.0000E+00 0.9000E+01
      -24  1    3    3    0    0 0.50406304E+01 -.14871692E+03 -.17508566E+03 0.24344267E+03 0.80419002E+02 0.0000E+00 0.9000E+01
#aMCatNLO 1  0  0  2  1 0.10452356D+01 0.00000000D+00  -5  7  0 0.00000000D+00 0.00000000D+00 0.00000000D+00 0.00000000D+00 0.00000000D+00
  <mgrwgt>
 0.1295857427D-04   10    2    0
 0.334574735199545D+03 0.000000000000000D+00 0.000000000000000D+00 0.334574735199545D+03
 0.334574735199545D+03 0.000000000000000D+00 0.000000000000000D+00 -.334574735199545D+03
 0.192027555827360D+03 -.169455807540546D+03 -.302257662231759D+02 0.279015875831948D+02
 0.257089703398888D+02 0.456512693712149D+01 0.199237212062561D+02 -.155934635434413D+02
 0.247385750613014D+03 0.159850050248584D+03 0.159018962474054D+03 0.101787232085191D+03
 0.204027193618828D+03 0.504063035484032D+01 -.148716917457134D+03 -.114095356124945D+03
 0.000000000000000D+00 -.000000000000000D+00 -.000000000000000D+00 -.000000000000000D+00
 0.334696597683255D+03 0.000000000000000D+00 0.000000000000000D+00 0.334696597683255D+03
 0.336823967258242D+03 0.000000000000000D+00 0.000000000000000D+00 -.336823967258242D+03
 0.191892575353889D+03 -.169352869332444D+03 -.299441410092710D+02 0.279015875831948D+02
 0.257406799177612D+02 0.457892182406508D+01 0.199614621778341D+02 -.155934635434413D+02
 0.247705069106388D+03 0.159982795988364D+03 0.159382137120762D+03 0.101787232085191D+03
 0.203811962368368D+03 0.514998182797650D+01 -.148417746405097D+03 -.114095356124945D+03
 0.237027819509163D+01 -.358830307961508D+00 -.981711884227695D+00 -.212736957498720D+01
0.119041735673D-04 0.000000000000D+00 0.000000000000D+00 0.802356172964D-06 0.000000000000D+00  7 3 -3 24 -13 13 -24 21 0 0.39124553D-01 0.67718945D-01 0.91520743D+05 0.91520743D+05 0.91520743D+05 0.11248936D+01  1  2  2  2  7  2       -3 0.675204667784D-04 0.100000000000D+01
-.653189072025D-06 0.000000000000D+00 -.457151609392D-07 0.802356172964D-06 0.000000000000D+00  7 3 -3 24 -13 13 -24 21 2 0.39124553D-01 0.67718945D-01 0.91520743D+05 0.91520743D+05 0.91520743D+05 0.11248936D+01  1  2  3  2  7  2       -3 -.468811171569D-05 0.100000000000D+01
0.770684215960D-06 0.000000000000D+00 0.000000000000D+00 0.802356172964D-06 0.000000000000D+00  7 3 -3 24 -13 13 -24 21 2 0.39124553D-01 0.67718945D-01 0.91520743D+05 0.91520743D+05 0.91520743D+05 0.11248936D+01  1  2 15  2  7  2       -3 0.553140561697D-05 0.100000000000D+01
-.211901135384D-02 0.000000000000D+00 0.000000000000D+00 0.802356172964D-06 0.000000000000D+00  7 3 -3 24 -13 13 -24 21 2 0.39124553D-01 0.67718945D-01 0.91520743D+05 0.91520743D+05 0.91520743D+05 0.11248936D+01  1  2  4  2  7  2       -3 -.152087081354D-01 0.100000000000D+01
-.393589884391D-02 0.000000000000D+00 -.209839179647D-03 0.802356172964D-06 0.000000000000D+00  7 3 -3 24 -13 13 -24 21 2 0.39124553D-01 0.68187959D-01 0.91520743D+05 0.91520743D+05 0.91520743D+05 0.11248936D+01  1  2  5  2  7  2       -3 -.278147451843D-01 0.100000000000D+01
0.393725837209D-02 0.000000000000D+00 0.209834181618D-03 0.802356172964D-06 0.000000000000D+00  7 3 -3 24 -13 13 -24 21 2 0.39124553D-01 0.67718945D-01 0.91520743D+05 0.91520743D+05 0.91520743D+05 0.11248936D+01  1  2  6  2  7  2       -3 0.282587506320D-01 0.100000000000D+01
0.211907296182D-02 0.000000000000D+00 0.000000000000D+00 0.802356172964D-06 0.495538921074D-05  7 3 -3 24 -13 13 -24 21 2 0.39138803D-01 0.68174197D-01 0.91835425D+05 0.91835425D+05 0.91835425D+05 0.11247702D+01  1  2 11  2  7  2       -3 0.149685986250D-01 0.100000000000D+01
0.366564577802D-10 0.000000000000D+00 0.000000000000D+00 0.802356172964D-06 0.000000000000D+00  7 3 21 24 -13 13 -24 3 2 0.39124553D-01 0.68186485D-01 0.91835425D+05 0.91835425D+05 0.91835425D+05 0.11247702D+01  1  2 12  4  7  2       -3 0.400586900610D-08 0.100000000000D+01
-.503750413620D-05 0.000000000000D+00 -.268768484765D-06 0.802356172964D-06 0.000000000000D+00  7 3 21 24 -13 13 -24 3 2 0.39124553D-01 0.68187959D-01 0.91520743D+05 0.91520743D+05 0.91520743D+05 0.11248936D+01  1  2  5  4  7  2       -3 -.550667713754D-03 0.100000000000D+01
0.266694015911D-05 0.000000000000D+00 0.000000000000D+00 0.802356172964D-06 0.615852519786D-08  7 3 21 24 -13 13 -24 3 2 0.39138803D-01 0.68174197D-01 0.91835425D+05 0.91835425D+05 0.91835425D+05 0.11247702D+01  1  2 11  4  7  2       -3 0.291362584085D-03 0.100000000000D+01
  </mgrwgt>
  </event>
  <event>
  8     66 0.27727860E-05 0.20272445E+03 0.75467711E-02 0.97237695E-01
        1 -1    0    0  501    0 0.00000000E+00 0.00000000E+00 0.36373946E+03 0.36373960E+03 0.32000000E+00 0.0000E+00 0.9000E+01
       -1 -1    0    0    0  501 0.00000000E+00 0.00000000E+00 -.16140601E+03 0.16140633E+03 0.32000000E+00 0.0000E+00 0.9000E+01
       25  2    1    2    0    0 0.60713687E+02 -.97972627E+01 0.12114500E+02 0.30562654E+03 0.29912987E+03 0.0000E+00 0.0000E+00
       23  2    1    2    0    0 -.60713687E+02 0.97972627E+01 0.19021895E+03 0.21951940E+03 0.90682832E+02 0.0000E+00 0.0000E+00
       24  1    3    3    0    0 0.59224748E+02 -.12435571E+03 -.23431453E+02 0.16120844E+03 0.80419002E+02 0.0000E+00 0.9000E+01
      -13  1    4    4    0    0 0.10349034E+02 -.24849219E+02 0.26817118E+02 0.37996778E+02 0.10565837E+00 0.0000E+00 0.9000E+01
       13  1    4    4    0    0 -.71062721E+02 0.34646481E+02 0.16340184E+03 0.18152262E+03 0.10565837E+00 0.0000E+00 0.9000E+01
      -24  1    3    3    0    0 0.14889385E+01 0.11455845E+03 0.35545953E+02 0.14441809E+03 0.80419002E+02 0.0000E+00 0.9000E+01
#aMCatNLO 1  0  0  1  1 0.31163974D+03 0.00000000D+00  -5  7  0 0.00000000D+00 0.00000000D+00 0.00000000D+00 0.00000000D+00 0.00000000D+00
  <mgrwgt>
 0.6888241263D-03    5    2    0
 0.242301167165089D+03 0.000000000000000D+00 0.000000000000000D+00 0.242301167165089D+03
 0.242301167165089D+03 0.000000000000000D+00 0.000000000000000D+00 -.242301167165089D+03
 0.184478942605768D+03 0.592247501343314D+02 -.124355710180279D+03 -.927003270094363D+02
 0.299787799803074D+02 0.103491410650765D+02 -.248492952666737D+02 0.131960241388265D+02
 0.128485289024411D+03 -.710628310318896D+02 0.346465584381355D+02 0.101282572685593D+03
 0.141659322719690D+03 0.148893983248160D+01 0.114558447008817D+03 -.217782698149835D+02
 0.000000000000000D+00 -.000000000000000D+00 0.000000000000000D+00 0.000000000000000D+00
 0.472587839489189D+03 0.000000000000000D+00 0.000000000000000D+00 0.472587839489189D+03
 0.419671233294712D+03 0.000000000000000D+00 0.000000000000000D+00 -.419671233294712D+03
 0.306581707227325D+03 0.142799762311591D+03 -.241950417458097D+03 -.927003270094363D+02
 0.525237963100463D+02 0.243904897670447D+02 -.446062566762828D+02 0.131960241388265D+02
 0.108125128859048D+03 -.307934293549323D+02 -.220147375531942D+02 0.101282572685593D+03
 0.108927985405228D+03 0.441371083125358D+02 0.545500933431302D+02 -.217782698149835D+02
 0.316100454982254D+03 -.180533931036239D+03 0.254021318344443D+03 0.529166061944769D+02
0.577391223242D-05 0.000000000000D+00 0.000000000000D+00 0.337880627598D-06 0.000000000000D+00  7 1 -1 24 -13 13 -24 21 0 0.55959953D-01 0.24831729D-01 0.41097201D+05 0.41097201D+05 0.41097201D+05 0.11548620D+01  1  2  2  1  7  1        1 0.639834792028D-03 0.100000000000D+01
-.308369337369D-06 0.000000000000D+00 -.221733432785D-07 0.337880627598D-06 0.000000000000D+00  7 1 -1 24 -13 13 -24 21 2 0.55959953D-01 0.24831729D-01 0.41097201D+05 0.41097201D+05 0.41097201D+05 0.11548620D+01  1  2  3  1  7  1        1 -.455752493794D-04 0.100000000000D+01
0.343126344866D-06 0.000000000000D+00 0.000000000000D+00 0.337880627598D-06 0.000000000000D+00  7 1 -1 24 -13 13 -24 21 2 0.55959953D-01 0.24831729D-01 0.41097201D+05 0.41097201D+05 0.41097201D+05 0.11548620D+01  1  2 15  1  7  1        1 0.507121391164D-04 0.100000000000D+01
0.118566882847D-05 0.000000000000D+00 -.191614306281D-05 0.337880627598D-06 0.000000000000D+00  7 1 -1 24 -13 13 -24 21 2 0.16814053D+00 0.24831729D-01 0.41097201D+05 0.41097201D+05 0.41097201D+05 0.11548620D+01  1  2  5  1  7  1        1 0.346586476430D-04 0.100000000000D+01
0.243985616957D-06 0.000000000000D+00 -.239926765581D-06 0.337880627598D-06 0.000000000000D+00  7 21 -1 24 -13 13 -24 -1 2 0.16814053D+00 0.24831729D-01 0.41097201D+05 0.41097201D+05 0.41097201D+05 0.11548620D+01  1  2  5  3  7  1        1 0.919379690091D-05 0.100000000000D+01
  </mgrwgt>
  </event>
  <event>
  8     66 0.27727860E-05 0.53168679E+03 0.75467711E-02 0.90164155E-01
        1 -1    0    0  501    0 0.00000000E+00 0.00000000E+00 0.22873498E+03 0.22873520E+03 0.32000000E+00 0.0000E+00 0.9000E+01
       -1 -1    0    0    0  501 0.00000000E+00 0.00000000E+00 -.14857744E+04 0.14857744E+04 0.32000000E+00 0.0000E+00 0.9000E+01
       25  2    1    2    0    0 0.44661608E+03 0.22836148E+03 -.96016101E+03 0.11244076E+04 0.30127781E+03 0.0000E+00 0.0000E+00
       23  2    1    2    0    0 -.44661608E+03 -.22836148E+03 -.29687843E+03 0.59010209E+03 0.92026011E+02 0.0000E+00 0.0000E+00
       24  1    3    3    0    0 0.40862502E+03 0.14856488E+03 -.86571440E+03 0.97209802E+03 0.80419002E+02 0.0000E+00 0.9000E+01
      -11  1    4    4    0    0 -.42115292E+03 -.21792528E+03 -.25080681E+03 0.53643757E+03 0.51099893E-03 0.0000E+00 0.9000E+01
       11  1    4    4    0    0 -.25463160E+02 -.10436199E+02 -.46071616E+02 0.53664519E+02 0.51099893E-03 0.0000E+00 0.9000E+01
      -24  1    3    3    0    0 0.37991063E+02 0.79796602E+02 -.94446613E+02 0.15230954E+03 0.80419002E+02 0.0000E+00 0.9000E+01
#aMCatNLO 1  0  0  1  1 0.38309955D+03 0.00000000D+00  -5  7  0 0.00000000D+00 0.00000000D+00 0.00000000D+00 0.00000000D+00 0.00000000D+00
  <mgrwgt>
 0.7698912635D-03    3    2    0
 0.582965523389874D+03 0.000000000000000D+00 0.000000000000000D+00 0.582965523389874D+03
 0.582965523389874D+03 0.000000000000000D+00 0.000000000000000D+00 -.582965523389874D+03
 0.496113644947274D+03 0.408625016372342D+03 0.148564878735601D+03 -.224979122474684D+03
 0.518429750020047D+03 -.421152919766890D+03 -.217925282005666D+03 0.209542824597797D+03
 0.292422926275855D+02 -.254631595762920D+02 -.104361989100326D+02 -.989064885737370D+01
 0.122145359184840D+03 0.379910629708404D+02 0.797966021800973D+02 0.253269467342611D+02
 0.000000000000000D+00 0.000000000000000D+00 -.000000000000000D+00 -.000000000000000D+00
 0.674135237488521D+03 0.000000000000000D+00 0.000000000000000D+00 0.674135237488521D+03
 0.122003066389467D+04 0.000000000000000D+00 0.000000000000000D+00 -.122003066389467D+04
 0.560718171366098D+03 0.395816433639263D+03 0.317256043374095D+03 -.224979122474684D+03
 0.484775460076087D+03 -.433311559139233D+03 -.577939795124581D+02 0.209542824597797D+03
 0.279945773615861D+02 -.261568585862217D+02 -.130006758838397D+01 -.989064885737370D+01
 0.153769088944409D+03 0.346470370042079D+02 0.123837980266040D+03 0.253269467342611D+02
 0.666908603635015D+03 0.290049470819836D+02 -.381999976539293D+03 -.545895426406154D+03
0.599050767324D-03 0.000000000000D+00 0.000000000000D+00 0.119104524137D-05 0.000000000000D+00  7 1 -1 24 -11 11 -24 21 0 0.35190017D-01 0.22858070D+00 0.28269085D+06 0.28269085D+06 0.28269085D+06 0.10864665D+01  1  2  2  1  7  1        1 0.765130324936D-03 0.100000000000D+01
-.329375606586D-04 0.000000000000D+00 -.230051268021D-05 0.119104524137D-05 0.000000000000D+00  7 1 -1 24 -11 11 -24 21 2 0.35190017D-01 0.22858070D+00 0.28269085D+06 0.28269085D+06 0.28269085D+06 0.10864665D+01  1  2  3  1  7  1        1 -.496587673695D-04 0.100000000000D+01
0.360953857535D-04 0.000000000000D+00 0.000000000000D+00 0.119104524137D-05 0.000000000000D+00  7 1 -1 24 -11 11 -24 21 2 0.35190017D-01 0.22858070D+00 0.28269085D+06 0.28269085D+06 0.28269085D+06 0.10864665D+01  1  2 15  1  7  1        1 0.544197059043D-04 0.100000000000D+01
  </mgrwgt>
  </event>
  <event>
  8     66 0.27727860E-05 0.17606496E+03 0.75467711E-02 0.94573794E-01
        1 -1    0    0  501    0 0.00000000E+00 0.00000000E+00 0.80520788E+03 0.80520795E+03 0.32000000E+00 0.0000E+00 0.9000E+01
       -1 -1    0    0    0  501 0.00000000E+00 0.00000000E+00 -.23188445E+03 0.23188467E+03 0.32000000E+00 0.0000E+00 0.9000E+01
       25  2    1    2    0    0 -.36840531E+03 0.32874306E+02 0.25261222E+03 0.53894671E+03 0.29974560E+03 0.0000E+00 0.0000E+00
       23  2    1    2    0    0 0.36840531E+03 -.32874306E+02 0.32071121E+03 0.49814591E+03 0.92143804E+02 0.0000E+00 0.0000E+00
       24  1    3    3    0    0 -.16673015E+03 0.52420327E+02 -.15944047E+02 0.19304990E+03 0.80419002E+02 0.0000E+00 0.9000E+01
      -11  1    4    4    0    0 0.10214003E+03 0.31379623E+02 0.10058641E+03 0.14674772E+03 0.51099893E-03 0.0000E+00 0.9000E+01
       11  1    4    4    0    0 0.26626527E+03 -.64253929E+02 0.22012480E+03 0.35139819E+03 0.51099893E-03 0.0000E+00 0.9000E+01
      -24  1    3    3    0    0 -.20167516E+03 -.19546020E+02 0.26855627E+03 0.34589681E+03 0.80419002E+02 0.0000E+00 0.9000E+01
#aMCatNLO 1  0  0  1  2 0.18825995D+03 0.00000000D+00  -5  7  0 0.00000000D+00 0.00000000D+00 0.00000000D+00 0.00000000D+00 0.00000000D+00
  <mgrwgt>
 0.7787226613D-03    8    2    0
 0.432105699455465D+03 0.000000000000000D+00 0.000000000000000D+00 0.432105699455465D+03
 0.432105699455465D+03 0.000000000000000D+00 0.000000000000000D+00 -.432105699455465D+03
 0.242245960128480D+03 -.166730152820671D+03 0.524203265750901D+02 -.147204126118649D+03
 0.109374200869488D+03 0.102140033892444D+03 0.313796232607546D+02 0.233548396762328D+02
 0.275661450488427D+03 0.266265273943280D+03 -.642539294000302D+02 0.310398410748107D+02
 0.236929787424536D+03 -.201675155015053D+03 -.195460204358145D+02 0.928094453676054D+02
 0.000000000000000D+00 0.000000000000000D+00 0.000000000000000D+00 0.000000000000000D+00
 0.824221345165467D+03 0.000000000000000D+00 0.000000000000000D+00 0.824221345165467D+03
 0.465435516763764D+03 0.000000000000000D+00 0.000000000000000D+00 -.465435516763764D+03
 0.254961759208440D+03 -.191943136979353D+03 0.520193468457769D+01 -.147204126118649D+03
 0.954289697466587D+02 0.917546378183863D+02 0.119300532028534D+02 0.233548396762328D+02
 0.267152608424160D+03 0.238739630763957D+03 -.115803424632316D+03 0.310398410748107D+02
 0.266935689644299D+03 -.227225748453919D+03 -.673966804940797D+02 0.928094453676054D+02
 0.405177834905673D+03 0.886746168509279D+02 0.166068117238964D+03 0.358785828401702D+03
0.153229820738D-04 0.000000000000D+00 0.000000000000D+00 0.874119092785D-06 0.000000000000D+00  7 1 -1 24 -11 11 -24 21 0 0.12387816D+00 0.35674553D-01 0.15647800D+06 0.15647800D+06 0.15647800D+06 0.11061058D+01  1  2  2  1  7  1        1 0.297968202728D-03 0.100000000000D+01
-.843200400550D-06 0.000000000000D+00 -.588442857973D-07 0.874119092785D-06 0.000000000000D+00  7 1 -1 24 -11 11 -24 21 2 0.12387816D+00 0.35674553D-01 0.15647800D+06 0.15647800D+06 0.15647800D+06 0.11061058D+01  1  2  3  1  7  1        1 -.200609159567D-04 0.100000000000D+01
0.942552973729D-06 0.000000000000D+00 0.000000000000D+00 0.874119092785D-06 0.000000000000D+00  7 1 -1 24 -11 11 -24 21 2 0.12387816D+00 0.35674553D-01 0.15647800D+06 0.15647800D+06 0.15647800D+06 0.11061058D+01  1  2 15  1  7  1        1 0.224246525243D-04 0.100000000000D+01
0.162838177224D-04 0.000000000000D+00 0.000000000000D+00 0.874119092785D-06 0.000000000000D+00  7 1 -1 24 -11 11 -24 21 2 0.23705417D+00 0.35674553D-01 0.25229837D+06 0.25229837D+06 0.25229837D+06 0.10901602D+01  1  2 12  1  7  1        1 0.107844468951D-03 0.100000000000D+01
-.230502257389D-04 0.000000000000D+00 -.475815933889D-05 0.874119092785D-06 0.000000000000D+00  7 1 -1 24 -11 11 -24 21 2 0.24277796D+00 0.35674553D-01 0.15647800D+06 0.15647800D+06 0.15647800D+06 0.11061058D+01  1  2  5  1  7  1        1 -.151488496318D-03 0.100000000000D+01
0.219890927293D-04 0.000000000000D+00 0.385265864651D-05 0.874119092785D-06 0.000000000000D+00  7 1 -1 24 -11 11 -24 21 2 0.12387816D+00 0.35674553D-01 0.15647800D+06 0.15647800D+06 0.15647800D+06 0.11061058D+01  1  2  6  1  7  1        1 0.523151247221D-03 0.100000000000D+01
0.114733946342D-05 0.000000000000D+00 0.000000000000D+00 0.874119092785D-06 0.000000000000D+00  7 21 -1 24 -11 11 -24 -1 2 0.23705417D+00 0.35674553D-01 0.25229837D+06 0.25229837D+06 0.25229837D+06 0.10901602D+01  1  2 12  3  7  1        1 0.571206699499D-05 0.100000000000D+01
-.139958234748D-05 0.000000000000D+00 -.346817311742D-06 0.874119092785D-06 0.000000000000D+00  7 21 -1 24 -11 11 -24 -1 2 0.24277796D+00 0.35674553D-01 0.15647800D+06 0.15647800D+06 0.15647800D+06 0.11061058D+01  1  2  5  3  7  1        1 -.682856489061D-05 0.100000000000D+01
  </mgrwgt>
  </event>
  <event>
  8     66 0.27727860E-05 0.77878186E+02 0.75467711E-02 0.10494310E+00
        1 -1    0    0  501    0 0.00000000E+00 0.00000000E+00 0.26261373E+04 0.26261373E+04 0.32000000E+00 0.0000E+00 0.9000E+01
       -1 -1    0    0    0  501 0.00000000E+00 0.00000000E+00 -.28090161E+02 0.28091984E+02 0.32000000E+00 0.0000E+00 0.9000E+01
       25  2    1    2    0    0 -.49206537E+02 -.53845598E+00 0.24703031E+04 0.24888795E+04 0.29950269E+03 0.0000E+00 0.0000E+00
       23  2    1    2    0    0 0.49206537E+02 0.53845598E+00 0.12774401E+03 0.16534984E+03 0.92738690E+02 0.0000E+00 0.0000E+00
       24  1    3    3    0    0 -.60772668E+01 -.11954108E+03 0.90593248E+03 0.91733738E+03 0.80419002E+02 0.0000E+00 0.9000E+01
      -13  1    4    4    0    0 0.10249061E+02 -.44210504E+01 -.14206360E+02 0.18067119E+02 0.10565837E+00 0.0000E+00 0.9000E+01
       13  1    4    4    0    0 0.38957475E+02 0.49595064E+01 0.14195037E+03 0.14728272E+03 0.10565837E+00 0.0000E+00 0.9000E+01
      -24  1    3    3    0    0 -.43129270E+02 0.11900263E+03 0.15643707E+04 0.15715421E+04 0.80419002E+02 0.0000E+00 0.9000E+01
#aMCatNLO 1  0  0  2  1 0.78263860D+02 0.00000000D+00  -5  7  0 0.00000000D+00 0.00000000D+00 0.00000000D+00 0.00000000D+00 0.00000000D+00
  <mgrwgt>
 0.4812971197D-03    9    2    0
 0.271608293666104D+03 0.000000000000000D+00 0.000000000000000D+00 0.271608293666104D+03
 0.271608293666104D+03 0.000000000000000D+00 0.000000000000000D+00 -.271608293666104D+03
 0.149421949117897D+03 -.607726770781403D+01 -.119541082727488D+03 0.391497034646293D+02
 0.156223414880277D+03 0.102490326971219D+02 -.442106144831032D+01 -.155824153780146D+03
 0.407356506562915D+02 0.389575063583571D+02 0.495951745155161D+01 -.108216966958857D+02
 0.196835572677742D+03 -.431292713476649D+02 0.119002626724247D+03 0.127496147011403D+03
 0.000000000000000D+00 -.000000000000000D+00 0.000000000000000D+00 -.000000000000000D+00
 0.285401099415831D+03 0.000000000000000D+00 0.000000000000000D+00 0.285401099415831D+03
 0.413770556071054D+03 0.000000000000000D+00 0.000000000000000D+00 -.413770556071054D+03
 0.166482702313242D+03 0.275151358059992D+01 -.140388760614219D+03 0.391497034646293D+02
 0.158998861594343D+03 0.190587432335842D+02 -.252237069709182D+02 -.155824153780146D+03
 0.426870743502491D+02 0.412889724834350D+02 -.545846560946363D+00 -.108216966958857D+02
 0.180656919217557D+03 -.325792568611310D+02 0.940905469557468D+02 0.127496147011403D+03
 0.150346098011494D+03 -.305199724364881D+02 0.720677671903368D+02 -.128369456655223D+03
0.249680717519D-04 0.000000000000D+00 0.000000000000D+00 0.580345794443D-06 0.000000000000D+00  7 1 -1 24 -13 13 -24 21 0 0.40402127D+00 0.43217050D-02 0.29687135D+05 0.29687135D+05 0.29687135D+05 0.11677586D+01  1  2  2  2  7  2       -1 0.772551224789D-03 0.100000000000D+01
-.103776726771D-05 0.000000000000D+00 -.958839697716D-07 0.580345794443D-06 0.000000000000D+00  7 1 -1 24 -13 13 -24 21 2 0.40402127D+00 0.43217050D-02 0.29687135D+05 0.29687135D+05 0.29687135D+05 0.11677586D+01  1  2  3  2  7  2       -1 -.437873222623D-04 0.100000000000D+01
0.152137825266D-05 0.000000000000D+00 0.000000000000D+00 0.580345794443D-06 0.000000000000D+00  7 1 -1 24 -13 13 -24 21 2 0.40402127D+00 0.43217050D-02 0.29687135D+05 0.29687135D+05 0.29687135D+05 0.11677586D+01  1  2 15  2  7  2       -1 0.641926970570D-04 0.100000000000D+01
0.327395632850D-04 0.000000000000D+00 0.000000000000D+00 0.580345794443D-06 0.000000000000D+00  7 1 -1 24 -13 13 -24 21 2 0.40402127D+00 0.66470008D-02 0.48614904D+05 0.48614904D+05 0.48614904D+05 0.11483701D+01  1  2 12  2  7  2       -1 0.697642990329D-03 0.100000000000D+01
-.442344963760D-04 0.000000000000D+00 0.000000000000D+00 0.580345794443D-06 0.000000000000D+00  7 1 -1 24 -13 13 -24 21 2 0.40402127D+00 0.43217050D-02 0.29687135D+05 0.29687135D+05 0.29687135D+05 0.11677586D+01  1  2  4  2  7  2       -1 -.186642054360D-02 0.100000000000D+01
-.435796647982D-04 0.000000000000D+00 -.945952767992D-05 0.580345794443D-06 0.000000000000D+00  7 1 -1 24 -13 13 -24 21 2 0.40402127D+00 0.69950401D-02 0.29687135D+05 0.29687135D+05 0.29687135D+05 0.11677586D+01  1  2  5  2  7  2       -1 -.905626827679D-03 0.100000000000D+01
0.439408866285D-04 0.000000000000D+00 0.845957381016D-05 0.580345794443D-06 0.000000000000D+00  7 1 -1 24 -13 13 -24 21 2 0.40402127D+00 0.43217050D-02 0.29687135D+05 0.29687135D+05 0.29687135D+05 0.11677586D+01  1  2  6  2  7  2       -1 0.185403203893D-02 0.100000000000D+01
0.164556486748D-05 0.000000000000D+00 0.000000000000D+00 0.580345794443D-06 0.000000000000D+00  7 1 21 24 -13 13 -24 1 2 0.40402127D+00 0.66470008D-02 0.48614904D+05 0.48614904D+05 0.48614904D+05 0.11483701D+01  1  2 12  4  7  2       -1 0.533104941610D-03 0.100000000000D+01
-.197702273064D-05 0.000000000000D+00 -.517831769612D-06 0.580345794443D-06 0.000000000000D+00  7 1 21 24 -13 13 -24 1 2 0.40402127D+00 0.69950401D-02 0.29687135D+05 0.29687135D+05 0.29687135D+05 0.11677586D+01  1  2  5  4  7  2       -1 -.624392079435D-03 0.100000000000D+01
  </mgrwgt>
  </event>
  <event>
  8     66 0.27727860E-05 0.26995250E+03 0.75467711E-02 0.99281003E-01
        1 -1    0    0  501    0 0.00000000E+00 0.00000000E+00 0.27405310E+04 0.27405310E+04 0.32000000E+00 0.0000E+00 0.9000E+01
       -1 -1    0    0    0  501 0.00000000E+00 0.00000000E+00 -.29385865E+02 0.29387607E+02 0.32000000E+00 0.0000E+00 0.9000E+01
       25  2    1    2    0    0 0.77475324E+02 -.17134804E+03 0.15143313E+04 0.15550547E+04 0.29938846E+03 0.0000E+00 0.0000E+00
       23  2    1    2    0    0 -.77475324E+02 0.17134804E+03 0.11968138E+04 0.12148639E+04 0.90378488E+02 0.0000E+00 0.0000E+00
       24  1    3    3    0    0 -.47295509E+02 -.17761967E+03 0.74711777E+03 0.77358761E+03 0.80419002E+02 0.0000E+00 0.9000E+01
      -11  1    4    4    0    0 -.22300136E+02 0.21337713E+02 0.45401633E+03 0.45506420E+03 0.51099893E-03 0.0000E+00 0.9000E+01
       11  1    4    4    0    0 -.55175189E+02 0.15001033E+03 0.74279751E+03 0.75979968E+03 0.51099893E-03 0.0000E+00 0.9000E+01
      -24  1    3    3    0    0 0.12477083E+03 0.62716238E+01 0.76721352E+03 0.78146714E+03 0.80419002E+02 0.0000E+00 0.9000E+01
#aMCatNLO 1  0  0  2  1 0.12088007D+03 0.00000000D+00  -5  7  0 0.00000000D+00 0.00000000D+00 0.00000000D+00 0.00000000D+00 0.00000000D+00
  <mgrwgt>
 0.1475828280D-02    4    2    0
 0.283787441306260D+03 0.000000000000000D+00 0.000000000000000D+00 0.283787441306260D+03
 0.283787441306260D+03 0.000000000000000D+00 0.000000000000000D+00 -.283787441306260D+03
 0.206545470700510D+03 -.472955085562024D+02 -.177619668585195D+03 -.490734522386646D+02
 0.521281464395353D+02 -.223001358988781D+02 0.213377131621477D+02 0.420089227084332D+02
 0.159893277047607D+03 -.551751885071716D+02 0.150010331632767D+03 -.429639635605157D+01
 0.149007988424867D+03 0.124770832962252D+03 0.627162379028043D+01 0.113609258862829D+02
 0.000000000000000D+00 0.000000000000000D+00 0.000000000000000D+00 0.000000000000000D+00
 0.522581311501899D+03 0.000000000000000D+00 0.000000000000000D+00 0.522581311501899D+03
 0.305868831035641D+03 0.000000000000000D+00 0.000000000000000D+00 -.305868831035641D+03
 0.234961366466826D+03 -.902497139780171D+02 -.195413441681613D+03 -.490734522386646D+02
 0.559458872676065D+02 -.328146599194002D+02 0.169820731776401D+02 0.420089227084332D+02
 0.162108602901602D+03 -.865027552245736D+02 0.137032891860380D+03 -.429639635605157D+01
 0.127288580217676D+03 0.978899365236853D+02 -.486378349194236D+01 0.113609258862829D+02
 0.248145705683829D+03 0.111677192598306D+03 0.462622601355357D+02 0.216712480466258D+03
0.647594051854D-04 0.000000000000D+00 0.000000000000D+00 0.467035538099D-06 0.000000000000D+00  7 1 -1 24 -11 11 -24 21 0 0.42162029D+00 0.45210377D-02 0.72874352D+05 0.72874352D+05 0.72874352D+05 0.11331769D+01  1  2  2  2  7  2       -1 0.152231938048D-02 0.100000000000D+01
-.358681786591D-05 0.000000000000D+00 -.248693167455D-06 0.467035538099D-06 0.000000000000D+00  7 1 -1 24 -11 11 -24 21 2 0.42162029D+00 0.45210377D-02 0.72874352D+05 0.72874352D+05 0.72874352D+05 0.11331769D+01  1  2  3  2  7  2       -1 -.108269888423D-03 0.100000000000D+01
0.419929116063D-05 0.000000000000D+00 0.000000000000D+00 0.467035538099D-06 0.000000000000D+00  7 1 -1 24 -11 11 -24 21 2 0.42162029D+00 0.45210377D-02 0.72874352D+05 0.72874352D+05 0.72874352D+05 0.11331769D+01  1  2 15  2  7  2       -1 0.126757700673D-03 0.100000000000D+01
-.215265322832D-05 0.000000000000D+00 0.000000000000D+00 0.467035538099D-06 0.000000000000D+00  7 1 -1 24 -11 11 -24 21 2 0.42162029D+00 0.45210377D-02 0.72874352D+05 0.72874352D+05 0.72874352D+05 0.11331769D+01  1  2  4  2  7  2       -1 -.649789126619D-04 0.100000000000D+01
  </mgrwgt>
  </event>
  <event>
  8     66 0.27727860E-05 0.31864192E+03 0.75467711E-02 0.85078861E-01
        1 -1    0    0  501    0 0.00000000E+00 0.00000000E+00 0.11171266E+04 0.11171267E+04 0.32000000E+00 0.0000E+00 0.9000E+01
       -1 -1    0    0    0  501 0.00000000E+00 0.00000000E+00 -.81049884E+03 0.81049890E+03 0.32000000E+00 0.0000E+00 0.9000E+01
       25  2    1    2    0    0 -.35308956E+03 0.85568961E+03 0.14560668E+03 0.98346000E+03 0.29852188E+03 0.0000E+00 0.0000E+00
       23  2    1    2    0    0 0.35308956E+03 -.85568961E+03 0.16102110E+03 0.94416556E+03 0.92972321E+02 0.0000E+00 0.0000E+00
       24  1    3    3    0    0 -.24774017E+03 0.30517881E+03 0.11037956E+03 0.41612518E+03 0.80419002E+02 0.0000E+00 0.9000E+01
      -13  1    4    4    0    0 0.33316979E+03 -.80879245E+03 0.17335979E+03 0.89174041E+03 0.10565837E+00 0.0000E+00 0.9000E+01
       13  1    4    4    0    0 0.19919773E+02 -.46897167E+02 -.12338693E+02 0.52425148E+02 0.10565837E+00 0.0000E+00 0.9000E+01
      -24  1    3    3    0    0 -.10534940E+03 0.55051080E+03 0.35227115E+02 0.56733482E+03 0.80419002E+02 0.0000E+00 0.9000E+01
#aMCatNLO 1  0  0  2  1 0.57624368D+03 0.00000000D+00  -5  7  0 0.00000000D+00 0.00000000D+00 0.00000000D+00 0.00000000D+00 0.00000000D+00
  <mgrwgt>
 0.1523562085D-02    7    2    0
 0.951540814373426D+03 0.000000000000000D+00 0.000000000000000D+00 0.951540814373426D+03
 0.951540814373426D+03 0.000000000000000D+00 0.000000000000000D+00 -.951540814373426D+03
 0.403707372717242D+03 -.247740167134880D+03 0.305178813908116D+03 0.447563175596976D+02
 0.875310162166001D+03 0.333170193606778D+03 -.808793429645888D+03 0.319169272445494D+02
 0.550882435042650D+02 0.199193689058035D+02 -.468961825047699D+02 -.209447220382370D+02
 0.568975850359346D+03 -.105349395377702D+03 0.550510798242542D+03 -.557285227660099D+02
 0.000000000000000D+00 -.000000000000000D+00 -.000000000000000D+00 -.000000000000000D+00
 0.105161967847493D+04 0.000000000000000D+00 0.000000000000000D+00 0.105161967847493D+04
 0.244008263459314D+04 0.000000000000000D+00 0.000000000000000D+00 -.244008263459314D+04
 0.384457771107488D+03 -.138622397514250D+03 0.346585147916733D+03 0.447563175596976D+02
 0.921991281993240D+03 0.581998153659533D+03 -.714372020003372D+03 0.319169272445494D+02
 0.581595273468582D+02 0.355979919286592D+02 -.409466996301051D+02 -.209447220382370D+02
 0.623801957340355D+03 0.597851009254225D+02 0.613173498681199D+03 -.557285227660099D+02
 0.150329177528013D+04 -.538758848999365D+03 -.204439926964455D+03 -.138846295611821D+04
0.186066027661D-02 0.000000000000D+00 0.000000000000D+00 0.120839448538D-05 0.000000000000D+00  7 1 -1 24 -13 13 -24 21 0 0.17186564D+00 0.12469214D+00 0.89599309D+06 0.89599309D+06 0.89599309D+06 0.10510537D+01  1  2  2  2  7  2       -1 0.155190148529D-02 0.100000000000D+01
-.103366566276D-03 0.000000000000D+00 -.714542538529D-05 0.120839448538D-05 0.000000000000D+00  7 1 -1 24 -13 13 -24 21 2 0.17186564D+00 0.12469214D+00 0.89599309D+06 0.89599309D+06 0.89599309D+06 0.10510537D+01  1  2  3  2  7  2       -1 -.952416629244D-04 0.100000000000D+01
0.114453046646D-03 0.000000000000D+00 0.000000000000D+00 0.120839448538D-05 0.000000000000D+00  7 1 -1 24 -13 13 -24 21 2 0.17186564D+00 0.12469214D+00 0.89599309D+06 0.89599309D+06 0.89599309D+06 0.10510537D+01  1  2 15  2  7  2       -1 0.105456714700D-03 0.100000000000D+01
0.110848757430D-02 0.000000000000D+00 0.000000000000D+00 0.120839448538D-05 0.000000000000D+00  7 1 -1 24 -13 13 -24 21 2 0.17186564D+00 0.31539291D+00 0.16321225D+07 0.16321225D+07 0.16321225D+07 0.10339886D+01  1  2 12  2  7  2       -1 0.223338769395D-04 0.100000000000D+01
-.250624449223D-02 0.000000000000D+00 -.514529578238D-03 0.120839448538D-05 0.000000000000D+00  7 1 -1 24 -13 13 -24 21 2 0.17186564D+00 0.32870575D+00 0.89599309D+06 0.89599309D+06 0.89599309D+06 0.10510537D+01  1  2  5  2  7  2       -1 -.413442513732D-04 0.100000000000D+01
0.113443161169D-03 0.000000000000D+00 0.000000000000D+00 0.120839448538D-05 0.000000000000D+00  7 1 21 24 -13 13 -24 1 2 0.17186564D+00 0.31539291D+00 0.16321225D+07 0.16321225D+07 0.16321225D+07 0.10339886D+01  1  2 12  4  7  2       -1 0.215237385161D-04 0.100000000000D+01
-.239174200592D-03 0.000000000000D+00 -.553931725186D-04 0.120839448538D-05 0.000000000000D+00  7 1 21 24 -13 13 -24 1 2 0.17186564D+00 0.32870575D+00 0.89599309D+06 0.89599309D+06 0.89599309D+06 0.10510537D+01  1  2  5  4  7  2       -1 -.410678164064D-04 0.100000000000D+01
  </mgrwgt>
  </event>
  <event>
  8     66 0.27727860E-05 0.76482000E+03 0.75467711E-02 0.81847473E-01
        1 -1    0    0  501    0 0.00000000E+00 0.00000000E+00 0.21025273E+04 0.21025274E+04 0.32000000E+00 0.0000E+00 0.9000E+01
       -1 -1    0    0    0  501 0.00000000E+00 0.00000000E+00 -.95109767E+03 0.95109772E+03 0.32000000E+00 0.0000E+00 0.9000E+01
       25  2    1    2    0    0 0.11046642E+04 0.84873113E+03 0.47178748E+03 0.15009027E+04 0.29916212E+03 0.0000E+00 0.0000E+00
       23  2    1    2    0    0 -.11046642E+04 -.84873113E+03 0.67964220E+03 0.15527224E+04 0.91682706E+02 0.0000E+00 0.0000E+00
       24  1    3    3    0    0 0.89069115E+03 0.61938294E+03 0.44710917E+03 0.11761547E+04 0.80419002E+02 0.0000E+00 0.9000E+01
      -11  1    4    4    0    0 -.73894183E+02 -.77977184E+02 0.72756525E+02 0.12974707E+03 0.51099893E-03 0.0000E+00 0.9000E+01
       11  1    4    4    0    0 -.10307700E+04 -.77075395E+03 0.60688567E+03 0.14229753E+04 0.51099893E-03 0.0000E+00 0.9000E+01
      -24  1    3    3    0    0 0.21397306E+03 0.22934819E+03 0.24678308E+02 0.32474805E+03 0.80419002E+02 0.0000E+00 0.9000E+01
#aMCatNLO 1  0  0  2  1 0.77807582D+03 0.00000000D+00  -5  7  0 0.00000000D+00 0.00000000D+00 0.00000000D+00 0.00000000D+00 0.00000000D+00
  <mgrwgt>
 0.6846854966D-03    9    2    0
 0.141411066636491D+04 0.000000000000000D+00 0.000000000000000D+00 0.141411066636491D+04
 0.141411066636491D+04 0.000000000000000D+00 0.000000000000000D+00 -.141411066636491D+04
 0.108786415562443D+04 0.890691153111062D+03 0.619382939175162D+03 0.390506933569463D+01
 0.110466920201811D+03 -.738941827303053D+02 -.779771835643072D+02 0.257322572051476D+02
 0.128930748230693D+04 -.103077002709825D+04 -.770753950267339D+03 0.759294627651170D+02
 0.340582774596652D+03 0.213973056717488D+03 0.229348194656485D+03 -.105566789305959D+03
 0.000000000000000D+00 -.000000000000000D+00 -.000000000000000D+00 -.000000000000000D+00
 0.169443419790850D+04 0.000000000000000D+00 0.000000000000000D+00 0.169443419790850D+04
 0.213109318973904D+04 0.000000000000000D+00 0.000000000000000D+00 -.213109318973904D+04
 0.138142032808565D+04 0.102203462508802D+04 0.925896799027062D+03 0.390506933569463D+01
 0.868457349431266D+02 -.633989443879046D+02 -.534846376769931D+02 0.257322572051476D+02
 0.103061394705423D+04 -.907371310888670D+03 -.482780621735253D+03 0.759294627651170D+02
 0.434418114754618D+03 0.255196054012514D+03 0.325549549968449D+03 -.105566789305959D+03
 0.892229262809918D+03 -.306460423823964D+03 -.715181089583265D+03 -.436658991830537D+03
0.529342801618D-02 0.000000000000D+00 0.000000000000D+00 0.164964154170D-04 0.000000000000D+00  7 1 -1 24 -11 11 -24 21 0 0.32346575D+00 0.14632272D+00 0.19686391D+07 0.19686391D+07 0.19686391D+07 0.10288261D+01  1  2  2  2  7  2       -1 0.562926126877D-03 0.100000000000D+01
-.294057415047D-03 0.000000000000D+00 -.203281573737D-04 0.164964154170D-04 0.000000000000D+00  7 1 -1 24 -11 11 -24 21 2 0.32346575D+00 0.14632272D+00 0.19686391D+07 0.19686391D+07 0.19686391D+07 0.10288261D+01  1  2  3  2  7  2       -1 -.331001889090D-04 0.100000000000D+01
0.341255360711D-03 0.000000000000D+00 0.000000000000D+00 0.164964154170D-04 0.000000000000D+00  7 1 -1 24 -11 11 -24 21 2 0.32346575D+00 0.14632272D+00 0.19686391D+07 0.19686391D+07 0.19686391D+07 0.10288261D+01  1  2 15  2  7  2       -1 0.384129640258D-04 0.100000000000D+01
0.140551097858D-02 0.000000000000D+00 0.000000000000D+00 0.164964154170D-04 0.000000000000D+00  7 1 -1 24 -11 11 -24 21 2 0.32346575D+00 0.22909436D+00 0.34070624D+07 0.34070624D+07 0.34070624D+07 0.10141625D+01  1  2 12  2  7  2       -1 0.298187459952D-04 0.100000000000D+01
-.271530369936D-02 0.000000000000D+00 0.000000000000D+00 0.164964154170D-04 0.000000000000D+00  7 1 -1 24 -11 11 -24 21 2 0.32346575D+00 0.14632272D+00 0.19686391D+07 0.19686391D+07 0.19686391D+07 0.10288261D+01  1  2  4  2  7  2       -1 -.305644614945D-03 0.100000000000D+01
-.357632913641D-02 0.000000000000D+00 -.166324742850D-02 0.164964154170D-04 0.000000000000D+00  7 1 -1 24 -11 11 -24 21 2 0.32346575D+00 0.24413335D+00 0.19686391D+07 0.19686391D+07 0.19686391D+07 0.10288261D+01  1  2  5  2  7  2       -1 -.616701130147D-04 0.100000000000D+01
0.407808062447D-02 0.000000000000D+00 0.146682881555D-02 0.164964154170D-04 0.000000000000D+00  7 1 -1 24 -11 11 -24 21 2 0.32346575D+00 0.14632272D+00 0.19686391D+07 0.19686391D+07 0.19686391D+07 0.10288261D+01  1  2  6  2  7  2       -1 0.459043819841D-03 0.100000000000D+01
0.728308055723D-04 0.000000000000D+00 0.000000000000D+00 0.164964154170D-04 0.000000000000D+00  7 1 21 24 -11 11 -24 1 2 0.32346575D+00 0.22909436D+00 0.34070624D+07 0.34070624D+07 0.34070624D+07 0.10141625D+01  1  2 12  4  7  2       -1 0.988817603024D-05 0.100000000000D+01
-.128449311244D-03 0.000000000000D+00 -.955528678988D-04 0.164964154170D-04 0.000000000000D+00  7 1 21 24 -11 11 -24 1 2 0.32346575D+00 0.24413335D+00 0.19686391D+07 0.19686391D+07 0.19686391D+07 0.10288261D+01  1  2  5  4  7  2       -1 -.149894192730D-04 0.100000000000D+01
  </mgrwgt>
  </event>
  <event>
  8     66 0.27727860E-05 0.25371140E+03 0.75467711E-02 0.93535310E-01
        1 -1    0    0  501    0 0.00000000E+00 0.00000000E+00 0.11091610E+04 0.11091610E+04 0.32000000E+00 0.0000E+00 0.9000E+01
       -1 -1    0    0    0  501 0.00000000E+00 0.00000000E+00 -.87329912E+02 0.87330499E+02 0.32000000E+00 0.0000E+00 0.9000E+01
       25  2    1    2    0    0 -.96303770E+02 0.14092355E+03 0.32977828E+03 0.47767224E+03 0.30047161E+03 0.0000E+00 0.0000E+00
       23  2    1    2    0    0 0.96303770E+02 -.14092355E+03 0.69205279E+03 0.71881929E+03 0.92899096E+02 0.0000E+00 0.0000E+00
       24  1    3    3    0    0 0.40442950E+02 0.13046111E+03 0.25898372E+03 0.30363715E+03 0.80419002E+02 0.0000E+00 0.9000E+01
      -13  1    4    4    0    0 -.13301800E+02 -.27761840E+01 0.21245270E+02 0.25219393E+02 0.10565837E+00 0.0000E+00 0.9000E+01
       13  1    4    4    0    0 0.10960557E+03 -.13814737E+03 0.67080752E+03 0.69359990E+03 0.10565837E+00 0.0000E+00 0.9000E+01
      -24  1    3    3    0    0 -.13674672E+03 0.10462445E+02 0.70794558E+02 0.17403509E+03 0.80419002E+02 0.0000E+00 0.9000E+01
#aMCatNLO 1  0  0  2  1 0.42488411D+03 0.00000000D+00  -5  7  0 0.00000000D+00 0.00000000D+00 0.00000000D+00 0.00000000D+00 0.00000000D+00
  <mgrwgt>
 0.1442947188D-02    3    2    0
 0.311228709932376D+03 0.000000000000000D+00 0.000000000000000D+00 0.311228709932376D+03
 0.311228709932376D+03 0.000000000000000D+00 0.000000000000000D+00 -.311228709932376D+03
 0.158503466353907D+03 0.404429490550523D+02 0.130461105399897D+03 -.633041389775670D+00
 0.136001848723891D+02 -.133019585855148D+02 -.277600911505191D+01 -.562760824469287D+00
 0.232039341319938D+03 0.109605729009752D+03 -.138147542595251D+03 0.150811460318255D+03
 0.218314427318518D+03 -.136746719479290D+03 0.104624463104064D+02 -.149615658104010D+03
 0.000000000000000D+00 0.000000000000000D+00 0.000000000000000D+00 0.000000000000000D+00
 0.103134618581944D+04 0.000000000000000D+00 0.000000000000000D+00 0.103134618581944D+04
 0.445775511445855D+03 0.000000000000000D+00 0.000000000000000D+00 -.445775511445855D+03
 0.101116960965989D+03 -.742210984389473D-01 0.612945151743142D+02 -.633041389775670D+00
 0.226909254627490D+02 -.189656619685160D+02 -.124444792862722D+02 -.562760824469287D+00
 0.324492961884605D+03 0.227515694290481D+02 -.286415697610719D+03 0.150811460318255D+03
 0.305343464647547D+03 -.218470396348770D+03 -.129047495976917D+03 -.149615658104010D+03
 0.723477384304404D+03 0.214758709986676D+03 0.366613157699594D+03 0.585570674373584D+03
0.254841181257D-04 0.000000000000D+00 0.000000000000D+00 0.738453702886D-06 0.000000000000D+00  7 1 -1 24 -13 13 -24 21 0 0.17064020D+00 0.13435420D-01 0.64369474D+05 0.64369474D+05 0.64369474D+05 0.11377686D+01  1  2  2  2  7  2       -1 0.142540156816D-02 0.100000000000D+01
-.134391467578D-05 0.000000000000D+00 -.978657237251D-07 0.738453702886D-06 0.000000000000D+00  7 1 -1 24 -13 13 -24 21 2 0.17064020D+00 0.13435420D-01 0.64369474D+05 0.64369474D+05 0.64369474D+05 0.11377686D+01  1  2  3  2  7  2       -1 -.973076973871D-04 0.100000000000D+01
0.158623688672D-05 0.000000000000D+00 0.000000000000D+00 0.738453702886D-06 0.000000000000D+00  7 1 -1 24 -13 13 -24 21 2 0.17064020D+00 0.13435420D-01 0.64369474D+05 0.64369474D+05 0.64369474D+05 0.11377686D+01  1  2 15  2  7  2       -1 0.114853317505D-03 0.100000000000D+01
  </mgrwgt>
  </event>
  <event>
  8     66 0.27727860E-05 0.55198267E+03 0.75467711E-02 0.85110459E-01
        1 -1    0    0  501    0 0.00000000E+00 0.00000000E+00 0.10070068E+04 0.10070068E+04 0.32000000E+00 0.0000E+00 0.9000E+01
       -1 -1    0    0    0  501 0.00000000E+00 0.00000000E+00 -.32960603E+03 0.32960618E+03 0.32000000E+00 0.0000E+00 0.9000E+01
       25  2    1    2    0    0 -.49717669E+03 -.18417807E+03 0.28662012E+03 0.67174197E+03 0.29661415E+03 0.0000E+00 0.0000E+00
       23  2    1    2    0    0 0.49717669E+03 0.18417807E+03 0.39078061E+03 0.66487102E+03 0.90762148E+02 0.0000E+00 0.0000E+00
       24  1    3    3    0    0 -.14047988E+03 -.13076053E+02 -.21602698E+02 0.16382757E+03 0.80419002E+02 0.0000E+00 0.9000E+01
      -11  1    4    4    0    0 0.41504655E+03 0.11553437E+03 0.31628305E+03 0.53445935E+03 0.51099893E-03 0.0000E+00 0.9000E+01
       11  1    4    4    0    0 0.82130144E+02 0.68643703E+02 0.74497560E+02 0.13041167E+03 0.51099893E-03 0.0000E+00 0.9000E+01
      -24  1    3    3    0    0 -.35669681E+03 -.17110202E+03 0.30822282E+03 0.50791440E+03 0.80419002E+02 0.0000E+00 0.9000E+01
#aMCatNLO 1  0  0  2  1 0.10289153D+04 0.00000000D+00  -5  7  0 0.00000000D+00 0.00000000D+00 0.00000000D+00 0.00000000D+00 0.00000000D+00
  <mgrwgt>
 0.1192267147D-02    5    2    0
 0.576121197651269D+03 0.000000000000000D+00 0.000000000000000D+00 0.576121197651269D+03
 0.576121197651269D+03 0.000000000000000D+00 0.000000000000000D+00 -.576121197651269D+03
 0.202741838815588D+03 -.140479881574317D+03 -.130760525196131D+02 -.121373213582428D+03
 0.434036223347161D+03 0.415046547183599D+03 0.115534367289208D+03 0.526841230687396D+02
 0.107481930543207D+03 0.821301437786553D+02 0.686437029595805D+02 0.974920100260044D+01
 0.407982402596582D+03 -.356696809387937D+03 -.171102017729176D+03 0.589398895110884D+02
 0.000000000000000D+00 0.000000000000000D+00 -.000000000000000D+00 -.000000000000000D+00
 0.929336744792406D+03 0.000000000000000D+00 0.000000000000000D+00 0.929336744792406D+03
 0.245870643828960D+04 0.000000000000000D+00 0.000000000000000D+00 -.245870643828960D+04
 0.377538538880181D+03 -.336620220647905D+03 0.895740054984775D+02 -.121373213582428D+03
 0.301364826618896D+03 0.166473931531517D+03 0.245624860345925D+03 0.526841230687396D+02
 0.107541316974419D+03 0.945022162743132D+01 0.106680744502444D+03 0.974920100260044D+01
 0.758330121584827D+03 -.750921640610215D+03 0.352155709334818D+02 0.589398895110884D+02
 0.184326837902369D+04 0.911617708099172D+03 -.477095181280329D+03 -.152936969349720D+04
0.168183788165D-03 0.000000000000D+00 0.000000000000D+00 0.865086864132D-07 0.000000000000D+00  7 1 -1 24 -11 11 -24 21 0 0.15492413D+00 0.50708635D-01 0.30468486D+06 0.30468486D+06 0.30468486D+06 0.10840543D+01  1  2  2  2  7  2       -1 0.118491593431D-02 0.100000000000D+01
-.932273200854D-05 0.000000000000D+00 -.645870030362D-06 0.865086864132D-07 0.000000000000D+00  7 1 -1 24 -11 11 -24 21 2 0.15492413D+00 0.50708635D-01 0.30468486D+06 0.30468486D+06 0.30468486D+06 0.10840543D+01  1  2  3  2  7  2       -1 -.771878077429D-04 0.100000000000D+01
0.101070954842D-04 0.000000000000D+00 0.000000000000D+00 0.865086864132D-07 0.000000000000D+00  7 1 -1 24 -11 11 -24 21 2 0.15492413D+00 0.50708635D-01 0.30468486D+06 0.30468486D+06 0.30468486D+06 0.10840543D+01  1  2 15  2  7  2       -1 0.836819660115D-04 0.100000000000D+01
0.155067175400D-04 0.000000000000D+00 -.725105461184D-04 0.865086864132D-07 0.000000000000D+00  7 1 -1 24 -11 11 -24 21 2 0.15492413D+00 0.28115295D+00 0.30468486D+06 0.30468486D+06 0.30468486D+06 0.10840543D+01  1  2  5  2  7  2       -1 0.992536106949D-06 0.100000000000D+01
-.258782833371D-06 0.000000000000D+00 -.152032215763D-04 0.865086864132D-07 0.000000000000D+00  7 1 21 24 -11 11 -24 1 2 0.15492413D+00 0.28115295D+00 0.30468486D+06 0.30468486D+06 0.30468486D+06 0.10840543D+01  1  2  5  4  7  2       -1 -.135481492471D-06 0.100000000000D+01
  </mgrwgt>
  </event>
  <event>
  8     66 0.27727860E-05 0.20046435E+03 0.75467711E-02 0.92300984E-01
        1 -1    0    0  501    0 0.00000000E+00 0.00000000E+00 0.47181512E+03 0.47181523E+03 0.32000000E+00 0.0000E+00 0.9000E+01
       -1 -1    0    0    0  501 0.00000000E+00 0.00000000E+00 -.92372898E+02 0.92373452E+02 0.32000000E+00 0.0000E+00 0.9000E+01
       25  2    1    2    0    0 0.26838817E+01 0.61955267E+02 0.25775474E+03 0.39969968E+03 0.29912651E+03 0.0000E+00 0.0000E+00
       23  2    1    2    0    0 -.26838817E+01 -.61955267E+02 0.12168747E+03 0.16448900E+03 0.91668591E+02 0.0000E+00 0.0000E+00
       24  1    3    3    0    0 0.11978773E+03 0.71806633E+02 0.15911610E+03 0.22647393E+03 0.80419002E+02 0.0000E+00 0.9000E+01
      -13  1    4    4    0    0 0.36114697E+02 -.33439971E+02 0.22265590E+02 0.54021021E+02 0.10565837E+00 0.0000E+00 0.9000E+01
       13  1    4    4    0    0 -.38798578E+02 -.28515296E+02 0.99421884E+02 0.11046798E+03 0.10565837E+00 0.0000E+00 0.9000E+01
      -24  1    3    3    0    0 -.11710385E+03 -.98513661E+01 0.98638645E+02 0.17322575E+03 0.80419002E+02 0.0000E+00 0.9000E+01
#aMCatNLO 1  0  0  2  2 0.55950910D+03 0.00000000D+00  -5  7  0 0.00000000D+00 0.00000000D+00 0.00000000D+00 0.00000000D+00 0.00000000D+00
  <mgrwgt>
 0.2215755918D-02    5    2    0
 0.208765697937177D+03 0.000000000000000D+00 0.000000000000000D+00 0.208765697937177D+03
 0.208765697937177D+03 0.000000000000000D+00 0.000000000000000D+00 -.208765697937177D+03
 0.161421858423226D+03 0.119787738785907D+03 0.718067930125988D+02 0.919143820316094D+01
 0.527613496226852D+02 0.361146690317562D+02 -.334401076094661D+02 -.190065751202383D+02
 0.589175280566294D+02 -.387985638463686D+02 -.285154623194540D+02 0.339531289349120D+02
 0.144430659771813D+03 -.117103843971294D+03 -.985122308367871D+01 -.241379920178347D+02
 0.000000000000000D+00 -.000000000000000D+00 -.000000000000000D+00 -.000000000000000D+00
 0.438678896424423D+03 0.000000000000000D+00 0.000000000000000D+00 0.438678896424423D+03
 0.122238617372920D+04 0.000000000000000D+00 0.000000000000000D+00 -.122238617372920D+04
 0.445671610480518D+03 0.418801759075152D+03 0.129137804276066D+03 0.919143820316094D+01
 0.127310244671792D+03 0.124806005881606D+03 -.164350052166350D+02 -.190065751202383D+02
 0.402553080204860D+02 0.100474045881992D+02 -.191500527517412D+02 0.339531289349120D+02
 0.848909773191008D+02 -.415519906215680D+01 0.118048184197104D+02 -.241379920178347D+02
 0.962936929661729D+03 -.549499970482800D+03 -.105357564727400D+03 -.783707277304780D+03
0.111524651530D-04 0.000000000000D+00 0.000000000000D+00 0.133866160092D-06 0.000000000000D+00  7 1 -1 24 -13 13 -24 21 0 0.72586992D-01 0.14211266D-01 0.40185955D+05 0.40185955D+05 0.40185955D+05 0.11557371D+01  1  2  2  2  7  2       -1 0.211265883174D-02 0.100000000000D+01
-.618341112964D-06 0.000000000000D+00 -.428284026992D-07 0.133866160092D-06 0.000000000000D+00  7 1 -1 24 -13 13 -24 21 2 0.72586992D-01 0.14211266D-01 0.40185955D+05 0.40185955D+05 0.40185955D+05 0.11557371D+01  1  2  3  2  7  2       -1 -.156460505756D-03 0.100000000000D+01
0.704616343415D-06 0.000000000000D+00 0.000000000000D+00 0.133866160092D-06 0.000000000000D+00  7 1 -1 24 -13 13 -24 21 2 0.72586992D-01 0.14211266D-01 0.40185955D+05 0.40185955D+05 0.40185955D+05 0.11557371D+01  1  2 15  2  7  2       -1 0.178290958087D-03 0.100000000000D+01
0.130137469580D-04 0.000000000000D+00 -.855164832141D-05 0.133866160092D-06 0.000000000000D+00  7 1 -1 24 -13 13 -24 21 2 0.72586992D-01 0.15287633D+00 0.40185955D+05 0.40185955D+05 0.40185955D+05 0.11557371D+01  1  2  5  2  7  2       -1 0.384719095362D-04 0.100000000000D+01
0.217922705257D-05 0.000000000000D+00 -.239752156050D-05 0.133866160092D-06 0.000000000000D+00  7 1 21 24 -13 13 -24 1 2 0.72586992D-01 0.15287633D+00 0.40185955D+05 0.40185955D+05 0.40185955D+05 0.11557371D+01  1  2  5  4  7  2       -1 0.427947244108D-04 0.100000000000D+01
  </mgrwgt>
  </event>
  <event>
  9     66 -.27727860E-05 0.28002998E+03 0.75467711E-02 0.10078757E+00
        1 -1    0    0  502    0 0.00000000E+00 0.00000000E+00 0.37894190E+03 0.37894203E+03 0.32000000E+00 0.0000E+00 0.9000E+01
       -1 -1    0    0    0  501 0.00000000E+00 0.00000000E+00 -.25104955E+03 0.25104975E+03 0.32000000E+00 0.0000E+00 0.9000E+01
       25  2    1    2    0    0 0.16391246E+03 -.47945409E+02 0.96095910E+01 0.34487300E+03 0.29946450E+03 0.0000E+00 0.0000E+00
       23  2    1    2    0    0 -.19858054E+03 0.29380349E+02 0.10611203E+03 0.24394566E+03 0.89175613E+02 0.0000E+00 0.0000E+00
       24  1    3    3    0    0 0.21595975E+03 -.74834366E+02 -.13714951E+02 0.24268109E+03 0.80419002E+02 0.0000E+00 0.9000E+01
      -11  1    4    4    0    0 -.20187681E+02 -.25953194E+02 0.15696166E+02 0.36434604E+02 0.51099893E-03 0.0000E+00 0.9000E+01
       11  1    4    4    0    0 -.17839286E+03 0.55333543E+02 0.90415863E+02 0.20751106E+03 0.51099893E-03 0.0000E+00 0.9000E+01
      -24  1    3    3    0    0 -.52047289E+02 0.26888957E+02 0.23324542E+02 0.10219191E+03 0.80419002E+02 0.0000E+00 0.9000E+01
       21  1    1    2  502  501 0.34668077E+02 0.18565060E+02 0.12170728E+02 0.41173125E+02 0.75000000E+00 0.0000E+00 0.9000E+01
#aMCatNLO 2  0  0  1  2 0.39326035D+02 0.00000000D+00  -5  7  0 0.00000000D+00 0.00000000D+00 0.00000000D+00 0.00000000D+00 0.00000000D+00
  <mgrwgt>
 -.1723723067D-03    2    2    0
 0.287997130691624D+03 0.000000000000000D+00 0.000000000000000D+00 0.287997130691624D+03
 0.287997130691624D+03 0.000000000000000D+00 0.000000000000000D+00 -.287997130691624D+03
 0.261426000656731D+03 0.231340498511007D+03 -.665978391497750D+02 -.626309782317189D+02
 0.320407679956343D+02 -.182021581099530D+02 -.248899286979179D+02 0.870538358160631D+01
 0.185012344268867D+03 -.167014638641033D+03 0.614266781179327D+02 0.506205613052925D+02
 0.975151484620159D+02 -.461237017600213D+02 0.300610897297602D+02 0.330503334482007D+01
 0.000000000000000D+00 0.000000000000000D+00 0.000000000000000D+00 0.000000000000000D+00
 0.310520311939318D+03 0.000000000000000D+00 0.000000000000000D+00 0.310520311939318D+03
 0.306360330520490D+03 0.000000000000000D+00 0.000000000000000D+00 -.306360330520490D+03
 0.250257169365234D+03 0.215959748803609D+03 -.748343659473981D+02 -.626309782317189D+02
 0.340131511255002D+02 -.201876812944487D+02 -.259531938330715D+02 0.870538358160631D+01
 0.193515511434448D+03 -.178392855762383D+03 0.553335427368857D+02 0.506205613052925D+02
 0.995493620455557D+02 -.520472890302411D+02 0.268889566271873D+02 0.330503334482007D+01
 0.395454484890694D+02 0.346680772834634D+02 0.185650604163965D+02 0.415998141882820D+01
-.118602409865D-04 0.000000000000D+00 0.000000000000D+00 0.194012967099D-06 0.000000000000D+00  7 1 -1 24 -11 11 -24 21 2 0.59901458D-01 0.36307555D-01 0.90231581D+05 0.90231581D+05 0.90231581D+05 0.11254039D+01  1  2 13  1  7  1        1 -.808658720705D-03 0.100000000000D+01
0.100063569703D-04 0.000000000000D+00 0.000000000000D+00 0.194012967099D-06 0.852707606271D-09  7 1 -1 24 -11 11 -24 21 2 0.58298107D-01 0.38622588D-01 0.90231581D+05 0.90231581D+05 0.90231581D+05 0.11254039D+01  1  2  1  1  7  1        1 0.636286413988D-03 0.100000000000D+01
  </mgrwgt>
  </event>
  <event>
  8     66 0.27727860E-05 0.24780757E+03 0.75467711E-02 0.86474459E-01
        1 -1    0    0  501    0 0.00000000E+00 0.00000000E+00 0.23398483E+04 0.23398483E+04 0.32000000E+00 0.0000E+00 0.9000E+01
       -1 -1    0    0    0  501 0.00000000E+00 0.00000000E+00 -.18893299E+03 0.18893326E+03 0.32000000E+00 0.0000E+00 0.9000E+01
       25  2    1    2    0    0 0.67100470E+02 0.20386366E+03 0.34212544E+01 0.36865932E+03 0.29972508E+03 0.0000E+00 0.0000E+00
       23  2    1    2    0    0 -.67100470E+02 -.20386366E+03 0.21474941E+04 0.21601223E+04 0.91294266E+02 0.0000E+00 0.0000E+00
       24  1    3    3    0    0 0.20943933E+02 0.12549699E+03 0.12588260E+03 0.19621873E+03 0.80419002E+02 0.0000E+00 0.9000E+01
      -13  1    4    4    0    0 -.68933932E+02 -.11001610E+03 0.15346064E+04 0.15400884E+04 0.10565837E+00 0.0000E+00 0.9000E+01
       13  1    4    4    0    0 0.18334620E+01 -.93847562E+02 0.61288761E+03 0.62003384E+03 0.10565837E+00 0.0000E+00 0.9000E+01
      -24  1    3    3    0    0 0.46156537E+02 0.78366669E+02 -.12246134E+03 0.17244059E+03 0.80419002E+02 0.0000E+00 0.9000E+01
#aMCatNLO 1  0  0  1  1 0.10523667D+04 0.00000000D+00  -5  7  0 0.00000000D+00 0.00000000D+00 0.00000000D+00 0.00000000D+00 0.00000000D+00
  <mgrwgt>
 0.9221397708D-03    3    2    0
 0.664887142619809D+03 0.000000000000000D+00 0.000000000000000D+00 0.664887142619809D+03
 0.664887142619809D+03 0.000000000000000D+00 0.000000000000000D+00 -.664887142619809D+03
 0.169526133728344D+03 0.209439331637658D+02 0.125496994300470D+03 -.779983983661804D+02
 0.446496253319145D+03 -.689340267134151D+02 -.110016122455478D+03 0.427204233346265D+03
 0.187746411232558D+03 0.183355677870482D+01 -.938475406285777D+02 0.162597638722743D+03
 0.526005486959570D+03 0.461565367709445D+02 0.783666687835853D+02 -.511803473702827D+03
 0.000000000000000D+00 0.000000000000000D+00 -.000000000000000D+00 -.000000000000000D+00
 0.106183465630603D+04 0.000000000000000D+00 0.000000000000000D+00 0.106183465630603D+04
 0.214211408827304D+04 0.000000000000000D+00 0.000000000000000D+00 -.214211408827304D+04
 0.283243826544816D+03 -.776737344376897D+02 0.248279862558752D+03 -.779983983661804D+02
 0.535680818099229D+03 -.282861673098064D+03 0.156332196884241D+03 0.427204233346265D+03
 0.180612468953866D+03 -.783985628220587D+02 0.604459848421008D+01 0.162597638722743D+03
 0.696273965594462D+03 -.220067725755970D+03 0.409826328579048D+03 -.511803473702827D+03
 0.150813766538670D+04 0.659001696113783D+03 -.820482986506251D+03 -.108027943196702D+04
0.338033630463D-03 0.000000000000D+00 0.000000000000D+00 0.115770843479D-04 0.000000000000D+00  7 1 -1 24 -13 13 -24 21 0 0.35997668D+00 0.29066637D-01 0.61408593D+05 0.61408593D+05 0.61408593D+05 0.11395260D+01  1  2  2  1  7  1        1 0.846467433404D-03 0.100000000000D+01
0.346227139589D-05 0.000000000000D+00 -.129813814728D-05 0.115770843479D-04 0.000000000000D+00  7 1 -1 24 -13 13 -24 21 2 0.35997668D+00 0.29066637D-01 0.61408593D+05 0.61408593D+05 0.61408593D+05 0.11395260D+01  1  2  3  1  7  1        1 0.112579656836D-04 0.100000000000D+01
0.198099765840D-04 0.000000000000D+00 0.000000000000D+00 0.115770843479D-04 0.000000000000D+00  7 1 -1 24 -13 13 -24 21 2 0.35997668D+00 0.29066637D-01 0.61408593D+05 0.61408593D+05 0.61408593D+05 0.11395260D+01  1  2 15  1  7  1        1 0.644143716873D-04 0.100000000000D+01
  </mgrwgt>
  </event>
  <event>
  8     66 0.27727860E-05 0.33502905E+03 0.75467711E-02 0.86159700E-01
        1 -1    0    0  501    0 0.00000000E+00 0.00000000E+00 0.82845751E+03 0.82845757E+03 0.32000000E+00 0.0000E+00 0.9000E+01
       -1 -1    0    0    0  501 0.00000000E+00 0.00000000E+00 -.77589012E+03 0.77589018E+03 0.32000000E+00 0.0000E+00 0.9000E+01
       25  2    1    2    0    0 0.25968374E+03 -.73165857E+02 -.69558789E+03 0.80425817E+03 0.30033282E+03 0.0000E+00 0.0000E+00
       23  2    1    2    0    0 -.25968374E+03 0.73165857E+02 0.74815528E+03 0.80008959E+03 0.87281918E+02 0.0000E+00 0.0000E+00
       24  1    3    3    0    0 0.26737278E+03 0.30863751E+01 -.58126334E+03 0.64485038E+03 0.80419002E+02 0.0000E+00 0.9000E+01
      -11  1    4    4    0    0 -.21899338E+03 0.31046488E+02 0.53215019E+03 0.57628622E+03 0.51099893E-03 0.0000E+00 0.9000E+01
       11  1    4    4    0    0 -.40690365E+02 0.42119369E+02 0.21600509E+03 0.22380337E+03 0.51099893E-03 0.0000E+00 0.9000E+01
      -24  1    3    3    0    0 -.76890359E+01 -.76252232E+02 -.11432455E+03 0.15940779E+03 0.80419002E+02 0.0000E+00 0.9000E+01
#aMCatNLO 1  0  0  1  2 0.10677826D+04 0.00000000D+00  -5  7  0 0.00000000D+00 0.00000000D+00 0.00000000D+00 0.00000000D+00 0.00000000D+00
  <mgrwgt>
 0.1170067828D-02    3    2    0
 0.801743161750012D+03 0.000000000000000D+00 0.000000000000000D+00 0.801743161750012D+03
 0.801743161750012D+03 0.000000000000000D+00 0.000000000000000D+00 -.801743161750012D+03
 0.664252477940695D+03 0.267372777568670D+03 0.308637505831813D+01 -.602715862243725D+03
 0.559150233989523D+03 -.218993376454876D+03 0.310464877304226D+02 0.513543572483422D+03
 0.216842265452641D+03 -.406903651676814D+02 0.421193694240712D+02 0.208784149274970D+03
 0.163241346117165D+03 -.768903594611196D+01 -.762522322128119D+02 -.119611859514667D+03
 0.000000000000000D+00 -.000000000000000D+00 -.000000000000000D+00 -.000000000000000D+00
 0.143020999571767D+04 0.000000000000000D+00 0.000000000000000D+00 0.143020999571767D+04
 0.157364384896442D+04 0.000000000000000D+00 0.000000000000000D+00 -.157364384896442D+04
 0.953672221763449D+03 0.692324940366026D+03 0.245852103826352D+03 -.602715862243725D+03
 0.555411971359046D+03 0.737493079368481D+02 0.198283878993583D+03 0.513543572483422D+03
 0.250906561888971D+03 0.821650902568465D+02 0.112303961433047D+03 0.208784149274970D+03
 0.166489965762534D+03 0.789157573121345D+02 -.267768380608141D+02 -.119611859514667D+03
 0.107737312390810D+04 -.927155095871855D+03 -.529663106192168D+03 -.143433853246749D+03
0.621036302092D-03 0.000000000000D+00 0.000000000000D+00 0.134083257698D-05 0.000000000000D+00  7 1 -1 24 -11 11 -24 21 0 0.12745501D+00 0.11936772D+00 0.11224447D+06 0.11224447D+06 0.11224447D+06 0.11176285D+01  1  2  2  1  7  1        1 0.109528928040D-02 0.100000000000D+01
-.256255517283D-05 0.000000000000D+00 -.238494292265D-05 0.134083257698D-05 0.000000000000D+00  7 1 -1 24 -11 11 -24 21 2 0.12745501D+00 0.11936772D+00 0.11224447D+06 0.11224447D+06 0.11224447D+06 0.11176285D+01  1  2  3  1  7  1        1 -.564520912527D-05 0.100000000000D+01
0.365071174591D-04 0.000000000000D+00 0.000000000000D+00 0.134083257698D-05 0.000000000000D+00  7 1 -1 24 -11 11 -24 21 2 0.12745501D+00 0.11936772D+00 0.11224447D+06 0.11224447D+06 0.11224447D+06 0.11176285D+01  1  2 15  1  7  1        1 0.804237562580D-04 0.100000000000D+01
  </mgrwgt>
  </event>
  <event>
  9     66 0.27727860E-05 0.17824409E+03 0.75467711E-02 0.10584308E+00
        1 -1    0    0  501    0 0.00000000E+00 0.00000000E+00 0.98740719E+03 0.98740724E+03 0.32000000E+00 0.0000E+00 0.9000E+01
       -1 -1    0    0    0  502 0.00000000E+00 0.00000000E+00 -.13576953E+03 0.13576990E+03 0.32000000E+00 0.0000E+00 0.9000E+01
       25  2    1    2    0    0 -.62700434E+02 -.56134537E+02 0.89843963E+03 0.95096095E+03 0.30008420E+03 0.0000E+00 0.0000E+00
       23  2    1    2    0    0 0.16532789E+02 0.26629002E+00 -.14179027E+02 0.92733287E+02 0.90138857E+02 0.0000E+00 0.0000E+00
       24  1    3    3    0    0 -.29011349E+01 -.15131142E+03 0.44226942E+03 0.47431321E+03 0.80419002E+02 0.0000E+00 0.9000E+01
      -11  1    4    4    0    0 0.64664358E+01 0.13557678E+02 -.50543725E+02 0.52728489E+02 0.51099893E-03 0.0000E+00 0.9000E+01
       11  1    4    4    0    0 0.10066354E+02 -.13291388E+02 0.36364699E+02 0.40004797E+02 0.51099893E-03 0.0000E+00 0.9000E+01
      -24  1    3    3    0    0 -.59799299E+02 0.95176879E+02 0.45617021E+03 0.47664774E+03 0.80419002E+02 0.0000E+00 0.9000E+01
       21  1    1    2  501  502 0.46167645E+02 0.55868247E+02 -.32622948E+02 0.79482901E+02 0.75000000E+00 0.0000E+00 0.9000E+01
#aMCatNLO 2  0  0  2  1 0.72475599D+02 0.00000000D+00  -5  7  0 0.00000000D+00 0.00000000D+00 0.00000000D+00 0.00000000D+00 0.00000000D+00
  <mgrwgt>
 0.2215179926D-03    2    2    0
 0.274830916392172D+03 0.000000000000000D+00 0.000000000000000D+00 0.274830916392172D+03
 0.274830916392172D+03 0.000000000000000D+00 0.000000000000000D+00 -.274830916392172D+03
 0.173505029650912D+03 0.121946691070081D+02 -.133043728666381D+03 0.760751974542975D+02
 0.183353152647817D+03 0.216549864442790D+02 0.319375994423997D+02 -.179246840669086D+03
 0.169542039183133D+02 0.114991194653333D+02 -.115575735446157D+02 0.465164226768798D+01
 0.175849446567301D+03 -.453487750166204D+02 0.112663702768597D+03 0.985200009471007D+02
 0.000000000000000D+00 0.000000000000000D+00 0.000000000000000D+00 -.000000000000000D+00
 0.283946731860834D+03 0.000000000000000D+00 0.000000000000000D+00 0.283946731860834D+03
 0.472128702658461D+03 0.000000000000000D+00 0.000000000000000D+00 -.472128702658461D+03
 0.187505234286604D+03 -.290113493219685D+01 -.151311416221310D+03 0.760751974542975D+02
 0.179875110298516D+03 0.646643579440691D+01 0.135576776466812D+02 -.179246840669086D+03
 0.173098306546181D+02 0.100663536878067D+02 -.132913876227050D+02 0.465164226768798D+01
 0.169729199265618D+03 -.597992991117761D+02 0.951768793778253D+02 0.985200009471007D+02
 0.201656060013939D+03 0.461676445617593D+02 0.558682468195086D+02 -.188181970797627D+03
-.187076178441D-04 0.000000000000D+00 0.000000000000D+00 0.193324141727D-05 0.000000000000D+00  7 1 -1 24 -11 11 -24 21 2 0.14703160D+00 0.20961287D-01 0.42798896D+05 0.42798896D+05 0.42798896D+05 0.11532838D+01  1  2 13  2  7  2       -1 -.902220046904D-03 0.100000000000D+01
0.244812680365D-04 0.000000000000D+00 0.000000000000D+00 0.193324141727D-05 0.302234615573D-08  7 1 -1 24 -11 11 -24 21 2 0.15190847D+00 0.20887602D-01 0.42798896D+05 0.42798896D+05 0.42798896D+05 0.11532838D+01  1  2  1  2  7  2       -1 0.112373803949D-02 0.100000000000D+01
  </mgrwgt>
  </event>
  <event>
  9     66 0.27727860E-05 0.32595873E+03 0.75467711E-02 0.96835643E-01
        1 -1    0    0  501    0 0.00000000E+00 0.00000000E+00 0.16296774E+04 0.16296774E+04 0.32000000E+00 0.0000E+00 0.9000E+01
       21 -1    0    0  502  501 0.00000000E+00 0.00000000E+00 -.13315573E+03 0.13315784E+03 0.75000000E+00 0.0000E+00 0.9000E+01
       25  2    1    2    0    0 0.11744726E+03 0.18232208E+03 0.41201444E+03 0.55372329E+03 0.29969716E+03 0.0000E+00 0.0000E+00
       23  2    1    2    0    0 -.94479018E+02 -.33968255E+03 0.63042029E+03 0.72798319E+03 0.90660141E+02 0.0000E+00 0.0000E+00
       24  1    3    3    0    0 0.40334169E+02 0.17298035E+03 0.39517064E+03 0.44065417E+03 0.80419002E+02 0.0000E+00 0.9000E+01
      -11  1    4    4    0    0 -.94333292E+01 -.17732575E+03 0.35836753E+03 0.39995087E+03 0.51099893E-03 0.0000E+00 0.9000E+01
       11  1    4    4    0    0 -.85045689E+02 -.16235680E+03 0.27205275E+03 0.32803231E+03 0.51099893E-03 0.0000E+00 0.9000E+01
      -24  1    3    3    0    0 0.77113093E+02 0.93417315E+01 0.16843795E+02 0.11306912E+03 0.80419002E+02 0.0000E+00 0.9000E+01
        1  1    1    2  502    0 -.22968244E+02 0.15736047E+03 0.45408693E+03 0.48112877E+03 0.32000000E+00 0.0000E+00 0.9000E+01
#aMCatNLO 2  0  0  2  1 0.15902785D+03 0.00000000D+00  -5  7  0 0.00000000D+00 0.00000000D+00 0.00000000D+00 0.00000000D+00 0.00000000D+00
  <mgrwgt>
 0.4119819345D-04    1    2    0
 0.364284051944919D+03 0.000000000000000D+00 0.000000000000000D+00 0.364284051944919D+03
 0.364284051944919D+03 0.000000000000000D+00 0.000000000000000D+00 -.364284051944919D+03
 0.245884450806830D+03 0.333102419056517D+02 0.221102807436537D+03 0.632133176006023D+02
 0.152844275872026D+03 -.147193628407412D+02 -.141109977201454D+03 0.568567265907169D+02
 0.155440119026080D+03 -.903261829050058D+02 -.126178975805009D+03 0.903755218254596D+01
 0.174399258184904D+03 0.717353038400953D+02 0.461861455699266D+02 -.129107596373865D+03
 0.000000000000000D+00 -.000000000000000D+00 0.000000000000000D+00 0.000000000000000D+00
 0.522897121964008D+03 0.000000000000000D+00 0.000000000000000D+00 0.522897121964008D+03
 0.415000631562773D+03 0.000000000000000D+00 0.000000000000000D+00 -.415000631562773D+03
 0.204968740793127D+03 0.403341686970756D+02 0.172980345881810D+03 0.632133176006023D+02
 0.186456690475587D+03 -.943332917770434D+01 -.177325752120560D+03 0.568567265907169D+02
 0.183505246634981D+03 -.850456892120431D+02 -.162356795175199D+03 0.903755218254596D+01
 0.170791347858344D+03 0.771130933092810D+02 0.934173151705192D+01 -.129107596373865D+03
 0.192175727764742D+03 -.229682436166091D+02 0.157360469896897D+03 0.107896490401236D+03
0.229131124088D-06 0.000000000000D+00 0.000000000000D+00 0.802973298893D-06 0.474489882986D-11  7 1 21 24 -11 11 -24 1 2 0.25071969D+00 0.20485655D-01 0.17084664D+06 0.17084664D+06 0.17084664D+06 0.11031195D+01  1  2  1  4  7  2       -1 0.411981934537D-04 0.100000000000D+01
  </mgrwgt>
  </event>
  <event>
  8     66 0.27727860E-05 0.20596638E+03 0.75467711E-02 0.95263300E-01
        1 -1    0    0  501    0 0.00000000E+00 0.00000000E+00 0.34308355E+03 0.34308370E+03 0.32000000E+00 0.0000E+00 0.9000E+01
       -1 -1    0    0    0  501 0.00000000E+00 0.00000000E+00 -.56781648E+03 0.56781657E+03 0.32000000E+00 0.0000E+00 0.9000E+01
       25  2    1    2    0    0 0.30381144E+03 0.21969350E+03 -.21244136E+03 0.52512717E+03 0.30010096E+03 0.0000E+00 0.0000E+00
       23  2    1    2    0    0 -.30381144E+03 -.21969350E+03 -.12291569E+02 0.38577310E+03 0.90017660E+02 0.0000E+00 0.0000E+00
       24  1    3    3    0    0 0.24499348E+03 0.25682195E+03 -.11707848E+03 0.38230080E+03 0.80419002E+02 0.0000E+00 0.9000E+01
      -13  1    4    4    0    0 -.28792713E+03 -.20642292E+03 0.11211802E+02 0.35445475E+03 0.10565837E+00 0.0000E+00 0.9000E+01
       13  1    4    4    0    0 -.15884312E+02 -.13270576E+02 -.23503371E+02 0.31318352E+02 0.10565837E+00 0.0000E+00 0.9000E+01
      -24  1    3    3    0    0 0.58817969E+02 -.37128456E+02 -.95362877E+02 0.14282636E+03 0.80419002E+02 0.0000E+00 0.9000E+01
#aMCatNLO 1  0  0  2  1 0.95853147D+02 0.00000000D+00  -5  7  0 0.00000000D+00 0.00000000D+00 0.00000000D+00 0.00000000D+00 0.00000000D+00
  <mgrwgt>
 0.1070116207D-02    9    2    0
 0.441371277381233D+03 0.000000000000000D+00 0.000000000000000D+00 0.441371277381233D+03
 0.441371277381233D+03 0.000000000000000D+00 0.000000000000000D+00 -.441371277381233D+03
 0.364689020244357D+03 0.244993475158683D+03 0.256821953339938D+03 -.234850366137419D+02
 0.368615975857012D+03 -.287927507239648D+03 -.206423187583760D+03 0.101808427252070D+03
 0.263332694640885D+02 -.158839371350276D+02 -.132703097825590D+02 -.162800644972219D+02
 0.123104289197008D+03 0.588179692159926D+02 -.371284559736196D+02 -.620433261411059D+02
 0.000000000000000D+00 0.000000000000000D+00 -.000000000000000D+00 -.000000000000000D+00
 0.471216714632909D+03 0.000000000000000D+00 0.000000000000000D+00 0.471216714632909D+03
 0.528254624678026D+03 0.000000000000000D+00 0.000000000000000D+00 -.528254624678026D+03
 0.365431409380124D+03 0.215421861303476D+03 0.283045532971235D+03 -.234850366137419D+02
 0.379303103974431D+03 -.318220008759010D+03 -.179560337631988D+03 0.101808427252070D+03
 0.268224608039397D+02 -.180368706318839D+02 -.113611267642722D+02 -.162800644972219D+02
 0.116374466744018D+03 0.491185100447767D+02 -.285271486116914D+02 -.620433261411059D+02
 0.111539898408423D+03 0.717165080426408D+02 -.635969199632832D+02 -.570379100451170D+02
0.562943688925D-04 0.000000000000D+00 0.000000000000D+00 0.290081798974D-05 0.000000000000D+00  7 1 -1 24 -13 13 -24 21 0 0.52782104D-01 0.87356400D-01 0.17860516D+06 0.17860516D+06 0.17860516D+06 0.11016192D+01  1  2  2  2  7  2       -1 0.690286155170D-03 0.100000000000D+01
-.312029601635D-05 0.000000000000D+00 -.216185199195D-06 0.290081798974D-05 0.000000000000D+00  7 1 -1 24 -13 13 -24 21 2 0.52782104D-01 0.87356400D-01 0.17860516D+06 0.17860516D+06 0.17860516D+06 0.11016192D+01  1  2  3  2  7  2       -1 -.464326006312D-04 0.100000000000D+01
0.369313934359D-05 0.000000000000D+00 0.000000000000D+00 0.290081798974D-05 0.000000000000D+00  7 1 -1 24 -13 13 -24 21 2 0.52782104D-01 0.87356400D-01 0.17860516D+06 0.17860516D+06 0.17860516D+06 0.11016192D+01  1  2 15  2  7  2       -1 0.549569859134D-04 0.100000000000D+01
0.686454243265D-04 0.000000000000D+00 0.000000000000D+00 0.290081798974D-05 0.000000000000D+00  7 1 -1 24 -13 13 -24 21 2 0.52782104D-01 0.10707458D+00 0.22358086D+06 0.22358086D+06 0.22358086D+06 0.10941270D+01  1  2 12  2  7  2       -1 0.639592058719D-03 0.100000000000D+01
-.693687908859D-04 0.000000000000D+00 0.000000000000D+00 0.290081798974D-05 0.000000000000D+00  7 1 -1 24 -13 13 -24 21 2 0.52782104D-01 0.87356400D-01 0.17860516D+06 0.17860516D+06 0.17860516D+06 0.11016192D+01  1  2  4  2  7  2       -1 -.103226531925D-02 0.100000000000D+01
-.136833710894D-03 0.000000000000D+00 -.338480357532D-04 0.290081798974D-05 0.000000000000D+00  7 1 -1 24 -13 13 -24 21 2 0.52782104D-01 0.10953370D+00 0.17860516D+06 0.17860516D+06 0.17860516D+06 0.11016192D+01  1  2  5  2  7  2       -1 -.123560437411D-02 0.100000000000D+01
0.141697744476D-03 0.000000000000D+00 0.329999147147D-04 0.290081798974D-05 0.000000000000D+00  7 1 -1 24 -13 13 -24 21 2 0.52782104D-01 0.87356400D-01 0.17860516D+06 0.17860516D+06 0.17860516D+06 0.11016192D+01  1  2  6  2  7  2       -1 0.210858032222D-02 0.100000000000D+01
0.199090266985D-05 0.000000000000D+00 0.000000000000D+00 0.290081798974D-05 0.000000000000D+00  7 1 21 24 -13 13 -24 1 2 0.52782104D-01 0.10707458D+00 0.22358086D+06 0.22358086D+06 0.22358086D+06 0.10941270D+01  1  2 12  4  7  2       -1 0.127105619217D-03 0.100000000000D+01
-.381874096925D-05 0.000000000000D+00 -.106352475400D-05 0.290081798974D-05 0.000000000000D+00  7 1 21 24 -13 13 -24 1 2 0.52782104D-01 0.10953370D+00 0.17860516D+06 0.17860516D+06 0.17860516D+06 0.11016192D+01  1  2  5  4  7  2       -1 -.236102640556D-03 0.100000000000D+01
  </mgrwgt>
  </event>
  <event>
  8     66 0.27727860E-05 0.56496188E+03 0.75467711E-02 0.89071404E-01
        1 -1    0    0  501    0 0.00000000E+00 0.00000000E+00 0.11511897E+04 0.11511897E+04 0.32000000E+00 0.0000E+00 0.9000E+01
       -1 -1    0    0    0  501 0.00000000E+00 0.00000000E+00 -.30744393E+03 0.30744409E+03 0.32000000E+00 0.0000E+00 0.9000E+01
       25  2    1    2    0    0 -.24165459E+03 -.49355570E+03 0.52229452E+03 0.81543681E+03 0.30025233E+03 0.0000E+00 0.0000E+00
       23  2    1    2    0    0 0.24165459E+03 0.49355570E+03 0.32145123E+03 0.64319699E+03 0.91527663E+02 0.0000E+00 0.0000E+00
       24  1    3    3    0    0 -.15212319E+03 -.21101402E+03 0.40217887E+03 0.48567833E+03 0.80419002E+02 0.0000E+00 0.9000E+01
      -11  1    4    4    0    0 0.20851527E+03 0.44858750E+03 0.31616850E+03 0.58708763E+03 0.51099893E-03 0.0000E+00 0.9000E+01
       11  1    4    4    0    0 0.33139322E+02 0.44968198E+02 0.52827219E+01 0.56109363E+02 0.51099893E-03 0.0000E+00 0.9000E+01
      -24  1    3    3    0    0 -.89531400E+02 -.28254168E+03 0.12011565E+03 0.32975848E+03 0.80419002E+02 0.0000E+00 0.9000E+01
#aMCatNLO 1  0  0  2  1 0.45936871D+03 0.00000000D+00  -5  7  0 0.00000000D+00 0.00000000D+00 0.00000000D+00 0.00000000D+00 0.00000000D+00
  <mgrwgt>
 0.1171926088D-02    3    2    0
 0.594917157700590D+03 0.000000000000000D+00 0.000000000000000D+00 0.594917157700590D+03
 0.594917157700590D+03 0.000000000000000D+00 0.000000000000000D+00 -.594917157700590D+03
 0.310202956355008D+03 -.152123194895557D+03 -.211014017637543D+03 0.148627978901172D+03
 0.495514397521484D+03 0.208515273369154D+03 0.448587497418294D+03 -.287255301580102D+02
 0.650390891608136D+02 0.331393216037968D+02 0.449681984425147D+02 -.333126043914768D+02
 0.319077872363875D+03 -.895314000773935D+02 -.282541678223265D+03 -.865898443516856D+02
 0.000000000000000D+00 -.000000000000000D+00 0.000000000000000D+00 0.000000000000000D+00
 0.216228678018886D+04 0.000000000000000D+00 0.000000000000000D+00 0.216228678018886D+04
 0.672318821681153D+03 0.000000000000000D+00 0.000000000000000D+00 -.672318821681153D+03
 0.365675036502405D+03 -.800045481338619D+02 -.314261057931640D+03 0.148627978901172D+03
 0.435279045023046D+03 0.307834328287891D+03 0.306399603917594D+03 -.287255301580102D+02
 0.628117290962382D+02 0.467814701831473D+02 0.254377229369985D+02 -.333126043914768D+02
 0.411665609909845D+03 -.115584055008004D+02 -.394169964032655D+03 -.865898443516856D+02
 0.155917418133848D+04 -.263052844836376D+03 0.376593695109702D+03 0.148996795850771D+04
0.187157249459D-03 0.000000000000D+00 0.000000000000D+00 0.894152538968D-05 0.000000000000D+00  7 1 -1 24 -11 11 -24 21 0 0.17710612D+00 0.47299082D-01 0.31918193D+06 0.31918193D+06 0.31918193D+06 0.10825660D+01  1  2  2  2  7  2       -1 0.116763819596D-02 0.100000000000D+01
-.103638814705D-04 0.000000000000D+00 -.718733117558D-06 0.894152538968D-05 0.000000000000D+00  7 1 -1 24 -11 11 -24 21 2 0.17710612D+00 0.47299082D-01 0.31918193D+06 0.31918193D+06 0.31918193D+06 0.10825660D+01  1  2  3  2  7  2       -1 -.757762072279D-04 0.100000000000D+01
0.109503347997D-04 0.000000000000D+00 0.000000000000D+00 0.894152538968D-05 0.000000000000D+00  7 1 -1 24 -11 11 -24 21 2 0.17710612D+00 0.47299082D-01 0.31918193D+06 0.31918193D+06 0.31918193D+06 0.10825660D+01  1  2 15  2  7  2       -1 0.800640996680D-04 0.100000000000D+01
  </mgrwgt>
  </event>
  <event>
  9     66 0.27727860E-05 0.22862741E+03 0.75467711E-02 0.99537974E-01
        1 -1    0    0  502    0 0.00000000E+00 0.00000000E+00 0.17044193E+03 0.17044223E+03 0.32000000E+00 0.0000E+00 0.9000E+01
       -1 -1    0    0    0  501 0.00000000E+00 0.00000000E+00 -.12037290E+04 0.12037290E+04 0.32000000E+00 0.0000E+00 0.9000E+01
       25  2    1    2    0    0 0.10244838E+03 -.12691737E+03 -.92589129E+03 0.98724187E+03 0.30127752E+03 0.0000E+00 0.0000E+00
       23  2    1    2    0    0 0.88566811E+02 0.12096298E+03 -.29131394E+02 0.18041515E+03 0.96046161E+02 0.0000E+00 0.0000E+00
       24  1    3    3    0    0 0.15643517E+03 -.87053762E+02 -.34442087E+03 0.39641300E+03 0.80419002E+02 0.0000E+00 0.9000E+01
      -11  1    4    4    0    0 0.26860603E+02 0.10285107E+03 0.72150432E+01 0.10654526E+03 0.51099893E-03 0.0000E+00 0.9000E+01
       11  1    4    4    0    0 0.61706207E+02 0.18111910E+02 -.36346437E+02 0.73869891E+02 0.51099893E-03 0.0000E+00 0.9000E+01
      -24  1    3    3    0    0 -.53986791E+02 -.39863605E+02 -.58147042E+03 0.59082886E+03 0.80419002E+02 0.0000E+00 0.9000E+01
       21  1    1    2  502  501 -.19101519E+03 0.59543832E+01 -.78264390E+02 0.20651425E+03 0.75000000E+00 0.0000E+00 0.9000E+01
#aMCatNLO 2  0  0  1  2 0.19110797D+03 0.00000000D+00  -5  7  0 0.00000000D+00 0.00000000D+00 0.00000000D+00 0.00000000D+00 0.00000000D+00
  <mgrwgt>
 0.1318363820D-03    2    2    0
 0.322037393741025D+03 0.000000000000000D+00 0.000000000000000D+00 0.322037393741025D+03
 0.322037393741025D+03 0.000000000000000D+00 0.000000000000000D+00 -.322037393741025D+03
 0.160765244577382D+03 0.104157884688882D+03 -.854241583085249D+02 -.351012271020891D+02
 0.196841241475717D+03 -.300817621002975D+02 0.104626098472819D+03 0.163996772690803D+03
 0.618935065266451D+02 0.415851621199637D+02 0.187391291926507D+02 0.418368913606323D+02
 0.224574794902307D+03 -.115661284708548D+03 -.379410693569445D+02 -.170732436949346D+03
 0.000000000000000D+00 -.000000000000000D+00 0.000000000000000D+00 0.000000000000000D+00
 0.538519957784123D+03 0.000000000000000D+00 0.000000000000000D+00 0.538519957784123D+03
 0.380980412399782D+03 0.000000000000000D+00 0.000000000000000D+00 -.380980412399782D+03
 0.199373098133653D+03 0.156435171044752D+03 -.870537616715535D+02 -.351012271020891D+02
 0.195434840421658D+03 0.268606031850399D+02 0.102851073860100D+03 0.163996772690803D+03
 0.767204196700811D+02 0.617062074331309D+02 0.181119098896673D+02 0.418368913606323D+02
 0.200300927733121D+03 -.539867913717163D+02 -.398636052948395D+02 -.170732436949346D+03
 0.247671084225392D+03 -.191015190291207D+03 0.595438321662513D+01 0.157539545384341D+03
-.111984191702D-05 0.000000000000D+00 0.000000000000D+00 0.213863851573D-07 0.000000000000D+00  7 1 -1 24 -11 11 -24 21 2 0.26855959D-01 0.15653753D+00 0.10979910D+06 0.10979910D+06 0.10979910D+06 0.11184056D+01  1  2 13  1  7  1        1 -.101726036334D-04 0.100000000000D+01
0.257954172114D-04 0.000000000000D+00 0.000000000000D+00 0.213863851573D-07 0.458024616896D-11  7 1 -1 24 -11 11 -24 21 2 0.26221825D-01 0.18518885D+00 0.10979910D+06 0.10979910D+06 0.10979910D+06 0.11184056D+01  1  2  1  1  7  1        1 0.142008985622D-03 0.100000000000D+01
  </mgrwgt>
  </event>
  <event>
  9     66 -.27727860E-05 0.21013509E+03 0.75467711E-02 0.10391312E+00
        1 -1    0    0  501    0 0.00000000E+00 0.00000000E+00 0.11228479E+04 0.11228480E+04 0.32000000E+00 0.0000E+00 0.9000E+01
       21 -1    0    0  502  501 0.00000000E+00 0.00000000E+00 -.17787773E+03 0.17787931E+03 0.75000000E+00 0.0000E+00 0.9000E+01
       25  2    1    2    0    0 -.81180581E+02 -.71212546E+02 0.60068763E+03 0.68026439E+03 0.30045381E+03 0.0000E+00 0.0000E+00
       23  2    1    2    0    0 0.42546321E+02 0.33689401E+02 0.47105229E+03 0.48272668E+03 0.90496576E+02 0.0000E+00 0.0000E+00
       24  1    3    3    0    0 0.89181949E+02 -.46854302E+02 0.22605952E+03 0.26022849E+03 0.80419002E+02 0.0000E+00 0.9000E+01
      -13  1    4    4    0    0 0.28549920E+01 -.28417230E+02 0.84103862E+02 0.88820947E+02 0.10565837E+00 0.0000E+00 0.9000E+01
       13  1    4    4    0    0 0.39691329E+02 0.62106631E+02 0.38694842E+03 0.39390574E+03 0.10565837E+00 0.0000E+00 0.9000E+01
      -24  1    3    3    0    0 -.17036253E+03 -.24358244E+02 0.37462811E+03 0.42003590E+03 0.80419002E+02 0.0000E+00 0.9000E+01
        1  1    1    2  502    0 0.38634260E+02 0.37523145E+02 -.12676973E+03 0.13773620E+03 0.32000000E+00 0.0000E+00 0.9000E+01
#aMCatNLO 2  0  0  2  1 0.53857149D+02 0.00000000D+00  -5  7  0 0.00000000D+00 0.00000000D+00 0.00000000D+00 0.00000000D+00 0.00000000D+00
  <mgrwgt>
 -.5032371389D-03    2    2    0
 0.224176933539406D+03 0.000000000000000D+00 0.000000000000000D+00 0.224176933539406D+03
 0.224176933539406D+03 0.000000000000000D+00 0.000000000000000D+00 -.224176933539406D+03
 0.138403523077382D+03 0.100862506850270D+03 -.355096602641760D+02 -.354138106628318D+02
 0.272205770081302D+02 0.527466170494653D+01 -.260672240320035D+02 0.579979204965631D+01
 0.105418336659466D+03 0.483430278151431D+02 0.705095808546271D+02 0.616796268910372D+02
 0.177311430333834D+03 -.154480196370360D+03 -.893269655844762D+01 -.320656082778617D+02
 0.000000000000000D+00 0.000000000000000D+00 0.000000000000000D+00 -.000000000000000D+00
 0.226896467482833D+03 0.000000000000000D+00 0.000000000000000D+00 0.226896467482833D+03
 0.880272092647001D+03 0.000000000000000D+00 0.000000000000000D+00 -.880272092647001D+03
 0.133679081015737D+03 0.891819317573941D+02 -.468543040626796D+02 -.354138106628318D+02
 0.291433372504717D+02 0.285494459285693D+01 -.284173505036481D+02 0.579979204965631D+01
 0.961094807690415D+02 0.396913875802847D+02 0.621067602779988D+02 0.616796268910372D+02
 0.192645096155332D+03 -.170362523736196D+03 -.243582509702792D+02 -.320656082778617D+02
 0.655591564939252D+03 0.386342598056606D+02 0.375231452586081D+02 -.653375625164169D+03
-.209082087902D-04 0.000000000000D+00 0.000000000000D+00 0.383477358341D-06 0.000000000000D+00  7 1 21 24 -13 13 -24 1 2 0.17067543D+00 0.27238060D-01 0.56402619D+05 0.56402619D+05 0.56402619D+05 0.11427208D+01  1  2 13  4  7  2       -1 -.564716408340D-02 0.100000000000D+01
0.196441321220D-04 0.000000000000D+00 0.000000000000D+00 0.383477358341D-06 0.278122679084D-09  7 1 21 24 -13 13 -24 1 2 0.17274593D+00 0.27365925D-01 0.56402619D+05 0.56402619D+05 0.56402619D+05 0.11427208D+01  1  2  1  4  7  2       -1 0.514392694448D-02 0.100000000000D+01
  </mgrwgt>
  </event>
  <event>
  8     66 0.27727860E-05 0.18867596E+03 0.75467711E-02 0.10480230E+00
        1 -1    0    0  501    0 0.00000000E+00 0.00000000E+00 0.19331597E+03 0.19331624E+03 0.32000000E+00 0.0000E+00 0.9000E+01
       -1 -1    0    0    0  501 0.00000000E+00 0.00000000E+00 -.59857575E+03 0.59857584E+03 0.32000000E+00 0.0000E+00 0.9000E+01
       25  2    1    2    0    0 0.30954671E+02 -.63933006E+02 0.57449841E+02 0.31412267E+03 0.30054442E+03 0.0000E+00 0.0000E+00
       23  2    1    2    0    0 -.30954671E+02 0.63933006E+02 -.46270962E+03 0.47776940E+03 0.95487095E+02 0.0000E+00 0.0000E+00
       24  1    3    3    0    0 -.41705904E+02 -.13042032E+03 0.90463502E+02 0.18275586E+03 0.80419002E+02 0.0000E+00 0.9000E+01
      -11  1    4    4    0    0 -.31123443E+02 0.38939010E+01 -.40069788E+02 0.50886335E+02 0.51099893E-03 0.0000E+00 0.9000E+01
       11  1    4    4    0    0 0.16877189E+00 0.60039105E+02 -.42263984E+03 0.42688307E+03 0.51099893E-03 0.0000E+00 0.9000E+01
      -24  1    3    3    0    0 0.72660575E+02 0.66487316E+02 -.33013661E+02 0.13136682E+03 0.80419002E+02 0.0000E+00 0.9000E+01
#aMCatNLO 1  0  0  1  2 0.56879690D+02 0.00000000D+00  -5  7  0 0.00000000D+00 0.00000000D+00 0.00000000D+00 0.00000000D+00 0.00000000D+00
  <mgrwgt>
 0.4910660322D-03    4    2    0
 0.340168182984667D+03 0.000000000000000D+00 0.000000000000000D+00 0.340168182984667D+03
 0.340168182984667D+03 0.000000000000000D+00 0.000000000000000D+00 -.340168182984667D+03
 0.266609497123191D+03 -.417059035029421D+02 -.130420322552632D+03 0.214160138868514D+03
 0.353616436358859D+02 -.311234433687746D+02 0.389390101547214D+01 -.163283388127443D+02
 0.245123441219745D+03 0.168771875303705D+00 0.600391053552991D+02 -.237656850899778D+03
 0.133241783990513D+03 0.726605749964131D+02 0.664873161818604D+02 0.398250508440080D+02
 0.000000000000000D+00 0.000000000000000D+00 -.000000000000000D+00 -.000000000000000D+00
 0.351268272150700D+03 0.000000000000000D+00 0.000000000000000D+00 0.351268272150700D+03
 0.422944841166314D+03 0.000000000000000D+00 0.000000000000000D+00 -.422944841166314D+03
 0.260211568418944D+03 -.535066664590291D+02 -.111871872912440D+03 0.214160138868514D+03
 0.371564468461065D+02 -.327478446157624D+02 0.644713633062400D+01 -.163283388127443D+02
 0.250206180776698D+03 -.109265844736171D+02 0.774787962671300D+02 -.237656850899778D+03
 0.135135749684576D+03 0.666489329707096D+02 0.759364204290654D+02 0.398250508440080D+02
 0.915031675906898D+02 0.305321625776989D+02 -.479904801143796D+02 -.716765690156145D+02
0.242115242443D-04 0.000000000000D+00 0.000000000000D+00 0.151386607032D-06 0.000000000000D+00  7 1 -1 24 -11 11 -24 21 0 0.29740946D-01 0.92088605D-01 0.35598619D+05 0.35598619D+05 0.35598619D+05 0.11605033D+01  1  2  2  1  7  1        1 0.581799737997D-03 0.100000000000D+01
-.776932360805D-06 0.000000000000D+00 -.929786281387D-07 0.151386607032D-06 0.000000000000D+00  7 1 -1 24 -11 11 -24 21 2 0.29740946D-01 0.92088605D-01 0.35598619D+05 0.35598619D+05 0.35598619D+05 0.11605033D+01  1  2  3  1  7  1        1 -.251435940109D-04 0.100000000000D+01
0.147169194335D-05 0.000000000000D+00 0.000000000000D+00 0.151386607032D-06 0.000000000000D+00  7 1 -1 24 -11 11 -24 21 2 0.29740946D-01 0.92088605D-01 0.35598619D+05 0.35598619D+05 0.35598619D+05 0.11605033D+01  1  2 15  1  7  1        1 0.476278587421D-04 0.100000000000D+01
-.349841415163D-05 0.000000000000D+00 0.000000000000D+00 0.151386607032D-06 0.000000000000D+00  7 1 -1 24 -11 11 -24 21 2 0.29740946D-01 0.92088605D-01 0.35598619D+05 0.35598619D+05 0.35598619D+05 0.11605033D+01  1  2  4  1  7  1        1 -.113217970506D-03 0.100000000000D+01
  </mgrwgt>
  </event>
  <event>
  8     66 0.27727860E-05 0.26328078E+03 0.75467711E-02 0.79484859E-01
        3 -1    0    0  501    0 0.00000000E+00 0.00000000E+00 0.73437993E+03 0.73438010E+03 0.50000000E+00 0.0000E+00 0.9000E+01
       -3 -1    0    0    0  501 0.00000000E+00 0.00000000E+00 -.12462634E+03 0.12462734E+03 0.50000000E+00 0.0000E+00 0.9000E+01
       25  2    1    2    0    0 -.15854277E+03 -.33907502E+02 0.17197572E+03 0.38363039E+03 0.30217726E+03 0.0000E+00 0.0000E+00
       23  2    1    2    0    0 0.15854277E+03 0.33907502E+02 0.43777787E+03 0.47537705E+03 0.89712610E+02 0.0000E+00 0.0000E+00
       24  1    3    3    0    0 -.19396085E+03 0.55549369E+02 0.11711830E+03 0.24675992E+03 0.80419002E+02 0.0000E+00 0.9000E+01
      -11  1    4    4    0    0 0.18609036E+02 -.25816401E+02 0.56199102E+02 0.64584223E+02 0.51099893E-03 0.0000E+00 0.9000E+01
       11  1    4    4    0    0 0.13993373E+03 0.59723904E+02 0.38157876E+03 0.41079283E+03 0.51099893E-03 0.0000E+00 0.9000E+01
      -24  1    3    3    0    0 0.35418085E+02 -.89456872E+02 0.54857422E+02 0.13687047E+03 0.80419002E+02 0.0000E+00 0.9000E+01
#aMCatNLO 1  0  0  1  2 0.24450775D+04 0.00000000D+00  -5  7  0 0.00000000D+00 0.00000000D+00 0.00000000D+00 0.00000000D+00 0.00000000D+00
  <mgrwgt>
 0.1207443357D-03    3    2    0
 0.302528652423470D+03 0.000000000000000D+00 0.000000000000000D+00 0.302528652423470D+03
 0.302528652423470D+03 0.000000000000000D+00 0.000000000000000D+00 -.302528652423470D+03
 0.232300810711402D+03 -.193960854637588D+03 0.555493693961086D+02 -.824008806430807D+02
 0.350557273961652D+02 0.186090358506168D+02 -.258164014732202D+02 0.147010619670219D+02
 0.198667256248297D+03 0.139933733825888D+03 0.597239035921262D+02 0.127750867638895D+03
 0.139033510491075D+03 0.354180849610838D+02 -.894568715150146D+02 -.600510489628364D+02
 0.000000000000000D+00 0.000000000000000D+00 0.000000000000000D+00 -.000000000000000D+00
 0.206062798578329D+04 0.000000000000000D+00 0.000000000000000D+00 0.206062798578329D+04
 0.312483566073501D+04 0.000000000000000D+00 0.000000000000000D+00 -.312483566073501D+04
 0.134237623253695D+04 -.104064267016752D+04 -.840106934634869D+03 -.824008806430807D+02
 0.170089028096432D+03 -.916944290863018D+02 -.142500133088947D+03 0.147010619670219D+02
 0.263193743046755D+03 -.108402463797797D+03 -.202976767239599D+03 0.127750867638895D+03
 0.743169723778489D+03 -.438930251582185D+03 -.591242867315191D+03 -.600510489628364D+02
 0.266663491905967D+04 0.167966981463380D+04 0.177682670227861D+04 -.106420767495172D+04
0.174526741366D-04 0.000000000000D+00 0.000000000000D+00 0.601649229274D-07 0.000000000000D+00  7 3 -3 24 -11 11 -24 21 0 0.11298162D+00 0.19173373D-01 0.69316768D+05 0.69316768D+05 0.69316768D+05 0.11350219D+01  1  2  2  1  7  1        3 0.119139137476D-03 0.100000000000D+01
-.946830562018D-06 0.000000000000D+00 -.670228640792D-07 0.601649229274D-07 0.000000000000D+00  7 3 -3 24 -11 11 -24 21 2 0.11298162D+00 0.19173373D-01 0.69316768D+05 0.69316768D+05 0.69316768D+05 0.11350219D+01  1  2  3  1  7  1        3 -.832670609803D-05 0.100000000000D+01
0.112935780448D-05 0.000000000000D+00 0.000000000000D+00 0.601649229274D-07 0.000000000000D+00  7 3 -3 24 -11 11 -24 21 2 0.11298162D+00 0.19173373D-01 0.69316768D+05 0.69316768D+05 0.69316768D+05 0.11350219D+01  1  2 15  1  7  1        3 0.993190428646D-05 0.100000000000D+01
  </mgrwgt>
  </event>
  <event>
  8     66 0.27727860E-05 0.11192041E+03 0.75467711E-02 0.10536272E+00
        3 -1    0    0  501    0 0.00000000E+00 0.00000000E+00 0.12665629E+03 0.12665728E+03 0.50000000E+00 0.0000E+00 0.9000E+01
       -3 -1    0    0    0  501 0.00000000E+00 0.00000000E+00 -.82186643E+03 0.82186658E+03 0.50000000E+00 0.0000E+00 0.9000E+01
       25  2    1    2    0    0 -.57542497E+02 0.12374934E+03 -.11286761E+03 0.34375952E+03 0.29462938E+03 0.0000E+00 0.0000E+00
       23  2    1    2    0    0 0.57542497E+02 -.12374934E+03 -.58234253E+03 0.60476434E+03 0.89398250E+02 0.0000E+00 0.0000E+00
       24  1    3    3    0    0 -.29265742E+02 0.65881746E+02 -.18760828E+03 0.21647395E+03 0.80419002E+02 0.0000E+00 0.9000E+01
      -11  1    4    4    0    0 -.20558618E+01 0.11557133E+02 -.88176546E+02 0.88954467E+02 0.51099893E-03 0.0000E+00 0.9000E+01
       11  1    4    4    0    0 0.59598359E+02 -.13530647E+03 -.49416598E+03 0.51580987E+03 0.51099893E-03 0.0000E+00 0.9000E+01
      -24  1    3    3    0    0 -.28276755E+02 0.57867593E+02 0.74740671E+02 0.12728557E+03 0.80419002E+02 0.0000E+00 0.9000E+01
#aMCatNLO 1  0  0  1  2 0.53373076D+02 0.00000000D+00  -5  7  0 0.00000000D+00 0.00000000D+00 0.00000000D+00 0.00000000D+00 0.00000000D+00
  <mgrwgt>
 0.4208536863D-03    6    2    0
 0.322637714722634D+03 0.000000000000000D+00 0.000000000000000D+00 0.322637714722634D+03
 0.322637714722634D+03 0.000000000000000D+00 0.000000000000000D+00 -.322637714722634D+03
 0.116079932653186D+03 -.292657420233516D+02 0.658817463904965D+02 -.425493436701283D+02
 0.357586925527880D+02 -.205586184264199D+01 0.115571333140915D+02 -.337770661060001D+02
 0.225808645525334D+03 0.595983590394052D+02 -.135306472480011D+03 -.170674363917994D+03
 0.267628158713961D+03 -.282767551734117D+02 0.578675927754226D+02 0.247000773694123D+03
 0.000000000000000D+00 -.000000000000000D+00 -.000000000000000D+00 -.000000000000000D+00
 0.346901219316376D+03 0.000000000000000D+00 0.000000000000000D+00 0.346901219316376D+03
 0.354487282299073D+03 0.000000000000000D+00 0.000000000000000D+00 -.354487282299073D+03
 0.115887147259590D+03 -.201720245583747D+02 0.688858310834174D+02 -.425493436701283D+02
 0.360191927613748D+02 0.758019375011590D+00 0.124866912782802D+02 -.337770661060001D+02
 0.227750020249050D+03 0.773790474107682D+02 -.129432670707333D+03 -.170674363917994D+03
 0.267822647156414D+03 -.728568028981056D+01 0.648019369518989D+02 0.247000773694123D+03
 0.539094941890198D+02 -.506793619375945D+02 -.167417886062633D+02 -.758606298269723D+01
0.697503337564D-04 0.000000000000D+00 0.000000000000D+00 0.803671505331D-08 0.000000000000D+00  7 3 -3 24 -11 11 -24 21 0 0.19485671D-01 0.12644108D+00 0.34339976D+05 0.34339976D+05 0.34339976D+05 0.11619304D+01  1  2  2  1  7  1        3 0.294696543373D-03 0.100000000000D+01
-.242639931639D-05 0.000000000000D+00 -.267859647309D-06 0.803671505331D-08 0.000000000000D+00  7 3 -3 24 -11 11 -24 21 2 0.19485671D-01 0.12644108D+00 0.34339976D+05 0.34339976D+05 0.34339976D+05 0.11619304D+01  1  2  3  1  7  1        3 -.138404844546D-04 0.100000000000D+01
0.407212313221D-05 0.000000000000D+00 0.000000000000D+00 0.803671505331D-08 0.000000000000D+00  7 3 -3 24 -11 11 -24 21 2 0.19485671D-01 0.12644108D+00 0.34339976D+05 0.34339976D+05 0.34339976D+05 0.11619304D+01  1  2 15  1  7  1        3 0.232278984451D-04 0.100000000000D+01
0.680871174827D-04 0.000000000000D+00 0.000000000000D+00 0.803671505331D-08 0.000000000000D+00  7 3 -3 24 -11 11 -24 21 2 0.21834440D-01 0.12644108D+00 0.45798232D+05 0.45798232D+05 0.45798232D+05 0.11506637D+01  1  2 12  1  7  1        3 0.312443260128D-03 0.100000000000D+01
-.512972437565D-04 0.000000000000D+00 0.000000000000D+00 0.803671505331D-08 0.000000000000D+00  7 3 -3 24 -11 11 -24 21 2 0.19485671D-01 0.12644108D+00 0.34339976D+05 0.34339976D+05 0.34339976D+05 0.11619304D+01  1  2  4  1  7  1        3 -.292605878999D-03 0.100000000000D+01
0.123536681838D-05 0.000000000000D+00 0.000000000000D+00 0.803671505331D-08 0.000000000000D+00  7 21 -3 24 -11 11 -24 -3 2 0.21834440D-01 0.12644108D+00 0.45798232D+05 0.45798232D+05 0.45798232D+05 0.11506637D+01  1  2 12  3  7  1        3 0.969323478171D-04 0.100000000000D+01
  </mgrwgt>
  </event>
  <event>
  8     66 0.27727860E-05 0.34218136E+03 0.75467711E-02 0.95105132E-01
        1 -1    0    0  501    0 0.00000000E+00 0.00000000E+00 0.11175192E+04 0.11175193E+04 0.32000000E+00 0.0000E+00 0.9000E+01
       -1 -1    0    0    0  501 0.00000000E+00 0.00000000E+00 -.33435899E+03 0.33435914E+03 0.32000000E+00 0.0000E+00 0.9000E+01
       25  2    1    2    0    0 -.15463078E+03 -.39899701E+03 -.34906142E+02 0.52413332E+03 0.30064598E+03 0.0000E+00 0.0000E+00
       23  2    1    2    0    0 0.15463078E+03 0.39899701E+03 0.81806638E+03 0.92774510E+03 0.91482686E+02 0.0000E+00 0.0000E+00
       24  1    3    3    0    0 -.96811672E+02 -.36415202E+03 -.10321294E+03 0.39887256E+03 0.80419002E+02 0.0000E+00 0.9000E+01
      -11  1    4    4    0    0 0.13609349E+03 0.32449913E+03 0.73345445E+03 0.81349650E+03 0.51099893E-03 0.0000E+00 0.9000E+01
       11  1    4    4    0    0 0.18537294E+02 0.74497874E+02 0.84611932E+02 0.11424860E+03 0.51099893E-03 0.0000E+00 0.9000E+01
      -24  1    3    3    0    0 -.57819109E+02 -.34844988E+02 0.68306797E+02 0.12526076E+03 0.80419002E+02 0.0000E+00 0.9000E+01
#aMCatNLO 1  0  0  1  2 0.39488443D+02 0.00000000D+00  -5  7  0 0.00000000D+00 0.00000000D+00 0.00000000D+00 0.00000000D+00 0.00000000D+00
  <mgrwgt>
 0.7751296468D-03    9    2    0
 0.611271416809693D+03 0.000000000000000D+00 0.000000000000000D+00 0.611271416809693D+03
 0.611271416809693D+03 0.000000000000000D+00 0.000000000000000D+00 -.611271416809693D+03
 0.539814812901347D+03 -.968116718731709D+02 -.364152017963732D+03 -.378092084386077D+03
 0.496248990164676D+03 0.136093486888833D+03 0.324499131501710D+03 0.349917042626586D+03
 0.814780300111811D+02 0.185372939369089D+02 0.744978740034094D+02 0.272966092577761D+02
 0.105001000542182D+03 -.578191089525712D+02 -.348449875413868D+02 0.878432501714585D+00
 0.000000000000000D+00 0.000000000000000D+00 0.000000000000000D+00 0.000000000000000D+00
 0.670609337305335D+03 0.000000000000000D+00 0.000000000000000D+00 0.670609337305335D+03
 0.618195424127884D+03 0.000000000000000D+00 0.000000000000000D+00 -.618195424127884D+03
 0.551336561618329D+03 -.107521587449452D+03 -.378140545537889D+03 -.378092084386077D+03
 0.485513207067208D+03 0.126457252637682D+03 0.311912969867364D+03 0.349917042626586D+03
 0.792459121788788D+02 0.169597494347079D+02 0.724373979323028D+02 0.272966092577761D+02
 0.107084729846633D+03 -.599007818720577D+02 -.375639201816312D+02 0.878432501714585D+00
 0.656243507221691D+02 0.240053672491197D+02 0.313540979198538D+02 0.524139131774510D+02
0.801732149071D-04 0.000000000000D+00 0.000000000000D+00 0.526991669360D-05 0.000000000000D+00  7 1 -1 24 -11 11 -24 21 0 0.17192605D+00 0.51439860D-01 0.21111111D+06 0.21111111D+06 0.21111111D+06 0.10960265D+01  1  2  2  1  7  1        1 0.461736563561D-03 0.100000000000D+01
-.401273819815D-05 0.000000000000D+00 -.307886255336D-06 0.526991669360D-05 0.000000000000D+00  7 1 -1 24 -11 11 -24 21 2 0.17192605D+00 0.51439860D-01 0.21111111D+06 0.21111111D+06 0.21111111D+06 0.10960265D+01  1  2  3  1  7  1        1 -.277618188264D-04 0.100000000000D+01
0.498602099315D-05 0.000000000000D+00 0.000000000000D+00 0.526991669360D-05 0.000000000000D+00  7 1 -1 24 -11 11 -24 21 2 0.17192605D+00 0.51439860D-01 0.21111111D+06 0.21111111D+06 0.21111111D+06 0.10960265D+01  1  2 15  1  7  1        1 0.344954005573D-04 0.100000000000D+01
0.488453334169D-03 0.000000000000D+00 0.000000000000D+00 0.526991669360D-05 0.000000000000D+00  7 1 -1 24 -11 11 -24 21 2 0.18953072D+00 0.51439860D-01 0.22982890D+06 0.22982890D+06 0.22982890D+06 0.10932183D+01  1  2 12  1  7  1        1 0.277620431415D-02 0.100000000000D+01
-.497553105353D-03 0.000000000000D+00 0.000000000000D+00 0.526991669360D-05 0.000000000000D+00  7 1 -1 24 -11 11 -24 21 2 0.17192605D+00 0.51439860D-01 0.21111111D+06 0.21111111D+06 0.21111111D+06 0.10960265D+01  1  2  4  1  7  1        1 -.344228267214D-02 0.100000000000D+01
-.804881562627D-03 0.000000000000D+00 -.100629552704D-03 0.526991669360D-05 0.000000000000D+00  7 1 -1 24 -11 11 -24 21 2 0.18958994D+00 0.51439860D-01 0.21111111D+06 0.21111111D+06 0.21111111D+06 0.10960265D+01  1  2  5  1  7  1        1 -.461186524914D-02 0.100000000000D+01
0.811319284049D-03 0.000000000000D+00 0.100150219241D-03 0.526991669360D-05 0.000000000000D+00  7 1 -1 24 -11 11 -24 21 2 0.17192605D+00 0.51439860D-01 0.21111111D+06 0.21111111D+06 0.21111111D+06 0.10960265D+01  1  2  6  1  7  1        1 0.561304970869D-02 0.100000000000D+01
0.776211837793D-05 0.000000000000D+00 0.000000000000D+00 0.526991669360D-05 0.000000000000D+00  7 21 -1 24 -11 11 -24 -1 2 0.18953072D+00 0.51439860D-01 0.22982890D+06 0.22982890D+06 0.22982890D+06 0.10932183D+01  1  2 12  3  7  1        1 0.452152516805D-04 0.100000000000D+01
-.125054507799D-04 0.000000000000D+00 -.160328586630D-05 0.526991669360D-05 0.000000000000D+00  7 21 -1 24 -11 11 -24 -1 2 0.18958994D+00 0.51439860D-01 0.21111111D+06 0.21111111D+06 0.21111111D+06 0.10960265D+01  1  2  5  3  7  1        1 -.736618517044D-04 0.100000000000D+01
  </mgrwgt>
  </event>
  <event>
  8     66 0.27727860E-05 0.10931819E+03 0.75467711E-02 0.11204893E+00
        1 -1    0    0  501    0 0.00000000E+00 0.00000000E+00 0.24786866E+04 0.24786866E+04 0.32000000E+00 0.0000E+00 0.9000E+01
       -1 -1    0    0    0  501 0.00000000E+00 0.00000000E+00 -.12482966E+03 0.12483007E+03 0.32000000E+00 0.0000E+00 0.9000E+01
       25  2    1    2    0    0 0.44369690E+02 0.26295830E+02 0.24440903E+04 0.24630066E+04 0.30027344E+03 0.0000E+00 0.0000E+00
       23  2    1    2    0    0 -.44369690E+02 -.26295830E+02 -.90233407E+02 0.14051001E+03 0.94556095E+02 0.0000E+00 0.0000E+00
       24  1    3    3    0    0 0.94919667E+02 0.93592958E+01 0.21474184E+04 0.21510393E+04 0.80419002E+02 0.0000E+00 0.9000E+01
      -11  1    4    4    0    0 -.26099694E+01 -.42933786E+01 0.19986481E+02 0.20608359E+02 0.51099893E-03 0.0000E+00 0.9000E+01
       11  1    4    4    0    0 -.41759721E+02 -.22002451E+02 -.11021989E+03 0.11990165E+03 0.51099893E-03 0.0000E+00 0.9000E+01
      -24  1    3    3    0    0 -.50549977E+02 0.16936534E+02 0.29667192E+03 0.31196729E+03 0.80419002E+02 0.0000E+00 0.9000E+01
#aMCatNLO 1  0  0  1  2 0.76850680D+00 0.00000000D+00  -5  7  0 0.00000000D+00 0.00000000D+00 0.00000000D+00 0.00000000D+00 0.00000000D+00
  <mgrwgt>
 0.1101832386D-02   10    2    0
 0.556250088939409D+03 0.000000000000000D+00 0.000000000000000D+00 0.556250088939409D+03
 0.556250088939409D+03 0.000000000000000D+00 0.000000000000000D+00 -.556250088939409D+03
 0.490383001427750D+03 0.949196672139122D+02 0.935929582756148D+01 0.474247754335780D+03
 0.594057410515910D+01 -.260996935477872D+01 -.429337859022759D+01 0.316944489571569D+01
 0.513804672843419D+03 -.417597211387652D+02 -.220024512368618D+02 -.511631957236561D+03
 0.102371929502490D+03 -.505499767203683D+02 0.169365339995279D+02 0.342147580050656D+02
 0.000000000000000D+00 0.000000000000000D+00 0.000000000000000D+00 0.000000000000000D+00
 0.556977504394705D+03 0.000000000000000D+00 0.000000000000000D+00 0.556977504394705D+03
 0.556453238541657D+03 0.000000000000000D+00 0.000000000000000D+00 -.556453238541657D+03
 0.490317230695446D+03 0.945825369618695D+02 0.932641259041876D+01 0.474247754335780D+03
 0.594265787127891D+01 -.261405439204095D+01 -.429377703933803D+01 0.316944489571569D+01
 0.513834981986966D+03 -.421129875136410D+02 -.220369083700001D+02 -.511631957236561D+03
 0.102405572764465D+03 -.506203720243467D+02 0.169296677350487D+02 0.342147580050656D+02
 0.930299618204774D+00 0.764876968159143D+00 0.746050838706483D-01 0.524265853048127D+00
0.487845988752D-04 0.000000000000D+00 0.000000000000D+00 0.158618540165D-05 0.000000000000D+00  7 1 -1 24 -11 11 -24 21 0 0.38133643D+00 0.19204596D-01 0.18696320D+05 0.18696320D+05 0.18696320D+05 0.11868835D+01  1  2  2  1  7  1        1 0.204986818713D-03 0.100000000000D+01
0.377783122776D-05 0.000000000000D+00 -.187345704960D-06 0.158618540165D-05 0.000000000000D+00  7 1 -1 24 -11 11 -24 21 2 0.38133643D+00 0.19204596D-01 0.18696320D+05 0.18696320D+05 0.18696320D+05 0.11868835D+01  1  2  3  1  7  1        1 0.223615528467D-04 0.100000000000D+01
0.283000199931D-05 0.000000000000D+00 0.000000000000D+00 0.158618540165D-05 0.000000000000D+00  7 1 -1 24 -11 11 -24 21 2 0.38133643D+00 0.19204596D-01 0.18696320D+05 0.18696320D+05 0.18696320D+05 0.11868835D+01  1  2 15  1  7  1        1 0.167512086827D-04 0.100000000000D+01
-.753995495095D-02 0.000000000000D+00 0.000000000000D+00 0.158618540165D-05 0.000000000000D+00  7 1 -1 24 -11 11 -24 21 2 0.38133643D+00 0.19204596D-01 0.18696320D+05 0.18696320D+05 0.18696320D+05 0.11868835D+01  1  2  4  1  7  1        1 -.446301306048D-01 0.100000000000D+01
-.350978482067D-01 0.000000000000D+00 -.295423471543D-02 0.158618540165D-05 0.000000000000D+00  7 1 -1 24 -11 11 -24 21 2 0.38188477D+00 0.19204596D-01 0.18696320D+05 0.18696320D+05 0.18696320D+05 0.11868835D+01  1  2  5  1  7  1        1 -.206617506875D+00 0.100000000000D+01
0.351020599858D-01 0.000000000000D+00 0.295423166562D-02 0.158618540165D-05 0.000000000000D+00  7 1 -1 24 -11 11 -24 21 2 0.38133643D+00 0.19204596D-01 0.18696320D+05 0.18696320D+05 0.18696320D+05 0.11868835D+01  1  2  6  1  7  1        1 0.207774387493D+00 0.100000000000D+01
0.753996050494D-02 0.000000000000D+00 0.000000000000D+00 0.158618540165D-05 0.201685716589D-04  7 1 -1 24 -11 11 -24 21 2 0.38183510D+00 0.19211610D-01 0.18816385D+05 0.18816385D+05 0.18816385D+05 0.11866121D+01  1  2 11  1  7  1        1 0.443483835547D-01 0.100000000000D+01
0.151352679388D-11 0.000000000000D+00 0.000000000000D+00 0.158618540165D-05 0.000000000000D+00  7 21 -1 24 -11 11 -24 -1 2 0.38190468D+00 0.19204596D-01 0.18816385D+05 0.18816385D+05 0.18816385D+05 0.11866121D+01  1  2 12  3  7  1        1 0.359303935764D-11 0.100000000000D+01
-.943344675115D-05 0.000000000000D+00 -.794218522674D-06 0.158618540165D-05 0.000000000000D+00  7 21 -1 24 -11 11 -24 -1 2 0.38188477D+00 0.19204596D-01 0.18696320D+05 0.18696320D+05 0.18696320D+05 0.11868835D+01  1  2  5  3  7  1        1 -.224277308263D-04 0.100000000000D+01
0.211655223362D-05 0.000000000000D+00 0.000000000000D+00 0.158618540165D-05 0.493298428356D-08  7 21 -1 24 -11 11 -24 -1 2 0.38183510D+00 0.19211610D-01 0.18816385D+05 0.18816385D+05 0.18816385D+05 0.11866121D+01  1  2 11  3  7  1        1 0.502696403773D-05 0.100000000000D+01
  </mgrwgt>
  </event>
  <event>
  8     66 0.27727860E-05 0.11486801E+03 0.75467711E-02 0.98442317E-01
        1 -1    0    0  501    0 0.00000000E+00 0.00000000E+00 0.41091442E+03 0.41091454E+03 0.32000000E+00 0.0000E+00 0.9000E+01
       -1 -1    0    0    0  501 0.00000000E+00 0.00000000E+00 -.39146067E+03 0.39146080E+03 0.32000000E+00 0.0000E+00 0.9000E+01
       25  2    1    2    0    0 -.15783001E+03 0.79932047E+02 0.29909792E+03 0.45932139E+03 0.30036167E+03 0.0000E+00 0.0000E+00
       23  2    1    2    0    0 0.15783001E+03 -.79932047E+02 -.27964416E+03 0.34305395E+03 0.90474923E+02 0.0000E+00 0.0000E+00
       24  1    3    3    0    0 -.10989369E+03 0.98028644E+02 0.32034539E+03 0.36162774E+03 0.80419002E+02 0.0000E+00 0.9000E+01
      -11  1    4    4    0    0 0.16853460E+03 -.69079131E+02 -.26720165E+03 0.32337681E+03 0.51099893E-03 0.0000E+00 0.9000E+01
       11  1    4    4    0    0 -.10704586E+02 -.10852916E+02 -.12442509E+02 0.19677143E+02 0.51099893E-03 0.0000E+00 0.9000E+01
      -24  1    3    3    0    0 -.47936318E+02 -.18096598E+02 -.21247474E+02 0.97693647E+02 0.80419002E+02 0.0000E+00 0.9000E+01
#aMCatNLO 1  0  0  2  1 0.22476303D+03 0.00000000D+00  -5  7  0 0.00000000D+00 0.00000000D+00 0.00000000D+00 0.00000000D+00 0.00000000D+00
  <mgrwgt>
 0.5919331233D-03    7    2    0
 0.401069737625829D+03 0.000000000000000D+00 0.000000000000000D+00 0.401069737625829D+03
 0.401069737625829D+03 0.000000000000000D+00 0.000000000000000D+00 -.401069737625829D+03
 0.353964953640697D+03 -.109893692464303D+03 0.980286444564060D+02 0.311669269698010D+03
 0.329952158963231D+03 0.168534596533145D+03 -.690791309540598D+02 -.275122864630586D+03
 0.199846889667192D+02 -.107045858747593D+02 -.108529155853514D+02 -.129233841405279D+02
 0.982376736810113D+02 -.479363181940828D+02 -.180965979169949D+02 -.236230209268964D+02
 0.000000000000000D+00 -.000000000000000D+00 0.000000000000000D+00 -.000000000000000D+00
 0.449562906945804D+03 0.000000000000000D+00 0.000000000000000D+00 0.449562906945804D+03
 0.798702586280334D+03 0.000000000000000D+00 0.000000000000000D+00 -.798702586280334D+03
 0.334973276581059D+03 -.154239433270426D+02 0.914562647784919D+02 0.311669269698010D+03
 0.391114104609812D+03 0.267409860008015D+03 -.759580078246488D+02 -.275122864630586D+03
 0.179732288375249D+02 -.549965629553497D+01 -.112150291053287D+02 -.129233841405279D+02
 0.889736983523128D+02 -.222652049130885D+02 -.198825696675105D+02 -.236230209268964D+02
 0.415231184845428D+03 -.224221055472348D+03 0.155993418189961D+02 -.349139679334530D+03
0.367020276499D-04 0.000000000000D+00 0.000000000000D+00 0.447732038210D-05 0.000000000000D+00  7 1 -1 24 -11 11 -24 21 0 0.63217623D-01 0.60224737D-01 0.53022240D+05 0.53022240D+05 0.53022240D+05 0.11450602D+01  1  2  2  2  7  2       -1 0.756143686882D-03 0.100000000000D+01
-.127563772914D-05 0.000000000000D+00 -.140945450042D-06 0.447732038210D-05 0.000000000000D+00  7 1 -1 24 -11 11 -24 21 2 0.63217623D-01 0.60224737D-01 0.53022240D+05 0.53022240D+05 0.53022240D+05 0.11450602D+01  1  2  3  2  7  2       -1 -.344586504750D-04 0.100000000000D+01
0.204818289216D-05 0.000000000000D+00 0.000000000000D+00 0.447732038210D-05 0.000000000000D+00  7 1 -1 24 -11 11 -24 21 2 0.63217623D-01 0.60224737D-01 0.53022240D+05 0.53022240D+05 0.53022240D+05 0.11450602D+01  1  2 15  2  7  2       -1 0.553273212117D-04 0.100000000000D+01
0.301598856853D-07 0.000000000000D+00 0.000000000000D+00 0.447732038210D-05 0.000000000000D+00  7 1 -1 24 -11 11 -24 21 2 0.63217623D-01 0.12023127D+00 0.13096446D+06 0.13096446D+06 0.13096446D+06 0.11122332D+01  1  2 12  2  7  2       -1 0.176710190015D-06 0.100000000000D+01
-.246018748804D-04 0.000000000000D+00 -.109935958382D-04 0.447732038210D-05 0.000000000000D+00  7 1 -1 24 -11 11 -24 21 2 0.63217623D-01 0.12808836D+00 0.53022240D+05 0.53022240D+05 0.53022240D+05 0.11450602D+01  1  2  5  2  7  2       -1 -.135719941394D-03 0.100000000000D+01
0.225625434028D-08 0.000000000000D+00 0.000000000000D+00 0.447732038210D-05 0.000000000000D+00  7 1 21 24 -11 11 -24 1 2 0.63217623D-01 0.12023127D+00 0.13096446D+06 0.13096446D+06 0.13096446D+06 0.11122332D+01  1  2 12  4  7  2       -1 0.888349178778D-07 0.100000000000D+01
-.132375080520D-05 0.000000000000D+00 -.897572672101D-06 0.447732038210D-05 0.000000000000D+00  7 1 21 24 -11 11 -24 1 2 0.63217623D-01 0.12808836D+00 0.53022240D+05 0.53022240D+05 0.53022240D+05 0.11450602D+01  1  2  5  4  7  2       -1 -.496248380247D-04 0.100000000000D+01
  </mgrwgt>
  </event>
  <event>
  8     66 0.27727860E-05 0.23422708E+03 0.75467711E-02 0.98004548E-01
        1 -1    0    0  501    0 0.00000000E+00 0.00000000E+00 0.35673582E+03 0.35673596E+03 0.32000000E+00 0.0000E+00 0.9000E+01
       -1 -1    0    0    0  501 0.00000000E+00 0.00000000E+00 -.40949818E+03 0.40949831E+03 0.32000000E+00 0.0000E+00 0.9000E+01
       25  2    1    2    0    0 -.18865647E+03 -.21104397E+03 0.11165410E+03 0.42658907E+03 0.29896618E+03 0.0000E+00 0.0000E+00
       23  2    1    2    0    0 0.18865647E+03 0.21104397E+03 -.16441646E+03 0.33964520E+03 0.90527715E+02 0.0000E+00 0.0000E+00
       24  1    3    3    0    0 0.13823069E+02 -.11029906E+03 -.39692867E+02 0.14282751E+03 0.80419002E+02 0.0000E+00 0.9000E+01
      -13  1    4    4    0    0 0.16605404E+03 0.17979098E+03 -.17352293E+03 0.30001493E+03 0.10565837E+00 0.0000E+00 0.9000E+01
       13  1    4    4    0    0 0.22602426E+02 0.31252988E+02 0.91064673E+01 0.39630264E+02 0.10565837E+00 0.0000E+00 0.9000E+01
      -24  1    3    3    0    0 -.20247954E+03 -.10074491E+03 0.15134697E+03 0.28376156E+03 0.80419002E+02 0.0000E+00 0.9000E+01
#aMCatNLO 1  0  0  1  2 0.86095654D+02 0.00000000D+00  -5  7  0 0.00000000D+00 0.00000000D+00 0.00000000D+00 0.00000000D+00 0.00000000D+00
  <mgrwgt>
 0.3998388365D-02    8    2    0
 0.382207759729278D+03 0.000000000000000D+00 0.000000000000000D+00 0.382207759729278D+03
 0.382207759729278D+03 0.000000000000000D+00 0.000000000000000D+00 -.382207759729278D+03
 0.140427612668129D+03 0.138230691312181D+02 -.110299057069372D+03 -.299289026644901D+02
 0.288751988842726D+03 0.166054236822624D+03 0.179791181901444D+03 -.153228040529036D+03
 0.403527735928439D+02 0.226022305426700D+02 0.312527856516881D+02 0.118637641640816D+02
 0.294883144354856D+03 -.202479536496512D+03 -.100744910483760D+03 0.171293179029444D+03
 0.000000000000000D+00 -.000000000000000D+00 -.000000000000000D+00 0.000000000000000D+00
 0.753481684490039D+03 0.000000000000000D+00 0.000000000000000D+00 0.753481684490039D+03
 0.389648280546372D+03 0.000000000000000D+00 0.000000000000000D+00 -.389648280546372D+03
 0.135410567333681D+03 0.264633150770214D+02 -.101354622645899D+03 -.299289026644901D+02
 0.317541434367018D+03 0.193837547982246D+03 0.199451084548883D+03 -.153228040529036D+03
 0.447191860316278D+02 0.265006411714587D+02 0.340113615824473D+02 0.118637641640816D+02
 0.271577502845033D+03 -.176521556715836D+03 -.823766406803404D+02 0.171293179029444D+03
 0.373881274459052D+03 -.702799475148907D+02 -.497311828050911D+02 0.363833403943667D+03
0.234335524729D-04 0.000000000000D+00 0.000000000000D+00 0.955004387077D-06 0.000000000000D+00  7 1 -1 24 -13 13 -24 21 0 0.54882454D-01 0.62999741D-01 0.10907951D+06 0.10907951D+06 0.10907951D+06 0.11186379D+01  1  2  2  1  7  1        1 0.527900702989D-03 0.100000000000D+01
-.126810115242D-05 0.000000000000D+00 -.899910116919D-07 0.955004387077D-06 0.000000000000D+00  7 1 -1 24 -13 13 -24 21 2 0.54882454D-01 0.62999741D-01 0.10907951D+06 0.10907951D+06 0.10907951D+06 0.11186379D+01  1  2  3  1  7  1        1 -.357476130165D-04 0.100000000000D+01
0.149430905361D-05 0.000000000000D+00 0.000000000000D+00 0.955004387077D-06 0.000000000000D+00  7 1 -1 24 -13 13 -24 21 2 0.54882454D-01 0.62999741D-01 0.10907951D+06 0.10907951D+06 0.10907951D+06 0.11186379D+01  1  2 15  1  7  1        1 0.421243854825D-04 0.100000000000D+01
0.145517331736D-03 0.000000000000D+00 0.000000000000D+00 0.955004387077D-06 0.000000000000D+00  7 1 -1 24 -13 13 -24 21 2 0.10822154D+00 0.62999741D-01 0.14067877D+06 0.14067877D+06 0.14067877D+06 0.11097574D+01  1  2 12  1  7  1        1 0.155341663658D-02 0.100000000000D+01
-.148432563056D-03 0.000000000000D+00 -.780518203604D-05 0.955004387077D-06 0.000000000000D+00  7 1 -1 24 -13 13 -24 21 2 0.10896918D+00 0.62999741D-01 0.10907951D+06 0.10907951D+06 0.10907951D+06 0.11186379D+01  1  2  5  1  7  1        1 -.160678959058D-02 0.100000000000D+01
0.124797292051D-03 0.000000000000D+00 0.627135732720D-05 0.955004387077D-06 0.000000000000D+00  7 1 -1 24 -13 13 -24 21 2 0.54882454D-01 0.62999741D-01 0.10907951D+06 0.10907951D+06 0.10907951D+06 0.11186379D+01  1  2  6  1  7  1        1 0.351802006743D-02 0.100000000000D+01
0.106988774358D-04 0.000000000000D+00 0.000000000000D+00 0.955004387077D-06 0.000000000000D+00  7 21 -1 24 -13 13 -24 -1 2 0.10822154D+00 0.62999741D-01 0.14067877D+06 0.14067877D+06 0.14067877D+06 0.11097574D+01  1  2 12  3  7  1        1 0.236835388148D-03 0.100000000000D+01
-.105539189495D-04 0.000000000000D+00 -.579446241069D-06 0.955004387077D-06 0.000000000000D+00  7 21 -1 24 -13 13 -24 -1 2 0.10896918D+00 0.62999741D-01 0.10907951D+06 0.10907951D+06 0.10907951D+06 0.11186379D+01  1  2  5  3  7  1        1 -.237371611681D-03 0.100000000000D+01
  </mgrwgt>
  </event>
  <event>
  8     66 0.27727860E-05 0.16290655E+03 0.75467711E-02 0.93794443E-01
        1 -1    0    0  501    0 0.00000000E+00 0.00000000E+00 0.70356973E+03 0.70356980E+03 0.32000000E+00 0.0000E+00 0.9000E+01
       -1 -1    0    0    0  501 0.00000000E+00 0.00000000E+00 -.43680886E+03 0.43680898E+03 0.32000000E+00 0.0000E+00 0.9000E+01
       25  2    1    2    0    0 -.48292584E+03 0.11658375E+03 0.25052209E+03 0.63518607E+03 0.30641621E+03 0.0000E+00 0.0000E+00
       23  2    1    2    0    0 0.48292584E+03 -.11658375E+03 0.16238782E+02 0.50519271E+03 0.90259824E+02 0.0000E+00 0.0000E+00
       24  1    3    3    0    0 -.17918568E+03 -.25492526E+02 -.16952414E+02 0.19877620E+03 0.80419002E+02 0.0000E+00 0.9000E+01
      -13  1    4    4    0    0 0.36350156E+03 -.92309549E+02 0.50937926E+02 0.37848266E+03 0.10565837E+00 0.0000E+00 0.9000E+01
       13  1    4    4    0    0 0.11942428E+03 -.24274199E+02 -.34699144E+02 0.12671005E+03 0.10565837E+00 0.0000E+00 0.9000E+01
      -24  1    3    3    0    0 -.30374017E+03 0.14207627E+03 0.26747450E+03 0.43640988E+03 0.80419002E+02 0.0000E+00 0.9000E+01
#aMCatNLO 1  0  0  2  1 0.36315792D+02 0.00000000D+00  -5  7  0 0.00000000D+00 0.00000000D+00 0.00000000D+00 0.00000000D+00 0.00000000D+00
  <mgrwgt>
 0.8102919106D-03    9    2    0
 0.554369553953146D+03 0.000000000000000D+00 0.000000000000000D+00 0.554369553953146D+03
 0.554369553953146D+03 0.000000000000000D+00 0.000000000000000D+00 -.554369553953146D+03
 0.208527322203613D+03 -.179185676914528D+03 -.254925261418668D+02 -.652614162474825D+02
 0.377028021145933D+03 0.363501898876424D+03 -.923096423248977D+02 -.386707664302296D+02
 0.138674160755897D+03 0.119423944843127D+03 -.242741053087790D+02 -.661756153799594D+02
 0.384509603800850D+03 -.303740166805023D+03 0.142076273775544D+03 0.170107798057672D+03
 0.000000000000000D+00 -.000000000000000D+00 -.000000000000000D+00 -.000000000000000D+00
 0.556209103590867D+03 0.000000000000000D+00 0.000000000000000D+00 0.556209103590867D+03
 0.768450514835173D+03 0.000000000000000D+00 0.000000000000000D+00 -.768450514835173D+03
 0.205671994979496D+03 -.176652156291144D+03 -.192019996754910D+02 -.652614162474825D+02
 0.378873644716335D+03 0.368125500075811D+03 -.808296151065474D+02 -.386707664302296D+02
 0.139472364542836D+03 0.121125275407744D+03 -.200498393422838D+02 -.661756153799594D+02
 0.385315690455892D+03 -.299031399362656D+03 0.153767761875865D+03 0.170107798057672D+03
 0.215325923731480D+03 -.135672198297549D+02 -.336863077515429D+02 -.212241411244306D+03
0.927770746684D-04 0.000000000000D+00 0.000000000000D+00 0.460264364254D-07 0.000000000000D+00  7 1 -1 24 -13 13 -24 21 0 0.10824151D+00 0.67201378D-01 0.27029198D+06 0.27029198D+06 0.27029198D+06 0.10879185D+01  1  2  2  2  7  2       -1 0.694922322233D-03 0.100000000000D+01
-.512845019349D-05 0.000000000000D+00 -.356288395491D-06 0.460264364254D-07 0.000000000000D+00  7 1 -1 24 -13 13 -24 21 2 0.10824151D+00 0.67201378D-01 0.27029198D+06 0.27029198D+06 0.27029198D+06 0.10879185D+01  1  2  3  2  7  2       -1 -.454647099148D-04 0.100000000000D+01
0.564776647216D-05 0.000000000000D+00 0.000000000000D+00 0.460264364254D-07 0.000000000000D+00  7 1 -1 24 -13 13 -24 21 2 0.10824151D+00 0.67201378D-01 0.27029198D+06 0.27029198D+06 0.27029198D+06 0.10879185D+01  1  2 15  2  7  2       -1 0.500685498807D-04 0.100000000000D+01
0.215783762656D-02 0.000000000000D+00 0.000000000000D+00 0.460264364254D-07 0.000000000000D+00  7 1 -1 24 -13 13 -24 21 2 0.10824151D+00 0.93232010D-01 0.28985352D+06 0.28985352D+06 0.28985352D+06 0.10856591D+01  1  2 12  2  7  2       -1 0.972735880912D-02 0.100000000000D+01
-.205817304983D-02 0.000000000000D+00 0.000000000000D+00 0.460264364254D-07 0.000000000000D+00  7 1 -1 24 -13 13 -24 21 2 0.10824151D+00 0.67201378D-01 0.27029198D+06 0.27029198D+06 0.27029198D+06 0.10879185D+01  1  2  4  2  7  2       -1 -.182461049897D-01 0.100000000000D+01
-.220774710610D-02 0.000000000000D+00 -.424449003348D-04 0.460264364254D-07 0.000000000000D+00  7 1 -1 24 -13 13 -24 21 2 0.10824151D+00 0.93275895D-01 0.27029198D+06 0.27029198D+06 0.27029198D+06 0.10879185D+01  1  2  5  2  7  2       -1 -.100137078231D-01 0.100000000000D+01
0.210944750613D-02 0.000000000000D+00 0.402614450636D-04 0.460264364254D-07 0.000000000000D+00  7 1 -1 24 -13 13 -24 21 2 0.10824151D+00 0.67201378D-01 0.27029198D+06 0.27029198D+06 0.27029198D+06 0.10879185D+01  1  2  6  2  7  2       -1 0.187006630324D-01 0.100000000000D+01
0.888372405563D-04 0.000000000000D+00 0.000000000000D+00 0.460264364254D-07 0.000000000000D+00  7 1 21 24 -13 13 -24 1 2 0.10824151D+00 0.93232010D-01 0.28985352D+06 0.28985352D+06 0.28985352D+06 0.10856591D+01  1  2 12  4  7  2       -1 0.285975974119D-02 0.100000000000D+01
-.898962446630D-04 0.000000000000D+00 -.174924696253D-05 0.460264364254D-07 0.000000000000D+00  7 1 21 24 -13 13 -24 1 2 0.10824151D+00 0.93275895D-01 0.27029198D+06 0.27029198D+06 0.27029198D+06 0.10879185D+01  1  2  5  4  7  2       -1 -.291720302154D-02 0.100000000000D+01
  </mgrwgt>
  </event>
  <event>
  9     66 -.27727860E-05 0.18692180E+03 0.75467711E-02 0.10707632E+00
        1 -1    0    0  501    0 0.00000000E+00 0.00000000E+00 0.17540647E+04 0.17540647E+04 0.32000000E+00 0.0000E+00 0.9000E+01
       -1 -1    0    0    0  502 0.00000000E+00 0.00000000E+00 -.48343488E+02 0.48344547E+02 0.32000000E+00 0.0000E+00 0.9000E+01
       25  2    1    2    0    0 -.43093728E+02 0.51762223E+01 0.16583885E+04 0.16860054E+04 0.30079548E+03 0.0000E+00 0.0000E+00
       23  2    1    2    0    0 0.41905366E+02 0.84440175E+00 0.42892347E+02 0.10879206E+03 0.90769963E+02 0.0000E+00 0.0000E+00
       24  1    3    3    0    0 0.80283719E+02 -.62260587E+02 0.50776312E+03 0.52403478E+03 0.80419002E+02 0.0000E+00 0.9000E+01
      -13  1    4    4    0    0 0.60010185E+02 -.10310001E+02 -.31299696E-01 0.60889495E+02 0.10565837E+00 0.0000E+00 0.9000E+01
       13  1    4    4    0    0 -.18104819E+02 0.11154402E+02 0.42923647E+02 0.47902566E+02 0.10565837E+00 0.0000E+00 0.9000E+01
      -24  1    3    3    0    0 -.12337745E+03 0.67436810E+02 0.11506254E+04 0.11619706E+04 0.80419002E+02 0.0000E+00 0.9000E+01
       21  1    1    2  501  502 0.11883622E+01 -.60206241E+01 0.44403149E+01 0.76117683E+01 0.75000000E+00 0.0000E+00 0.9000E+01
#aMCatNLO 2  0  0  2  1 0.61367841D+01 0.00000000D+00  -5  7  0 0.00000000D+00 0.00000000D+00 0.00000000D+00 0.00000000D+00 0.00000000D+00
  <mgrwgt>
 -.3862745404D-03    3    2    0
 0.285877480056710D+03 0.000000000000000D+00 0.000000000000000D+00 0.285877480056710D+03
 0.285877480056710D+03 0.000000000000000D+00 0.000000000000000D+00 -.285877480056710D+03
 0.134950968850209D+03 0.805633343274096D+02 -.636772184408255D+02 0.346310417534455D+02
 0.191465027059563D+03 0.604079755951567D+02 -.123248268898796D+02 -.181267293557190D+03
 0.224946403786409D+02 -.180580123500208D+02 0.109167582340483D+02 -.779367855317474D+01
 0.222844323825008D+03 -.122913297572545D+03 0.650852870966569D+02 0.154429930356920D+03
 0.000000000000000D+00 0.000000000000000D+00 -.000000000000000D+00 -.000000000000000D+00
 0.286866367420963D+03 0.000000000000000D+00 0.000000000000000D+00 0.286866367420963D+03
 0.295575998154898D+03 0.000000000000000D+00 0.000000000000000D+00 -.295575998154898D+03
 0.134120769323075D+03 0.802837167502209D+02 -.622605860981441D+02 0.346310417534455D+02
 0.191220719224707D+03 0.600102910894293D+02 -.103100296133245D+02 -.181267293557190D+03
 0.226484229875581D+02 -.181049247239886D+02 0.111544313692740D+02 -.779367855317474D+01
 0.223797981422825D+03 -.123377445312889D+03 0.674368084400705D+02 0.154429930356920D+03
 0.106544726176956D+02 0.118836219722710D+01 -.602062409787585D+01 -.870963073393495D+01
-.297334740958D-04 0.000000000000D+00 0.000000000000D+00 0.993002750047D-06 0.000000000000D+00  7 1 -1 24 -13 13 -24 21 2 0.26891361D+00 0.74494017D-02 0.36070052D+05 0.36070052D+05 0.36070052D+05 0.11599830D+01  1  2 13  2  7  2       -1 -.207951856894D-02 0.100000000000D+01
-.945547414842D-04 0.000000000000D+00 0.000000000000D+00 0.993002750047D-06 0.000000000000D+00  7 1 -1 24 -13 13 -24 21 2 0.26891361D+00 0.71931711D-02 0.34939760D+05 0.34939760D+05 0.34939760D+05 0.11612433D+01  1  2  8  2  7  2       -1 -.698720499708D-02 0.100000000000D+01
0.124924479356D-03 0.000000000000D+00 0.000000000000D+00 0.993002750047D-06 0.189327472443D-06  7 1 -1 24 -13 13 -24 21 2 0.26984382D+00 0.74372026D-02 0.36070052D+05 0.36070052D+05 0.36070052D+05 0.11599830D+01  1  2  1  2  7  2       -1 0.868044902564D-02 0.100000000000D+01
  </mgrwgt>
  </event>
  <event>
  8     66 0.27727860E-05 0.51493172E+03 0.75467711E-02 0.92620387E-01
        1 -1    0    0  501    0 0.00000000E+00 0.00000000E+00 0.22596534E+04 0.22596535E+04 0.32000000E+00 0.0000E+00 0.9000E+01
       -1 -1    0    0    0  501 0.00000000E+00 0.00000000E+00 -.12563837E+03 0.12563877E+03 0.32000000E+00 0.0000E+00 0.9000E+01
       25  2    1    2    0    0 0.37313040E+03 0.30611790E+03 0.10176265E+04 0.11655830E+04 0.30014254E+03 0.0000E+00 0.0000E+00
       23  2    1    2    0    0 -.37313040E+03 -.30611790E+03 0.11163886E+04 0.12197093E+04 0.91829851E+02 0.0000E+00 0.0000E+00
       24  1    3    3    0    0 0.30231576E+03 0.30723544E+03 0.66101548E+03 0.79321946E+03 0.80419002E+02 0.0000E+00 0.9000E+01
      -11  1    4    4    0    0 -.24141423E+03 -.17328056E+03 0.58110875E+03 0.65268243E+03 0.51099893E-03 0.0000E+00 0.9000E+01
       11  1    4    4    0    0 -.13171618E+03 -.13283734E+03 0.53527985E+03 0.56702683E+03 0.51099893E-03 0.0000E+00 0.9000E+01
      -24  1    3    3    0    0 0.70814646E+02 -.11175433E+01 0.35661098E+03 0.37236350E+03 0.80419002E+02 0.0000E+00 0.9000E+01
#aMCatNLO 1  0  0  1  1 0.15780890D+03 0.00000000D+00  -5  7  0 0.00000000D+00 0.00000000D+00 0.00000000D+00 0.00000000D+00 0.00000000D+00
  <mgrwgt>
 0.3993101588D-03    4    2    0
 0.532822368283648D+03 0.000000000000000D+00 0.000000000000000D+00 0.532822368283648D+03
 0.532822368283648D+03 0.000000000000000D+00 0.000000000000000D+00 -.532822368283648D+03
 0.451785861253648D+03 0.302315758335068D+03 0.307235443005286D+03 -.108879811250609D+03
 0.297231805592194D+03 -.241414225110691D+03 -.173280559877954D+03 -.630600810202285D+01
 0.197279096813609D+03 -.131716179135475D+03 -.132837339852543D+03 0.626428873412182D+02
 0.119347972907846D+03 0.708146459110985D+02 -.111754327478891D+01 0.525429320114138D+02
 0.000000000000000D+00 0.000000000000000D+00 0.000000000000000D+00 -.000000000000000D+00
 0.593378235767002D+03 0.000000000000000D+00 0.000000000000000D+00 0.593378235767002D+03
 0.652358418545582D+03 0.000000000000000D+00 0.000000000000000D+00 -.652358418545582D+03
 0.393589820447928D+03 0.265723983723787D+03 0.256868997704772D+03 -.108879811250609D+03
 0.342246555336175D+03 -.269093810126413D+03 -.211379895574165D+03 -.630600810202285D+01
 0.226810156904703D+03 -.150072726080251D+03 -.158104056961019D+03 0.626428873412182D+02
 0.114619615505235D+03 0.606874451329495D+02 -.150570449649505D+02 0.525429320114138D+02
 0.168470506118544D+03 0.927551073499271D+02 0.127671999795362D+03 -.589801827785804D+02
0.119769604406D-03 0.000000000000D+00 0.000000000000D+00 0.634814142643D-05 0.000000000000D+00  7 1 -1 24 -11 11 -24 21 0 0.34763902D+00 0.19329012D-01 0.26515467D+06 0.26515467D+06 0.26515467D+06 0.10885415D+01  1  2  2  1  7  1        1 0.613413052419D-03 0.100000000000D+01
-.664442992063D-05 0.000000000000D+00 -.459946816981D-06 0.634814142643D-05 0.000000000000D+00  7 1 -1 24 -11 11 -24 21 2 0.34763902D+00 0.19329012D-01 0.26515467D+06 0.26515467D+06 0.26515467D+06 0.10885415D+01  1  2  3  1  7  1        1 -.403231168643D-04 0.100000000000D+01
0.743758917927D-05 0.000000000000D+00 0.000000000000D+00 0.634814142643D-05 0.000000000000D+00  7 1 -1 24 -11 11 -24 21 2 0.34763902D+00 0.19329012D-01 0.26515467D+06 0.26515467D+06 0.26515467D+06 0.10885415D+01  1  2 15  1  7  1        1 0.451365702170D-04 0.100000000000D+01
-.360729635683D-04 0.000000000000D+00 0.000000000000D+00 0.634814142643D-05 0.000000000000D+00  7 1 -1 24 -11 11 -24 21 2 0.34763902D+00 0.19329012D-01 0.26515467D+06 0.26515467D+06 0.26515467D+06 0.10885415D+01  1  2  4  1  7  1        1 -.218916346922D-03 0.100000000000D+01
  </mgrwgt>
  </event>
  <event>
  8     66 0.27727860E-05 0.12758313E+03 0.75467711E-02 0.97237281E-01
        1 -1    0    0  501    0 0.00000000E+00 0.00000000E+00 0.42011265E+03 0.42011277E+03 0.32000000E+00 0.0000E+00 0.9000E+01
       -1 -1    0    0    0  501 0.00000000E+00 0.00000000E+00 -.29015785E+03 0.29015803E+03 0.32000000E+00 0.0000E+00 0.9000E+01
       25  2    1    2    0    0 0.22744793E+03 0.91858723E+02 -.53225554E+02 0.39096959E+03 0.29975603E+03 0.0000E+00 0.0000E+00
       23  2    1    2    0    0 -.22744793E+03 -.91858723E+02 0.18318035E+03 0.31930121E+03 0.90706310E+02 0.0000E+00 0.0000E+00
       24  1    3    3    0    0 -.43422966E+02 0.35119297E+02 -.56095234E-01 0.97908825E+02 0.80419002E+02 0.0000E+00 0.9000E+01
      -11  1    4    4    0    0 0.39105928E+01 0.83677086E+01 0.45132365E+01 0.10280106E+02 0.51099893E-03 0.0000E+00 0.9000E+01
       11  1    4    4    0    0 -.23135852E+03 -.10022643E+03 0.17866711E+03 0.30902110E+03 0.51099893E-03 0.0000E+00 0.9000E+01
      -24  1    3    3    0    0 0.27087089E+03 0.56739425E+02 -.53169459E+02 0.29306076E+03 0.80419002E+02 0.0000E+00 0.9000E+01
#aMCatNLO 1  0  0  2  1 0.13668593D+03 0.00000000D+00  -5  7  0 0.00000000D+00 0.00000000D+00 0.00000000D+00 0.00000000D+00 0.00000000D+00
  <mgrwgt>
 0.9313243635D-03    9    2    0
 0.349140500418051D+03 0.000000000000000D+00 0.000000000000000D+00 0.349140500418051D+03
 0.349140500418051D+03 0.000000000000000D+00 0.000000000000000D+00 -.349140500418051D+03
 0.996004033475022D+02 -.434229657012942D+02 0.351192973133799D+02 -.182785502306185D+02
 0.961667663066876D+01 0.391059275966071D+01 0.836770858149349D+01 0.267753371260577D+01
 0.281075978283586D+03 -.231358522021873D+03 -.100226431097150D+03 0.124224000762565D+03
 0.307987942574346D+03 0.270870894963507D+03 0.567394252022767D+02 -.108622984244552D+03
 0.000000000000000D+00 0.000000000000000D+00 0.000000000000000D+00 -.000000000000000D+00
 0.408154378717389D+03 0.000000000000000D+00 0.000000000000000D+00 0.408154378717389D+03
 0.444923958192246D+03 0.000000000000000D+00 0.000000000000000D+00 -.444923958192246D+03
 0.100161316353001D+03 -.536805989554698D+02 0.186912074635178D+02 -.182785502306185D+02
 0.800440614822990D+01 0.300576171916704D+01 0.691857842994286D+01 0.267753371260577D+01
 0.327037336237267D+03 -.262584741773526D+03 -.150236714272645D+03 0.124224000762565D+03
 0.276330073995955D+03 0.240866548150856D+03 0.868602992963917D+01 -.108622984244552D+03
 0.141545204175181D+03 0.723930308589731D+02 0.115940898449545D+03 -.367695794748567D+02
0.204963066139D-04 0.000000000000D+00 0.000000000000D+00 0.312810419729D-05 0.000000000000D+00  7 1 -1 24 -11 11 -24 21 0 0.64632738D-01 0.44639692D-01 0.10480678D+06 0.10480678D+06 0.10480678D+06 0.11200527D+01  1  2  2  2  7  2       -1 0.695438317145D-03 0.100000000000D+01
-.113078400247D-05 0.000000000000D+00 -.787112141989D-07 0.312810419729D-05 0.000000000000D+00  7 1 -1 24 -11 11 -24 21 2 0.64632738D-01 0.44639692D-01 0.10480678D+06 0.10480678D+06 0.10480678D+06 0.11200527D+01  1  2  3  2  7  2       -1 -.481326275440D-04 0.100000000000D+01
0.133870557912D-05 0.000000000000D+00 0.000000000000D+00 0.312810419729D-05 0.000000000000D+00  7 1 -1 24 -11 11 -24 21 2 0.64632738D-01 0.44639692D-01 0.10480678D+06 0.10480678D+06 0.10480678D+06 0.11200527D+01  1  2 15  2  7  2       -1 0.569829577444D-04 0.100000000000D+01
0.934150190057D-05 0.000000000000D+00 0.000000000000D+00 0.312810419729D-05 0.000000000000D+00  7 1 -1 24 -11 11 -24 21 2 0.64632738D-01 0.59810261D-01 0.15972797D+06 0.15972797D+06 0.15972797D+06 0.11054048D+01  1  2 12  2  7  2       -1 0.225969744820D-03 0.100000000000D+01
-.112266038692D-04 0.000000000000D+00 0.000000000000D+00 0.312810419729D-05 0.000000000000D+00  7 1 -1 24 -11 11 -24 21 2 0.64632738D-01 0.44639692D-01 0.10480678D+06 0.10480678D+06 0.10480678D+06 0.11200527D+01  1  2  4  2  7  2       -1 -.477868400545D-03 0.100000000000D+01
-.199427337301D-04 0.000000000000D+00 -.866877719438D-05 0.312810419729D-05 0.000000000000D+00  7 1 -1 24 -11 11 -24 21 2 0.64632738D-01 0.65171554D-01 0.10480678D+06 0.10480678D+06 0.10480678D+06 0.11200527D+01  1  2  5  2  7  2       -1 -.425188064680D-03 0.100000000000D+01
0.222001943960D-04 0.000000000000D+00 0.808314143653D-05 0.312810419729D-05 0.000000000000D+00  7 1 -1 24 -11 11 -24 21 2 0.64632738D-01 0.44639692D-01 0.10480678D+06 0.10480678D+06 0.10480678D+06 0.11200527D+01  1  2  6  2  7  2       -1 0.944967107717D-03 0.100000000000D+01
0.354593808551D-06 0.000000000000D+00 0.000000000000D+00 0.312810419729D-05 0.000000000000D+00  7 1 21 24 -11 11 -24 1 2 0.64632738D-01 0.59810261D-01 0.15972797D+06 0.15972797D+06 0.15972797D+06 0.11054048D+01  1  2 12  4  7  2       -1 0.736519056282D-04 0.100000000000D+01
-.637473028133D-06 0.000000000000D+00 -.396238238193D-06 0.312810419729D-05 0.000000000000D+00  7 1 21 24 -11 11 -24 1 2 0.64632738D-01 0.65171554D-01 0.10480678D+06 0.10480678D+06 0.10480678D+06 0.11200527D+01  1  2  5  4  7  2       -1 -.114496576809D-03 0.100000000000D+01
  </mgrwgt>
  </event>
  <event>
  7     66 0.27727860E-05 0.25263603E+03 0.75467711E-02 0.89463945E-01
        1 -1    0    0  501    0 0.00000000E+00 0.00000000E+00 0.87099819E+03 0.87099824E+03 0.32000000E+00 0.0000E+00 0.9000E+01
       -1 -1    0    0    0  501 0.00000000E+00 0.00000000E+00 -.57038311E+03 0.57038320E+03 0.32000000E+00 0.0000E+00 0.9000E+01
       25  2    1    2    0    0 0.60847323E+03 -.97506531E+02 0.38957367E+03 0.78693078E+03 0.29621818E+03 0.0000E+00 0.0000E+00
       24  1    3    3    0    0 0.18772812E+03 -.13245599E+03 0.20869040E+03 0.32063271E+03 0.80419002E+02 0.0000E+00 0.9000E+01
      -11  1    1    2    0    0 -.14986806E+03 -.53804560E+02 0.16694129E+02 0.16010641E+03 0.51099893E-03 0.0000E+00 0.9000E+01
       11  1    1    2    0    0 -.45860517E+03 0.15131109E+03 -.10565272E+03 0.49434425E+03 0.51099893E-03 0.0000E+00 0.9000E+01
      -24  1    3    3    0    0 0.42074511E+03 0.34949464E+02 0.18088327E+03 0.46629807E+03 0.80419002E+02 0.0000E+00 0.9000E+01
#aMCatNLO 1  0  0  1  2 0.27723062D+03 0.00000000D+00  -5  7  0 0.00000000D+00 0.00000000D+00 0.00000000D+00 0.00000000D+00 0.00000000D+00
  <mgrwgt>
 0.2739794174D-02    9    2    0
 0.704842364491764D+03 0.000000000000000D+00 0.000000000000000D+00 0.704842364491764D+03
 0.704842364491764D+03 0.000000000000000D+00 0.000000000000000D+00 -.704842364491764D+03
 0.283338926137612D+03 0.187728116667150D+03 -.132455994979045D+03 0.145007912601901D+03
 0.160146372756778D+03 -.149868064858668D+03 -.538045587962392D+02 -.170731747315277D+02
 0.527989996667045D+03 -.458605166371301D+03 0.151311089770646D+03 -.213447164587487D+03
 0.438209433422092D+03 0.420745114562818D+03 0.349494640046391D+02 0.855124267171135D+02
 0.000000000000000D+00 0.000000000000000D+00 -.000000000000000D+00 0.000000000000000D+00
 0.131217502427866D+04 0.000000000000000D+00 0.000000000000000D+00 0.131217502427866D+04
 0.750699511907155D+03 0.000000000000000D+00 0.000000000000000D+00 -.750699511907155D+03
 0.255605649053172D+03 0.176806289284591D+03 -.811127192601492D+02 0.145007912601901D+03
 0.158996566076938D+03 -.156335564948209D+03 -.234009799189904D+02 -.170731747315277D+02
 0.585974630124864D+03 -.481179898401567D+03 0.257434419714597D+03 -.213447164587487D+03
 0.436109567855717D+03 0.403026852520999D+03 0.118242632941325D+03 0.855124267171135D+02
 0.626188123075119D+03 0.576823215441859D+02 -.271163353476783D+03 0.561475512371500D+03
0.918987612711D-03 0.000000000000D+00 0.000000000000D+00 0.390275473020D-10 0.000000000000D+00  7 1 -1 24 -11 11 -24 21 0 0.13399973D+00 0.87751259D-01 0.43254396D+06 0.43254396D+06 0.43254396D+06 0.10729873D+01  1  2  2  1  7  1        1 0.280129334691D-02 0.100000000000D+01
-.507571423423D-04 0.000000000000D+00 -.352915440780D-05 0.390275473020D-10 0.000000000000D+00  7 1 -1 24 -11 11 -24 21 2 0.13399973D+00 0.87751259D-01 0.43254396D+06 0.43254396D+06 0.43254396D+06 0.10729873D+01  1  2  3  1  7  1        1 -.178129248108D-03 0.100000000000D+01
0.575513741519D-04 0.000000000000D+00 0.000000000000D+00 0.390275473020D-10 0.000000000000D+00  7 1 -1 24 -11 11 -24 21 2 0.13399973D+00 0.87751259D-01 0.43254396D+06 0.43254396D+06 0.43254396D+06 0.10729873D+01  1  2 15  1  7  1        1 0.201973210708D-03 0.100000000000D+01
0.126940741708D-02 0.000000000000D+00 0.000000000000D+00 0.390275473020D-10 0.000000000000D+00  7 1 -1 24 -11 11 -24 21 2 0.25037095D+00 0.87751259D-01 0.65542006D+06 0.65542006D+06 0.65542006D+06 0.10603005D+01  1  2 12  1  7  1        1 0.120947571321D-02 0.100000000000D+01
-.144248586599D-02 0.000000000000D+00 0.000000000000D+00 0.390275473020D-10 0.000000000000D+00  7 1 -1 24 -11 11 -24 21 2 0.13399973D+00 0.87751259D-01 0.43254396D+06 0.43254396D+06 0.43254396D+06 0.10729873D+01  1  2  4  1  7  1        1 -.506232051011D-02 0.100000000000D+01
-.160027877286D-02 0.000000000000D+00 -.286264926131D-03 0.390275473020D-10 0.000000000000D+00  7 1 -1 24 -11 11 -24 21 2 0.25493720D+00 0.87751259D-01 0.43254396D+06 0.43254396D+06 0.43254396D+06 0.10729873D+01  1  2  5  1  7  1        1 -.153101138560D-02 0.100000000000D+01
0.151134179087D-02 0.000000000000D+00 0.235789590134D-03 0.390275473020D-10 0.000000000000D+00  7 1 -1 24 -11 11 -24 21 2 0.13399973D+00 0.87751259D-01 0.43254396D+06 0.43254396D+06 0.43254396D+06 0.10729873D+01  1  2  6  1  7  1        1 0.530396638616D-02 0.100000000000D+01
0.864212818513D-04 0.000000000000D+00 0.000000000000D+00 0.390275473020D-10 0.000000000000D+00  7 21 -1 24 -11 11 -24 -1 2 0.25037095D+00 0.87751259D-01 0.65542006D+06 0.65542006D+06 0.65542006D+06 0.10603005D+01  1  2 12  3  7  1        1 0.549378689341D-04 0.100000000000D+01
-.954487634855D-04 0.000000000000D+00 -.200028313587D-04 0.390275473020D-10 0.000000000000D+00  7 21 -1 24 -11 11 -24 -1 2 0.25493720D+00 0.87751259D-01 0.43254396D+06 0.43254396D+06 0.43254396D+06 0.10729873D+01  1  2  5  3  7  1        1 -.603912080634D-04 0.100000000000D+01
  </mgrwgt>
  </event>
  <event>
  8     66 0.27727860E-05 0.22047110E+03 0.75467711E-02 0.95142402E-01
        1 -1    0    0  501    0 0.00000000E+00 0.00000000E+00 0.15350916E+04 0.15350916E+04 0.32000000E+00 0.0000E+00 0.9000E+01
       -1 -1    0    0    0  501 0.00000000E+00 0.00000000E+00 -.38311444E+02 0.38312780E+02 0.32000000E+00 0.0000E+00 0.9000E+01
       25  2    1    2    0    0 0.71565976E+02 -.10209837E+03 0.11095070E+04 0.11564353E+04 0.30131537E+03 0.0000E+00 0.0000E+00
       23  2    1    2    0    0 -.71565976E+02 0.10209837E+03 0.38727307E+03 0.41696908E+03 0.91307236E+02 0.0000E+00 0.0000E+00
       24  1    3    3    0    0 0.10896268E+03 0.38490603E+02 0.31973080E+03 0.34935568E+03 0.80419002E+02 0.0000E+00 0.9000E+01
      -11  1    4    4    0    0 -.37564339E+02 0.15037766E+02 0.38364607E+02 0.55758919E+02 0.51099893E-03 0.0000E+00 0.9000E+01
       11  1    4    4    0    0 -.34001637E+02 0.87060606E+02 0.34890847E+03 0.36121016E+03 0.51099893E-03 0.0000E+00 0.9000E+01
      -24  1    3    3    0    0 -.37396705E+02 -.14058898E+03 0.78977624E+03 0.80707962E+03 0.80419002E+02 0.0000E+00 0.9000E+01
#aMCatNLO 1  0  0  2  1 0.37453254D+03 0.00000000D+00  -5  7  0 0.00000000D+00 0.00000000D+00 0.00000000D+00 0.00000000D+00 0.00000000D+00
  <mgrwgt>
 0.1074651190D-02    3    2    0
 0.242513199252426D+03 0.000000000000000D+00 0.000000000000000D+00 0.242513199252426D+03
 0.242513199252426D+03 0.000000000000000D+00 0.000000000000000D+00 -.242513199252426D+03
 0.146612751932483D+03 0.108962681548094D+03 0.384906032346503D+02 -.409107634654570D+02
 0.624872092884709D+02 -.375643390029781D+02 0.150377665285337D+02 -.476176158345188D+02
 0.950265553180189D+02 -.340016372195375D+02 0.870606060396596D+02 0.171576734438756D+02
 0.180899881965880D+03 -.373967053255787D+02 -.140588975802844D+03 0.713707058561002D+02
 0.000000000000000D+00 0.000000000000000D+00 -.000000000000000D+00 0.000000000000000D+00
 0.715091017095000D+03 0.000000000000000D+00 0.000000000000000D+00 0.715091017095000D+03
 0.392207949236681D+03 0.000000000000000D+00 0.000000000000000D+00 -.392207949236681D+03
 0.126747991072566D+03 0.278674676082979D+02 0.845431899583560D+02 -.409107634654570D+02
 0.109906319309600D+03 -.887066132366955D+02 0.440805904508467D+02 -.476176158345188D+02
 0.176089097450225D+03 -.114430822558934D+03 0.132734966498334D+03 0.171576734438756D+02
 0.200057729818851D+03 -.150411612623757D+03 -.764097404747917D+02 0.713707058561002D+02
 0.494497828680439D+03 0.325681580811089D+03 -.184949006432745D+03 0.322883067858319D+03
0.105294022802D-04 0.000000000000D+00 0.000000000000D+00 0.158828129126D-06 0.000000000000D+00  7 1 -1 24 -11 11 -24 21 0 0.23616804D+00 0.58941737D-02 0.48607508D+05 0.48607508D+05 0.48607508D+05 0.11483759D+01  1  2  2  2  7  2       -1 0.106179858787D-02 0.100000000000D+01
-.578508722799D-06 0.000000000000D+00 -.404356772111D-07 0.158828129126D-06 0.000000000000D+00  7 1 -1 24 -11 11 -24 21 2 0.23616804D+00 0.58941737D-02 0.48607508D+05 0.48607508D+05 0.48607508D+05 0.11483759D+01  1  2  3  2  7  2       -1 -.769336774747D-04 0.100000000000D+01
0.675154854273D-06 0.000000000000D+00 0.000000000000D+00 0.158828129126D-06 0.000000000000D+00  7 1 -1 24 -11 11 -24 21 2 0.23616804D+00 0.58941737D-02 0.48607508D+05 0.48607508D+05 0.48607508D+05 0.11483759D+01  1  2 15  2  7  2       -1 0.897862793716D-04 0.100000000000D+01
  </mgrwgt>
  </event>
  <event>
  8     66 0.27727860E-05 0.91139793E+02 0.75467711E-02 0.10855547E+00
        1 -1    0    0  501    0 0.00000000E+00 0.00000000E+00 0.20484347E+03 0.20484372E+03 0.32000000E+00 0.0000E+00 0.9000E+01
       -1 -1    0    0    0  501 0.00000000E+00 0.00000000E+00 -.22056622E+03 0.22056645E+03 0.32000000E+00 0.0000E+00 0.9000E+01
       25  2    1    2    0    0 -.10329272E+02 0.70410594E+02 -.20561134E+01 0.30840978E+03 0.30008002E+03 0.0000E+00 0.0000E+00
       23  2    1    2    0    0 0.10329272E+02 -.70410594E+02 -.13666637E+02 0.11700039E+03 0.91858423E+02 0.0000E+00 0.0000E+00
       24  1    3    3    0    0 -.29283224E+02 -.49915439E+02 -.93450336E+02 0.13619559E+03 0.80419002E+02 0.0000E+00 0.9000E+01
      -13  1    4    4    0    0 0.21487501E+02 -.63800208E+02 0.28335265E+02 0.73041616E+02 0.10565837E+00 0.0000E+00 0.9000E+01
       13  1    4    4    0    0 -.11158229E+02 -.66103860E+01 -.42001902E+02 0.43958779E+02 0.10565837E+00 0.0000E+00 0.9000E+01
      -24  1    3    3    0    0 0.18953952E+02 0.12032603E+03 0.91394223E+02 0.17221419E+03 0.80419002E+02 0.0000E+00 0.9000E+01
#aMCatNLO 1  0  0  2  1 0.19388119D+02 0.00000000D+00  -5  7  0 0.00000000D+00 0.00000000D+00 0.00000000D+00 0.00000000D+00 0.00000000D+00
  <mgrwgt>
 0.4335171653D-03    9    2    0
 0.212559763675663D+03 0.000000000000000D+00 0.000000000000000D+00 0.212559763675663D+03
 0.212559763675663D+03 0.000000000000000D+00 0.000000000000000D+00 -.212559763675663D+03
 0.132832473459577D+03 -.292832368204922D+02 -.499153494420173D+02 -.884771155859814D+02
 0.741395780096222D+02 0.214875269949679D+02 -.638003688705827D+02 0.310560162136576D+02
 0.424353081172555D+02 -.111582243408163D+02 -.661043323286283D+01 -.404048459598634D+02
 0.175712167764871D+03 0.189539341663405D+02 0.120326151545463D+03 0.978259453321872D+02
 0.000000000000000D+00 -.000000000000000D+00 -.000000000000000D+00 -.000000000000000D+00
 0.215061906166787D+03 0.000000000000000D+00 0.000000000000000D+00 0.215061906166787D+03
 0.253975993936214D+03 0.000000000000000D+00 0.000000000000000D+00 -.253975993936214D+03
 0.130770707500358D+03 -.238862376877549D+02 -.472758887011394D+02 -.884771155859814D+02
 0.738186359158530D+02 0.245168165100990D+02 -.623188621014893D+02 0.310560162136576D+02
 0.418898236615369D+02 -.943175555762177D+01 -.576608501980655D+01 -.404048459598634D+02
 0.179082240597256D+03 0.262179782012320D+02 0.123878710769310D+03 0.978259453321872D+02
 0.434764924279981D+02 -.174168014659542D+02 -.851787494687515D+01 -.389140877694276D+02
0.267930467583D-05 0.000000000000D+00 0.000000000000D+00 0.437393218228D-06 0.000000000000D+00  7 1 -1 24 -13 13 -24 21 0 0.31514417D-01 0.33933302D-01 0.26459877D+05 0.26459877D+05 0.26459877D+05 0.11724297D+01  1  2  2  2  7  2       -1 0.371808159318D-03 0.100000000000D+01
-.135897012668D-06 0.000000000000D+00 -.102892354323D-07 0.437393218228D-06 0.000000000000D+00  7 1 -1 24 -13 13 -24 21 2 0.31514417D-01 0.33933302D-01 0.26459877D+05 0.26459877D+05 0.26459877D+05 0.11724297D+01  1  2  3  2  7  2       -1 -.259227058521D-04 0.100000000000D+01
0.168485332863D-06 0.000000000000D+00 0.000000000000D+00 0.437393218228D-06 0.000000000000D+00  7 1 -1 24 -13 13 -24 21 2 0.31514417D-01 0.33933302D-01 0.26459877D+05 0.26459877D+05 0.26459877D+05 0.11724297D+01  1  2 15  2  7  2       -1 0.321390120243D-04 0.100000000000D+01
0.168767285214D-04 0.000000000000D+00 0.000000000000D+00 0.437393218228D-06 0.000000000000D+00  7 1 -1 24 -13 13 -24 21 2 0.31514417D-01 0.40719350D-01 0.29533771D+05 0.29533771D+05 0.29533771D+05 0.11679676D+01  1  2 12  2  7  2       -1 0.235171152250D-02 0.100000000000D+01
-.169625725608D-04 0.000000000000D+00 0.000000000000D+00 0.437393218228D-06 0.000000000000D+00  7 1 -1 24 -13 13 -24 21 2 0.31514417D-01 0.33933302D-01 0.26459877D+05 0.26459877D+05 0.26459877D+05 0.11724297D+01  1  2  4  2  7  2       -1 -.323565448832D-02 0.100000000000D+01
-.207535829757D-04 0.000000000000D+00 -.202155537763D-05 0.437393218228D-06 0.000000000000D+00  7 1 -1 24 -13 13 -24 21 2 0.31514417D-01 0.40853484D-01 0.26459877D+05 0.26459877D+05 0.26459877D+05 0.11724297D+01  1  2  5  2  7  2       -1 -.289634358021D-02 0.100000000000D+01
0.208037693547D-04 0.000000000000D+00 0.198723134978D-05 0.437393218228D-06 0.000000000000D+00  7 1 -1 24 -13 13 -24 21 2 0.31514417D-01 0.33933302D-01 0.26459877D+05 0.26459877D+05 0.26459877D+05 0.11724297D+01  1  2  6  2  7  2       -1 0.396837268906D-02 0.100000000000D+01
0.449556011728D-06 0.000000000000D+00 0.000000000000D+00 0.437393218228D-06 0.000000000000D+00  7 1 21 24 -13 13 -24 1 2 0.31514417D-01 0.40719350D-01 0.29533771D+05 0.29533771D+05 0.29533771D+05 0.11679676D+01  1  2 12  4  7  2       -1 0.644782249822D-03 0.100000000000D+01
-.540126725206D-06 0.000000000000D+00 -.546049104249D-07 0.437393218228D-06 0.000000000000D+00  7 1 21 24 -13 13 -24 1 2 0.31514417D-01 0.40853484D-01 0.26459877D+05 0.26459877D+05 0.26459877D+05 0.11724297D+01  1  2  5  4  7  2       -1 -.777375693030D-03 0.100000000000D+01
  </mgrwgt>
  </event>
  <event>
  8     66 0.27727860E-05 0.10187239E+03 0.75467711E-02 0.10298848E+00
        1 -1    0    0  501    0 0.00000000E+00 0.00000000E+00 0.91443185E+03 0.91443191E+03 0.32000000E+00 0.0000E+00 0.9000E+01
       -1 -1    0    0    0  501 0.00000000E+00 0.00000000E+00 -.38803717E+03 0.38803730E+03 0.32000000E+00 0.0000E+00 0.9000E+01
       25  2    1    2    0    0 -.45950397E+02 -.18479491E+03 0.84683147E+03 0.91850639E+03 0.30044943E+03 0.0000E+00 0.0000E+00
       23  2    1    2    0    0 0.45950397E+02 0.18479491E+03 -.32043678E+03 0.38396282E+03 0.92125555E+02 0.0000E+00 0.0000E+00
       24  1    3    3    0    0 -.29044543E+02 -.16479170E+03 0.80115402E+03 0.82238365E+03 0.80419002E+02 0.0000E+00 0.9000E+01
      -11  1    4    4    0    0 0.12707092E+01 0.59134140E+02 -.34553817E+02 0.68501296E+02 0.51099893E-03 0.0000E+00 0.9000E+01
       11  1    4    4    0    0 0.44679688E+02 0.12566077E+03 -.28588297E+03 0.31546153E+03 0.51099893E-03 0.0000E+00 0.9000E+01
      -24  1    3    3    0    0 -.16905854E+02 -.20003212E+02 0.45677447E+02 0.96122742E+02 0.80419002E+02 0.0000E+00 0.9000E+01
#aMCatNLO 1  0  0  2  1 0.45829529D+02 0.00000000D+00  -5  7  0 0.00000000D+00 0.00000000D+00 0.00000000D+00 0.00000000D+00 0.00000000D+00
  <mgrwgt>
 0.5597251888D-03    9    2    0
 0.595679170187025D+03 0.000000000000000D+00 0.000000000000000D+00 0.595679170187025D+03
 0.595679170187025D+03 0.000000000000000D+00 0.000000000000000D+00 -.595679170187025D+03
 0.545097264342735D+03 -.290445428758681D+02 -.164791701415971D+03 0.512507484153280D+03
 0.901574035645385D+02 0.127070916561905D+01 0.591341404621084D+02 -.680433402143303D+02
 0.471198448110209D+03 0.446796878659034D+02 0.125660773342639D+03 -.451930385166349D+03
 0.849052243565671D+02 -.169058541556543D+02 -.200032123887762D+02 0.746624122739969D+01
 0.000000000000000D+00 -.000000000000000D+00 0.000000000000000D+00 -.000000000000000D+00
 0.613649215099274D+03 0.000000000000000D+00 0.000000000000000D+00 0.613649215099274D+03
 0.626074262215625D+03 0.000000000000000D+00 0.000000000000000D+00 -.626074262215625D+03
 0.551721602879931D+03 -.272497644641080D+02 -.185803767866951D+03 0.512507484153280D+03
 0.879617105069064D+02 0.156217419253527D+01 0.557218626713955D+02 -.680433402143303D+02
 0.466876820673711D+03 0.462147063555859D+02 0.107689802498912D+03 -.451930385166349D+03
 0.856793724426598D+02 -.166267182282342D+02 -.232711493203637D+02 0.746624122739969D+01
 0.474839708116913D+02 -.390039785577903D+01 0.456632520170065D+02 -.124250471163507D+02
0.497870099650D-04 0.000000000000D+00 0.000000000000D+00 0.538589438426D-05 0.000000000000D+00  7 1 -1 24 -11 11 -24 21 0 0.14068184D+00 0.59698041D-01 0.53533198D+05 0.53533198D+05 0.53533198D+05 0.11446962D+01  1  2  2  2  7  2       -1 0.326899527015D-03 0.100000000000D+01
0.241568314089D-06 0.000000000000D+00 -.191195227486D-06 0.538589438426D-05 0.000000000000D+00  7 1 -1 24 -11 11 -24 21 2 0.14068184D+00 0.59698041D-01 0.53533198D+05 0.53533198D+05 0.53533198D+05 0.11446962D+01  1  2  3  2  7  2       -1 0.207835008602D-05 0.100000000000D+01
0.278810887830D-05 0.000000000000D+00 0.000000000000D+00 0.538589438426D-05 0.000000000000D+00  7 1 -1 24 -11 11 -24 21 2 0.14068184D+00 0.59698041D-01 0.53533198D+05 0.53533198D+05 0.53533198D+05 0.11446962D+01  1  2 15  2  7  2       -1 0.239876920485D-04 0.100000000000D+01
0.121925252023D-03 0.000000000000D+00 0.000000000000D+00 0.538589438426D-05 0.000000000000D+00  7 1 -1 24 -11 11 -24 21 2 0.14068184D+00 0.63607817D-01 0.64617701D+05 0.64617701D+05 0.64617701D+05 0.11376253D+01  1  2 12  2  7  2       -1 0.913961864376D-03 0.100000000000D+01
-.111724997790D-03 0.000000000000D+00 0.000000000000D+00 0.538589438426D-05 0.000000000000D+00  7 1 -1 24 -11 11 -24 21 2 0.14068184D+00 0.59698041D-01 0.53533198D+05 0.53533198D+05 0.53533198D+05 0.11446962D+01  1  2  4  2  7  2       -1 -.961233925247D-03 0.100000000000D+01
-.328865558394D-03 0.000000000000D+00 -.839606888454D-04 0.538589438426D-05 0.000000000000D+00  7 1 -1 24 -11 11 -24 21 2 0.14068184D+00 0.64379709D-01 0.53533198D+05 0.53533198D+05 0.53533198D+05 0.11446962D+01  1  2  5  2  7  2       -1 -.245841296952D-02 0.100000000000D+01
0.334489486766D-03 0.000000000000D+00 0.837219618250D-04 0.538589438426D-05 0.000000000000D+00  7 1 -1 24 -11 11 -24 21 2 0.14068184D+00 0.59698041D-01 0.53533198D+05 0.53533198D+05 0.53533198D+05 0.11446962D+01  1  2  6  2  7  2       -1 0.287780397116D-02 0.100000000000D+01
0.144779204286D-05 0.000000000000D+00 0.000000000000D+00 0.538589438426D-05 0.000000000000D+00  7 1 21 24 -11 11 -24 1 2 0.14068184D+00 0.63607817D-01 0.64617701D+05 0.64617701D+05 0.64617701D+05 0.11376253D+01  1  2 12  4  7  2       -1 0.936636432009D-04 0.100000000000D+01
-.400865946960D-05 0.000000000000D+00 -.106504051398D-05 0.538589438426D-05 0.000000000000D+00  7 1 21 24 -11 11 -24 1 2 0.14068184D+00 0.64379709D-01 0.53533198D+05 0.53533198D+05 0.53533198D+05 0.11446962D+01  1  2  5  4  7  2       -1 -.259022964328D-03 0.100000000000D+01
  </mgrwgt>
  </event>
  <event>
  9     66 0.27727860E-05 0.22927050E+03 0.75467711E-02 0.10380046E+00
        1 -1    0    0  501    0 0.00000000E+00 0.00000000E+00 0.96251597E+03 0.96251602E+03 0.32000000E+00 0.0000E+00 0.9000E+01
       21 -1    0    0  502  501 0.00000000E+00 0.00000000E+00 -.14673555E+03 0.14673746E+03 0.75000000E+00 0.0000E+00 0.9000E+01
       25  2    1    2    0    0 0.65226125E+02 0.85173429E+02 0.64589201E+03 0.72039696E+03 0.30047684E+03 0.0000E+00 0.0000E+00
       23  2    1    2    0    0 -.82554409E+02 -.92566630E+02 -.56717198E+02 0.16146890E+03 0.86438142E+02 0.0000E+00 0.0000E+00
       24  1    3    3    0    0 0.13521240E+03 -.20883940E+02 0.42044335E+03 0.44939777E+03 0.80419002E+02 0.0000E+00 0.9000E+01
      -13  1    4    4    0    0 -.94182457E+02 -.49541706E+02 -.43671898E+02 0.11503026E+03 0.10565837E+00 0.0000E+00 0.9000E+01
       13  1    4    4    0    0 0.11628048E+02 -.43024924E+02 -.13045301E+02 0.46438633E+02 0.10565837E+00 0.0000E+00 0.9000E+01
      -24  1    3    3    0    0 -.69986275E+02 0.10605737E+03 0.22544866E+03 0.27099919E+03 0.80419002E+02 0.0000E+00 0.9000E+01
        1  1    1    2  502    0 0.17328284E+02 0.73932012E+01 0.22660561E+03 0.22738763E+03 0.32000000E+00 0.0000E+00 0.9000E+01
#aMCatNLO 2  0  0  2  1 0.18839556D+02 0.00000000D+00  -5  7  0 0.00000000D+00 0.00000000D+00 0.00000000D+00 0.00000000D+00 0.00000000D+00
  <mgrwgt>
 0.1398785080D-03    1    2    0
 0.327950262854270D+03 0.000000000000000D+00 0.000000000000000D+00 0.327950262854270D+03
 0.327950262854270D+03 0.000000000000000D+00 0.000000000000000D+00 -.327950262854270D+03
 0.229886261260913D+03 0.141239227619463D+03 -.183125626692192D+02 0.161544445252982D+03
 0.190842150452180D+03 -.891026001117376D+02 -.473743021658981D+02 -.161978790391935D+03
 0.739775211441982D+02 0.135841636821222D+02 -.421903943660129D+02 -.592293403216507D+02
 0.161194592851248D+03 -.657207911898476D+02 0.107877259201130D+03 0.596636854606031D+02
 0.000000000000000D+00 0.000000000000000D+00 0.000000000000000D+00 0.000000000000000D+00
 0.429339092998940D+03 0.000000000000000D+00 0.000000000000000D+00 0.429339092998940D+03
 0.328961854632460D+03 0.000000000000000D+00 0.000000000000000D+00 -.328961854632460D+03
 0.226456078841804D+03 0.135212399424910D+03 -.208839397552165D+02 0.161544445252982D+03
 0.193808862080463D+03 -.941826143108871D+02 -.495417162163004D+02 -.161978790391935D+03
 0.741247134398613D+02 0.116282050856297D+02 -.430249141090390D+02 -.592293403216507D+02
 0.161781381642606D+03 -.699862746617615D+02 0.106057368853120D+03 0.596636854606031D+02
 0.102129911626664D+03 0.173282844621086D+02 0.739320122743554D+01 0.100377238366480D+03
0.284193791506D-06 0.000000000000D+00 0.000000000000D+00 0.104311593608D-06 0.142495162498D-11  7 1 21 24 -13 13 -24 1 2 0.14807942D+00 0.22574834D-01 0.57337221D+05 0.57337221D+05 0.57337221D+05 0.11421012D+01  1  2  1  4  7  2       -1 0.139878507988D-03 0.100000000000D+01
  </mgrwgt>
  </event>
  <event>
  8     66 0.27727860E-05 0.14016665E+03 0.75467711E-02 0.10370821E+00
        1 -1    0    0  501    0 0.00000000E+00 0.00000000E+00 0.26434905E+04 0.26434905E+04 0.32000000E+00 0.0000E+00 0.9000E+01
       -1 -1    0    0    0  501 0.00000000E+00 0.00000000E+00 -.27430803E+02 0.27432669E+02 0.32000000E+00 0.0000E+00 0.9000E+01
       25  2    1    2    0    0 -.89464639E+02 -.90762253E+02 0.10927133E+04 0.11396854E+04 0.29768907E+03 0.0000E+00 0.0000E+00
       23  2    1    2    0    0 0.89464639E+02 0.90762253E+02 0.15233464E+04 0.15312377E+04 0.88674473E+02 0.0000E+00 0.0000E+00
       24  1    3    3    0    0 -.11993917E+03 -.14361361E+02 0.24927609E+03 0.28843966E+03 0.80419002E+02 0.0000E+00 0.9000E+01
      -13  1    4    4    0    0 0.10588821E+03 0.78316030E+02 0.11926385E+04 0.11998885E+04 0.10565837E+00 0.0000E+00 0.9000E+01
       13  1    4    4    0    0 -.16423576E+02 0.12446223E+02 0.33070787E+03 0.33134929E+03 0.10565837E+00 0.0000E+00 0.9000E+01
      -24  1    3    3    0    0 0.30474526E+02 -.76400892E+02 0.84343721E+03 0.85124575E+03 0.80419002E+02 0.0000E+00 0.9000E+01
#aMCatNLO 1  0  0  1  2 0.61901319D+02 0.00000000D+00  -5  7  0 0.00000000D+00 0.00000000D+00 0.00000000D+00 0.00000000D+00 0.00000000D+00
  <mgrwgt>
 0.2706620989D-02    9    2    0
 0.269287176828284D+03 0.000000000000000D+00 0.000000000000000D+00 0.269287176828284D+03
 0.269287176828284D+03 0.000000000000000D+00 0.000000000000000D+00 -.269287176828284D+03
 0.219615066948361D+03 -.119939166453289D+03 -.143613619407560D+02 -.164839040612530D+03
 0.157446210574816D+03 0.105888386733992D+03 0.783161244305553D+02 0.862759725150620D+02
 0.368693118982779D+02 -.164237462877563D+02 0.124461304055569D+02 0.305728728721359D+02
 0.124643764235112D+03 0.304745260070534D+02 -.764008928953562D+02 0.479901952253320D+02
 0.000000000000000D+00 0.000000000000000D+00 0.000000000000000D+00 0.000000000000000D+00
 0.306360571118818D+03 0.000000000000000D+00 0.000000000000000D+00 0.306360571118818D+03
 0.298196776268696D+03 0.000000000000000D+00 0.000000000000000D+00 -.298196776268696D+03
 0.233486514191449D+03 -.141625523831760D+03 -.286188407211679D+02 -.164839040612530D+03
 0.143368437235756D+03 0.914907897521227D+02 0.688505682804147D+02 0.862759725150620D+02
 0.379035120089760D+02 -.200025247536602D+02 0.100932982933242D+02 0.305728728721359D+02
 0.127361548819913D+03 0.184130424288305D+02 -.843305946509642D+02 0.479901952253320D+02
 0.624373351314199D+02 0.517242164044667D+02 0.340055687983931D+02 0.816379485012246D+01
0.429085933495D-04 0.000000000000D+00 0.000000000000D+00 0.116636335955D-07 0.000000000000D+00  7 1 -1 24 -13 13 -24 21 0 0.40669099D+00 0.42202685D-02 0.42531187D+05 0.42531187D+05 0.42531187D+05 0.11535274D+01  1  2  2  1  7  1        1 0.132406023890D-02 0.100000000000D+01
-.217752647291D-05 0.000000000000D+00 -.164780296554D-06 0.116636335955D-07 0.000000000000D+00  7 1 -1 24 -13 13 -24 21 2 0.40669099D+00 0.42202685D-02 0.42531187D+05 0.42531187D+05 0.42531187D+05 0.11535274D+01  1  2  3  1  7  1        1 -.894093102435D-04 0.100000000000D+01
0.274161620809D-05 0.000000000000D+00 0.000000000000D+00 0.116636335955D-07 0.000000000000D+00  7 1 -1 24 -13 13 -24 21 2 0.40669099D+00 0.42202685D-02 0.42531187D+05 0.42531187D+05 0.42531187D+05 0.11535274D+01  1  2 15  1  7  1        1 0.112570853749D-03 0.100000000000D+01
0.301799248340D-04 0.000000000000D+00 0.000000000000D+00 0.116636335955D-07 0.000000000000D+00  7 1 -1 24 -13 13 -24 21 2 0.48189200D+00 0.42202685D-02 0.58115654D+05 0.58115654D+05 0.58115654D+05 0.11415935D+01  1  2 12  1  7  1        1 0.536587262074D-03 0.100000000000D+01
-.280898610378D-04 0.000000000000D+00 0.000000000000D+00 0.116636335955D-07 0.000000000000D+00  7 1 -1 24 -13 13 -24 21 2 0.40669099D+00 0.42202685D-02 0.42531187D+05 0.42531187D+05 0.42531187D+05 0.11535274D+01  1  2  4  1  7  1        1 -.115337063933D-02 0.100000000000D+01
-.835996234699D-04 0.000000000000D+00 -.238931045451D-04 0.116636335955D-07 0.000000000000D+00  7 1 -1 24 -13 13 -24 21 2 0.47946823D+00 0.42202685D-02 0.42531187D+05 0.42531187D+05 0.42531187D+05 0.11535274D+01  1  2  5  1  7  1        1 -.157785643426D-02 0.100000000000D+01
0.866759892716D-04 0.000000000000D+00 0.235729564771D-04 0.116636335955D-07 0.000000000000D+00  7 1 -1 24 -13 13 -24 21 2 0.40669099D+00 0.42202685D-02 0.42531187D+05 0.42531187D+05 0.42531187D+05 0.11535274D+01  1  2  6  1  7  1        1 0.355891903582D-02 0.100000000000D+01
0.759780275428D-06 0.000000000000D+00 0.000000000000D+00 0.116636335955D-07 0.000000000000D+00  7 21 -1 24 -13 13 -24 -1 2 0.48189200D+00 0.42202685D-02 0.58115654D+05 0.58115654D+05 0.58115654D+05 0.11415935D+01  1  2 12  3  7  1        1 0.288439816998D-05 0.100000000000D+01
-.185903871130D-05 0.000000000000D+00 -.587279965750D-06 0.116636335955D-07 0.000000000000D+00  7 21 -1 24 -13 13 -24 -1 2 0.47946823D+00 0.42202685D-02 0.42531187D+05 0.42531187D+05 0.42531187D+05 0.11535274D+01  1  2  5  3  7  1        1 -.776441615630D-05 0.100000000000D+01
  </mgrwgt>
  </event>
  <event>
  8     66 0.27727860E-05 0.13103348E+03 0.75467711E-02 0.10003415E+00
        1 -1    0    0  501    0 0.00000000E+00 0.00000000E+00 0.19167435E+04 0.19167435E+04 0.32000000E+00 0.0000E+00 0.9000E+01
       -1 -1    0    0    0  501 0.00000000E+00 0.00000000E+00 -.10204859E+03 0.10204910E+03 0.32000000E+00 0.0000E+00 0.9000E+01
       25  2    1    2    0    0 0.42106319E+02 -.24204954E+03 0.32257371E+03 0.50418204E+03 0.29964114E+03 0.0000E+00 0.0000E+00
       23  2    1    2    0    0 -.42106319E+02 0.24204954E+03 0.14921212E+04 0.15146106E+04 0.85197564E+02 0.0000E+00 0.0000E+00
       24  1    3    3    0    0 -.33504621E+02 -.19519253E+03 0.31927374E+03 0.38422080E+03 0.80419002E+02 0.0000E+00 0.9000E+01
      -13  1    4    4    0    0 -.27936338E+02 0.21923737E+03 0.11246970E+04 0.11462063E+04 0.10565837E+00 0.0000E+00 0.9000E+01
       13  1    4    4    0    0 -.14169980E+02 0.22812166E+02 0.36742421E+03 0.36840432E+03 0.10565837E+00 0.0000E+00 0.9000E+01
      -24  1    3    3    0    0 0.75610940E+02 -.46857007E+02 0.32999659E+01 0.11996124E+03 0.80419002E+02 0.0000E+00 0.9000E+01
#aMCatNLO 1  0  0  1  2 0.56525542D+02 0.00000000D+00  -5  7  0 0.00000000D+00 0.00000000D+00 0.00000000D+00 0.00000000D+00 0.00000000D+00
  <mgrwgt>
 0.2382428567D-02    9    2    0
 0.442268597158838D+03 0.000000000000000D+00 0.000000000000000D+00 0.442268597158838D+03
 0.442268597158838D+03 0.000000000000000D+00 0.000000000000000D+00 -.442268597158838D+03
 0.221898731688458D+03 -.335046210280648D+02 -.195192532261744D+03 -.595747168653746D+02
 0.308603357327156D+03 -.279363595287171D+02 0.219237675593772D+03 0.215384385622809D+03
 0.870158814915841D+02 -.141699590922339D+02 0.228118638500738D+02 0.827683197773613D+02
 0.267019223810478D+03 0.756109396490158D+02 -.468570071821014D+02 -.238577988534795D+03
 0.000000000000000D+00 -.000000000000000D+00 0.000000000000000D+00 0.000000000000000D+00
 0.503527090461218D+03 0.000000000000000D+00 0.000000000000000D+00 0.503527090461218D+03
 0.456405196933302D+03 0.000000000000000D+00 0.000000000000000D+00 -.456405196933302D+03
 0.232323481868481D+03 -.266383432763469D+02 -.207962102439425D+03 -.595747168653746D+02
 0.296047927316889D+03 -.187961115633265D+02 0.202239085956722D+03 0.215384385622809D+03
 0.854806061181964D+02 -.115624054328706D+02 0.179624620854893D+02 0.827683197773613D+02
 0.272489445448262D+03 0.837664553019856D+02 -.620242394484797D+02 -.238577988534795D+03
 0.735908266426920D+02 -.267695950294416D+02 0.497847938456936D+02 0.471218935279158D+02
0.107480276383D-03 0.000000000000D+00 0.000000000000D+00 0.148148805936D-06 0.000000000000D+00  7 1 -1 24 -13 13 -24 21 0 0.29488366D+00 0.15699824D-01 0.84545097D+05 0.84545097D+05 0.84545097D+05 0.11277548D+01  1  2  2  1  7  1        1 0.135606260749D-02 0.100000000000D+01
-.469413256916D-05 0.000000000000D+00 -.412752561516D-06 0.148148805936D-06 0.000000000000D+00  7 1 -1 24 -13 13 -24 21 2 0.29488366D+00 0.15699824D-01 0.84545097D+05 0.84545097D+05 0.84545097D+05 0.11277548D+01  1  2  3  1  7  1        1 -.753244063290D-04 0.100000000000D+01
0.641225393037D-05 0.000000000000D+00 0.000000000000D+00 0.148148805936D-06 0.000000000000D+00  7 1 -1 24 -13 13 -24 21 2 0.29488366D+00 0.15699824D-01 0.84545097D+05 0.84545097D+05 0.84545097D+05 0.11277548D+01  1  2 15  1  7  1        1 0.102894243701D-03 0.100000000000D+01
0.225026204111D-03 0.000000000000D+00 0.000000000000D+00 0.148148805936D-06 0.000000000000D+00  7 1 -1 24 -13 13 -24 21 2 0.33999452D+00 0.15699824D-01 0.10150626D+06 0.10150626D+06 0.10150626D+06 0.11211896D+01  1  2 12  1  7  1        1 0.227333061053D-02 0.100000000000D+01
-.229987031749D-03 0.000000000000D+00 0.000000000000D+00 0.148148805936D-06 0.000000000000D+00  7 1 -1 24 -13 13 -24 21 2 0.29488366D+00 0.15699824D-01 0.84545097D+05 0.84545097D+05 0.84545097D+05 0.11277548D+01  1  2  4  1  7  1        1 -.369048729976D-02 0.100000000000D+01
-.402336809505D-03 0.000000000000D+00 -.815388377244D-04 0.148148805936D-06 0.000000000000D+00  7 1 -1 24 -13 13 -24 21 2 0.33970498D+00 0.15699824D-01 0.84545097D+05 0.84545097D+05 0.84545097D+05 0.11277548D+01  1  2  5  1  7  1        1 -.415576515010D-02 0.100000000000D+01
0.410566880529D-03 0.000000000000D+00 0.807293353095D-04 0.148148805936D-06 0.000000000000D+00  7 1 -1 24 -13 13 -24 21 2 0.29488366D+00 0.15699824D-01 0.84545097D+05 0.84545097D+05 0.84545097D+05 0.11277548D+01  1  2  6  1  7  1        1 0.658816215319D-02 0.100000000000D+01
0.491907595886D-05 0.000000000000D+00 0.000000000000D+00 0.148148805936D-06 0.000000000000D+00  7 21 -1 24 -13 13 -24 -1 2 0.33999452D+00 0.15699824D-01 0.10150626D+06 0.10150626D+06 0.10150626D+06 0.11211896D+01  1  2 12  3  7  1        1 0.224264010807D-04 0.100000000000D+01
-.824261808638D-05 0.000000000000D+00 -.177371387208D-05 0.148148805936D-06 0.000000000000D+00  7 21 -1 24 -13 13 -24 -1 2 0.33970498D+00 0.15699824D-01 0.84545097D+05 0.84545097D+05 0.84545097D+05 0.11277548D+01  1  2  5  3  7  1        1 -.388705932903D-04 0.100000000000D+01
  </mgrwgt>
  </event>
  <event>
  8     66 0.27727860E-05 0.24125872E+03 0.75467711E-02 0.94626825E-01
        1 -1    0    0  501    0 0.00000000E+00 0.00000000E+00 0.78329262E+03 0.78329269E+03 0.32000000E+00 0.0000E+00 0.9000E+01
       -1 -1    0    0    0  501 0.00000000E+00 0.00000000E+00 -.29662865E+03 0.29662882E+03 0.32000000E+00 0.0000E+00 0.9000E+01
       25  2    1    2    0    0 -.38369096E+03 0.18748792E+03 0.31627755E+03 0.61008975E+03 0.29967906E+03 0.0000E+00 0.0000E+00
       23  2    1    2    0    0 0.38369096E+03 -.18748792E+03 0.17038642E+03 0.46983176E+03 0.96643060E+02 0.0000E+00 0.0000E+00
       24  1    3    3    0    0 -.24347500E+03 0.24054211E+03 0.21409904E+03 0.41163843E+03 0.80419002E+02 0.0000E+00 0.9000E+01
      -11  1    4    4    0    0 0.94545219E+01 0.66222243E+01 0.18337836E+02 0.21668366E+02 0.51099893E-03 0.0000E+00 0.9000E+01
       11  1    4    4    0    0 0.37423644E+03 -.19411014E+03 0.15204859E+03 0.44816340E+03 0.51099893E-03 0.0000E+00 0.9000E+01
      -24  1    3    3    0    0 -.14021596E+03 -.53054191E+02 0.10217851E+03 0.19845132E+03 0.80419002E+02 0.0000E+00 0.9000E+01
#aMCatNLO 1  0  0  2  1 0.44045354D+02 0.00000000D+00  -5  7  0 0.00000000D+00 0.00000000D+00 0.00000000D+00 0.00000000D+00 0.00000000D+00
  <mgrwgt>
 0.1040223592D-02    9    2    0
 0.482024025397124D+03 0.000000000000000D+00 0.000000000000000D+00 0.482024025397124D+03
 0.482024025397124D+03 0.000000000000000D+00 0.000000000000000D+00 -.482024025397124D+03
 0.353035206869078D+03 -.243474997689968D+03 0.240542108194248D+03 0.320321872506229D+02
 0.150156103833085D+02 0.945452187698555D+01 0.662222429583356D+01 0.960347419617474D+01
 0.425274156631582D+03 0.374236435896686D+03 -.194110141241658D+03 -.559146797647287D+02
 0.170723076910280D+03 -.140215960083704D+03 -.530541912484240D+02 0.142790183179311D+02
 0.000000000000000D+00 0.000000000000000D+00 -.000000000000000D+00 -.000000000000000D+00
 0.497866035085228D+03 0.000000000000000D+00 0.000000000000000D+00 0.497866035085228D+03
 0.514145102999710D+03 0.000000000000000D+00 0.000000000000000D+00 -.514145102999710D+03
 0.366184964311194D+03 -.246374771190740D+03 0.256705323734961D+03 0.320321872506229D+02
 0.152527971536984D+02 0.933248480182631D+01 0.730245382039198D+01 0.960347419617474D+01
 0.413969369194271D+03 0.370852748627612D+03 -.175249610707857D+03 -.559146797647287D+02
 0.169646566028540D+03 -.141588272639178D+03 -.454049787780514D+02 0.142790183179311D+02
 0.469574413972352D+02 0.777781040047922D+01 -.433531880694452D+02 -.162790679144813D+02
0.500082743415D-04 0.000000000000D+00 0.000000000000D+00 0.256916957375D-06 0.000000000000D+00  7 1 -1 24 -11 11 -24 21 0 0.12050658D+00 0.45635195D-01 0.22792473D+06 0.22792473D+06 0.22792473D+06 0.10934924D+01  1  2  2  2  7  2       -1 0.654123085629D-03 0.100000000000D+01
-.277792559550D-05 0.000000000000D+00 -.192044940952D-06 0.256916957375D-06 0.000000000000D+00  7 1 -1 24 -11 11 -24 21 2 0.12050658D+00 0.45635195D-01 0.22792473D+06 0.22792473D+06 0.22792473D+06 0.10934924D+01  1  2  3  2  7  2       -1 -.434479953201D-04 0.100000000000D+01
0.301575677987D-05 0.000000000000D+00 0.000000000000D+00 0.256916957375D-06 0.000000000000D+00  7 1 -1 24 -11 11 -24 21 2 0.12050658D+00 0.45635195D-01 0.22792473D+06 0.22792473D+06 0.22792473D+06 0.10934924D+01  1  2 15  2  7  2       -1 0.471677811209D-04 0.100000000000D+01
0.122928741407D-03 0.000000000000D+00 0.000000000000D+00 0.256916957375D-06 0.000000000000D+00  7 1 -1 24 -11 11 -24 21 2 0.12050658D+00 0.49388046D-01 0.24994847D+06 0.24994847D+06 0.24994847D+06 0.10904658D+01  1  2 12  2  7  2       -1 0.165408843227D-02 0.100000000000D+01
-.115287468807D-03 0.000000000000D+00 0.000000000000D+00 0.256916957375D-06 0.000000000000D+00  7 1 -1 24 -11 11 -24 21 2 0.12050658D+00 0.45635195D-01 0.22792473D+06 0.22792473D+06 0.22792473D+06 0.10934924D+01  1  2  4  2  7  2       -1 -.180314743250D-02 0.100000000000D+01
-.388590146036D-03 0.000000000000D+00 -.702398081866D-04 0.256916957375D-06 0.000000000000D+00  7 1 -1 24 -11 11 -24 21 2 0.12050658D+00 0.50079607D-01 0.22792473D+06 0.22792473D+06 0.22792473D+06 0.10934924D+01  1  2  5  2  7  2       -1 -.514091151231D-02 0.100000000000D+01
0.393718626692D-03 0.000000000000D+00 0.699375707242D-04 0.256916957375D-06 0.000000000000D+00  7 1 -1 24 -11 11 -24 21 2 0.12050658D+00 0.45635195D-01 0.22792473D+06 0.22792473D+06 0.22792473D+06 0.10934924D+01  1  2  6  2  7  2       -1 0.615793492730D-02 0.100000000000D+01
0.163550173281D-05 0.000000000000D+00 0.000000000000D+00 0.256916957375D-06 0.000000000000D+00  7 1 21 24 -11 11 -24 1 2 0.12050658D+00 0.49388046D-01 0.24994847D+06 0.24994847D+06 0.24994847D+06 0.10904658D+01  1  2 12  4  7  2       -1 0.199724531233D-03 0.100000000000D+01
-.572064596379D-05 0.000000000000D+00 -.107054266324D-05 0.256916957375D-06 0.000000000000D+00  7 1 21 24 -11 11 -24 1 2 0.12050658D+00 0.50079607D-01 0.22792473D+06 0.22792473D+06 0.22792473D+06 0.10934924D+01  1  2  5  4  7  2       -1 -.685308225090D-03 0.100000000000D+01
  </mgrwgt>
  </event>
  <event>
  8     66 0.27727860E-05 0.36742312E+03 0.75467711E-02 0.96734689E-01
        1 -1    0    0  501    0 0.00000000E+00 0.00000000E+00 0.58559679E+03 0.58559687E+03 0.32000000E+00 0.0000E+00 0.9000E+01
       -1 -1    0    0    0  501 0.00000000E+00 0.00000000E+00 -.27723784E+03 0.27723802E+03 0.32000000E+00 0.0000E+00 0.9000E+01
       25  2    1    2    0    0 0.19204302E+03 0.23212461E+03 0.10330496E+02 0.42919364E+03 0.30551286E+03 0.0000E+00 0.0000E+00
       23  2    1    2    0    0 -.19204302E+03 -.23212461E+03 0.29802845E+03 0.43364125E+03 0.91985994E+02 0.0000E+00 0.0000E+00
       24  1    3    3    0    0 0.21930865E+03 0.66788659E+02 -.14523917E+01 0.24295336E+03 0.80419002E+02 0.0000E+00 0.9000E+01
      -11  1    4    4    0    0 -.16733700E+03 -.22483299E+03 0.23571931E+03 0.36621734E+03 0.51099893E-03 0.0000E+00 0.9000E+01
       11  1    4    4    0    0 -.24706013E+02 -.72916201E+01 0.62309147E+02 0.67423917E+02 0.51099893E-03 0.0000E+00 0.9000E+01
      -24  1    3    3    0    0 -.27265632E+02 0.16533595E+03 0.11782888E+02 0.18624029E+03 0.80419002E+02 0.0000E+00 0.9000E+01
#aMCatNLO 1  0  0  1  1 0.95451220D+02 0.00000000D+00  -5  7  0 0.00000000D+00 0.00000000D+00 0.00000000D+00 0.00000000D+00 0.00000000D+00
  <mgrwgt>
 0.8355094981D-03    4    2    0
 0.402926425250048D+03 0.000000000000000D+00 0.000000000000000D+00 0.402926425250048D+03
 0.402926425250048D+03 0.000000000000000D+00 0.000000000000000D+00 -.402926425250048D+03
 0.260688402193552D+03 0.219308647523005D+03 0.667886594675330D+02 -.945209985771264D+02
 0.301914847379674D+03 -.167337003161486D+03 -.224832991116049D+03 0.112254303022357D+03
 0.483489331461058D+02 -.247060129505146D+02 -.729162005721195D+01 0.409153337686114D+02
 0.194900667780765D+03 -.272656314110040D+02 0.165335951705728D+03 -.586486382138422D+02
 0.000000000000000D+00 -.000000000000000D+00 -.000000000000000D+00 -.000000000000000D+00
 0.413367152538175D+03 0.000000000000000D+00 0.000000000000000D+00 0.413367152538175D+03
 0.704498173206439D+03 0.000000000000000D+00 0.000000000000000D+00 -.704498173206439D+03
 0.281090951042331D+03 0.233444738380619D+03 0.954685380316418D+02 -.945209985771264D+02
 0.271375624567551D+03 -.152378725126623D+03 -.194485025621970D+03 0.112254303022357D+03
 0.466184680715670D+02 -.222281263272862D+02 -.226438245909327D+01 0.409153337686114D+02
 0.212401094309909D+03 -.166383258834095D+02 0.186897063265145D+03 -.586486382138422D+02
 0.306379187753255D+03 -.421995610433005D+02 -.856161932157242D+02 -.291131020668264D+03
0.373961777628D-04 0.000000000000D+00 0.000000000000D+00 0.294590108250D-07 0.000000000000D+00  7 1 -1 24 -11 11 -24 21 0 0.90091834D-01 0.42651996D-01 0.13499975D+06 0.13499975D+06 0.13499975D+06 0.11111811D+01  1  2  2  1  7  1        1 0.864044663215D-03 0.100000000000D+01
-.205607358712D-05 0.000000000000D+00 -.143611169249D-06 0.294590108250D-07 0.000000000000D+00  7 1 -1 24 -11 11 -24 21 2 0.90091834D-01 0.42651996D-01 0.13499975D+06 0.13499975D+06 0.13499975D+06 0.11111811D+01  1  2  3  1  7  1        1 -.586566567564D-04 0.100000000000D+01
0.235736876447D-05 0.000000000000D+00 0.000000000000D+00 0.294590108250D-07 0.000000000000D+00  7 1 -1 24 -11 11 -24 21 2 0.90091834D-01 0.42651996D-01 0.13499975D+06 0.13499975D+06 0.13499975D+06 0.11111811D+01  1  2 15  1  7  1        1 0.672521505709D-04 0.100000000000D+01
-.130152946429D-05 0.000000000000D+00 0.000000000000D+00 0.294590108250D-07 0.000000000000D+00  7 1 -1 24 -11 11 -24 21 2 0.90091834D-01 0.42651996D-01 0.13499975D+06 0.13499975D+06 0.13499975D+06 0.11111811D+01  1  2  4  1  7  1        1 -.371306589040D-04 0.100000000000D+01
  </mgrwgt>
  </event>
  <event>
  8     66 0.27727860E-05 0.50666068E+03 0.75467711E-02 0.92517159E-01
        1 -1    0    0  501    0 0.00000000E+00 0.00000000E+00 0.19174488E+04 0.19174488E+04 0.32000000E+00 0.0000E+00 0.9000E+01
       -1 -1    0    0    0  501 0.00000000E+00 0.00000000E+00 -.13958167E+03 0.13958204E+03 0.32000000E+00 0.0000E+00 0.9000E+01
       25  2    1    2    0    0 -.42373870E+03 0.18808287E+03 0.82182350E+03 0.99065052E+03 0.30176969E+03 0.0000E+00 0.0000E+00
       23  2    1    2    0    0 0.42373870E+03 -.18808287E+03 0.95604364E+03 0.10663803E+04 0.90652921E+02 0.0000E+00 0.0000E+00
       24  1    3    3    0    0 -.42297756E+03 0.18135860E+03 0.64645988E+03 0.79760802E+03 0.80419002E+02 0.0000E+00 0.9000E+01
      -13  1    4    4    0    0 0.96512841E+02 -.24419895E+02 0.13718684E+03 0.16950310E+03 0.10565837E+00 0.0000E+00 0.9000E+01
       13  1    4    4    0    0 0.32722586E+03 -.16366297E+03 0.81885680E+03 0.89687725E+03 0.10565837E+00 0.0000E+00 0.9000E+01
      -24  1    3    3    0    0 -.76114140E+00 0.67242727E+01 0.17536361E+03 0.19304250E+03 0.80419002E+02 0.0000E+00 0.9000E+01
#aMCatNLO 1  0  0  2  1 0.18018350D+03 0.00000000D+00  -5  7  0 0.00000000D+00 0.00000000D+00 0.00000000D+00 0.00000000D+00 0.00000000D+00
  <mgrwgt>
 0.7012466796D-03    4    2    0
 0.517340421052669D+03 0.000000000000000D+00 0.000000000000000D+00 0.517340421052669D+03
 0.517340421052669D+03 0.000000000000000D+00 0.000000000000000D+00 -.517340421052669D+03
 0.474914115087728D+03 -.422977558667114D+03 0.181358597018414D+03 -.852950462026375D+02
 0.101260928883278D+03 0.965125278483140D+02 -.244197060738722D+02 -.185144711482212D+02
 0.376044444173560D+03 0.327226172217285D+03 -.163663163662246D+03 0.868724643940220D+02
 0.824613539607723D+02 -.761141398484753D+00 0.672427271770416D+01 0.169370529568368D+02
 0.000000000000000D+00 0.000000000000000D+00 0.000000000000000D+00 0.000000000000000D+00
 0.810444943273400D+03 0.000000000000000D+00 0.000000000000000D+00 0.810444943273400D+03
 0.553573526714755D+03 0.000000000000000D+00 0.000000000000000D+00 -.553573526714755D+03
 0.466690443112289D+03 -.440105600926524D+03 0.101806526629518D+03 -.852950462026375D+02
 0.103404567460573D+03 0.927896069683199D+02 -.417110029665384D+02 -.185144711482212D+02
 0.397572072947445D+03 0.313153877980354D+03 -.229022655699613D+03 0.868724643940220D+02
 0.825855229816697D+02 -.376338884773004D+01 -.721981947859080D+01 0.169370529568368D+02
 0.313765863486178D+03 0.379255048255799D+02 0.176146951515225D+03 0.256871416558645D+03
0.102299475866D-03 0.000000000000D+00 0.000000000000D+00 0.617683088750D-06 0.000000000000D+00  7 1 -1 24 -13 13 -24 21 0 0.29499215D+00 0.21474133D-01 0.25670504D+06 0.25670504D+06 0.25670504D+06 0.10895954D+01  1  2  2  2  7  2       -1 0.748730966923D-03 0.100000000000D+01
-.568029748394D-05 0.000000000000D+00 -.392856923397D-06 0.617683088750D-06 0.000000000000D+00  7 1 -1 24 -13 13 -24 21 2 0.29499215D+00 0.21474133D-01 0.25670504D+06 0.25670504D+06 0.25670504D+06 0.10895954D+01  1  2  3  2  7  2       -1 -.493575987102D-04 0.100000000000D+01
0.620369412414D-05 0.000000000000D+00 0.000000000000D+00 0.617683088750D-06 0.000000000000D+00  7 1 -1 24 -13 13 -24 21 2 0.29499215D+00 0.21474133D-01 0.25670504D+06 0.25670504D+06 0.25670504D+06 0.10895954D+01  1  2 15  2  7  2       -1 0.539055297659D-04 0.100000000000D+01
-.598810491456D-05 0.000000000000D+00 0.000000000000D+00 0.617683088750D-06 0.000000000000D+00  7 1 -1 24 -13 13 -24 21 2 0.29499215D+00 0.21474133D-01 0.25670504D+06 0.25670504D+06 0.25670504D+06 0.10895954D+01  1  2  4  2  7  2       -1 -.520322184257D-04 0.100000000000D+01
  </mgrwgt>
  </event>
  <event>
  8     66 0.27727860E-05 0.36358128E+03 0.75467711E-02 0.91806600E-01
        1 -1    0    0  501    0 0.00000000E+00 0.00000000E+00 0.15376678E+04 0.15376679E+04 0.32000000E+00 0.0000E+00 0.9000E+01
       -1 -1    0    0    0  501 0.00000000E+00 0.00000000E+00 -.10321701E+03 0.10321750E+03 0.32000000E+00 0.0000E+00 0.9000E+01
       25  2    1    2    0    0 0.21935959E+03 0.20412578E+03 0.50291716E+03 0.65798700E+03 0.30039184E+03 0.0000E+00 0.0000E+00
       23  2    1    2    0    0 -.21935959E+03 -.20412578E+03 0.93153367E+03 0.98289837E+03 0.92456884E+02 0.0000E+00 0.0000E+00
       24  1    3    3    0    0 0.23437932E+02 -.45577266E+02 0.91222062E+02 0.13196706E+03 0.80419002E+02 0.0000E+00 0.9000E+01
      -13  1    4    4    0    0 -.26554572E+02 -.46549294E+01 0.17578453E+03 0.17783989E+03 0.10565837E+00 0.0000E+00 0.9000E+01
       13  1    4    4    0    0 -.19280502E+03 -.19947085E+03 0.75574914E+03 0.80505848E+03 0.10565837E+00 0.0000E+00 0.9000E+01
      -24  1    3    3    0    0 0.19592166E+03 0.24970304E+03 0.41169510E+03 0.52601994E+03 0.80419002E+02 0.0000E+00 0.9000E+01
#aMCatNLO 1  0  0  2  2 0.44103683D+03 0.00000000D+00  -5  7  0 0.00000000D+00 0.00000000D+00 0.00000000D+00 0.00000000D+00 0.00000000D+00
  <mgrwgt>
 0.1412186276D-02    3    2    0
 0.398389138179543D+03 0.000000000000000D+00 0.000000000000000D+00 0.398389138179543D+03
 0.398389138179543D+03 0.000000000000000D+00 0.000000000000000D+00 -.398389138179543D+03
 0.107544664339338D+03 0.234379316773821D+02 -.455772662181396D+02 -.497193627901406D+02
 0.497758909863195D+02 -.265543549543048D+02 -.465467521601478D+01 0.418430347259393D+02
 0.297352449654393D+03 -.192805236367295D+03 -.199471101929411D+03 0.107032236451859D+03
 0.342105271379035D+03 0.195921659644217D+03 0.249703043363565D+03 -.991559083876580D+02
 0.000000000000000D+00 -.000000000000000D+00 0.000000000000000D+00 0.000000000000000D+00
 0.939029617051010D+03 0.000000000000000D+00 0.000000000000000D+00 0.939029617051010D+03
 0.555886607393843D+03 0.000000000000000D+00 0.000000000000000D+00 -.555886607393843D+03
 0.151147242588695D+03 0.479039984920736D+02 -.107756507367346D+03 -.497193627901406D+02
 0.539082378067641D+02 -.167483163626902D+02 -.295762142163210D+02 0.418430347259393D+02
 0.403534280940274D+03 -.126518115970326D+03 -.367936383883704D+03 0.107032236451859D+03
 0.302107282891010D+03 0.256848758534940D+03 0.948599783485967D+02 -.991559083876580D+02
 0.584219180218111D+03 -.161486324693997D+03 0.410409127118775D+03 0.383143009657167D+03
0.645217969405D-04 0.000000000000D+00 0.000000000000D+00 0.157781307516D-05 0.000000000000D+00  7 1 -1 24 -13 13 -24 21 0 0.23656432D+00 0.15879580D-01 0.13219135D+06 0.13219135D+06 0.13219135D+06 0.11119096D+01  1  2  2  2  7  2       -1 0.139761295500D-02 0.100000000000D+01
-.354811432685D-05 0.000000000000D+00 -.247780689231D-06 0.157781307516D-05 0.000000000000D+00  7 1 -1 24 -13 13 -24 21 2 0.23656432D+00 0.15879580D-01 0.13219135D+06 0.13219135D+06 0.13219135D+06 0.11119096D+01  1  2  3  2  7  2       -1 -.950204344742D-04 0.100000000000D+01
0.409229000203D-05 0.000000000000D+00 0.000000000000D+00 0.157781307516D-05 0.000000000000D+00  7 1 -1 24 -13 13 -24 21 2 0.23656432D+00 0.15879580D-01 0.13219135D+06 0.13219135D+06 0.13219135D+06 0.11119096D+01  1  2 15  2  7  2       -1 0.109593755490D-03 0.100000000000D+01
  </mgrwgt>
  </event>
  <event>
  8     66 0.27727860E-05 0.10964875E+03 0.75467711E-02 0.10594965E+00
        1 -1    0    0  501    0 0.00000000E+00 0.00000000E+00 0.21023852E+03 0.21023877E+03 0.32000000E+00 0.0000E+00 0.9000E+01
       -1 -1    0    0    0  501 0.00000000E+00 0.00000000E+00 -.27933395E+03 0.27933413E+03 0.32000000E+00 0.0000E+00 0.9000E+01
       25  2    1    2    0    0 -.85808972E+01 0.34426515E+02 0.78829579E+02 0.31181698E+03 0.29959457E+03 0.0000E+00 0.0000E+00
       23  2    1    2    0    0 0.85808972E+01 -.34426515E+02 -.14792500E+03 0.17775592E+03 0.91959463E+02 0.0000E+00 0.0000E+00
       24  1    3    3    0    0 0.88866383E+02 0.98751822E+02 0.14012454E+02 0.15592537E+03 0.80419002E+02 0.0000E+00 0.9000E+01
      -11  1    4    4    0    0 -.39867205E+02 -.10923112E+02 -.42001479E+02 0.58930745E+02 0.51099893E-03 0.0000E+00 0.9000E+01
       11  1    4    4    0    0 0.48448103E+02 -.23503402E+02 -.10592353E+03 0.11882517E+03 0.51099893E-03 0.0000E+00 0.9000E+01
      -24  1    3    3    0    0 -.97447281E+02 -.64325307E+02 0.64817125E+02 0.15589161E+03 0.80419002E+02 0.0000E+00 0.9000E+01
#aMCatNLO 1  0  0  2  1 0.16923409D+02 0.00000000D+00  -5  7  0 0.00000000D+00 0.00000000D+00 0.00000000D+00 0.00000000D+00 0.00000000D+00
  <mgrwgt>
 0.3769519084D-03    9    2    0
 0.242336255684526D+03 0.000000000000000D+00 0.000000000000000D+00 0.242336255684526D+03
 0.242336255684526D+03 0.000000000000000D+00 0.000000000000000D+00 -.242336255684526D+03
 0.159499517817425D+03 0.888663833315728D+02 0.987518220348116D+02 0.363830151030858D+02
 0.535388014647826D+02 -.398672053559586D+02 -.109231123732761D+02 -.340249146284310D+02
 0.104926010956048D+03 0.484481025439139D+02 -.235034022646355D+02 -.900546457270795D+02
 0.166708181130796D+03 -.974472805195281D+02 -.643253073969000D+02 0.876965452524247D+02
 0.000000000000000D+00 -.000000000000000D+00 0.000000000000000D+00 -.000000000000000D+00
 0.247273527119278D+03 0.000000000000000D+00 0.000000000000000D+00 0.247273527119278D+03
 0.257433130589064D+03 0.000000000000000D+00 0.000000000000000D+00 -.257433130589064D+03
 0.160364784308807D+03 0.935772157113992D+02 0.957560912096487D+02 0.363830151030858D+02
 0.526014410381634D+02 -.383040146908490D+02 -.119171826529001D+02 -.340249146284310D+02
 0.106857820507712D+03 0.515671693611590D+02 -.254868913503813D+02 -.900546457270795D+02
 0.165143834588986D+03 -.925598979308125D+02 -.674333107166699D+02 0.876965452524247D+02
 0.197387772646729D+02 -.142804724508967D+02 0.908129351030263D+01 -.101596034697858D+02
0.297067996602D-05 0.000000000000D+00 0.000000000000D+00 0.421926761252D-06 0.000000000000D+00  7 1 -1 24 -11 11 -24 21 0 0.32344421D-01 0.42974486D-01 0.38466380D+05 0.38466380D+05 0.38466380D+05 0.11574498D+01  1  2  2  2  7  2       -1 0.267780933334D-03 0.100000000000D+01
-.156056939392D-06 0.000000000000D+00 -.114081932675D-07 0.421926761252D-06 0.000000000000D+00  7 1 -1 24 -11 11 -24 21 2 0.32344421D-01 0.42974486D-01 0.38466380D+05 0.38466380D+05 0.38466380D+05 0.11574498D+01  1  2  3  2  7  2       -1 -.188456528147D-04 0.100000000000D+01
0.175827940497D-06 0.000000000000D+00 0.000000000000D+00 0.421926761252D-06 0.000000000000D+00  7 1 -1 24 -11 11 -24 21 2 0.32344421D-01 0.42974486D-01 0.38466380D+05 0.38466380D+05 0.38466380D+05 0.11574498D+01  1  2 15  2  7  2       -1 0.212332263765D-04 0.100000000000D+01
0.103574293424D-04 0.000000000000D+00 0.000000000000D+00 0.421926761252D-06 0.000000000000D+00  7 1 -1 24 -11 11 -24 21 2 0.32344421D-01 0.46070633D-01 0.42164157D+05 0.42164157D+05 0.42164157D+05 0.11538642D+01  1  2 12  2  7  2       -1 0.110137018894D-02 0.100000000000D+01
-.102225482294D-04 0.000000000000D+00 0.000000000000D+00 0.421926761252D-06 0.000000000000D+00  7 1 -1 24 -11 11 -24 21 2 0.32344421D-01 0.42974486D-01 0.38466380D+05 0.38466380D+05 0.38466380D+05 0.11574498D+01  1  2  4  2  7  2       -1 -.123448912662D-02 0.100000000000D+01
-.298377134826D-04 0.000000000000D+00 -.497649641963D-05 0.421926761252D-06 0.000000000000D+00  7 1 -1 24 -11 11 -24 21 2 0.32344421D-01 0.46434734D-01 0.38466380D+05 0.38466380D+05 0.38466380D+05 0.11574498D+01  1  2  5  2  7  2       -1 -.314893896277D-02 0.100000000000D+01
0.301475397315D-04 0.000000000000D+00 0.496161125725D-05 0.421926761252D-06 0.000000000000D+00  7 1 -1 24 -11 11 -24 21 2 0.32344421D-01 0.42974486D-01 0.38466380D+05 0.38466380D+05 0.38466380D+05 0.11574498D+01  1  2  6  2  7  2       -1 0.364065878270D-02 0.100000000000D+01
0.132438274700D-06 0.000000000000D+00 0.000000000000D+00 0.421926761252D-06 0.000000000000D+00  7 1 21 24 -11 11 -24 1 2 0.32344421D-01 0.46070633D-01 0.42164157D+05 0.42164157D+05 0.42164157D+05 0.11538642D+01  1  2 12  4  7  2       -1 0.137894255183D-03 0.100000000000D+01
-.377033613127D-06 0.000000000000D+00 -.645747257402D-07 0.421926761252D-06 0.000000000000D+00  7 1 21 24 -11 11 -24 1 2 0.32344421D-01 0.46434734D-01 0.38466380D+05 0.38466380D+05 0.38466380D+05 0.11574498D+01  1  2  5  4  7  2       -1 -.389711735967D-03 0.100000000000D+01
  </mgrwgt>
  </event>
  <event>
  8     66 0.27727860E-05 0.53836955E+03 0.75467711E-02 0.88634853E-01
        1 -1    0    0  501    0 0.00000000E+00 0.00000000E+00 0.76864332E+03 0.76864338E+03 0.32000000E+00 0.0000E+00 0.9000E+01
       -1 -1    0    0    0  501 0.00000000E+00 0.00000000E+00 -.39963233E+03 0.39963245E+03 0.32000000E+00 0.0000E+00 0.9000E+01
       25  2    1    2    0    0 0.41606620E+02 0.49362093E+03 0.76596765E+02 0.58596247E+03 0.30346701E+03 0.0000E+00 0.0000E+00
       23  2    1    2    0    0 -.41606620E+02 -.49362093E+03 0.29241423E+03 0.58231337E+03 0.90498872E+02 0.0000E+00 0.0000E+00
       24  1    3    3    0    0 0.18523627E+02 0.48490229E+03 0.92110066E+02 0.50042466E+03 0.80419002E+02 0.0000E+00 0.9000E+01
      -13  1    4    4    0    0 0.59321117E+01 -.33737998E+03 0.16758104E+03 0.37675437E+03 0.10565837E+00 0.0000E+00 0.9000E+01
       13  1    4    4    0    0 -.47538731E+02 -.15624095E+03 0.12483318E+03 0.20555900E+03 0.10565837E+00 0.0000E+00 0.9000E+01
      -24  1    3    3    0    0 0.23082993E+02 0.87186342E+01 -.15513301E+02 0.85537814E+02 0.80419002E+02 0.0000E+00 0.9000E+01
#aMCatNLO 1  0  0  2  1 0.55593294D+03 0.00000000D+00  -5  7  0 0.00000000D+00 0.00000000D+00 0.00000000D+00 0.00000000D+00 0.00000000D+00
  <mgrwgt>
 0.5723794144D-03    3    2    0
 0.554233552338250D+03 0.000000000000000D+00 0.000000000000000D+00 0.554233552338250D+03
 0.554233552338250D+03 0.000000000000000D+00 0.000000000000000D+00 -.554233552338250D+03
 0.496762066470527D+03 0.185236273934578D+02 0.484902292104474D+03 -.695124238515142D+02
 0.341294777255043D+03 0.593218451997645D+01 -.337380224941762D+03 0.512007615825891D+02
 0.175092737263752D+03 -.475388043553234D+02 -.156240703324642D+03 0.631377173138277D+02
 0.953175236871772D+02 0.230829924418892D+02 0.871863616192933D+01 -.448260550449025D+02
 0.000000000000000D+00 -.000000000000000D+00 -.000000000000000D+00 0.000000000000000D+00
 0.153019325076970D+04 0.000000000000000D+00 0.000000000000000D+00 0.153019325076970D+04
 0.704924391372279D+03 0.000000000000000D+00 0.000000000000000D+00 -.704924391372279D+03
 0.787217885471654D+03 0.123337160031170D+03 0.770195268187117D+03 -.695124238515142D+02
 0.224011793912612D+03 0.520791501776323D+02 -.211772349333158D+03 0.512007615825891D+02
 0.114104709490953D+03 -.239311101866434D+02 -.919826904675483D+02 0.631377173138277D+02
 0.114730429538704D+03 0.402295748068426D+02 0.553900858253255D+02 -.448260550449025D+02
 0.995052823728054D+03 -.191714774829002D+03 -.521830314211737D+03 0.825268859397419D+03
0.735293524991D-04 0.000000000000D+00 0.000000000000D+00 0.877073648342D-07 0.000000000000D+00  7 1 -1 24 -13 13 -24 21 0 0.11825283D+00 0.61481911D-01 0.28984177D+06 0.28984177D+06 0.28984177D+06 0.10856604D+01  1  2  2  2  7  2       -1 0.568289942959D-03 0.100000000000D+01
-.408077520780D-05 0.000000000000D+00 -.282372074320D-06 0.877073648342D-07 0.000000000000D+00  7 1 -1 24 -13 13 -24 21 2 0.11825283D+00 0.61481911D-01 0.28984177D+06 0.28984177D+06 0.28984177D+06 0.10856604D+01  1  2  3  2  7  2       -1 -.371740535227D-04 0.100000000000D+01
0.452969621497D-05 0.000000000000D+00 0.000000000000D+00 0.877073648342D-07 0.000000000000D+00  7 1 -1 24 -13 13 -24 21 2 0.11825283D+00 0.61481911D-01 0.28984177D+06 0.28984177D+06 0.28984177D+06 0.10856604D+01  1  2 15  2  7  2       -1 0.412635249340D-04 0.100000000000D+01
  </mgrwgt>
  </event>
  <event>
  8     66 0.27727860E-05 0.19175527E+03 0.75467711E-02 0.92497028E-01
        1 -1    0    0  501    0 0.00000000E+00 0.00000000E+00 0.35081733E+02 0.35083193E+02 0.32000000E+00 0.0000E+00 0.9000E+01
       -1 -1    0    0    0  501 0.00000000E+00 0.00000000E+00 -.13716773E+04 0.13716773E+04 0.32000000E+00 0.0000E+00 0.9000E+01
       25  2    1    2    0    0 0.59012886E+01 -.86781589E+02 -.93229682E+03 0.98322942E+03 0.29999480E+03 0.0000E+00 0.0000E+00
       23  2    1    2    0    0 -.59012886E+01 0.86781589E+02 -.40429875E+03 0.42353110E+03 0.91407047E+02 0.0000E+00 0.0000E+00
       24  1    3    3    0    0 -.93906657E+01 -.14100972E+03 -.28166367E+03 0.32522848E+03 0.80419002E+02 0.0000E+00 0.9000E+01
      -13  1    4    4    0    0 0.20413093E+02 -.97791259E+01 -.12036965E+03 0.12247934E+03 0.10565837E+00 0.0000E+00 0.9000E+01
       13  1    4    4    0    0 -.26314381E+02 0.96560715E+02 -.28392910E+03 0.30105176E+03 0.10565837E+00 0.0000E+00 0.9000E+01
      -24  1    3    3    0    0 0.15291954E+02 0.54228133E+02 -.65063314E+03 0.65800094E+03 0.80419002E+02 0.0000E+00 0.9000E+01
#aMCatNLO 1  0  0  1  1 0.54383738D+03 0.00000000D+00  -5  7  0 0.00000000D+00 0.00000000D+00 0.00000000D+00 0.00000000D+00 0.00000000D+00
  <mgrwgt>
 0.1910702551D-02    3    2    0
 0.219366975825212D+03 0.000000000000000D+00 0.000000000000000D+00 0.219366975825212D+03
 0.219366975825212D+03 0.000000000000000D+00 0.000000000000000D+00 -.219366975825212D+03
 0.184731976645196D+03 -.939066340380761D+01 -.141009755759088D+03 0.876741208251870D+02
 0.260146436049917D+02 0.204131363265289D+02 -.977923351282539D+01 -.128231095726003D+02
 0.100310018224274D+03 -.263144287447052D+02 0.965608792335992D+02 0.675627098541668D+01
 0.127677313175962D+03 0.152919558219839D+02 0.542281100383138D+02 -.816072822380034D+02
 0.000000000000000D+00 -.000000000000000D+00 0.000000000000000D+00 -.000000000000000D+00
 0.593418449792576D+03 0.000000000000000D+00 0.000000000000000D+00 0.593418449792576D+03
 0.652348913219292D+03 0.000000000000000D+00 0.000000000000000D+00 -.652348913219292D+03
 0.287011872744780D+03 0.216080732832465D+03 -.146734333331400D+03 0.876741208251870D+02
 0.670348731781201D+02 0.648864336367716D+02 -.109083826847328D+02 -.128231095726003D+02
 0.124112242256292D+03 0.809488678144066D+02 0.938375312965016D+02 0.675627098541668D+01
 0.220587445243011D+03 0.181746147947976D+03 0.500019423249455D+02 -.816072822380034D+02
 0.547020929589665D+03 -.543662182231620D+03 0.138032423946855D+02 -.589304634267159D+02
0.826438916824D-04 0.000000000000D+00 0.000000000000D+00 0.601542451174D-06 0.000000000000D+00  7 1 -1 24 -13 13 -24 21 0 0.53973049D-02 0.21102739D+00 0.36770082D+05 0.36770082D+05 0.36770082D+05 0.11592242D+01  1  2  2  1  7  1        1 0.188889645752D-02 0.100000000000D+01
-.449030136979D-05 0.000000000000D+00 -.317374304697D-06 0.601542451174D-06 0.000000000000D+00  7 1 -1 24 -13 13 -24 21 2 0.53973049D-02 0.21102739D+00 0.36770082D+05 0.36770082D+05 0.36770082D+05 0.11592242D+01  1  2  3  1  7  1        1 -.137913817335D-03 0.100000000000D+01
0.520028051108D-05 0.000000000000D+00 0.000000000000D+00 0.601542451174D-06 0.000000000000D+00  7 1 -1 24 -13 13 -24 21 2 0.53973049D-02 0.21102739D+00 0.36770082D+05 0.36770082D+05 0.36770082D+05 0.11592242D+01  1  2 15  1  7  1        1 0.159719911301D-03 0.100000000000D+01
  </mgrwgt>
  </event>
  <event>
  8     66 0.27727860E-05 0.36890450E+03 0.75467711E-02 0.95429763E-01
        1 -1    0    0  501    0 0.00000000E+00 0.00000000E+00 0.19535970E+04 0.19535970E+04 0.32000000E+00 0.0000E+00 0.9000E+01
       -1 -1    0    0    0  501 0.00000000E+00 0.00000000E+00 -.12703447E+03 0.12703488E+03 0.32000000E+00 0.0000E+00 0.9000E+01
       25  2    1    2    0    0 0.95842873E+02 0.29467580E+03 0.16635192E+04 0.17184213E+04 0.29942632E+03 0.0000E+00 0.0000E+00
       23  2    1    2    0    0 -.95842873E+02 -.29467580E+03 0.16304336E+03 0.36221059E+03 0.92702153E+02 0.0000E+00 0.0000E+00
       24  1    3    3    0    0 0.59690385E+02 -.19079659E+02 0.31546715E+03 0.33153238E+03 0.80419002E+02 0.0000E+00 0.9000E+01
      -11  1    4    4    0    0 -.65348540E+02 -.19021449E+03 0.54207416E+02 0.20830369E+03 0.51099893E-03 0.0000E+00 0.9000E+01
       11  1    4    4    0    0 -.30494333E+02 -.10446131E+03 0.10883595E+03 0.15390689E+03 0.51099893E-03 0.0000E+00 0.9000E+01
      -24  1    3    3    0    0 0.36152488E+02 0.31375546E+03 0.13480520E+04 0.13868890E+04 0.80419002E+02 0.0000E+00 0.9000E+01
#aMCatNLO 1  0  0  1  1 0.19035256D+03 0.00000000D+00  -5  7  0 0.00000000D+00 0.00000000D+00 0.00000000D+00 0.00000000D+00 0.00000000D+00
  <mgrwgt>
 0.4871540166D-03    4    2    0
 0.498171268392307D+03 0.000000000000000D+00 0.000000000000000D+00 0.498171268392307D+03
 0.498171268392307D+03 0.000000000000000D+00 0.000000000000000D+00 -.498171268392307D+03
 0.113993283176953D+03 0.596903849975707D+02 -.190796593065564D+02 0.509929131809315D+02
 0.335617583891725D+03 -.653485399133200D+02 -.190214491125986D+03 -.268676717104773D+03
 0.121873681545992D+03 -.304943327545094D+02 -.104461306275682D+03 -.548737224417058D+02
 0.424857988169943D+03 0.361524876702587D+02 0.313755456708225D+03 0.272557526365547D+03
 0.000000000000000D+00 -.000000000000000D+00 -.000000000000000D+00 -.000000000000000D+00
 0.574355959900392D+03 0.000000000000000D+00 0.000000000000000D+00 0.574355959900392D+03
 0.642032400992233D+03 0.000000000000000D+00 0.000000000000000D+00 -.642032400992233D+03
 0.115840111934242D+03 0.659419199941827D+02 0.176112786870680D+01 0.509929131809315D+02
 0.303292235363774D+03 -.479700075515526D+02 -.132279552816226D+03 -.268676717104773D+03
 0.103288100647671D+03 -.243698669839794D+02 -.840441306932094D+02 -.548737224417058D+02
 0.491942675617784D+03 0.610897315891120D+02 0.396888926093281D+03 0.272557526365547D+03
 0.202025237329154D+03 -.546917770477626D+02 -.182326370452552D+03 -.676764410918418D+02
0.845243071021D-04 0.000000000000D+00 0.000000000000D+00 0.209552894584D-05 0.000000000000D+00  7 1 -1 24 -11 11 -24 21 0 0.30055342D+00 0.19543798D-01 0.13609053D+06 0.13609053D+06 0.13609053D+06 0.11109026D+01  1  2  2  1  7  1        1 0.699654329495D-03 0.100000000000D+01
-.418055651785D-05 0.000000000000D+00 -.324595595033D-06 0.209552894584D-05 0.000000000000D+00  7 1 -1 24 -11 11 -24 21 2 0.30055342D+00 0.19543798D-01 0.13609053D+06 0.13609053D+06 0.13609053D+06 0.11109026D+01  1  2  3  1  7  1        1 -.427059088663D-04 0.100000000000D+01
0.534558200958D-05 0.000000000000D+00 0.000000000000D+00 0.209552894584D-05 0.000000000000D+00  7 1 -1 24 -11 11 -24 21 2 0.30055342D+00 0.19543798D-01 0.13609053D+06 0.13609053D+06 0.13609053D+06 0.11109026D+01  1  2 15  1  7  1        1 0.546070689783D-04 0.100000000000D+01
-.219670548040D-04 0.000000000000D+00 0.000000000000D+00 0.209552894584D-05 0.000000000000D+00  7 1 -1 24 -11 11 -24 21 2 0.30055342D+00 0.19543798D-01 0.13609053D+06 0.13609053D+06 0.13609053D+06 0.11109026D+01  1  2  4  1  7  1        1 -.224401472989D-03 0.100000000000D+01
  </mgrwgt>
  </event>
  <event>
  8     66 0.27727860E-05 0.52574554E+02 0.75467711E-02 0.11304717E+00
        1 -1    0    0  501    0 0.00000000E+00 0.00000000E+00 0.36926175E+03 0.36926188E+03 0.32000000E+00 0.0000E+00 0.9000E+01
       -1 -1    0    0    0  501 0.00000000E+00 0.00000000E+00 -.21730311E+03 0.21730334E+03 0.32000000E+00 0.0000E+00 0.9000E+01
       25  2    1    2    0    0 -.10390244E+02 0.26285064E+02 0.29517927E+03 0.41456827E+03 0.28971915E+03 0.0000E+00 0.0000E+00
       23  2    1    2    0    0 0.10390244E+02 -.26285064E+02 -.14322063E+03 0.17199696E+03 0.90950218E+02 0.0000E+00 0.0000E+00
       24  1    3    3    0    0 -.44750216E+02 0.43055343E+02 -.47340655E+01 0.10171515E+03 0.80419002E+02 0.0000E+00 0.9000E+01
      -11  1    4    4    0    0 -.77282867E+01 -.18455959E+02 -.14984677E+03 0.15117673E+03 0.51099893E-03 0.0000E+00 0.9000E+01
       11  1    4    4    0    0 0.18118531E+02 -.78291041E+01 0.66261409E+01 0.20820225E+02 0.51099893E-03 0.0000E+00 0.9000E+01
      -24  1    3    3    0    0 0.34359972E+02 -.16770280E+02 0.29991334E+03 0.31285312E+03 0.80419002E+02 0.0000E+00 0.9000E+01
#aMCatNLO 1  0  0  2  1 0.25048053D+02 0.00000000D+00  -5  7  0 0.00000000D+00 0.00000000D+00 0.00000000D+00 0.00000000D+00 0.00000000D+00
  <mgrwgt>
 0.2312178257D-02    6    2    0
 0.283269897489494D+03 0.000000000000000D+00 0.000000000000000D+00 0.283269897489494D+03
 0.283269897489494D+03 0.000000000000000D+00 0.000000000000000D+00 -.283269897489494D+03
 0.106580248700729D+03 -.447502159361618D+02 0.430553431193547D+02 -.321836769384775D+02
 0.196712617899375D+03 -.772828666579198D+01 -.184559594513457D+02 -.195692373859502D+03
 0.197788769163521D+02 0.181185310850630D+02 -.782910407193245D+01 0.127590470751540D+01
 0.243468051462533D+03 0.343599715168908D+02 -.167702795960766D+02 0.226600146090464D+03
 0.000000000000000D+00 0.000000000000000D+00 -.000000000000000D+00 0.000000000000000D+00
 0.298297739161922D+03 0.000000000000000D+00 0.000000000000000D+00 0.298297739161922D+03
 0.294179796323161D+03 0.000000000000000D+00 0.000000000000000D+00 -.294179796323161D+03
 0.108683368140942D+03 -.495062686532068D+02 0.431068307678182D+02 -.321836769384775D+02
 0.197237616798329D+03 -.164322567635007D+02 -.183617327933818D+02 -.195692373859502D+03
 0.189934358460963D+02 0.172618922987901D+02 -.781983034867667D+01 0.127590470751540D+01
 0.242178820434247D+03 0.236300480932407D+02 -.166541205545048D+02 0.226600146090464D+03
 0.253842942654689D+02 0.250465850246767D+02 -.271147071254905D+00 0.411794283876141D+01
0.188268205659D-04 0.000000000000D+00 0.000000000000D+00 0.917201703324D-08 0.000000000000D+00  7 1 -1 24 -11 11 -24 21 0 0.56809528D-01 0.33431276D-01 0.13270651D+05 0.13270651D+05 0.13270651D+05 0.12017021D+01  1  2  2  2  7  2       -1 0.125815415596D-02 0.100000000000D+01
-.164379048392D-07 0.000000000000D+00 -.722999481886D-07 0.917201703324D-08 0.000000000000D+00  7 1 -1 24 -11 11 -24 21 2 0.56809528D-01 0.33431276D-01 0.13270651D+05 0.13270651D+05 0.13270651D+05 0.12017021D+01  1  2  3  2  7  2       -1 -.158634257879D-05 0.100000000000D+01
0.112275493014D-05 0.000000000000D+00 0.000000000000D+00 0.917201703324D-08 0.000000000000D+00  7 1 -1 24 -11 11 -24 21 2 0.56809528D-01 0.33431276D-01 0.13270651D+05 0.13270651D+05 0.13270651D+05 0.12017021D+01  1  2 15  2  7  2       -1 0.108351640227D-03 0.100000000000D+01
0.318644233997D-04 0.000000000000D+00 0.000000000000D+00 0.917201703324D-08 0.000000000000D+00  7 1 -1 24 -11 11 -24 21 2 0.56809528D-01 0.35566546D-01 0.16628833D+05 0.16628833D+05 0.16628833D+05 0.11918861D+01  1  2 12  2  7  2       -1 0.273003744538D-02 0.100000000000D+01
-.218285785341D-04 0.000000000000D+00 0.000000000000D+00 0.917201703324D-08 0.000000000000D+00  7 1 -1 24 -11 11 -24 21 2 0.56809528D-01 0.33431276D-01 0.13270651D+05 0.13270651D+05 0.13270651D+05 0.12017021D+01  1  2  4  2  7  2       -1 -.210657038728D-02 0.100000000000D+01
0.347450429969D-06 0.000000000000D+00 0.000000000000D+00 0.917201703324D-08 0.000000000000D+00  7 1 21 24 -11 11 -24 1 2 0.56809528D-01 0.35566546D-01 0.16628833D+05 0.16628833D+05 0.16628833D+05 0.11918861D+01  1  2 12  4  7  2       -1 0.323791745025D-03 0.100000000000D+01
  </mgrwgt>
  </event>
  <event>
  8     66 0.27727860E-05 0.78177805E+03 0.75467711E-02 0.87234665E-01
        1 -1    0    0  501    0 0.00000000E+00 0.00000000E+00 0.14762859E+04 0.14762860E+04 0.32000000E+00 0.0000E+00 0.9000E+01
       -1 -1    0    0    0  501 0.00000000E+00 0.00000000E+00 -.41466271E+03 0.41466283E+03 0.32000000E+00 0.0000E+00 0.9000E+01
       25  2    1    2    0    0 -.73270453E+03 -.16458562E+03 0.55708323E+03 0.98226066E+03 0.30091514E+03 0.0000E+00 0.0000E+00
       23  2    1    2    0    0 0.73270453E+03 0.16458562E+03 0.50454001E+03 0.90868815E+03 0.84906827E+02 0.0000E+00 0.0000E+00
       24  1    3    3    0    0 -.40435303E+03 -.21683563E+03 0.34662131E+03 0.58063122E+03 0.80419002E+02 0.0000E+00 0.9000E+01
      -11  1    4    4    0    0 0.56554697E+02 -.97878603E+01 0.41845581E+02 0.71030195E+02 0.51099893E-03 0.0000E+00 0.9000E+01
       11  1    4    4    0    0 0.67614984E+03 0.17437348E+03 0.46269443E+03 0.83765795E+03 0.51099893E-03 0.0000E+00 0.9000E+01
      -24  1    3    3    0    0 -.32835151E+03 0.52250013E+02 0.21046191E+03 0.40162944E+03 0.80419002E+02 0.0000E+00 0.9000E+01
#aMCatNLO 1  0  0  2  1 0.41296214D+03 0.00000000D+00  -5  7  0 0.00000000D+00 0.00000000D+00 0.00000000D+00 0.00000000D+00 0.00000000D+00
  <mgrwgt>
 0.2431251750D-02    4    2    0
 0.782407101928404D+03 0.000000000000000D+00 0.000000000000000D+00 0.782407101928404D+03
 0.782407101928404D+03 0.000000000000000D+00 0.000000000000000D+00 -.782407101928404D+03
 0.466485201085019D+03 -.404353027846843D+03 -.216835628116721D+03 0.249432581527997D+02
 0.574446607440190D+02 0.565546967413785D+02 -.978786032619847D+01 0.237762796100997D+01
 0.698332840716615D+03 0.676149836699022D+03 0.174373475531308D+03 -.916764890013100D+01
 0.342551501311155D+03 -.328351505593557D+03 0.522500129116116D+02 -.181532372136787D+02
 0.000000000000000D+00 -.000000000000000D+00 0.000000000000000D+00 0.000000000000000D+00
 0.111968185453111D+04 0.000000000000000D+00 0.000000000000000D+00 0.111968185453111D+04
 0.946508669367251D+03 0.000000000000000D+00 0.000000000000000D+00 -.946508669367251D+03
 0.417186473162772D+03 -.304260903871723D+03 -.272727838116146D+03 0.249432581527997D+02
 0.737017848861738D+02 0.714094518245800D+02 -.180828695399774D+02 0.237762796100997D+01
 0.855600667814605D+03 0.852161482107252D+03 0.760872222598074D+02 -.916764890013100D+01
 0.271899539339909D+03 -.258753586445770D+03 0.133860008590943D+02 -.181532372136787D+02
 0.447802058694902D+03 -.360556443614339D+03 0.201337484537222D+03 0.173173185163861D+03
0.145000385507D-02 0.000000000000D+00 0.000000000000D+00 0.138959687972D-06 0.000000000000D+00  7 1 -1 24 -11 11 -24 21 0 0.22712093D+00 0.63794275D-01 0.61117693D+06 0.61117693D+06 0.61117693D+06 0.10624018D+01  1  2  2  2  7  2       -1 0.298101768839D-02 0.100000000000D+01
-.805557063642D-04 0.000000000000D+00 -.556839659825D-05 0.138959687972D-06 0.000000000000D+00  7 1 -1 24 -11 11 -24 21 2 0.22712093D+00 0.63794275D-01 0.61117693D+06 0.61117693D+06 0.61117693D+06 0.10624018D+01  1  2  3  2  7  2       -1 -.186925828745D-03 0.100000000000D+01
0.914092725229D-04 0.000000000000D+00 0.000000000000D+00 0.138959687972D-06 0.000000000000D+00  7 1 -1 24 -11 11 -24 21 2 0.22712093D+00 0.63794275D-01 0.61117693D+06 0.61117693D+06 0.61117693D+06 0.10624018D+01  1  2 15  2  7  2       -1 0.212111032135D-03 0.100000000000D+01
-.247775257492D-03 0.000000000000D+00 0.000000000000D+00 0.138959687972D-06 0.000000000000D+00  7 1 -1 24 -11 11 -24 21 2 0.22712093D+00 0.63794275D-01 0.61117693D+06 0.61117693D+06 0.61117693D+06 0.10624018D+01  1  2  4  2  7  2       -1 -.574951141757D-03 0.100000000000D+01
  </mgrwgt>
  </event>
  <event>
  8     66 0.27727860E-05 0.17772777E+03 0.75467711E-02 0.95331139E-01
        1 -1    0    0  501    0 0.00000000E+00 0.00000000E+00 0.30272603E+04 0.30272603E+04 0.32000000E+00 0.0000E+00 0.9000E+01
       -1 -1    0    0    0  501 0.00000000E+00 0.00000000E+00 -.17161343E+03 0.17161373E+03 0.32000000E+00 0.0000E+00 0.9000E+01
       25  2    1    2    0    0 -.28329724E+03 -.12635884E+03 0.12458942E+03 0.44878921E+03 0.29944172E+03 0.0000E+00 0.0000E+00
       23  2    1    2    0    0 0.28329724E+03 0.12635884E+03 0.27310575E+04 0.27500849E+04 0.89821958E+02 0.0000E+00 0.0000E+00
       24  1    3    3    0    0 -.17859919E+03 0.43723057E+02 0.13248619E+01 0.20069466E+03 0.80419002E+02 0.0000E+00 0.9000E+01
      -11  1    4    4    0    0 0.12559279E+03 0.82527230E+01 0.10886423E+04 0.10958940E+04 0.51099893E-03 0.0000E+00 0.9000E+01
       11  1    4    4    0    0 0.15770445E+03 0.11810612E+03 0.16424152E+04 0.16541908E+04 0.51099893E-03 0.0000E+00 0.9000E+01
      -24  1    3    3    0    0 -.10469805E+03 -.17008190E+03 0.12326456E+03 0.24809454E+03 0.80419002E+02 0.0000E+00 0.9000E+01
#aMCatNLO 1  0  0  2  1 0.18680485D+03 0.00000000D+00  -5  7  0 0.00000000D+00 0.00000000D+00 0.00000000D+00 0.00000000D+00 0.00000000D+00
  <mgrwgt>
 0.4835871872D-03    9    2    0
 0.720776693523237D+03 0.000000000000000D+00 0.000000000000000D+00 0.720776693523237D+03
 0.720776693523237D+03 0.000000000000000D+00 0.000000000000000D+00 -.720776693523237D+03
 0.442726318294771D+03 -.178599192644252D+03 0.437230572197061D+02 -.394626405110778D+03
 0.275292602958242D+03 0.125592793108009D+03 0.825272297535768D+01 0.244835373519321D+03
 0.417182204076068D+03 0.157704447555958D+03 0.118106120302536D+03 0.367724411707898D+03
 0.306352261717392D+03 -.104698048019714D+03 -.170081900497600D+03 -.217933380116441D+03
 0.000000000000000D+00 -.000000000000000D+00 0.000000000000000D+00 -.000000000000000D+00
 0.772703313647117D+03 0.000000000000000D+00 0.000000000000000D+00 0.772703313647117D+03
 0.916868950345592D+03 0.000000000000000D+00 0.000000000000000D+00 -.916868950345592D+03
 0.423814943250899D+03 -.131248520826523D+03 0.139898655671182D+02 -.394626405110778D+03
 0.290808682539859D+03 0.156526433979769D+03 -.111716238658624D+02 0.244835373519321D+03
 0.429838503175579D+03 0.203988451921029D+03 0.890427275478719D+02 0.367724411707898D+03
 0.309144495868483D+03 -.710652756790868D+02 -.191201129167916D+03 -.217933380116441D+03
 0.235965639157890D+03 -.158201089395188D+03 0.993401599187882D+02 -.144165636698476D+03
0.638656026727D-03 0.000000000000D+00 0.000000000000D+00 0.349098717153D-05 0.000000000000D+00  7 1 -1 24 -11 11 -24 21 0 0.46573238D+00 0.26402091D-01 0.13648864D+06 0.13648864D+06 0.13648864D+06 0.11108016D+01  1  2  2  2  7  2       -1 0.588193004894D-03 0.100000000000D+01
-.162118871675D-04 0.000000000000D+00 -.245260730463D-05 0.349098717153D-05 0.000000000000D+00  7 1 -1 24 -11 11 -24 21 2 0.46573238D+00 0.26402091D-01 0.13648864D+06 0.13648864D+06 0.13648864D+06 0.11108016D+01  1  2  3  2  7  2       -1 -.184229587040D-04 0.100000000000D+01
0.372446587191D-04 0.000000000000D+00 0.000000000000D+00 0.349098717153D-05 0.000000000000D+00  7 1 -1 24 -11 11 -24 21 2 0.46573238D+00 0.26402091D-01 0.13648864D+06 0.13648864D+06 0.13648864D+06 0.11108016D+01  1  2 15  2  7  2       -1 0.423243020655D-04 0.100000000000D+01
0.433181019968D-03 0.000000000000D+00 0.000000000000D+00 0.349098717153D-05 0.000000000000D+00  7 1 -1 24 -11 11 -24 21 2 0.46573238D+00 0.34343552D-01 0.22095969D+06 0.22095969D+06 0.22095969D+06 0.10945165D+01  1  2 12  2  7  2       -1 0.297057529371D-03 0.100000000000D+01
-.719625759021D-03 0.000000000000D+00 0.000000000000D+00 0.349098717153D-05 0.000000000000D+00  7 1 -1 24 -11 11 -24 21 2 0.46573238D+00 0.26402091D-01 0.13648864D+06 0.13648864D+06 0.13648864D+06 0.11108016D+01  1  2  4  2  7  2       -1 -.817772508767D-03 0.100000000000D+01
-.718180427587D-03 0.000000000000D+00 -.303215422873D-03 0.349098717153D-05 0.000000000000D+00  7 1 -1 24 -11 11 -24 21 2 0.46573238D+00 0.36739931D-01 0.13648864D+06 0.13648864D+06 0.13648864D+06 0.11108016D+01  1  2  5  2  7  2       -1 -.468123946342D-03 0.100000000000D+01
0.790645750757D-03 0.000000000000D+00 0.287384152688D-03 0.349098717153D-05 0.000000000000D+00  7 1 -1 24 -11 11 -24 21 2 0.46573238D+00 0.26402091D-01 0.13648864D+06 0.13648864D+06 0.13648864D+06 0.11108016D+01  1  2  6  2  7  2       -1 0.898478620363D-03 0.100000000000D+01
0.152155529105D-04 0.000000000000D+00 0.000000000000D+00 0.349098717153D-05 0.000000000000D+00  7 1 21 24 -11 11 -24 1 2 0.46573238D+00 0.34343552D-01 0.22095969D+06 0.22095969D+06 0.22095969D+06 0.10945165D+01  1  2 12  4  7  2       -1 0.106934110817D-03 0.100000000000D+01
-.218871876090D-04 0.000000000000D+00 -.125661794472D-04 0.349098717153D-05 0.000000000000D+00  7 1 21 24 -11 11 -24 1 2 0.46573238D+00 0.36739931D-01 0.13648864D+06 0.13648864D+06 0.13648864D+06 0.11108016D+01  1  2  5  4  7  2       -1 -.145080966451D-03 0.100000000000D+01
  </mgrwgt>
  </event>
  <event>
  8     66 0.27727860E-05 0.35296629E+03 0.75467711E-02 0.87175079E-01
        1 -1    0    0  501    0 0.00000000E+00 0.00000000E+00 0.18484709E+04 0.18484709E+04 0.32000000E+00 0.0000E+00 0.9000E+01
       -1 -1    0    0    0  501 0.00000000E+00 0.00000000E+00 -.35326005E+03 0.35326019E+03 0.32000000E+00 0.0000E+00 0.9000E+01
       25  2    1    2    0    0 0.31843217E+01 0.73639738E+03 0.11102411E+04 0.13656425E+04 0.30008794E+03 0.0000E+00 0.0000E+00
       23  2    1    2    0    0 -.31843217E+01 -.73639738E+03 0.38496973E+03 0.83608865E+03 0.92473255E+02 0.0000E+00 0.0000E+00
       24  1    3    3    0    0 0.12038257E+03 0.27761721E+03 0.39366820E+03 0.50299617E+03 0.80419002E+02 0.0000E+00 0.9000E+01
      -13  1    4    4    0    0 -.63778716E+01 -.68474405E+03 0.38231104E+03 0.78426834E+03 0.10565837E+00 0.0000E+00 0.9000E+01
       13  1    4    4    0    0 0.31935498E+01 -.51653323E+02 0.26586977E+01 0.51820308E+02 0.10565837E+00 0.0000E+00 0.9000E+01
      -24  1    3    3    0    0 -.11719825E+03 0.45878016E+03 0.71657293E+03 0.86264630E+03 0.80419002E+02 0.0000E+00 0.9000E+01
#aMCatNLO 1  0  0  1  2 0.45008310D+03 0.00000000D+00  -5  7  0 0.00000000D+00 0.00000000D+00 0.00000000D+00 0.00000000D+00 0.00000000D+00
  <mgrwgt>
 0.1391839363D-02    9    2    0
 0.808078651264034D+03 0.000000000000000D+00 0.000000000000000D+00 0.808078651264034D+03
 0.808078651264034D+03 0.000000000000000D+00 0.000000000000000D+00 -.808078651264034D+03
 0.321036422802190D+03 0.120382571109911D+03 0.277617214234183D+03 0.709498960187716D+02
 0.714728554425674D+03 -.637788407351827D+01 -.684744879143713D+03 -.204745401883954D+03
 0.681355132030011D+02 0.319356232698987D+01 -.516524960592383D+02 -.443200741194136D+02
 0.512256812097203D+03 -.117198249363383D+03 0.458780160968767D+03 0.178115579984596D+03
 0.000000000000000D+00 -.000000000000000D+00 -.000000000000000D+00 0.000000000000000D+00
 0.139354018033151D+04 0.000000000000000D+00 0.000000000000000D+00 0.139354018033151D+04
 0.930126913590538D+03 0.000000000000000D+00 0.000000000000000D+00 -.930126913590538D+03
 0.392399265835114D+03 0.211312724697465D+03 0.312766706203561D+03 0.709498960187716D+02
 0.671514555635381D+03 0.170304192412317D+03 -.616447565397375D+03 -.204745401883954D+03
 0.663714450304338D+02 0.203369973493144D+02 -.450256180889451D+02 -.443200741194136D+02
 0.547373584565315D+03 0.178557663652127D+02 0.510985945892617D+03 0.178115579984596D+03
 0.646008242855809D+03 -.419809680824309D+03 -.162279468609859D+03 0.463413266740976D+03
0.801860402573D-03 0.000000000000D+00 0.000000000000D+00 0.126692845518D-04 0.000000000000D+00  7 1 -1 24 -13 13 -24 21 0 0.28438015D+00 0.54347713D-01 0.58516186D+06 0.58516186D+06 0.58516186D+06 0.10637161D+01  1  2  2  1  7  1        1 0.125755092617D-02 0.100000000000D+01
-.443849218802D-04 0.000000000000D+00 -.307935508057D-05 0.126692845518D-04 0.000000000000D+00  7 1 -1 24 -13 13 -24 21 2 0.28438015D+00 0.54347713D-01 0.58516186D+06 0.58516186D+06 0.58516186D+06 0.10637161D+01  1  2  3  1  7  1        1 -.787614597422D-04 0.100000000000D+01
0.478170927724D-04 0.000000000000D+00 0.000000000000D+00 0.126692845518D-04 0.000000000000D+00  7 1 -1 24 -13 13 -24 21 2 0.28438015D+00 0.54347713D-01 0.58516186D+06 0.58516186D+06 0.58516186D+06 0.10637161D+01  1  2 15  1  7  1        1 0.848518791484D-04 0.100000000000D+01
0.232402514341D-03 0.000000000000D+00 0.000000000000D+00 0.126692845518D-04 0.000000000000D+00  7 1 -1 24 -13 13 -24 21 2 0.49868413D+00 0.54347713D-01 0.10429960D+07 0.10429960D+07 0.10429960D+07 0.10466491D+01  1  2 12  1  7  1        1 0.390227155706D-04 0.100000000000D+01
-.514648957766D-03 0.000000000000D+00 0.000000000000D+00 0.126692845518D-04 0.000000000000D+00  7 1 -1 24 -13 13 -24 21 2 0.28438015D+00 0.54347713D-01 0.58516186D+06 0.58516186D+06 0.58516186D+06 0.10637161D+01  1  2  4  1  7  1        1 -.913249397574D-03 0.100000000000D+01
-.567650366911D-03 0.000000000000D+00 -.215003157860D-03 0.126692845518D-04 0.000000000000D+00  7 1 -1 24 -13 13 -24 21 2 0.50774901D+00 0.54347713D-01 0.58516186D+06 0.58516186D+06 0.58516186D+06 0.10637161D+01  1  2  5  1  7  1        1 -.927398594531D-04 0.100000000000D+01
0.617304734252D-03 0.000000000000D+00 0.183329436541D-03 0.126692845518D-04 0.000000000000D+00  7 1 -1 24 -13 13 -24 21 2 0.28438015D+00 0.54347713D-01 0.58516186D+06 0.58516186D+06 0.58516186D+06 0.10637161D+01  1  2  6  1  7  1        1 0.109541303478D-02 0.100000000000D+01
0.144098121880D-04 0.000000000000D+00 0.000000000000D+00 0.126692845518D-04 0.000000000000D+00  7 21 -1 24 -13 13 -24 -1 2 0.49868413D+00 0.54347713D-01 0.10429960D+07 0.10429960D+07 0.10429960D+07 0.10466491D+01  1  2 12  3  7  1        1 0.399614298203D-06 0.100000000000D+01
-.248692886621D-04 0.000000000000D+00 -.136947008517D-04 0.126692845518D-04 0.000000000000D+00  7 21 -1 24 -13 13 -24 -1 2 0.50774901D+00 0.54347713D-01 0.58516186D+06 0.58516186D+06 0.58516186D+06 0.10637161D+01  1  2  5  3  7  1        1 -.648090143382D-06 0.100000000000D+01
  </mgrwgt>
  </event>
  <event>
  8     66 0.27727860E-05 0.29043596E+03 0.75467711E-02 0.88377839E-01
        1 -1    0    0  501    0 0.00000000E+00 0.00000000E+00 0.25895423E+03 0.25895443E+03 0.32000000E+00 0.0000E+00 0.9000E+01
       -1 -1    0    0    0  501 0.00000000E+00 0.00000000E+00 -.55138868E+03 0.55138877E+03 0.32000000E+00 0.0000E+00 0.9000E+01
       25  2    1    2    0    0 0.13593989E+03 -.17438928E+03 -.40088162E+03 0.54740188E+03 0.30008578E+03 0.0000E+00 0.0000E+00
       23  2    1    2    0    0 -.13593989E+03 0.17438928E+03 0.10844718E+03 0.26294132E+03 0.92119878E+02 0.0000E+00 0.0000E+00
       24  1    3    3    0    0 0.30532973E+02 -.19810635E+03 -.15097904E+03 0.26351522E+03 0.80419002E+02 0.0000E+00 0.9000E+01
      -11  1    4    4    0    0 -.13635147E+03 0.13862879E+03 0.11595878E+03 0.22639811E+03 0.51099893E-03 0.0000E+00 0.9000E+01
       11  1    4    4    0    0 0.41157586E+00 0.35760488E+02 -.75116063E+01 0.36543209E+02 0.51099893E-03 0.0000E+00 0.9000E+01
      -24  1    3    3    0    0 0.10540692E+03 0.23717074E+02 -.24990258E+03 0.28388666E+03 0.80419002E+02 0.0000E+00 0.9000E+01
#aMCatNLO 1  0  0  2  2 0.84824121D+03 0.00000000D+00  -5  7  0 0.00000000D+00 0.00000000D+00 0.00000000D+00 0.00000000D+00 0.00000000D+00
  <mgrwgt>
 0.6669297703D-03    3    2    0
 0.377868429817511D+03 0.000000000000000D+00 0.000000000000000D+00 0.377868429817511D+03
 0.377868429817511D+03 0.000000000000000D+00 0.000000000000000D+00 -.377868429817511D+03
 0.224133967573217D+03 0.305329727726412D+02 -.198106350685872D+03 -.599202040828709D+02
 0.287627242787585D+03 -.136351468229353D+03 0.138628787978163D+03 0.211942839107609D+03
 0.362770302460027D+02 0.411575864699689D+00 0.357604884060834D+02 0.608613159037511D+01
 0.207698619028217D+03 0.105406919592012D+03 0.237170743016251D+02 -.158108766615113D+03
 0.000000000000000D+00 -.000000000000000D+00 0.000000000000000D+00 0.000000000000000D+00
 0.103154411524656D+04 0.000000000000000D+00 0.000000000000000D+00 0.103154411524656D+04
 0.956112788763729D+03 0.000000000000000D+00 0.000000000000000D+00 -.956112788763729D+03
 0.460412394436544D+03 0.309772551390770D+03 -.325519419611090D+03 -.599202040828709D+02
 0.228555320556149D+03 0.742092906576759D+02 0.425528927996079D+02 0.211942839107609D+03
 0.382923095129090D+02 0.308298384802180D+02 0.218810655449116D+02 0.608613159037511D+01
 0.408808346988466D+03 0.356891924786130D+03 -.910319754535190D+02 -.158108766615113D+03
 0.851588532516226D+03 -.771703605314795D+03 0.352117436720090D+03 0.754313264828351D+02
0.342348548766D-04 0.000000000000D+00 0.000000000000D+00 0.264289156431D-05 0.000000000000D+00  7 1 -1 24 -11 11 -24 21 0 0.39839135D-01 0.84829050D-01 0.84353047D+05 0.84353047D+05 0.84353047D+05 0.11278372D+01  1  2  2  2  7  2       -1 0.658085471389D-03 0.100000000000D+01
-.174178635911D-05 0.000000000000D+00 -.131470856971D-06 0.264289156431D-05 0.000000000000D+00  7 1 -1 24 -11 11 -24 21 2 0.39839135D-01 0.84829050D-01 0.84353047D+05 0.84353047D+05 0.84353047D+05 0.11278372D+01  1  2  3  2  7  2       -1 -.425894041495D-04 0.100000000000D+01
0.210349321057D-05 0.000000000000D+00 0.000000000000D+00 0.264289156431D-05 0.000000000000D+00  7 1 -1 24 -11 11 -24 21 2 0.39839135D-01 0.84829050D-01 0.84353047D+05 0.84353047D+05 0.84353047D+05 0.11278372D+01  1  2 15  2  7  2       -1 0.514337031071D-04 0.100000000000D+01
  </mgrwgt>
  </event>
  <event>
  8     66 0.27727860E-05 0.27302106E+03 0.75467711E-02 0.95369051E-01
        1 -1    0    0  501    0 0.00000000E+00 0.00000000E+00 0.11528726E+03 0.11528770E+03 0.32000000E+00 0.0000E+00 0.9000E+01
       -1 -1    0    0    0  501 0.00000000E+00 0.00000000E+00 -.16149429E+04 0.16149429E+04 0.32000000E+00 0.0000E+00 0.9000E+01
       25  2    1    2    0    0 -.17989110E+03 0.32525119E+03 -.90215694E+03 0.10208844E+04 0.30028113E+03 0.0000E+00 0.0000E+00
       23  2    1    2    0    0 0.17989110E+03 -.32525119E+03 -.59749872E+03 0.70934621E+03 0.89544288E+02 0.0000E+00 0.0000E+00
       24  1    3    3    0    0 -.23034185E+03 0.27418891E+03 -.74230660E+03 0.82808407E+03 0.80419002E+02 0.0000E+00 0.9000E+01
      -11  1    4    4    0    0 0.18177960E+03 -.33017927E+03 -.58688478E+03 0.69749260E+03 0.51099893E-03 0.0000E+00 0.9000E+01
       11  1    4    4    0    0 -.18885007E+01 0.49280833E+01 -.10613934E+02 0.11853609E+02 0.51099893E-03 0.0000E+00 0.9000E+01
      -24  1    3    3    0    0 0.50450755E+02 0.51062275E+02 -.15985034E+03 0.19280037E+03 0.80419002E+02 0.0000E+00 0.9000E+01
#aMCatNLO 1  0  0  2  1 0.76789476D+02 0.00000000D+00  -5  7  0 0.00000000D+00 0.00000000D+00 0.00000000D+00 0.00000000D+00 0.00000000D+00
  <mgrwgt>
 0.3813652155D-02    9    2    0
 0.431488990999978D+03 0.000000000000000D+00 0.000000000000000D+00 0.431488990999978D+03
 0.431488990999978D+03 0.000000000000000D+00 0.000000000000000D+00 -.431488990999978D+03
 0.370313212376166D+03 -.230341849540473D+03 0.274188913802823D+03 -.492720123791103D+02
 0.378570470100923D+03 0.181779595761998D+03 -.330179272457135D+03 0.354037771532267D+02
 0.532137631153027D+01 -.188850072415149D+01 0.492808333954936D+01 -.681619734346327D+00
 0.108772923211336D+03 0.504507545026259D+02 0.510622753147629D+02 0.145498549602299D+02
 0.000000000000000D+00 -.000000000000000D+00 0.000000000000000D+00 -.000000000000000D+00
 0.462253326564130D+03 0.000000000000000D+00 0.000000000000000D+00 0.462253326564130D+03
 0.483922751455204D+03 0.000000000000000D+00 0.000000000000000D+00 -.483922751455204D+03
 0.340649989494913D+03 -.215679035742786D+03 0.246231642413579D+03 -.492720123791103D+02
 0.413597686062724D+03 0.198117170111438D+03 -.361329773734133D+03 0.354037771532267D+02
 0.487601064393689D+01 -.167819112478338D+01 0.452709055423384D+01 -.681619734346327D+00
 0.107263999000583D+03 0.549062722502141D+02 0.425670355492164D+02 0.145498549602299D+02
 0.797883928171767D+02 -.356662154940828D+02 0.680040052171034D+02 -.216694248910741D+02
0.734245426719D-03 0.000000000000D+00 0.000000000000D+00 0.151952260286D-05 0.000000000000D+00  7 1 -1 24 -11 11 -24 21 0 0.17736538D-01 0.24845279D+00 0.18361437D+06 0.18361437D+06 0.18361437D+06 0.11006880D+01  1  2  2  2  7  2       -1 0.162308461576D-02 0.100000000000D+01
-.407890200727D-04 0.000000000000D+00 -.281969576986D-05 0.151952260286D-05 0.000000000000D+00  7 1 -1 24 -11 11 -24 21 2 0.17736538D-01 0.24845279D+00 0.18361437D+06 0.18361437D+06 0.18361437D+06 0.11006880D+01  1  2  3  2  7  2       -1 -.109237470087D-03 0.100000000000D+01
0.472366163319D-04 0.000000000000D+00 0.000000000000D+00 0.151952260286D-05 0.000000000000D+00  7 1 -1 24 -11 11 -24 21 2 0.17736538D-01 0.24845279D+00 0.18361437D+06 0.18361437D+06 0.18361437D+06 0.11006880D+01  1  2 15  2  7  2       -1 0.126504840135D-03 0.100000000000D+01
0.813758919635D-03 0.000000000000D+00 0.000000000000D+00 0.151952260286D-05 0.000000000000D+00  7 1 -1 24 -11 11 -24 21 2 0.17736538D-01 0.28663322D+00 0.21950987D+06 0.21950987D+06 0.21950987D+06 0.10947341D+01  1  2 12  2  7  2       -1 0.101605425821D-02 0.100000000000D+01
-.751648676723D-03 0.000000000000D+00 0.000000000000D+00 0.151952260286D-05 0.000000000000D+00  7 1 -1 24 -11 11 -24 21 2 0.17736538D-01 0.24845279D+00 0.18361437D+06 0.18361437D+06 0.18361437D+06 0.11006880D+01  1  2  4  2  7  2       -1 -.201299760801D-02 0.100000000000D+01
-.230111313785D-02 0.000000000000D+00 -.521691637870D-03 0.151952260286D-05 0.000000000000D+00  7 1 -1 24 -11 11 -24 21 2 0.17736538D-01 0.28859848D+00 0.18361437D+06 0.18361437D+06 0.18361437D+06 0.11006880D+01  1  2  5  2  7  2       -1 -.282063407769D-02 0.100000000000D+01
0.235854523928D-02 0.000000000000D+00 0.515893744789D-03 0.151952260286D-05 0.000000000000D+00  7 1 -1 24 -11 11 -24 21 2 0.17736538D-01 0.24845279D+00 0.18361437D+06 0.18361437D+06 0.18361437D+06 0.11006880D+01  1  2  6  2  7  2       -1 0.631644287028D-02 0.100000000000D+01
0.178502016237D-04 0.000000000000D+00 0.000000000000D+00 0.151952260286D-05 0.000000000000D+00  7 1 21 24 -11 11 -24 1 2 0.17736538D-01 0.28663322D+00 0.21950987D+06 0.21950987D+06 0.21950987D+06 0.10947341D+01  1  2 12  4  7  2       -1 0.188765862902D-03 0.100000000000D+01
-.488178457980D-04 0.000000000000D+00 -.118863839135D-04 0.151952260286D-05 0.000000000000D+00  7 1 21 24 -11 11 -24 1 2 0.17736538D-01 0.28859848D+00 0.18361437D+06 0.18361437D+06 0.18361437D+06 0.11006880D+01  1  2  5  4  7  2       -1 -.514331136584D-03 0.100000000000D+01
  </mgrwgt>
  </event>
  <event>
  8     66 0.27727860E-05 0.43839502E+03 0.75467711E-02 0.89044907E-01
        1 -1    0    0  501    0 0.00000000E+00 0.00000000E+00 0.55869646E+03 0.55869655E+03 0.32000000E+00 0.0000E+00 0.9000E+01
       -1 -1    0    0    0  501 0.00000000E+00 0.00000000E+00 -.39923320E+03 0.39923333E+03 0.32000000E+00 0.0000E+00 0.9000E+01
       25  2    1    2    0    0 -.27950863E+03 0.30177487E+03 0.16870866E+03 0.53626391E+03 0.29987200E+03 0.0000E+00 0.0000E+00
       23  2    1    2    0    0 0.27950863E+03 -.30177487E+03 -.92454034E+01 0.42166598E+03 0.92323185E+02 0.0000E+00 0.0000E+00
       24  1    3    3    0    0 -.24906077E+03 0.26216210E+03 0.21768811E+03 0.42966913E+03 0.80419002E+02 0.0000E+00 0.9000E+01
      -11  1    4    4    0    0 0.14729636E+03 -.14669879E+03 -.50069972E+02 0.21383114E+03 0.51099893E-03 0.0000E+00 0.9000E+01
       11  1    4    4    0    0 0.13221227E+03 -.15507608E+03 0.40824568E+02 0.20783484E+03 0.51099893E-03 0.0000E+00 0.9000E+01
      -24  1    3    3    0    0 -.30447866E+02 0.39612771E+02 -.48979445E+02 0.10659478E+03 0.80419002E+02 0.0000E+00 0.9000E+01
#aMCatNLO 1  0  0  2  1 0.62506727D+03 0.00000000D+00  -5  7  0 0.00000000D+00 0.00000000D+00 0.00000000D+00 0.00000000D+00 0.00000000D+00
  <mgrwgt>
 0.9459044866D-03    3    2    0
 0.472281994438471D+03 0.000000000000000D+00 0.000000000000000D+00 0.472281994438471D+03
 0.472281994438471D+03 0.000000000000000D+00 0.000000000000000D+00 -.472281994438471D+03
 0.398998530445939D+03 -.249060767077521D+03 0.262162099566086D+03 0.148230830792744D+03
 0.225309839777636D+03 0.147296364301186D+03 -.146698793125530D+03 -.868778974180971D+02
 0.203883679673588D+03 0.132212269123782D+03 -.155076077288078D+03 0.631513921658518D+01
 0.116371938979778D+03 -.304478663474473D+02 0.396127708475225D+02 -.676680725912324D+02
 0.000000000000000D+00 -.000000000000000D+00 0.000000000000000D+00 0.000000000000000D+00
 0.113568283919954D+04 0.000000000000000D+00 0.000000000000000D+00 0.113568283919954D+04
 0.737885988826104D+03 0.000000000000000D+00 0.000000000000000D+00 -.737885988826104D+03
 0.307073312868803D+03 -.367507349574570D+02 0.253975998481020D+03 0.148230830792744D+03
 0.371317695814999D+03 0.326697387645664D+03 -.153616011766577D+03 -.868778974180971D+02
 0.335863985858161D+03 0.294509980455535D+03 -.161333838438457D+03 0.631513921658518D+01
 0.118401272145078D+03 0.401465192902047D+02 0.368908421138810D+02 -.676680725912324D+02
 0.740912561338606D+03 -.624603152433947D+03 0.240830096101338D+02 0.397796850373438D+03
0.743448239340D-04 0.000000000000D+00 0.000000000000D+00 0.403644618304D-05 0.000000000000D+00  7 1 -1 24 -11 11 -24 21 0 0.85953319D-01 0.61420509D-01 0.19219019D+06 0.19219019D+06 0.19219019D+06 0.10991565D+01  1  2  2  2  7  2       -1 0.938697920895D-03 0.100000000000D+01
-.410242873291D-05 0.000000000000D+00 -.285503699348D-06 0.403644618304D-05 0.000000000000D+00  7 1 -1 24 -11 11 -24 21 2 0.85953319D-01 0.61420509D-01 0.19219019D+06 0.19219019D+06 0.19219019D+06 0.10991565D+01  1  2  3  2  7  2       -1 -.625799467788D-04 0.100000000000D+01
0.457485518571D-05 0.000000000000D+00 0.000000000000D+00 0.403644618304D-05 0.000000000000D+00  7 1 -1 24 -11 11 -24 21 2 0.85953319D-01 0.61420509D-01 0.19219019D+06 0.19219019D+06 0.19219019D+06 0.10991565D+01  1  2 15  2  7  2       -1 0.697865124982D-04 0.100000000000D+01
  </mgrwgt>
  </event>
  <event>
  9     66 0.27727860E-05 0.25370099E+03 0.75467711E-02 0.10065335E+00
        1 -1    0    0  502    0 0.00000000E+00 0.00000000E+00 0.10699447E+04 0.10699447E+04 0.32000000E+00 0.0000E+00 0.9000E+01
       -1 -1    0    0    0  501 0.00000000E+00 0.00000000E+00 -.25989489E+03 0.25989508E+03 0.32000000E+00 0.0000E+00 0.9000E+01
       25  2    1    2    0    0 -.98815083E+02 -.16138466E+03 0.27877056E+02 0.35628542E+03 0.30058733E+03 0.0000E+00 0.0000E+00
       23  2    1    2    0    0 0.18195368E+03 0.13727313E+03 0.83632552E+03 0.87144426E+03 0.89574945E+02 0.0000E+00 0.0000E+00
       24  1    3    3    0    0 -.78440531E+02 -.36731505E+01 0.11248712E+03 0.15901880E+03 0.80419002E+02 0.0000E+00 0.9000E+01
      -13  1    4    4    0    0 0.48688651E+02 0.20929227E+02 0.90049486E+02 0.10448703E+03 0.10565837E+00 0.0000E+00 0.9000E+01
       13  1    4    4    0    0 0.13326503E+03 0.11634390E+03 0.74627603E+03 0.76695724E+03 0.10565837E+00 0.0000E+00 0.9000E+01
      -24  1    3    3    0    0 -.20374551E+02 -.15771151E+03 -.84610068E+02 0.19726663E+03 0.80419002E+02 0.0000E+00 0.9000E+01
       21  1    1    2  502  501 -.83138596E+02 0.24111527E+02 -.54152780E+02 0.10211013E+03 0.75000000E+00 0.0000E+00 0.9000E+01
#aMCatNLO 2  0  0  1  1 0.86564380D+02 0.00000000D+00  -5  7  0 0.00000000D+00 0.00000000D+00 0.00000000D+00 0.00000000D+00 0.00000000D+00
  <mgrwgt>
 0.3766336358D-04    1    2    0
 0.433872301608012D+03 0.000000000000000D+00 0.000000000000000D+00 0.433872301608012D+03
 0.433872301608012D+03 0.000000000000000D+00 0.000000000000000D+00 -.433872301608012D+03
 0.120373328629910D+03 -.895640301856490D+02 -.447157305095963D+00 0.778998281381874D+00
 0.540680036386961D+02 0.433397017795253D+02 0.224803417698755D+02 0.232304434104358D+02
 0.332365758349136D+03 0.101125054847632D+03 0.125665179600513D+03 0.290601072332898D+03
 0.360937512598283D+03 -.549007264415088D+02 -.147698364065293D+03 -.314610514024716D+03
 0.000000000000000D+00 -.000000000000000D+00 0.000000000000000D+00 -.000000000000000D+00
 0.446020979446298D+03 0.000000000000000D+00 0.000000000000000D+00 0.446020979446298D+03
 0.623451487028888D+03 0.000000000000000D+00 0.000000000000000D+00 -.623451487028888D+03
 0.112402098428296D+03 -.784405309986776D+02 -.367315056007091D+01 0.778998281381874D+00
 0.578640978604224D+02 0.486885337235006D+02 0.209290946772817D+02 0.232304434104358D+02
 0.340212459008266D+03 0.133265145184913D+03 0.116344037673898D+03 0.290601072332898D+03
 0.361572999331244D+03 -.203745516059807D+02 -.157711508784174D+03 -.314610514024716D+03
 0.197420811846957D+03 -.831385963037549D+02 0.241115269930652D+02 -.177430507582590D+03
0.296184976413D-05 0.000000000000D+00 0.000000000000D+00 0.161164019796D-05 0.154233417606D-08  7 1 -1 24 -13 13 -24 21 2 0.16460664D+00 0.39983785D-01 0.92132130D+05 0.92132130D+05 0.92132130D+05 0.11246543D+01  1  2  1  1  7  1        1 0.376633635800D-04 0.100000000000D+01
  </mgrwgt>
  </event>
  <event>
  8     66 0.27727860E-05 0.24209823E+03 0.75467711E-02 0.10040429E+00
        3 -1    0    0  501    0 0.00000000E+00 0.00000000E+00 0.49817470E+03 0.49817495E+03 0.50000000E+00 0.0000E+00 0.9000E+01
       -3 -1    0    0    0  501 0.00000000E+00 0.00000000E+00 -.13154556E+03 0.13154651E+03 0.50000000E+00 0.0000E+00 0.9000E+01
       25  2    1    2    0    0 0.14325880E+03 0.26635066E+02 0.29267747E+03 0.44335730E+03 0.29945464E+03 0.0000E+00 0.0000E+00
       23  2    1    2    0    0 -.14325880E+03 -.26635066E+02 0.73951671E+02 0.18636417E+03 0.89611616E+02 0.0000E+00 0.0000E+00
       24  1    3    3    0    0 -.62552809E+02 0.85198463E+01 0.47282925E+02 0.11264250E+03 0.80419002E+02 0.0000E+00 0.9000E+01
      -11  1    4    4    0    0 -.86075237E+02 0.17722409E+02 0.76485065E+01 0.88212980E+02 0.51099893E-03 0.0000E+00 0.9000E+01
       11  1    4    4    0    0 -.57183564E+02 -.44357475E+02 0.66303165E+02 0.98151186E+02 0.51099893E-03 0.0000E+00 0.9000E+01
      -24  1    3    3    0    0 0.20581161E+03 0.18115219E+02 0.24539454E+03 0.33071480E+03 0.80419002E+02 0.0000E+00 0.9000E+01
#aMCatNLO 1  0  0  2  1 0.11961364D+03 0.00000000D+00  -5  7  0 0.00000000D+00 0.00000000D+00 0.00000000D+00 0.00000000D+00 0.00000000D+00
  <mgrwgt>
 0.7685222624D-04    4    2    0
 0.255994236402517D+03 0.000000000000000D+00 0.000000000000000D+00 0.255994236402517D+03
 0.255994236402517D+03 0.000000000000000D+00 0.000000000000000D+00 -.255994236402517D+03
 0.104686148855613D+03 -.625528090085336D+02 0.851984631463557D+01 -.225062682772125D+02
 0.103020760375251D+03 -.860752371751948D+02 0.177224090169543D+02 -.537610159145508D+02
 0.732423444896106D+02 -.571835643262289D+02 -.443574747369370D+02 0.112647872702871D+02
 0.231039219084560D+03 0.205811610509957D+03 0.181152194053472D+02 0.650024969214762D+02
 0.000000000000000D+00 -.000000000000000D+00 -.000000000000000D+00 0.000000000000000D+00
 0.427363277859340D+03 0.000000000000000D+00 0.000000000000000D+00 0.427363277859340D+03
 0.284634649031487D+03 0.000000000000000D+00 0.000000000000000D+00 -.284634649031487D+03
 0.108285697146445D+03 -.605318882562063D+02 0.329838543001476D+02 -.225062682772125D+02
 0.108265693497218D+03 -.840703093533624D+02 0.419928165463921D+02 -.537610159145508D+02
 0.637868855804227D+02 -.558832740769662D+02 -.286169708083122D+02 0.112647872702871D+02
 0.245436978462708D+03 0.210332962292784D+03 0.728478881619028D+02 0.650024969214762D+02
 0.186222672204033D+03 -.984749060624912D+01 -.119207588200130D+03 0.142728628827852D+03
0.556175802565D-05 0.000000000000D+00 0.000000000000D+00 0.188959758298D-06 0.000000000000D+00  7 3 -3 24 -11 11 -24 21 0 0.76642354D-01 0.20237871D-01 0.58611552D+05 0.58611552D+05 0.58611552D+05 0.11412740D+01  1  2  2  2  7  2       -3 0.849227828035D-04 0.100000000000D+01
-.307816339178D-06 0.000000000000D+00 -.213586152630D-07 0.188959758298D-06 0.000000000000D+00  7 3 -3 24 -11 11 -24 21 2 0.76642354D-01 0.20237871D-01 0.58611552D+05 0.58611552D+05 0.58611552D+05 0.11412740D+01  1  2  3  2  7  2       -3 -.612186399479D-05 0.100000000000D+01
0.350932755069D-06 0.000000000000D+00 0.000000000000D+00 0.188959758298D-06 0.000000000000D+00  7 3 -3 24 -11 11 -24 21 2 0.76642354D-01 0.20237871D-01 0.58611552D+05 0.58611552D+05 0.58611552D+05 0.11412740D+01  1  2 15  2  7  2       -3 0.697936504471D-05 0.100000000000D+01
-.448915887863D-06 0.000000000000D+00 0.000000000000D+00 0.188959758298D-06 0.000000000000D+00  7 3 -3 24 -11 11 -24 21 2 0.76642354D-01 0.20237871D-01 0.58611552D+05 0.58611552D+05 0.58611552D+05 0.11412740D+01  1  2  4  2  7  2       -3 -.892805761363D-05 0.100000000000D+01
  </mgrwgt>
  </event>
  <event>
  8     66 0.27727860E-05 0.41241340E+03 0.75467711E-02 0.95431806E-01
        1 -1    0    0  501    0 0.00000000E+00 0.00000000E+00 0.11636944E+04 0.11636944E+04 0.32000000E+00 0.0000E+00 0.9000E+01
       -1 -1    0    0    0  501 0.00000000E+00 0.00000000E+00 -.14730249E+03 0.14730284E+03 0.32000000E+00 0.0000E+00 0.9000E+01
       25  2    1    2    0    0 0.32397823E+03 -.13648986E+03 0.52966090E+03 0.70338244E+03 0.30102295E+03 0.0000E+00 0.0000E+00
       23  2    1    2    0    0 -.32397823E+03 0.13648986E+03 0.48673096E+03 0.60761480E+03 0.93259497E+02 0.0000E+00 0.0000E+00
       24  1    3    3    0    0 -.14383375E+02 -.70972729E+02 0.14086306E+03 0.17763341E+03 0.80419002E+02 0.0000E+00 0.9000E+01
      -11  1    4    4    0    0 -.16608785E+02 -.12827257E+02 0.40031665E+02 0.45198722E+02 0.51099893E-03 0.0000E+00 0.9000E+01
       11  1    4    4    0    0 -.30736945E+03 0.14931712E+03 0.44669930E+03 0.56241607E+03 0.51099893E-03 0.0000E+00 0.9000E+01
      -24  1    3    3    0    0 0.33836161E+03 -.65517130E+02 0.38879785E+03 0.52574904E+03 0.80419002E+02 0.0000E+00 0.9000E+01
#aMCatNLO 1  0  0  1  1 0.10089298D+03 0.00000000D+00  -5  7  0 0.00000000D+00 0.00000000D+00 0.00000000D+00 0.00000000D+00 0.00000000D+00
  <mgrwgt>
 0.9770081509D-03    4    2    0
 0.414023349532799D+03 0.000000000000000D+00 0.000000000000000D+00 0.414023349532799D+03
 0.414023349532799D+03 0.000000000000000D+00 0.000000000000000D+00 -.414023349532799D+03
 0.108333066586791D+03 -.143833747954700D+02 -.709727294131251D+02 0.498272725241329D+01
 0.224233015220019D+02 -.166087850380903D+02 -.128272565637769D+02 0.790026580262737D+01
 0.342135760408786D+03 -.307369445828726D+03 0.149317115699376D+03 0.168908638221854D+02
 0.355154570548019D+03 0.338361605662286D+03 -.655171297224742D+02 -.297738568772260D+02
 0.000000000000000D+00 0.000000000000000D+00 0.000000000000000D+00 -.000000000000000D+00
 0.434599094157108D+03 0.000000000000000D+00 0.000000000000000D+00 0.434599094157108D+03
 0.562391072329251D+03 0.000000000000000D+00 0.000000000000000D+00 -.562391072329251D+03
 0.116245854355517D+03 -.244737224571438D+02 -.801379562922113D+02 0.498272725241329D+01
 0.251379750114054D+02 -.187457167387211D+02 -.147682663800972D+02 0.790026580262737D+01
 0.360155948971120D+03 -.338923464691319D+03 0.120656087207652D+03 0.168908638221854D+02
 0.332630905652119D+03 0.307459352937989D+03 -.935861484311977D+02 -.297738568772260D+02
 0.162819482496197D+03 0.746835509491952D+02 0.678362838958539D+02 -.127791978172143D+03
0.514124044991D-04 0.000000000000D+00 0.000000000000D+00 0.256695256250D-06 0.000000000000D+00  7 1 -1 24 -11 11 -24 21 0 0.17902993D+00 0.22661952D-01 0.17008481D+06 0.17008481D+06 0.17008481D+06 0.11032708D+01  1  2  2  1  7  1        1 0.112553011471D-02 0.100000000000D+01
-.285619197845D-05 0.000000000000D+00 -.197437170474D-06 0.256695256250D-06 0.000000000000D+00  7 1 -1 24 -11 11 -24 21 2 0.17902993D+00 0.22661952D-01 0.17008481D+06 0.17008481D+06 0.17008481D+06 0.11032708D+01  1  2  3  1  7  1        1 -.761098460471D-04 0.100000000000D+01
0.326505394458D-05 0.000000000000D+00 0.000000000000D+00 0.256695256250D-06 0.000000000000D+00  7 1 -1 24 -11 11 -24 21 2 0.17902993D+00 0.22661952D-01 0.17008481D+06 0.17008481D+06 0.17008481D+06 0.11032708D+01  1  2 15  1  7  1        1 0.870049194635D-04 0.100000000000D+01
-.598248041070D-05 0.000000000000D+00 0.000000000000D+00 0.256695256250D-06 0.000000000000D+00  7 1 -1 24 -11 11 -24 21 2 0.17902993D+00 0.22661952D-01 0.17008481D+06 0.17008481D+06 0.17008481D+06 0.11032708D+01  1  2  4  1  7  1        1 -.159417037256D-03 0.100000000000D+01
  </mgrwgt>
  </event>
  <event>
  8     66 0.27727860E-05 0.18575640E+03 0.75467711E-02 0.10051201E+00
        1 -1    0    0  501    0 0.00000000E+00 0.00000000E+00 0.95371149E+03 0.95371154E+03 0.32000000E+00 0.0000E+00 0.9000E+01
       -1 -1    0    0    0  501 0.00000000E+00 0.00000000E+00 -.12811567E+03 0.12811607E+03 0.32000000E+00 0.0000E+00 0.9000E+01
       25  2    1    2    0    0 -.22271938E+03 -.81722423E+02 0.26261420E+03 0.46382167E+03 0.29980302E+03 0.0000E+00 0.0000E+00
       23  2    1    2    0    0 0.22271938E+03 0.81722423E+02 0.56298162E+03 0.61800593E+03 0.93276775E+02 0.0000E+00 0.0000E+00
       24  1    3    3    0    0 0.30846580E+02 0.67805372E+01 0.12385416E+03 0.15101177E+03 0.80419002E+02 0.0000E+00 0.9000E+01
      -11  1    4    4    0    0 0.22276625E+03 0.74471751E+02 0.56373989E+03 0.61071557E+03 0.51099893E-03 0.0000E+00 0.9000E+01
       11  1    4    4    0    0 -.46874033E-01 0.72506716E+01 -.75827109E+00 0.72903643E+01 0.51099893E-03 0.0000E+00 0.9000E+01
      -24  1    3    3    0    0 -.25356596E+03 -.88502960E+02 0.13876004E+03 0.31280990E+03 0.80419002E+02 0.0000E+00 0.9000E+01
#aMCatNLO 1  0  0  1  2 0.48539489D+01 0.00000000D+00  -5  7  0 0.00000000D+00 0.00000000D+00 0.00000000D+00 0.00000000D+00 0.00000000D+00
  <mgrwgt>
 0.1098100928D-02   11    2    0
 0.349550610401692D+03 0.000000000000000D+00 0.000000000000000D+00 0.349550610401692D+03
 0.349550610401692D+03 0.000000000000000D+00 0.000000000000000D+00 -.349550610401692D+03
 0.874197159545016D+02 0.308465801317480D+02 0.678053721216995D+01 0.133230474173606D+02
 0.279312440995242D+03 0.222766250903017D+03 0.744717512892415D+02 0.151144286737039D+03
 0.121769817497505D+02 -.468740387324118D-01 0.725067163304690D+01 -.978286503167551D+01
 0.320192082103891D+03 -.253565956996032D+03 -.885029601344583D+02 -.154684469122724D+03
 0.000000000000000D+00 0.000000000000000D+00 -.000000000000000D+00 0.000000000000000D+00
 0.357667513823028D+03 0.000000000000000D+00 0.000000000000000D+00 0.357667513823028D+03
 0.350285461153875D+03 0.000000000000000D+00 0.000000000000000D+00 -.350285461153875D+03
 0.873906841672327D+02 0.306334488117677D+02 0.734873773229528D+01 0.133230474173606D+02
 0.279260096295440D+03 0.222085231340710D+03 0.762873252253190D+02 0.151144286737039D+03
 0.122245250229522D+02 -.766247019901619D-01 0.732998584335954D+01 -.978286503167551D+01
 0.320242765907546D+03 -.254346784249005D+03 -.864213024442232D+02 -.154684469122724D+03
 0.883490358373210D+01 0.170472879851681D+01 -.454474635675056D+01 0.738205266915323D+01
0.960555322743D-05 0.000000000000D+00 0.000000000000D+00 0.810945438664D-06 0.000000000000D+00  7 1 -1 24 -11 11 -24 21 0 0.14672488D+00 0.19710138D-01 0.92684719D+05 0.92684719D+05 0.92684719D+05 0.11244395D+01  1  2  2  1  7  1        1 0.381087454702D-03 0.100000000000D+01
-.521255247597D-06 0.000000000000D+00 -.368878535936D-07 0.810945438664D-06 0.000000000000D+00  7 1 -1 24 -11 11 -24 21 2 0.14672488D+00 0.19710138D-01 0.92684719D+05 0.92684719D+05 0.92684719D+05 0.11244395D+01  1  2  3  1  7  1        1 -.261471825136D-04 0.100000000000D+01
0.625033262833D-06 0.000000000000D+00 0.000000000000D+00 0.810945438664D-06 0.000000000000D+00  7 1 -1 24 -11 11 -24 21 2 0.14672488D+00 0.19710138D-01 0.92684719D+05 0.92684719D+05 0.92684719D+05 0.11244395D+01  1  2 15  1  7  1        1 0.313528906917D-04 0.100000000000D+01
0.100020909853D-04 0.000000000000D+00 0.000000000000D+00 0.810945438664D-06 0.000000000000D+00  7 1 -1 24 -11 11 -24 21 2 0.15028419D+00 0.19710138D-01 0.94182416D+05 0.94182416D+05 0.94182416D+05 0.11238644D+01  1  2 12  1  7  1        1 0.481045889653D-03 0.100000000000D+01
-.213929992378D-03 0.000000000000D+00 0.000000000000D+00 0.810945438664D-06 0.000000000000D+00  7 1 -1 24 -11 11 -24 21 2 0.14672488D+00 0.19710138D-01 0.92684719D+05 0.92684719D+05 0.92684719D+05 0.11244395D+01  1  2  4  1  7  1        1 -.107311467494D-01 0.100000000000D+01
-.606023427922D-03 0.000000000000D+00 -.486461331949D-04 0.810945438664D-06 0.000000000000D+00  7 1 -1 24 -11 11 -24 21 2 0.15028469D+00 0.19710138D-01 0.92684719D+05 0.92684719D+05 0.92684719D+05 0.11244395D+01  1  2  5  1  7  1        1 -.291835361918D-01 0.100000000000D+01
0.607029128542D-03 0.000000000000D+00 0.486321589106D-04 0.810945438664D-06 0.000000000000D+00  7 1 -1 24 -11 11 -24 21 2 0.14672488D+00 0.19710138D-01 0.92684719D+05 0.92684719D+05 0.92684719D+05 0.11244395D+01  1  2  6  1  7  1        1 0.304497681093D-01 0.100000000000D+01
0.203798350995D-03 0.000000000000D+00 0.000000000000D+00 0.810945438664D-06 0.231923006700D-06  7 1 -1 24 -11 11 -24 21 2 0.15013197D+00 0.19751574D-01 0.94182416D+05 0.94182416D+05 0.94182416D+05 0.11238644D+01  1  2 11  1  7  1        1 0.978565523318D-02 0.100000000000D+01
0.444611190358D-06 0.000000000000D+00 0.000000000000D+00 0.810945438664D-06 0.000000000000D+00  7 21 -1 24 -11 11 -24 -1 2 0.15028419D+00 0.19710138D-01 0.94182416D+05 0.94182416D+05 0.94182416D+05 0.11238644D+01  1  2 12  3  7  1        1 0.305976563402D-04 0.100000000000D+01
-.261841908548D-05 0.000000000000D+00 -.210999737806D-06 0.810945438664D-06 0.000000000000D+00  7 21 -1 24 -11 11 -24 -1 2 0.15028469D+00 0.19710138D-01 0.92684719D+05 0.92684719D+05 0.92684719D+05 0.11244395D+01  1  2  5  3  7  1        1 -.180547341538D-03 0.100000000000D+01
0.871765126148D-06 0.000000000000D+00 0.000000000000D+00 0.810945438664D-06 0.965362013715D-09  7 21 -1 24 -11 11 -24 -1 2 0.15013197D+00 0.19751574D-01 0.94182416D+05 0.94182416D+05 0.94182416D+05 0.11238644D+01  1  2 11  3  7  1        1 0.599711591603D-04 0.100000000000D+01
  </mgrwgt>
  </event>
  <event>
  8     66 0.27727860E-05 0.99703342E+02 0.75467711E-02 0.99886899E-01
        1 -1    0    0  501    0 0.00000000E+00 0.00000000E+00 0.20733095E+03 0.20733120E+03 0.32000000E+00 0.0000E+00 0.9000E+01
       -1 -1    0    0    0  501 0.00000000E+00 0.00000000E+00 -.33950063E+03 0.33950078E+03 0.32000000E+00 0.0000E+00 0.9000E+01
       25  2    1    2    0    0 0.24523426E+02 -.76341624E+02 0.67261845E+02 0.31370185E+03 0.29572835E+03 0.0000E+00 0.0000E+00
       23  2    1    2    0    0 -.24523426E+02 0.76341624E+02 -.19943152E+03 0.23313013E+03 0.90262302E+02 0.0000E+00 0.0000E+00
       24  1    3    3    0    0 0.77094794E+01 0.89912108E+02 0.22939198E+02 0.12303270E+03 0.80419002E+02 0.0000E+00 0.9000E+01
      -11  1    4    4    0    0 -.43119245E+02 0.60341549E+02 -.19442868E+03 0.20809345E+03 0.51099893E-03 0.0000E+00 0.9000E+01
       11  1    4    4    0    0 0.18595819E+02 0.16000075E+02 -.50028408E+01 0.25036679E+02 0.51099893E-03 0.0000E+00 0.9000E+01
      -24  1    3    3    0    0 0.16813946E+02 -.16625373E+03 0.44322646E+02 0.19066915E+03 0.80419002E+02 0.0000E+00 0.9000E+01
#aMCatNLO 1  0  0  2  1 0.18867835D+03 0.00000000D+00  -5  7  0 0.00000000D+00 0.00000000D+00 0.00000000D+00 0.00000000D+00 0.00000000D+00
  <mgrwgt>
 0.2198081392D-02    8    2    0
 0.265309438338030D+03 0.000000000000000D+00 0.000000000000000D+00 0.265309438338030D+03
 0.265309438338030D+03 0.000000000000000D+00 0.000000000000000D+00 -.265309438338030D+03
 0.132505808260498D+03 0.770947945020199D+01 0.899121082012932D+02 0.542858176119986D+02
 0.166022319818152D+03 -.431192450740229D+02 0.603415487940833D+02 -.148536321723606D+03
 0.245555399975686D+02 0.185958191992392D+02 0.160000749598966D+02 0.108058047321250D+01
 0.207535208599840D+03 0.168139464245817D+02 -.166253731955273D+03 0.931699236383946D+02
 0.000000000000000D+00 -.000000000000000D+00 -.000000000000000D+00 -.000000000000000D+00
 0.340561230591392D+03 0.000000000000000D+00 0.000000000000000D+00 0.340561230591392D+03
 0.432484042249241D+03 0.000000000000000D+00 0.000000000000000D+00 -.432484042249241D+03
 0.172411600047603D+03 0.194295288007802D+02 0.141188127310268D+03 0.542858176119986D+02
 0.193706323978380D+03 -.292924272432356D+02 0.120834824385350D+03 -.148536321723606D+03
 0.330813964643078D+02 0.208111985817990D+02 0.256925115833107D+02 0.108058047321250D+01
 0.163966650141437D+03 0.310932889601178D+02 -.103780629768239D+03 0.931699236383946D+02
 0.209879302208906D+03 -.420415890994614D+02 -.183934833510689D+03 -.919228116578492D+02
0.227193076568D-04 0.000000000000D+00 0.000000000000D+00 0.244059705877D-07 0.000000000000D+00  7 1 -1 24 -11 11 -24 21 0 0.31897100D-01 0.52230897D-01 0.41009809D+05 0.41009809D+05 0.41009809D+05 0.11549450D+01  1  2  2  2  7  2       -1 0.147924734459D-02 0.100000000000D+01
-.115021500092D-05 0.000000000000D+00 -.872481235334D-07 0.244059705877D-07 0.000000000000D+00  7 1 -1 24 -11 11 -24 21 2 0.31897100D-01 0.52230897D-01 0.41009809D+05 0.41009809D+05 0.41009809D+05 0.11549450D+01  1  2  3  2  7  2       -1 -.998958259586D-04 0.100000000000D+01
0.140132932888D-05 0.000000000000D+00 0.000000000000D+00 0.244059705877D-07 0.000000000000D+00  7 1 -1 24 -11 11 -24 21 2 0.31897100D-01 0.52230897D-01 0.41009809D+05 0.41009809D+05 0.41009809D+05 0.11549450D+01  1  2 15  2  7  2       -1 0.121705029613D-03 0.100000000000D+01
0.679603071303D-07 0.000000000000D+00 0.000000000000D+00 0.244059705877D-07 0.000000000000D+00  7 1 -1 24 -11 11 -24 21 2 0.31897100D-01 0.88773459D-01 0.10389109D+06 0.10389109D+06 0.10389109D+06 0.11203641D+01  1  2 12  2  7  2       -1 0.198330032840D-05 0.100000000000D+01
-.550158129151D-05 0.000000000000D+00 -.701474649282D-05 0.244059705877D-07 0.000000000000D+00  7 1 -1 24 -11 11 -24 21 2 0.31897100D-01 0.10395022D+00 0.41009809D+05 0.41009809D+05 0.41009809D+05 0.11549450D+01  1  2  5  2  7  2       -1 -.123792704861D-03 0.100000000000D+01
0.940024331186D-05 0.000000000000D+00 0.562830790571D-05 0.244059705877D-07 0.000000000000D+00  7 1 -1 24 -11 11 -24 21 2 0.31897100D-01 0.52230897D-01 0.41009809D+05 0.41009809D+05 0.41009809D+05 0.11549450D+01  1  2  6  2  7  2       -1 0.816408296796D-03 0.100000000000D+01
0.401817410669D-08 0.000000000000D+00 0.000000000000D+00 0.244059705877D-07 0.000000000000D+00  7 1 21 24 -11 11 -24 1 2 0.31897100D-01 0.88773459D-01 0.10389109D+06 0.10389109D+06 0.10389109D+06 0.11203641D+01  1  2 12  4  7  2       -1 0.879420451430D-06 0.100000000000D+01
0.941401454515D-08 0.000000000000D+00 -.522498445208D-06 0.244059705877D-07 0.000000000000D+00  7 1 21 24 -11 11 -24 1 2 0.31897100D-01 0.10395022D+00 0.41009809D+05 0.41009809D+05 0.41009809D+05 0.11549450D+01  1  2  5  4  7  2       -1 0.154653151010D-05 0.100000000000D+01
  </mgrwgt>
  </event>
  <event>
  9     66 -.27727860E-05 0.24747547E+03 0.75467711E-02 0.10196121E+00
        1 -1    0    0  502    0 0.00000000E+00 0.00000000E+00 0.77781599E+03 0.77781606E+03 0.32000000E+00 0.0000E+00 0.9000E+01
       -1 -1    0    0    0  501 0.00000000E+00 0.00000000E+00 -.49224378E+03 0.49224389E+03 0.32000000E+00 0.0000E+00 0.9000E+01
       25  2    1    2    0    0 -.15114094E+03 0.87547079E+02 -.38544634E+03 0.51998642E+03 0.30217367E+03 0.0000E+00 0.0000E+00
       23  2    1    2    0    0 0.15292481E+03 -.13447588E+03 0.66620309E+03 0.70285864E+03 0.93348568E+02 0.0000E+00 0.0000E+00
       24  1    3    3    0    0 0.29102000E+02 0.19165914E+02 -.26444491E+03 0.27859035E+03 0.80419002E+02 0.0000E+00 0.9000E+01
      -13  1    4    4    0    0 0.90275583E+02 -.97448371E+02 0.54947057E+03 0.56529973E+03 0.10565837E+00 0.0000E+00 0.9000E+01
       13  1    4    4    0    0 0.62649228E+02 -.37027510E+02 0.11673252E+03 0.13755891E+03 0.10565837E+00 0.0000E+00 0.9000E+01
      -24  1    3    3    0    0 -.18024294E+03 0.68381165E+02 -.12100143E+03 0.24139607E+03 0.80419002E+02 0.0000E+00 0.9000E+01
       21  1    1    2  502  501 -.17838728E+01 0.46928801E+02 0.48154585E+01 0.47214889E+02 0.75000000E+00 0.0000E+00 0.9000E+01
#aMCatNLO 2  0  0  1  2 0.46962694D+02 0.00000000D+00  -5  7  0 0.00000000D+00 0.00000000D+00 0.00000000D+00 0.00000000D+00 0.00000000D+00
  <mgrwgt>
 -.3426193889D-03    3    2    0
 0.594625973410170D+03 0.000000000000000D+00 0.000000000000000D+00 0.594625973410170D+03
 0.594625973410170D+03 0.000000000000000D+00 0.000000000000000D+00 -.594625973410170D+03
 0.349602158745665D+03 0.285785404769763D+02 0.329366972508128D+02 -.337420945472673D+03
 0.447569369775606D+03 0.896018068160390D+02 -.797223182293546D+02 0.431200891641903D+03
 0.112331005495234D+03 0.624796629042108D+02 -.325675691094748D+02 0.874865701764907D+02
 0.279749412803835D+03 -.180660010197226D+03 0.793531900880166D+02 -.181266516345720D+03
 0.000000000000000D+00 -.000000000000000D+00 0.000000000000000D+00 -.000000000000000D+00
 0.615678827655640D+03 0.000000000000000D+00 0.000000000000000D+00 0.615678827655640D+03
 0.621868908950858D+03 0.000000000000000D+00 0.000000000000000D+00 -.621868908950858D+03
 0.348617797966447D+03 0.291019999501887D+02 0.191659140097898D+02 -.337420945472673D+03
 0.451198510905564D+03 0.902756182086224D+02 -.974484481542790D+02 0.431200891641903D+03
 0.113797416694316D+03 0.626491926686064D+02 -.370274323039764D+02 0.874865701764907D+02
 0.276565121339063D+03 -.180242938026511D+03 0.683811650264768D+02 -.181266516345720D+03
 0.473688897011074D+02 -.178387280090702D+01 0.469288014219887D+02 -.619008129521834D+01
-.134986426356D-03 0.000000000000D+00 0.000000000000D+00 0.194981662893D-06 0.000000000000D+00  7 1 -1 24 -13 13 -24 21 2 0.12220669D+00 0.72411894D-01 0.75377016D+05 0.75377016D+05 0.75377016D+05 0.11319374D+01  1  2 13  1  7  1        1 -.973946195414D-03 0.100000000000D+01
-.886232478775D-05 0.000000000000D+00 0.000000000000D+00 0.194981662893D-06 0.000000000000D+00  7 1 -1 24 -13 13 -24 21 2 0.11557160D+00 0.72411894D-01 0.61244107D+05 0.61244107D+05 0.61244107D+05 0.11396263D+01  1  2  8  1  7  1        1 -.712187629369D-04 0.100000000000D+01
0.102890419584D-03 0.000000000000D+00 0.000000000000D+00 0.194981662893D-06 0.604507059965D-09  7 1 -1 24 -13 13 -24 21 2 0.11966344D+00 0.75729463D-01 0.75377016D+05 0.75377016D+05 0.75377016D+05 0.11319374D+01  1  2  1  1  7  1        1 0.702545569501D-03 0.100000000000D+01
  </mgrwgt>
  </event>
  <event>
  9     66 0.27727860E-05 0.21880623E+03 0.75467711E-02 0.10272813E+00
        1 -1    0    0  501    0 0.00000000E+00 0.00000000E+00 0.92049942E+03 0.92049948E+03 0.32000000E+00 0.0000E+00 0.9000E+01
       21 -1    0    0  502  501 0.00000000E+00 0.00000000E+00 -.97332810E+02 0.97335699E+02 0.75000000E+00 0.0000E+00 0.9000E+01
       25  2    1    2    0    0 -.15082748E+03 -.69862646E+02 0.45919607E+03 0.57168073E+03 0.29720046E+03 0.0000E+00 0.0000E+00
       23  2    1    2    0    0 0.74816622E+02 0.78271204E+02 0.33616277E+03 0.36478043E+03 0.91298685E+02 0.0000E+00 0.0000E+00
       24  1    3    3    0    0 -.14616515E+03 -.12551906E+03 0.41437779E+03 0.46399941E+03 0.80419002E+02 0.0000E+00 0.9000E+01
      -13  1    4    4    0    0 0.73462100E+02 0.18977413E+02 0.24087699E+03 0.25254417E+03 0.10565837E+00 0.0000E+00 0.9000E+01
       13  1    4    4    0    0 0.13545223E+01 0.59293791E+02 0.95285783E+02 0.11223627E+03 0.10565837E+00 0.0000E+00 0.9000E+01
      -24  1    3    3    0    0 -.46623333E+01 0.55656413E+02 0.44818283E+02 0.10768133E+03 0.80419002E+02 0.0000E+00 0.9000E+01
        1  1    1    2  502    0 0.76010859E+02 -.84085583E+01 0.27807774E+02 0.81374008E+02 0.32000000E+00 0.0000E+00 0.9000E+01
#aMCatNLO 2  0  0  2  1 0.76474535D+02 0.00000000D+00  -5  7  0 0.00000000D+00 0.00000000D+00 0.00000000D+00 0.00000000D+00 0.00000000D+00
  <mgrwgt>
 0.1680731802D-03    2    2    0
 0.244190235525246D+03 0.000000000000000D+00 0.000000000000000D+00 0.244190235525246D+03
 0.244190235525246D+03 0.000000000000000D+00 0.000000000000000D+00 -.244190235525246D+03
 0.194282314094791D+03 -.114718091761386D+03 -.128997829032354D+03 0.384411386826949D+02
 0.103072386374123D+03 0.884623648144492D+02 0.173179979040438D+02 0.499841354120214D+02
 0.592220092767269D+02 0.105225971535860D+02 0.582796346816327D+02 -.742515420755296D-01
 0.131803761304850D+03 0.157331297933511D+02 0.534001964466777D+02 -.883510225526407D+02
 0.000000000000000D+00 0.000000000000000D+00 -.000000000000000D+00 -.000000000000000D+00
 0.262748086039753D+03 0.000000000000000D+00 0.000000000000000D+00 0.262748086039753D+03
 0.340996359137225D+03 0.000000000000000D+00 0.000000000000000D+00 -.340996359137225D+03
 0.212283351795797D+03 -.146165148172663D+03 -.125519057563897D+03 0.384411386826949D+02
 0.908583996905082D+02 0.734621990825528D+02 0.189773630251473D+02 0.499841354120214D+02
 0.593093599370633D+02 0.135442835112006D+01 0.592938461115006D+02 -.742515420755296D-01
 0.131880598053353D+03 -.466233794823670D+01 0.556564067048763D+02 -.883510225526407D+02
 0.109412735700257D+03 0.760108586872265D+02 -.840855827762697D+01 -.782482730974721D+02
-.251221545278D-06 0.000000000000D+00 0.000000000000D+00 0.170244491541D-07 0.000000000000D+00  7 1 21 24 -13 13 -24 1 2 0.13161313D+00 0.15257483D-01 0.67169760D+05 0.67169760D+05 0.67169760D+05 0.11361865D+01  1  2 13  4  7  2       -1 -.300864828616D-03 0.100000000000D+01
0.426765541099D-06 0.000000000000D+00 0.000000000000D+00 0.170244491541D-07 0.119386469796D-11  7 1 21 24 -13 13 -24 1 2 0.14161540D+00 0.14974492D-01 0.67169760D+05 0.67169760D+05 0.67169760D+05 0.11361865D+01  1  2  1  4  7  2       -1 0.468938008800D-03 0.100000000000D+01
  </mgrwgt>
  </event>
  <event>
  8     66 0.27727860E-05 0.22335019E+03 0.75467711E-02 0.91417396E-01
        1 -1    0    0  501    0 0.00000000E+00 0.00000000E+00 0.20521807E+03 0.20521832E+03 0.32000000E+00 0.0000E+00 0.9000E+01
       -1 -1    0    0    0  501 0.00000000E+00 0.00000000E+00 -.72888937E+03 0.72888944E+03 0.32000000E+00 0.0000E+00 0.9000E+01
       25  2    1    2    0    0 0.85150034E+02 -.49037510E+02 -.66253789E+03 0.73381788E+03 0.29979497E+03 0.0000E+00 0.0000E+00
       23  2    1    2    0    0 -.85150034E+02 0.49037510E+02 0.13886660E+03 0.20028988E+03 0.10572085E+03 0.0000E+00 0.0000E+00
       24  1    3    3    0    0 0.46552542E+02 -.14466274E+03 -.47523254E+03 0.50537870E+03 0.80419002E+02 0.0000E+00 0.9000E+01
      -11  1    4    4    0    0 0.14209462E+02 -.18887437E+02 0.28107728E+02 0.36724494E+02 0.51099893E-03 0.0000E+00 0.9000E+01
       11  1    4    4    0    0 -.99359496E+02 0.67924947E+02 0.11075887E+03 0.16356538E+03 0.51099893E-03 0.0000E+00 0.9000E+01
      -24  1    3    3    0    0 0.38597491E+02 0.95625228E+02 -.18730535E+03 0.22843918E+03 0.80419002E+02 0.0000E+00 0.9000E+01
#aMCatNLO 1  0  0  1  2 0.61504249D+03 0.00000000D+00  -5  7  0 0.00000000D+00 0.00000000D+00 0.00000000D+00 0.00000000D+00 0.00000000D+00
  <mgrwgt>
 0.6102814613D-03    5    2    0
 0.386757574210089D+03 0.000000000000000D+00 0.000000000000000D+00 0.386757574210089D+03
 0.386757574210089D+03 0.000000000000000D+00 0.000000000000000D+00 -.386757574210089D+03
 0.288569043902793D+03 0.465525424925062D+02 -.144662737628158D+03 -.231755108409742D+03
 0.633780022387466D+02 0.142094619318899D+02 -.188874367204457D+02 0.588058423416577D+02
 0.272507829558173D+03 -.993594956639564D+02 0.679249465866877D+02 0.244488055788225D+03
 0.149060272720465D+03 0.385974912395602D+02 0.956252277619163D+02 -.715387897201406D+02
 0.000000000000000D+00 0.000000000000000D+00 -.000000000000000D+00 0.000000000000000D+00
 0.179500490788293D+04 0.000000000000000D+00 0.000000000000000D+00 0.179500490788293D+04
 0.566812046676556D+03 0.000000000000000D+00 0.000000000000000D+00 -.566812046676556D+03
 0.265448896418731D+03 -.997739600290901D+02 -.181831592869297D+02 -.231755108409742D+03
 0.626023670525950D+02 -.190643104193860D+02 0.987326366047318D+01 0.588058423416577D+02
 0.443240615218648D+03 -.288402050041676D+03 0.231326805813890D+03 0.244488055788225D+03
 0.216940358857093D+03 -.580701226437706D+02 0.179181376733712D+03 -.715387897201406D+02
 0.137358471701242D+04 0.465310443133923D+03 -.402198286921146D+03 0.122819286120638D+04
0.401332736599D-04 0.000000000000D+00 0.000000000000D+00 0.477465425220D-07 0.000000000000D+00  7 1 -1 24 -11 11 -24 21 0 0.31572036D-01 0.11213685D+00 0.49885308D+05 0.49885308D+05 0.49885308D+05 0.11473831D+01  1  2  2  1  7  1        1 0.574891279658D-03 0.100000000000D+01
-.141238800744D-05 0.000000000000D+00 -.154122338188D-06 0.477465425220D-07 0.000000000000D+00  7 1 -1 24 -11 11 -24 21 2 0.31572036D-01 0.11213685D+00 0.49885308D+05 0.49885308D+05 0.49885308D+05 0.11473831D+01  1  2  3  1  7  1        1 -.266349614194D-04 0.100000000000D+01
0.235463305515D-05 0.000000000000D+00 0.000000000000D+00 0.477465425220D-07 0.000000000000D+00  7 1 -1 24 -11 11 -24 21 2 0.31572036D-01 0.11213685D+00 0.49885308D+05 0.49885308D+05 0.49885308D+05 0.11473831D+01  1  2 15  1  7  1        1 0.444039175142D-04 0.100000000000D+01
0.107980398200D-04 0.000000000000D+00 -.199680563887D-04 0.477465425220D-07 0.000000000000D+00  7 1 -1 24 -11 11 -24 21 2 0.18636836D+00 0.11213685D+00 0.49885308D+05 0.49885308D+05 0.49885308D+05 0.11473831D+01  1  2  5  1  7  1        1 0.157626017495D-04 0.100000000000D+01
0.113719748948D-05 0.000000000000D+00 -.434455081768D-05 0.477465425220D-07 0.000000000000D+00  7 21 -1 24 -11 11 -24 -1 2 0.18636836D+00 0.11213685D+00 0.49885308D+05 0.49885308D+05 0.49885308D+05 0.11473831D+01  1  2  5  3  7  1        1 0.185862376539D-05 0.100000000000D+01
  </mgrwgt>
  </event>
  <event>
  7     66 0.27727860E-05 0.14642934E+03 0.75467711E-02 0.94454492E-01
        3 -1    0    0  501    0 0.00000000E+00 0.00000000E+00 0.47502328E+03 0.47502354E+03 0.50000000E+00 0.0000E+00 0.9000E+01
       -3 -1    0    0    0  501 0.00000000E+00 0.00000000E+00 -.12896122E+03 0.12896219E+03 0.50000000E+00 0.0000E+00 0.9000E+01
       25  2    1    2    0    0 -.45647392E+02 0.35360354E+02 0.28705999E+03 0.41929725E+03 0.30012115E+03 0.0000E+00 0.0000E+00
       24  1    3    3    0    0 -.55299847E+02 -.40361250E+02 -.61800460E+01 0.10579467E+03 0.80419002E+02 0.0000E+00 0.9000E+01
      -11  1    1    2    0    0 0.41191937E+02 -.47303678E+00 -.53095970E+02 0.67202541E+02 0.51099893E-03 0.0000E+00 0.9000E+01
       11  1    1    2    0    0 0.44554545E+01 -.34887318E+02 0.11209805E+03 0.11748595E+03 0.51099893E-03 0.0000E+00 0.9000E+01
      -24  1    3    3    0    0 0.96524553E+01 0.75721605E+02 0.29324003E+03 0.31350257E+03 0.80419002E+02 0.0000E+00 0.9000E+01
#aMCatNLO 1  0  0  2  2 0.47334691D+03 0.00000000D+00  -5  7  0 0.00000000D+00 0.00000000D+00 0.00000000D+00 0.00000000D+00 0.00000000D+00
  <mgrwgt>
 0.1313792707D-03    5    2    0
 0.247507482827103D+03 0.000000000000000D+00 0.000000000000000D+00 0.247507482827103D+03
 0.247507482827103D+03 0.000000000000000D+00 0.000000000000000D+00 -.247507482827103D+03
 0.133404265325765D+03 -.552999988107849D+02 -.403611325622100D+02 -.815007433251960D+02
 0.119115469888616D+03 0.411921313018995D+02 -.473280922571824D+00 -.111765287503595D+03
 0.649814916577559D+02 0.445561418839118D+01 -.348873475443668D+02 0.546407791085538D+02
 0.177513738782068D+03 0.965225332049423D+01 0.757217610291486D+02 0.138625251720237D+03
 0.000000000000000D+00 0.000000000000000D+00 -.000000000000000D+00 -.000000000000000D+00
 0.392508931586977D+03 0.000000000000000D+00 0.000000000000000D+00 0.392508931586977D+03
 0.146149527771291D+04 0.000000000000000D+00 0.000000000000000D+00 -.146149527771291D+04
 0.147712911487458D+03 -.589426185699822D+02 0.723552680824629D+02 -.815007433251960D+02
 0.163084525414416D+03 0.375354807528681D+02 0.112677285304249D+03 -.111765287503595D+03
 0.564284594019303D+02 0.288242577028528D+01 0.137930384819418D+02 0.546407791085538D+02
 0.317680751529181D+03 0.323569330981991D+01 0.274274340418641D+03 0.138625251720237D+03
 0.116909756146690D+04 0.152890187370088D+02 -.473099932287294D+03 -.106898634612593D+04
0.728033021765D-05 0.000000000000D+00 0.000000000000D+00 0.125662757287D-08 0.000000000000D+00  7 3 -3 24 -11 11 -24 21 0 0.73080600D-01 0.19840282D-01 0.21441552D+05 0.21441552D+05 0.21441552D+05 0.11811164D+01  1  2  2  2  7  2       -3 0.124770002527D-03 0.100000000000D+01
-.268972050954D-06 0.000000000000D+00 -.279583849907D-07 0.125662757287D-08 0.000000000000D+00  7 3 -3 24 -11 11 -24 21 2 0.73080600D-01 0.19840282D-01 0.21441552D+05 0.21441552D+05 0.21441552D+05 0.11811164D+01  1  2  3  2  7  2       -3 -.643060219063D-05 0.100000000000D+01
0.446955536602D-06 0.000000000000D+00 0.000000000000D+00 0.125662757287D-08 0.000000000000D+00  7 3 -3 24 -11 11 -24 21 2 0.73080600D-01 0.19840282D-01 0.21441552D+05 0.21441552D+05 0.21441552D+05 0.11811164D+01  1  2 15  2  7  2       -3 0.106858435387D-04 0.100000000000D+01
0.367355071326D-05 0.000000000000D+00 -.438241647869D-05 0.125662757287D-08 0.000000000000D+00  7 3 -3 24 -11 11 -24 21 2 0.73080600D-01 0.16200754D+00 0.21441552D+05 0.21441552D+05 0.21441552D+05 0.11811164D+01  1  2  5  2  7  2       -3 0.812611366702D-06 0.100000000000D+01
0.394131470143D-06 0.000000000000D+00 -.111544938014D-05 0.125662757287D-08 0.000000000000D+00  7 3 21 24 -11 11 -24 3 2 0.73080600D-01 0.16200754D+00 0.21441552D+05 0.21441552D+05 0.21441552D+05 0.11811164D+01  1  2  5  4  7  2       -3 0.154141541242D-05 0.100000000000D+01
  </mgrwgt>
  </event>
  <event>
  8     66 0.27727860E-05 0.25922355E+03 0.75467711E-02 0.87122367E-01
        1 -1    0    0  501    0 0.00000000E+00 0.00000000E+00 0.77488474E+03 0.77488481E+03 0.32000000E+00 0.0000E+00 0.9000E+01
       -1 -1    0    0    0  501 0.00000000E+00 0.00000000E+00 -.10871374E+04 0.10871374E+04 0.32000000E+00 0.0000E+00 0.9000E+01
       25  2    1    2    0    0 -.62119631E+03 -.56425447E+03 -.46378827E+03 0.10043325E+04 0.29885819E+03 0.0000E+00 0.0000E+00
       23  2    1    2    0    0 0.62119631E+03 0.56425447E+03 0.15153562E+03 0.85768976E+03 0.91655435E+02 0.0000E+00 0.0000E+00
       24  1    3    3    0    0 -.43238501E+03 -.23565135E+03 -.31054826E+03 0.58770383E+03 0.80419002E+02 0.0000E+00 0.9000E+01
      -11  1    4    4    0    0 0.22407913E+03 0.17731152E+03 0.91243783E+02 0.29996043E+03 0.51099893E-03 0.0000E+00 0.9000E+01
       11  1    4    4    0    0 0.39711719E+03 0.38694295E+03 0.60291838E+02 0.55772933E+03 0.51099893E-03 0.0000E+00 0.9000E+01
      -24  1    3    3    0    0 -.18881131E+03 -.32860312E+03 -.15324001E+03 0.41662866E+03 0.80419002E+02 0.0000E+00 0.9000E+01
#aMCatNLO 1  0  0  1  2 0.30232122D+03 0.00000000D+00  -5  7  0 0.00000000D+00 0.00000000D+00 0.00000000D+00 0.00000000D+00 0.00000000D+00
  <mgrwgt>
 0.1024761922D-02    9    2    0
 0.917826934110665D+03 0.000000000000000D+00 0.000000000000000D+00 0.917826934110665D+03
 0.917826934110665D+03 0.000000000000000D+00 0.000000000000000D+00 -.917826934110665D+03
 0.543320339693942D+03 -.432385006044129D+03 -.235651346173864D+03 -.215038194666518D+03
 0.319790193371289D+03 0.224079127504771D+03 0.177311522925141D+03 0.143579024342395D+03
 0.575996774859019D+03 0.397117185068290D+03 0.386942945275481D+03 0.156030071053514D+03
 0.396546560297081D+03 -.188811306528933D+03 -.328603122026758D+03 -.845709007293921D+02
 0.000000000000000D+00 -.000000000000000D+00 0.000000000000000D+00 0.000000000000000D+00
 0.111099030913856D+04 0.000000000000000D+00 0.000000000000000D+00 0.111099030913856D+04
 0.105657209914613D+04 0.000000000000000D+00 0.000000000000000D+00 -.105657209914613D+04
 0.498683689655277D+03 -.353122138655115D+03 -.266986022855191D+03 -.215038194666518D+03
 0.347682292320430D+03 0.274852235505361D+03 0.157239590433772D+03 0.143579024342395D+03
 0.621150046778297D+03 0.488181410441660D+03 0.350942884297298D+03 0.156030071053514D+03
 0.392866524781869D+03 -.128762455550071D+03 -.352341997397909D+03 -.845709007293921D+02
 0.307179854748815D+03 -.281149051741835D+03 0.111145545522029D+03 0.544182099924353D+02
0.100858138507D-02 0.000000000000D+00 0.000000000000D+00 0.409265220565D-05 0.000000000000D+00  7 1 -1 24 -11 11 -24 21 0 0.11921305D+00 0.16725191D+00 0.74527389D+06 0.74527389D+06 0.74527389D+06 0.10564707D+01  1  2  2  1  7  1        1 0.697115501546D-03 0.100000000000D+01
-.557766717140D-04 0.000000000000D+00 -.387321808424D-05 0.409265220565D-05 0.000000000000D+00  7 1 -1 24 -11 11 -24 21 2 0.11921305D+00 0.16725191D+00 0.74527389D+06 0.74527389D+06 0.74527389D+06 0.10564707D+01  1  2  3  1  7  1        1 -.430290052781D-04 0.100000000000D+01
0.626653250859D-04 0.000000000000D+00 0.000000000000D+00 0.409265220565D-05 0.000000000000D+00  7 1 -1 24 -11 11 -24 21 2 0.11921305D+00 0.16725191D+00 0.74527389D+06 0.74527389D+06 0.74527389D+06 0.10564707D+01  1  2 15  1  7  1        1 0.483432682699D-04 0.100000000000D+01
0.606134007972D-03 0.000000000000D+00 0.000000000000D+00 0.409265220565D-05 0.000000000000D+00  7 1 -1 24 -11 11 -24 21 2 0.15170848D+00 0.16725191D+00 0.10545235D+07 0.10545235D+07 0.10545235D+07 0.10463326D+01  1  2 12  1  7  1        1 0.298926322642D-03 0.100000000000D+01
-.617532150055D-03 0.000000000000D+00 0.000000000000D+00 0.409265220565D-05 0.000000000000D+00  7 1 -1 24 -11 11 -24 21 2 0.11921305D+00 0.16725191D+00 0.74527389D+06 0.74527389D+06 0.74527389D+06 0.10564707D+01  1  2  4  1  7  1        1 -.476396194459D-03 0.100000000000D+01
-.142118113147D-02 0.000000000000D+00 -.512847748889D-03 0.409265220565D-05 0.000000000000D+00  7 1 -1 24 -11 11 -24 21 2 0.15979871D+00 0.16725191D+00 0.74527389D+06 0.74527389D+06 0.74527389D+06 0.10564707D+01  1  2  5  1  7  1        1 -.666078577346D-03 0.100000000000D+01
0.152669609817D-02 0.000000000000D+00 0.491594500404D-03 0.409265220565D-05 0.000000000000D+00  7 1 -1 24 -11 11 -24 21 2 0.11921305D+00 0.16725191D+00 0.74527389D+06 0.74527389D+06 0.74527389D+06 0.10564707D+01  1  2  6  1  7  1        1 0.117777221996D-02 0.100000000000D+01
0.199675888952D-04 0.000000000000D+00 0.000000000000D+00 0.409265220565D-05 0.000000000000D+00  7 21 -1 24 -11 11 -24 -1 2 0.15170848D+00 0.16725191D+00 0.10545235D+07 0.10545235D+07 0.10545235D+07 0.10463326D+01  1  2 12  3  7  1        1 0.126906886159D-04 0.100000000000D+01
-.429226247365D-04 0.000000000000D+00 -.194887942381D-04 0.409265220565D-05 0.000000000000D+00  7 21 -1 24 -11 11 -24 -1 2 0.15979871D+00 0.16725191D+00 0.74527389D+06 0.74527389D+06 0.74527389D+06 0.10564707D+01  1  2  5  3  7  1        1 -.245823021089D-04 0.100000000000D+01
  </mgrwgt>
  </event>
  <event>
  9     66 -.27727860E-05 0.24951884E+03 0.75467711E-02 0.10276808E+00
        1 -1    0    0  502    0 0.00000000E+00 0.00000000E+00 0.11182784E+03 0.11182830E+03 0.32000000E+00 0.0000E+00 0.9000E+01
       -1 -1    0    0    0  501 0.00000000E+00 0.00000000E+00 -.73235685E+03 0.73235692E+03 0.32000000E+00 0.0000E+00 0.9000E+01
       25  2    1    2    0    0 -.11143952E+03 0.12996520E+03 -.25820506E+03 0.43108920E+03 0.29976379E+03 0.0000E+00 0.0000E+00
       23  2    1    2    0    0 0.95441679E+02 -.12288280E+03 -.33570905E+03 0.38123686E+03 0.91824170E+02 0.0000E+00 0.0000E+00
       24  1    3    3    0    0 -.11578804E+03 0.18356205E+03 -.11545866E+03 0.25864999E+03 0.80419002E+02 0.0000E+00 0.9000E+01
      -11  1    4    4    0    0 0.26108551E+02 -.91240624E+02 -.24513696E+03 0.26286619E+03 0.51099893E-03 0.0000E+00 0.9000E+01
       11  1    4    4    0    0 0.69333128E+02 -.31642172E+02 -.90572094E+02 0.11837066E+03 0.51099893E-03 0.0000E+00 0.9000E+01
      -24  1    3    3    0    0 0.43485222E+01 -.53596854E+02 -.14274640E+03 0.17243922E+03 0.80419002E+02 0.0000E+00 0.9000E+01
       21  1    1    2  502  501 0.15997839E+02 -.70824009E+01 -.26614890E+02 0.31859160E+02 0.75000000E+00 0.0000E+00 0.9000E+01
#aMCatNLO 2  0  0  1  2 0.17495463D+02 0.00000000D+00  -5  7  0 0.00000000D+00 0.00000000D+00 0.00000000D+00 0.00000000D+00 0.00000000D+00
  <mgrwgt>
 -.3135890852D-03    3    2    0
 0.276962795997972D+03 0.000000000000000D+00 0.000000000000000D+00 0.276962795997972D+03
 0.276962795997972D+03 0.000000000000000D+00 0.000000000000000D+00 -.276962795997972D+03
 0.249822682444777D+03 -.108494426687829D+03 0.180333096062871D+03 0.107949481479034D+03
 0.124577460293659D+03 0.296769465435924D+02 -.928203871944854D+02 -.776092660584590D+02
 0.788857072860897D+02 0.715755465254108D+02 -.326349125855190D+02 -.590410316228556D+01
 0.100639741971417D+03 0.724193361882551D+01 -.548777962828662D+02 -.244361122582892D+02
 0.000000000000000D+00 0.000000000000000D+00 -.000000000000000D+00 -.000000000000000D+00
 0.283746662310887D+03 0.000000000000000D+00 0.000000000000000D+00 0.283746662310887D+03
 0.288615448785975D+03 0.000000000000000D+00 0.000000000000000D+00 -.288615448785975D+03
 0.255386380237735D+03 -.115788040189140D+03 0.183562050691661D+03 0.107949481479034D+03
 0.122595701476825D+03 0.261085515106948D+02 -.912406235208611D+02 -.776092660584590D+02
 0.764406181320401D+02 0.693331279548423D+02 -.316421717689373D+02 -.590410316228556D+01
 0.997791160194144D+02 0.434852216496564D+01 -.535968544965683D+02 -.244361122582892D+02
 0.181602952308478D+02 0.159978385586376D+02 -.708240090529458D+01 -.486878647508844D+01
-.154994360557D-04 0.000000000000D+00 0.000000000000D+00 0.938578068381D-06 0.000000000000D+00  7 1 -1 24 -11 11 -24 21 2 0.17545759D-01 0.10811841D+00 0.66770818D+05 0.66770818D+05 0.66770818D+05 0.11364074D+01  1  2 13  1  7  1        1 -.662353610040D-03 0.100000000000D+01
-.307597058547D-05 0.000000000000D+00 0.000000000000D+00 0.938578068381D-06 0.000000000000D+00  7 1 -1 24 -11 11 -24 21 2 0.16792545D-01 0.10811841D+00 0.62259650D+05 0.62259650D+05 0.62259650D+05 0.11390115D+01  1  2  8  1  7  1        1 -.139959904182D-03 0.100000000000D+01
0.122571080022D-04 0.000000000000D+00 0.000000000000D+00 0.938578068381D-06 0.211486019561D-07  7 1 -1 24 -11 11 -24 21 2 0.17203858D-01 0.11266727D+00 0.66770818D+05 0.66770818D+05 0.66770818D+05 0.11364074D+01  1  2  1  1  7  1        1 0.488724428979D-03 0.100000000000D+01
  </mgrwgt>
  </event>
  <event>
  8     66 0.27727860E-05 0.12140263E+03 0.75467711E-02 0.10206081E+00
        3 -1    0    0  501    0 0.00000000E+00 0.00000000E+00 0.11562293E+03 0.11562401E+03 0.50000000E+00 0.0000E+00 0.9000E+01
       -3 -1    0    0    0  501 0.00000000E+00 0.00000000E+00 -.53439265E+03 0.53439288E+03 0.50000000E+00 0.0000E+00 0.9000E+01
       25  2    1    2    0    0 0.49801842E+02 0.12681879E+03 -.27859323E+03 0.43196616E+03 0.30069477E+03 0.0000E+00 0.0000E+00
       23  2    1    2    0    0 -.49801842E+02 -.12681879E+03 -.14017649E+03 0.21805074E+03 0.96609756E+02 0.0000E+00 0.0000E+00
       24  1    3    3    0    0 -.32016228E+02 -.61749691E+02 -.11904449E+03 0.15961476E+03 0.80419002E+02 0.0000E+00 0.9000E+01
      -11  1    4    4    0    0 -.38583643E+01 0.15591782E+02 -.62582925E+01 0.17238239E+02 0.51099893E-03 0.0000E+00 0.9000E+01
       11  1    4    4    0    0 -.45943477E+02 -.14241057E+03 -.13391820E+03 0.20081250E+03 0.51099893E-03 0.0000E+00 0.9000E+01
      -24  1    3    3    0    0 0.81818070E+02 0.18856848E+03 -.15954874E+03 0.27235140E+03 0.80419002E+02 0.0000E+00 0.9000E+01
#aMCatNLO 1  0  0  1  2 0.49769843D+02 0.00000000D+00  -5  7  0 0.00000000D+00 0.00000000D+00 0.00000000D+00 0.00000000D+00 0.00000000D+00
  <mgrwgt>
 0.2553108442D-03    6    2    0
 0.248572866036674D+03 0.000000000000000D+00 0.000000000000000D+00 0.248572866036674D+03
 0.248572866036674D+03 0.000000000000000D+00 0.000000000000000D+00 -.248572866036674D+03
 0.108419030544438D+03 -.320162282367524D+02 -.617496901714173D+02 -.211992245860898D+02
 0.172672962285597D+02 -.385836441390685D+01 0.155917815458330D+02 0.633789328731183D+01
 0.149756144463483D+03 -.459434775691484D+02 -.142410574772666D+03 -.594372495492194D+01
 0.221703260836867D+03 0.818180702198077D+02 0.188568483398250D+03 0.208050562536999D+02
 0.000000000000000D+00 -.000000000000000D+00 -.000000000000000D+00 -.000000000000000D+00
 0.272090896729332D+03 0.000000000000000D+00 0.000000000000000D+00 0.272090896729332D+03
 0.277615400481825D+03 0.000000000000000D+00 0.000000000000000D+00 -.277615400481825D+03
 0.104859852838213D+03 -.214889321557469D+02 -.601430914954950D+02 -.211992245860898D+02
 0.172072530880661D+02 -.215672484153431D+01 0.158514732903070D+02 0.633789328731183D+01
 0.143807030419619D+03 -.314534051744529D+02 -.140199206255603D+03 -.594372495492194D+01
 0.233756643542761D+03 0.104299251621289D+03 0.191999396331150D+03 0.208050562536999D+02
 0.500755173224977D+02 -.492001894495551D+02 -.750857187035920D+01 -.552450375249326D+01
0.122299376614D-04 0.000000000000D+00 0.000000000000D+00 0.198797148162D-07 0.000000000000D+00  7 3 -3 24 -11 11 -24 21 0 0.17788244D-01 0.82214355D-01 0.60700993D+05 0.60700993D+05 0.60700993D+05 0.11399598D+01  1  2  2  1  7  1        3 0.185378938710D-03 0.100000000000D+01
-.679375863505D-06 0.000000000000D+00 -.469661808362D-07 0.198797148162D-07 0.000000000000D+00  7 3 -3 24 -11 11 -24 21 2 0.17788244D-01 0.82214355D-01 0.60700993D+05 0.60700993D+05 0.60700993D+05 0.11399598D+01  1  2  3  1  7  1        3 -.133821328585D-04 0.100000000000D+01
0.798785189777D-06 0.000000000000D+00 0.000000000000D+00 0.198797148162D-07 0.000000000000D+00  7 3 -3 24 -11 11 -24 21 2 0.17788244D-01 0.82214355D-01 0.60700993D+05 0.60700993D+05 0.60700993D+05 0.11399598D+01  1  2 15  1  7  1        3 0.157342203472D-04 0.100000000000D+01
0.108307358293D-04 0.000000000000D+00 0.000000000000D+00 0.198797148162D-07 0.000000000000D+00  7 3 -3 24 -11 11 -24 21 2 0.20408051D-01 0.82214355D-01 0.74249454D+05 0.74249454D+05 0.74249454D+05 0.11324902D+01  1  2 12  1  7  1        3 0.166317297323D-03 0.100000000000D+01
-.804290936340D-05 0.000000000000D+00 0.000000000000D+00 0.198797148162D-07 0.000000000000D+00  7 3 -3 24 -11 11 -24 21 2 0.17788244D-01 0.82214355D-01 0.60700993D+05 0.60700993D+05 0.60700993D+05 0.11399598D+01  1  2  4  1  7  1        3 -.158426708177D-03 0.100000000000D+01
0.229980970589D-06 0.000000000000D+00 0.000000000000D+00 0.198797148162D-07 0.000000000000D+00  7 21 -3 24 -11 11 -24 -3 2 0.20408051D-01 0.82214355D-01 0.74249454D+05 0.74249454D+05 0.74249454D+05 0.11324902D+01  1  2 12  3  7  1        3 0.596892288813D-04 0.100000000000D+01
  </mgrwgt>
  </event>
  <event>
  8     66 0.27727860E-05 0.28274651E+03 0.75467711E-02 0.80920982E-01
        1 -1    0    0  501    0 0.00000000E+00 0.00000000E+00 0.68658890E+03 0.68658897E+03 0.32000000E+00 0.0000E+00 0.9000E+01
       -1 -1    0    0    0  501 0.00000000E+00 0.00000000E+00 -.24588084E+03 0.24588105E+03 0.32000000E+00 0.0000E+00 0.9000E+01
       25  2    1    2    0    0 -.22301260E+03 -.75775942E+02 0.54014501E+03 0.66122257E+03 0.29997005E+03 0.0000E+00 0.0000E+00
       23  2    1    2    0    0 0.22301260E+03 0.75775942E+02 -.99436953E+02 0.27124745E+03 0.90613785E+02 0.0000E+00 0.0000E+00
       24  1    3    3    0    0 -.13625089E+02 -.17953701E+02 0.11818896E+02 0.84349752E+02 0.80419002E+02 0.0000E+00 0.9000E+01
      -11  1    4    4    0    0 0.13882349E+02 -.16667533E+02 -.19074567E+02 0.28885384E+02 0.51099893E-03 0.0000E+00 0.9000E+01
       11  1    4    4    0    0 0.20913025E+03 0.92443475E+02 -.80362386E+02 0.24236207E+03 0.51099893E-03 0.0000E+00 0.9000E+01
      -24  1    3    3    0    0 -.20938751E+03 -.57822242E+02 0.52832612E+03 0.57687281E+03 0.80419002E+02 0.0000E+00 0.9000E+01
#aMCatNLO 1  0  0  2  2 0.20539241D+04 0.00000000D+00  -5  7  0 0.00000000D+00 0.00000000D+00 0.00000000D+00 0.00000000D+00 0.00000000D+00
  <mgrwgt>
 0.7269993631D-03    5    2    0
 0.410876118950783D+03 0.000000000000000D+00 0.000000000000000D+00 0.410876118950783D+03
 0.410876118950783D+03 0.000000000000000D+00 0.000000000000000D+00 -.410876118950783D+03
 0.893760050054242D+02 -.136250888601830D+02 -.179537008469502D+02 -.318257112380762D+02
 0.430069650461750D+02 0.138823492993552D+02 -.166675330143149D+02 -.371358689629089D+02
 0.318114999585723D+03 0.209130252968368D+03 0.924434753830442D+02 -.221169378789008D+03
 0.371254268264244D+03 -.209387513407540D+03 -.578222415217792D+02 0.290130958989994D+03
 0.000000000000000D+00 0.000000000000000D+00 0.000000000000000D+00 -.000000000000000D+00
 0.187096454279602D+04 0.000000000000000D+00 0.000000000000000D+00 0.187096454279602D+04
 0.248498961595056D+04 0.000000000000000D+00 0.000000000000000D+00 -.248498961595056D+04
 0.291468242200030D+03 -.242640515276935D+03 -.136378974578704D+03 -.318257112380762D+02
 0.104091810477527D+03 -.745734670852600D+02 -.624085751459099D+02 -.371358689629089D+02
 0.285950257723483D+03 -.154116043913681D+03 -.953934001207977D+02 -.221169378789008D+03
 0.153070151286125D+04 -.135310234548502D+04 -.649244156538836D+03 0.290130958989994D+03
 0.214374233548430D+04 0.182443237176090D+04 0.943425106384248D+03 -.614025073154543D+03
0.312460303825D-04 0.000000000000D+00 0.000000000000D+00 0.398589089309D-05 0.000000000000D+00  7 1 -1 24 -11 11 -24 21 0 0.10562908D+00 0.37827843D-01 0.79945586D+05 0.79945586D+05 0.79945586D+05 0.11297872D+01  1  2  2  2  7  2       -1 0.712305705468D-03 0.100000000000D+01
-.144107845652D-05 0.000000000000D+00 -.119992983937D-06 0.398589089309D-05 0.000000000000D+00  7 1 -1 24 -11 11 -24 21 2 0.10562908D+00 0.37827843D-01 0.79945586D+05 0.79945586D+05 0.79945586D+05 0.11297872D+01  1  2  3  2  7  2       -1 -.419326716454D-04 0.100000000000D+01
0.193640639998D-05 0.000000000000D+00 0.000000000000D+00 0.398589089309D-05 0.000000000000D+00  7 1 -1 24 -11 11 -24 21 2 0.10562908D+00 0.37827843D-01 0.79945586D+05 0.79945586D+05 0.79945586D+05 0.11297872D+01  1  2 15  2  7  2       -1 0.563457828233D-04 0.100000000000D+01
0.120440409792D-03 0.000000000000D+00 -.322837917203D-04 0.398589089309D-05 0.000000000000D+00  7 1 -1 24 -11 11 -24 21 2 0.10562908D+00 0.58160824D+00 0.79945586D+05 0.79945586D+05 0.79945586D+05 0.11297872D+01  1  2  5  2  7  2       -1 0.432085838291D-07 0.100000000000D+01
0.296883845375D-04 0.000000000000D+00 -.990052201567D-05 0.398589089309D-05 0.000000000000D+00  7 1 21 24 -11 11 -24 1 2 0.10562908D+00 0.58160824D+00 0.79945586D+05 0.79945586D+05 0.79945586D+05 0.11297872D+01  1  2  5  4  7  2       -1 0.237337884381D-06 0.100000000000D+01
  </mgrwgt>
  </event>
  <event>
  9     66 0.27727860E-05 0.21539105E+03 0.75467711E-02 0.10167834E+00
        1 -1    0    0  501    0 0.00000000E+00 0.00000000E+00 0.81578015E+03 0.81578022E+03 0.32000000E+00 0.0000E+00 0.9000E+01
       21 -1    0    0  502  501 0.00000000E+00 0.00000000E+00 -.14592468E+03 0.14592660E+03 0.75000000E+00 0.0000E+00 0.9000E+01
       25  2    1    2    0    0 0.14138133E+03 0.18779334E+03 0.23717921E+03 0.45068181E+03 0.30266334E+03 0.0000E+00 0.0000E+00
       23  2    1    2    0    0 -.66236946E+02 -.99717469E+02 0.19755714E+03 0.24894651E+03 0.92815050E+02 0.0000E+00 0.0000E+00
       24  1    3    3    0    0 -.15036949E+02 0.39738326E+02 0.19742644E+03 0.21736987E+03 0.80419002E+02 0.0000E+00 0.9000E+01
      -13  1    4    4    0    0 -.51895243E+02 -.96687158E+02 0.94394321E+02 0.14474744E+03 0.10565837E+00 0.0000E+00 0.9000E+01
       13  1    4    4    0    0 -.14341704E+02 -.30303114E+01 0.10316282E+03 0.10419907E+03 0.10565837E+00 0.0000E+00 0.9000E+01
      -24  1    3    3    0    0 0.15641828E+03 0.14805501E+03 0.39752775E+02 0.23331194E+03 0.80419002E+02 0.0000E+00 0.9000E+01
        1  1    1    2  502    0 -.75144383E+02 -.88075866E+02 0.23511912E+03 0.26207850E+03 0.32000000E+00 0.0000E+00 0.9000E+01
#aMCatNLO 2  0  0  2  2 0.11577580D+03 0.00000000D+00  -5  7  0 0.00000000D+00 0.00000000D+00 0.00000000D+00 0.00000000D+00 0.00000000D+00
  <mgrwgt>
 0.1496064535D-03    1    2    0
 0.267899258471291D+03 0.000000000000000D+00 0.000000000000000D+00 0.267899258471291D+03
 0.267899258471291D+03 0.000000000000000D+00 0.000000000000000D+00 -.267899258471291D+03
 0.119223210256209D+03 -.316802337852383D+02 0.202309246554540D+02 0.795866218929017D+02
 0.135588772679574D+03 -.689121786235868D+02 -.116632572128478D+03 0.568067186161765D+01
 0.548648908658607D+02 -.216926972610800D+02 -.116462683865971D+02 0.490300679984160D+02
 0.226121643140938D+03 0.122285109669905D+03 0.108047915859621D+03 -.134297361752935D+03
 0.000000000000000D+00 -.000000000000000D+00 -.000000000000000D+00 0.000000000000000D+00
 0.394213484856894D+03 0.000000000000000D+00 0.000000000000000D+00 0.394213484856894D+03
 0.301976689710061D+03 0.000000000000000D+00 0.000000000000000D+00 -.301976689710061D+03
 0.120857316251832D+03 -.150369476446843D+02 0.397383285812596D+02 0.795866218929017D+02
 0.109880940849193D+03 -.518952937453281D+02 -.966872774267148D+02 0.568067186161765D+01
 0.511743378691005D+02 -.143416586257140D+02 -.303020069880615D+01 0.490300679984160D+02
 0.266251693629063D+03 0.156418283447196D+03 0.148055015570590D+03 -.134297361752935D+03
 0.148025885967767D+03 -.751443834314694D+02 -.880758660263289D+02 0.922367951468334D+02
0.237601464251D-06 0.000000000000D+00 0.000000000000D+00 0.224863324754D-07 0.314245876061D-12  7 1 21 24 -13 13 -24 1 2 0.12550472D+00 0.22450091D-01 0.78686290D+05 0.78686290D+05 0.78686290D+05 0.11303662D+01  1  2  1  4  7  2       -1 0.149606453521D-03 0.100000000000D+01
  </mgrwgt>
  </event>
  <event>
  9     66 -.27727860E-05 0.26734534E+03 0.75467711E-02 0.10216351E+00
        1 -1    0    0  501    0 0.00000000E+00 0.00000000E+00 0.71381156E+02 0.71381873E+02 0.32000000E+00 0.0000E+00 0.9000E+01
       -1 -1    0    0    0  502 0.00000000E+00 0.00000000E+00 -.12015110E+04 0.12015110E+04 0.32000000E+00 0.0000E+00 0.9000E+01
       25  2    1    2    0    0 0.80477762E+02 -.14813958E+03 -.47882486E+03 0.58970525E+03 0.30009502E+03 0.0000E+00 0.0000E+00
       23  2    1    2    0    0 -.86308825E+02 0.14802943E+03 -.63371222E+03 0.66463824E+03 0.10387922E+03 0.0000E+00 0.0000E+00
       24  1    3    3    0    0 -.66078898E+02 0.98384858E+01 -.90031170E+02 0.13797117E+03 0.80419002E+02 0.0000E+00 0.9000E+01
      -11  1    4    4    0    0 -.10732897E+03 0.14294197E+03 -.56406074E+03 0.59170638E+03 0.51099893E-03 0.0000E+00 0.9000E+01
       11  1    4    4    0    0 0.21020149E+02 0.50874603E+01 -.69651475E+02 0.72931865E+02 0.51099893E-03 0.0000E+00 0.9000E+01
      -24  1    3    3    0    0 0.14655666E+03 -.15797806E+03 -.38879369E+03 0.45173407E+03 0.80419002E+02 0.0000E+00 0.9000E+01
       21  1    1    2  501  502 0.58310628E+01 0.11014065E+00 -.17592764E+02 0.18549427E+02 0.75000000E+00 0.0000E+00 0.9000E+01
#aMCatNLO 2  0  0  2  1 0.58321029D+01 0.00000000D+00  -5  7  0 0.00000000D+00 0.00000000D+00 0.00000000D+00 0.00000000D+00 0.00000000D+00
  <mgrwgt>
 -.2370015850D-03    3    2    0
 0.289657046094745D+03 0.000000000000000D+00 0.000000000000000D+00 0.289657046094745D+03
 0.289657046094745D+03 0.000000000000000D+00 0.000000000000000D+00 -.289657046094745D+03
 0.125175615910797D+03 -.648156735217408D+02 0.986234604091241D+01 0.700241491256352D+02
 0.196878435936950D+03 -.105342101898754D+03 0.142979503959615D+03 -.849765941421219D+02
 0.243648318584309D+02 0.212643087641438D+02 0.509207266617624D+01 -.107491860266323D+02
 0.232895208483312D+03 0.148893466656351D+03 -.157933922666703D+03 0.257016310431190D+02
 0.000000000000000D+00 0.000000000000000D+00 0.000000000000000D+00 -.000000000000000D+00
 0.291603856550342D+03 0.000000000000000D+00 0.000000000000000D+00 0.291603856550342D+03
 0.294072745207204D+03 0.000000000000000D+00 0.000000000000000D+00 -.294072745207204D+03
 0.125832483513581D+03 -.660788975023249D+02 0.983848549997319D+01 0.700241491256352D+02
 0.197921545548034D+03 -.107328973259837D+03 0.142941974727918D+03 -.849765941421219D+02
 0.241510633445051D+02 0.210201475502212D+02 0.508746080103584D+01 -.107491860266323D+02
 0.231438355674233D+03 0.146556660415521D+03 -.157978061680713D+03 0.257016310431190D+02
 0.633315367719346D+01 0.583106279641960D+01 0.110140651785888D+00 -.246888865686255D+01
-.154930471139D-04 0.000000000000D+00 0.000000000000D+00 0.225569282430D-07 0.000000000000D+00  7 1 -1 24 -11 11 -24 21 2 0.10907632D-01 0.18543897D+00 0.73106876D+05 0.73106876D+05 0.73106876D+05 0.11330598D+01  1  2 13  2  7  2       -1 -.279213666628D-03 0.100000000000D+01
-.193481011866D-03 0.000000000000D+00 0.000000000000D+00 0.225569282430D-07 0.000000000000D+00  7 1 -1 24 -11 11 -24 21 2 0.10907632D-01 0.18205851D+00 0.71473533D+05 0.71473533D+05 0.71473533D+05 0.11338913D+01  1  2  8  2  7  2       -1 -.371788274151D-02 0.100000000000D+01
0.208176883571D-03 0.000000000000D+00 0.000000000000D+00 0.225569282430D-07 0.454134100396D-08  7 1 -1 24 -11 11 -24 21 2 0.10980944D-01 0.18483392D+00 0.73106876D+05 0.73106876D+05 0.73106876D+05 0.11330598D+01  1  2  1  2  7  2       -1 0.376009482310D-02 0.100000000000D+01
  </mgrwgt>
  </event>
  <event>
  8     66 0.27727860E-05 0.13043637E+03 0.75467711E-02 0.10195499E+00
        1 -1    0    0  501    0 0.00000000E+00 0.00000000E+00 0.11686824E+04 0.11686824E+04 0.32000000E+00 0.0000E+00 0.9000E+01
       -1 -1    0    0    0  501 0.00000000E+00 0.00000000E+00 -.63590540E+02 0.63591345E+02 0.32000000E+00 0.0000E+00 0.9000E+01
       25  2    1    2    0    0 0.38532630E+02 0.16350498E+03 0.81802267E+03 0.88718953E+03 0.29954218E+03 0.0000E+00 0.0000E+00
       23  2    1    2    0    0 -.38532630E+02 -.16350498E+03 0.28706916E+03 0.34508424E+03 0.91955338E+02 0.0000E+00 0.0000E+00
       24  1    3    3    0    0 0.26000456E+02 0.22021256E+03 0.65706429E+03 0.69811911E+03 0.80419002E+02 0.0000E+00 0.9000E+01
      -11  1    4    4    0    0 -.25378239E+02 -.11174300E+03 0.26225025E+03 0.28619180E+03 0.51099893E-03 0.0000E+00 0.9000E+01
       11  1    4    4    0    0 -.13154391E+02 -.51761984E+02 0.24818915E+02 0.58892441E+02 0.51099893E-03 0.0000E+00 0.9000E+01
      -24  1    3    3    0    0 0.12532174E+02 -.56707578E+02 0.16095839E+03 0.18907042E+03 0.80419002E+02 0.0000E+00 0.9000E+01
#aMCatNLO 1  0  0  2  1 0.45859357D+02 0.00000000D+00  -5  7  0 0.00000000D+00 0.00000000D+00 0.00000000D+00 0.00000000D+00 0.00000000D+00
  <mgrwgt>
 0.6698739419D-03    9    2    0
 0.272612666477155D+03 0.000000000000000D+00 0.000000000000000D+00 0.272612666477155D+03
 0.272612666477155D+03 0.000000000000000D+00 0.000000000000000D+00 -.272612666477155D+03
 0.246058782688608D+03 0.260004560315784D+02 0.220212561172550D+03 0.700579244040571D+02
 0.115284512455376D+03 -.253782390296482D+02 -.111742999470682D+03 0.126477612692098D+02
 0.827995804759475D+02 -.131543913072226D+02 -.517619841753561D+02 -.632726600559795D+02
 0.101082457334378D+03 0.125321743052924D+02 -.567075775265119D+02 -.194330256172874D+02
 0.000000000000000D+00 0.000000000000000D+00 -.000000000000000D+00 -.000000000000000D+00
 0.275699644435507D+03 0.000000000000000D+00 0.000000000000000D+00 0.275699644435507D+03
 0.521071033993057D+03 0.000000000000000D+00 0.000000000000000D+00 -.521071033993057D+03
 0.263625026942686D+03 0.187789006958023D+02 0.240354278083445D+03 0.700579244040571D+02
 0.107564687763858D+03 -.285357217679773D+02 -.102936430731758D+03 0.126477612692098D+02
 0.793670822062714D+02 -.154520815733211D+02 -.453534717792245D+02 -.632726600559795D+02
 0.965937713064323D+02 0.973135976749137D+01 -.488957958649036D+02 -.194330256172874D+02
 0.249620110209317D+03 0.154775428780047D+02 -.431685797075590D+02 -.245371389557550D+03
0.759855919210D-05 0.000000000000D+00 0.000000000000D+00 0.626891770935D-06 0.000000000000D+00  7 1 -1 24 -11 11 -24 21 0 0.17979735D+00 0.97832252D-02 0.63269198D+05 0.63269198D+05 0.63269198D+05 0.11384111D+01  1  2  2  2  7  2       -1 0.628351308047D-03 0.100000000000D+01
-.418818164860D-06 0.000000000000D+00 -.291804680442D-07 0.626891770935D-06 0.000000000000D+00  7 1 -1 24 -11 11 -24 21 2 0.17979735D+00 0.97832252D-02 0.63269198D+05 0.63269198D+05 0.63269198D+05 0.11384111D+01  1  2  3  2  7  2       -1 -.448843550080D-04 0.100000000000D+01
0.494819140719D-06 0.000000000000D+00 0.000000000000D+00 0.626891770935D-06 0.000000000000D+00  7 1 -1 24 -11 11 -24 21 2 0.17979735D+00 0.97832252D-02 0.63269198D+05 0.63269198D+05 0.63269198D+05 0.11384111D+01  1  2 15  2  7  2       -1 0.530293092330D-04 0.100000000000D+01
0.772466074813D-04 0.000000000000D+00 0.000000000000D+00 0.626891770935D-06 0.000000000000D+00  7 1 -1 24 -11 11 -24 21 2 0.17979735D+00 0.18706406D-01 0.75447970D+05 0.75447970D+05 0.75447970D+05 0.11319029D+01  1  2 12  2  7  2       -1 0.297998025699D-02 0.100000000000D+01
-.647303715602D-04 0.000000000000D+00 0.000000000000D+00 0.626891770935D-06 0.000000000000D+00  7 1 -1 24 -11 11 -24 21 2 0.17979735D+00 0.97832252D-02 0.63269198D+05 0.63269198D+05 0.63269198D+05 0.11384111D+01  1  2  4  2  7  2       -1 -.693709399610D-02 0.100000000000D+01
-.774291921328D-04 0.000000000000D+00 -.248980109381D-05 0.626891770935D-06 0.000000000000D+00  7 1 -1 24 -11 11 -24 21 2 0.17979735D+00 0.18819894D-01 0.63269198D+05 0.63269198D+05 0.63269198D+05 0.11384111D+01  1  2  5  2  7  2       -1 -.300304126503D-02 0.100000000000D+01
0.650781773228D-04 0.000000000000D+00 0.203787701134D-05 0.626891770935D-06 0.000000000000D+00  7 1 -1 24 -11 11 -24 21 2 0.17979735D+00 0.97832252D-02 0.63269198D+05 0.63269198D+05 0.63269198D+05 0.11384111D+01  1  2  6  2  7  2       -1 0.697436801770D-02 0.100000000000D+01
0.543653925410D-05 0.000000000000D+00 0.000000000000D+00 0.626891770935D-06 0.000000000000D+00  7 1 21 24 -11 11 -24 1 2 0.17979735D+00 0.18706406D-01 0.75447970D+05 0.75447970D+05 0.75447970D+05 0.11319029D+01  1  2 12  4  7  2       -1 0.259692574031D-02 0.100000000000D+01
-.535254291272D-05 0.000000000000D+00 -.176749594723D-06 0.626891770935D-06 0.000000000000D+00  7 1 21 24 -11 11 -24 1 2 0.17979735D+00 0.18819894D-01 0.63269198D+05 0.63269198D+05 0.63269198D+05 0.11384111D+01  1  2  5  4  7  2       -1 -.257776107424D-02 0.100000000000D+01
  </mgrwgt>
  </event>
  <event>
  8     66 0.27727860E-05 0.34727605E+03 0.75467711E-02 0.95435673E-01
        3 -1    0    0  501    0 0.00000000E+00 0.00000000E+00 0.13704179E+04 0.13704180E+04 0.50000000E+00 0.0000E+00 0.9000E+01
       -3 -1    0    0    0  501 0.00000000E+00 0.00000000E+00 -.10026577E+03 0.10026701E+03 0.50000000E+00 0.0000E+00 0.9000E+01
       25  2    1    2    0    0 0.17875699E+03 -.22904513E+03 0.93505185E+03 0.10226007E+04 0.29491430E+03 0.0000E+00 0.0000E+00
       23  2    1    2    0    0 -.17875699E+03 0.22904513E+03 0.33510032E+03 0.44808437E+03 0.63809461E+02 0.0000E+00 0.0000E+00
       24  1    3    3    0    0 -.30304350E+02 -.12654802E+02 0.10641543E+03 0.13736796E+03 0.80419002E+02 0.0000E+00 0.9000E+01
      -13  1    4    4    0    0 -.17952029E+03 0.23190965E+03 0.33482719E+03 0.44510547E+03 0.10565837E+00 0.0000E+00 0.9000E+01
       13  1    4    4    0    0 0.76329913E+00 -.28645216E+01 0.27313269E+00 0.29789050E+01 0.10565837E+00 0.0000E+00 0.9000E+01
      -24  1    3    3    0    0 0.20906134E+03 -.21639033E+03 0.82863642E+03 0.88523271E+03 0.80419002E+02 0.0000E+00 0.9000E+01
#aMCatNLO 1  0  0  1  2 0.20661623D+03 0.00000000D+00  -5  7  0 0.00000000D+00 0.00000000D+00 0.00000000D+00 0.00000000D+00 0.00000000D+00
  <mgrwgt>
 0.2518637282D-03    7    2    0
 0.370684490000758D+03 0.000000000000000D+00 0.000000000000000D+00 0.370684490000758D+03
 0.370684490000758D+03 0.000000000000000D+00 0.000000000000000D+00 -.370684490000758D+03
 0.901861579970945D+02 -.303043499053560D+02 -.126548024384631D+02 -.242451952345938D+02
 0.309331922910755D+03 -.179520784248723D+03 0.231910293711471D+03 -.983673839493956D+02
 0.544060135505396D+01 0.763793365141570D+00 -.286516518201655D+01 -.456153387357153D+01
 0.336410297738612D+03 0.209061340788937D+03 -.216390326090992D+03 0.127174113057561D+03
 0.000000000000000D+00 0.000000000000000D+00 0.000000000000000D+00 0.000000000000000D+00
 0.499033265128790D+03 0.000000000000000D+00 0.000000000000000D+00 0.499033265128790D+03
 0.478247959098138D+03 0.000000000000000D+00 0.000000000000000D+00 -.478247959098138D+03
 0.987546386978736D+02 -.354275238319001D+02 -.379779379792215D+02 -.242451952345938D+02
 0.267692465318454D+03 -.195166935595954D+03 0.154573545645136D+03 -.983673839493956D+02
 0.638838185332641D+01 0.443047716712131D+00 -.445056627238440D+01 -.456153387357153D+01
 0.396786650265279D+03 0.189180533929106D+03 -.314658386865330D+03 0.127174113057561D+03
 0.207659088091995D+03 0.409708777820359D+02 0.202513345471800D+03 0.207853060306516D+02
0.123480936202D-03 0.000000000000D+00 0.000000000000D+00 0.644887360864D-10 0.000000000000D+00  7 3 -3 24 -13 13 -24 21 0 0.21083363D+00 0.15425606D-01 0.12060066D+06 0.12060066D+06 0.12060066D+06 0.11151069D+01  1  2  2  1  7  1        3 0.185078419660D-03 0.100000000000D+01
-.682456082699D-05 0.000000000000D+00 -.474199308292D-06 0.644887360864D-10 0.000000000000D+00  7 3 -3 24 -13 13 -24 21 2 0.21083363D+00 0.15425606D-01 0.12060066D+06 0.12060066D+06 0.12060066D+06 0.11151069D+01  1  2  3  1  7  1        3 -.127193102566D-04 0.100000000000D+01
0.776759532963D-05 0.000000000000D+00 0.000000000000D+00 0.644887360864D-10 0.000000000000D+00  7 3 -3 24 -13 13 -24 21 2 0.21083363D+00 0.15425606D-01 0.12060066D+06 0.12060066D+06 0.12060066D+06 0.11151069D+01  1  2 15  1  7  1        3 0.144768956494D-04 0.100000000000D+01
-.436680256166D-04 0.000000000000D+00 0.000000000000D+00 0.644887360864D-10 0.000000000000D+00  7 3 -3 24 -13 13 -24 21 2 0.21083363D+00 0.15425606D-01 0.12060066D+06 0.12060066D+06 0.12060066D+06 0.11151069D+01  1  2  4  1  7  1        3 -.813865067937D-04 0.100000000000D+01
-.775235084964D-04 0.000000000000D+00 -.425437215687D-04 0.644887360864D-10 0.000000000000D+00  7 3 -3 24 -13 13 -24 21 2 0.32581668D+00 0.15425606D-01 0.12060066D+06 0.12060066D+06 0.12060066D+06 0.11151069D+01  1  2  5  1  7  1        3 -.134150579355D-04 0.100000000000D+01
0.910171720650D-04 0.000000000000D+00 0.388090103420D-04 0.644887360864D-10 0.000000000000D+00  7 3 -3 24 -13 13 -24 21 2 0.21083363D+00 0.15425606D-01 0.12060066D+06 0.12060066D+06 0.12060066D+06 0.11151069D+01  1  2  6  1  7  1        3 0.169633721425D-03 0.100000000000D+01
-.230538662461D-05 0.000000000000D+00 -.215598419686D-05 0.644887360864D-10 0.000000000000D+00  7 21 -3 24 -13 13 -24 -3 2 0.32581668D+00 0.15425606D-01 0.12060066D+06 0.12060066D+06 0.12060066D+06 0.11151069D+01  1  2  5  3  7  1        3 -.980443356795D-05 0.100000000000D+01
  </mgrwgt>
  </event>
  <event>
  8     66 0.27727860E-05 0.25862518E+03 0.75467711E-02 0.91993690E-01
        1 -1    0    0  501    0 0.00000000E+00 0.00000000E+00 0.54087538E+03 0.54087547E+03 0.32000000E+00 0.0000E+00 0.9000E+01
       -1 -1    0    0    0  501 0.00000000E+00 0.00000000E+00 -.69438142E+03 0.69438149E+03 0.32000000E+00 0.0000E+00 0.9000E+01
       25  2    1    2    0    0 0.51078303E+03 0.26187318E+03 -.83558510E+02 0.64943767E+03 0.29207944E+03 0.0000E+00 0.0000E+00
       23  2    1    2    0    0 -.51078303E+03 -.26187318E+03 -.69947528E+02 0.58581929E+03 0.93886741E+02 0.0000E+00 0.0000E+00
       24  1    3    3    0    0 0.26147612E+03 0.11487505E+03 -.16326884E+03 0.33865907E+03 0.80419002E+02 0.0000E+00 0.9000E+01
      -11  1    4    4    0    0 -.55795567E+02 -.22658668E+02 -.37098133E+02 0.70730700E+02 0.51099893E-03 0.0000E+00 0.9000E+01
       11  1    4    4    0    0 -.45498746E+03 -.23921451E+03 -.32849395E+02 0.51508859E+03 0.51099893E-03 0.0000E+00 0.9000E+01
      -24  1    3    3    0    0 0.24930691E+03 0.14699813E+03 0.79710330E+02 0.31077860E+03 0.80419002E+02 0.0000E+00 0.9000E+01
#aMCatNLO 1  0  0  1  2 0.94120286D+02 0.00000000D+00  -5  7  0 0.00000000D+00 0.00000000D+00 0.00000000D+00 0.00000000D+00 0.00000000D+00
  <mgrwgt>
 0.1874015717D-02    9    2    0
 0.612840857291480D+03 0.000000000000000D+00 0.000000000000000D+00 0.612840857291480D+03
 0.612840857291480D+03 0.000000000000000D+00 0.000000000000000D+00 -.612840857291480D+03
 0.320856730903698D+03 0.261476119567584D+03 0.114875053048105D+03 -.122130204678905D+03
 0.666370411762974D+02 -.557955668222817D+02 -.226586676480217D+02 -.285295418843054D+02
 0.514998454997525D+03 -.454987462949128D+03 -.239214511692294D+03 0.314043723830148D+02
 0.323189487505439D+03 0.249306910203826D+03 0.146998126292210D+03 0.119255374180196D+03
 0.000000000000000D+00 0.000000000000000D+00 -.000000000000000D+00 0.000000000000000D+00
 0.689658711692754D+03 0.000000000000000D+00 0.000000000000000D+00 0.689658711692754D+03
 0.644168473913265D+03 0.000000000000000D+00 0.000000000000000D+00 -.644168473913265D+03
 0.324398816375327D+03 0.254278260930543D+03 0.138542972519612D+03 -.122130204678905D+03
 0.664151769069901D+02 -.572797711211005D+02 -.177783234241249D+02 -.285295418843054D+02
 0.509105816431671D+03 -.466411398483539D+03 -.201650452725543D+03 0.314043723830148D+02
 0.329370348778889D+03 0.242027571849290D+03 0.170933966473122D+03 0.119255374180196D+03
 0.104537027113142D+03 0.273853368248057D+02 -.900481628430654D+02 0.454902377794895D+02
0.274686186362D-03 0.000000000000D+00 0.000000000000D+00 0.974328109132D-08 0.000000000000D+00  7 1 -1 24 -11 11 -24 21 0 0.83211610D-01 0.10682792D+00 0.34301368D+06 0.34301368D+06 0.34301368D+06 0.10802728D+01  1  2  2  1  7  1        1 0.113215471791D-02 0.100000000000D+01
-.152221970267D-04 0.000000000000D+00 -.105486728217D-05 0.974328109132D-08 0.000000000000D+00  7 1 -1 24 -11 11 -24 21 2 0.83211610D-01 0.10682792D+00 0.34301368D+06 0.34301368D+06 0.34301368D+06 0.10802728D+01  1  2  3  1  7  1        1 -.732172080033D-04 0.100000000000D+01
0.168951964341D-04 0.000000000000D+00 0.000000000000D+00 0.974328109132D-08 0.000000000000D+00  7 1 -1 24 -11 11 -24 21 2 0.83211610D-01 0.10682792D+00 0.34301368D+06 0.34301368D+06 0.34301368D+06 0.10802728D+01  1  2 15  1  7  1        1 0.812641637345D-04 0.100000000000D+01
0.475217583427D-03 0.000000000000D+00 0.000000000000D+00 0.974328109132D-08 0.000000000000D+00  7 1 -1 24 -11 11 -24 21 2 0.95570649D-01 0.10682792D+00 0.40308885D+06 0.40308885D+06 0.40308885D+06 0.10751869D+01  1  2 12  1  7  1        1 0.183946061931D-02 0.100000000000D+01
-.462579372015D-03 0.000000000000D+00 0.000000000000D+00 0.974328109132D-08 0.000000000000D+00  7 1 -1 24 -11 11 -24 21 2 0.83211610D-01 0.10682792D+00 0.34301368D+06 0.34301368D+06 0.34301368D+06 0.10802728D+01  1  2  4  1  7  1        1 -.222495938264D-02 0.100000000000D+01
-.114675520793D-02 0.000000000000D+00 -.248714934726D-03 0.974328109132D-08 0.000000000000D+00  7 1 -1 24 -11 11 -24 21 2 0.97213490D-01 0.10682792D+00 0.34301368D+06 0.34301368D+06 0.34301368D+06 0.10802728D+01  1  2  5  1  7  1        1 -.440066748885D-02 0.100000000000D+01
0.117418503717D-02 0.000000000000D+00 0.245737083735D-03 0.974328109132D-08 0.000000000000D+00  7 1 -1 24 -11 11 -24 21 2 0.83211610D-01 0.10682792D+00 0.34301368D+06 0.34301368D+06 0.34301368D+06 0.10802728D+01  1  2  6  1  7  1        1 0.564770971960D-02 0.100000000000D+01
0.101563765237D-04 0.000000000000D+00 0.000000000000D+00 0.974328109132D-08 0.000000000000D+00  7 21 -1 24 -11 11 -24 -1 2 0.95570649D-01 0.10682792D+00 0.40308885D+06 0.40308885D+06 0.40308885D+06 0.10751869D+01  1  2 12  3  7  1        1 0.900945537237D-04 0.100000000000D+01
-.250911780689D-04 0.000000000000D+00 -.584137427078D-05 0.974328109132D-08 0.000000000000D+00  7 21 -1 24 -11 11 -24 -1 2 0.97213490D-01 0.10682792D+00 0.34301368D+06 0.34301368D+06 0.34301368D+06 0.10802728D+01  1  2  5  3  7  1        1 -.217823977533D-03 0.100000000000D+01
  </mgrwgt>
  </event>
  <event>
  8     66 0.27727860E-05 0.26153522E+03 0.75467711E-02 0.93426909E-01
        3 -1    0    0  501    0 0.00000000E+00 0.00000000E+00 0.20890813E+03 0.20890872E+03 0.50000000E+00 0.0000E+00 0.9000E+01
       -3 -1    0    0    0  501 0.00000000E+00 0.00000000E+00 -.13252862E+04 0.13252863E+04 0.50000000E+00 0.0000E+00 0.9000E+01
       25  2    1    2    0    0 0.16708256E+03 -.44892789E+03 -.58903110E+03 0.81612719E+03 0.29942131E+03 0.0000E+00 0.0000E+00
       23  2    1    2    0    0 -.16708256E+03 0.44892789E+03 -.52734694E+03 0.71806780E+03 0.89853913E+02 0.0000E+00 0.0000E+00
       24  1    3    3    0    0 0.70679797E+02 -.35337593E+03 -.26113153E+03 0.45224670E+03 0.80419002E+02 0.0000E+00 0.9000E+01
      -11  1    4    4    0    0 -.92478480E+02 0.12824196E+03 -.17313396E+03 0.23446458E+03 0.51099893E-03 0.0000E+00 0.9000E+01
       11  1    4    4    0    0 -.74604082E+02 0.32068593E+03 -.35421298E+03 0.48360322E+03 0.51099893E-03 0.0000E+00 0.9000E+01
      -24  1    3    3    0    0 0.96402766E+02 -.95551959E+02 -.32789957E+03 0.36388049E+03 0.80419002E+02 0.0000E+00 0.9000E+01
#aMCatNLO 1  0  0  1  2 0.97259698D+02 0.00000000D+00  -5  7  0 0.00000000D+00 0.00000000D+00 0.00000000D+00 0.00000000D+00 0.00000000D+00
  <mgrwgt>
 0.1841246358D-04    9    2    0
 0.526178278850999D+03 0.000000000000000D+00 0.000000000000000D+00 0.526178278850999D+03
 0.526178278850999D+03 0.000000000000000D+00 0.000000000000000D+00 -.526178278850999D+03
 0.382297337651845D+03 0.706797969976951D+02 -.353375933569658D+03 0.990648993915368D+02
 0.158151176814716D+03 -.924784802074988D+02 0.128241961425341D+03 -.367760195943828D+01
 0.329266762888351D+03 -.746040823342526D+02 0.320685931481077D+03 -.337125972770533D+01
 0.182641280347086D+03 0.964027655440562D+02 -.955519593367597D+02 -.920160377043932D+02
 0.000000000000000D+00 0.000000000000000D+00 -.000000000000000D+00 0.000000000000000D+00
 0.907070125278504D+03 0.000000000000000D+00 0.000000000000000D+00 0.907070125278504D+03
 0.534666226039897D+03 0.000000000000000D+00 0.000000000000000D+00 -.534666226039897D+03
 0.353821724755188D+03 0.504236852386623D+02 -.326138305983616D+03 0.990648993915368D+02
 0.173436114586612D+03 -.101602913435104D+03 0.140511241785941D+03 -.367760195943828D+01
 0.358566976548857D+03 -.935315056400892D+02 0.346136921942653D+03 -.337125972770533D+01
 0.171016597692518D+03 0.866710062840692D+02 -.824660306237950D+02 -.920160377043932D+02
 0.384894937735226D+03 0.580397275524617D+02 -.780438271211836D+02 0.372403899238606D+03
0.550358218314D-04 0.000000000000D+00 0.000000000000D+00 0.284504472028D-06 0.000000000000D+00  7 3 -3 24 -11 11 -24 21 0 0.32139765D-01 0.20389023D+00 0.25723425D+06 0.25723425D+06 0.25723425D+06 0.10895283D+01  1  2  2  1  7  1        3 0.163546693169D-04 0.100000000000D+01
-.305251974277D-05 0.000000000000D+00 -.211352047097D-06 0.284504472028D-06 0.000000000000D+00  7 3 -3 24 -11 11 -24 21 2 0.32139765D-01 0.20389023D+00 0.25723425D+06 0.25723425D+06 0.25723425D+06 0.10895283D+01  1  2  3  1  7  1        3 -.107679205981D-05 0.100000000000D+01
0.353619099007D-05 0.000000000000D+00 0.000000000000D+00 0.284504472028D-06 0.000000000000D+00  7 3 -3 24 -11 11 -24 21 2 0.32139765D-01 0.20389023D+00 0.25723425D+06 0.25723425D+06 0.25723425D+06 0.10895283D+01  1  2 15  1  7  1        3 0.124740958321D-05 0.100000000000D+01
0.371758976856D-03 0.000000000000D+00 0.000000000000D+00 0.284504472028D-06 0.000000000000D+00  7 3 -3 24 -11 11 -24 21 2 0.55496977D-01 0.20389023D+00 0.30970898D+06 0.30970898D+06 0.30970898D+06 0.10835300D+01  1  2 12  1  7  1        3 0.436135279168D-04 0.100000000000D+01
-.331637258811D-03 0.000000000000D+00 0.000000000000D+00 0.284504472028D-06 0.000000000000D+00  7 3 -3 24 -11 11 -24 21 2 0.32139765D-01 0.20389023D+00 0.25723425D+06 0.25723425D+06 0.25723425D+06 0.10895283D+01  1  2  4  1  7  1        3 -.116986750985D-03 0.100000000000D+01
-.380109924990D-03 0.000000000000D+00 -.204042472518D-04 0.284504472028D-06 0.000000000000D+00  7 3 -3 24 -11 11 -24 21 2 0.55824477D-01 0.20389023D+00 0.25723425D+06 0.25723425D+06 0.25723425D+06 0.10895283D+01  1  2  5  1  7  1        3 -.449585714314D-04 0.100000000000D+01
0.340849447200D-03 0.000000000000D+00 0.176457146114D-04 0.284504472028D-06 0.000000000000D+00  7 3 -3 24 -11 11 -24 21 2 0.32139765D-01 0.20389023D+00 0.25723425D+06 0.25723425D+06 0.25723425D+06 0.10895283D+01  1  2  6  1  7  1        3 0.120236397882D-03 0.100000000000D+01
0.225190272124D-04 0.000000000000D+00 0.000000000000D+00 0.284504472028D-06 0.000000000000D+00  7 21 -3 24 -11 11 -24 -3 2 0.55496977D-01 0.20389023D+00 0.30970898D+06 0.30970898D+06 0.30970898D+06 0.10835300D+01  1  2 12  3  7  1        3 0.381104056800D-04 0.100000000000D+01
-.222088228440D-04 0.000000000000D+00 -.124705578762D-05 0.284504472028D-06 0.000000000000D+00  7 21 -3 24 -11 11 -24 -3 2 0.55824477D-01 0.20389023D+00 0.25723425D+06 0.25723425D+06 0.25723425D+06 0.10895283D+01  1  2  5  3  7  1        3 -.381278323245D-04 0.100000000000D+01
  </mgrwgt>
  </event>
  <event>
  8     66 0.27727860E-05 0.13754646E+03 0.75467711E-02 0.10027431E+00
        3 -1    0    0  501    0 0.00000000E+00 0.00000000E+00 0.42544068E+03 0.42544098E+03 0.50000000E+00 0.0000E+00 0.9000E+01
       -3 -1    0    0    0  501 0.00000000E+00 0.00000000E+00 -.25616041E+03 0.25616090E+03 0.50000000E+00 0.0000E+00 0.9000E+01
       25  2    1    2    0    0 0.11042574E+03 0.23739552E+02 -.13038277E+03 0.34533775E+03 0.29916732E+03 0.0000E+00 0.0000E+00
       23  2    1    2    0    0 -.11042574E+03 -.23739552E+02 0.29966305E+03 0.33626412E+03 0.10255832E+03 0.0000E+00 0.0000E+00
       24  1    3    3    0    0 0.12938925E+03 -.72332617E+02 -.74785604E+01 0.16880974E+03 0.80419002E+02 0.0000E+00 0.9000E+01
      -13  1    4    4    0    0 -.49904211E+02 -.37552013E+02 0.24725911E+03 0.25502483E+03 0.10565837E+00 0.0000E+00 0.9000E+01
       13  1    4    4    0    0 -.60521528E+02 0.13812460E+02 0.52403934E+02 0.81239294E+02 0.10565837E+00 0.0000E+00 0.9000E+01
      -24  1    3    3    0    0 -.18963506E+02 0.96072169E+02 -.12290421E+03 0.17652801E+03 0.80419002E+02 0.0000E+00 0.9000E+01
#aMCatNLO 1  0  0  2  1 0.18751903D+03 0.00000000D+00  -5  7  0 0.00000000D+00 0.00000000D+00 0.00000000D+00 0.00000000D+00 0.00000000D+00
  <mgrwgt>
 0.2315357257D-04    7    2    0
 0.330123197491156D+03 0.000000000000000D+00 0.000000000000000D+00 0.330123197491156D+03
 0.330123197491156D+03 0.000000000000000D+00 0.000000000000000D+00 -.330123197491156D+03
 0.176187273925936D+03 0.129389249000366D+03 -.723326156613655D+02 -.510015146224981D+02
 0.199879018616080D+03 -.499042323752320D+02 -.375520522903662D+02 0.189871095859132D+03
 0.704309851877920D+02 -.605215158389924D+02 0.138124980002819D+02 0.332698766764437D+02
 0.213749117252505D+03 -.189635007861416D+02 0.960721699514497D+02 -.172139457913077D+03
 0.000000000000000D+00 -.000000000000000D+00 -.000000000000000D+00 -.000000000000000D+00
 0.352593461503189D+03 0.000000000000000D+00 0.000000000000000D+00 0.352593461503189D+03
 0.127698935424576D+04 0.000000000000000D+00 0.000000000000000D+00 -.127698935424576D+04
 0.179408143181132D+03 0.149608872887414D+03 -.271310992202601D+02 -.510015146224981D+02
 0.192261078186132D+03 -.276066298558388D+02 0.122948416235810D+02 0.189871095859132D+03
 0.697787386120533D+02 -.525490062279191D+02 0.316352590108190D+02 0.332698766764437D+02
 0.244911047778133D+03 0.711652044792969D+01 0.154374763272753D+03 -.172139457913077D+03
 0.943223807991500D+03 -.765697572515858D+02 -.171173764686892D+03 -.924395892742571D+03
0.112017734025D-04 0.000000000000D+00 0.000000000000D+00 0.109520675366D-07 0.000000000000D+00  7 3 -3 24 -13 13 -24 21 0 0.65452473D-01 0.39409354D-01 0.44077195D+05 0.44077195D+05 0.44077195D+05 0.11521431D+01  1  2  2  2  7  2       -3 0.695783151715D-04 0.100000000000D+01
-.467311531175D-06 0.000000000000D+00 -.430177593603D-07 0.109520675366D-07 0.000000000000D+00  7 3 -3 24 -13 13 -24 21 2 0.65452473D-01 0.39409354D-01 0.44077195D+05 0.44077195D+05 0.44077195D+05 0.11521431D+01  1  2  3  2  7  2       -3 -.385306601397D-05 0.100000000000D+01
0.686911966994D-06 0.000000000000D+00 0.000000000000D+00 0.109520675366D-07 0.000000000000D+00  7 3 -3 24 -13 13 -24 21 2 0.65452473D-01 0.39409354D-01 0.44077195D+05 0.44077195D+05 0.44077195D+05 0.11521431D+01  1  2 15  2  7  2       -3 0.566371034748D-05 0.100000000000D+01
0.958758084638D-06 0.000000000000D+00 0.000000000000D+00 0.109520675366D-07 0.000000000000D+00  7 3 -3 24 -13 13 -24 21 2 0.65452473D-01 0.14878661D+00 0.97747969D+05 0.97747969D+05 0.97747969D+05 0.11225347D+01  1  2 12  2  7  2       -3 0.305201711638D-06 0.100000000000D+01
-.444304588153D-04 0.000000000000D+00 -.393838462296D-05 0.109520675366D-07 0.000000000000D+00  7 3 -3 24 -13 13 -24 21 2 0.65452473D-01 0.15570930D+00 0.44077195D+05 0.44077195D+05 0.44077195D+05 0.11521431D+01  1  2  5  2  7  2       -3 -.131689937496D-04 0.100000000000D+01
0.150796736793D-06 0.000000000000D+00 0.000000000000D+00 0.109520675366D-07 0.000000000000D+00  7 3 21 24 -13 13 -24 3 2 0.65452473D-01 0.14878661D+00 0.97747969D+05 0.97747969D+05 0.97747969D+05 0.11225347D+01  1  2 12  4  7  2       -3 0.772452315204D-06 0.100000000000D+01
-.721966990649D-05 0.000000000000D+00 -.644742417138D-06 0.109520675366D-07 0.000000000000D+00  7 3 21 24 -13 13 -24 3 2 0.65452473D-01 0.15570930D+00 0.44077195D+05 0.44077195D+05 0.44077195D+05 0.11521431D+01  1  2  5  4  7  2       -3 -.361440472134D-04 0.100000000000D+01
  </mgrwgt>
  </event>
  <event>
  8     66 0.27727860E-05 0.72580118E+03 0.75467711E-02 0.89568764E-01
        1 -1    0    0  501    0 0.00000000E+00 0.00000000E+00 0.11007780E+04 0.11007781E+04 0.32000000E+00 0.0000E+00 0.9000E+01
       -1 -1    0    0    0  501 0.00000000E+00 0.00000000E+00 -.50831646E+03 0.50831656E+03 0.32000000E+00 0.0000E+00 0.9000E+01
       25  2    1    2    0    0 -.66565540E+03 -.23837705E+03 0.19224496E+03 0.79165320E+03 0.29972644E+03 0.0000E+00 0.0000E+00
       23  2    1    2    0    0 0.66565540E+03 0.23837705E+03 0.40021660E+03 0.81744143E+03 0.90091284E+02 0.0000E+00 0.0000E+00
       24  1    3    3    0    0 -.29789107E+03 -.20288903E+02 -.15343890E+02 0.30960197E+03 0.80419002E+02 0.0000E+00 0.9000E+01
      -13  1    4    4    0    0 0.59057917E+03 0.21794168E+03 0.38575348E+03 0.73830081E+03 0.10565837E+00 0.0000E+00 0.9000E+01
       13  1    4    4    0    0 0.75076230E+02 0.20435374E+02 0.14463119E+02 0.79140621E+02 0.10565837E+00 0.0000E+00 0.9000E+01
      -24  1    3    3    0    0 -.36776433E+03 -.21808815E+03 0.20758885E+03 0.48205123E+03 0.80419002E+02 0.0000E+00 0.9000E+01
#aMCatNLO 1  0  0  1  1 0.14392589D+03 0.00000000D+00  -5  7  0 0.00000000D+00 0.00000000D+00 0.00000000D+00 0.00000000D+00 0.00000000D+00
  <mgrwgt>
 0.8735073952D-03    4    2    0
 0.748026542726716D+03 0.000000000000000D+00 0.000000000000000D+00 0.748026542726716D+03
 0.748026542726716D+03 0.000000000000000D+00 0.000000000000000D+00 -.748026542726716D+03
 0.339071879424232D+03 -.297891068788074D+03 -.202889026601560D+02 -.139110729374325D+03
 0.641322776766045D+03 0.590579877028758D+03 0.217941949418254D+03 0.122521914494420D+03
 0.793920688493049D+02 0.750755211682153D+02 0.204351025995807D+02 -.157852240794433D+02
 0.436266360413850D+03 -.367764329408900D+03 -.218088149357679D+03 0.323740389593474D+02
 0.000000000000000D+00 0.000000000000000D+00 0.000000000000000D+00 -.000000000000000D+00
 0.782120601796296D+03 0.000000000000000D+00 0.000000000000000D+00 0.782120601796296D+03
 0.920493961575083D+03 0.000000000000000D+00 0.000000000000000D+00 -.920493961575083D+03
 0.343365830232396D+03 -.298779412787457D+03 -.530277746481754D+02 -.139110729374325D+03
 0.621783508614266D+03 0.588935664123575D+03 0.157346419014263D+03 0.122521914494420D+03
 0.775974999179717D+02 0.748711644343965D+02 0.129037758241124D+02 -.157852240794433D+02
 0.460213405234595D+03 -.368931296604753D+03 -.261095351146369D+03 0.323740389593474D+02
 0.199654319372150D+03 0.390388083423788D+01 0.143872930956169D+03 -.138373359778787D+03
0.434655740255D-03 0.000000000000D+00 0.000000000000D+00 0.811297239683D-05 0.000000000000D+00  7 1 -1 24 -13 13 -24 21 0 0.16935048D+00 0.78202544D-01 0.52678736D+06 0.52678736D+06 0.52678736D+06 0.10669122D+01  1  2  2  1  7  1        1 0.110541787235D-02 0.100000000000D+01
-.241208304773D-04 0.000000000000D+00 -.166919249006D-05 0.811297239683D-05 0.000000000000D+00  7 1 -1 24 -13 13 -24 21 2 0.16935048D+00 0.78202544D-01 0.52678736D+06 0.52678736D+06 0.52678736D+06 0.10669122D+01  1  2  3  1  7  1        1 -.698281746754D-04 0.100000000000D+01
0.267014878930D-04 0.000000000000D+00 0.000000000000D+00 0.811297239683D-05 0.000000000000D+00  7 1 -1 24 -13 13 -24 21 2 0.16935048D+00 0.78202544D-01 0.52678736D+06 0.52678736D+06 0.52678736D+06 0.10669122D+01  1  2 15  1  7  1        1 0.772990035496D-04 0.100000000000D+01
-.826897728614D-04 0.000000000000D+00 0.000000000000D+00 0.811297239683D-05 0.000000000000D+00  7 1 -1 24 -13 13 -24 21 2 0.16935048D+00 0.78202544D-01 0.52678736D+06 0.52678736D+06 0.52678736D+06 0.10669122D+01  1  2  4  1  7  1        1 -.239381306074D-03 0.100000000000D+01
  </mgrwgt>
  </event>
  <event>
  9     66 0.27727860E-05 0.29741193E+03 0.75467711E-02 0.98975070E-01
        1 -1    0    0  502    0 0.00000000E+00 0.00000000E+00 0.50422563E+03 0.50422574E+03 0.32000000E+00 0.0000E+00 0.9000E+01
       -1 -1    0    0    0  501 0.00000000E+00 0.00000000E+00 -.28123430E+03 0.28123448E+03 0.32000000E+00 0.0000E+00 0.9000E+01
       25  2    1    2    0    0 0.68887071E+01 0.21395318E+03 0.17384950E+03 0.40738348E+03 0.29985702E+03 0.0000E+00 0.0000E+00
       23  2    1    2    0    0 -.94912753E+02 -.24679049E+03 0.43775295E+02 0.28397103E+03 0.93857855E+02 0.0000E+00 0.0000E+00
       24  1    3    3    0    0 0.59611643E+02 0.16104161E+02 -.31786510E+02 0.10625672E+03 0.80419002E+02 0.0000E+00 0.9000E+01
      -13  1    4    4    0    0 -.41800713E+01 -.12982934E+03 0.10522323E+01 0.12990091E+03 0.10565837E+00 0.0000E+00 0.9000E+01
       13  1    4    4    0    0 -.90732682E+02 -.11696115E+03 0.42723063E+02 0.15407012E+03 0.10565837E+00 0.0000E+00 0.9000E+01
      -24  1    3    3    0    0 -.52722936E+02 0.19784901E+03 0.20563601E+03 0.30112676E+03 0.80419002E+02 0.0000E+00 0.9000E+01
       21  1    1    2  502  501 0.88024046E+02 0.32837311E+02 0.53665327E+01 0.94105706E+02 0.75000000E+00 0.0000E+00 0.9000E+01
#aMCatNLO 2  0  0  1  1 0.93949570D+02 0.00000000D+00  -5  7  0 0.00000000D+00 0.00000000D+00 0.00000000D+00 0.00000000D+00 0.00000000D+00
  <mgrwgt>
 0.8985614538D-04    1    2    0
 0.324724494575850D+03 0.000000000000000D+00 0.000000000000000D+00 0.324724494575850D+03
 0.324724494575850D+03 0.000000000000000D+00 0.000000000000000D+00 -.324724494575850D+03
 0.132658102165475D+03 0.768130101021364D+02 0.225211207420649D+02 -.687278452691877D+02
 0.130799183732707D+03 0.138412591428033D+02 -.123106545118717D+03 -.419717114187350D+02
 0.131483963135463D+03 -.718803823726270D+02 -.109928261722839D+03 -.608444462278519D+01
 0.254507740118055D+03 -.187738868723127D+02 0.210513686099491D+03 0.116784001310708D+03
 0.000000000000000D+00 0.000000000000000D+00 0.000000000000000D+00 -.000000000000000D+00
 0.364008627313661D+03 0.000000000000000D+00 0.000000000000000D+00 0.364008627313661D+03
 0.389563730552202D+03 0.000000000000000D+00 0.000000000000000D+00 -.389563730552202D+03
 0.122489284220406D+03 0.596116434137659D+02 0.161041624625916D+02 -.687278452691877D+02
 0.136509184239298D+03 -.417996898532767D+01 -.129829352157141D+03 -.419717114187350D+02
 0.148153185509914D+03 -.907327845142845D+02 -.116961137668252D+03 -.608444462278519D+01
 0.249057543743676D+03 -.527229357806120D+02 0.197849016226507D+03 0.116784001310708D+03
 0.973631601525680D+02 0.880240458664582D+02 0.328373111362940D+02 -.255551032385411D+02
0.259130120479D-05 0.000000000000D+00 0.000000000000D+00 0.153431406424D-06 0.124808709785D-09  7 1 -1 24 -13 13 -24 21 2 0.77572896D-01 0.43266670D-01 0.12014721D+06 0.12014721D+06 0.12014721D+06 0.11152387D+01  1  2  1  1  7  1        1 0.898561453772D-04 0.100000000000D+01
  </mgrwgt>
  </event>
  <event>
  8     66 0.27727860E-05 0.19373301E+03 0.75467711E-02 0.95197777E-01
        1 -1    0    0  501    0 0.00000000E+00 0.00000000E+00 0.39705998E+03 0.39706011E+03 0.32000000E+00 0.0000E+00 0.9000E+01
       -1 -1    0    0    0  501 0.00000000E+00 0.00000000E+00 -.95587807E+03 0.95587813E+03 0.32000000E+00 0.0000E+00 0.9000E+01
       25  2    1    2    0    0 -.41373621E+02 -.33924961E+03 0.21431081E+03 0.50285233E+03 0.30021537E+03 0.0000E+00 0.0000E+00
       23  2    1    2    0    0 0.41373621E+02 0.33924961E+03 -.77312891E+03 0.85008590E+03 0.90086978E+02 0.0000E+00 0.0000E+00
       24  1    3    3    0    0 -.37002532E+02 -.56580674E+02 -.41736024E+02 0.11304721E+03 0.80419002E+02 0.0000E+00 0.9000E+01
      -13  1    4    4    0    0 -.24701581E+02 0.64873040E+02 -.12079650E+03 0.13932152E+03 0.10565837E+00 0.0000E+00 0.9000E+01
       13  1    4    4    0    0 0.66075202E+02 0.27437657E+03 -.65233241E+03 0.71076439E+03 0.10565837E+00 0.0000E+00 0.9000E+01
      -24  1    3    3    0    0 -.43710887E+01 -.28266894E+03 0.25604684E+03 0.38980512E+03 0.80419002E+02 0.0000E+00 0.9000E+01
#aMCatNLO 1  0  0  1  2 0.18167001D+03 0.00000000D+00  -5  7  0 0.00000000D+00 0.00000000D+00 0.00000000D+00 0.00000000D+00 0.00000000D+00
  <mgrwgt>
 0.4028751221D-03    9    2    0
 0.616069032271204D+03 0.000000000000000D+00 0.000000000000000D+00 0.616069032271204D+03
 0.616069032271204D+03 0.000000000000000D+00 0.000000000000000D+00 -.616069032271204D+03
 0.105201723388628D+03 -.370025322527811D+02 -.565806741971455D+02 0.544302892195466D+01
 0.981947438299127D+02 -.247017058505586D+02 0.648727513952586D+02 -.694518507334659D+02
 0.484593275701874D+03 0.660753267861290D+02 0.274376858306003D+03 -.393931508858719D+03
 0.544148321621994D+03 -.437108868278931D+01 -.282668935504116D+03 0.457940330670230D+03
 0.000000000000000D+00 -.000000000000000D+00 -.000000000000000D+00 0.000000000000000D+00
 0.824630683131543D+03 0.000000000000000D+00 0.000000000000000D+00 0.824630683131543D+03
 0.663596038182072D+03 0.000000000000000D+00 0.000000000000000D+00 -.663596038182072D+03
 0.969150348609921D+02 -.252923330131842D+02 -.474971510160529D+02 0.544302892195466D+01
 0.102241093113085D+03 -.130888954844875D+02 0.738807306789202D+02 -.694518507334659D+02
 0.522325628228838D+03 0.124413987495216D+03 0.319629766993757D+03 -.393931508858719D+03
 0.523977277075320D+03 0.575137529403460D+02 -.234665278013712D+03 0.457940330670230D+03
 0.242767688035381D+03 -.143546511937890D+03 -.111348068642912D+03 0.161034644949472D+03
0.163282984433D-03 0.000000000000D+00 0.000000000000D+00 0.554618746744D-05 0.000000000000D+00  7 1 -1 24 -13 13 -24 21 0 0.61086165D-01 0.14705818D+00 0.14085632D+06 0.14085632D+06 0.14085632D+06 0.11097139D+01  1  2  2  1  7  1        1 0.477250170465D-03 0.100000000000D+01
-.636213246833D-05 0.000000000000D+00 -.627049653618D-06 0.554618746744D-05 0.000000000000D+00  7 1 -1 24 -13 13 -24 21 2 0.61086165D-01 0.14705818D+00 0.14085632D+06 0.14085632D+06 0.14085632D+06 0.11097139D+01  1  2  3  1  7  1        1 -.228997069293D-04 0.100000000000D+01
0.959015161794D-05 0.000000000000D+00 0.000000000000D+00 0.554618746744D-05 0.000000000000D+00  7 1 -1 24 -13 13 -24 21 2 0.61086165D-01 0.14705818D+00 0.14085632D+06 0.14085632D+06 0.14085632D+06 0.11097139D+01  1  2 15  1  7  1        1 0.345185615910D-04 0.100000000000D+01
0.132874352178D-03 0.000000000000D+00 0.000000000000D+00 0.554618746744D-05 0.000000000000D+00  7 1 -1 24 -13 13 -24 21 2 0.83518158D-01 0.14705818D+00 0.22614575D+06 0.22614575D+06 0.22614575D+06 0.10937507D+01  1  2 12  1  7  1        1 0.294918111640D-03 0.100000000000D+01
-.204150560196D-03 0.000000000000D+00 0.000000000000D+00 0.554618746744D-05 0.000000000000D+00  7 1 -1 24 -13 13 -24 21 2 0.61086165D-01 0.14705818D+00 0.14085632D+06 0.14085632D+06 0.14085632D+06 0.11097139D+01  1  2  4  1  7  1        1 -.734814627206D-03 0.100000000000D+01
-.224262718430D-03 0.000000000000D+00 -.782774085526D-04 0.554618746744D-05 0.000000000000D+00  7 1 -1 24 -13 13 -24 21 2 0.86257673D-01 0.14705818D+00 0.14085632D+06 0.14085632D+06 0.14085632D+06 0.11097139D+01  1  2  5  1  7  1        1 -.501937545914D-03 0.100000000000D+01
0.241209570411D-03 0.000000000000D+00 0.738379741707D-04 0.554618746744D-05 0.000000000000D+00  7 1 -1 24 -13 13 -24 21 2 0.61086165D-01 0.14705818D+00 0.14085632D+06 0.14085632D+06 0.14085632D+06 0.11097139D+01  1  2  6  1  7  1        1 0.868203939239D-03 0.100000000000D+01
0.529326546296D-05 0.000000000000D+00 0.000000000000D+00 0.554618746744D-05 0.000000000000D+00  7 21 -1 24 -13 13 -24 -1 2 0.83518158D-01 0.14705818D+00 0.22614575D+06 0.22614575D+06 0.22614575D+06 0.10937507D+01  1  2 12  3  7  1        1 0.316807546932D-04 0.100000000000D+01
-.742078126326D-05 0.000000000000D+00 -.334694489543D-05 0.554618746744D-05 0.000000000000D+00  7 21 -1 24 -13 13 -24 -1 2 0.86257673D-01 0.14705818D+00 0.14085632D+06 0.14085632D+06 0.14085632D+06 0.11097139D+01  1  2  5  3  7  1        1 -.440445354860D-04 0.100000000000D+01
  </mgrwgt>
  </event>
  <event>
  8     66 0.27727860E-05 0.15846469E+03 0.75467711E-02 0.95875937E-01
        1 -1    0    0  501    0 0.00000000E+00 0.00000000E+00 0.11238976E+04 0.11238976E+04 0.32000000E+00 0.0000E+00 0.9000E+01
       -1 -1    0    0    0  501 0.00000000E+00 0.00000000E+00 -.93492039E+02 0.93492587E+02 0.32000000E+00 0.0000E+00 0.9000E+01
       25  2    1    2    0    0 -.99896673E+02 0.20725522E+03 0.77183449E+03 0.85955751E+03 0.30029412E+03 0.0000E+00 0.0000E+00
       23  2    1    2    0    0 0.99896673E+02 -.20725522E+03 0.25857102E+03 0.35783267E+03 0.90836000E+02 0.0000E+00 0.0000E+00
       24  1    3    3    0    0 -.14259145E+03 0.23061963E+03 0.61073254E+03 0.67303728E+03 0.80419002E+02 0.0000E+00 0.9000E+01
      -11  1    4    4    0    0 0.26531271E+01 -.22676616E+02 -.32434575E+01 0.23060530E+02 0.51099893E-03 0.0000E+00 0.9000E+01
       11  1    4    4    0    0 0.97243546E+02 -.18457860E+03 0.26181448E+03 0.33477215E+03 0.51099893E-03 0.0000E+00 0.9000E+01
      -24  1    3    3    0    0 0.42694777E+02 -.23364408E+02 0.16110195E+03 0.18652023E+03 0.80419002E+02 0.0000E+00 0.9000E+01
#aMCatNLO 1  0  0  2  1 0.24126001D+03 0.00000000D+00  -5  7  0 0.00000000D+00 0.00000000D+00 0.00000000D+00 0.00000000D+00 0.00000000D+00
  <mgrwgt>
 0.5126360400D-03    7    2    0
 0.324154029824206D+03 0.000000000000000D+00 0.000000000000000D+00 0.324154029824206D+03
 0.324154029824206D+03 0.000000000000000D+00 0.000000000000000D+00 -.324154029824206D+03
 0.293142750030519D+03 -.142591450084795D+03 0.230619628442814D+03 0.771214709448585D+02
 0.484580414173888D+02 0.265312711878861D+01 -.226766162626748D+02 -.427424118338718D+02
 0.212511999354206D+03 0.972435462505187D+02 -.184578603748816D+03 -.404447971967127D+02
 0.941952688462971D+02 0.426947767154875D+02 -.233644084313234D+02 0.606573808572606D+01
 0.000000000000000D+00 -.000000000000000D+00 0.000000000000000D+00 -.000000000000000D+00
 0.400263570708264D+03 0.000000000000000D+00 0.000000000000000D+00 0.400263570708264D+03
 0.613405998422043D+03 0.000000000000000D+00 0.000000000000000D+00 -.613405998422043D+03
 0.224615256216377D+03 -.612007761619632D+02 0.185179753448515D+03 0.771214709448585D+02
 0.566804172455208D+02 0.191807131774026D+02 -.319038582581518D+02 -.427424118338718D+02
 0.291830866727329D+03 0.176525383060927D+03 -.228841128929513D+03 -.404447971967127D+02
 0.118617438224466D+03 0.761485706478829D+02 -.420414403455000D+02 0.606573808572606D+01
 0.321925590716613D+03 -.210653890724249D+03 0.117606674084650D+03 -.213142427713779D+03
0.122696361196D-04 0.000000000000D+00 0.000000000000D+00 0.183518993893D-05 0.000000000000D+00  7 1 -1 24 -11 11 -24 21 0 0.17290736D+00 0.14383436D-01 0.92499615D+05 0.92499615D+05 0.92499615D+05 0.11245113D+01  1  2  2  2  7  2       -1 0.599483178317D-03 0.100000000000D+01
-.678279396866D-06 0.000000000000D+00 -.471186333687D-07 0.183518993893D-05 0.000000000000D+00  7 1 -1 24 -11 11 -24 21 2 0.17290736D+00 0.14383436D-01 0.92499615D+05 0.92499615D+05 0.92499615D+05 0.11245113D+01  1  2  3  2  7  2       -1 -.419065185855D-04 0.100000000000D+01
0.759934805084D-06 0.000000000000D+00 0.000000000000D+00 0.183518993893D-05 0.000000000000D+00  7 1 -1 24 -11 11 -24 21 2 0.17290736D+00 0.14383436D-01 0.92499615D+05 0.92499615D+05 0.92499615D+05 0.11245113D+01  1  2 15  2  7  2       -1 0.469514807322D-04 0.100000000000D+01
0.593702991078D-06 0.000000000000D+00 0.000000000000D+00 0.183518993893D-05 0.000000000000D+00  7 1 -1 24 -11 11 -24 21 2 0.17290736D+00 0.27618263D-01 0.20111774D+06 0.20111774D+06 0.20111774D+06 0.10976395D+01  1  2 12  2  7  2       -1 0.120207641996D-04 0.100000000000D+01
-.492515086485D-05 0.000000000000D+00 -.380195367426D-05 0.183518993893D-05 0.000000000000D+00  7 1 -1 24 -11 11 -24 21 2 0.17290736D+00 0.33392071D-01 0.92499615D+05 0.92499615D+05 0.92499615D+05 0.11245113D+01  1  2  5  2  7  2       -1 -.778511838126D-04 0.100000000000D+01
0.420358556607D-07 0.000000000000D+00 0.000000000000D+00 0.183518993893D-05 0.000000000000D+00  7 1 21 24 -11 11 -24 1 2 0.17290736D+00 0.27618263D-01 0.20111774D+06 0.20111774D+06 0.20111774D+06 0.10976395D+01  1  2 12  4  7  2       -1 0.931671071241D-05 0.100000000000D+01
-.211553663678D-06 0.000000000000D+00 -.348861097803D-06 0.183518993893D-05 0.000000000000D+00  7 1 21 24 -11 11 -24 1 2 0.17290736D+00 0.33392071D-01 0.92499615D+05 0.92499615D+05 0.92499615D+05 0.11245113D+01  1  2  5  4  7  2       -1 -.353783915403D-04 0.100000000000D+01
  </mgrwgt>
  </event>
  <event>
  8     66 0.27727860E-05 0.63291709E+03 0.75467711E-02 0.86277756E-01
        1 -1    0    0  501    0 0.00000000E+00 0.00000000E+00 0.25559201E+04 0.25559202E+04 0.32000000E+00 0.0000E+00 0.9000E+01
       -1 -1    0    0    0  501 0.00000000E+00 0.00000000E+00 -.29437535E+03 0.29437553E+03 0.32000000E+00 0.0000E+00 0.9000E+01
       25  2    1    2    0    0 -.24451753E+03 0.57169850E+03 0.23711879E+03 0.73034652E+03 0.30091979E+03 0.0000E+00 0.0000E+00
       23  2    1    2    0    0 0.24451753E+03 -.57169850E+03 0.20244260E+04 0.21199492E+04 0.96207517E+02 0.0000E+00 0.0000E+00
       24  1    3    3    0    0 -.14333696E+03 0.29846009E+03 -.85636918E+01 0.34082908E+03 0.80419002E+02 0.0000E+00 0.9000E+01
      -13  1    4    4    0    0 0.53467054E+02 -.90555333E+02 0.24188046E+03 0.26375208E+03 0.10565837E+00 0.0000E+00 0.9000E+01
       13  1    4    4    0    0 0.19105048E+03 -.48114317E+03 0.17825455E+04 0.18561971E+04 0.10565837E+00 0.0000E+00 0.9000E+01
      -24  1    3    3    0    0 -.10118058E+03 0.27323841E+03 0.24568248E+03 0.38951744E+03 0.80419002E+02 0.0000E+00 0.9000E+01
#aMCatNLO 1  0  0  1  1 0.76178409D+03 0.00000000D+00  -5  7  0 0.00000000D+00 0.00000000D+00 0.00000000D+00 0.00000000D+00 0.00000000D+00
  <mgrwgt>
 0.9498880497D-03    3    2    0
 0.867410038064727D+03 0.000000000000000D+00 0.000000000000000D+00 0.867410038064727D+03
 0.867410038064727D+03 0.000000000000000D+00 0.000000000000000D+00 -.867410038064727D+03
 0.571143280143530D+03 -.143336955328818D+03 0.298460090739231D+03 -.458381415386504D+03
 0.118021843746194D+03 0.534668876409344D+02 -.905548613678628D+02 0.535748505353939D+02
 0.725957282321017D+03 0.191050643186212D+03 -.481143637082657D+03 0.508934600894775D+03
 0.319697669918713D+03 -.101180575498328D+03 0.273238407711289D+03 -.104128036043664D+03
 0.000000000000000D+00 0.000000000000000D+00 0.000000000000000D+00 -.000000000000000D+00
 0.102354741344389D+04 0.000000000000000D+00 0.000000000000000D+00 0.102354741344389D+04
 0.285142987269803D+04 0.000000000000000D+00 0.000000000000000D+00 -.285142987269803D+04
 0.657148085469406D+03 -.395137316419318D+03 0.243165313075158D+03 -.458381415386504D+03
 0.114496341280024D+03 0.580054023443547D+01 -.101022281154261D+03 0.535748505353939D+02
 0.756239664990555D+03 -.112800492618239D+03 -.547868644642295D+03 0.508934600894775D+03
 0.366823192393350D+03 -.241917705031170D+03 0.242332859153313D+03 -.104128036043664D+03
 0.198027000200858D+04 0.744054973834291D+03 0.163392753568086D+03 -.182788245925414D+04
0.126502912498D-02 0.000000000000D+00 0.000000000000D+00 0.602506912727D-06 0.000000000000D+00  7 1 -1 24 -13 13 -24 21 0 0.39321850D+00 0.45288531D-01 0.40058404D+06 0.40058404D+06 0.40058404D+06 0.10753819D+01  1  2  2  1  7  1        1 0.936126553288D-03 0.100000000000D+01
-.617913871826D-04 0.000000000000D+00 -.485804492974D-05 0.602506912727D-06 0.000000000000D+00  7 1 -1 24 -13 13 -24 21 2 0.39321850D+00 0.45288531D-01 0.40058404D+06 0.40058404D+06 0.40058404D+06 0.10753819D+01  1  2  3  1  7  1        1 -.528795154846D-04 0.100000000000D+01
0.778721312221D-04 0.000000000000D+00 0.000000000000D+00 0.602506912727D-06 0.000000000000D+00  7 1 -1 24 -13 13 -24 21 2 0.39321850D+00 0.45288531D-01 0.40058404D+06 0.40058404D+06 0.40058404D+06 0.10753819D+01  1  2 15  1  7  1        1 0.666410119037D-04 0.100000000000D+01
  </mgrwgt>
  </event>
  <event>
  8     66 0.27727860E-05 0.62001077E+03 0.75467711E-02 0.90613527E-01
        1 -1    0    0  501    0 0.00000000E+00 0.00000000E+00 0.31082694E+04 0.31082694E+04 0.32000000E+00 0.0000E+00 0.9000E+01
       -1 -1    0    0    0  501 0.00000000E+00 0.00000000E+00 -.12412567E+03 0.12412609E+03 0.32000000E+00 0.0000E+00 0.9000E+01
       25  2    1    2    0    0 -.40952779E+03 -.41237719E+03 0.16101544E+04 0.17378781E+04 0.29975802E+03 0.0000E+00 0.0000E+00
       23  2    1    2    0    0 0.40952779E+03 0.41237719E+03 0.13739893E+04 0.14945175E+04 0.89263017E+02 0.0000E+00 0.0000E+00
       24  1    3    3    0    0 -.29449342E+03 -.41072316E+03 0.12078148E+04 0.13117560E+04 0.80419002E+02 0.0000E+00 0.9000E+01
      -13  1    4    4    0    0 0.37783303E+02 0.80024314E+01 0.84050991E+02 0.92499715E+02 0.10565837E+00 0.0000E+00 0.9000E+01
       13  1    4    4    0    0 0.37174448E+03 0.40437476E+03 0.12899383E+04 0.14020178E+04 0.10565837E+00 0.0000E+00 0.9000E+01
      -24  1    3    3    0    0 -.11503437E+03 -.16540264E+01 0.40233960E+03 0.42612206E+03 0.80419002E+02 0.0000E+00 0.9000E+01
#aMCatNLO 1  0  0  2  1 0.19237570D+03 0.00000000D+00  -5  7  0 0.00000000D+00 0.00000000D+00 0.00000000D+00 0.00000000D+00 0.00000000D+00
  <mgrwgt>
 0.9060184676D-03    4    2    0
 0.621141473436542D+03 0.000000000000000D+00 0.000000000000000D+00 0.621141473436542D+03
 0.621141473436542D+03 0.000000000000000D+00 0.000000000000000D+00 -.621141473436542D+03
 0.511816660447897D+03 -.294493420593383D+03 -.410723162094733D+03 -.831789058475310D+01
 0.387790356298639D+02 0.377828352401024D+02 0.800187603248784D+01 -.349870626978336D+01
 0.549404172275649D+03 0.371744952365829D+03 0.404375312470514D+03 -.114560712634185D+02
 0.142283078519675D+03 -.115034367012549D+03 -.165402640826917D+01 0.232726681179550D+02
 0.000000000000000D+00 0.000000000000000D+00 0.000000000000000D+00 0.000000000000000D+00
 0.763274490361411D+03 0.000000000000000D+00 0.000000000000000D+00 0.763274490361411D+03
 0.697216714056391D+03 0.000000000000000D+00 0.000000000000000D+00 -.697216714056391D+03
 0.593573200038913D+03 -.360117024853634D+03 -.464874680916107D+03 -.831789058475310D+01
 0.339397410678352D+02 0.334657445964469D+02 0.443948384329356D+01 -.349870626978336D+01
 0.471695200955829D+03 0.311125415698628D+03 0.354353067917188D+03 -.114560712634185D+02
 0.157881882634567D+03 -.132854239735919D+03 -.163586922682424D+02 0.232726681179550D+02
 0.203401179720659D+03 0.148380104294478D+03 0.122440821423867D+03 0.660577763050198D+02
0.927857135827D-03 0.000000000000D+00 0.000000000000D+00 0.239713214289D-05 0.000000000000D+00  7 1 -1 24 -13 13 -24 21 0 0.47819533D+00 0.19096291D-01 0.38441335D+06 0.38441335D+06 0.38441335D+06 0.10766742D+01  1  2  2  2  7  2       -1 0.118007650850D-02 0.100000000000D+01
-.515474105920D-04 0.000000000000D+00 -.356321571197D-05 0.239713214289D-05 0.000000000000D+00  7 1 -1 24 -13 13 -24 21 2 0.47819533D+00 0.19096291D-01 0.38441335D+06 0.38441335D+06 0.38441335D+06 0.10766742D+01  1  2  3  2  7  2       -1 -.759984128761D-04 0.100000000000D+01
0.596181125761D-04 0.000000000000D+00 0.000000000000D+00 0.239713214289D-05 0.000000000000D+00  7 1 -1 24 -13 13 -24 21 2 0.47819533D+00 0.19096291D-01 0.38441335D+06 0.38441335D+06 0.38441335D+06 0.10766742D+01  1  2 15  2  7  2       -1 0.878973721941D-04 0.100000000000D+01
-.193955930716D-03 0.000000000000D+00 0.000000000000D+00 0.239713214289D-05 0.000000000000D+00  7 1 -1 24 -13 13 -24 21 2 0.47819533D+00 0.19096291D-01 0.38441335D+06 0.38441335D+06 0.38441335D+06 0.10766742D+01  1  2  4  2  7  2       -1 -.285957000226D-03 0.100000000000D+01
  </mgrwgt>
  </event>
  <event>
  8     66 0.27727860E-05 0.17165728E+03 0.75467711E-02 0.99079116E-01
        1 -1    0    0  501    0 0.00000000E+00 0.00000000E+00 0.38782213E+03 0.38782226E+03 0.32000000E+00 0.0000E+00 0.9000E+01
       -1 -1    0    0    0  501 0.00000000E+00 0.00000000E+00 -.42537774E+03 0.42537786E+03 0.32000000E+00 0.0000E+00 0.9000E+01
       25  2    1    2    0    0 0.10637274E+03 0.30104789E+03 -.14755493E+03 0.46319572E+03 0.30138484E+03 0.0000E+00 0.0000E+00
       23  2    1    2    0    0 -.10637274E+03 -.30104789E+03 0.10999932E+03 0.35000441E+03 0.91968691E+02 0.0000E+00 0.0000E+00
       24  1    3    3    0    0 0.83322735E+02 0.21165415E+03 -.21522218E+03 0.32330784E+03 0.80419002E+02 0.0000E+00 0.9000E+01
      -13  1    4    4    0    0 -.57973681E+02 -.13818171E+03 0.43164273E+01 0.14991256E+03 0.10565837E+00 0.0000E+00 0.9000E+01
       13  1    4    4    0    0 -.48399063E+02 -.16286619E+03 0.10568289E+03 0.20009185E+03 0.10565837E+00 0.0000E+00 0.9000E+01
      -24  1    3    3    0    0 0.23050009E+02 0.89393744E+02 0.67667254E+02 0.13988787E+03 0.80419002E+02 0.0000E+00 0.9000E+01
#aMCatNLO 1  0  0  1  2 0.38902683D+01 0.00000000D+00  -5  7  0 0.00000000D+00 0.00000000D+00 0.00000000D+00 0.00000000D+00 0.00000000D+00
  <mgrwgt>
 0.7676947355D-03   11    2    0
 0.406166229133337D+03 0.000000000000000D+00 0.000000000000000D+00 0.406166229133337D+03
 0.406166229133337D+03 0.000000000000000D+00 0.000000000000000D+00 -.406166229133337D+03
 0.313703061626977D+03 0.833227354455821D+02 0.211654150771159D+03 -.200504955397550D+03
 0.150272166960057D+03 -.579736938461120D+02 -.138181676642600D+03 0.112516321015500D+02
 0.205191557123256D+03 -.483990503355841D+02 -.162866218112126D+03 0.115046521195269D+03
 0.143165672556385D+03 0.230500087361141D+02 0.893937439835667D+02 0.742068021007310D+02
 0.000000000000000D+00 -.000000000000000D+00 -.000000000000000D+00 0.000000000000000D+00
 0.409543931474620D+03 0.000000000000000D+00 0.000000000000000D+00 0.409543931474620D+03
 0.407292587498029D+03 0.000000000000000D+00 0.000000000000000D+00 -.407292587498029D+03
 0.314252385157985D+03 0.848095563066684D+02 0.211878379367043D+03 -.200504955397550D+03
 0.149900674350318D+03 -.572629694711952D+02 -.138074491753808D+03 0.112516321015500D+02
 0.204848405965345D+03 -.474281916956591D+02 -.162719802175055D+03 0.115046521195269D+03
 0.143340308006530D+03 0.237283738508812D+02 0.894960487474841D+02 0.742068021007310D+02
 0.449474549247061D+01 -.384676899069538D+01 -.580134185663546D+00 0.225134397659129D+01
0.212489791530D-04 0.000000000000D+00 0.000000000000D+00 0.534514032902D-06 0.000000000000D+00  7 1 -1 24 -13 13 -24 21 0 0.59664963D-01 0.65442749D-01 0.11677616D+06 0.11677616D+06 0.11677616D+06 0.11162364D+01  1  2  2  1  7  1        1 0.397884205212D-03 0.100000000000D+01
-.113766270695D-05 0.000000000000D+00 -.816016749322D-07 0.534514032902D-06 0.000000000000D+00  7 1 -1 24 -13 13 -24 21 2 0.59664963D-01 0.65442749D-01 0.11677616D+06 0.11677616D+06 0.11677616D+06 0.11162364D+01  1  2  3  1  7  1        1 -.265426644319D-04 0.100000000000D+01
0.135594563720D-05 0.000000000000D+00 0.000000000000D+00 0.534514032902D-06 0.000000000000D+00  7 1 -1 24 -13 13 -24 21 2 0.59664963D-01 0.65442749D-01 0.11677616D+06 0.11677616D+06 0.11677616D+06 0.11162364D+01  1  2 15  1  7  1        1 0.316353958131D-04 0.100000000000D+01
0.796492500290D-06 0.000000000000D+00 0.000000000000D+00 0.534514032902D-06 0.000000000000D+00  7 1 -1 24 -13 13 -24 21 2 0.60243409D-01 0.65442749D-01 0.11815433D+06 0.11815433D+06 0.11815433D+06 0.11158248D+01  1  2 12  1  7  1        1 0.183262865076D-04 0.100000000000D+01
-.548816740178D-03 0.000000000000D+00 0.000000000000D+00 0.534514032902D-06 0.000000000000D+00  7 1 -1 24 -13 13 -24 21 2 0.59664963D-01 0.65442749D-01 0.11677616D+06 0.11677616D+06 0.11677616D+06 0.11162364D+01  1  2  4  1  7  1        1 -.128043738097D-01 0.100000000000D+01
-.270819468536D-02 0.000000000000D+00 -.268942679086D-03 0.534514032902D-06 0.000000000000D+00  7 1 -1 24 -13 13 -24 21 2 0.60294596D-01 0.65442749D-01 0.11677616D+06 0.11677616D+06 0.11677616D+06 0.11162364D+01  1  2  5  1  7  1        1 -.623035222431D-01 0.100000000000D+01
0.271088336779D-02 0.000000000000D+00 0.268927861284D-03 0.534514032902D-06 0.000000000000D+00  7 1 -1 24 -13 13 -24 21 2 0.59664963D-01 0.65442749D-01 0.11677616D+06 0.11677616D+06 0.11677616D+06 0.11162364D+01  1  2  6  1  7  1        1 0.632472762847D-01 0.100000000000D+01
0.548045870832D-03 0.000000000000D+00 0.000000000000D+00 0.534514032902D-06 0.234529852544D-06  7 1 -1 24 -13 13 -24 21 2 0.60161140D-01 0.65624231D-01 0.11815433D+06 0.11815433D+06 0.11815433D+06 0.11158248D+01  1  2 11  1  7  1        1 0.125663684977D-01 0.100000000000D+01
0.945817205551D-07 0.000000000000D+00 0.000000000000D+00 0.534514032902D-06 0.000000000000D+00  7 21 -1 24 -13 13 -24 -1 2 0.60243409D-01 0.65442749D-01 0.11815433D+06 0.11815433D+06 0.11815433D+06 0.11158248D+01  1  2 12  3  7  1        1 0.821796174803D-05 0.100000000000D+01
-.523657503289D-05 0.000000000000D+00 -.521117793904D-06 0.534514032902D-06 0.000000000000D+00  7 21 -1 24 -13 13 -24 -1 2 0.60294596D-01 0.65442749D-01 0.11677616D+06 0.11677616D+06 0.11677616D+06 0.11162364D+01  1  2  5  3  7  1        1 -.454757287230D-03 0.100000000000D+01
0.100562940516D-05 0.000000000000D+00 0.000000000000D+00 0.534514032902D-06 0.360617351760D-09  7 21 -1 24 -13 13 -24 -1 2 0.60161140D-01 0.65624231D-01 0.11815433D+06 0.11815433D+06 0.11815433D+06 0.11158248D+01  1  2 11  3  7  1        1 0.871821083078D-04 0.100000000000D+01
  </mgrwgt>
  </event>
  <event>
  8     66 0.27727860E-05 0.23658867E+03 0.75467711E-02 0.93423405E-01
        1 -1    0    0  501    0 0.00000000E+00 0.00000000E+00 0.12091336E+04 0.12091337E+04 0.32000000E+00 0.0000E+00 0.9000E+01
       -1 -1    0    0    0  501 0.00000000E+00 0.00000000E+00 -.74129198E+02 0.74129889E+02 0.32000000E+00 0.0000E+00 0.9000E+01
       25  2    1    2    0    0 -.11714530E+03 0.14412978E+03 0.92024141E+03 0.98550005E+03 0.29978273E+03 0.0000E+00 0.0000E+00
       23  2    1    2    0    0 0.11714530E+03 -.14412978E+03 0.21476303E+03 0.29776352E+03 0.89685783E+02 0.0000E+00 0.0000E+00
       24  1    3    3    0    0 -.22221748E+02 0.26897045E+01 0.54941338E+02 0.99934014E+02 0.80419002E+02 0.0000E+00 0.9000E+01
      -11  1    4    4    0    0 0.90623803E+02 -.49926633E+02 0.77914720E+02 0.12952238E+03 0.51099893E-03 0.0000E+00 0.9000E+01
       11  1    4    4    0    0 0.26521502E+02 -.94203143E+02 0.13684831E+03 0.16824115E+03 0.51099893E-03 0.0000E+00 0.9000E+01
      -24  1    3    3    0    0 -.94923557E+02 0.14144007E+03 0.86530007E+03 0.88556604E+03 0.80419002E+02 0.0000E+00 0.9000E+01
#aMCatNLO 1  0  0  1  1 0.45196624D+03 0.00000000D+00  -5  7  0 0.00000000D+00 0.00000000D+00 0.00000000D+00 0.00000000D+00 0.00000000D+00
  <mgrwgt>
 0.6795432777D-03    3    2    0
 0.299387003517921D+03 0.000000000000000D+00 0.000000000000000D+00 0.299387003517921D+03
 0.299387003517921D+03 0.000000000000000D+00 0.000000000000000D+00 -.299387003517921D+03
 0.110029854903056D+03 -.222217475978852D+02 0.268970451136167D+01 -.716820231226384D+02
 0.129895073664492D+03 0.906238027365133D+02 -.499266327013788D+02 -.785327185762664D+02
 0.101163860614366D+03 0.265215015278365D+02 -.942031434227181D+02 -.256223422112545D+02
 0.257685217853928D+03 -.949235566664646D+02 0.141440071612735D+03 0.175837083910159D+03
 0.000000000000000D+00 -.000000000000000D+00 -.000000000000000D+00 -.000000000000000D+00
 0.463481877411299D+03 0.000000000000000D+00 0.000000000000000D+00 0.463481877411299D+03
 0.952924404350413D+03 0.000000000000000D+00 0.000000000000000D+00 -.952924404350413D+03
 0.132723492636237D+03 0.116180158070396D+02 0.766486713057945D+02 -.716820231226384D+02
 0.156937105008251D+03 0.130608145533820D+03 0.374617052682898D+02 -.785327185762664D+02
 0.704176083454444D+02 0.504399206686049D+02 -.419279089348206D+02 -.256223422112545D+02
 0.390124298299999D+03 -.461905219589575D+01 0.338806340626144D+03 0.175837083910159D+03
 0.666203777471781D+03 -.188047029813568D+03 -.410988808265408D+03 -.489442526939113D+03
0.108914461171D-04 0.000000000000D+00 0.000000000000D+00 0.443840701361D-06 0.000000000000D+00  7 1 -1 24 -11 11 -24 21 0 0.18602062D+00 0.11404548D-01 0.55974196D+05 0.55974196D+05 0.55974196D+05 0.11430086D+01  1  2  2  1  7  1        1 0.668449427267D-03 0.100000000000D+01
-.564308605171D-06 0.000000000000D+00 -.418260208735D-07 0.443840701361D-06 0.000000000000D+00  7 1 -1 24 -11 11 -24 21 2 0.18602062D+00 0.11404548D-01 0.55974196D+05 0.55974196D+05 0.55974196D+05 0.11430086D+01  1  2  3  1  7  1        1 -.452479259176D-04 0.100000000000D+01
0.702665339216D-06 0.000000000000D+00 0.000000000000D+00 0.443840701361D-06 0.000000000000D+00  7 1 -1 24 -11 11 -24 21 2 0.18602062D+00 0.11404548D-01 0.55974196D+05 0.55974196D+05 0.55974196D+05 0.11430086D+01  1  2 15  1  7  1        1 0.563417763300D-04 0.100000000000D+01
  </mgrwgt>
  </event>
  <event>
  8     66 0.27727860E-05 0.16391188E+03 0.75467711E-02 0.10053568E+00
        1 -1    0    0  501    0 0.00000000E+00 0.00000000E+00 0.95972162E+03 0.95972167E+03 0.32000000E+00 0.0000E+00 0.9000E+01
       -1 -1    0    0    0  501 0.00000000E+00 0.00000000E+00 -.11276579E+03 0.11276624E+03 0.32000000E+00 0.0000E+00 0.9000E+01
       25  2    1    2    0    0 0.18190045E+03 -.16681766E+03 0.57716662E+03 0.69576484E+03 0.30008582E+03 0.0000E+00 0.0000E+00
       23  2    1    2    0    0 -.18190045E+03 0.16681766E+03 0.26978921E+03 0.37672307E+03 0.90654010E+02 0.0000E+00 0.0000E+00
       24  1    3    3    0    0 0.54631394E+02 -.14476257E+03 0.49068712E+03 0.52075124E+03 0.80419002E+02 0.0000E+00 0.9000E+01
      -11  1    4    4    0    0 -.19141410E+03 0.16598902E+03 0.25903401E+03 0.36234008E+03 0.51099893E-03 0.0000E+00 0.9000E+01
       11  1    4    4    0    0 0.95136515E+01 0.82863965E+00 0.10755196E+02 0.14382992E+02 0.51099893E-03 0.0000E+00 0.9000E+01
      -24  1    3    3    0    0 0.12726906E+03 -.22055091E+02 0.86479501E+02 0.17501360E+03 0.80419002E+02 0.0000E+00 0.9000E+01
#aMCatNLO 1  0  0  1  2 0.23829080D+02 0.00000000D+00  -5  7  0 0.00000000D+00 0.00000000D+00 0.00000000D+00 0.00000000D+00 0.00000000D+00
  <mgrwgt>
 0.1200048539D-02    9    2    0
 0.328974220130427D+03 0.000000000000000D+00 0.000000000000000D+00 0.328974220130427D+03
 0.328974220130427D+03 0.000000000000000D+00 0.000000000000000D+00 -.328974220130427D+03
 0.217204097838307D+03 0.546313935273009D+02 -.144762571030084D+03 0.129497540646174D+03
 0.257185791834976D+03 -.191414102918514D+03 0.165989022718101D+03 -.441906897748114D+02
 0.960015774457471D+01 0.951365155115889D+01 0.828639647634457D+00 -.983269656918927D+00
 0.173958392842997D+03 0.127269057840054D+03 -.220550913356511D+02 -.843235812144435D+02
 0.000000000000000D+00 0.000000000000000D+00 -.000000000000000D+00 0.000000000000000D+00
 0.413829711115251D+03 0.000000000000000D+00 0.000000000000000D+00 0.413829711115251D+03
 0.330867086257420D+03 0.000000000000000D+00 0.000000000000000D+00 -.330867086257420D+03
 0.215237010146948D+03 0.468055102172756D+02 -.144566198547655D+03 0.129497540646174D+03
 0.264435521955282D+03 -.200853879707459D+03 0.166225892133116D+03 -.441906897748114D+02
 0.926275487988977D+01 0.917228957062466D+01 0.837205338799137D+00 -.983269656918927D+00
 0.169444523697249D+03 0.121054497976199D+03 -.218991512967666D+02 -.843235812144435D+02
 0.863169866933022D+02 0.238215819433595D+02 -.597747627493836D+00 0.829626248578319D+02
0.182167823607D-04 0.000000000000D+00 0.000000000000D+00 0.243321919853D-05 0.000000000000D+00  7 1 -1 24 -11 11 -24 21 0 0.14764952D+00 0.17348622D-01 0.86861098D+05 0.86861098D+05 0.86861098D+05 0.11267770D+01  1  2  2  1  7  1        1 0.876980255402D-03 0.100000000000D+01
-.997168895261D-06 0.000000000000D+00 -.699572408539D-07 0.243321919853D-05 0.000000000000D+00  7 1 -1 24 -11 11 -24 21 2 0.14764952D+00 0.17348622D-01 0.86861098D+05 0.86861098D+05 0.86861098D+05 0.11267770D+01  1  2  3  1  7  1        1 -.609484679014D-04 0.100000000000D+01
0.116329397188D-05 0.000000000000D+00 0.000000000000D+00 0.243321919853D-05 0.000000000000D+00  7 1 -1 24 -11 11 -24 21 2 0.14764952D+00 0.17348622D-01 0.86861098D+05 0.86861098D+05 0.86861098D+05 0.11267770D+01  1  2 15  1  7  1        1 0.711022833162D-04 0.100000000000D+01
0.226216855556D-03 0.000000000000D+00 0.000000000000D+00 0.243321919853D-05 0.000000000000D+00  7 1 -1 24 -11 11 -24 21 2 0.18608474D+00 0.17348622D-01 0.93835527D+05 0.93835527D+05 0.93835527D+05 0.11239967D+01  1  2 12  1  7  1        1 0.904195322388D-02 0.100000000000D+01
-.222731983994D-03 0.000000000000D+00 0.000000000000D+00 0.243321919853D-05 0.000000000000D+00  7 1 -1 24 -11 11 -24 21 2 0.14764952D+00 0.17348622D-01 0.86861098D+05 0.86861098D+05 0.86861098D+05 0.11267770D+01  1  2  4  1  7  1        1 -.136137150302D-01 0.100000000000D+01
-.245547796384D-03 0.000000000000D+00 -.108383260045D-04 0.243321919853D-05 0.000000000000D+00  7 1 -1 24 -11 11 -24 21 2 0.18613871D+00 0.17348622D-01 0.86861098D+05 0.86861098D+05 0.86861098D+05 0.11267770D+01  1  2  5  1  7  1        1 -.987278005404D-02 0.100000000000D+01
0.241825446400D-03 0.000000000000D+00 0.105538856272D-04 0.243321919853D-05 0.000000000000D+00  7 1 -1 24 -11 11 -24 21 2 0.14764952D+00 0.17348622D-01 0.86861098D+05 0.86861098D+05 0.86861098D+05 0.11267770D+01  1  2  6  1  7  1        1 0.147807362701D-01 0.100000000000D+01
0.722803059263D-05 0.000000000000D+00 0.000000000000D+00 0.243321919853D-05 0.000000000000D+00  7 21 -1 24 -11 11 -24 -1 2 0.18608474D+00 0.17348622D-01 0.93835527D+05 0.93835527D+05 0.93835527D+05 0.11239967D+01  1  2 12  3  7  1        1 0.315101026561D-03 0.100000000000D+01
-.769291037741D-05 0.000000000000D+00 -.346627915821D-06 0.243321919853D-05 0.000000000000D+00  7 21 -1 24 -11 11 -24 -1 2 0.18613871D+00 0.17348622D-01 0.86861098D+05 0.86861098D+05 0.86861098D+05 0.11267770D+01  1  2  5  3  7  1        1 -.338380968057D-03 0.100000000000D+01
  </mgrwgt>
  </event>
  <event>
  8     66 -.27727860E-05 0.15757357E+03 0.75467711E-02 0.10987337E+00
        3 -1    0    0  501    0 0.00000000E+00 0.00000000E+00 0.57039574E+03 0.57039596E+03 0.50000000E+00 0.0000E+00 0.9000E+01
       -3 -1    0    0    0  501 0.00000000E+00 0.00000000E+00 -.15601222E+03 0.15601303E+03 0.50000000E+00 0.0000E+00 0.9000E+01
       25  2    1    2    0    0 -.93477077E+02 0.37770089E+02 0.48049773E+03 0.57504862E+03 0.29939657E+03 0.0000E+00 0.0000E+00
       23  2    1    2    0    0 0.93477077E+02 -.37770089E+02 -.66114217E+02 0.15136036E+03 0.91511344E+02 0.0000E+00 0.0000E+00
       24  1    3    3    0    0 -.88310305E+02 -.15042587E+01 0.40678109E+02 0.12618596E+03 0.80419002E+02 0.0000E+00 0.9000E+01
      -11  1    4    4    0    0 0.37647913E+02 0.16888471E+01 0.18987615E+02 0.42198899E+02 0.51099893E-03 0.0000E+00 0.9000E+01
       11  1    4    4    0    0 0.55829164E+02 -.39458936E+02 -.85101832E+02 0.10916146E+03 0.51099893E-03 0.0000E+00 0.9000E+01
      -24  1    3    3    0    0 -.51667721E+01 0.39274348E+02 0.43981962E+03 0.44886266E+03 0.80419002E+02 0.0000E+00 0.9000E+01
#aMCatNLO 1  0  0  2  1 0.19783369D+02 0.00000000D+00  -5  7  0 0.00000000D+00 0.00000000D+00 0.00000000D+00 0.00000000D+00 0.00000000D+00
  <mgrwgt>
 -.1179248118D-05    1    2    0
 0.298310372605081D+03 0.000000000000000D+00 0.000000000000000D+00 0.298310372605081D+03
 0.298310372605081D+03 0.000000000000000D+00 0.000000000000000D+00 -.298310372605081D+03
 0.125383302465262D+03 -.883103051714599D+02 -.150425866728419D+01 -.381154009438503D+02
 0.381909360175279D+02 0.376479130565684D+02 0.168884707724665D+01 -.619112525552873D+01
 0.192015890096162D+03 0.558291641820763D+02 -.394589360574935D+02 -.179432992622212D+03
 0.241030616631209D+03 -.516677206718479D+01 0.392743476475311D+02 0.223739518821591D+03
 0.000000000000000D+00 -.000000000000000D+00 -.000000000000000D+00 -.000000000000000D+00
 0.313688237278408D+03 0.000000000000000D+00 0.000000000000000D+00 0.313688237278408D+03
 0.157051739996308D+04 0.000000000000000D+00 0.000000000000000D+00 -.157051739996308D+04
 0.116064270224075D+03 -.703674725800139D+02 0.244812965724255D+02 -.381154009438503D+02
 0.455829477885366D+02 0.438734499543922D+02 0.107049281297096D+02 -.619112525552873D+01
 0.198500107990985D+03 0.848498045633932D+02 0.256996043234913D+01 -.179432992622212D+03
 0.257239546975729D+03 0.318614657043956D+02 0.929001791955120D+02 0.223739518821591D+03
 0.126681876426217D+04 -.902172476421671D+02 -.130656364329996D+03 -.125682916268467D+04
-.103635444696D-06 0.000000000000D+00 0.000000000000D+00 0.103823778301D-05 0.000000000000D+00  7 3 -3 24 -11 11 -24 21 2 0.87753269D-01 0.24001959D-01 0.24829430D+05 0.24829430D+05 0.24829430D+05 0.11750360D+01  1  2 14  2  7  2       -3 -.117924811830D-05 0.100000000000D+01
  </mgrwgt>
  </event>
  <event>
  8     66 0.27727860E-05 0.32952040E+03 0.75467711E-02 0.98110399E-01
        1 -1    0    0  501    0 0.00000000E+00 0.00000000E+00 0.24644579E+03 0.24644600E+03 0.32000000E+00 0.0000E+00 0.9000E+01
       -1 -1    0    0    0  501 0.00000000E+00 0.00000000E+00 -.53434429E+03 0.53434439E+03 0.32000000E+00 0.0000E+00 0.9000E+01
       25  2    1    2    0    0 0.55524489E+02 -.25441296E+03 -.22589671E+02 0.39815080E+03 0.30034121E+03 0.0000E+00 0.0000E+00
       23  2    1    2    0    0 -.55524489E+02 0.25441296E+03 -.26530883E+03 0.38263959E+03 0.90638614E+02 0.0000E+00 0.0000E+00
       24  1    3    3    0    0 -.48787106E+02 0.49114424E+01 -.48865725E+02 0.10611022E+03 0.80419002E+02 0.0000E+00 0.9000E+01
      -13  1    4    4    0    0 -.27969459E+02 0.12700836E+02 -.17405364E+02 0.35306653E+02 0.10565837E+00 0.0000E+00 0.9000E+01
       13  1    4    4    0    0 -.27555031E+02 0.24171212E+03 -.24790346E+03 0.34733293E+03 0.10565837E+00 0.0000E+00 0.9000E+01
      -24  1    3    3    0    0 0.10431160E+03 -.25932440E+03 0.26276054E+02 0.29204058E+03 0.80419002E+02 0.0000E+00 0.9000E+01
#aMCatNLO 1  0  0  1  2 0.80161532D+02 0.00000000D+00  -5  7  0 0.00000000D+00 0.00000000D+00 0.00000000D+00 0.00000000D+00 0.00000000D+00
  <mgrwgt>
 0.5600807303D-03    4    2    0
 0.362887064198294D+03 0.000000000000000D+00 0.000000000000000D+00 0.362887064198294D+03
 0.362887064198294D+03 0.000000000000000D+00 0.000000000000000D+00 -.362887064198294D+03
 0.947698038215758D+02 -.487871057546697D+02 0.491144223130533D+01 -.104783495504138D+02
 0.310783687318558D+02 -.279694593986911D+02 0.127005247039122D+02 -.471921775546311D+01
 0.275324533684423D+03 -.275550301393313D+02 0.241712433285586D+03 -.128916324636280D+03
 0.324601422158733D+03 0.104311595292692D+03 -.259324400220804D+03 0.144113891942157D+03
 0.000000000000000D+00 -.000000000000000D+00 0.000000000000000D+00 -.000000000000000D+00
 0.381136867006927D+03 0.000000000000000D+00 0.000000000000000D+00 0.381136867006927D+03
 0.465228570363906D+03 0.000000000000000D+00 0.000000000000000D+00 -.465228570363906D+03
 0.919140389360513D+02 -.431026922617566D+02 -.365194600933177D+01 -.104783495504138D+02
 0.283901563280288D+02 -.261586776981401D+02 0.997263963007100D+01 -.471921775546311D+01
 0.253072990289497D+03 -.114656355215075D+02 0.217474271716057D+03 -.128916324636280D+03
 0.356810431920407D+03 0.125060186495560D+03 -.290581493347111D+03 0.144113891942157D+03
 0.116177819896849D+03 -.443331810141554D+02 0.667865280103150D+02 -.840917033569792D+02
0.315988075504D-04 0.000000000000D+00 0.000000000000D+00 0.167729268159D-05 0.000000000000D+00  7 1 -1 24 -13 13 -24 21 0 0.37914761D-01 0.82206837D-01 0.10858370D+06 0.10858370D+06 0.10858370D+06 0.11187989D+01  1  2  2  1  7  1        1 0.687300117745D-03 0.100000000000D+01
-.173563225974D-05 0.000000000000D+00 -.121347741151D-06 0.167729268159D-05 0.000000000000D+00  7 1 -1 24 -13 13 -24 21 2 0.37914761D-01 0.82206837D-01 0.10858370D+06 0.10858370D+06 0.10858370D+06 0.11187989D+01  1  2  3  1  7  1        1 -.472538833188D-04 0.100000000000D+01
0.193207591507D-05 0.000000000000D+00 0.000000000000D+00 0.167729268159D-05 0.000000000000D+00  7 1 -1 24 -13 13 -24 21 2 0.37914761D-01 0.82206837D-01 0.10858370D+06 0.10858370D+06 0.10858370D+06 0.11187989D+01  1  2 15  1  7  1        1 0.526022084122D-04 0.100000000000D+01
-.486920401590D-05 0.000000000000D+00 0.000000000000D+00 0.167729268159D-05 0.000000000000D+00  7 1 -1 24 -13 13 -24 21 2 0.37914761D-01 0.82206837D-01 0.10858370D+06 0.10858370D+06 0.10858370D+06 0.11187989D+01  1  2  4  1  7  1        1 -.132567712504D-03 0.100000000000D+01
  </mgrwgt>
  </event>
  <event>
  8     66 0.27727860E-05 0.19360312E+03 0.75467711E-02 0.10387453E+00
        1 -1    0    0  501    0 0.00000000E+00 0.00000000E+00 0.53552131E+03 0.53552140E+03 0.32000000E+00 0.0000E+00 0.9000E+01
       -1 -1    0    0    0  501 0.00000000E+00 0.00000000E+00 -.90172535E+02 0.90173103E+02 0.32000000E+00 0.0000E+00 0.9000E+01
       25  2    1    2    0    0 -.72788719E+02 -.27454414E+02 0.25735594E+03 0.40274193E+03 0.29986170E+03 0.0000E+00 0.0000E+00
       23  2    1    2    0    0 0.72788719E+02 0.27454414E+02 0.18799283E+03 0.22295258E+03 0.91184448E+02 0.0000E+00 0.0000E+00
       24  1    3    3    0    0 -.14383795E+03 -.87331070E+02 0.14503196E+03 0.23625739E+03 0.80419002E+02 0.0000E+00 0.9000E+01
      -11  1    4    4    0    0 0.25806065E+02 0.87192918E+01 0.16527498E+03 0.16750463E+03 0.51099893E-03 0.0000E+00 0.9000E+01
       11  1    4    4    0    0 0.46982654E+02 0.18735122E+02 0.22717847E+02 0.55447950E+02 0.51099893E-03 0.0000E+00 0.9000E+01
      -24  1    3    3    0    0 0.71049232E+02 0.59876655E+02 0.11232398E+03 0.16648454E+03 0.80419002E+02 0.0000E+00 0.9000E+01
#aMCatNLO 1  0  0  2  2 0.76331065D+02 0.00000000D+00  -5  7  0 0.00000000D+00 0.00000000D+00 0.00000000D+00 0.00000000D+00 0.00000000D+00
  <mgrwgt>
 0.9946637972D-03    3    2    0
 0.219748768004178D+03 0.000000000000000D+00 0.000000000000000D+00 0.219748768004178D+03
 0.219748768004178D+03 0.000000000000000D+00 0.000000000000000D+00 -.219748768004178D+03
 0.189387066857634D+03 -.143837950511342D+03 -.873310697579949D+02 -.329267882762369D+02
 0.709940550604292D+02 0.258060651036087D+02 0.871929183896952D+01 0.655604820575508D+02
 0.559186573487635D+02 0.469826537354392D+02 0.187351224617157D+02 -.238436925413989D+02
 0.123197756741529D+03 0.710492316722943D+02 0.598766554573097D+02 -.879000123991503D+01
 0.000000000000000D+00 -.000000000000000D+00 0.000000000000000D+00 0.000000000000000D+00
 0.465631910399088D+03 0.000000000000000D+00 0.000000000000000D+00 0.465631910399088D+03
 0.229042717416993D+03 0.000000000000000D+00 0.000000000000000D+00 -.229042717416993D+03
 0.175296489353838D+03 -.114977927101519D+03 -.997875048222936D+02 -.329267882762369D+02
 0.755717390706086D+02 0.374048667979968D+02 0.371306859104781D+01 0.655604820575508D+02
 0.629581214919843D+02 0.563902252088263D+02 0.146746682650256D+02 -.238436925413989D+02
 0.132250454703092D+03 0.912646793850348D+02 0.511513537431134D+02 -.879000123991503D+01
 0.248597823196558D+03 -.700818442903390D+02 0.302484142231068D+02 0.236589192982095D+03
0.594961116949D-05 0.000000000000D+00 0.000000000000D+00 0.698386828730D-06 0.000000000000D+00  7 1 -1 24 -11 11 -24 21 0 0.82387944D-01 0.13872749D-01 0.37482166D+05 0.37482166D+05 0.37482166D+05 0.11584685D+01  1  2  2  2  7  2       -1 0.983766371926D-03 0.100000000000D+01
-.324085180696D-06 0.000000000000D+00 -.228480734594D-07 0.698386828730D-06 0.000000000000D+00  7 1 -1 24 -11 11 -24 21 2 0.82387944D-01 0.13872749D-01 0.37482166D+05 0.37482166D+05 0.37482166D+05 0.11584685D+01  1  2  3  2  7  2       -1 -.719169159242D-04 0.100000000000D+01
0.373193154815D-06 0.000000000000D+00 0.000000000000D+00 0.698386828730D-06 0.000000000000D+00  7 1 -1 24 -11 11 -24 21 2 0.82387944D-01 0.13872749D-01 0.37482166D+05 0.37482166D+05 0.37482166D+05 0.11584685D+01  1  2 15  2  7  2       -1 0.828143412194D-04 0.100000000000D+01
  </mgrwgt>
  </event>
  <event>
  8     66 0.27727860E-05 0.17208997E+03 0.75467711E-02 0.93878231E-01
        1 -1    0    0  501    0 0.00000000E+00 0.00000000E+00 0.18225704E+03 0.18225733E+03 0.32000000E+00 0.0000E+00 0.9000E+01
       -1 -1    0    0    0  501 0.00000000E+00 0.00000000E+00 -.84828602E+03 0.84828608E+03 0.32000000E+00 0.0000E+00 0.9000E+01
       25  2    1    2    0    0 -.22312562E+03 -.18644954E+03 -.17593980E+03 0.45340676E+03 0.30012397E+03 0.0000E+00 0.0000E+00
       23  2    1    2    0    0 0.22312562E+03 0.18644954E+03 -.49008918E+03 0.57713665E+03 0.91382890E+02 0.0000E+00 0.0000E+00
       24  1    3    3    0    0 0.30133458E+02 -.10984605E+01 -.24974806E+01 0.85922554E+02 0.80419002E+02 0.0000E+00 0.9000E+01
      -13  1    4    4    0    0 0.47248545E+02 0.86773896E+02 -.12008347E+03 0.15550622E+03 0.10565837E+00 0.0000E+00 0.9000E+01
       13  1    4    4    0    0 0.17587708E+03 0.99675648E+02 -.37000571E+03 0.42163043E+03 0.10565837E+00 0.0000E+00 0.9000E+01
      -24  1    3    3    0    0 -.25325908E+03 -.18535108E+03 -.17344232E+03 0.36748420E+03 0.80419002E+02 0.0000E+00 0.9000E+01
#aMCatNLO 1  0  0  2  1 0.29354804D+03 0.00000000D+00  -5  7  0 0.00000000D+00 0.00000000D+00 0.00000000D+00 0.00000000D+00 0.00000000D+00
  <mgrwgt>
 0.2977462056D-03    7    2    0
 0.393200049532405D+03 0.000000000000000D+00 0.000000000000000D+00 0.393200049532405D+03
 0.393200049532405D+03 0.000000000000000D+00 0.000000000000000D+00 -.393200049532405D+03
 0.110482599175916D+03 0.301334579932850D+02 -.109846046777756D+01 0.694978910490321D+02
 0.102081238795580D+03 0.472483732623825D+02 0.867738786844875D+02 -.256605634417595D+02
 0.239158258577008D+03 0.175877250999234D+03 0.996756651115760D+02 -.127783516194790D+03
 0.334678002516308D+03 -.253259082254902D+03 -.185351083328286D+03 0.839461885875178D+02
 0.000000000000000D+00 -.000000000000000D+00 -.000000000000000D+00 -.000000000000000D+00
 0.473260981255339D+03 0.000000000000000D+00 0.000000000000000D+00 0.473260981255339D+03
 0.821915322076887D+03 0.000000000000000D+00 0.000000000000000D+00 -.821915322076887D+03
 0.125615357635381D+03 0.603595413854199D+02 0.289615438637631D+02 0.694978910490321D+02
 0.144307525736879D+03 0.787919217294096D+02 0.118144109198631D+03 -.256605634417595D+02
 0.328064201976199D+03 0.248495047553384D+03 0.171894458749017D+03 -.127783516194790D+03
 0.241414823702306D+03 -.179505670569039D+03 -.112002914265806D+03 0.839461885875178D+02
 0.455774394281461D+03 -.208140840099174D+03 -.206997197545605D+03 -.348654340821547D+03
0.271458007930D-04 0.000000000000D+00 0.000000000000D+00 0.211962947324D-05 0.000000000000D+00  7 1 -1 24 -13 13 -24 21 0 0.28039572D-01 0.13050557D+00 0.12631881D+06 0.12631881D+06 0.12631881D+06 0.11134893D+01  1  2  2  2  7  2       -1 0.305421664010D-03 0.100000000000D+01
-.148938169936D-05 0.000000000000D+00 -.104247022699D-06 0.211962947324D-05 0.000000000000D+00  7 1 -1 24 -13 13 -24 21 2 0.28039572D-01 0.13050557D+00 0.12631881D+06 0.12631881D+06 0.12631881D+06 0.11134893D+01  1  2  3  2  7  2       -1 -.207766395104D-04 0.100000000000D+01
0.175707398563D-05 0.000000000000D+00 0.000000000000D+00 0.211962947324D-05 0.000000000000D+00  7 1 -1 24 -13 13 -24 21 2 0.28039572D-01 0.13050557D+00 0.12631881D+06 0.12631881D+06 0.12631881D+06 0.11134893D+01  1  2 15  2  7  2       -1 0.245109046314D-04 0.100000000000D+01
0.104141045865D-05 0.000000000000D+00 0.000000000000D+00 0.211962947324D-05 0.000000000000D+00  7 1 -1 24 -13 13 -24 21 2 0.28039572D-01 0.27296940D+00 0.28552932D+06 0.28552932D+06 0.28552932D+06 0.10861439D+01  1  2 12  2  7  2       -1 0.903520117012D-06 0.100000000000D+01
-.138675037251D-04 0.000000000000D+00 -.744066065347D-05 0.211962947324D-05 0.000000000000D+00  7 1 -1 24 -13 13 -24 21 2 0.28039572D-01 0.29458545D+00 0.12631881D+06 0.12631881D+06 0.12631881D+06 0.11134893D+01  1  2  5  2  7  2       -1 -.865746867448D-05 0.100000000000D+01
0.831083399213D-07 0.000000000000D+00 0.000000000000D+00 0.211962947324D-05 0.000000000000D+00  7 1 21 24 -13 13 -24 1 2 0.28039572D-01 0.27296940D+00 0.28552932D+06 0.28552932D+06 0.28552932D+06 0.10861439D+01  1  2 12  4  7  2       -1 0.570020328519D-06 0.100000000000D+01
-.755879586802D-06 0.000000000000D+00 -.658014652721D-06 0.211962947324D-05 0.000000000000D+00  7 1 21 24 -13 13 -24 1 2 0.28039572D-01 0.29458545D+00 0.12631881D+06 0.12631881D+06 0.12631881D+06 0.11134893D+01  1  2  5  4  7  2       -1 -.422579527391D-05 0.100000000000D+01
  </mgrwgt>
  </event>
  <event>
  9     66 0.27727860E-05 0.28001852E+03 0.75467711E-02 0.10097603E+00
        1 -1    0    0  501    0 0.00000000E+00 0.00000000E+00 0.45181281E+03 0.45181293E+03 0.32000000E+00 0.0000E+00 0.9000E+01
       -1 -1    0    0    0  502 0.00000000E+00 0.00000000E+00 -.30581780E+03 0.30581797E+03 0.32000000E+00 0.0000E+00 0.9000E+01
       25  2    1    2    0    0 0.19211490E+03 0.10331033E+03 -.12334471E+03 0.39057252E+03 0.29958608E+03 0.0000E+00 0.0000E+00
       23  2    1    2    0    0 -.18305931E+03 -.74594268E+02 0.24983662E+03 0.33117594E+03 0.90466299E+02 0.0000E+00 0.0000E+00
       24  1    3    3    0    0 0.99607636E+01 -.52523146E+02 0.21843056E+02 0.99006225E+02 0.80419002E+02 0.0000E+00 0.9000E+01
      -11  1    4    4    0    0 -.11419845E+02 0.15063773E+02 0.47420180E+02 0.51049031E+02 0.51099893E-03 0.0000E+00 0.9000E+01
       11  1    4    4    0    0 -.17163947E+03 -.89658041E+02 0.20241644E+03 0.28012691E+03 0.51099893E-03 0.0000E+00 0.9000E+01
      -24  1    3    3    0    0 0.18215414E+03 0.15583347E+03 -.14518776E+03 0.29156629E+03 0.80419002E+02 0.0000E+00 0.9000E+01
       21  1    1    2  501  502 -.90555921E+01 -.28716060E+02 0.19503100E+02 0.35882436E+02 0.75000000E+00 0.0000E+00 0.9000E+01
#aMCatNLO 2  0  0  2  1 0.30110062D+02 0.00000000D+00  -5  7  0 0.00000000D+00 0.00000000D+00 0.00000000D+00 0.00000000D+00 0.00000000D+00
  <mgrwgt>
 0.5689890181D-03    2    2    0
 0.354969723373259D+03 0.000000000000000D+00 0.000000000000000D+00 0.354969723373259D+03
 0.354969723373259D+03 0.000000000000000D+00 0.000000000000000D+00 -.354969723373259D+03
 0.987586733622044D+02 0.871490639276402D+01 -.564738659560628D+02 0.456206975330896D+01
 0.429855415520483D+02 -.119706050768008D+02 0.133172650867436D+02 0.390782784578281D+02
 0.254537264378696D+03 -.174846243006029D+03 -.998270068423749D+02 0.155732395374115D+03
 0.313657967453569D+03 0.178101941690065D+03 0.142983607711694D+03 -.199372743585252D+03
 0.000000000000000D+00 -.000000000000000D+00 -.000000000000000D+00 0.000000000000000D+00
 0.378482914905056D+03 0.000000000000000D+00 0.000000000000000D+00 0.378482914905056D+03
 0.365060900342551D+03 0.000000000000000D+00 0.000000000000000D+00 -.365060900342551D+03
 0.966743299726776D+02 0.996076364319781D+01 -.525231456455713D+02 0.456206975330896D+01
 0.434101596039775D+02 -.114198449244477D+02 0.150637728181496D+02 0.390782784578281D+02
 0.248497986783180D+03 -.171639465725889D+03 -.896580407529934D+02 0.155732395374115D+03
 0.321995199827892D+03 0.182154139086130D+03 0.155833473576488D+03 -.199372743585252D+03
 0.329661390598788D+02 -.905559207899200D+01 -.287160599960731D+02 0.134220145625048D+02
-.293836584032D-06 0.000000000000D+00 0.000000000000D+00 0.197761597713D-05 0.000000000000D+00  7 1 -1 24 -11 11 -24 21 2 0.65190653D-01 0.45747838D-01 0.78410372D+05 0.78410372D+05 0.78410372D+05 0.11304944D+01  1  2  8  2  7  2       -1 -.121127355031D-04 0.100000000000D+01
0.162970728644D-04 0.000000000000D+00 0.000000000000D+00 0.197761597713D-05 0.148080896095D-07  7 1 -1 24 -11 11 -24 21 2 0.69508882D-01 0.47048370D-01 0.87637382D+05 0.87637382D+05 0.87637382D+05 0.11264556D+01  1  2  1  2  7  2       -1 0.581101753556D-03 0.100000000000D+01
  </mgrwgt>
  </event>
  <event>
  9     66 0.27727860E-05 0.61275838E+03 0.75467711E-02 0.89942134E-01
        1 -1    0    0  501    0 0.00000000E+00 0.00000000E+00 0.21810387E+04 0.21810387E+04 0.32000000E+00 0.0000E+00 0.9000E+01
       21 -1    0    0  502  501 0.00000000E+00 0.00000000E+00 -.32060021E+03 0.32060109E+03 0.75000000E+00 0.0000E+00 0.9000E+01
       25  2    1    2    0    0 -.15418330E+03 -.43233749E+03 0.56641343E+03 0.78846451E+03 0.30027306E+03 0.0000E+00 0.0000E+00
       23  2    1    2    0    0 0.39142233E+03 0.59395303E+03 0.51743558E+03 0.88523011E+03 0.99504385E+02 0.0000E+00 0.0000E+00
       24  1    3    3    0    0 0.31144389E+02 -.29692020E+02 0.53217918E+02 0.10559807E+03 0.80419002E+02 0.0000E+00 0.9000E+01
      -13  1    4    4    0    0 0.28433323E+03 0.35990256E+03 0.36425368E+03 0.58570983E+03 0.10565837E+00 0.0000E+00 0.9000E+01
       13  1    4    4    0    0 0.10708910E+03 0.23405046E+03 0.15318190E+03 0.29952028E+03 0.10565837E+00 0.0000E+00 0.9000E+01
      -24  1    3    3    0    0 -.18532768E+03 -.40264547E+03 0.51319551E+03 0.68286644E+03 0.80419002E+02 0.0000E+00 0.9000E+01
        1  1    1    2  502    0 -.23723904E+03 -.16161553E+03 0.77658950E+03 0.82794522E+03 0.32000000E+00 0.0000E+00 0.9000E+01
#aMCatNLO 2  0  0  2  1 0.28705738D+03 0.00000000D+00  -5  7  0 0.00000000D+00 0.00000000D+00 0.00000000D+00 0.00000000D+00 0.00000000D+00
  <mgrwgt>
 0.3247803933D-04    1    2    0
 0.621313737909892D+03 0.000000000000000D+00 0.000000000000000D+00 0.621313737909892D+03
 0.621313737909892D+03 0.000000000000000D+00 0.000000000000000D+00 -.621313737909892D+03
 0.937278126453894D+02 0.135179597188283D+02 -.416997606579133D+02 -.199017997937765D+02
 0.370089040471439D+03 0.206209711561217D+03 0.306682093821392D+03 -.197369213464927D+02
 0.218929101500489D+03 0.616927547134489D+02 0.203124877860347D+03 -.535185901710509D+02
 0.559881521202467D+03 -.281420425993494D+03 -.468107211023825D+03 0.931573113113201D+02
 0.000000000000000D+00 -.000000000000000D+00 -.000000000000000D+00 0.000000000000000D+00
 0.100872180098819D+04 0.000000000000000D+00 0.000000000000000D+00 0.100872180098819D+04
 0.693196569640834D+03 0.000000000000000D+00 0.000000000000000D+00 -.693196569640834D+03
 0.933535571035791D+02 0.311443893796387D+02 -.296920198817554D+02 -.199017997937765D+02
 0.459091498051825D+03 0.284333430978093D+03 0.359902705668431D+03 -.197369213464927D+02
 0.262891279222457D+03 0.107088900045043D+03 0.234050320838202D+03 -.535185901710509D+02
 0.460016551884700D+03 -.185327684794360D+03 -.402645472657431D+03 0.931573113113201D+02
 0.426565484366468D+03 -.237239035608415D+03 -.161615533967447D+03 0.315525231347361D+03
0.289498321537D-05 0.000000000000D+00 0.000000000000D+00 0.899688600836D-07 0.208245744990D-12  7 1 21 24 -13 13 -24 1 2 0.33554446D+00 0.49323175D-01 0.59660423D+06 0.59660423D+06 0.59660423D+06 0.10631304D+01  1  2  1  4  7  2       -1 0.324780393257D-04 0.100000000000D+01
  </mgrwgt>
  </event>
  <event>
  8     66 0.27727860E-05 0.10322706E+03 0.75467711E-02 0.10296824E+00
        1 -1    0    0  501    0 0.00000000E+00 0.00000000E+00 0.10165110E+04 0.10165110E+04 0.32000000E+00 0.0000E+00 0.9000E+01
       -1 -1    0    0    0  501 0.00000000E+00 0.00000000E+00 -.19031415E+03 0.19031442E+03 0.32000000E+00 0.0000E+00 0.9000E+01
       25  2    1    2    0    0 -.14242187E+03 -.19324311E+02 0.94292026E+03 0.99983122E+03 0.29984399E+03 0.0000E+00 0.0000E+00
       23  2    1    2    0    0 0.14242187E+03 0.19324311E+02 -.11672342E+03 0.20699425E+03 0.92546442E+02 0.0000E+00 0.0000E+00
       24  1    3    3    0    0 0.82603298E+01 0.94287407E+02 0.42467682E+03 0.44246578E+03 0.80419002E+02 0.0000E+00 0.9000E+01
      -13  1    4    4    0    0 0.11554713E+03 0.53520683E+02 -.90226067E+02 0.15606524E+03 0.10565837E+00 0.0000E+00 0.9000E+01
       13  1    4    4    0    0 0.26874735E+02 -.34196372E+02 -.26497349E+02 0.50929009E+02 0.10565837E+00 0.0000E+00 0.9000E+01
      -24  1    3    3    0    0 -.15068220E+03 -.11361172E+03 0.51824344E+03 0.55736544E+03 0.80419002E+02 0.0000E+00 0.9000E+01
#aMCatNLO 1  0  0  1  2 0.10761363D+02 0.00000000D+00  -5  7  0 0.00000000D+00 0.00000000D+00 0.00000000D+00 0.00000000D+00 0.00000000D+00
  <mgrwgt>
 0.1216400917D-02    9    2    0
 0.439837033167662D+03 0.000000000000000D+00 0.000000000000000D+00 0.439837033167662D+03
 0.439837033167662D+03 0.000000000000000D+00 0.000000000000000D+00 -.439837033167662D+03
 0.208159277036762D+03 0.826032978304555D+01 0.942874074168396D+02 0.167047060484712D+03
 0.298847308701571D+03 0.115547250206784D+03 0.535207968646310D+02 -.270359152223108D+03
 0.947557960316355D+02 0.268746194665653D+02 -.341964861752954D+02 -.841844168678447D+02
 0.277911684565357D+03 -.150682199456395D+03 -.113611718106175D+03 0.187496508606241D+03
 0.000000000000000D+00 0.000000000000000D+00 0.000000000000000D+00 0.000000000000000D+00
 0.454576063482682D+03 0.000000000000000D+00 0.000000000000000D+00 0.454576063482682D+03
 0.441838629860054D+03 0.000000000000000D+00 0.000000000000000D+00 -.441838629860054D+03
 0.207588762009591D+03 0.596329368551062D+01 0.931965496686516D+02 0.167047060484712D+03
 0.297311938413470D+03 0.112253429955356D+03 0.519565683589208D+02 -.270359152223108D+03
 0.946453659654606D+02 0.258281652078265D+02 -.346934451640961D+02 -.841844168678447D+02
 0.280193821255951D+03 -.153765770207673D+03 -.115076099553958D+03 0.187496508606241D+03
 0.166748056982632D+02 0.972088135898015D+01 0.461642669048181D+01 0.127374336226286D+02
0.214853728004D-04 0.000000000000D+00 0.000000000000D+00 0.338598053866D-05 0.000000000000D+00  7 1 -1 24 -13 13 -24 21 0 0.15638633D+00 0.29279124D-01 0.62541859D+05 0.62541859D+05 0.62541859D+05 0.11388425D+01  1  2  2  1  7  1        1 0.404805788642D-03 0.100000000000D+01
-.730987893435D-06 0.000000000000D+00 -.825094887820D-07 0.338598053866D-05 0.000000000000D+00  7 1 -1 24 -13 13 -24 21 2 0.15638633D+00 0.29279124D-01 0.62541859D+05 0.62541859D+05 0.62541859D+05 0.11388425D+01  1  2  3  1  7  1        1 -.178624642089D-04 0.100000000000D+01
0.131042764325D-05 0.000000000000D+00 0.000000000000D+00 0.338598053866D-05 0.000000000000D+00  7 1 -1 24 -13 13 -24 21 2 0.15638633D+00 0.29279124D-01 0.62541859D+05 0.62541859D+05 0.62541859D+05 0.11388425D+01  1  2 15  1  7  1        1 0.320216888488D-04 0.100000000000D+01
0.818114757741D-04 0.000000000000D+00 0.000000000000D+00 0.338598053866D-05 0.000000000000D+00  7 1 -1 24 -13 13 -24 21 2 0.16197569D+00 0.29279124D-01 0.64812052D+05 0.64812052D+05 0.64812052D+05 0.11375136D+01  1  2 12  1  7  1        1 0.187365079356D-02 0.100000000000D+01
-.833398773794D-04 0.000000000000D+00 0.000000000000D+00 0.338598053866D-05 0.000000000000D+00  7 1 -1 24 -13 13 -24 21 2 0.15638633D+00 0.29279124D-01 0.62541859D+05 0.62541859D+05 0.62541859D+05 0.11388425D+01  1  2  4  1  7  1        1 -.203649826520D-02 0.100000000000D+01
-.662641358054D-03 0.000000000000D+00 -.736354943021D-04 0.338598053866D-05 0.000000000000D+00  7 1 -1 24 -13 13 -24 21 2 0.16199413D+00 0.29279124D-01 0.62541859D+05 0.62541859D+05 0.62541859D+05 0.11388425D+01  1  2  5  1  7  1        1 -.152221388911D-01 0.100000000000D+01
0.664868601307D-03 0.000000000000D+00 0.735898196803D-04 0.338598053866D-05 0.000000000000D+00  7 1 -1 24 -13 13 -24 21 2 0.15638633D+00 0.29279124D-01 0.62541859D+05 0.62541859D+05 0.62541859D+05 0.11388425D+01  1  2  6  1  7  1        1 0.162467692025D-01 0.100000000000D+01
0.201884953713D-05 0.000000000000D+00 0.000000000000D+00 0.338598053866D-05 0.000000000000D+00  7 21 -1 24 -13 13 -24 -1 2 0.16197569D+00 0.29279124D-01 0.64812052D+05 0.64812052D+05 0.64812052D+05 0.11375136D+01  1  2 12  3  7  1        1 0.612269787855D-04 0.100000000000D+01
-.412212306301D-05 0.000000000000D+00 -.461710715061D-06 0.338598053866D-05 0.000000000000D+00  7 21 -1 24 -13 13 -24 -1 2 0.16199413D+00 0.29279124D-01 0.62541859D+05 0.62541859D+05 0.62541859D+05 0.11388425D+01  1  2  5  3  7  1        1 -.125573914564D-03 0.100000000000D+01
  </mgrwgt>
  </event>
  <event>
  8     66 0.27727860E-05 0.15311920E+03 0.75467711E-02 0.10290875E+00
        1 -1    0    0  501    0 0.00000000E+00 0.00000000E+00 0.40513189E+03 0.40513201E+03 0.32000000E+00 0.0000E+00 0.9000E+01
       -1 -1    0    0    0  501 0.00000000E+00 0.00000000E+00 -.36922595E+03 0.36922609E+03 0.32000000E+00 0.0000E+00 0.9000E+01
       25  2    1    2    0    0 -.31697304E+01 -.13797746E+03 -.27044168E+03 0.42725148E+03 0.30059491E+03 0.0000E+00 0.0000E+00
       23  2    1    2    0    0 0.31697304E+01 0.13797746E+03 0.30634761E+03 0.34710663E+03 0.87099518E+02 0.0000E+00 0.0000E+00
       24  1    3    3    0    0 -.68385751E+02 -.18754826E+03 -.16244489E+03 0.26964146E+03 0.80419002E+02 0.0000E+00 0.9000E+01
      -11  1    4    4    0    0 0.62111054E+01 -.11265170E+02 0.15125358E+02 0.19855940E+02 0.51099893E-03 0.0000E+00 0.9000E+01
       11  1    4    4    0    0 -.30413750E+01 0.14924263E+03 0.29122225E+03 0.32725069E+03 0.51099893E-03 0.0000E+00 0.9000E+01
      -24  1    3    3    0    0 0.65216021E+02 0.49570802E+02 -.10799679E+03 0.15761002E+03 0.80419002E+02 0.0000E+00 0.9000E+01
#aMCatNLO 1  0  0  1  2 0.17631623D+02 0.00000000D+00  -5  7  0 0.00000000D+00 0.00000000D+00 0.00000000D+00 0.00000000D+00 0.00000000D+00
  <mgrwgt>
 0.1261845455D-02    9    2    0
 0.386762601735083D+03 0.000000000000000D+00 0.000000000000000D+00 0.386762601735083D+03
 0.386762601735083D+03 0.000000000000000D+00 0.000000000000000D+00 -.386762601735083D+03
 0.277472260975398D+03 -.683857513675586D+02 -.187548261043716D+03 -.175136171152053D+03
 0.191752224122019D+02 0.621110538374128D+01 -.112651701083314D+02 0.142199601581660D+02
 0.314084939545572D+03 -.304137498573003D+01 0.149242629170123D+03 0.276345321881755D+03
 0.162792780536994D+03 0.652160209695474D+02 0.495708019819248D+02 -.115429110887868D+03
 0.000000000000000D+00 -.000000000000000D+00 -.000000000000000D+00 0.000000000000000D+00
 0.397556228660495D+03 0.000000000000000D+00 0.000000000000000D+00 0.397556228660495D+03
 0.394131117920306D+03 0.000000000000000D+00 0.000000000000000D+00 -.394131117920306D+03
 0.274321423889151D+03 -.626898495127694D+02 -.184884645042431D+03 -.175136171152053D+03
 0.191996758059950D+02 0.660723107334941D+01 -.110799269717290D+02 0.142199601581660D+02
 0.315544758286760D+03 0.345799074114294D+01 0.152281974824183D+03 0.276345321881755D+03
 0.164660265750635D+03 0.685961618897247D+02 0.511514818586355D+02 -.115429110887868D+03
 0.179612228482603D+02 -.159715341914477D+02 -.746888466865835D+01 0.342511074018973D+01
0.240884125223D-04 0.000000000000D+00 0.000000000000D+00 0.294600840950D-06 0.000000000000D+00  7 1 -1 24 -11 11 -24 21 0 0.62328003D-01 0.56804013D-01 0.60552400D+05 0.60552400D+05 0.60552400D+05 0.11400516D+01  1  2  2  1  7  1        1 0.561688587384D-03 0.100000000000D+01
-.100555668810D-05 0.000000000000D+00 -.925058467103D-07 0.294600840950D-06 0.000000000000D+00  7 1 -1 24 -11 11 -24 21 2 0.62328003D-01 0.56804013D-01 0.60552400D+05 0.60552400D+05 0.60552400D+05 0.11400516D+01  1  2  3  1  7  1        1 -.304749501111D-04 0.100000000000D+01
0.144943198186D-05 0.000000000000D+00 0.000000000000D+00 0.294600840950D-06 0.000000000000D+00  7 1 -1 24 -11 11 -24 21 2 0.62328003D-01 0.56804013D-01 0.60552400D+05 0.60552400D+05 0.60552400D+05 0.11400516D+01  1  2 15  1  7  1        1 0.439272771587D-04 0.100000000000D+01
0.461858907885D-04 0.000000000000D+00 0.000000000000D+00 0.294600840950D-06 0.000000000000D+00  7 1 -1 24 -11 11 -24 21 2 0.64647218D-01 0.56804013D-01 0.65387370D+05 0.65387370D+05 0.65387370D+05 0.11371849D+01  1  2 12  1  7  1        1 0.132452391093D-02 0.100000000000D+01
-.399998883881D-04 0.000000000000D+00 0.000000000000D+00 0.294600840950D-06 0.000000000000D+00  7 1 -1 24 -11 11 -24 21 2 0.62328003D-01 0.56804013D-01 0.60552400D+05 0.60552400D+05 0.60552400D+05 0.11400516D+01  1  2  4  1  7  1        1 -.121225846092D-02 0.100000000000D+01
-.437897823591D-03 0.000000000000D+00 -.743238543158D-04 0.294600840950D-06 0.000000000000D+00  7 1 -1 24 -11 11 -24 21 2 0.65111747D-01 0.56804013D-01 0.60552400D+05 0.60552400D+05 0.60552400D+05 0.11400516D+01  1  2  5  1  7  1        1 -.125197815981D-01 0.100000000000D+01
0.440795389040D-03 0.000000000000D+00 0.742529618948D-04 0.294600840950D-06 0.000000000000D+00  7 1 -1 24 -11 11 -24 21 2 0.62328003D-01 0.56804013D-01 0.60552400D+05 0.60552400D+05 0.60552400D+05 0.11400516D+01  1  2  6  1  7  1        1 0.133589857730D-01 0.100000000000D+01
0.735447791358D-06 0.000000000000D+00 0.000000000000D+00 0.294600840950D-06 0.000000000000D+00  7 21 -1 24 -11 11 -24 -1 2 0.64647218D-01 0.56804013D-01 0.65387370D+05 0.65387370D+05 0.65387370D+05 0.11371849D+01  1  2 12  3  7  1        1 0.762124271084D-04 0.100000000000D+01
-.331336097938D-05 0.000000000000D+00 -.570918761221D-06 0.294600840950D-06 0.000000000000D+00  7 21 -1 24 -11 11 -24 -1 2 0.65111747D-01 0.56804013D-01 0.60552400D+05 0.60552400D+05 0.60552400D+05 0.11400516D+01  1  2  5  3  7  1        1 -.340977511952D-03 0.100000000000D+01
  </mgrwgt>
  </event>
  <event>
  8     66 0.27727860E-05 0.20214692E+03 0.75467711E-02 0.10184568E+00
        1 -1    0    0  501    0 0.00000000E+00 0.00000000E+00 0.10246485E+04 0.10246485E+04 0.32000000E+00 0.0000E+00 0.9000E+01
       -1 -1    0    0    0  501 0.00000000E+00 0.00000000E+00 -.90106242E+02 0.90106810E+02 0.32000000E+00 0.0000E+00 0.9000E+01
       25  2    1    2    0    0 -.20736134E+03 -.37660200E+02 0.46811716E+03 0.59465771E+03 0.30011181E+03 0.0000E+00 0.0000E+00
       23  2    1    2    0    0 0.20736134E+03 0.37660200E+02 0.46642505E+03 0.52009760E+03 0.92369760E+02 0.0000E+00 0.0000E+00
       24  1    3    3    0    0 0.14775269E+02 -.19195466E+02 0.17882280E+02 0.85870637E+02 0.80419002E+02 0.0000E+00 0.9000E+01
      -13  1    4    4    0    0 0.69542781E+02 -.29671350E+02 0.13073395E+03 0.15102305E+03 0.10565837E+00 0.0000E+00 0.9000E+01
       13  1    4    4    0    0 0.13781856E+03 0.67331550E+02 0.33569110E+03 0.36907455E+03 0.10565837E+00 0.0000E+00 0.9000E+01
      -24  1    3    3    0    0 -.22213661E+03 -.18464734E+02 0.45023488E+03 0.50878707E+03 0.80419002E+02 0.0000E+00 0.9000E+01
#aMCatNLO 1  0  0  1  2 0.40562604D+01 0.00000000D+00  -5  7  0 0.00000000D+00 0.00000000D+00 0.00000000D+00 0.00000000D+00 0.00000000D+00
  <mgrwgt>
 0.3933430408D-03   11    2    0
 0.303854514288397D+03 0.000000000000000D+00 0.000000000000000D+00 0.303854514288397D+03
 0.303854514288397D+03 0.000000000000000D+00 0.000000000000000D+00 -.303854514288397D+03
 0.130017821239436D+03 0.147752679612789D+02 -.191954661001653D+02 -.992504076734655D+02
 0.759858621995232D+02 0.695426914483548D+02 -.296714761925428D+02 0.756761659171534D+01
 0.160784799826431D+03 0.137818652325111D+03 0.673316760119115D+02 0.482101268608871D+02
 0.240920545311404D+03 -.222136611734745D+03 -.184647337192034D+02 0.434726642208630D+02
 0.000000000000000D+00 0.000000000000000D+00 -.000000000000000D+00 0.000000000000000D+00
 0.317001313493471D+03 0.000000000000000D+00 0.000000000000000D+00 0.317001313493471D+03
 0.304174319495224D+03 0.000000000000000D+00 0.000000000000000D+00 -.304174319495224D+03
 0.129865295573618D+03 0.140773183952958D+02 -.186805975145630D+02 -.992504076734655D+02
 0.754964500918624D+02 0.691358661977791D+02 -.293713663399688D+02 0.756761659171534D+01
 0.160314905527911D+03 0.136956297729947D+03 0.679678241124903D+02 0.482101268608871D+02
 0.242045914343372D+03 -.223433680336330D+03 -.175079025828633D+02 0.434726642208630D+02
 0.134530674519315D+02 0.326419801330871D+01 -.240795767509529D+01 0.128269939982476D+02
0.273084918619D-05 0.000000000000D+00 0.000000000000D+00 0.484197670696D-06 0.000000000000D+00  7 1 -1 24 -13 13 -24 21 0 0.15763827D+00 0.13862546D-01 0.75610948D+05 0.75610948D+05 0.75610948D+05 0.11318239D+01  1  2  2  1  7  1        1 0.167322768436D-03 0.100000000000D+01
-.149873986881D-06 0.000000000000D+00 -.104871799241D-07 0.484197670696D-06 0.000000000000D+00  7 1 -1 24 -13 13 -24 21 2 0.15763827D+00 0.13862546D-01 0.75610948D+05 0.75610948D+05 0.75610948D+05 0.11318239D+01  1  2  3  1  7  1        1 -.117636280271D-04 0.100000000000D+01
0.170081686846D-06 0.000000000000D+00 0.000000000000D+00 0.484197670696D-06 0.000000000000D+00  7 1 -1 24 -13 13 -24 21 2 0.15763827D+00 0.13862546D-01 0.75610948D+05 0.75610948D+05 0.75610948D+05 0.11318239D+01  1  2 15  1  7  1        1 0.133497329317D-04 0.100000000000D+01
0.646545091027D-05 0.000000000000D+00 0.000000000000D+00 0.484197670696D-06 0.000000000000D+00  7 1 -1 24 -13 13 -24 21 2 0.16453977D+00 0.13862546D-01 0.76709170D+05 0.76709170D+05 0.76709170D+05 0.11312960D+01  1  2 12  1  7  1        1 0.469877600897D-03 0.100000000000D+01
-.150618107091D-03 0.000000000000D+00 0.000000000000D+00 0.484197670696D-06 0.000000000000D+00  7 1 -1 24 -13 13 -24 21 2 0.15763827D+00 0.13862546D-01 0.75610948D+05 0.75610948D+05 0.75610948D+05 0.11318239D+01  1  2  4  1  7  1        1 -.118220341156D-01 0.100000000000D+01
-.194944093230D-03 0.000000000000D+00 -.772312838956D-05 0.484197670696D-06 0.000000000000D+00  7 1 -1 24 -13 13 -24 21 2 0.16453236D+00 0.13862546D-01 0.75610948D+05 0.75610948D+05 0.75610948D+05 0.11318239D+01  1  2  5  1  7  1        1 -.141843531132D-01 0.100000000000D+01
0.195102984209D-03 0.000000000000D+00 0.771605860742D-05 0.484197670696D-06 0.000000000000D+00  7 1 -1 24 -13 13 -24 21 2 0.15763827D+00 0.13862546D-01 0.75610948D+05 0.75610948D+05 0.75610948D+05 0.11318239D+01  1  2  6  1  7  1        1 0.153136576998D-01 0.100000000000D+01
0.144242073037D-03 0.000000000000D+00 0.000000000000D+00 0.484197670696D-06 0.201070673267D-06  7 1 -1 24 -13 13 -24 21 2 0.16445877D+00 0.13877137D-01 0.76709170D+05 0.76709170D+05 0.76709170D+05 0.11312960D+01  1  2 11  1  7  1        1 0.104748854351D-01 0.100000000000D+01
0.138168263382D-06 0.000000000000D+00 0.000000000000D+00 0.484197670696D-06 0.000000000000D+00  7 21 -1 24 -13 13 -24 -1 2 0.16453977D+00 0.13862546D-01 0.76709170D+05 0.76709170D+05 0.76709170D+05 0.11312960D+01  1  2 12  3  7  1        1 0.129412065342D-04 0.100000000000D+01
-.151069886219D-05 0.000000000000D+00 -.581918824013D-07 0.484197670696D-06 0.000000000000D+00  7 21 -1 24 -13 13 -24 -1 2 0.16453236D+00 0.13862546D-01 0.75610948D+05 0.75610948D+05 0.75610948D+05 0.11318239D+01  1  2  5  3  7  1        1 -.141757595388D-03 0.100000000000D+01
0.108080021150D-05 0.000000000000D+00 0.000000000000D+00 0.484197670696D-06 0.150074368233D-08  7 21 -1 24 -13 13 -24 -1 2 0.16445877D+00 0.13877137D-01 0.76709170D+05 0.76709170D+05 0.76709170D+05 0.11312960D+01  1  2 11  3  7  1        1 0.101217049374D-03 0.100000000000D+01
  </mgrwgt>
  </event>
  <event>
  8     66 0.27727860E-05 0.20428972E+03 0.75467711E-02 0.10021617E+00
        1 -1    0    0  501    0 0.00000000E+00 0.00000000E+00 0.10192406E+04 0.10192406E+04 0.32000000E+00 0.0000E+00 0.9000E+01
       -1 -1    0    0    0  501 0.00000000E+00 0.00000000E+00 -.96761934E+02 0.96762464E+02 0.32000000E+00 0.0000E+00 0.9000E+01
       25  2    1    2    0    0 0.76757743E+02 0.21771540E+03 0.60804610E+03 0.71623658E+03 0.29997171E+03 0.0000E+00 0.0000E+00
       23  2    1    2    0    0 -.76757743E+02 -.21771540E+03 0.31443256E+03 0.39976653E+03 0.87485409E+02 0.0000E+00 0.0000E+00
       24  1    3    3    0    0 -.72718206E+02 0.92506293E+01 0.19784968E+03 0.22579907E+03 0.80419002E+02 0.0000E+00 0.9000E+01
      -11  1    4    4    0    0 -.53279349E+02 -.12151890E+03 0.24567173E+03 0.27921341E+03 0.51099893E-03 0.0000E+00 0.9000E+01
       11  1    4    4    0    0 -.23478394E+02 -.96196504E+02 0.68760831E+02 0.12055312E+03 0.51099893E-03 0.0000E+00 0.9000E+01
      -24  1    3    3    0    0 0.14947595E+03 0.20846477E+03 0.41019643E+03 0.49043751E+03 0.80419002E+02 0.0000E+00 0.9000E+01
#aMCatNLO 1  0  0  1  2 0.19014755D+02 0.00000000D+00  -5  7  0 0.00000000D+00 0.00000000D+00 0.00000000D+00 0.00000000D+00 0.00000000D+00
  <mgrwgt>
 0.9269338750D-03    9    2    0
 0.314044606784697D+03 0.000000000000000D+00 0.000000000000000D+00 0.314044606784697D+03
 0.314044606784697D+03 0.000000000000000D+00 0.000000000000000D+00 -.314044606784697D+03
 0.110621808398200D+03 -.727182059335045D+02 0.925062930406907D+01 0.199112260347935D+02
 0.135293058166198D+03 -.532793493187016D+02 -.121518900147302D+03 0.264325449234046D+02
 0.113212030351986D+03 -.234783938857080D+02 -.961965040584424D+02 -.548813396693316D+02
 0.268962316653011D+03 0.149475949137914D+03 0.208464774901676D+03 0.853756871113350D+01
 0.000000000000000D+00 -.000000000000000D+00 -.000000000000000D+00 0.000000000000000D+00
 0.410853635617916D+03 0.000000000000000D+00 0.000000000000000D+00 0.410853635617916D+03
 0.315123572886649D+03 0.000000000000000D+00 0.000000000000000D+00 -.315123572886649D+03
 0.110776689553264D+03 -.724519126709801D+02 0.125905687765805D+02 0.199112260347935D+02
 0.131559624870418D+03 -.529583847582520D+02 -.117493254907311D+03 0.264325449234046D+02
 0.110304369336677D+03 -.232095532573771D+02 -.928246146690326D+02 -.548813396693316D+02
 0.275736289973542D+03 0.150131100687690D+03 0.216681905522376D+03 0.853756871113350D+01
 0.976002347706632D+02 -.151125000108115D+01 -.189546047226129D+02 0.957300627312670D+02
0.125274577914D-04 0.000000000000D+00 0.000000000000D+00 0.208782443011D-06 0.000000000000D+00  7 1 -1 24 -11 11 -24 21 0 0.15680629D+00 0.14886496D-01 0.92826228D+05 0.92826228D+05 0.92826228D+05 0.11243847D+01  1  2  2  1  7  1        1 0.691464584918D-03 0.100000000000D+01
-.695193361529D-06 0.000000000000D+00 -.481087364742D-07 0.208782443011D-06 0.000000000000D+00  7 1 -1 24 -11 11 -24 21 2 0.15680629D+00 0.14886496D-01 0.92826228D+05 0.92826228D+05 0.92826228D+05 0.11243847D+01  1  2  3  1  7  1        1 -.485112524471D-04 0.100000000000D+01
0.819199757349D-06 0.000000000000D+00 0.000000000000D+00 0.208782443011D-06 0.000000000000D+00  7 1 -1 24 -11 11 -24 21 2 0.15680629D+00 0.14886496D-01 0.92826228D+05 0.92826228D+05 0.92826228D+05 0.11243847D+01  1  2 15  1  7  1        1 0.571645364190D-04 0.100000000000D+01
0.262410790387D-03 0.000000000000D+00 0.000000000000D+00 0.208782443011D-06 0.000000000000D+00  7 1 -1 24 -11 11 -24 21 2 0.20535523D+00 0.14886496D-01 0.98643276D+05 0.98643276D+05 0.98643276D+05 0.11222092D+01  1  2 12  1  7  1        1 0.109085942690D-01 0.100000000000D+01
-.254763744101D-03 0.000000000000D+00 0.000000000000D+00 0.208782443011D-06 0.000000000000D+00  7 1 -1 24 -11 11 -24 21 2 0.15680629D+00 0.14886496D-01 0.92826228D+05 0.92826228D+05 0.92826228D+05 0.11243847D+01  1  2  4  1  7  1        1 -.177776558126D-01 0.100000000000D+01
-.273048425845D-03 0.000000000000D+00 -.650602002617D-05 0.208782443011D-06 0.000000000000D+00  7 1 -1 24 -11 11 -24 21 2 0.20539287D+00 0.14886496D-01 0.92826228D+05 0.92826228D+05 0.92826228D+05 0.11243847D+01  1  2  5  1  7  1        1 -.114045992691D-01 0.100000000000D+01
0.265311286416D-03 0.000000000000D+00 0.627601478429D-05 0.208782443011D-06 0.000000000000D+00  7 1 -1 24 -11 11 -24 21 2 0.15680629D+00 0.14886496D-01 0.92826228D+05 0.92826228D+05 0.92826228D+05 0.11243847D+01  1  2  6  1  7  1        1 0.185136733240D-01 0.100000000000D+01
0.938985413657D-05 0.000000000000D+00 0.000000000000D+00 0.208782443011D-06 0.000000000000D+00  7 21 -1 24 -11 11 -24 -1 2 0.20535523D+00 0.14886496D-01 0.98643276D+05 0.98643276D+05 0.98643276D+05 0.11222092D+01  1  2 12  3  7  1        1 0.372762398141D-03 0.100000000000D+01
-.965188324419D-05 0.000000000000D+00 -.232920582809D-06 0.208782443011D-06 0.000000000000D+00  7 21 -1 24 -11 11 -24 -1 2 0.20539287D+00 0.14886496D-01 0.92826228D+05 0.92826228D+05 0.92826228D+05 0.11243847D+01  1  2  5  3  7  1        1 -.385958903398D-03 0.100000000000D+01
  </mgrwgt>
  </event>
  <event>
  8     66 0.27727860E-05 0.18000960E+03 0.75467711E-02 0.10560103E+00
        1 -1    0    0  501    0 0.00000000E+00 0.00000000E+00 0.42496316E+03 0.42496328E+03 0.32000000E+00 0.0000E+00 0.9000E+01
       -1 -1    0    0    0  501 0.00000000E+00 0.00000000E+00 -.10090397E+03 0.10090448E+03 0.32000000E+00 0.0000E+00 0.9000E+01
       25  2    1    2    0    0 -.27589780E+02 -.57548234E+02 0.24469746E+03 0.39091280E+03 0.29809893E+03 0.0000E+00 0.0000E+00
       23  2    1    2    0    0 0.27589780E+02 0.57548234E+02 0.79361728E+02 0.13495496E+03 0.88552600E+02 0.0000E+00 0.0000E+00
       24  1    3    3    0    0 0.86305522E+02 -.20652470E+02 0.21128975E+03 0.24286980E+03 0.80419002E+02 0.0000E+00 0.9000E+01
      -11  1    4    4    0    0 0.50247264E+02 0.52795649E+02 0.84138307E+02 0.11131677E+03 0.51099893E-03 0.0000E+00 0.9000E+01
       11  1    4    4    0    0 -.22657483E+02 0.47525853E+01 -.47765783E+01 0.23638196E+02 0.51099893E-03 0.0000E+00 0.9000E+01
      -24  1    3    3    0    0 -.11389530E+03 -.36895764E+02 0.33407714E+02 0.14804300E+03 0.80419002E+02 0.0000E+00 0.9000E+01
#aMCatNLO 1  0  0  2  2 0.56667176D+02 0.00000000D+00  -5  7  0 0.00000000D+00 0.00000000D+00 0.00000000D+00 0.00000000D+00 0.00000000D+00
  <mgrwgt>
 0.1866224744D-02    3    2    0
 0.207076401472194D+03 0.000000000000000D+00 0.000000000000000D+00 0.207076401472194D+03
 0.207076401472194D+03 0.000000000000000D+00 0.000000000000000D+00 -.207076401472194D+03
 0.143055931388593D+03 0.863055212880811D+02 -.206524704336167D+02 0.782471469848476D+02
 0.755086230387163D+02 0.502472638195914D+02 0.527956491117164D+02 0.197328169990971D+02
 0.337519371405182D+02 -.226574832024697D+02 0.475258549266966D+01 -.245610392044424D+02
 0.161836311376561D+03 -.113895301905203D+03 -.368957641707694D+02 -.734189247795023D+02
 0.000000000000000D+00 -.000000000000000D+00 0.000000000000000D+00 0.000000000000000D+00
 0.418120339031867D+03 0.000000000000000D+00 0.000000000000000D+00 0.418120339031867D+03
 0.212844816369857D+03 0.000000000000000D+00 0.000000000000000D+00 -.212844816369857D+03
 0.153724022453996D+03 0.984087344973217D+02 -.368369934771223D+02 0.782471469848476D+02
 0.745444877268700D+02 0.563666959739240D+02 0.446126906689658D+02 0.197328169990971D+02
 0.316890149070963D+02 -.199886850407581D+02 0.118384514248643D+01 -.245610392044424D+02
 0.158054093143002D+03 -.100849603503538D+03 -.543405866943594D+02 -.734189247795023D+02
 0.212953537170760D+03 -.339371419269499D+02 0.453810443600295D+02 0.205275522662010D+03
0.973064280595D-05 0.000000000000D+00 0.000000000000D+00 0.502069596582D-08 0.000000000000D+00  7 1 -1 24 -11 11 -24 21 0 0.65378996D-01 0.15523736D-01 0.32403455D+05 0.32403455D+05 0.32403455D+05 0.11642432D+01  1  2  2  2  7  2       -1 0.184458551690D-02 0.100000000000D+01
-.527694280417D-06 0.000000000000D+00 -.373682305119D-07 0.502069596582D-08 0.000000000000D+00  7 1 -1 24 -11 11 -24 21 2 0.65378996D-01 0.15523736D-01 0.32403455D+05 0.32403455D+05 0.32403455D+05 0.11642432D+01  1  2  3  2  7  2       -1 -.135589814137D-03 0.100000000000D+01
0.611910755640D-06 0.000000000000D+00 0.000000000000D+00 0.502069596582D-08 0.000000000000D+00  7 1 -1 24 -11 11 -24 21 2 0.65378996D-01 0.15523736D-01 0.32403455D+05 0.32403455D+05 0.32403455D+05 0.11642432D+01  1  2 15  2  7  2       -1 0.157229040951D-03 0.100000000000D+01
  </mgrwgt>
  </event>
  <event>
  9     66 0.27727860E-05 0.17076882E+03 0.75467711E-02 0.10757072E+00
        1 -1    0    0  502    0 0.00000000E+00 0.00000000E+00 0.43104907E+03 0.43104918E+03 0.32000000E+00 0.0000E+00 0.9000E+01
       -1 -1    0    0    0  501 0.00000000E+00 0.00000000E+00 -.13058735E+03 0.13058774E+03 0.32000000E+00 0.0000E+00 0.9000E+01
       25  2    1    2    0    0 0.55428305E+02 -.17832356E+02 0.11299354E+03 0.32681471E+03 0.30108142E+03 0.0000E+00 0.0000E+00
       23  2    1    2    0    0 -.47545974E+02 -.86200041E+01 0.17801896E+03 0.20563816E+03 0.90892128E+02 0.0000E+00 0.0000E+00
       24  1    3    3    0    0 0.12318152E+03 0.29046651E+02 0.14366876E+03 0.20766638E+03 0.80419002E+02 0.0000E+00 0.9000E+01
      -13  1    4    4    0    0 -.75771235E+01 0.22606395E+02 0.14060216E+03 0.14260940E+03 0.10565837E+00 0.0000E+00 0.9000E+01
       13  1    4    4    0    0 -.39968851E+02 -.31226399E+02 0.37416804E+02 0.63028767E+02 0.10565837E+00 0.0000E+00 0.9000E+01
      -24  1    3    3    0    0 -.67753219E+02 -.46879007E+02 -.30675221E+02 0.11914833E+03 0.80419002E+02 0.0000E+00 0.9000E+01
       21  1    1    2  502  501 -.78823311E+01 0.26452361E+02 0.94492201E+01 0.29184050E+02 0.75000000E+00 0.0000E+00 0.9000E+01
#aMCatNLO 2  0  0  1  2 0.27601785D+02 0.00000000D+00  -5  7  0 0.00000000D+00 0.00000000D+00 0.00000000D+00 0.00000000D+00 0.00000000D+00
  <mgrwgt>
 0.2842250133D-03    1    2    0
 0.222517373926629D+03 0.000000000000000D+00 0.000000000000000D+00 0.222517373926629D+03
 0.222517373926629D+03 0.000000000000000D+00 0.000000000000000D+00 -.222517373926629D+03
 0.154056622932799D+03 0.120454137464636D+03 0.381995311959676D+02 0.360253202504421D+02
 0.801589845326155D+02 -.898108226554325D+01 0.273180784220889D+02 0.748232955299634D+02
 0.497940960301458D+02 -.408592762200593D+02 -.282384042513920D+02 0.354458341236980D+01
 0.161025044357697D+03 -.706137789790336D+02 -.372792053666644D+02 -.114393199192775D+03
 0.000000000000000D+00 -.000000000000000D+00 0.000000000000000D+00 -.000000000000000D+00
 0.233399663321976D+03 0.000000000000000D+00 0.000000000000000D+00 0.233399663321976D+03
 0.241162986365831D+03 0.000000000000000D+00 0.000000000000000D+00 -.241162986365831D+03
 0.154215555310971D+03 0.123181532461300D+03 0.290466505270274D+02 0.360253202504421D+02
 0.785301836762053D+02 -.757710203656763D+01 0.226064530384963D+02 0.748232955299634D+02
 0.508445458096322D+02 -.399688899069363D+02 -.312264568375560D+02 0.354458341236980D+01
 0.162299595463731D+03 -.677532094330857D+02 -.468790072770187D+02 -.114393199192775D+03
 0.286727694272674D+02 -.788233108471037D+01 0.264523605490509D+02 -.776332304385577D+01
0.169258365748D-05 0.000000000000D+00 0.000000000000D+00 0.123274100192D-06 0.116868664015D-08  7 1 -1 24 -13 13 -24 21 2 0.66313904D-01 0.20089983D-01 0.33717354D+05 0.33717354D+05 0.33717354D+05 0.11626580D+01  1  2  1  1  7  1        1 0.284225013299D-03 0.100000000000D+01
  </mgrwgt>
  </event>
  <event>
  8     66 0.27727860E-05 0.18472670E+03 0.75467711E-02 0.94622381E-01
        3 -1    0    0  501    0 0.00000000E+00 0.00000000E+00 0.96587691E+02 0.96588985E+02 0.50000000E+00 0.0000E+00 0.9000E+01
       -3 -1    0    0    0  501 0.00000000E+00 0.00000000E+00 -.88697255E+03 0.88697269E+03 0.50000000E+00 0.0000E+00 0.9000E+01
       25  2    1    2    0    0 -.90868492E+02 0.47020989E+01 -.79564925E+03 0.85519435E+03 0.30003408E+03 0.0000E+00 0.0000E+00
       23  2    1    2    0    0 0.90868492E+02 -.47020989E+01 0.52643941E+01 0.12836733E+03 0.90395045E+02 0.0000E+00 0.0000E+00
       24  1    3    3    0    0 -.14515203E+03 -.34017501E+02 -.67345679E+03 0.69443327E+03 0.80419002E+02 0.0000E+00 0.9000E+01
      -11  1    4    4    0    0 0.92782087E+02 -.26928283E+01 -.26462298E+02 0.96519532E+02 0.51099893E-03 0.0000E+00 0.9000E+01
       11  1    4    4    0    0 -.19135944E+01 -.20092706E+01 0.31726692E+02 0.31847794E+02 0.51099893E-03 0.0000E+00 0.9000E+01
      -24  1    3    3    0    0 0.54283542E+02 0.38719600E+02 -.12219246E+03 0.16076108E+03 0.80419002E+02 0.0000E+00 0.9000E+01
#aMCatNLO 1  0  0  2  2 0.42417380D+03 0.00000000D+00  -5  7  0 0.00000000D+00 0.00000000D+00 0.00000000D+00 0.00000000D+00 0.00000000D+00
  <mgrwgt>
 0.1745696833D-03    3    2    0
 0.292696662467912D+03 0.000000000000000D+00 0.000000000000000D+00 0.292696662467912D+03
 0.292696662467912D+03 0.000000000000000D+00 0.000000000000000D+00 -.292696662467912D+03
 0.257481415174483D+03 -.145152033991903D+03 -.340175014347807D+02 -.193915341915054D+03
 0.126440651550632D+03 0.927820867251976D+02 -.269282831664127D+01 0.858572735598056D+02
 0.963464464398857D+02 -.191359439227805D+01 -.200927057764934D+01 0.963064833219519D+02
 0.105124811770823D+03 0.542835416589832D+02 0.387196003290713D+02 0.117515850332966D+02
 0.000000000000000D+00 0.000000000000000D+00 0.000000000000000D+00 0.000000000000000D+00
 0.607537350598748D+03 0.000000000000000D+00 0.000000000000000D+00 0.607537350598748D+03
 0.544248764062440D+03 0.000000000000000D+00 0.000000000000000D+00 -.544248764062440D+03
 0.422340079925752D+03 -.339508408816482D+03 -.137966690437179D+03 -.193915341915054D+03
 0.977818412896301D+02 0.286783901274047D+02 -.369779258824437D+02 0.858572735598056D+02
 0.120889961873683D+03 -.640200165987602D+02 -.352261497565869D+02 0.963064833219519D+02
 0.819049555593315D+02 0.812994133542482D+00 0.101215157239204D+02 0.117515850332966D+02
 0.428869276012792D+03 0.374037041154295D+03 0.200049250352289D+03 0.632885865363084D+02
0.317707329712D-04 0.000000000000D+00 0.000000000000D+00 0.136911119147D-05 0.000000000000D+00  7 3 -3 24 -11 11 -24 21 0 0.14859755D-01 0.13645743D+00 0.34123952D+05 0.34123952D+05 0.34123952D+05 0.11621812D+01  1  2  2  2  7  2       -3 0.170479850707D-03 0.100000000000D+01
-.131042805511D-05 0.000000000000D+00 -.122007980036D-06 0.136911119147D-05 0.000000000000D+00  7 3 -3 24 -11 11 -24 21 2 0.14859755D-01 0.13645743D+00 0.34123952D+05 0.34123952D+05 0.34123952D+05 0.11621812D+01  1  2  3  2  7  2       -3 -.949744303393D-05 0.100000000000D+01
0.187473061358D-05 0.000000000000D+00 0.000000000000D+00 0.136911119147D-05 0.000000000000D+00  7 3 -3 24 -11 11 -24 21 2 0.14859755D-01 0.13645743D+00 0.34123952D+05 0.34123952D+05 0.34123952D+05 0.11621812D+01  1  2 15  2  7  2       -3 0.135872756517D-04 0.100000000000D+01
  </mgrwgt>
  </event>
  <event>
  8     66 0.27727860E-05 0.42766382E+03 0.75467711E-02 0.90480032E-01
        1 -1    0    0  501    0 0.00000000E+00 0.00000000E+00 0.30309921E+04 0.30309922E+04 0.32000000E+00 0.0000E+00 0.9000E+01
       -1 -1    0    0    0  501 0.00000000E+00 0.00000000E+00 -.28855201E+03 0.28855219E+03 0.32000000E+00 0.0000E+00 0.9000E+01
       25  2    1    2    0    0 0.33568819E+03 -.16584859E+03 0.28727587E+04 0.29125945E+04 0.30045242E+03 0.0000E+00 0.0000E+00
       23  2    1    2    0    0 -.33568819E+03 0.16584859E+03 -.13031856E+03 0.40694990E+03 0.91831222E+02 0.0000E+00 0.0000E+00
       24  1    3    3    0    0 -.26723969E+01 0.18437331E+02 0.65485871E+03 0.66004108E+03 0.80419002E+02 0.0000E+00 0.9000E+01
      -13  1    4    4    0    0 -.64645015E+02 0.60024976E+02 -.20953167E+00 0.88215819E+02 0.10565837E+00 0.0000E+00 0.9000E+01
       13  1    4    4    0    0 -.27104318E+03 0.10582362E+03 -.13010903E+03 0.31873408E+03 0.10565837E+00 0.0000E+00 0.9000E+01
      -24  1    3    3    0    0 0.33836059E+03 -.18428592E+03 0.22179000E+04 0.22525534E+04 0.80419002E+02 0.0000E+00 0.9000E+01
#aMCatNLO 1  0  0  1  2 0.57123030D+03 0.00000000D+00  -5  7  0 0.00000000D+00 0.00000000D+00 0.00000000D+00 0.00000000D+00 0.00000000D+00
  <mgrwgt>
 0.7228788385D-03    3    2    0
 0.935200089949507D+03 0.000000000000000D+00 0.000000000000000D+00 0.935200089949507D+03
 0.935200089949507D+03 0.000000000000000D+00 0.000000000000000D+00 -.935200089949507D+03
 0.211251488943804D+03 -.267239690342558D+01 0.184373307910280D+02 0.194455390140506D+03
 0.156869889148538D+03 -.646447416568091D+02 0.600249157141280D+02 -.129715955036807D+03
 0.756452881619300D+03 -.271043450911771D+03 0.105823677409827D+03 -.698253363133642D+03
 0.745825920187372D+03 0.338360589472006D+03 -.184285923914982D+03 0.633513928029943D+03
 0.000000000000000D+00 -.000000000000000D+00 0.000000000000000D+00 -.000000000000000D+00
 0.104286359582436D+04 0.000000000000000D+00 0.000000000000000D+00 0.104286359582436D+04
 0.223244329454748D+04 0.000000000000000D+00 0.000000000000000D+00 -.223244329454748D+04
 0.216311056979358D+03 0.422780882206395D+02 -.268872073460245D+02 0.194455390140506D+03
 0.137104063887811D+03 -.337386860894495D+02 0.288616770891747D+02 -.129715955036807D+03
 0.709707123074868D+03 -.116903187437084D+03 -.495992558695633D+02 -.698253363133642D+03
 0.892562006155044D+03 0.510607510566300D+03 -.357966188378882D+03 0.633513928029943D+03
 0.131962264027475D+04 -.402243725260406D+03 0.405590974505295D+03 -.118957969872312D+04
0.186304638182D-02 0.000000000000D+00 0.000000000000D+00 0.161054495974D-04 0.000000000000D+00  7 1 -1 24 -13 13 -24 21 0 0.46630650D+00 0.44392632D-01 0.18289634D+06 0.18289634D+06 0.18289634D+06 0.11008197D+01  1  2  2  1  7  1        1 0.687515407057D-03 0.100000000000D+01
-.264626274786D-04 0.000000000000D+00 -.715458865757D-05 0.161054495974D-04 0.000000000000D+00  7 1 -1 24 -13 13 -24 21 2 0.46630650D+00 0.44392632D-01 0.18289634D+06 0.18289634D+06 0.18289634D+06 0.11008197D+01  1  2  3  1  7  1        1 -.118337981204D-04 0.100000000000D+01
0.105541998603D-03 0.000000000000D+00 0.000000000000D+00 0.161054495974D-04 0.000000000000D+00  7 1 -1 24 -13 13 -24 21 2 0.46630650D+00 0.44392632D-01 0.18289634D+06 0.18289634D+06 0.18289634D+06 0.11008197D+01  1  2 15  1  7  1        1 0.471972295915D-04 0.100000000000D+01
  </mgrwgt>
  </event>
  <event>
  8     66 0.27727860E-05 0.16238403E+03 0.75467711E-02 0.97394706E-01
        1 -1    0    0  501    0 0.00000000E+00 0.00000000E+00 0.46739373E+03 0.46739383E+03 0.32000000E+00 0.0000E+00 0.9000E+01
       -1 -1    0    0    0  501 0.00000000E+00 0.00000000E+00 -.37127756E+03 0.37127769E+03 0.32000000E+00 0.0000E+00 0.9000E+01
       25  2    1    2    0    0 -.26149016E+03 0.12227125E+03 -.15670987E+03 0.44377242E+03 0.29841015E+03 0.0000E+00 0.0000E+00
       23  2    1    2    0    0 0.26149016E+03 -.12227125E+03 0.25282604E+03 0.39489911E+03 0.93257351E+02 0.0000E+00 0.0000E+00
       24  1    3    3    0    0 -.38052107E+01 0.47288443E+02 -.13314459E+03 0.16262034E+03 0.80419002E+02 0.0000E+00 0.9000E+01
      -13  1    4    4    0    0 0.95903083E+02 -.87739681E+01 0.46205798E+02 0.10681466E+03 0.10565837E+00 0.0000E+00 0.9000E+01
       13  1    4    4    0    0 0.16558708E+03 -.11349729E+03 0.20662024E+03 0.28808445E+03 0.10565837E+00 0.0000E+00 0.9000E+01
      -24  1    3    3    0    0 -.25768495E+03 0.74982812E+02 -.23565278E+02 0.28115208E+03 0.80419002E+02 0.0000E+00 0.9000E+01
#aMCatNLO 1  0  0  2  1 0.11130170D+03 0.00000000D+00  -5  7  0 0.00000000D+00 0.00000000D+00 0.00000000D+00 0.00000000D+00 0.00000000D+00
  <mgrwgt>
 0.6258272912D-03    9    2    0
 0.416572807219829D+03 0.000000000000000D+00 0.000000000000000D+00 0.416572807219829D+03
 0.416572807219829D+03 0.000000000000000D+00 0.000000000000000D+00 -.416572807219829D+03
 0.179059214343071D+03 -.380521085051954D+01 0.472884427428228D+02 -.152788447993063D+03
 0.102192353733622D+03 0.959029932608736D+02 -.877383439713866D+01 0.341893678677177D+02
 0.266158580975933D+03 0.165587165382472D+03 -.113497420381349D+03 0.174755876738093D+03
 0.285735465387032D+03 -.257684947792826D+03 0.749828120356652D+02 -.561567966127470D+02
 0.000000000000000D+00 0.000000000000000D+00 0.000000000000000D+00 -.000000000000000D+00
 0.441234404421165D+03 0.000000000000000D+00 0.000000000000000D+00 0.441234404421165D+03
 0.568026592726165D+03 0.000000000000000D+00 0.000000000000000D+00 -.568026592726165D+03
 0.174492881688610D+03 -.752937285338242D+01 0.240738137803412D+02 -.152788447993063D+03
 0.102228170630774D+03 0.937497175258742D+02 -.221963163416670D+02 0.341893678677177D+02
 0.279990128457704D+03 0.159834275513017D+03 -.149358159972903D+03 0.174755876738093D+03
 0.283836071620108D+03 -.263684563407732D+03 0.375841031958051D+02 -.561567966127470D+02
 0.168713744750134D+03 0.176299432222230D+02 0.109896559338424D+03 -.126792188305001D+03
0.283608382780D-04 0.000000000000D+00 0.000000000000D+00 0.136450643982D-06 0.000000000000D+00  7 1 -1 24 -13 13 -24 21 0 0.71906746D-01 0.57119643D-01 0.11242154D+06 0.11242154D+06 0.11242154D+06 0.11175730D+01  1  2  2  2  7  2       -1 0.533067400190D-03 0.100000000000D+01
-.148534719494D-05 0.000000000000D+00 -.108913086568D-06 0.136450643982D-06 0.000000000000D+00  7 1 -1 24 -13 13 -24 21 2 0.71906746D-01 0.57119643D-01 0.11242154D+06 0.11242154D+06 0.11242154D+06 0.11175730D+01  1  2  3  2  7  2       -1 -.348692680069D-04 0.100000000000D+01
0.166285858849D-05 0.000000000000D+00 0.000000000000D+00 0.136450643982D-06 0.000000000000D+00  7 1 -1 24 -13 13 -24 21 2 0.71906746D-01 0.57119643D-01 0.11242154D+06 0.11242154D+06 0.11242154D+06 0.11175730D+01  1  2 15  2  7  2       -1 0.390364367183D-04 0.100000000000D+01
0.378481160941D-04 0.000000000000D+00 0.000000000000D+00 0.136450643982D-06 0.000000000000D+00  7 1 -1 24 -13 13 -24 21 2 0.71906746D-01 0.79112997D-01 0.15559398D+06 0.15559398D+06 0.15559398D+06 0.11062992D+01  1  2 12  2  7  2       -1 0.460859922369D-03 0.100000000000D+01
-.418862054295D-04 0.000000000000D+00 0.000000000000D+00 0.136450643982D-06 0.000000000000D+00  7 1 -1 24 -13 13 -24 21 2 0.71906746D-01 0.57119643D-01 0.11242154D+06 0.11242154D+06 0.11242154D+06 0.11175730D+01  1  2  4  2  7  2       -1 -.983299613648D-03 0.100000000000D+01
-.518984958024D-04 0.000000000000D+00 -.125198942832D-04 0.136450643982D-06 0.000000000000D+00  7 1 -1 24 -13 13 -24 21 2 0.71906746D-01 0.81009016D-01 0.11242154D+06 0.11242154D+06 0.11242154D+06 0.11175730D+01  1  2  5  2  7  2       -1 -.620873631739D-03 0.100000000000D+01
0.536894086821D-04 0.000000000000D+00 0.117926629856D-04 0.136450643982D-06 0.000000000000D+00  7 1 -1 24 -13 13 -24 21 2 0.71906746D-01 0.57119643D-01 0.11242154D+06 0.11242154D+06 0.11242154D+06 0.11175730D+01  1  2  6  2  7  2       -1 0.126038571107D-02 0.100000000000D+01
0.155246754681D-05 0.000000000000D+00 0.000000000000D+00 0.136450643982D-06 0.000000000000D+00  7 1 21 24 -13 13 -24 1 2 0.71906746D-01 0.79112997D-01 0.15559398D+06 0.15559398D+06 0.15559398D+06 0.11062992D+01  1  2 12  4  7  2       -1 0.146221123522D-03 0.100000000000D+01
-.188602931824D-05 0.000000000000D+00 -.540187887872D-06 0.136450643982D-06 0.000000000000D+00  7 1 21 24 -13 13 -24 1 2 0.71906746D-01 0.81009016D-01 0.11242154D+06 0.11242154D+06 0.11242154D+06 0.11175730D+01  1  2  5  4  7  2       -1 -.174700789267D-03 0.100000000000D+01
  </mgrwgt>
  </event>
  <event>
  8     66 0.27727860E-05 0.45975331E+03 0.75467711E-02 0.91142089E-01
        1 -1    0    0  501    0 0.00000000E+00 0.00000000E+00 0.12679463E+04 0.12679464E+04 0.32000000E+00 0.0000E+00 0.9000E+01
       -1 -1    0    0    0  501 0.00000000E+00 0.00000000E+00 -.31372896E+03 0.31372913E+03 0.32000000E+00 0.0000E+00 0.9000E+01
       25  2    1    2    0    0 -.40413214E+03 -.43590395E+02 -.38437216E+02 0.50489151E+03 0.29701027E+03 0.0000E+00 0.0000E+00
       23  2    1    2    0    0 0.40413214E+03 0.43590395E+02 0.99265459E+03 0.10767840E+04 0.94221670E+02 0.0000E+00 0.0000E+00
       24  1    3    3    0    0 -.39513348E+03 -.84938196E+02 -.39875327E+02 0.41400751E+03 0.80419002E+02 0.0000E+00 0.9000E+01
      -11  1    4    4    0    0 0.18055773E+03 0.65121602E+02 0.42640513E+03 0.46761442E+03 0.51099893E-03 0.0000E+00 0.9000E+01
       11  1    4    4    0    0 0.22357441E+03 -.21531207E+02 0.56624946E+03 0.60916957E+03 0.51099893E-03 0.0000E+00 0.9000E+01
      -24  1    3    3    0    0 -.89986665E+01 0.41347801E+02 0.14381111E+01 0.90883996E+02 0.80419002E+02 0.0000E+00 0.9000E+01
#aMCatNLO 1  0  0  1  2 0.37876812D+03 0.00000000D+00  -5  7  0 0.00000000D+00 0.00000000D+00 0.00000000D+00 0.00000000D+00 0.00000000D+00
  <mgrwgt>
 0.9048563767D-03    4    2    0
 0.630707260034191D+03 0.000000000000000D+00 0.000000000000000D+00 0.630707260034191D+03
 0.630707260034191D+03 0.000000000000000D+00 0.000000000000000D+00 -.630707260034191D+03
 0.549284358966207D+03 -.395133476829655D+03 -.849381962197078D+02 -.363181950765725D+03
 0.263776176538541D+03 0.180557733174953D+03 0.651216018868771D+02 0.180930796902300D+03
 0.335483300624981D+03 0.223574410202826D+03 -.215312070617227D+02 0.249198585917246D+03
 0.112870683938653D+03 -.899866654812479D+01 0.413478013945534D+02 -.669474320538207D+02
 0.000000000000000D+00 -.000000000000000D+00 0.000000000000000D+00 -.000000000000000D+00
 0.764916277381536D+03 0.000000000000000D+00 0.000000000000000D+00 0.764916277381536D+03
 0.995650969560848D+03 0.000000000000000D+00 0.000000000000000D+00 -.995650969560848D+03
 0.561800359936216D+03 -.345592233983137D+03 -.240452296555134D+03 -.363181950765725D+03
 0.273236001004987D+03 0.204502127555160D+03 -.100418525636060D+02 0.180930796902300D+03
 0.376818597437428D+03 0.255334653784256D+03 -.121229265148435D+03 0.249198585917246D+03
 0.105199284316342D+03 0.724675939678683D+00 0.108254169657124D+02 -.669474320538207D+02
 0.443513004247411D+03 -.114969223295958D+03 0.360897997301463D+03 -.230734692179312D+03
0.213350951059D-03 0.000000000000D+00 0.000000000000D+00 0.374645039895D-07 0.000000000000D+00  7 1 -1 24 -11 11 -24 21 0 0.19506868D+00 0.48266010D-01 0.21137311D+06 0.21137311D+06 0.21137311D+06 0.10959854D+01  1  2  2  1  7  1        1 0.107858739299D-02 0.100000000000D+01
-.104123919625D-04 0.000000000000D+00 -.819323828662D-06 0.374645039895D-07 0.000000000000D+00  7 1 -1 24 -11 11 -24 21 2 0.19506868D+00 0.48266010D-01 0.21137311D+06 0.21137311D+06 0.21137311D+06 0.10959854D+01  1  2  3  1  7  1        1 -.632296485354D-04 0.100000000000D+01
0.129849857211D-04 0.000000000000D+00 0.000000000000D+00 0.374645039895D-07 0.000000000000D+00  7 1 -1 24 -11 11 -24 21 2 0.19506868D+00 0.48266010D-01 0.21137311D+06 0.21137311D+06 0.21137311D+06 0.10959854D+01  1  2 15  1  7  1        1 0.788518225532D-04 0.100000000000D+01
-.311818851167D-04 0.000000000000D+00 0.000000000000D+00 0.374645039895D-07 0.000000000000D+00  7 1 -1 24 -11 11 -24 21 2 0.19506868D+00 0.48266010D-01 0.21137311D+06 0.21137311D+06 0.21137311D+06 0.10959854D+01  1  2  4  1  7  1        1 -.189353190285D-03 0.100000000000D+01
  </mgrwgt>
  </event>
  <event>
  8     66 0.27727860E-05 0.22076896E+03 0.75467711E-02 0.10098164E+00
        1 -1    0    0  501    0 0.00000000E+00 0.00000000E+00 0.10684021E+04 0.10684021E+04 0.32000000E+00 0.0000E+00 0.9000E+01
       -1 -1    0    0    0  501 0.00000000E+00 0.00000000E+00 -.51692920E+02 0.51693910E+02 0.32000000E+00 0.0000E+00 0.9000E+01
       25  2    1    2    0    0 0.11188490E+03 0.25678992E+02 0.64426780E+03 0.72002594E+03 0.30029770E+03 0.0000E+00 0.0000E+00
       23  2    1    2    0    0 -.11188490E+03 -.25678992E+02 0.37244137E+03 0.40007011E+03 0.90365250E+02 0.0000E+00 0.0000E+00
       24  1    3    3    0    0 -.62662115E+02 0.14210340E+02 0.10334228E+03 0.14586061E+03 0.80419002E+02 0.0000E+00 0.9000E+01
      -11  1    4    4    0    0 0.85061544E+01 -.24229241E+02 0.63282581E+02 0.68294186E+02 0.51099893E-03 0.0000E+00 0.9000E+01
       11  1    4    4    0    0 -.12039105E+03 -.14497504E+01 0.30915879E+03 0.33177592E+03 0.51099893E-03 0.0000E+00 0.9000E+01
      -24  1    3    3    0    0 0.17454701E+03 0.11468652E+02 0.54092552E+03 0.57416533E+03 0.80419002E+02 0.0000E+00 0.9000E+01
#aMCatNLO 1  0  0  2  1 0.13377386D+03 0.00000000D+00  -5  7  0 0.00000000D+00 0.00000000D+00 0.00000000D+00 0.00000000D+00 0.00000000D+00
  <mgrwgt>
 0.9072734199D-03    3    2    0
 0.235009372129418D+03 0.000000000000000D+00 0.000000000000000D+00 0.235009372129418D+03
 0.235009372129418D+03 0.000000000000000D+00 0.000000000000000D+00 -.235009372129418D+03
 0.124056430099353D+03 -.626621145196870D+02 0.142103400176913D+02 -.692409382889085D+02
 0.258629420439597D+02 0.850615443495322D+01 -.242292413054318D+02 0.307911897482027D+01
 0.121902215843060D+03 -.120391053507986D+03 -.144975043207871D+01 0.190799026824057D+02
 0.198197156272462D+03 0.174547013592720D+03 0.114686517198193D+02 0.470819166316825D+02
 0.000000000000000D+00 -.000000000000000D+00 -.000000000000000D+00 0.000000000000000D+00
 0.461472222482378D+03 0.000000000000000D+00 0.000000000000000D+00 0.461472222482378D+03
 0.264947077901829D+03 0.000000000000000D+00 0.000000000000000D+00 -.264947077901829D+03
 0.111441980287802D+03 -.298680747736812D+02 0.162999874319506D+02 -.692409382889085D+02
 0.288676062436204D+02 0.161275892162450D+02 -.237436008778718D+02 0.307911897482027D+01
 0.925215787603233D+02 -.905317333064075D+02 0.452895650381120D+00 0.190799026824057D+02
 0.255853873154655D+03 0.237775327878445D+03 0.154975815033552D+02 0.470819166316825D+02
 0.237734261937806D+03 -.133503109014601D+03 -.850686370781515D+01 0.196525144580549D+03
0.671876634722D-05 0.000000000000D+00 0.000000000000D+00 0.379517152972D-06 0.000000000000D+00  7 1 -1 24 -11 11 -24 21 0 0.16436963D+00 0.79528368D-02 0.48738935D+05 0.48738935D+05 0.48738935D+05 0.11482725D+01  1  2  2  2  7  2       -1 0.897254780048D-03 0.100000000000D+01
-.371491510892D-06 0.000000000000D+00 -.258018318651D-07 0.379517152972D-06 0.000000000000D+00  7 1 -1 24 -11 11 -24 21 2 0.16436963D+00 0.79528368D-02 0.48738935D+05 0.48738935D+05 0.48738935D+05 0.11482725D+01  1  2  3  2  7  2       -1 -.654131487925D-04 0.100000000000D+01
0.428388934848D-06 0.000000000000D+00 0.000000000000D+00 0.379517152972D-06 0.000000000000D+00  7 1 -1 24 -11 11 -24 21 2 0.16436963D+00 0.79528368D-02 0.48738935D+05 0.48738935D+05 0.48738935D+05 0.11482725D+01  1  2 15  2  7  2       -1 0.754317886538D-04 0.100000000000D+01
  </mgrwgt>
  </event>
  <event>
  8     66 0.27727860E-05 0.34238168E+03 0.75467711E-02 0.96742617E-01
        1 -1    0    0  501    0 0.00000000E+00 0.00000000E+00 0.18669866E+03 0.18669894E+03 0.32000000E+00 0.0000E+00 0.9000E+01
       -1 -1    0    0    0  501 0.00000000E+00 0.00000000E+00 -.69195867E+03 0.69195874E+03 0.32000000E+00 0.0000E+00 0.9000E+01
       25  2    1    2    0    0 0.19123944E+03 0.21368302E+03 -.25462571E+03 0.48696699E+03 0.30011605E+03 0.0000E+00 0.0000E+00
       23  2    1    2    0    0 -.19123944E+03 -.21368302E+03 -.25063429E+03 0.39169068E+03 0.91493625E+02 0.0000E+00 0.0000E+00
       24  1    3    3    0    0 0.38565744E+02 -.22812675E+02 0.96589592E+01 0.92564822E+02 0.80419002E+02 0.0000E+00 0.9000E+01
      -11  1    4    4    0    0 -.19338744E+03 -.17381179E+03 -.20543118E+03 0.33137775E+03 0.51099893E-03 0.0000E+00 0.9000E+01
       11  1    4    4    0    0 0.21479972E+01 -.39871230E+02 -.45203110E+02 0.60312934E+02 0.51099893E-03 0.0000E+00 0.9000E+01
      -24  1    3    3    0    0 0.15267370E+03 0.23649569E+03 -.26428467E+03 0.39440217E+03 0.80419002E+02 0.0000E+00 0.9000E+01
#aMCatNLO 1  0  0  2  2 0.13440628D+03 0.00000000D+00  -5  7  0 0.00000000D+00 0.00000000D+00 0.00000000D+00 0.00000000D+00 0.00000000D+00
  <mgrwgt>
 0.5923581745D-03    4    2    0
 0.359427196358155D+03 0.000000000000000D+00 0.000000000000000D+00 0.359427196358155D+03
 0.359427196358155D+03 0.000000000000000D+00 0.000000000000000D+00 -.359427196358155D+03
 0.119931209543703D+03 0.385657443930918D+02 -.228126751069973D+02 0.768670558959716D+02
 0.260652841146397D+03 -.193387440921396D+03 -.173811787722561D+03 -.181841617967319D+02
 0.419488273312323D+02 0.214799721921678D+01 -.398712296991691D+02 -.128598314408809D+02
 0.296321514694978D+03 0.152673699309087D+03 0.236495692528728D+03 -.458230626583588D+02
 0.000000000000000D+00 0.000000000000000D+00 0.000000000000000D+00 0.000000000000000D+00
 0.613895801570837D+03 0.000000000000000D+00 0.000000000000000D+00 0.613895801570837D+03
 0.383848939557814D+03 0.000000000000000D+00 0.000000000000000D+00 -.383848939557814D+03
 0.125940928821496D+03 0.375244247797472D+02 -.455771308979110D+02 0.768670558959716D+02
 0.299286177423011D+03 -.195758899054839D+03 -.225654615944513D+03 -.181841617967319D+02
 0.501044699998407D+02 0.175813237067705D+01 -.483941279479674D+02 -.128598314408809D+02
 0.255980044603979D+03 0.150334587403188D+03 0.185359990397081D+03 -.458230626583588D+02
 0.266433120280325D+03 0.614175450122635D+01 0.134265884393310D+03 0.230046862013023D+03
0.353234760068D-04 0.000000000000D+00 0.000000000000D+00 0.215798135688D-05 0.000000000000D+00  7 1 -1 24 -11 11 -24 21 0 0.28722898D-01 0.10645521D+00 0.11722521D+06 0.11722521D+06 0.11722521D+06 0.11161017D+01  1  2  2  2  7  2       -1 0.631117121823D-03 0.100000000000D+01
-.195678303119D-05 0.000000000000D+00 -.135651448751D-06 0.215798135688D-05 0.000000000000D+00  7 1 -1 24 -11 11 -24 21 2 0.28722898D-01 0.10645521D+00 0.11722521D+06 0.11722521D+06 0.11722521D+06 0.11161017D+01  1  2  3  2  7  2       -1 -.435508602662D-04 0.100000000000D+01
0.229018527295D-05 0.000000000000D+00 0.000000000000D+00 0.215798135688D-05 0.000000000000D+00  7 1 -1 24 -11 11 -24 21 2 0.28722898D-01 0.10645521D+00 0.11722521D+06 0.11722521D+06 0.11722521D+06 0.11161017D+01  1  2 15  2  7  2       -1 0.509711793368D-04 0.100000000000D+01
-.207487990855D-05 0.000000000000D+00 0.000000000000D+00 0.215798135688D-05 0.000000000000D+00  7 1 -1 24 -11 11 -24 21 2 0.28722898D-01 0.10645521D+00 0.11722521D+06 0.11722521D+06 0.11722521D+06 0.11161017D+01  1  2  4  2  7  2       -1 -.461792664420D-04 0.100000000000D+01
  </mgrwgt>
  </event>
  <event>
  9     66 0.27727860E-05 0.22336289E+03 0.75467711E-02 0.10359474E+00
        1 -1    0    0  501    0 0.00000000E+00 0.00000000E+00 0.17487964E+04 0.17487964E+04 0.32000000E+00 0.0000E+00 0.9000E+01
       21 -1    0    0  502  501 0.00000000E+00 0.00000000E+00 -.13826553E+03 0.13826757E+03 0.75000000E+00 0.0000E+00 0.9000E+01
       25  2    1    2    0    0 -.14143352E+03 -.11505887E+03 0.10835689E+03 0.36672714E+03 0.29917485E+03 0.0000E+00 0.0000E+00
       23  2    1    2    0    0 0.10713347E+03 0.82841798E+02 0.13756593E+04 0.13853536E+04 0.91790726E+02 0.0000E+00 0.0000E+00
       24  1    3    3    0    0 -.11088845E+03 -.13266373E+03 0.17317260E+03 0.25758859E+03 0.80419002E+02 0.0000E+00 0.9000E+01
      -11  1    4    4    0    0 0.39769588E+02 -.14416216E+02 0.49089137E+03 0.49271065E+03 0.51099893E-03 0.0000E+00 0.9000E+01
       11  1    4    4    0    0 0.67363885E+02 0.97258014E+02 0.88476798E+03 0.89264293E+03 0.51099893E-03 0.0000E+00 0.9000E+01
      -24  1    3    3    0    0 -.30545073E+02 0.17604858E+02 -.64815706E+02 0.10913855E+03 0.80419002E+02 0.0000E+00 0.9000E+01
        1  1    1    2  502    0 0.34300049E+02 0.32217077E+02 0.12651464E+03 0.13498330E+03 0.32000000E+00 0.0000E+00 0.9000E+01
#aMCatNLO 2  0  0  2  1 0.47057766D+02 0.00000000D+00  -5  7  0 0.00000000D+00 0.00000000D+00 0.00000000D+00 0.00000000D+00 0.00000000D+00
  <mgrwgt>
 0.1306020690D-03    1    2    0
 0.465098964638748D+03 0.000000000000000D+00 0.000000000000000D+00 0.465098964638748D+03
 0.465098964638748D+03 0.000000000000000D+00 0.000000000000000D+00 -.465098964638748D+03
 0.200223542981370D+03 -.103355057068508D+03 -.125587827898399D+03 -.846621572591299D+02
 0.145858968551736D+03 0.451233146533038D+02 -.938761022767430D+01 0.138385685516561D+03
 0.275657843857060D+03 0.774077946102548D+02 0.106691977172812D+03 0.242099364353680D+03
 0.308457573887330D+03 -.191760521950502D+02 0.282834609532611D+02 -.295822892611111D+03
 0.000000000000000D+00 0.000000000000000D+00 0.000000000000000D+00 0.000000000000000D+00
 0.503324350154398D+03 0.000000000000000D+00 0.000000000000000D+00 0.503324350154398D+03
 0.480405383192004D+03 0.000000000000000D+00 0.000000000000000D+00 -.480405383192004D+03
 0.208640386542549D+03 -.110888449133847D+03 -.132663732493755D+03 -.846621572591299D+02
 0.144706756560881D+03 0.397695884623644D+02 -.144162155927196D+02 0.138385685516561D+03
 0.269460788270476D+03 0.673638849341940D+02 0.972580135591053D+02 0.242099364353680D+03
 0.308579539563719D+03 -.305450729347957D+02 0.176048575566305D+02 -.295822892611111D+03
 0.523422624087757D+02 0.343000486720839D+02 0.322170769707389D+02 0.229189669623938D+02
0.818094290520D-06 0.000000000000D+00 0.000000000000D+00 0.177088707814D-05 0.346434127191D-10  7 1 21 24 -11 11 -24 1 2 0.26904549D+00 0.21271758D-01 0.59089648D+05 0.59089648D+05 0.59089648D+05 0.11409688D+01  1  2  1  4  7  2       -1 0.130602068976D-03 0.100000000000D+01
  </mgrwgt>
  </event>
  <event>
  8     66 0.27727860E-05 0.94992392E+02 0.75467711E-02 0.10551380E+00
        3 -1    0    0  501    0 0.00000000E+00 0.00000000E+00 0.22787836E+03 0.22787891E+03 0.50000000E+00 0.0000E+00 0.9000E+01
       -3 -1    0    0    0  501 0.00000000E+00 0.00000000E+00 -.18869701E+03 0.18869767E+03 0.50000000E+00 0.0000E+00 0.9000E+01
       25  2    1    2    0    0 0.49578758E+02 0.12035088E+02 0.62596238E+02 0.31007365E+03 0.29937349E+03 0.0000E+00 0.0000E+00
       23  2    1    2    0    0 -.49578758E+02 -.12035088E+02 -.23414885E+02 0.10650292E+03 0.90508117E+02 0.0000E+00 0.0000E+00
       24  1    3    3    0    0 -.81587722E+02 -.42665344E+02 -.24992144E+02 0.12477464E+03 0.80419002E+02 0.0000E+00 0.9000E+01
      -11  1    4    4    0    0 -.27555460E+02 -.41918875E+02 -.41596548E+02 0.65167233E+02 0.51099893E-03 0.0000E+00 0.9000E+01
       11  1    4    4    0    0 -.22023298E+02 0.29883787E+02 0.18181664E+02 0.41335690E+02 0.51099893E-03 0.0000E+00 0.9000E+01
      -24  1    3    3    0    0 0.13116648E+03 0.54700432E+02 0.87588381E+02 0.18529901E+03 0.80419002E+02 0.0000E+00 0.9000E+01
#aMCatNLO 1  0  0  1  2 0.47035526D+02 0.00000000D+00  -5  7  0 0.00000000D+00 0.00000000D+00 0.00000000D+00 0.00000000D+00 0.00000000D+00
  <mgrwgt>
 0.4401981234D-03    9    2    0
 0.207364934538185D+03 0.000000000000000D+00 0.000000000000000D+00 0.207364934538185D+03
 0.207364934538185D+03 0.000000000000000D+00 0.000000000000000D+00 -.207364934538185D+03
 0.127691354104896D+03 -.815877214062240D+02 -.426653438794756D+02 -.368914367591960D+02
 0.693872181961727D+02 -.275554606924963D+02 -.419188745444100D+02 -.479384041448773D+02
 0.398020471090371D+02 -.220232984546376D+02 0.298837862045585D+02 0.143574580385319D+02
 0.177849249666265D+03 0.131166480553358D+03 0.547004322193270D+02 0.704723828655414D+02
 0.000000000000000D+00 0.000000000000000D+00 0.000000000000000D+00 0.000000000000000D+00
 0.259457792937425D+03 0.000000000000000D+00 0.000000000000000D+00 0.259457792937425D+03
 0.219589605537263D+03 0.000000000000000D+00 0.000000000000000D+00 -.219589605537263D+03
 0.138925531136974D+03 -.944135492776224D+02 -.505785612089159D+02 -.368914367591960D+02
 0.749879786438696D+02 -.345007500798875D+02 -.462039456438625D+02 -.479384041448773D+02
 0.404033000669071D+02 -.258816436465079D+02 0.275032830244592D+02 0.143574580385319D+02
 0.163071744182802D+03 0.114766191498569D+03 0.445818610941372D+02 0.704723828655414D+02
 0.616588444441364D+02 0.400297515054490D+02 0.246973627341819D+02 0.398681874001622D+02
0.892643530418D-05 0.000000000000D+00 0.000000000000D+00 0.204770646082D-06 0.000000000000D+00  7 3 -3 24 -11 11 -24 21 0 0.35058302D-01 0.29030402D-01 0.34749476D+05 0.34749476D+05 0.34749476D+05 0.11614599D+01  1  2  2  1  7  1        3 0.339653497569D-03 0.100000000000D+01
-.489071561420D-06 0.000000000000D+00 -.342798619525D-07 0.204770646082D-06 0.000000000000D+00  7 3 -3 24 -11 11 -24 21 2 0.35058302D-01 0.29030402D-01 0.34749476D+05 0.34749476D+05 0.34749476D+05 0.11614599D+01  1  2  3  1  7  1        3 -.251037645470D-04 0.100000000000D+01
0.558168569780D-06 0.000000000000D+00 0.000000000000D+00 0.204770646082D-06 0.000000000000D+00  7 3 -3 24 -11 11 -24 21 2 0.35058302D-01 0.29030402D-01 0.34749476D+05 0.34749476D+05 0.34749476D+05 0.11614599D+01  1  2 15  1  7  1        3 0.286504746107D-04 0.100000000000D+01
0.134418716281D-04 0.000000000000D+00 0.000000000000D+00 0.204770646082D-06 0.000000000000D+00  7 3 -3 24 -11 11 -24 21 2 0.44709432D-01 0.29030402D-01 0.44829851D+05 0.44829851D+05 0.44829851D+05 0.11514884D+01  1  2 12  1  7  1        3 0.428766716898D-03 0.100000000000D+01
-.139872426276D-04 0.000000000000D+00 0.000000000000D+00 0.204770646082D-06 0.000000000000D+00  7 3 -3 24 -11 11 -24 21 2 0.35058302D-01 0.29030402D-01 0.34749476D+05 0.34749476D+05 0.34749476D+05 0.11614599D+01  1  2  4  1  7  1        3 -.717957193349D-03 0.100000000000D+01
-.218089513601D-04 0.000000000000D+00 -.527965680732D-05 0.204770646082D-06 0.000000000000D+00  7 3 -3 24 -11 11 -24 21 2 0.45996381D-01 0.29030402D-01 0.34749476D+05 0.34749476D+05 0.34749476D+05 0.11614599D+01  1  2  5  1  7  1        3 -.665038161139D-03 0.100000000000D+01
0.225933533343D-04 0.000000000000D+00 0.509080380572D-05 0.204770646082D-06 0.000000000000D+00  7 3 -3 24 -11 11 -24 21 2 0.35058302D-01 0.29030402D-01 0.34749476D+05 0.34749476D+05 0.34749476D+05 0.11614599D+01  1  2  6  1  7  1        3 0.115970395168D-02 0.100000000000D+01
0.445698047590D-06 0.000000000000D+00 0.000000000000D+00 0.204770646082D-06 0.000000000000D+00  7 21 -3 24 -11 11 -24 -3 2 0.44709432D-01 0.29030402D-01 0.44829851D+05 0.44829851D+05 0.44829851D+05 0.11514884D+01  1  2 12  3  7  1        3 0.227684724634D-03 0.100000000000D+01
-.683063358369D-06 0.000000000000D+00 -.189851587456D-06 0.204770646082D-06 0.000000000000D+00  7 21 -3 24 -11 11 -24 -3 2 0.45996381D-01 0.29030402D-01 0.34749476D+05 0.34749476D+05 0.34749476D+05 0.11614599D+01  1  2  5  3  7  1        3 -.336162122994D-03 0.100000000000D+01
  </mgrwgt>
  </event>
  <event>
  8     66 0.27727860E-05 0.33623947E+03 0.75467711E-02 0.93550905E-01
        1 -1    0    0  501    0 0.00000000E+00 0.00000000E+00 0.71762805E+03 0.71762812E+03 0.32000000E+00 0.0000E+00 0.9000E+01
       -1 -1    0    0    0  501 0.00000000E+00 0.00000000E+00 -.36600922E+03 0.36600936E+03 0.32000000E+00 0.0000E+00 0.9000E+01
       25  2    1    2    0    0 0.28158160E+02 0.28406462E+03 0.57534728E+03 0.70945093E+03 0.30134787E+03 0.0000E+00 0.0000E+00
       23  2    1    2    0    0 -.28158160E+02 -.28406462E+03 -.22372845E+03 0.37418656E+03 0.92062851E+02 0.0000E+00 0.0000E+00
       24  1    3    3    0    0 0.15677506E+01 -.47420815E+01 0.26564392E+03 0.27759476E+03 0.80419002E+02 0.0000E+00 0.9000E+01
      -13  1    4    4    0    0 -.57119759E+01 -.25044269E+03 -.22033346E+03 0.33361806E+03 0.10565837E+00 0.0000E+00 0.9000E+01
       13  1    4    4    0    0 -.22446184E+02 -.33621935E+02 -.33949894E+01 0.40568495E+02 0.10565837E+00 0.0000E+00 0.9000E+01
      -24  1    3    3    0    0 0.26590409E+02 0.28880670E+03 0.30970336E+03 0.43185617E+03 0.80419002E+02 0.0000E+00 0.9000E+01
#aMCatNLO 1  0  0  1  2 0.37041519D+03 0.00000000D+00  -5  7  0 0.00000000D+00 0.00000000D+00 0.00000000D+00 0.00000000D+00 0.00000000D+00
  <mgrwgt>
 0.9053907021D-03    6    2    0
 0.512502292572941D+03 0.000000000000000D+00 0.000000000000000D+00 0.512502292572941D+03
 0.512502292572941D+03 0.000000000000000D+00 0.000000000000000D+00 -.512502292572941D+03
 0.202347082923779D+03 0.156775057885216D+01 -.474208150033863D+01 0.185612986707716D+03
 0.428285838033444D+03 -.571195396371349D+01 -.250442973624404D+03 -.347382281649614D+03
 0.440532329852890D+02 -.224462058042003D+02 -.336216497782195D+02 -.175054233779818D+02
 0.350318431203371D+03 0.265904091890617D+02 0.288806704902962D+03 0.179274718319880D+03
 0.000000000000000D+00 -.000000000000000D+00 -.000000000000000D+00 0.000000000000000D+00
 0.739318815663838D+03 0.000000000000000D+00 0.000000000000000D+00 0.739318815663838D+03
 0.721410576227200D+03 0.000000000000000D+00 0.000000000000000D+00 -.721410576227200D+03
 0.214397566147020D+03 0.548726144688273D+02 0.451211232372585D+02 0.185612986707716D+03
 0.392059164569098D+03 0.992165167534260D+02 -.152289269884140D+03 -.347382281649614D+03
 0.326175107695761D+02 -.126394246750155D+02 -.244480491051051D+02 -.175054233779818D+02
 0.450807316501823D+03 0.129060588555241D+03 0.384660838285244D+03 0.179274718319880D+03
 0.370847833903521D+03 -.270510295102478D+03 -.253044642533257D+03 0.179082394366378D+02
0.643831269810D-04 0.000000000000D+00 0.000000000000D+00 0.135604213283D-05 0.000000000000D+00  7 1 -1 24 -13 13 -24 21 0 0.11040433D+00 0.56309128D-01 0.11305698D+06 0.11305698D+06 0.11305698D+06 0.11173744D+01  1  2  2  1  7  1        1 0.672366185307D-03 0.100000000000D+01
-.280426966211D-05 0.000000000000D+00 -.247248160074D-06 0.135604213283D-05 0.000000000000D+00  7 1 -1 24 -13 13 -24 21 2 0.11040433D+00 0.56309128D-01 0.11305698D+06 0.11305698D+06 0.11305698D+06 0.11173744D+01  1  2  3  1  7  1        1 -.365637759199D-04 0.100000000000D+01
0.379687421913D-05 0.000000000000D+00 0.000000000000D+00 0.135604213283D-05 0.000000000000D+00  7 1 -1 24 -13 13 -24 21 2 0.11040433D+00 0.56309128D-01 0.11305698D+06 0.11305698D+06 0.11305698D+06 0.11173744D+01  1  2 15  1  7  1        1 0.495059587242D-04 0.100000000000D+01
-.613119634278D-05 0.000000000000D+00 -.209901331949D-04 0.135604213283D-05 0.000000000000D+00  7 1 -1 24 -13 13 -24 21 2 0.20350322D+00 0.56309128D-01 0.11305698D+06 0.11305698D+06 0.11305698D+06 0.11173744D+01  1  2  5  1  7  1        1 -.275518237574D-04 0.100000000000D+01
0.187456160062D-04 0.000000000000D+00 0.175960871624D-04 0.135604213283D-05 0.000000000000D+00  7 1 -1 24 -13 13 -24 21 2 0.11040433D+00 0.56309128D-01 0.11305698D+06 0.11305698D+06 0.11305698D+06 0.11173744D+01  1  2  6  1  7  1        1 0.244416759341D-03 0.100000000000D+01
0.745177939612D-06 0.000000000000D+00 -.140111905429D-05 0.135604213283D-05 0.000000000000D+00  7 21 -1 24 -13 13 -24 -1 2 0.20350322D+00 0.56309128D-01 0.11305698D+06 0.11305698D+06 0.11305698D+06 0.11173744D+01  1  2  5  3  7  1        1 0.321739844238D-05 0.100000000000D+01
  </mgrwgt>
  </event>
  <event>
  8     66 0.27727860E-05 0.32438035E+03 0.75467711E-02 0.97070857E-01
        1 -1    0    0  501    0 0.00000000E+00 0.00000000E+00 0.56688458E+03 0.56688467E+03 0.32000000E+00 0.0000E+00 0.9000E+01
       -1 -1    0    0    0  501 0.00000000E+00 0.00000000E+00 -.24678712E+03 0.24678732E+03 0.32000000E+00 0.0000E+00 0.9000E+01
       25  2    1    2    0    0 0.19557415E+03 0.22295230E+03 0.26306998E+03 0.49780508E+03 0.30107658E+03 0.0000E+00 0.0000E+00
       23  2    1    2    0    0 -.19557415E+03 -.22295230E+03 0.57027480E+02 0.31586691E+03 0.92535363E+02 0.0000E+00 0.0000E+00
       24  1    3    3    0    0 0.42774074E+02 0.89492225E+02 -.31192736E+02 0.13144840E+03 0.80419002E+02 0.0000E+00 0.9000E+01
      -13  1    4    4    0    0 -.14590472E+03 -.12148633E+03 0.12230205E+01 0.18986475E+03 0.10565837E+00 0.0000E+00 0.9000E+01
       13  1    4    4    0    0 -.49669432E+02 -.10146597E+03 0.55804460E+02 0.12600216E+03 0.10565837E+00 0.0000E+00 0.9000E+01
      -24  1    3    3    0    0 0.15280008E+03 0.13346007E+03 0.29426272E+03 0.36635668E+03 0.80419002E+02 0.0000E+00 0.9000E+01
#aMCatNLO 1  0  0  2  2 0.14020184D+03 0.00000000D+00  -5  7  0 0.00000000D+00 0.00000000D+00 0.00000000D+00 0.00000000D+00 0.00000000D+00
  <mgrwgt>
 0.6178211695D-03    3    2    0
 0.374031992541677D+03 0.000000000000000D+00 0.000000000000000D+00 0.374031992541677D+03
 0.374031992541677D+03 0.000000000000000D+00 0.000000000000000D+00 -.374031992541677D+03
 0.156324326399866D+03 0.427740743054929D+02 0.894922251579881D+02 -.901753806400691D+02
 0.205993387971389D+03 -.145904846686226D+03 -.121486358983155D+03 -.799131790283454D+02
 0.113174103297879D+03 -.496693065589391D+02 -.101465941237789D+03 0.678236035333787D+01
 0.272572167414221D+03 0.152800078939672D+03 0.133460075062956D+03 0.163306199315077D+03
 0.000000000000000D+00 -.000000000000000D+00 -.000000000000000D+00 0.000000000000000D+00
 0.167811006618398D+04 0.000000000000000D+00 0.000000000000000D+00 0.167811006618398D+04
 0.384331638490696D+03 0.000000000000000D+00 0.000000000000000D+00 -.384331638490696D+03
 0.176250047646901D+03 0.445422082325621D+02 0.120338089370532D+03 -.901753806400691D+02
 0.185283513227608D+03 -.143824620373325D+03 -.851959075661366D+02 -.799131790283454D+02
 0.956263595351054D+02 -.485592174747127D+02 -.820999550804888D+02 0.678236035333787D+01
 0.303928958825124D+03 0.155865051107834D+03 0.186929845574670D+03 0.163306199315077D+03
 0.130135282543994D+04 -.802342149235836D+01 -.139972072298577D+03 0.129377842769328D+04
0.205525875603D-04 0.000000000000D+00 0.000000000000D+00 0.294562013030D-06 0.000000000000D+00  7 1 -1 24 -13 13 -24 21 0 0.87213035D-01 0.37967272D-01 0.10522261D+06 0.10522261D+06 0.10522261D+06 0.11199122D+01  1  2  2  2  7  2       -1 0.611601134647D-03 0.100000000000D+01
-.111364959256D-05 0.000000000000D+00 -.789273478521D-07 0.294562013030D-06 0.000000000000D+00  7 1 -1 24 -13 13 -24 21 2 0.87213035D-01 0.37967272D-01 0.10522261D+06 0.10522261D+06 0.10522261D+06 0.11199122D+01  1  2  3  2  7  2       -1 -.415640943316D-04 0.100000000000D+01
0.128030640022D-05 0.000000000000D+00 0.000000000000D+00 0.294562013030D-06 0.000000000000D+00  7 1 -1 24 -13 13 -24 21 2 0.87213035D-01 0.37967272D-01 0.10522261D+06 0.10522261D+06 0.10522261D+06 0.11199122D+01  1  2 15  2  7  2       -1 0.477841291800D-04 0.100000000000D+01
  </mgrwgt>
  </event>
  <event>
  8     66 0.27727860E-05 0.57885379E+02 0.75467711E-02 0.10536076E+00
        1 -1    0    0  501    0 0.00000000E+00 0.00000000E+00 0.15107118E+03 0.15107152E+03 0.32000000E+00 0.0000E+00 0.9000E+01
       -1 -1    0    0    0  501 0.00000000E+00 0.00000000E+00 -.27634471E+03 0.27634490E+03 0.32000000E+00 0.0000E+00 0.9000E+01
       25  2    1    2    0    0 -.16815727E+02 0.47593121E+02 -.81070754E+02 0.31493377E+03 0.30010488E+03 0.0000E+00 0.0000E+00
       23  2    1    2    0    0 0.16815727E+02 -.47593121E+02 -.44202771E+02 0.11248265E+03 0.90280605E+02 0.0000E+00 0.0000E+00
       24  1    3    3    0    0 0.90533780E+02 0.24459219E+02 0.42952027E+02 0.13079263E+03 0.80419002E+02 0.0000E+00 0.9000E+01
      -11  1    4    4    0    0 0.16539633E+02 -.23927975E+02 -.71001876E+02 0.76729224E+02 0.51099893E-03 0.0000E+00 0.9000E+01
       11  1    4    4    0    0 0.27609448E+00 -.23665147E+02 0.26799105E+02 0.35753425E+02 0.51099893E-03 0.0000E+00 0.9000E+01
      -24  1    3    3    0    0 -.10734951E+03 0.23133902E+02 -.12402278E+03 0.18414114E+03 0.80419002E+02 0.0000E+00 0.9000E+01
#aMCatNLO 1  0  0  1  2 0.95113035D+02 0.00000000D+00  -5  7  0 0.00000000D+00 0.00000000D+00 0.00000000D+00 0.00000000D+00 0.00000000D+00
  <mgrwgt>
 0.1898127298D-02    9    2    0
 0.204322868959342D+03 0.000000000000000D+00 0.000000000000000D+00 0.204322868959342D+03
 0.204322868959342D+03 0.000000000000000D+00 0.000000000000000D+00 -.204322868959342D+03
 0.149967716405386D+03 0.905337792846791D+02 0.244592202815989D+02 0.850204761285478D+02
 0.584875180979263D+02 0.165396331936072D+02 -.239279761169674D+02 -.507413270029669D+02
 0.456111919611790D+02 0.276095085504462D+00 -.236651479136642D+02 0.389905806297838D+02
 0.154579311454194D+03 -.107349507563791D+03 0.231339037490327D+02 -.732697297553647D+02
 0.000000000000000D+00 -.000000000000000D+00 0.000000000000000D+00 0.000000000000000D+00
 0.262888908562365D+03 0.000000000000000D+00 0.000000000000000D+00 0.262888908562365D+03
 0.252372381451876D+03 0.000000000000000D+00 0.000000000000000D+00 -.252372381451876D+03
 0.165989043647995D+03 0.117713585580442D+03 0.420791487861287D+00 0.850204761285478D+02
 0.666241015058845D+02 0.273022121794351D+02 -.334466417679485D+02 -.507413270029669D+02
 0.505275716967394D+02 0.854631843282238D+01 -.309795184753778D+02 0.389905806297838D+02
 0.136427905073057D+03 -.823159562178926D+02 0.993670852062085D+00 -.732697297553647D+02
 0.956926680905658D+02 -.712461599748073D+02 0.630116979034029D+02 0.105165271104886D+02
0.121505152495D-04 0.000000000000D+00 0.000000000000D+00 0.530001538091D-06 0.000000000000D+00  7 1 -1 24 -11 11 -24 21 0 0.23241761D-01 0.42514611D-01 0.24399201D+05 0.24399201D+05 0.24399201D+05 0.11757554D+01  1  2  2  1  7  1        1 0.169703438990D-02 0.100000000000D+01
-.615838470614D-06 0.000000000000D+00 -.466611778622D-07 0.530001538091D-06 0.000000000000D+00  7 1 -1 24 -11 11 -24 21 2 0.23241761D-01 0.42514611D-01 0.24399201D+05 0.24399201D+05 0.24399201D+05 0.11757554D+01  1  2  3  1  7  1        1 -.118904067178D-03 0.100000000000D+01
0.774483907613D-06 0.000000000000D+00 0.000000000000D+00 0.530001538091D-06 0.000000000000D+00  7 1 -1 24 -11 11 -24 21 2 0.23241761D-01 0.42514611D-01 0.24399201D+05 0.24399201D+05 0.24399201D+05 0.11757554D+01  1  2 15  1  7  1        1 0.149534806566D-03 0.100000000000D+01
0.224193745151D-05 0.000000000000D+00 0.000000000000D+00 0.530001538091D-06 0.000000000000D+00  7 1 -1 24 -11 11 -24 21 2 0.31964788D-01 0.42514611D-01 0.45810943D+05 0.45810943D+05 0.45810943D+05 0.11506530D+01  1  2 12  1  7  1        1 0.276839705839D-03 0.100000000000D+01
-.525810500444D-05 0.000000000000D+00 0.000000000000D+00 0.530001538091D-06 0.000000000000D+00  7 1 -1 24 -11 11 -24 21 2 0.23241761D-01 0.42514611D-01 0.24399201D+05 0.24399201D+05 0.24399201D+05 0.11757554D+01  1  2  4  1  7  1        1 -.101521762688D-02 0.100000000000D+01
-.686317897728D-05 0.000000000000D+00 -.507375939876D-05 0.530001538091D-06 0.000000000000D+00  7 1 -1 24 -11 11 -24 21 2 0.36468293D-01 0.42514611D-01 0.24399201D+05 0.24399201D+05 0.24399201D+05 0.11757554D+01  1  2  5  1  7  1        1 -.746962440162D-03 0.100000000000D+01
0.872326145362D-05 0.000000000000D+00 0.459913140713D-05 0.530001538091D-06 0.000000000000D+00  7 1 -1 24 -11 11 -24 21 2 0.23241761D-01 0.42514611D-01 0.24399201D+05 0.24399201D+05 0.24399201D+05 0.11757554D+01  1  2  6  1  7  1        1 0.168425864149D-02 0.100000000000D+01
0.905234021764D-07 0.000000000000D+00 0.000000000000D+00 0.530001538091D-06 0.000000000000D+00  7 21 -1 24 -11 11 -24 -1 2 0.31964788D-01 0.42514611D-01 0.45810943D+05 0.45810943D+05 0.45810943D+05 0.11506530D+01  1  2 12  3  7  1        1 0.710433924846D-04 0.100000000000D+01
-.154761452541D-06 0.000000000000D+00 -.263877568907D-06 0.530001538091D-06 0.000000000000D+00  7 21 -1 24 -11 11 -24 -1 2 0.36468293D-01 0.42514611D-01 0.24399201D+05 0.24399201D+05 0.24399201D+05 0.11757554D+01  1  2  5  3  7  1        1 -.994995041286D-04 0.100000000000D+01
  </mgrwgt>
  </event>
  <event>
  8     66 0.27727860E-05 0.14181061E+03 0.75467711E-02 0.99373747E-01
        1 -1    0    0  501    0 0.00000000E+00 0.00000000E+00 0.34071388E+04 0.34071388E+04 0.32000000E+00 0.0000E+00 0.9000E+01
       -1 -1    0    0    0  501 0.00000000E+00 0.00000000E+00 -.36112174E+02 0.36113592E+02 0.32000000E+00 0.0000E+00 0.9000E+01
       25  2    1    2    0    0 -.24104616E+03 -.25885551E+02 0.13040632E+04 0.13601437E+04 0.30105963E+03 0.0000E+00 0.0000E+00
       23  2    1    2    0    0 0.24104616E+03 0.25885551E+02 0.20669635E+04 0.20831087E+04 0.90722244E+02 0.0000E+00 0.0000E+00
       24  1    3    3    0    0 -.12565540E+03 -.55581510E+02 0.25043718E+03 0.29675677E+03 0.80419002E+02 0.0000E+00 0.9000E+01
      -13  1    4    4    0    0 0.10762401E+03 0.55526700E+02 0.87704745E+03 0.88536907E+03 0.10565837E+00 0.0000E+00 0.9000E+01
       13  1    4    4    0    0 0.13342216E+03 -.29641149E+02 0.11899160E+04 0.11977396E+04 0.10565837E+00 0.0000E+00 0.9000E+01
      -24  1    3    3    0    0 -.11539076E+03 0.29695959E+02 0.10536260E+04 0.10633870E+04 0.80419002E+02 0.0000E+00 0.9000E+01
#aMCatNLO 1  0  0  1  2 0.97212962D+02 0.00000000D+00  -5  7  0 0.00000000D+00 0.00000000D+00 0.00000000D+00 0.00000000D+00 0.00000000D+00
  <mgrwgt>
 0.4614991671D-03    9    2    0
 0.350772943937891D+03 0.000000000000000D+00 0.000000000000000D+00 0.350772943937891D+03
 0.350772943937891D+03 0.000000000000000D+00 0.000000000000000D+00 -.350772943937891D+03
 0.253123951465967D+03 -.125655401018272D+03 -.555815103354575D+02 -.196789061573913D+03
 0.131137296624792D+03 0.107623970892246D+03 0.555268148739872D+02 0.503074973079931D+02
 0.160903656847311D+03 0.133422192626618D+03 -.296412637615953D+02 0.849111346300260D+02
 0.156380982937712D+03 -.115390762500592D+03 0.296959592230656D+02 0.615704296358938D+02
 0.000000000000000D+00 0.000000000000000D+00 0.000000000000000D+00 0.000000000000000D+00
 0.409290146703991D+03 0.000000000000000D+00 0.000000000000000D+00 0.409290146703991D+03
 0.396951914347602D+03 0.000000000000000D+00 0.000000000000000D+00 -.396951914347602D+03
 0.273142391883895D+03 -.161932870709724D+03 -.564921314720137D+02 -.196789061573913D+03
 0.117288531751193D+03 0.904990671750181D+02 0.550969530501327D+02 0.503074973079931D+02
 0.144061736624337D+03 0.112399809268055D+03 -.301689584103652D+02 0.849111346300260D+02
 0.173756584599419D+03 -.138148356163343D+03 0.291247080861281D+02 0.615704296358938D+02
 0.979928161927481D+02 0.971823504299937D+02 0.243942874611812D+01 0.123382323563885D+02
0.435483193495D-04 0.000000000000D+00 0.000000000000D+00 0.238671774555D-06 0.000000000000D+00  7 1 -1 24 -13 13 -24 21 0 0.52417531D+00 0.55558293D-02 0.78605299D+05 0.78605299D+05 0.78605299D+05 0.11304037D+01  1  2  2  1  7  1        1 0.240119329862D-03 0.100000000000D+01
-.227169917777D-05 0.000000000000D+00 -.167237012838D-06 0.238671774555D-06 0.000000000000D+00  7 1 -1 24 -13 13 -24 21 2 0.52417531D+00 0.55558293D-02 0.78605299D+05 0.78605299D+05 0.78605299D+05 0.11304037D+01  1  2  3  1  7  1        1 -.160056649678D-04 0.100000000000D+01
0.278446783216D-05 0.000000000000D+00 0.000000000000D+00 0.238671774555D-06 0.000000000000D+00  7 1 -1 24 -13 13 -24 21 2 0.52417531D+00 0.55558293D-02 0.78605299D+05 0.78605299D+05 0.78605299D+05 0.11304037D+01  1  2 15  1  7  1        1 0.196184687089D-04 0.100000000000D+01
0.208592856229D-04 0.000000000000D+00 0.000000000000D+00 0.238671774555D-06 0.000000000000D+00  7 1 -1 24 -13 13 -24 21 2 0.64111410D+00 0.55558293D-02 0.11271036D+06 0.11271036D+06 0.11271036D+06 0.11174826D+01  1  2 12  1  7  1        1 0.305666982212D-04 0.100000000000D+01
-.205656249875D-04 0.000000000000D+00 0.000000000000D+00 0.238671774555D-06 0.000000000000D+00  7 1 -1 24 -13 13 -24 21 2 0.52417531D+00 0.55558293D-02 0.78605299D+05 0.78605299D+05 0.78605299D+05 0.11304037D+01  1  2  4  1  7  1        1 -.144898808180D-03 0.100000000000D+01
-.595937865788D-04 0.000000000000D+00 -.177224962542D-04 0.238671774555D-06 0.000000000000D+00  7 1 -1 24 -13 13 -24 21 2 0.62932587D+00 0.55558293D-02 0.78605299D+05 0.78605299D+05 0.78605299D+05 0.11304037D+01  1  2  5  1  7  1        1 -.108228066656D-03 0.100000000000D+01
0.625160055376D-04 0.000000000000D+00 0.177337150972D-04 0.238671774555D-06 0.000000000000D+00  7 1 -1 24 -13 13 -24 21 2 0.52417531D+00 0.55558293D-02 0.78605299D+05 0.78605299D+05 0.78605299D+05 0.11304037D+01  1  2  6  1  7  1        1 0.440467756273D-03 0.100000000000D+01
0.600083647336D-06 0.000000000000D+00 0.000000000000D+00 0.238671774555D-06 0.000000000000D+00  7 21 -1 24 -13 13 -24 -1 2 0.64111410D+00 0.55558293D-02 0.11271036D+06 0.11271036D+06 0.11271036D+06 0.11174826D+01  1  2 12  3  7  1        1 0.648301640786D-07 0.100000000000D+01
-.141626604030D-05 0.000000000000D+00 -.473128636116D-06 0.238671774555D-06 0.000000000000D+00  7 21 -1 24 -13 13 -24 -1 2 0.62932587D+00 0.55558293D-02 0.78605299D+05 0.78605299D+05 0.78605299D+05 0.11304037D+01  1  2  5  3  7  1        1 -.205376346410D-06 0.100000000000D+01
  </mgrwgt>
  </event>
  <event>
  9     66 -.27727860E-05 0.16420740E+03 0.75467711E-02 0.10873147E+00
        1 -1    0    0  501    0 0.00000000E+00 0.00000000E+00 0.86454295E+03 0.86454301E+03 0.32000000E+00 0.0000E+00 0.9000E+01
       -1 -1    0    0    0  502 0.00000000E+00 0.00000000E+00 -.68516831E+02 0.68517578E+02 0.32000000E+00 0.0000E+00 0.9000E+01
       25  2    1    2    0    0 0.10077941E+03 0.54377380E+02 0.54809196E+03 0.63406314E+03 0.29751955E+03 0.0000E+00 0.0000E+00
       23  2    1    2    0    0 -.11273967E+03 -.54801538E+02 0.22896860E+03 0.27655903E+03 0.91350068E+02 0.0000E+00 0.0000E+00
       24  1    3    3    0    0 0.75387283E+02 0.33688500E+02 0.53374999E+03 0.54605350E+03 0.80419002E+02 0.0000E+00 0.9000E+01
      -13  1    4    4    0    0 -.11790884E+02 -.87713457E+01 -.66462284E+01 0.16129010E+02 0.10565837E+00 0.0000E+00 0.9000E+01
       13  1    4    4    0    0 -.10094878E+03 -.46030192E+02 0.23561483E+03 0.26043002E+03 0.10565837E+00 0.0000E+00 0.9000E+01
      -24  1    3    3    0    0 0.25392123E+02 0.20688880E+02 0.14341976E+02 0.88009647E+02 0.80419002E+02 0.0000E+00 0.9000E+01
       21  1    1    2  501  502 0.11960259E+02 0.42415848E+00 0.18965552E+02 0.22438413E+02 0.75000000E+00 0.0000E+00 0.9000E+01
#aMCatNLO 2  0  0  2  1 0.11967778D+02 0.00000000D+00  -5  7  0 0.00000000D+00 0.00000000D+00 0.00000000D+00 0.00000000D+00 0.00000000D+00
  <mgrwgt>
 -.3315962059D-03    3    2    0
 0.237311183975255D+03 0.000000000000000D+00 0.000000000000000D+00 0.237311183975255D+03
 0.237311183975255D+03 0.000000000000000D+00 0.000000000000000D+00 -.237311183975255D+03
 0.175736123640502D+03 0.797900435140061D+02 0.338446415065648D+02 0.130015608275101D+03
 0.415217892672188D+02 -.107409306779742D+02 -.873406595548426D+01 -.391459766005081D+02
 0.111329573818109D+03 -.981117912884120D+02 -.459296300318514D+02 0.256674794601688D+02
 0.146034881224679D+03 0.290626784523801D+02 0.208190544807709D+02 -.116537111134762D+03
 0.000000000000000D+00 0.000000000000000D+00 0.000000000000000D+00 -.000000000000000D+00
 0.243198701322025D+03 0.000000000000000D+00 0.000000000000000D+00 0.243198701322025D+03
 0.243547385297195D+03 0.000000000000000D+00 0.000000000000000D+00 -.243547385297195D+03
 0.173751065046511D+03 0.753872872152919D+02 0.336885022166460D+02 0.130015608275101D+03
 0.418134590559134D+02 -.117907682724165D+02 -.877129738175560D+01 -.391459766005081D+02
 0.113878377675270D+03 -.100948907380373D+03 -.460302454786217D+02 0.256674794601688D+02
 0.145330328170354D+03 0.253921289947317D+02 0.206888821643752D+02 -.116537111134762D+03
 0.119728566711714D+02 0.119602594427656D+02 0.424158479356056D+00 -.348683975170648D+00
-.624959991439D-05 0.000000000000D+00 0.000000000000D+00 0.509063111726D-07 0.000000000000D+00  7 1 -1 24 -13 13 -24 21 2 0.12978050D+00 0.10664789D-01 0.28850164D+05 0.28850164D+05 0.28850164D+05 0.11689140D+01  1  2 13  2  7  2       -1 -.108454592409D-02 0.100000000000D+01
-.519507138145D-05 0.000000000000D+00 0.000000000000D+00 0.509063111726D-07 0.000000000000D+00  7 1 -1 24 -13 13 -24 21 2 0.12978050D+00 0.10270705D-01 0.26964071D+05 0.26964071D+05 0.26964071D+05 0.11716596D+01  1  2  8  2  7  2       -1 -.958764046160D-03 0.100000000000D+01
0.100725978961D-04 0.000000000000D+00 0.000000000000D+00 0.509063111726D-07 0.259177487492D-08  7 1 -1 24 -13 13 -24 21 2 0.13300026D+00 0.10540605D-01 0.28850164D+05 0.28850164D+05 0.28850164D+05 0.11689140D+01  1  2  1  2  7  2       -1 0.171171376437D-02 0.100000000000D+01
  </mgrwgt>
  </event>
  <event>
  8     66 0.27727860E-05 0.24375066E+03 0.75467711E-02 0.92237618E-01
        1 -1    0    0  501    0 0.00000000E+00 0.00000000E+00 0.81560254E+03 0.81560260E+03 0.32000000E+00 0.0000E+00 0.9000E+01
       -1 -1    0    0    0  501 0.00000000E+00 0.00000000E+00 -.72681404E+03 0.72681411E+03 0.32000000E+00 0.0000E+00 0.9000E+01
       25  2    1    2    0    0 -.11305380E+03 -.54131778E+03 -.44293909E+03 0.76938442E+03 0.29991874E+03 0.0000E+00 0.0000E+00
       23  2    1    2    0    0 0.11305380E+03 0.54131778E+03 0.53172759E+03 0.77303229E+03 0.95071585E+02 0.0000E+00 0.0000E+00
       24  1    3    3    0    0 -.87978857E+02 -.24582553E+03 -.62315573E+02 0.28021584E+03 0.80419002E+02 0.0000E+00 0.9000E+01
      -11  1    4    4    0    0 0.52086530E+02 0.83370729E+02 0.10968925E+03 0.14729364E+03 0.51099893E-03 0.0000E+00 0.9000E+01
       11  1    4    4    0    0 0.60967272E+02 0.45794705E+03 0.42203834E+03 0.62573866E+03 0.51099893E-03 0.0000E+00 0.9000E+01
      -24  1    3    3    0    0 -.25074945E+02 -.29549224E+03 -.38062351E+03 0.48916857E+03 0.80419002E+02 0.0000E+00 0.9000E+01
#aMCatNLO 1  0  0  1  2 0.99968130D+02 0.00000000D+00  -5  7  0 0.00000000D+00 0.00000000D+00 0.00000000D+00 0.00000000D+00 0.00000000D+00
  <mgrwgt>
 0.1041358438D-02    9    2    0
 0.769929528216036D+03 0.000000000000000D+00 0.000000000000000D+00 0.769929528216036D+03
 0.769929528216036D+03 0.000000000000000D+00 0.000000000000000D+00 -.769929528216036D+03
 0.284274397952671D+03 -.879788567578689D+02 -.245825534050011D+03 -.785763638099163D+02
 0.141213589946964D+03 0.520865299509268D+02 0.833707286100894D+02 0.101378464154885D+03
 0.602443194987322D+03 0.609672715609409D+02 0.457947047620248D+03 0.386659147778564D+03
 0.511927873545115D+03 -.250749447539988D+02 -.295492242180326D+03 -.409461248123532D+03
 0.000000000000000D+00 0.000000000000000D+00 -.000000000000000D+00 0.000000000000000D+00
 0.993594567572677D+03 0.000000000000000D+00 0.000000000000000D+00 0.993594567572677D+03
 0.782802154264043D+03 0.000000000000000D+00 0.000000000000000D+00 -.782802154264043D+03
 0.270904095140395D+03 -.925808292263879D+02 -.228421448028927D+03 -.785763638099163D+02
 0.145879060329268D+03 0.497067683266524D+02 0.923706903225672D+02 0.101378464154885D+03
 0.631441849481369D+03 0.507393807571621D+02 0.496627655246853D+03 0.386659147778564D+03
 0.494875620637589D+03 -.334205165279056D+02 -.263930330404058D+03 -.409461248123532D+03
 0.233296096248098D+03 0.255551966704790D+02 -.966465671364348D+02 0.210792413308633D+03
0.428019831884D-03 0.000000000000D+00 0.000000000000D+00 0.202536451611D-05 0.000000000000D+00  7 1 -1 24 -11 11 -24 21 0 0.12547732D+00 0.11181755D+00 0.32533070D+06 0.32533070D+06 0.32533070D+06 0.10819569D+01  1  2  2  1  7  1        1 0.855277263274D-03 0.100000000000D+01
-.211768265942D-04 0.000000000000D+00 -.164370885465D-05 0.202536451611D-05 0.000000000000D+00  7 1 -1 24 -11 11 -24 21 2 0.12547732D+00 0.11181755D+00 0.32533070D+06 0.32533070D+06 0.32533070D+06 0.10819569D+01  1  2  3  1  7  1        1 -.495363315514D-04 0.100000000000D+01
0.265977567963D-04 0.000000000000D+00 0.000000000000D+00 0.202536451611D-05 0.000000000000D+00  7 1 -1 24 -11 11 -24 21 2 0.12547732D+00 0.11181755D+00 0.32533070D+06 0.32533070D+06 0.32533070D+06 0.10819569D+01  1  2 15  1  7  1        1 0.622168431763D-04 0.100000000000D+01
0.198148653545D-02 0.000000000000D+00 0.000000000000D+00 0.202536451611D-05 0.000000000000D+00  7 1 -1 24 -11 11 -24 21 2 0.16276309D+00 0.11181755D+00 0.38518270D+06 0.38518270D+06 0.38518270D+06 0.10766114D+01  1  2 12  1  7  1        1 0.291471479357D-02 0.100000000000D+01
-.197722561684D-02 0.000000000000D+00 0.000000000000D+00 0.202536451611D-05 0.000000000000D+00  7 1 -1 24 -11 11 -24 21 2 0.12547732D+00 0.11181755D+00 0.32533070D+06 0.32533070D+06 0.32533070D+06 0.10819569D+01  1  2  4  1  7  1        1 -.462507936551D-02 0.100000000000D+01
-.227102172084D-02 0.000000000000D+00 -.236078640938D-03 0.202536451611D-05 0.000000000000D+00  7 1 -1 24 -11 11 -24 21 2 0.16307221D+00 0.11181755D+00 0.32533070D+06 0.32533070D+06 0.32533070D+06 0.10819569D+01  1  2  5  1  7  1        1 -.339491895980D-02 0.100000000000D+01
0.226262763942D-02 0.000000000000D+00 0.228197427244D-03 0.202536451611D-05 0.000000000000D+00  7 1 -1 24 -11 11 -24 21 2 0.12547732D+00 0.11181755D+00 0.32533070D+06 0.32533070D+06 0.32533070D+06 0.10819569D+01  1  2  6  1  7  1        1 0.529268502177D-02 0.100000000000D+01
0.690560205856D-04 0.000000000000D+00 0.000000000000D+00 0.202536451611D-05 0.000000000000D+00  7 21 -1 24 -11 11 -24 -1 2 0.16276309D+00 0.11181755D+00 0.38518270D+06 0.38518270D+06 0.38518270D+06 0.10766114D+01  1  2 12  3  7  1        1 0.124297515400D-03 0.100000000000D+01
-.752971737561D-04 0.000000000000D+00 -.827143064673D-05 0.202536451611D-05 0.000000000000D+00  7 21 -1 24 -11 11 -24 -1 2 0.16307221D+00 0.11181755D+00 0.32533070D+06 0.32533070D+06 0.32533070D+06 0.10819569D+01  1  2  5  3  7  1        1 -.138298342092D-03 0.100000000000D+01
  </mgrwgt>
  </event>
  <event>
  8     66 0.27727860E-05 0.19395124E+03 0.75467711E-02 0.89800953E-01
        1 -1    0    0  501    0 0.00000000E+00 0.00000000E+00 0.10576681E+04 0.10576682E+04 0.32000000E+00 0.0000E+00 0.9000E+01
       -1 -1    0    0    0  501 0.00000000E+00 0.00000000E+00 -.33197343E+03 0.33197358E+03 0.32000000E+00 0.0000E+00 0.9000E+01
       25  2    1    2    0    0 0.20962632E+02 0.90943562E+02 -.25231501E+03 0.40301659E+03 0.30008222E+03 0.0000E+00 0.0000E+00
       23  2    1    2    0    0 -.20962632E+02 -.90943562E+02 0.97800969E+03 0.98662516E+03 0.90642557E+02 0.0000E+00 0.0000E+00
       24  1    3    3    0    0 0.69063069E+02 -.55147101E+02 -.34229936E+02 0.12429728E+03 0.80419002E+02 0.0000E+00 0.9000E+01
      -11  1    4    4    0    0 -.13174896E+02 -.81736907E+02 0.96622056E+03 0.96976114E+03 0.51099893E-03 0.0000E+00 0.9000E+01
       11  1    4    4    0    0 -.77877359E+01 -.92066557E+01 0.11789136E+02 0.16864017E+02 0.51099893E-03 0.0000E+00 0.9000E+01
      -24  1    3    3    0    0 -.48100437E+02 0.14609066E+03 -.21808507E+03 0.27871930E+03 0.80419002E+02 0.0000E+00 0.9000E+01
#aMCatNLO 1  0  0  1  2 0.73133874D+03 0.00000000D+00  -5  7  0 0.00000000D+00 0.00000000D+00 0.00000000D+00 0.00000000D+00 0.00000000D+00
  <mgrwgt>
 0.9547873944D-03    5    2    0
 0.592551979726637D+03 0.000000000000000D+00 0.000000000000000D+00 0.592551979726637D+03
 0.592551979726637D+03 0.000000000000000D+00 0.000000000000000D+00 -.592551979726637D+03
 0.166710418171240D+03 0.690630690558916D+02 -.551471006237435D+02 -.116250752074277D+03
 0.545470656797000D+03 -.131748957202591D+02 -.817369067075063D+02 0.539150941417336D+03
 0.125555470979245D+02 -.778773589462242D+01 -.920665573193437D+01 0.349720213848850D+01
 0.460367337387108D+03 -.481004374410101D+02 0.146090663063184D+03 -.426397391481547D+03
 0.000000000000000D+00 -.000000000000000D+00 -.000000000000000D+00 0.000000000000000D+00
 0.165016178166965D+04 0.000000000000000D+00 0.000000000000000D+00 0.165016178166965D+04
 0.836480383191158D+03 0.000000000000000D+00 0.000000000000000D+00 -.836480383191158D+03
 0.226696640526019D+03 0.175795512761702D+03 -.224911361746700D+02 -.116250752074277D+03
 0.618442041750999D+03 0.302597899479762D+03 0.148772512373762D+02 0.539150941417336D+03
 0.849597842840524D+01 -.207639769291140D+01 -.745920902504747D+01 0.349720213848850D+01
 0.538962820833147D+03 0.223020650749331D+03 0.229043140397458D+03 -.426397391481547D+03
 0.109404468332223D+04 -.699337665297884D+03 -.213970046435116D+03 0.813681398478488D+03
0.121801350685D-03 0.000000000000D+00 0.000000000000D+00 0.148972833857D-04 0.000000000000D+00  7 1 -1 24 -11 11 -24 21 0 0.16271819D+00 0.51072851D-01 0.37617083D+05 0.37617083D+05 0.37617083D+05 0.11583272D+01  1  2  2  1  7  1        1 0.839905532626D-03 0.100000000000D+01
0.349536804072D-05 0.000000000000D+00 -.467749257661D-06 0.148972833857D-04 0.000000000000D+00  7 1 -1 24 -11 11 -24 21 2 0.16271819D+00 0.51072851D-01 0.37617083D+05 0.37617083D+05 0.37617083D+05 0.11583272D+01  1  2  3  1  7  1        1 0.323395316046D-04 0.100000000000D+01
0.715899205237D-05 0.000000000000D+00 0.000000000000D+00 0.148972833857D-04 0.000000000000D+00  7 1 -1 24 -11 11 -24 21 2 0.16271819D+00 0.51072851D-01 0.37617083D+05 0.37617083D+05 0.37617083D+05 0.11583272D+01  1  2 15  1  7  1        1 0.662357860568D-04 0.100000000000D+01
0.522510902144D-04 0.000000000000D+00 -.360970030288D-04 0.148972833857D-04 0.000000000000D+00  7 1 -1 24 -11 11 -24 21 2 0.49972603D+00 0.51072851D-01 0.37617083D+05 0.37617083D+05 0.37617083D+05 0.11583272D+01  1  2  5  1  7  1        1 0.158095584776D-04 0.100000000000D+01
0.842176120437D-05 0.000000000000D+00 -.462880960466D-05 0.148972833857D-04 0.000000000000D+00  7 21 -1 24 -11 11 -24 -1 2 0.49972603D+00 0.51072851D-01 0.37617083D+05 0.37617083D+05 0.37617083D+05 0.11583272D+01  1  2  5  3  7  1        1 0.496985684497D-06 0.100000000000D+01
  </mgrwgt>
  </event>
  <event>
  8     66 0.27727860E-05 0.27428431E+03 0.75467711E-02 0.93692647E-01
        1 -1    0    0  501    0 0.00000000E+00 0.00000000E+00 0.53100451E+03 0.53100461E+03 0.32000000E+00 0.0000E+00 0.9000E+01
       -1 -1    0    0    0  501 0.00000000E+00 0.00000000E+00 -.23716113E+03 0.23716135E+03 0.32000000E+00 0.0000E+00 0.9000E+01
       25  2    1    2    0    0 0.12539810E+03 0.21540749E+03 0.25857800E+02 0.39122855E+03 0.30044314E+03 0.0000E+00 0.0000E+00
       23  2    1    2    0    0 -.12539810E+03 -.21540749E+03 0.26798558E+03 0.37693741E+03 0.90224546E+02 0.0000E+00 0.0000E+00
       24  1    3    3    0    0 0.58841888E+02 0.79675106E+02 0.13690728E+03 0.18713981E+03 0.80419002E+02 0.0000E+00 0.9000E+01
      -13  1    4    4    0    0 -.95431038E+02 -.14964280E+03 0.12613861E+03 0.21774069E+03 0.10565837E+00 0.0000E+00 0.9000E+01
       13  1    4    4    0    0 -.29967065E+02 -.65764692E+02 0.14184698E+03 0.15919672E+03 0.10565837E+00 0.0000E+00 0.9000E+01
      -24  1    3    3    0    0 0.66556216E+02 0.13573238E+03 -.11104948E+03 0.20408874E+03 0.80419002E+02 0.0000E+00 0.9000E+01
#aMCatNLO 1  0  0  2  2 0.40194425D+03 0.00000000D+00  -5  7  0 0.00000000D+00 0.00000000D+00 0.00000000D+00 0.00000000D+00 0.00000000D+00
  <mgrwgt>
 0.9388443422D-03    3    2    0
 0.354871458132732D+03 0.000000000000000D+00 0.000000000000000D+00 0.354871458132732D+03
 0.354871458132732D+03 0.000000000000000D+00 0.000000000000000D+00 -.354871458132732D+03
 0.145862865191122D+03 0.588418883534111D+02 0.796751058394411D+02 0.706984382562401D+02
 0.183441155099309D+03 -.954311281948832D+02 -.149642911121572D+03 0.463740908987089D+02
 0.113574416180120D+03 -.299669758039239D+02 -.657645776157407D+02 0.876136330878092D+02
 0.266864479794914D+03 0.665562156453960D+02 0.135732382897872D+03 -.204686162242758D+03
 0.000000000000000D+00 -.000000000000000D+00 -.000000000000000D+00 0.000000000000000D+00
 0.858576153194413D+03 0.000000000000000D+00 0.000000000000000D+00 0.858576153194413D+03
 0.497433928720461D+03 0.000000000000000D+00 0.000000000000000D+00 -.497433928720461D+03
 0.211265691027166D+03 0.149897012077311D+03 0.103434002384315D+03 0.706984382562401D+02
 0.137125112172163D+03 -.136980922338179D+02 -.128316414969794D+03 0.463740908987089D+02
 0.104698367048995D+03 0.256848474301132D+02 -.512434188201039D+02 0.876136330878092D+02
 0.362566506891642D+03 0.227038807615357D+03 0.177606899607432D+03 -.204686162242758D+03
 0.540354404774907D+03 -.388922574888964D+03 -.101481068201850D+03 0.361142224473952D+03
0.263482659843D-04 0.000000000000D+00 0.000000000000D+00 0.129443123261D-05 0.000000000000D+00  7 1 -1 24 -13 13 -24 21 0 0.81693026D-01 0.36486352D-01 0.75231880D+05 0.75231880D+05 0.75231880D+05 0.11320080D+01  1  2  2  2  7  2       -1 0.924745075368D-03 0.100000000000D+01
-.134570053068D-05 0.000000000000D+00 -.101184279037D-06 0.129443123261D-05 0.000000000000D+00  7 1 -1 24 -13 13 -24 21 2 0.81693026D-01 0.36486352D-01 0.75231880D+05 0.75231880D+05 0.75231880D+05 0.11320080D+01  1  2  3  2  7  2       -1 -.605225812165D-04 0.100000000000D+01
0.165919328832D-05 0.000000000000D+00 0.000000000000D+00 0.129443123261D-05 0.000000000000D+00  7 1 -1 24 -13 13 -24 21 2 0.81693026D-01 0.36486352D-01 0.75231880D+05 0.75231880D+05 0.75231880D+05 0.11320080D+01  1  2 15  2  7  2       -1 0.746218480686D-04 0.100000000000D+01
  </mgrwgt>
  </event>
  <event>
  8     66 0.27727860E-05 0.32796017E+03 0.75467711E-02 0.86768995E-01
        1 -1    0    0  501    0 0.00000000E+00 0.00000000E+00 0.19493565E+04 0.19493565E+04 0.32000000E+00 0.0000E+00 0.9000E+01
       -1 -1    0    0    0  501 0.00000000E+00 0.00000000E+00 -.52202629E+03 0.52202639E+03 0.32000000E+00 0.0000E+00 0.9000E+01
       25  2    1    2    0    0 0.22650482E+03 -.91800926E+03 0.39445600E+03 0.10676454E+04 0.30037608E+03 0.0000E+00 0.0000E+00
       23  2    1    2    0    0 -.22650482E+03 0.91800926E+03 0.10328742E+04 0.14037375E+04 0.98001814E+02 0.0000E+00 0.0000E+00
       24  1    3    3    0    0 0.52950000E+02 -.28816696E+03 0.25064698E+03 0.39387184E+03 0.80419002E+02 0.0000E+00 0.9000E+01
      -11  1    4    4    0    0 -.40513125E+02 0.21121153E+03 0.17914872E+03 0.27990335E+03 0.51099893E-03 0.0000E+00 0.9000E+01
       11  1    4    4    0    0 -.18599169E+03 0.70679773E+03 0.85372545E+03 0.11238341E+04 0.51099893E-03 0.0000E+00 0.9000E+01
      -24  1    3    3    0    0 0.17355482E+03 -.62984230E+03 0.14380901E+03 0.67377359E+03 0.80419002E+02 0.0000E+00 0.9000E+01
#aMCatNLO 1  0  0  2  1 0.21045969D+03 0.00000000D+00  -5  7  0 0.00000000D+00 0.00000000D+00 0.00000000D+00 0.00000000D+00 0.00000000D+00
  <mgrwgt>
 0.7232057728D-03    9    2    0
 0.100876929217466D+04 0.000000000000000D+00 0.000000000000000D+00 0.100876929217466D+04
 0.100876929217466D+04 0.000000000000000D+00 0.000000000000000D+00 -.100876929217466D+04
 0.305150109894302D+03 0.529500003491833D+02 -.288166960451906D+03 0.283808735077997D+02
 0.216126709863221D+03 -.405131250094529D+02 0.211211525724888D+03 0.214273847969005D+02
 0.772662435957089D+03 -.185991693202706D+03 0.706797734943257D+03 0.250701599272548D+03
 0.723599328634710D+03 0.173554817862976D+03 -.629842300216239D+03 -.300509857577249D+03
 0.000000000000000D+00 -.000000000000000D+00 0.000000000000000D+00 -.000000000000000D+00
 0.108481981733618D+04 0.000000000000000D+00 0.000000000000000D+00 0.108481981733618D+04
 0.117114032491413D+04 0.000000000000000D+00 0.000000000000000D+00 -.117114032491413D+04
 0.336987626282397D+03 0.640865682076730D+02 -.319657444942819D+03 0.283808735077997D+02
 0.195118525011440D+03 -.333809161286436D+02 0.191044027443461D+03 0.214273847969005D+02
 0.700875273871270D+03 -.160436190429651D+03 0.634535331125648D+03 0.250701599272548D+03
 0.795504517765237D+03 0.199900572233765D+03 -.704339270912851D+03 -.300509857577249D+03
 0.227474199319967D+03 -.701700338831433D+02 0.198417357286561D+03 -.863205075779553D+02
0.763653796007D-03 0.000000000000D+00 0.000000000000D+00 0.928890047233D-06 0.000000000000D+00  7 1 -1 24 -11 11 -24 21 0 0.29990100D+00 0.80311747D-01 0.91011277D+06 0.91011277D+06 0.91011277D+06 0.10505978D+01  1  2  2  2  7  2       -1 0.463757469375D-03 0.100000000000D+01
-.422644596230D-04 0.000000000000D+00 -.293263165133D-05 0.928890047233D-06 0.000000000000D+00  7 1 -1 24 -11 11 -24 21 2 0.29990100D+00 0.80311747D-01 0.91011277D+06 0.91011277D+06 0.91011277D+06 0.10505978D+01  1  2  3  2  7  2       -1 -.283297445407D-04 0.100000000000D+01
0.456646801873D-04 0.000000000000D+00 0.000000000000D+00 0.928890047233D-06 0.000000000000D+00  7 1 -1 24 -11 11 -24 21 2 0.29990100D+00 0.80311747D-01 0.91011277D+06 0.91011277D+06 0.91011277D+06 0.10505978D+01  1  2 15  2  7  2       -1 0.306089025099D-04 0.100000000000D+01
0.827837121832D-03 0.000000000000D+00 0.000000000000D+00 0.928890047233D-06 0.000000000000D+00  7 1 -1 24 -11 11 -24 21 2 0.29990100D+00 0.95889847D-01 0.11355592D+07 0.11355592D+07 0.11355592D+07 0.10442085D+01  1  2 12  2  7  2       -1 0.368670790326D-03 0.100000000000D+01
-.807533974781D-03 0.000000000000D+00 0.000000000000D+00 0.928890047233D-06 0.000000000000D+00  7 1 -1 24 -11 11 -24 21 2 0.29990100D+00 0.80311747D-01 0.91011277D+06 0.91011277D+06 0.91011277D+06 0.10505978D+01  1  2  4  2  7  2       -1 -.541287678051D-03 0.100000000000D+01
-.184346023019D-02 0.000000000000D+00 -.486476984874D-03 0.928890047233D-06 0.000000000000D+00  7 1 -1 24 -11 11 -24 21 2 0.29990100D+00 0.99400136D-01 0.91011277D+06 0.91011277D+06 0.91011277D+06 0.10505978D+01  1  2  5  2  7  2       -1 -.778518495287D-03 0.100000000000D+01
0.191436135723D-02 0.000000000000D+00 0.475622605464D-03 0.928890047233D-06 0.000000000000D+00  7 1 -1 24 -11 11 -24 21 2 0.29990100D+00 0.80311747D-01 0.91011277D+06 0.91011277D+06 0.91011277D+06 0.10505978D+01  1  2  6  2  7  2       -1 0.128319085805D-02 0.100000000000D+01
0.215747254782D-04 0.000000000000D+00 0.000000000000D+00 0.928890047233D-06 0.000000000000D+00  7 1 21 24 -11 11 -24 1 2 0.29990100D+00 0.95889847D-01 0.11355592D+07 0.11355592D+07 0.11355592D+07 0.10442085D+01  1  2 12  4  7  2       -1 0.653946369520D-04 0.100000000000D+01
-.491443380386D-04 0.000000000000D+00 -.146185405605D-04 0.928890047233D-06 0.000000000000D+00  7 1 21 24 -11 11 -24 1 2 0.29990100D+00 0.99400136D-01 0.91011277D+06 0.91011277D+06 0.91011277D+06 0.10505978D+01  1  2  5  4  7  2       -1 -.140280966579D-03 0.100000000000D+01
  </mgrwgt>
  </event>
  <event>
  9     66 0.27727860E-05 0.36153080E+03 0.75467711E-02 0.97657770E-01
        3 -1    0    0  501    0 0.00000000E+00 0.00000000E+00 0.18091855E+03 0.18091924E+03 0.50000000E+00 0.0000E+00 0.9000E+01
       -3 -1    0    0    0  502 0.00000000E+00 0.00000000E+00 -.11917158E+04 0.11917159E+04 0.50000000E+00 0.0000E+00 0.9000E+01
       25  2    1    2    0    0 0.30737628E+03 0.79013940E+02 -.92677974E+03 0.10254662E+04 0.30321101E+03 0.0000E+00 0.0000E+00
       23  2    1    2    0    0 -.25770179E+03 -.85391238E+02 -.65738172E+02 0.29384989E+03 0.91238004E+02 0.0000E+00 0.0000E+00
       24  1    3    3    0    0 -.10080766E+02 0.71284029E+02 -.28861466E+03 0.30813743E+03 0.80419002E+02 0.0000E+00 0.9000E+01
      -11  1    4    4    0    0 -.20784872E+02 -.39982371E+02 -.13341045E+02 0.46995578E+02 0.51099893E-03 0.0000E+00 0.9000E+01
       11  1    4    4    0    0 -.23691692E+03 -.45408867E+02 -.52397127E+02 0.24685431E+03 0.51099893E-03 0.0000E+00 0.9000E+01
      -24  1    3    3    0    0 0.31745704E+03 0.77299119E+01 -.63816507E+03 0.71732880E+03 0.80419002E+02 0.0000E+00 0.9000E+01
       21  1    1    2  501  502 -.49674484E+02 0.63772973E+01 -.18279384E+02 0.53319065E+02 0.75000000E+00 0.0000E+00 0.9000E+01
#aMCatNLO 2  0  0  2  2 0.50082176D+02 0.00000000D+00  -5  7  0 0.00000000D+00 0.00000000D+00 0.00000000D+00 0.00000000D+00 0.00000000D+00
  <mgrwgt>
 0.4744765503D-04    1    2    0
 0.433876420524136D+03 0.000000000000000D+00 0.000000000000000D+00 0.433876420524136D+03
 0.433876420524136D+03 0.000000000000000D+00 0.000000000000000D+00 -.433876420524136D+03
 0.139476131096804D+03 -.180203748460648D+02 0.723033294261927D+02 -.862198923431071D+02
 0.570880252125356D+02 -.240218633182740D+02 -.395668003866724D+02 0.334134854893422D+02
 0.328610767951508D+03 -.255319291617661D+03 -.430463383225885D+02 0.202346507008530D+03
 0.342577916787425D+03 0.297361529781999D+03 0.103098092830683D+02 -.149540100154765D+03
 0.000000000000000D+00 -.000000000000000D+00 0.000000000000000D+00 0.000000000000000D+00
 0.481194112418284D+03 0.000000000000000D+00 0.000000000000000D+00 0.481194112418284D+03
 0.448055829180382D+03 0.000000000000000D+00 0.000000000000000D+00 -.448055829180382D+03
 0.138145287184175D+03 -.100807663508748D+02 0.712840285824934D+02 -.862198923431071D+02
 0.560986800806453D+02 -.207848719778625D+02 -.399823710040810D+02 0.334134854893422D+02
 0.314858225429081D+03 -.236916922240435D+03 -.454088667323502D+02 0.202346507008530D+03
 0.360094688025514D+03 0.317457044807658D+03 0.772991186965884D+01 -.149540100154765D+03
 0.600530608792512D+02 -.496744842384858D+02 0.637729728427891D+01 0.331382832379019D+02
0.611311593096D-04 0.000000000000D+00 0.000000000000D+00 0.177145505576D-06 0.467184034236D-09  7 3 -3 24 -11 11 -24 21 2 0.27833541D-01 0.18334002D+00 0.14895196D+06 0.14895196D+06 0.14895196D+06 0.11077923D+01  1  2  1  2  7  2       -3 0.474476550256D-04 0.100000000000D+01
  </mgrwgt>
  </event>
  <event>
  9     66 -.27727860E-05 0.25688007E+03 0.75467711E-02 0.10260177E+00
        1 -1    0    0  501    0 0.00000000E+00 0.00000000E+00 0.21688806E+04 0.21688807E+04 0.32000000E+00 0.0000E+00 0.9000E+01
       21 -1    0    0  502  501 0.00000000E+00 0.00000000E+00 -.68680795E+02 0.68684890E+02 0.75000000E+00 0.0000E+00 0.9000E+01
       25  2    1    2    0    0 0.64618969E+02 -.15381374E+03 0.95734893E+03 0.10170153E+04 0.29994811E+03 0.0000E+00 0.0000E+00
       23  2    1    2    0    0 -.56233826E+02 0.14899869E+03 0.11738417E+04 0.11880845E+04 0.90981447E+02 0.0000E+00 0.0000E+00
       24  1    3    3    0    0 -.89312617E+02 -.10195714E+03 0.52682116E+03 0.54989067E+03 0.80419002E+02 0.0000E+00 0.9000E+01
      -11  1    4    4    0    0 -.34132627E+02 0.12332328E+02 0.42548949E+03 0.42703446E+03 0.51099893E-03 0.0000E+00 0.9000E+01
       11  1    4    4    0    0 -.22101199E+02 0.13666636E+03 0.74835219E+03 0.76105004E+03 0.51099893E-03 0.0000E+00 0.9000E+01
      -24  1    3    3    0    0 0.15393159E+03 -.51856600E+02 0.43052777E+03 0.46712463E+03 0.80419002E+02 0.0000E+00 0.9000E+01
        1  1    1    2  502    0 -.83851433E+01 0.48150485E+01 -.30990768E+02 0.32465758E+02 0.32000000E+00 0.0000E+00 0.9000E+01
#aMCatNLO 2  0  0  2  1 0.96692978D+01 0.00000000D+00  -5  7  0 0.00000000D+00 0.00000000D+00 0.00000000D+00 0.00000000D+00 0.00000000D+00
  <mgrwgt>
 -.3621288980D-03    2    2    0
 0.283018633299253D+03 0.000000000000000D+00 0.000000000000000D+00 0.283018633299253D+03
 0.283018633299253D+03 0.000000000000000D+00 0.000000000000000D+00 -.283018633299253D+03
 0.159115794644451D+03 -.916660024971690D+02 -.100605737787677D+03 -.180679180137322D+02
 0.621866789079637D+02 -.350491901098399D+02 0.128586510601324D+02 0.497332122344841D+02
 0.148671294997039D+03 -.242922257422865D+02 0.137924525229450D+03 0.498985677631450D+02
 0.196063498049051D+03 0.151007418349295D+03 -.501774385019062D+02 -.815638619838969D+02
 0.000000000000000D+00 -.000000000000000D+00 0.000000000000000D+00 -.000000000000000D+00
 0.283156101692749D+03 0.000000000000000D+00 0.000000000000000D+00 0.283156101692749D+03
 0.526087703823498D+03 0.000000000000000D+00 0.000000000000000D+00 -.526087703823498D+03
 0.158636902103868D+03 -.893126172211751D+02 -.101957135593810D+03 -.180679180137322D+02
 0.615671577999154D+02 -.341326268197830D+02 0.123323277113801D+02 0.497332122344841D+02
 0.147159858189235D+03 -.221011989242189D+02 0.136666359443627D+03 0.498985677631450D+02
 0.198755930082031D+03 0.153931586226857D+03 -.518566000462625D+02 -.815638619838969D+02
 0.243123957341199D+03 -.838514326168003D+01 0.481504848506591D+01 -.242931602130749D+03
-.969343516336D-04 0.000000000000D+00 0.000000000000D+00 0.130713340972D-05 0.000000000000D+00  7 1 21 24 -11 11 -24 1 2 0.33351214D+00 0.10566843D-01 0.68449511D+05 0.68449511D+05 0.68449511D+05 0.11354875D+01  1  2 13  4  7  2       -1 -.280828721341D-01 0.100000000000D+01
0.958333497845D-04 0.000000000000D+00 0.000000000000D+00 0.130713340972D-05 0.769312753314D-08  7 1 21 24 -11 11 -24 1 2 0.33367414D+00 0.10566589D-01 0.68449511D+05 0.68449511D+05 0.68449511D+05 0.11354875D+01  1  2  1  4  7  2       -1 0.277207432361D-01 0.100000000000D+01
  </mgrwgt>
  </event>
  <event>
  9     66 0.27727860E-05 0.14601240E+03 0.75467711E-02 0.10252695E+00
        1 -1    0    0  501    0 0.00000000E+00 0.00000000E+00 0.86841089E+03 0.86841094E+03 0.32000000E+00 0.0000E+00 0.9000E+01
       -1 -1    0    0    0  502 0.00000000E+00 0.00000000E+00 -.30607865E+03 0.30607881E+03 0.32000000E+00 0.0000E+00 0.9000E+01
       25  2    1    2    0    0 0.14438629E+02 -.68821995E+02 0.76943270E+03 0.82865636E+03 0.29949916E+03 0.0000E+00 0.0000E+00
       23  2    1    2    0    0 0.35526181E+02 -.69452964E+02 -.14083466E+03 0.18456292E+03 0.90239939E+02 0.0000E+00 0.0000E+00
       24  1    3    3    0    0 0.29792383E+02 -.15400315E+03 0.57228718E+03 0.59881916E+03 0.80419002E+02 0.0000E+00 0.9000E+01
      -11  1    4    4    0    0 0.15044708E+02 -.31697298E+01 0.10135758E+02 0.18415321E+02 0.51099893E-03 0.0000E+00 0.9000E+01
       11  1    4    4    0    0 0.20481473E+02 -.66283234E+02 -.15097042E+03 0.16614760E+03 0.51099893E-03 0.0000E+00 0.9000E+01
      -24  1    3    3    0    0 -.15353754E+02 0.85181154E+02 0.19714552E+03 0.22983720E+03 0.80419002E+02 0.0000E+00 0.9000E+01
       21  1    1    2  501  502 -.49964811E+02 0.13827496E+03 -.66265802E+02 0.16127047E+03 0.75000000E+00 0.0000E+00 0.9000E+01
#aMCatNLO 2  0  0  2  1 0.14702533D+03 0.00000000D+00  -5  7  0 0.00000000D+00 0.00000000D+00 0.00000000D+00 0.00000000D+00 0.00000000D+00
  <mgrwgt>
 0.4987755751D-03    1    2    0
 0.390468109283071D+03 0.000000000000000D+00 0.000000000000000D+00 0.390468109283071D+03
 0.390468109283071D+03 0.000000000000000D+00 0.000000000000000D+00 -.390468109283071D+03
 0.287108176579176D+03 0.108309585242321D+02 -.101528413227336D+03 0.256005001414493D+03
 0.142104306420813D+02 0.141037242862591D+02 -.565606233764197D+00 -.164359054478750D+01
 0.324040546566732D+03 -.299505887876030D+00 -.877297928351630D+01 -.323921627789780D+03
 0.155577064778153D+03 -.246351769226151D+02 0.110866998744617D+03 0.695602169200748D+02
 0.000000000000000D+00 -.000000000000000D+00 0.000000000000000D+00 -.000000000000000D+00
 0.420318972464809D+03 0.000000000000000D+00 0.000000000000000D+00 0.420318972464809D+03
 0.632380452101947D+03 0.000000000000000D+00 0.000000000000000D+00 -.632380452101947D+03
 0.310822027313270D+03 0.297923833274916D+02 -.154003148848307D+03 0.256005001414493D+03
 0.154625944934505D+02 0.150447084197414D+02 -.316972982364985D+01 -.164359054478750D+01
 0.331267533536030D+03 0.204814729001967D+02 -.662832338748097D+02 -.323921627789780D+03
 0.137103634221414D+03 -.153537540586783D+02 0.851811541403759D+02 0.695602169200748D+02
 0.258043635002592D+03 -.499648105887513D+02 0.138274958406391D+03 -.212061479637137D+03
0.356226857600D-04 0.000000000000D+00 0.000000000000D+00 0.218555411297D-05 0.765550410294D-09  7 1 -1 24 -11 11 -24 21 2 0.13360153D+00 0.47088982D-01 0.69220286D+05 0.69220286D+05 0.69220286D+05 0.11350734D+01  1  2  1  2  7  2       -1 0.498775575116D-03 0.100000000000D+01
  </mgrwgt>
  </event>
  <event>
  7     66 0.27727860E-05 0.23471567E+03 0.75467711E-02 0.90237921E-01
        1 -1    0    0  501    0 0.00000000E+00 0.00000000E+00 0.17882740E+04 0.17882740E+04 0.32000000E+00 0.0000E+00 0.9000E+01
       -1 -1    0    0    0  501 0.00000000E+00 0.00000000E+00 -.44707708E+03 0.44707720E+03 0.32000000E+00 0.0000E+00 0.9000E+01
       23  2    1    2    0    0 -.12103646E+03 0.52368608E+03 -.17842714E+03 0.57324462E+03 0.88748054E+02 0.0000E+00 0.0000E+00
       24  1    1    2    0    0 0.21562084E+03 -.19199504E+03 0.89773048E+03 0.94643630E+03 0.80419002E+02 0.0000E+00 0.9000E+01
      -13  1    3    3    0    0 -.52645140E+01 0.12832600E+03 -.12206838E+02 0.12901277E+03 0.10565837E+00 0.0000E+00 0.9000E+01
       13  1    3    3    0    0 -.11577194E+03 0.39536008E+03 -.16622030E+03 0.44423185E+03 0.10565837E+00 0.0000E+00 0.9000E+01
      -24  1    1    2    0    0 -.94584387E+02 -.33169103E+03 0.62189357E+03 0.71567030E+03 0.80419002E+02 0.0000E+00 0.9000E+01
#aMCatNLO 1  0  0  1  2 0.27200311D+03 0.00000000D+00  -5  7  0 0.00000000D+00 0.00000000D+00 0.00000000D+00 0.00000000D+00 0.00000000D+00
  <mgrwgt>
 0.1967203426D-02    9    2    0
 0.894145672674648D+03 0.000000000000000D+00 0.000000000000000D+00 0.894145672674648D+03
 0.894145672674648D+03 0.000000000000000D+00 0.000000000000000D+00 -.894145672674648D+03
 0.509751502049835D+03 0.215620844339159D+03 -.191995044497981D+03 0.412340796262484D+03
 0.170419286302392D+03 -.526435732728646D+01 0.128325619149210D+03 -.112015870106513D+03
 0.679950534808314D+03 -.115772099938753D+03 0.395360459376334D+03 -.540943303705313D+03
 0.428170022188756D+03 -.945843870731201D+02 -.331691034027563D+03 0.240618377549342D+03
 0.000000000000000D+00 -.000000000000000D+00 0.000000000000000D+00 0.000000000000000D+00
 0.108359612879400D+04 0.000000000000000D+00 0.000000000000000D+00 0.108359612879400D+04
 0.100766553649950D+04 0.000000000000000D+00 0.000000000000000D+00 -.100766553649950D+04
 0.549551812447551D+03 0.295657400617396D+03 -.195196690053400D+03 0.412340796262484D+03
 0.170799101434930D+03 0.205166860429643D+02 0.127294318369182D+03 -.112015870106513D+03
 0.667772173600747D+03 -.139437728460348D+02 0.391287093079579D+03 -.540943303705313D+03
 0.420736119207521D+03 -.304445668432158D+02 -.334256773733437D+03 0.240618377549342D+03
 0.282402458602751D+03 -.271785746971110D+03 0.108720523380749D+02 0.759305922944924D+02
0.125237246013D-02 0.000000000000D+00 0.000000000000D+00 0.337901927103D-09 0.000000000000D+00  7 1 -1 24 -13 13 -24 21 0 0.27511909D+00 0.68781101D-01 0.35656600D+06 0.35656600D+06 0.35656600D+06 0.10790449D+01  1  2  2  1  7  1        1 0.141465893397D-02 0.100000000000D+01
-.557874143636D-04 0.000000000000D+00 -.480944000414D-05 0.337901927103D-09 0.000000000000D+00  7 1 -1 24 -13 13 -24 21 2 0.27511909D+00 0.68781101D-01 0.35656600D+06 0.35656600D+06 0.35656600D+06 0.10790449D+01  1  2  3  1  7  1        1 -.733725327365D-04 0.100000000000D+01
0.744872047394D-04 0.000000000000D+00 0.000000000000D+00 0.337901927103D-09 0.000000000000D+00  7 1 -1 24 -13 13 -24 21 2 0.27511909D+00 0.68781101D-01 0.35656600D+06 0.35656600D+06 0.35656600D+06 0.10790449D+01  1  2 15  1  7  1        1 0.979668072188D-04 0.100000000000D+01
0.634623021990D-03 0.000000000000D+00 0.000000000000D+00 0.337901927103D-09 0.000000000000D+00  7 1 -1 24 -13 13 -24 21 2 0.34785815D+00 0.68781101D-01 0.56318226D+06 0.56318226D+06 0.56318226D+06 0.10648771D+01  1  2 12  1  7  1        1 0.379814116955D-03 0.100000000000D+01
-.831622159135D-03 0.000000000000D+00 0.000000000000D+00 0.337901927103D-09 0.000000000000D+00  7 1 -1 24 -13 13 -24 21 2 0.27511909D+00 0.68781101D-01 0.35656600D+06 0.35656600D+06 0.35656600D+06 0.10790449D+01  1  2  4  1  7  1        1 -.109376325811D-02 0.100000000000D+01
-.155053227657D-02 0.000000000000D+00 -.602311845089D-03 0.337901927103D-09 0.000000000000D+00  7 1 -1 24 -13 13 -24 21 2 0.35194725D+00 0.68781101D-01 0.35656600D+06 0.35656600D+06 0.35656600D+06 0.10790449D+01  1  2  5  1  7  1        1 -.943817732988D-03 0.100000000000D+01
0.166590677832D-02 0.000000000000D+00 0.584496489583D-03 0.337901927103D-09 0.000000000000D+00  7 1 -1 24 -13 13 -24 21 2 0.27511909D+00 0.68781101D-01 0.35656600D+06 0.35656600D+06 0.35656600D+06 0.10790449D+01  1  2  6  1  7  1        1 0.219102822783D-02 0.100000000000D+01
0.204881739898D-04 0.000000000000D+00 0.000000000000D+00 0.337901927103D-09 0.000000000000D+00  7 21 -1 24 -13 13 -24 -1 2 0.34785815D+00 0.68781101D-01 0.56318226D+06 0.56318226D+06 0.56318226D+06 0.10648771D+01  1  2 12  3  7  1        1 0.487595984273D-05 0.100000000000D+01
-.420483022092D-04 0.000000000000D+00 -.201595608444D-04 0.337901927103D-09 0.000000000000D+00  7 21 -1 24 -13 13 -24 -1 2 0.35194725D+00 0.68781101D-01 0.35656600D+06 0.35656600D+06 0.35656600D+06 0.10790449D+01  1  2  5  3  7  1        1 -.101870957338D-04 0.100000000000D+01
  </mgrwgt>
  </event>
  <event>
  8     66 0.27727860E-05 0.27061806E+03 0.75467711E-02 0.94762334E-01
        1 -1    0    0  501    0 0.00000000E+00 0.00000000E+00 0.18064068E+04 0.18064068E+04 0.32000000E+00 0.0000E+00 0.9000E+01
       -1 -1    0    0    0  501 0.00000000E+00 0.00000000E+00 -.14289982E+03 0.14290018E+03 0.32000000E+00 0.0000E+00 0.9000E+01
       25  2    1    2    0    0 -.18987364E+03 0.37316732E+03 0.54596832E+03 0.75112876E+03 0.30134226E+03 0.0000E+00 0.0000E+00
       23  2    1    2    0    0 0.18987364E+03 -.37316732E+03 0.11175387E+04 0.11981783E+04 0.10692335E+03 0.0000E+00 0.0000E+00
       24  1    3    3    0    0 -.19771305E+03 0.10945645E+03 0.24412716E+03 0.34225203E+03 0.80419002E+02 0.0000E+00 0.9000E+01
      -11  1    4    4    0    0 0.19932458E+03 -.34761525E+03 0.10788288E+04 0.11508424E+04 0.51099893E-03 0.0000E+00 0.9000E+01
       11  1    4    4    0    0 -.94509434E+01 -.25552068E+02 0.38709827E+02 0.47335813E+02 0.51099893E-03 0.0000E+00 0.9000E+01
      -24  1    3    3    0    0 0.78394088E+01 0.26371087E+03 0.30184116E+03 0.40887673E+03 0.80419002E+02 0.0000E+00 0.9000E+01
#aMCatNLO 1  0  0  1  2 0.43604579D+02 0.00000000D+00  -5  7  0 0.00000000D+00 0.00000000D+00 0.00000000D+00 0.00000000D+00 0.00000000D+00
  <mgrwgt>
 0.1405781849D-02    9    2    0
 0.508070450279456D+03 0.000000000000000D+00 0.000000000000000D+00 0.508070450279456D+03
 0.508070450279456D+03 0.000000000000000D+00 0.000000000000000D+00 -.508070450279456D+03
 0.256900435091144D+03 -.197713049094344D+03 0.109456449139675D+03 -.919752877418686D+02
 0.441578449275294D+03 0.199324583707554D+03 -.347615253077667D+03 0.185539410966871D+03
 0.274351367186053D+02 -.945094338650475D+01 -.255520675313356D+02 -.323392033725521D+01
 0.290226879473868D+03 0.783940877329489D+01 0.263710871469328D+03 -.903302028877471D+02
 0.000000000000000D+00 -.000000000000000D+00 -.000000000000000D+00 0.000000000000000D+00
 0.537278639374067D+03 0.000000000000000D+00 0.000000000000000D+00 0.537278639374067D+03
 0.525076982357276D+03 0.000000000000000D+00 0.000000000000000D+00 -.525076982357276D+03
 0.253955855704725D+03 -.189556164658703D+03 0.116770576675085D+03 -.919752877418686D+02
 0.438394559347796D+03 0.213375185152903D+03 -.335016338414679D+03 0.185539410966871D+03
 0.264264238594228D+02 -.859093141626197D+01 -.247809106905141D+02 -.323392033725521D+01
 0.298299209905444D+03 0.172364532746911D+02 0.272137027617724D+03 -.903302028877471D+02
 0.452795729139553D+02 -.324645423526296D+02 -.291103551876153D+02 0.122016570167904D+02
0.624281376464D-04 0.000000000000D+00 0.000000000000D+00 0.724408213567D-08 0.000000000000D+00  7 1 -1 24 -11 11 -24 21 0 0.27790877D+00 0.21984617D-01 0.22261169D+06 0.22261169D+06 0.22261169D+06 0.10942705D+01  1  2  2  1  7  1        1 0.523767207370D-03 0.100000000000D+01
-.344512084727D-05 0.000000000000D+00 -.239740486268D-06 0.724408213567D-08 0.000000000000D+00  7 1 -1 24 -11 11 -24 21 2 0.27790877D+00 0.21984617D-01 0.22261169D+06 0.22261169D+06 0.22261169D+06 0.10942705D+01  1  2  3  1  7  1        1 -.346108075582D-04 0.100000000000D+01
0.392353873879D-05 0.000000000000D+00 0.000000000000D+00 0.724408213567D-08 0.000000000000D+00  7 1 -1 24 -11 11 -24 21 2 0.27790877D+00 0.21984617D-01 0.22261169D+06 0.22261169D+06 0.22261169D+06 0.10942705D+01  1  2 15  1  7  1        1 0.394171497186D-04 0.100000000000D+01
0.143893410288D-03 0.000000000000D+00 0.000000000000D+00 0.724408213567D-08 0.000000000000D+00  7 1 -1 24 -11 11 -24 21 2 0.29832297D+00 0.21984617D-01 0.24405458D+06 0.24405458D+06 0.24405458D+06 0.10912464D+01  1  2 12  1  7  1        1 0.117012944383D-02 0.100000000000D+01
-.130523917636D-03 0.000000000000D+00 0.000000000000D+00 0.724408213567D-08 0.000000000000D+00  7 1 -1 24 -11 11 -24 21 2 0.27790877D+00 0.21984617D-01 0.22261169D+06 0.22261169D+06 0.22261169D+06 0.10942705D+01  1  2  4  1  7  1        1 -.131128584318D-02 0.100000000000D+01
-.527014540028D-03 0.000000000000D+00 -.913977682961D-04 0.724408213567D-08 0.000000000000D+00  7 1 -1 24 -11 11 -24 21 2 0.29866619D+00 0.21984617D-01 0.22261169D+06 0.22261169D+06 0.22261169D+06 0.10942705D+01  1  2  5  1  7  1        1 -.431115445214D-02 0.100000000000D+01
0.532452860407D-03 0.000000000000D+00 0.911611555787D-04 0.724408213567D-08 0.000000000000D+00  7 1 -1 24 -11 11 -24 21 2 0.27790877D+00 0.21984617D-01 0.22261169D+06 0.22261169D+06 0.22261169D+06 0.10942705D+01  1  2  6  1  7  1        1 0.534919507976D-02 0.100000000000D+01
0.177863594594D-05 0.000000000000D+00 0.000000000000D+00 0.724408213567D-08 0.000000000000D+00  7 21 -1 24 -11 11 -24 -1 2 0.29832297D+00 0.21984617D-01 0.24405458D+06 0.24405458D+06 0.24405458D+06 0.10912464D+01  1  2 12  3  7  1        1 0.774009853291D-05 0.100000000000D+01
-.624715546515D-05 0.000000000000D+00 -.111155417188D-05 0.724408213567D-08 0.000000000000D+00  7 21 -1 24 -11 11 -24 -1 2 0.29866619D+00 0.21984617D-01 0.22261169D+06 0.22261169D+06 0.22261169D+06 0.10942705D+01  1  2  5  3  7  1        1 -.274160275433D-04 0.100000000000D+01
  </mgrwgt>
  </event>
  <event>
  8     66 0.27727860E-05 0.24752901E+03 0.75467711E-02 0.90741160E-01
        1 -1    0    0  501    0 0.00000000E+00 0.00000000E+00 0.31742756E+03 0.31742772E+03 0.32000000E+00 0.0000E+00 0.9000E+01
       -1 -1    0    0    0  501 0.00000000E+00 0.00000000E+00 -.39537026E+03 0.39537039E+03 0.32000000E+00 0.0000E+00 0.9000E+01
       25  2    1    2    0    0 0.21268234E+03 -.26359702E+02 0.14232292E+03 0.39267120E+03 0.29665846E+03 0.0000E+00 0.0000E+00
       23  2    1    2    0    0 -.21268234E+03 0.26359702E+02 -.22026562E+03 0.32012691E+03 0.89641963E+02 0.0000E+00 0.0000E+00
       24  1    3    3    0    0 0.97336256E+02 -.54152548E+02 -.55677155E+02 0.14823632E+03 0.80419002E+02 0.0000E+00 0.9000E+01
      -13  1    4    4    0    0 -.15020221E+03 0.16903639E+02 -.20572706E+03 0.25528430E+03 0.10565837E+00 0.0000E+00 0.9000E+01
       13  1    4    4    0    0 -.62480126E+02 0.94560636E+01 -.14538563E+02 0.64842612E+02 0.10565837E+00 0.0000E+00 0.9000E+01
      -24  1    3    3    0    0 0.11534608E+03 0.27792846E+02 0.19800008E+03 0.24443488E+03 0.80419002E+02 0.0000E+00 0.9000E+01
#aMCatNLO 1  0  0  2  1 0.64371890D+03 0.00000000D+00  -5  7  0 0.00000000D+00 0.00000000D+00 0.00000000D+00 0.00000000D+00 0.00000000D+00
  <mgrwgt>
 0.2113290645D-02    3    2    0
 0.354261935288730D+03 0.000000000000000D+00 0.000000000000000D+00 0.354261935288730D+03
 0.354261935288730D+03 0.000000000000000D+00 0.000000000000000D+00 -.354261935288730D+03
 0.143005683790920D+03 0.973362557939879D+02 -.541525481152716D+02 -.397059754038176D+02
 0.234193110606567D+03 -.150202335671060D+03 0.169036491882275D+02 -.178885265068589D+03
 0.636341978117836D+02 -.624800044547955D+02 0.945605322174075D+01 -.749287874888834D+01
 0.267690878368189D+03 0.115346084331868D+03 0.277928457053033D+02 0.226084119221295D+03
 0.000000000000000D+00 0.000000000000000D+00 -.000000000000000D+00 0.000000000000000D+00
 0.879078860714055D+03 0.000000000000000D+00 0.000000000000000D+00 0.879078860714055D+03
 0.737337820892506D+03 0.000000000000000D+00 0.000000000000000D+00 -.737337820892506D+03
 0.953955080629720D+02 0.804032018005900D+01 -.314940593264125D+02 -.397059754038176D+02
 0.452464725892653D+03 -.407398004367265D+03 0.821660279922531D+02 -.178885265068589D+03
 0.143109926766355D+03 -.139918417800489D+03 0.291057428583061D+02 -.749287874888834D+01
 0.266307277886389D+03 -.846691278743255D+02 0.785459109172475D+02 0.226084119221295D+03
 0.659139242998192D+03 0.623945229862021D+03 -.158323622441394D+03 0.141741039821549D+03
0.731488173825D-04 0.000000000000D+00 0.000000000000D+00 0.475445374662D-07 0.000000000000D+00  7 1 -1 24 -13 13 -24 21 0 0.48835031D-01 0.60826216D-01 0.61270611D+05 0.61270611D+05 0.61270611D+05 0.11396101D+01  1  2  2  2  7  2       -1 0.207322852377D-02 0.100000000000D+01
-.342876152354D-05 0.000000000000D+00 -.280910719275D-06 0.475445374662D-07 0.000000000000D+00  7 1 -1 24 -13 13 -24 21 2 0.48835031D-01 0.60826216D-01 0.61270611D+05 0.61270611D+05 0.61270611D+05 0.11396101D+01  1  2  3  2  7  2       -1 -.126208836349D-03 0.100000000000D+01
0.451714379445D-05 0.000000000000D+00 0.000000000000D+00 0.475445374662D-07 0.000000000000D+00  7 1 -1 24 -13 13 -24 21 2 0.48835031D-01 0.60826216D-01 0.61270611D+05 0.61270611D+05 0.61270611D+05 0.11396101D+01  1  2 15  2  7  2       -1 0.166270957606D-03 0.100000000000D+01
  </mgrwgt>
  </event>
</LesHouchesEvents>
